LAMMPS Description

1000 atoms

2 atom types
0 6.716794 xlo xhi
0 6.716794 ylo yhi
0 6.716794 zlo zhi


Atoms # sphere

1 1 1 2.35 2.99612 0.292355 1.3211
2 2 0.5 2.35 2.68918 0.324462 0.121145
3 2 0.5 2.35 2.54673 0.0210765 0.505619
4 2 0.5 2.35 0.596603 3.8727 5.0128
5 2 0.5 2.35 5.20167 4.91468 0.023238
6 2 0.5 2.35 2.24716 3.38777 5.43435
7 2 0.5 2.35 4.73524 1.06068 2.49801
8 2 0.5 2.35 0.591702 4.20067 4.01019
9 1 1 2.35 4.28462 1.19988 2.05889
10 2 0.5 2.35 4.11735 2.85725 6.49731
11 2 0.5 2.35 4.80856 0.931552 2.499
12 2 0.5 2.35 1.08645 6.07367 4.66823
13 2 0.5 2.35 2.25139 6.24322 0.467957
14 2 0.5 2.35 1.74281 2.93435 0.796294
15 2 0.5 2.35 1.44314 3.77322 1.81522
16 2 0.5 2.35 2.28342 3.29652 3.0348
17 2 0.5 2.35 4.17202 1.33055 1.60967
18 2 0.5 2.35 4.51209 0.55985 5.18577
19 2 0.5 2.35 6.23465 4.29873 6.26736
20 2 0.5 2.35 1.6862 1.94751 2.37813
21 2 0.5 2.35 6.68407 0.314232 2.66338
22 2 0.5 2.35 2.99664 5.92505 2.47825
23 1 1 2.35 3.49572 1.37011 1.75159
24 2 0.5 2.35 4.64237 4.06057 4.73408
25 2 0.5 2.35 4.63245 4.03022 3.97433
26 2 0.5 2.35 5.44972 0.0823468 2.0419
27 2 0.5 2.35 4.68442 1.96934 4.16017
28 2 0.5 2.35 5.0341 6.02023 0.0288683
29 2 0.5 2.35 1.45171 4.06945 4.15225
30 2 0.5 2.35 1.5942 0.96062 3.73689
31 2 0.5 2.35 3.99037 3.07915 5.22459
32 2 0.5 2.35 4.92558 1.32813 2.59636
33 2 0.5 2.35 4.80845 6.67559 5.90657
34 2 0.5 2.35 3.34527 3.06009 3.77935
35 2 0.5 2.35 4.9894 2.97262 1.09939
36 1 1 2.35 6.38082 6.14426 3.04943
37 2 0.5 2.35 2.96241 3.56234 3.00699
38 2 0.5 2.35 3.69101 0.878448 5.82053
39 2 0.5 2.35 6.08501 4.19118 5.19751
40 2 0.5 2.35 2.26319 2.24642 4.93077
41 2 0.5 2.35 2.7537 0.430016 0.341369
42 2 0.5 2.35 6.08242 6.45646 1.19832
43 2 0.5 2.35 1.06791 6.21365 0.998881
44 2 0.5 2.35 5.16968 6.35633 4.60614
45 2 0.5 2.35 4.45443 1.1547 6.61643
46 1 1 2.35 1.02269 0.673767 2.26867
47 2 0.5 2.35 4.77508 5.54389 1.63029
48 1 1 2.35 3.90739 1.78639 5.30272
49 2 0.5 2.35 5.03603 2.74494 3.91182
50 2 0.5 2.35 0.595385 3.04066 3.34118
51 1 1 2.35 5.69458 2.36227 3.89823
52 2 0.5 2.35 1.26643 6.51762 5.56842
53 2 0.5 2.35 5.5817 3.99779 4.16318
54 2 0.5 2.35 1.51311 0.960231 4.37567
55 1 1 2.35 2.85097 4.11632 5.7669
56 2 0.5 2.35 1.33705 5.10586 5.75628
57 2 0.5 2.35 4.51558 4.67016 5.64582
58 2 0.5 2.35 2.53222 4.95146 3.75927
59 2 0.5 2.35 4.30595 4.97555 4.57417
60 2 0.5 2.35 5.81413 0.807527 5.32427
61 2 0.5 2.35 1.78607 0.289425 5.26099
62 2 0.5 2.35 4.61086 2.33847 6.06158
63 2 0.5 2.35 1.97509 5.22061 3.00145
64 2 0.5 2.35 0.695398 6.39827 4.58064
65 2 0.5 2.35 5.54869 0.517672 4.82259
66 2 0.5 2.35 6.51872 5.44134 2.28906
67 2 0.5 2.35 0.962047 3.68436 1.80918
68 2 0.5 2.35 6.69008 2.03129 5.19731
69 2 0.5 2.35 4.83939 6.37761 1.96973
70 2 0.5 2.35 5.31384 0.334617 5.35732
71 2 0.5 2.35 1.07446 0.34597 6.43833
72 2 0.5 2.35 1.2978 0.561149 4.46877
73 2 0.5 2.35 3.2939 5.72317 0.0337441
74 2 0.5 2.35 0.660127 6.53794 6.65787
75 2 0.5 2.35 4.3387 1.51739 1.18411
76 2 0.5 2.35 1.00229 1.63424 1.332
77 2 0.5 2.35 2.11732 3.63949 3.67474
78 2 0.5 2.35 0.945844 3.39579 1.73042
79 2 0.5 2.35 4.07751 5.44766 5.1448
80 2 0.5 2.35 1.35794 3.57525 3.50893
81 2 0.5 2.35 4.24597 1.99172 3.84371
82 2 0.5 2.35 4.60012 1.86018 3.12316
83 2 0.5 2.35 4.88958 5.88648 3.12405
84 2 0.5 2.35 6.71145 0.45598 6.55639
85 1 1 2.35 5.75132 5.11008 1.80845
86 2 0.5 2.35 6.57317 4.95999 5.11833
87 2 0.5 2.35 6.58182 2.99815 4.71147
88 2 0.5 2.35 3.44218 3.96005 1.74912
89 2 0.5 2.35 4.86675 1.71478 3.66094
90 1 1 2.35 2.78014 2.48503 0.27819
91 2 0.5 2.35 3.76387 2.27793 4.51538
92 2 0.5 2.35 5.45761 3.21329 0.979853
93 2 0.5 2.35 4.12147 2.69692 2.58787
94 2 0.5 2.35 0.850356 1.68053 3.28773
95 2 0.5 2.35 0.0670865 2.74583 3.88107
96 2 0.5 2.35 3.36617 4.7211 1.8142
97 2 0.5 2.35 4.51356 2.26137 4.52078
98 2 0.5 2.35 0.441333 4.47776 0.0896779
99 2 0.5 2.35 2.79754 0.179755 2.40797
100 2 0.5 2.35 5.66565 2.86495 4.04942
101 2 0.5 2.35 3.41908 1.27194 2.32314
102 2 0.5 2.35 1.41326 0.983065 1.07713
103 2 0.5 2.35 6.09293 3.04104 3.0776
104 2 0.5 2.35 4.50875 1.98141 6.70362
105 2 0.5 2.35 2.37096 3.47015 5.2614
106 2 0.5 2.35 3.86768 2.66472 3.68586
107 2 0.5 2.35 4.34736 5.12009 0.424608
108 2 0.5 2.35 0.984458 0.163346 0.803721
109 2 0.5 2.35 0.699267 4.96852 6.39064
110 1 1 2.35 4.6374 4.5076 5.53257
111 2 0.5 2.35 2.55973 5.58532 0.750599
112 2 0.5 2.35 3.52732 3.79331 4.43809
113 2 0.5 2.35 5.28262 0.26415 3.02147
114 2 0.5 2.35 0.20448 0.935122 2.11496
115 2 0.5 2.35 5.45364 5.18912 0.489353
116 2 0.5 2.35 1.70661 3.33405 1.75776
117 2 0.5 2.35 2.25801 1.65362 2.15788
118 2 0.5 2.35 4.46241 2.02711 5.75603
119 2 0.5 2.35 0.812709 4.88916 2.04798
120 2 0.5 2.35 2.42065 3.08776 3.05977
121 2 0.5 2.35 0.120455 1.96569 1.24146
122 2 0.5 2.35 4.14916 4.25033 0.330963
123 2 0.5 2.35 2.90075 0.00483444 5.88591
124 2 0.5 2.35 0.485953 2.0872 3.97914
125 2 0.5 2.35 0.493744 5.04818 2.0986
126 2 0.5 2.35 6.35923 1.50861 2.36579
127 2 0.5 2.35 4.83734 3.46015 4.44893
128 2 0.5 2.35 2.79083 2.0275 2.21995
129 2 0.5 2.35 4.08251 0.62163 6.59582
130 2 0.5 2.35 0.974693 6.12896 0.366845
131 1 1 2.35 2.43943 0.351994 3.25942
132 2 0.5 2.35 0.0709034 2.27514 0.665203
133 2 0.5 2.35 1.34012 6.10406 3.71287
134 2 0.5 2.35 4.90406 0.708813 6.4624
135 2 0.5 2.35 4.56075 4.60901 3.41667
136 1 1 2.35 5.12968 1.87295 2.93979
137 2 0.5 2.35 5.71738 3.78076 4.60479
138 2 0.5 2.35 2.45222 0.0758519 4.10189
139 2 0.5 2.35 0.561221 3.68317 4.74444
140 2 0.5 2.35 1.98438 0.293051 5.56689
141 2 0.5 2.35 5.42022 4.5852 2.50431
142 2 0.5 2.35 0.926821 0.372302 5.01116
143 2 0.5 2.35 3.00545 2.04878 5.72033
144 2 0.5 2.35 0.13781 1.95764 1.67802
145 2 0.5 2.35 4.66868 2.10621 2.68442
146 2 0.5 2.35 3.52598 4.50039 3.03815
147 2 0.5 2.35 2.46216 6.69944 3.88584
148 2 0.5 2.35 1.58477 0.719483 4.67912
149 2 0.5 2.35 2.79592 0.77008 2.06399
150 2 0.5 2.35 1.60686 5.39924 0.960684
151 1 1 2.35 4.38893 2.12796 1.25448
152 2 0.5 2.35 0.800853 4.49435 4.5435
153 2 0.5 2.35 3.72319 3.95468 1.29571
154 1 1 2.35 5.91017 3.89315 4.05966
155 2 0.5 2.35 2.59073 5.56873 0.076158
156 1 1 2.35 2.89899 1.60709 4.21901
157 2 0.5 2.35 6.61342 2.16371 0.196729
158 2 0.5 2.35 1.13379 4.51445 1.64692
159 2 0.5 2.35 5.59825 4.7664 0.235303
160 2 0.5 2.35 4.13982 4.42174 6.23197
161 1 1 2.35 1.66584 1.17698 4.86556
162 2 0.5 2.35 5.98883 4.72716 1.20007
163 2 0.5 2.35 4.01293 1.68412 6.14405
164 2 0.5 2.35 2.06785 4.12242 2.95972
165 2 0.5 2.35 2.08353 1.84555 2.32352
166 2 0.5 2.35 3.99972 6.36348 5.98095
167 1 1 2.35 5.79978 0.381524 2.01481
168 2 0.5 2.35 1.0959 3.60333 1.19918
169 1 1 2.35 0.584003 4.29222 6.4014
170 2 0.5 2.35 0.908904 4.0494 3.64266
171 2 0.5 2.35 4.94757 5.43178 2.00435
172 2 0.5 2.35 4.64614 2.9062 3.30824
173 2 0.5 2.35 4.76009 1.6002 4.98905
174 2 0.5 2.35 4.59159 3.78231 6.06754
175 2 0.5 2.35 3.11234 1.82641 0.342662
176 2 0.5 2.35 2.65516 3.99093 1.60771
177 2 0.5 2.35 0.000266254 5.3203 0.856642
178 2 0.5 2.35 4.9232 3.68435 5.18511
179 2 0.5 2.35 5.79035 4.1612 6.26887
180 2 0.5 2.35 2.18947 4.14839 4.97223
181 2 0.5 2.35 0.837773 0.81265 3.18799
182 2 0.5 2.35 2.5829 1.87902 1.50381
183 2 0.5 2.35 4.37112 6.06797 1.67347
184 2 0.5 2.35 1.46068 4.64635 0.861768
185 2 0.5 2.35 4.97688 1.49472 6.69374
186 1 1 2.35 2.46193 3.19026 0.24332
187 2 0.5 2.35 6.00091 6.70073 3.9053
188 2 0.5 2.35 4.7529 4.09292 3.86424
189 2 0.5 2.35 1.23227 3.07826 5.43995
190 2 0.5 2.35 6.64912 1.64677 4.70197
191 2 0.5 2.35 5.92685 4.95176 0.222372
192 2 0.5 2.35 0.610776 0.442175 1.08841
193 2 0.5 2.35 2.48632 6.28462 3.94586
194 2 0.5 2.35 1.04226 4.04442 3.76774
195 2 0.5 2.35 4.70646 3.20882 1.63486
196 2 0.5 2.35 0.00713152 4.05026 4.8436
197 2 0.5 2.35 4.68611 4.44681 0.539798
198 1 1 2.35 4.77971 4.54306 3.48953
199 2 0.5 2.35 2.51001 6.68566 6.5162
200 2 0.5 2.35 0.596894 1.42689 0.5409
201 1 1 2.35 2.6591 1.02574 3.06756
202 1 1 2.35 1.87682 1.07732 3.24326
203 2 0.5 2.35 5.63492 1.96664 2.74087
204 2 0.5 2.35 5.2316 1.4707 6.1812
205 2 0.5 2.35 6.68594 1.43889 3.9796
206 2 0.5 2.35 2.15848 2.15805 4.14006
207 2 0.5 2.35 1.96785 5.66303 0.604942
208 2 0.5 2.35 3.35389 1.13416 3.74931
209 2 0.5 2.35 2.40459 0.646349 3.49785
210 2 0.5 2.35 2.06178 3.37395 5.97251
211 2 0.5 2.35 2.29607 6.53272 0.247038
212 1 1 2.35 4.27693 0.692392 1.90552
213 2 0.5 2.35 2.20652 3.82827 1.02646
214 2 0.5 2.35 0.34988 1.08565 6.45245
215 2 0.5 2.35 3.54392 1.94857 5.37259
216 2 0.5 2.35 4.15428 2.6751 0.729015
217 2 0.5 2.35 2.31947 1.7147 0.380347
218 1 1 2.35 3.24376 6.46485 0.833641
219 2 0.5 2.35 6.52231 5.33035 5.00183
220 2 0.5 2.35 4.55925 4.83291 3.02701
221 2 0.5 2.35 5.63317 4.99867 3.92341
222 2 0.5 2.35 5.10095 4.99119 3.00875
223 1 1 2.35 5.04812 2.71285 3.70465
224 2 0.5 2.35 5.71273 3.33875 1.81842
225 2 0.5 2.35 1.17984 6.64501 1.05646
226 2 0.5 2.35 0.226255 1.39516 1.76028
227 2 0.5 2.35 5.19105 1.74656 5.82558
228 2 0.5 2.35 5.07722 4.70636 5.98397
229 2 0.5 2.35 2.72259 5.6331 0.701407
230 2 0.5 2.35 5.22656 3.55861 2.68629
231 2 0.5 2.35 2.59959 6.16429 1.83578
232 2 0.5 2.35 6.42126 2.73693 0.718042
233 2 0.5 2.35 1.73759 5.46344 6.19291
234 2 0.5 2.35 1.8484 4.76232 6.5559
235 2 0.5 2.35 1.54219 1.95304 5.38555
236 1 1 2.35 3.15686 0.589166 6.51858
237 2 0.5 2.35 4.80973 3.59265 4.90269
238 2 0.5 2.35 2.91644 4.16026 4.84513
239 1 1 2.35 3.4928 0.159364 0.456438
240 2 0.5 2.35 5.58074 2.79944 3.69114
241 2 0.5 2.35 1.39726 4.44772 2.5274
242 2 0.5 2.35 2.83944 1.57022 3.07786
243 2 0.5 2.35 1.12536 0.190096 6.61934
244 2 0.5 2.35 6.38319 3.70175 6.45176
245 2 0.5 2.35 4.51095 4.96209 2.45498
246 2 0.5 2.35 4.85537 3.86605 4.59802
247 2 0.5 2.35 5.32776 5.89328 2.06973
248 2 0.5 2.35 4.07121 3.05544 4.65832
249 2 0.5 2.35 1.03187 3.06025 6.03439
250 2 0.5 2.35 4.35798 0.933013 3.99528
251 2 0.5 2.35 6.41458 1.51101 0.987298
252 2 0.5 2.35 4.58959 2.24592 0.162981
253 2 0.5 2.35 4.77133 4.49179 4.76509
254 2 0.5 2.35 2.9749 3.34252 4.79657
255 2 0.5 2.35 4.54192 0.593809 2.93381
256 2 0.5 2.35 4.74026 2.41405 6.12022
257 2 0.5 2.35 1.97919 3.64991 4.88571
258 2 0.5 2.35 6.59761 1.4911 5.98905
259 2 0.5 2.35 5.57484 2.32418 0.56576
260 2 0.5 2.35 3.74173 2.72149 0.219654
261 2 0.5 2.35 3.36796 0.768357 0.949371
262 2 0.5 2.35 0.0614113 0.924868 6.31529
263 2 0.5 2.35 0.584671 1.1142 0.0816965
264 2 0.5 2.35 3.85044 3.56273 1.21175
265 2 0.5 2.35 4.0294 0.417844 3.43116
266 2 0.5 2.35 5.97576 4.39165 4.92549
267 2 0.5 2.35 2.60209 1.23455 2.40733
268 2 0.5 2.35 0.208414 6.32522 5.52025
269 2 0.5 2.35 2.18531 1.68824 0.718368
270 2 0.5 2.35 0.0542636 1.19986 0.915342
271 2 0.5 2.35 0.0869274 4.1863 4.42751
272 2 0.5 2.35 5.64448 5.02842 2.15897
273 2 0.5 2.35 1.48803 2.93342 4.94759
274 2 0.5 2.35 4.24732 2.71486 5.55759
275 2 0.5 2.35 4.09866 5.16577 6.16583
276 2 0.5 2.35 1.04707 0.11768 4.87164
277 2 0.5 2.35 6.56066 1.57006 0.678711
278 2 0.5 2.35 5.51244 5.18502 2.90098
279 2 0.5 2.35 4.36498 0.691778 4.3428
280 2 0.5 2.35 2.18436 1.93585 1.47493
281 2 0.5 2.35 1.15005 2.07057 0.389328
282 2 0.5 2.35 3.15193 5.48336 2.94067
283 2 0.5 2.35 1.29402 2.71495 0.957476
284 2 0.5 2.35 1.82666 0.0173206 5.79516
285 2 0.5 2.35 4.41762 3.45829 4.661
286 2 0.5 2.35 3.93966 5.60802 2.15541
287 2 0.5 2.35 3.04667 5.67509 4.21967
288 2 0.5 2.35 3.01729 3.1295 5.86218
289 2 0.5 2.35 1.84333 2.47367 2.15955
290 2 0.5 2.35 1.04627 2.74296 2.0479
291 2 0.5 2.35 4.91411 2.95023 4.75104
292 2 0.5 2.35 5.88206 6.62683 6.44359
293 2 0.5 2.35 2.40939 1.27192 4.90366
294 2 0.5 2.35 1.82062 5.14653 3.07937
295 2 0.5 2.35 0.130978 2.79 6.44722
296 2 0.5 2.35 5.24989 6.31584 2.33021
297 2 0.5 2.35 1.81339 1.99866 6.28247
298 1 1 2.35 1.45727 5.45172 4.8927
299 2 0.5 2.35 0.690624 3.74169 3.40144
300 2 0.5 2.35 3.96998 0.0149561 5.49196
301 2 0.5 2.35 0.149781 3.06839 4.00266
302 2 0.5 2.35 6.04963 3.73893 3.89832
303 2 0.5 2.35 3.0311 0.587025 3.48788
304 2 0.5 2.35 2.07755 6.02354 0.320542
305 1 1 2.35 2.4466 1.53281 2.6749
306 2 0.5 2.35 3.98778 4.36003 4.55048
307 2 0.5 2.35 5.88037 1.02259 1.83962
308 2 0.5 2.35 0.151605 0.981325 0.970175
309 2 0.5 2.35 4.85322 3.72412 6.67041
310 2 0.5 2.35 1.98336 1.92967 5.3197
311 2 0.5 2.35 2.44062 0.718915 6.3292
312 1 1 2.35 1.30552 0.486806 0.278874
313 2 0.5 2.35 2.02625 4.9647 0.039436
314 2 0.5 2.35 1.73099 5.93696 0.310056
315 2 0.5 2.35 5.26628 3.64814 0.087701
316 2 0.5 2.35 6.15255 1.50177 3.36965
317 2 0.5 2.35 4.54152 3.86988 6.2126
318 1 1 2.35 3.25655 0.556476 4.49748
319 2 0.5 2.35 5.11882 3.69273 6.31651
320 2 0.5 2.35 3.90908 5.18942 6.64778
321 1 1 2.35 3.43213 0.250042 0.477237
322 2 0.5 2.35 4.00397 6.66521 3.71114
323 2 0.5 2.35 6.54786 2.21544 1.32237
324 1 1 2.35 2.29234 5.62076 5.22005
325 2 0.5 2.35 5.11346 4.49006 0.637111
326 2 0.5 2.35 3.78833 4.40508 1.4501
327 2 0.5 2.35 2.25431 1.4347 2.67426
328 2 0.5 2.35 2.74327 1.66214 4.23534
329 2 0.5 2.35 2.1555 0.234655 4.28044
330 2 0.5 2.35 5.84485 5.87787 1.8522
331 2 0.5 2.35 2.26225 5.06893 3.96928
332 2 0.5 2.35 0.310437 3.29426 0.234373
333 2 0.5 2.35 1.34151 4.21748 1.54129
334 2 0.5 2.35 0.970372 3.36458 3.16276
335 1 1 2.35 5.7405 1.49213 3.62465
336 2 0.5 2.35 2.12618 1.47831 6.43141
337 2 0.5 2.35 0.767634 1.21196 3.67643
338 1 1 2.35 2.49813 5.36741 6.42767
339 2 0.5 2.35 2.10453 0.458764 5.76023
340 2 0.5 2.35 4.24905 1.9047 4.04059
341 2 0.5 2.35 1.4355 3.52275 3.61954
342 2 0.5 2.35 5.43383 5.51537 0.480078
343 2 0.5 2.35 1.31424 6.52664 4.50561
344 2 0.5 2.35 2.35793 3.058 6.08698
345 2 0.5 2.35 1.43954 3.60138 4.793
346 2 0.5 2.35 4.27409 1.9447 1.97177
347 2 0.5 2.35 5.39657 1.51853 5.73398
348 2 0.5 2.35 3.40215 5.66193 0.532115
349 2 0.5 2.35 4.63544 6.56115 5.67443
350 2 0.5 2.35 1.559 2.4363 4.34416
351 2 0.5 2.35 5.11051 2.23722 5.50387
352 2 0.5 2.35 4.93844 0.278589 4.46411
353 2 0.5 2.35 0.593669 6.66661 3.8155
354 1 1 2.35 4.08929 4.22776 4.58734
355 1 1 2.35 2.89394 2.4194 4.32069
356 2 0.5 2.35 6.01037 0.489139 4.05137
357 2 0.5 2.35 0.497376 5.29411 2.93417
358 2 0.5 2.35 1.3819 4.85515 2.99043
359 2 0.5 2.35 4.0865 1.57452 3.55129
360 2 0.5 2.35 0.924596 6.08189 0.752061
361 1 1 2.35 1.08391 1.98197 5.79626
362 2 0.5 2.35 5.4935 6.52042 1.96079
363 2 0.5 2.35 0.115023 0.777592 2.22948
364 2 0.5 2.35 3.97291 0.401859 5.9205
365 2 0.5 2.35 3.00219 2.61315 0.637515
366 2 0.5 2.35 0.707903 4.17574 0.166649
367 2 0.5 2.35 5.98746 0.911742 3.51575
368 1 1 2.35 1.8638 5.03225 0.0545122
369 2 0.5 2.35 0.836291 1.11691 2.51271
370 1 1 2.35 0.420009 6.23504 3.42013
371 2 0.5 2.35 5.0465 1.30453 3.43896
372 2 0.5 2.35 0.50815 4.00713 6.4262
373 1 1 2.35 0.506546 6.35826 0.295546
374 1 1 2.35 0.240032 5.8732 2.59467
375 2 0.5 2.35 1.20633 0.16816 4.27333
376 2 0.5 2.35 4.83733 6.28265 3.65116
377 2 0.5 2.35 3.68866 5.81052 6.49568
378 2 0.5 2.35 4.35252 0.382333 3.45549
379 2 0.5 2.35 1.23182 4.92667 0.647172
380 2 0.5 2.35 3.72455 1.6922 1.422
381 2 0.5 2.35 6.64846 0.66144 1.12403
382 2 0.5 2.35 5.83388 1.78731 3.13177
383 2 0.5 2.35 5.87541 6.04125 2.35492
384 2 0.5 2.35 0.509811 4.4055 0.717934
385 2 0.5 2.35 5.65711 1.49546 1.91658
386 1 1 2.35 0.114892 2.79712 0.155771
387 2 0.5 2.35 6.40721 0.413534 6.47686
388 1 1 2.35 1.53598 4.7138 5.79897
389 2 0.5 2.35 2.5777 5.77884 3.06094
390 2 0.5 2.35 0.427037 5.80389 4.22664
391 1 1 2.35 4.09873 2.80093 5.66317
392 2 0.5 2.35 3.87706 0.870982 4.07803
393 2 0.5 2.35 4.5783 0.443677 1.11219
394 2 0.5 2.35 0.846693 1.23795 2.42987
395 2 0.5 2.35 5.02831 1.79619 2.63653
396 2 0.5 2.35 4.07416 2.12663 5.34437
397 2 0.5 2.35 1.62153 0.626607 2.50731
398 2 0.5 2.35 4.592 4.64658 2.4232
399 2 0.5 2.35 5.0221 5.93638 6.55543
400 1 1 2.35 2.48455 5.35978 4.76391
401 2 0.5 2.35 1.2563 2.50961 3.70927
402 2 0.5 2.35 6.59384 2.416 0.729137
403 1 1 2.35 4.60404 2.18309 1.62124
404 2 0.5 2.35 1.65619 0.0291612 5.6974
405 2 0.5 2.35 6.26379 6.62152 1.7605
406 2 0.5 2.35 4.62315 4.92047 1.88833
407 2 0.5 2.35 6.22416 4.78206 3.09864
408 2 0.5 2.35 3.56755 5.40318 1.50149
409 2 0.5 2.35 5.49258 2.46172 2.35541
410 2 0.5 2.35 4.84111 1.56656 5.75281
411 2 0.5 2.35 1.8689 2.65694 6.27191
412 2 0.5 2.35 1.25984 5.43743 6.11636
413 1 1 2.35 5.12194 0.349658 0.979932
414 2 0.5 2.35 2.83768 6.06274 2.81373
415 2 0.5 2.35 6.31886 6.53001 3.14212
416 2 0.5 2.35 0.937593 2.27241 4.34696
417 2 0.5 2.35 2.40223 0.512074 0.989288
418 2 0.5 2.35 4.49411 5.12431 5.1316
419 2 0.5 2.35 1.09567 1.06413 5.4797
420 2 0.5 2.35 3.87291 4.53893 5.83063
421 2 0.5 2.35 2.24393 5.63106 1.83914
422 2 0.5 2.35 1.15205 4.91912 0.945399
423 2 0.5 2.35 4.26427 2.92682 4.79595
424 2 0.5 2.35 5.05606 4.34146 5.44453
425 2 0.5 2.35 0.188009 1.3387 3.97667
426 2 0.5 2.35 1.31323 5.57784 0.269941
427 2 0.5 2.35 1.898 0.00663498 0.838994
428 2 0.5 2.35 0.334441 3.08472 1.03695
429 2 0.5 2.35 0.939237 1.12397 3.44233
430 2 0.5 2.35 0.992445 4.7393 5.42687
431 1 1 2.35 5.84017 4.36853 5.72853
432 2 0.5 2.35 6.19313 4.21229 0.912742
433 2 0.5 2.35 5.22885 1.08702 4.4097
434 2 0.5 2.35 4.84687 1.98958 5.30621
435 2 0.5 2.35 5.89072 3.30318 2.63139
436 2 0.5 2.35 1.32778 0.00870046 2.2528
437 2 0.5 2.35 5.63903 2.31112 3.77074
438 2 0.5 2.35 1.68233 3.65189 0.811775
439 2 0.5 2.35 6.67549 4.95915 6.17115
440 1 1 2.35 5.3176 0.448307 3.81253
441 2 0.5 2.35 6.06119 3.12291 1.69003
442 2 0.5 2.35 0.894742 3.69925 1.17557
443 2 0.5 2.35 2.88365 0.91678 5.77998
444 2 0.5 2.35 3.11775 2.095 5.80724
445 1 1 2.35 5.62744 4.79863 5.45763
446 2 0.5 2.35 4.20587 5.57937 6.53089
447 1 1 2.35 4.0228 4.63378 6.46662
448 2 0.5 2.35 0.345424 1.37454 0.282128
449 2 0.5 2.35 0.458141 5.45892 4.79659
450 2 0.5 2.35 3.7482 2.2236 4.91575
451 2 0.5 2.35 4.79659 4.87029 5.59463
452 1 1 2.35 5.48202 4.57617 5.47035
453 2 0.5 2.35 2.82814 6.50171 0.615242
454 2 0.5 2.35 5.74321 1.64367 5.06554
455 2 0.5 2.35 1.94173 3.36929 1.35093
456 2 0.5 2.35 5.61547 3.66651 0.428839
457 2 0.5 2.35 6.66046 3.27728 2.72599
458 2 0.5 2.35 0.614463 4.55384 0.10586
459 2 0.5 2.35 3.865 6.1666 2.20441
460 2 0.5 2.35 6.40933 6.38982 1.25964
461 2 0.5 2.35 1.45828 3.97627 6.70552
462 2 0.5 2.35 6.56888 1.88763 5.93652
463 2 0.5 2.35 3.22176 0.488646 4.68848
464 1 1 2.35 5.15883 6.12838 4.05316
465 2 0.5 2.35 0.66465 0.923263 5.20867
466 2 0.5 2.35 6.39443 4.90272 1.42379
467 2 0.5 2.35 0.891062 2.05357 2.84147
468 2 0.5 2.35 6.09457 0.335816 5.83013
469 2 0.5 2.35 2.69882 0.340132 1.18407
470 2 0.5 2.35 3.31982 2.7774 0.359668
471 2 0.5 2.35 1.88221 1.90805 2.92486
472 2 0.5 2.35 5.41191 0.550661 2.93511
473 2 0.5 2.35 1.24611 3.47329 5.52402
474 2 0.5 2.35 2.44055 6.05846 4.8198
475 2 0.5 2.35 6.67152 3.08478 6.54339
476 1 1 2.35 5.48663 4.58971 5.47592
477 2 0.5 2.35 1.68621 1.65919 1.09216
478 2 0.5 2.35 4.04754 3.51132 4.63984
479 2 0.5 2.35 3.1933 5.56557 5.86896
480 2 0.5 2.35 5.65792 6.47902 2.56316
481 1 1 2.35 3.19061 5.84931 3.04322
482 2 0.5 2.35 0.96966 1.28931 3.15795
483 2 0.5 2.35 2.24845 2.06001 4.21492
484 2 0.5 2.35 3.13061 0.360164 4.2822
485 2 0.5 2.35 0.462969 1.26684 1.54427
486 2 0.5 2.35 1.51848 2.93208 2.02667
487 2 0.5 2.35 2.36645 5.98186 3.92344
488 2 0.5 2.35 5.59766 0.874268 3.68143
489 2 0.5 2.35 0.59515 1.87686 4.7782
490 2 0.5 2.35 5.31631 0.702828 6.17588
491 2 0.5 2.35 6.24898 2.17983 2.63268
492 2 0.5 2.35 0.686773 3.11056 0.25569
493 1 1 2.35 3.57655 2.89511 0.274593
494 2 0.5 2.35 3.22217 2.6299 3.79664
495 2 0.5 2.35 5.75307 2.20272 2.88869
496 2 0.5 2.35 1.93801 3.0835 2.37209
497 2 0.5 2.35 4.08049 4.18614 1.79981
498 2 0.5 2.35 0.0727864 3.38375 2.84168
499 2 0.5 2.35 3.55839 3.76298 6.22152
500 2 0.5 2.35 1.20109 2.28336 3.54477
501 2 0.5 2.35 0.766788 5.53971 0.233422
502 2 0.5 2.35 6.04944 5.55972 3.86079
503 1 1 2.35 2.60701 2.51577 1.06554
504 2 0.5 2.35 1.09715 1.73257 3.1081
505 2 0.5 2.35 3.3154 0.691791 6.01991
506 2 0.5 2.35 5.41097 5.8282 2.3674
507 2 0.5 2.35 0.897232 2.17231 6.36704
508 2 0.5 2.35 0.97573 3.46661 0.90259
509 2 0.5 2.35 1.6925 0.510407 4.83198
510 2 0.5 2.35 0.320817 1.55774 0.47389
511 1 1 2.35 6.50662 3.17975 4.03244
512 2 0.5 2.35 5.31166 4.62246 6.54832
513 2 0.5 2.35 5.55066 2.68435 1.30323
514 2 0.5 2.35 3.63403 3.12033 1.65268
515 1 1 2.35 0.917655 0.601822 5.27284
516 2 0.5 2.35 1.99352 0.573445 1.83331
517 2 0.5 2.35 3.56923 5.68636 2.34434
518 2 0.5 2.35 5.68426 5.60341 0.838865
519 2 0.5 2.35 5.62811 1.17686 1.44136
520 2 0.5 2.35 4.32179 1.27874 1.35969
521 2 0.5 2.35 4.02101 2.5985 5.64699
522 2 0.5 2.35 5.73343 5.91934 4.97078
523 2 0.5 2.35 0.121878 4.24385 1.36455
524 2 0.5 2.35 2.89507 5.94114 3.64785
525 2 0.5 2.35 3.62956 0.00653662 1.15903
526 2 0.5 2.35 4.11942 5.5795 1.70556
527 1 1 2.35 6.39361 3.16118 4.61408
528 2 0.5 2.35 3.46959 4.94073 4.16005
529 2 0.5 2.35 2.05812 2.15455 2.0286
530 2 0.5 2.35 4.10256 0.513118 4.18474
531 2 0.5 2.35 2.35007 2.62404 6.6205
532 2 0.5 2.35 1.10809 3.04965 3.86983
533 2 0.5 2.35 3.94752 4.0079 2.99562
534 2 0.5 2.35 1.95345 4.93265 0.496483
535 2 0.5 2.35 0.071023 1.72566 2.23201
536 2 0.5 2.35 2.73383 4.94485 3.31611
537 2 0.5 2.35 0.163185 4.93215 5.85674
538 2 0.5 2.35 4.39278 1.1074 3.34431
539 2 0.5 2.35 3.17997 4.2195 4.47416
540 2 0.5 2.35 1.53581 2.57501 4.39664
541 2 0.5 2.35 0.132328 4.86921 2.12134
542 2 0.5 2.35 5.23669 6.38677 4.73572
543 2 0.5 2.35 5.48357 4.03655 5.0024
544 2 0.5 2.35 6.36667 4.15497 1.54782
545 2 0.5 2.35 1.07514 2.86483 1.85748
546 1 1 2.35 1.86651 6.30736 5.75329
547 2 0.5 2.35 2.34536 4.81121 6.51819
548 2 0.5 2.35 0.827536 2.32212 0.193049
549 2 0.5 2.35 0.737163 4.6213 6.03008
550 2 0.5 2.35 0.550735 2.01098 5.19509
551 2 0.5 2.35 3.20879 0.457499 0.589787
552 2 0.5 2.35 5.42694 3.83814 4.37146
553 2 0.5 2.35 2.00678 6.16941 1.9293
554 2 0.5 2.35 2.92461 0.590755 0.624344
555 2 0.5 2.35 3.025 0.396596 4.92544
556 2 0.5 2.35 2.75369 4.50333 1.79482
557 2 0.5 2.35 0.779205 4.00746 5.38903
558 1 1 2.35 5.83218 4.49378 1.93596
559 2 0.5 2.35 6.19703 3.15597 2.86311
560 2 0.5 2.35 0.115751 4.49802 3.11433
561 2 0.5 2.35 0.107709 5.6741 5.84392
562 1 1 2.35 1.14368 3.03947 6.6013
563 2 0.5 2.35 5.83298 4.78393 6.32104
564 2 0.5 2.35 0.266608 3.70132 2.2734
565 2 0.5 2.35 1.93334 5.83935 3.36942
566 1 1 2.35 5.3093 6.45937 5.14584
567 2 0.5 2.35 5.22271 3.47973 0.416298
568 2 0.5 2.35 6.15957 1.38114 3.50718
569 1 1 2.35 0.627094 0.693521 0.117608
570 2 0.5 2.35 0.682954 0.495871 1.14833
571 1 1 2.35 4.59359 5.34598 1.42441
572 2 0.5 2.35 0.561704 5.94768 5.17863
573 1 1 2.35 5.54727 6.42801 2.72033
574 2 0.5 2.35 5.81867 4.08175 1.45498
575 2 0.5 2.35 2.27553 4.8637 3.78789
576 2 0.5 2.35 3.90719 4.44255 2.41353
577 1 1 2.35 3.59189 1.67253 0.477348
578 2 0.5 2.35 2.37059 1.4899 5.7603
579 2 0.5 2.35 1.65411 5.86097 2.01595
580 2 0.5 2.35 0.526559 4.91858 1.31585
581 2 0.5 2.35 3.53562 1.70631 0.65901
582 2 0.5 2.35 1.0732 1.8478 4.95416
583 2 0.5 2.35 6.51013 3.79333 4.95009
584 2 0.5 2.35 4.45712 4.43493 6.20913
585 2 0.5 2.35 3.22966 1.80433 1.69049
586 2 0.5 2.35 0.0177373 0.853947 0.322981
587 1 1 2.35 5.9205 6.7165 0.661773
588 2 0.5 2.35 5.50436 4.33942 1.11895
589 2 0.5 2.35 5.8276 6.6527 3.63112
590 2 0.5 2.35 5.25154 2.25901 1.84379
591 2 0.5 2.35 0.219741 0.956055 3.05568
592 2 0.5 2.35 0.746477 6.68899 6.02809
593 2 0.5 2.35 1.72769 5.91177 4.565
594 2 0.5 2.35 3.41545 3.27932 2.56605
595 2 0.5 2.35 6.10394 4.2716 3.94761
596 2 0.5 2.35 5.12363 5.57742 1.15037
597 2 0.5 2.35 2.70313 1.53909 5.12369
598 1 1 2.35 5.44694 1.089 1.79408
599 2 0.5 2.35 4.79455 4.12446 3.49244
600 2 0.5 2.35 2.58709 5.68592 2.04487
601 1 1 2.35 2.46054 4.31904 2.01865
602 1 1 2.35 4.9078 6.20805 1.15762
603 2 0.5 2.35 5.49488 2.03979 2.72374
604 2 0.5 2.35 5.73545 3.21567 0.875673
605 2 0.5 2.35 4.37849 5.19324 2.57626
606 2 0.5 2.35 6.47333 3.13421 3.17609
607 1 1 2.35 5.67507 3.37581 1.5187
608 2 0.5 2.35 4.88713 0.738148 6.45916
609 1 1 2.35 0.152719 1.941 6.42602
610 2 0.5 2.35 5.49821 3.18448 0.923483
611 2 0.5 2.35 4.23408 4.17143 6.55199
612 2 0.5 2.35 3.45155 1.33344 5.97601
613 1 1 2.35 6.27398 5.64401 5.23949
614 2 0.5 2.35 1.81471 5.47328 5.80375
615 2 0.5 2.35 3.11858 0.839602 2.71898
616 1 1 2.35 0.161526 5.27855 4.14821
617 2 0.5 2.35 5.12577 3.65303 0.266114
618 1 1 2.35 4.21601 6.2881 4.90994
619 2 0.5 2.35 4.41269 3.56704 1.76943
620 2 0.5 2.35 5.73867 2.5834 6.43427
621 2 0.5 2.35 1.10876 3.68983 0.276049
622 2 0.5 2.35 4.82527 3.51312 2.23173
623 2 0.5 2.35 5.5506 0.147891 4.17299
624 2 0.5 2.35 1.56388 5.47398 4.6939
625 1 1 2.35 2.94984 3.52883 2.07227
626 2 0.5 2.35 5.93419 2.6967 2.07842
627 2 0.5 2.35 6.23975 2.89009 3.22368
628 2 0.5 2.35 1.17858 3.42459 0.64181
629 2 0.5 2.35 2.80047 3.69516 1.99504
630 2 0.5 2.35 1.84872 4.68063 1.13828
631 1 1 2.35 0.795499 3.79928 1.91541
632 2 0.5 2.35 6.22838 1.65064 0.17367
633 2 0.5 2.35 6.10134 3.73407 2.05184
634 2 0.5 2.35 6.5369 4.77058 2.43072
635 2 0.5 2.35 1.35534 2.39278 2.25266
636 2 0.5 2.35 5.91634 1.95496 6.48584
637 2 0.5 2.35 0.527502 4.44231 4.20101
638 2 0.5 2.35 1.01466 3.48455 3.4036
639 2 0.5 2.35 1.21208 2.14718 5.60034
640 1 1 2.35 6.02788 2.11764 2.81952
641 2 0.5 2.35 2.22073 5.38856 1.70879
642 2 0.5 2.35 2.42682 5.16291 2.65223
643 2 0.5 2.35 5.79937 6.39422 4.70994
644 2 0.5 2.35 2.00281 5.55907 1.07109
645 2 0.5 2.35 4.42357 3.2607 0.634369
646 2 0.5 2.35 0.179207 5.04842 6.14679
647 2 0.5 2.35 2.10255 4.64548 1.00895
648 2 0.5 2.35 1.01962 2.99308 3.63846
649 2 0.5 2.35 3.51783 1.23861 1.36783
650 2 0.5 2.35 0.0972462 4.61552 6.6628
651 2 0.5 2.35 4.51478 1.82764 3.58157
652 2 0.5 2.35 2.78927 4.50284 3.9322
653 2 0.5 2.35 4.93751 1.91372 5.84799
654 1 1 2.35 1.98335 2.12449 1.91136
655 2 0.5 2.35 0.660106 6.31738 2.19723
656 1 1 2.35 0.9632 2.79257 3.96253
657 2 0.5 2.35 4.91587 6.37851 2.86927
658 2 0.5 2.35 2.47398 5.4276 2.50365
659 1 1 2.35 0.809356 5.21132 3.61796
660 2 0.5 2.35 0.397044 1.68136 1.58872
661 2 0.5 2.35 6.4873 0.220735 3.84514
662 2 0.5 2.35 5.07659 3.01692 5.44655
663 1 1 2.35 4.03515 3.43702 6.42189
664 2 0.5 2.35 1.89715 2.36691 4.41064
665 2 0.5 2.35 2.70636 2.44944 0.32907
666 2 0.5 2.35 0.43445 1.75298 5.68395
667 2 0.5 2.35 0.371913 5.01768 2.2363
668 2 0.5 2.35 5.73049 4.75484 4.74462
669 2 0.5 2.35 5.99267 6.35048 3.96776
670 2 0.5 2.35 3.77441 5.26141 1.0687
671 2 0.5 2.35 6.13066 1.88312 1.19341
672 2 0.5 2.35 1.40157 3.82729 3.74414
673 2 0.5 2.35 5.38763 2.66808 6.17557
674 2 0.5 2.35 3.42158 4.42174 3.37375
675 2 0.5 2.35 0.635689 1.80695 1.41638
676 2 0.5 2.35 1.85809 0.346608 1.62487
677 2 0.5 2.35 0.619655 3.30856 1.63435
678 2 0.5 2.35 3.6367 5.58879 2.60272
679 2 0.5 2.35 6.02614 5.23089 6.66465
680 2 0.5 2.35 4.08584 2.05699 5.44785
681 2 0.5 2.35 5.90708 1.59277 4.08812
682 2 0.5 2.35 4.85666 4.11097 0.534666
683 2 0.5 2.35 0.935278 5.68537 0.785042
684 2 0.5 2.35 2.37094 3.96379 4.97757
685 2 0.5 2.35 1.62365 5.16407 4.72165
686 2 0.5 2.35 5.82741 2.01722 2.23869
687 2 0.5 2.35 0.770493 5.50179 4.4801
688 2 0.5 2.35 2.94751 0.584817 3.98779
689 2 0.5 2.35 3.5473 6.04761 4.27421
690 1 1 2.35 4.62487 5.88912 0.944216
691 2 0.5 2.35 5.79439 4.37843 5.37133
692 1 1 2.35 6.45334 6.63737 1.21264
693 2 0.5 2.35 1.49662 6.47898 6.05544
694 2 0.5 2.35 3.054 2.69904 2.21769
695 2 0.5 2.35 3.953 6.15642 2.48299
696 2 0.5 2.35 3.95903 4.12511 5.16542
697 2 0.5 2.35 1.98584 3.92191 0.700174
698 2 0.5 2.35 2.83595 0.219915 0.273124
699 2 0.5 2.35 0.48043 0.200165 5.35375
700 2 0.5 2.35 2.94236 2.32835 2.28274
701 2 0.5 2.35 3.5423 5.38116 2.01413
702 2 0.5 2.35 4.07676 4.96995 1.13157
703 2 0.5 2.35 5.90132 4.49677 3.64081
704 1 1 2.35 5.14578 2.43265 1.9069
705 1 1 2.35 6.47755 1.34081 1.77508
706 2 0.5 2.35 2.7243 0.846415 3.41157
707 2 0.5 2.35 5.55087 0.947793 6.37625
708 2 0.5 2.35 1.96955 3.54826 2.89085
709 2 0.5 2.35 6.06855 3.95174 5.28919
710 2 0.5 2.35 6.07537 1.69369 0.349242
711 2 0.5 2.35 3.34893 1.66151 0.676612
712 2 0.5 2.35 4.44172 0.749522 0.56153
713 2 0.5 2.35 4.00915 3.59244 2.92717
714 2 0.5 2.35 6.47495 2.65526 4.09979
715 2 0.5 2.35 3.51803 2.52039 4.95883
716 2 0.5 2.35 3.91356 5.03988 1.3745
717 2 0.5 2.35 0.374291 4.2556 6.47246
718 2 0.5 2.35 0.305059 6.07449 3.66671
719 2 0.5 2.35 1.37 0.781099 2.64464
720 2 0.5 2.35 4.51629 1.32517 6.26784
721 2 0.5 2.35 6.55026 3.53882 4.01803
722 2 0.5 2.35 0.54258 6.46359 4.97516
723 2 0.5 2.35 0.267661 5.62344 1.0763
724 2 0.5 2.35 4.37173 2.01882 2.33021
725 2 0.5 2.35 5.95512 2.18546 2.32424
726 2 0.5 2.35 3.29199 1.44114 3.049
727 1 1 2.35 3.65315 2.3474 5.76097
728 2 0.5 2.35 6.251 0.262075 3.09474
729 2 0.5 2.35 5.33984 4.77821 0.912511
730 2 0.5 2.35 0.614397 6.38746 0.85671
731 2 0.5 2.35 2.00424 4.19003 2.10137
732 2 0.5 2.35 4.61305 4.3939 4.6383
733 2 0.5 2.35 3.26442 3.8615 4.32369
734 2 0.5 2.35 3.2028 0.529066 2.18772
735 1 1 2.35 0.0519877 4.61513 4.23002
736 2 0.5 2.35 5.40359 3.32665 6.49479
737 2 0.5 2.35 3.09994 0.404955 3.36509
738 2 0.5 2.35 0.176098 1.47464 4.35256
739 2 0.5 2.35 3.76025 3.23097 5.45592
740 1 1 2.35 6.54813 1.40338 1.53988
741 2 0.5 2.35 2.97286 5.95059 4.90538
742 2 0.5 2.35 6.03301 0.977013 6.42621
743 2 0.5 2.35 2.48788 0.0966459 0.402162
744 2 0.5 2.35 5.31103 4.51147 3.28118
745 2 0.5 2.35 5.0766 1.61331 0.519302
746 2 0.5 2.35 3.92535 3.29257 2.21239
747 2 0.5 2.35 4.56637 2.06667 2.92324
748 2 0.5 2.35 2.71158 6.22139 2.6496
749 2 0.5 2.35 0.424429 3.50289 5.59983
750 2 0.5 2.35 0.394865 4.58969 6.29416
751 2 0.5 2.35 1.9104 6.46259 0.976527
752 2 0.5 2.35 6.18493 5.86809 0.528619
753 1 1 2.35 4.19347 2.37484 6.33421
754 2 0.5 2.35 4.60742 0.423083 5.60995
755 2 0.5 2.35 1.04188 5.11839 0.897531
756 2 0.5 2.35 3.82961 3.51606 0.733804
757 2 0.5 2.35 5.71691 3.2034 1.59756
758 2 0.5 2.35 0.585779 2.10513 1.77846
759 2 0.5 2.35 5.08083 4.38078 0.320594
760 2 0.5 2.35 6.48358 4.38429 0.540937
761 2 0.5 2.35 6.34708 0.918225 5.60927
762 2 0.5 2.35 6.38748 1.73175 2.57526
763 2 0.5 2.35 0.300753 5.16595 2.61047
764 2 0.5 2.35 2.41822 5.71081 4.77538
765 2 0.5 2.35 0.198565 4.82969 1.28496
766 2 0.5 2.35 6.2052 3.57522 0.429623
767 2 0.5 2.35 2.95741 0.793377 4.98409
768 2 0.5 2.35 1.44633 4.4687 6.04509
769 1 1 2.35 0.771439 0.831125 3.17116
770 2 0.5 2.35 2.04386 0.481376 0.1112