LAMMPS Description

1000 atoms

2 atom types
0 10.772173 xlo xhi
0 10.772173 ylo yhi
0 10.772173 zlo zhi


Atoms # sphere

1 2 0.5 2.35 0.837517 2.81553 3.73386
2 2 0.5 2.35 10.2318 0.660528 4.39917
3 2 0.5 2.35 8.07306 7.18508 7.27241
4 2 0.5 2.35 2.60891 0.0618499 3.34521
5 2 0.5 2.35 6.24194 6.59418 3.61867
6 2 0.5 2.35 6.30415 9.32071 6.69719
7 2 0.5 2.35 0.710471 7.84231 6.86111
8 2 0.5 2.35 4.66718 9.16183 8.41314
9 2 0.5 2.35 9.13607 6.40478 9.65396
10 2 0.5 2.35 0.800929 5.55348 4.06431
11 1 1 2.35 8.98321 10.0502 4.62085
12 2 0.5 2.35 4.40062 5.65026 8.32657
13 2 0.5 2.35 4.6722 5.33981 8.44976
14 2 0.5 2.35 10.4878 7.02262 6.95979
15 2 0.5 2.35 7.61895 5.72765 6.61943
16 2 0.5 2.35 7.82725 7.48461 6.74316
17 2 0.5 2.35 3.16322 7.37861 6.04369
18 2 0.5 2.35 0.220623 1.116 4.80471
19 2 0.5 2.35 7.8502 6.558 4.62237
20 2 0.5 2.35 9.77164 5.0585 9.08208
21 2 0.5 2.35 10.7643 4.47256 6.94835
22 2 0.5 2.35 4.09059 8.26001 8.98606
23 2 0.5 2.35 0.968844 7.64727 9.64306
24 2 0.5 2.35 10.0556 6.88736 2.00703
25 2 0.5 2.35 8.67239 0.425433 3.87138
26 2 0.5 2.35 6.63655 1.42614 2.81776
27 2 0.5 2.35 0.614132 6.53201 4.5194
28 2 0.5 2.35 6.30541 8.11252 7.86838
29 2 0.5 2.35 7.40565 5.81727 8.81156
30 2 0.5 2.35 9.28227 2.0764 9.71815
31 2 0.5 2.35 4.91934 4.98496 3.36211
32 2 0.5 2.35 6.59692 8.31788 10.724
33 2 0.5 2.35 4.6781 9.05958 5.16533
34 2 0.5 2.35 2.95105 7.81721 2.5545
35 2 0.5 2.35 7.68611 8.49175 9.20968
36 2 0.5 2.35 2.55505 4.01524 8.49667
37 2 0.5 2.35 5.00329 3.62123 10.1522
38 2 0.5 2.35 0.568336 3.18214 0.863797
39 2 0.5 2.35 9.33009 9.48429 3.52755
40 2 0.5 2.35 7.47941 4.40188 0.0969903
41 2 0.5 2.35 7.1714 5.52341 3.41202
42 1 1 2.35 7.57289 4.16853 2.13131
43 2 0.5 2.35 7.63715 6.97888 2.62047
44 2 0.5 2.35 1.04396 4.67483 0.447586
45 2 0.5 2.35 4.73563 9.02274 8.75766
46 2 0.5 2.35 1.82247 1.51546 7.52102
47 2 0.5 2.35 0.0583835 6.6648 9.45079
48 2 0.5 2.35 0.806269 1.79784 3.80815
49 2 0.5 2.35 5.72418 3.20459 7.62677
50 2 0.5 2.35 8.36099 2.45684 7.88045
51 2 0.5 2.35 8.50281 4.95612 8.03631
52 1 1 2.35 6.96878 0.787271 4.49592
53 2 0.5 2.35 8.94151 8.27987 8.78799
54 2 0.5 2.35 6.66354 0.974217 5.80306
55 2 0.5 2.35 10.0868 9.5348 5.4276
56 1 1 2.35 0.216625 2.63582 10.4714
57 2 0.5 2.35 4.63538 8.8793 3.94703
58 2 0.5 2.35 6.32164 4.36774 6.17974
59 2 0.5 2.35 9.23721 7.2473 4.49967
60 2 0.5 2.35 8.67987 7.49072 3.17183
61 1 1 2.35 8.72963 5.21205 7.9828
62 2 0.5 2.35 0.272233 5.24138 0.487719
63 2 0.5 2.35 6.18399 10.5979 3.87596
64 2 0.5 2.35 4.76383 1.93231 8.45035
65 2 0.5 2.35 6.36286 1.42872 7.50568
66 2 0.5 2.35 3.79637 7.61978 2.77511
67 2 0.5 2.35 3.28832 10.571 6.31937
68 2 0.5 2.35 0.521313 0.401074 3.03146
69 2 0.5 2.35 0.688756 3.53961 3.19788
70 1 1 2.35 2.92707 5.13242 8.84995
71 1 1 2.35 6.45028 3.3988 2.6391
72 2 0.5 2.35 2.07854 7.03236 7.11663
73 2 0.5 2.35 8.60187 8.65486 2.31354
74 2 0.5 2.35 0.682915 1.94118 0.73198
75 2 0.5 2.35 6.5569 7.46048 9.8715
76 1 1 2.35 3.09912 2.71331 4.63497
77 2 0.5 2.35 10.3001 1.74153 5.04251
78 1 1 2.35 5.62557 4.39948 0.436342
79 2 0.5 2.35 6.55246 4.19458 6.55971
80 1 1 2.35 7.93485 1.58412 6.35835
81 2 0.5 2.35 2.19366 3.58979 8.58686
82 2 0.5 2.35 6.89889 2.41868 3.03032
83 2 0.5 2.35 7.72739 5.31818 1.58683
84 2 0.5 2.35 9.84065 8.43999 5.64477
85 2 0.5 2.35 2.54023 8.03428 3.32691
86 2 0.5 2.35 4.93561 9.08221 3.29593
87 2 0.5 2.35 0.37091 6.77523 10.1968
88 2 0.5 2.35 0.0943047 0.741624 6.77974
89 2 0.5 2.35 2.6712 8.91926 4.48328
90 2 0.5 2.35 0.212411 7.47741 5.14009
91 2 0.5 2.35 8.95377 8.52906 5.02209
92 2 0.5 2.35 0.732442 9.98089 8.61117
93 2 0.5 2.35 0.0445826 9.63404 3.07278
94 2 0.5 2.35 2.31648 1.83831 7.19078
95 2 0.5 2.35 5.19924 1.6915 9.66897
96 2 0.5 2.35 5.53899 8.05923 8.34922
97 2 0.5 2.35 7.48175 4.8671 6.36928
98 2 0.5 2.35 4.72895 10.668 10.5288
99 2 0.5 2.35 2.31901 10.6834 0.85527
100 1 1 2.35 8.52839 7.39989 1.5381
101 2 0.5 2.35 6.93371 6.67919 3.26159
102 2 0.5 2.35 3.8161 3.68637 4.57129
103 2 0.5 2.35 3.64468 0.840282 6.77986
104 2 0.5 2.35 4.21341 4.62108 0.928332
105 2 0.5 2.35 0.282356 8.0798 6.27335
106 2 0.5 2.35 0.0406078 8.28404 8.56863
107 2 0.5 2.35 9.24171 8.03159 9.03998
108 2 0.5 2.35 1.47299 1.04958 4.80032
109 2 0.5 2.35 4.47338 4.96913 7.9985
110 2 0.5 2.35 7.69096 5.1227 6.01681
111 2 0.5 2.35 8.00431 2.14607 0.951324
112 2 0.5 2.35 10.6701 5.9029 3.54526
113 2 0.5 2.35 4.70898 4.07013 5.10058
114 2 0.5 2.35 4.14829 6.37695 1.00497
115 2 0.5 2.35 10.08 4.90614 7.01965
116 2 0.5 2.35 9.86209 0.726788 2.18344
117 2 0.5 2.35 2.41599 5.21352 2.64458
118 2 0.5 2.35 8.36339 8.54068 1.06571
119 2 0.5 2.35 1.27131 0.926572 6.09155
120 2 0.5 2.35 9.70749 7.75717 1.61128
121 2 0.5 2.35 0.69632 7.59286 6.9754
122 2 0.5 2.35 7.38931 1.80437 5.63863
123 2 0.5 2.35 5.23398 1.93488 10.5689
124 2 0.5 2.35 6.51438 8.42653 7.9256
125 2 0.5 2.35 2.27458 6.6525 7.9592
126 2 0.5 2.35 3.48794 3.09075 8.75282
127 2 0.5 2.35 9.36841 5.3611 1.66341
128 2 0.5 2.35 9.47854 4.76344 7.40179
129 2 0.5 2.35 0.344692 8.3768 8.1753
130 2 0.5 2.35 7.98367 1.10567 0.294715
131 2 0.5 2.35 2.61838 8.64916 8.04759
132 1 1 2.35 5.19625 6.90123 8.02623
133 2 0.5 2.35 4.533 7.72826 6.5018
134 2 0.5 2.35 9.28863 8.91887 5.62289
135 1 1 2.35 7.61137 0.336187 4.01373
136 1 1 2.35 9.86261 4.63321 8.91269
137 2 0.5 2.35 4.05141 3.5893 0.653164
138 2 0.5 2.35 4.97516 8.36282 10.7278
139 2 0.5 2.35 1.74952 1.97072 7.88461
140 2 0.5 2.35 6.84152 9.39689 0.701077
141 2 0.5 2.35 1.60183 0.626061 1.10868
142 2 0.5 2.35 0.350619 5.10639 10.2554
143 2 0.5 2.35 3.46313 7.75908 2.84946
144 2 0.5 2.35 5.1947 4.04383 5.88815
145 1 1 2.35 3.96873 0.154007 8.37897
146 2 0.5 2.35 4.84813 8.73929 9.54092
147 1 1 2.35 9.71584 1.40721 0.314936
148 2 0.5 2.35 5.50753 4.73774 0.459972
149 1 1 2.35 5.1614 1.86663 1.81466
150 2 0.5 2.35 0.536159 8.20649 7.67827
151 2 0.5 2.35 9.28825 7.18112 6.10141
152 2 0.5 2.35 2.72665 4.7711 6.32257
153 2 0.5 2.35 5.74443 1.97604 1.75302
154 2 0.5 2.35 1.62961 4.08214 4.16602
155 2 0.5 2.35 0.282717 4.75672 9.99723
156 2 0.5 2.35 2.6434 9.57039 9.30849
157 2 0.5 2.35 0.324532 3.19511 0.164054
158 2 0.5 2.35 6.68886 6.16266 9.27963
159 2 0.5 2.35 9.62647 4.9519 4.70773
160 2 0.5 2.35 1.65363 6.72416 5.68166
161 2 0.5 2.35 6.3056 6.51092 5.04921
162 2 0.5 2.35 5.93091 8.44691 0.364893
163 2 0.5 2.35 8.21059 3.89172 4.8771
164 2 0.5 2.35 0.202882 5.18974 1.50341
165 1 1 2.35 7.94709 4.59981 1.1599
166 2 0.5 2.35 6.1855 6.67781 6.04697
167 2 0.5 2.35 3.00274 0.175529 7.5275
168 2 0.5 2.35 0.434037 4.95999 9.41722
169 2 0.5 2.35 7.79377 0.903019 10.7568
170 2 0.5 2.35 8.11513 0.622625 2.08904
171 1 1 2.35 5.13116 6.72171 9.40311
172 2 0.5 2.35 7.04483 5.21625 9.39452
173 2 0.5 2.35 9.19694 3.23841 3.4933
174 2 0.5 2.35 1.78744 4.2927 2.82006
175 2 0.5 2.35 0.347506 2.95922 5.57453
176 2 0.5 2.35 0.297768 2.24243 10.573
177 2 0.5 2.35 7.25298 4.88929 7.74859
178 2 0.5 2.35 2.47003 1.35487 1.51341
179 2 0.5 2.35 0.169392 3.9557 8.70249
180 2 0.5 2.35 0.392088 0.795777 2.47631
181 2 0.5 2.35 2.57906 5.47791 8.66293
182 2 0.5 2.35 1.79016 7.25086 9.22958
183 2 0.5 2.35 0.952809 6.21748 4.99751
184 2 0.5 2.35 3.40173 4.56277 2.83266
185 2 0.5 2.35 2.34996 5.54954 9.64454
186 2 0.5 2.35 8.61244 6.5878 2.22494
187 2 0.5 2.35 2.62851 2.24774 3.05794
188 2 0.5 2.35 2.96417 2.6747 7.35584
189 2 0.5 2.35 4.69087 10.5062 6.01271
190 2 0.5 2.35 6.39177 3.31058 7.39862
191 1 1 2.35 9.09347 10.3055 10.6386
192 2 0.5 2.35 1.54486 7.08531 8.14161
193 2 0.5 2.35 2.81715 6.03879 3.40854
194 1 1 2.35 10.1313 9.55832 10.4354
195 2 0.5 2.35 1.20047 2.93247 6.22177
196 2 0.5 2.35 1.1205 6.70037 7.67045
197 2 0.5 2.35 2.58056 8.7836 10.6492
198 2 0.5 2.35 5.6845 7.0081 1.26025
199 2 0.5 2.35 4.04198 6.45134 5.61404
200 2 0.5 2.35 10.1401 10.2213 8.89415
201 2 0.5 2.35 3.0531 5.72907 10.5027
202 2 0.5 2.35 4.03776 1.13011 5.90945
203 2 0.5 2.35 10.2868 1.96744 7.91619
204 2 0.5 2.35 4.71588 6.68977 3.66165
205 2 0.5 2.35 7.84594 1.07091 9.80423
206 1 1 2.35 0.760188 2.20273 8.92739
207 2 0.5 2.35 2.61707 6.14166 0.134034
208 2 0.5 2.35 6.71865 2.61249 5.5712
209 2 0.5 2.35 2.90836 1.68435 10.5936
210 2 0.5 2.35 9.33 4.96361 2.8561
211 2 0.5 2.35 4.73076 0.937422 9.00924
212 2 0.5 2.35 9.08298 6.27914 8.71845
213 2 0.5 2.35 10.2095 8.29415 9.19443
214 2 0.5 2.35 0.237681 10.3708 2.07675
215 2 0.5 2.35 9.85919 1.07265 6.0952
216 2 0.5 2.35 8.02898 7.98293 4.21229
217 2 0.5 2.35 4.81112 0.175373 3.2865
218 2 0.5 2.35 4.05633 9.8263 4.5231
219 2 0.5 2.35 5.03158 3.89086 2.1095
220 2 0.5 2.35 8.73114 3.96917 10.635
221 2 0.5 2.35 9.13056 7.821 1.20662
222 2 0.5 2.35 3.95887 7.76823 4.17647
223 2 0.5 2.35 2.33231 7.72969 2.61346
224 2 0.5 2.35 1.49952 6.45266 7.00107
225 2 0.5 2.35 9.22038 7.19731 1.65153
226 2 0.5 2.35 4.58136 6.60754 3.06544
227 1 1 2.35 2.09382 1.54151 7.66397
228 2 0.5 2.35 0.249445 5.68708 0.603345
229 2 0.5 2.35 4.8183 2.09853 4.38232
230 2 0.5 2.35 4.99386 4.10653 3.56304
231 1 1 2.35 4.1156 8.278 9.89828
232 2 0.5 2.35 2.0858 9.11884 3.26409
233 2 0.5 2.35 0.13833 6.98009 8.48928
234 2 0.5 2.35 10.2559 4.47923 8.88025
235 2 0.5 2.35 6.04653 2.57485 10.3282
236 2 0.5 2.35 0.0485213 6.98452 4.92845
237 2 0.5 2.35 6.78267 9.69815 4.64751
238 2 0.5 2.35 9.80694 2.45547 6.6536
239 2 0.5 2.35 5.34076 6.78277 8.90436
240 2 0.5 2.35 2.13716 0.717737 8.85148
241 2 0.5 2.35 9.81378 10.3889 1.17469
242 1 1 2.35 3.50105 0.0381638 10.7632
243 2 0.5 2.35 0.352522 0.279411 10.3092
244 2 0.5 2.35 3.73702 0.434861 2.75281
245 2 0.5 2.35 7.50233 2.84745 0.276538
246 2 0.5 2.35 9.11761 8.38116 5.66427
247 2 0.5 2.35 9.99248 2.09814 4.83918
248 2 0.5 2.35 8.61334 6.82042 5.39219
249 2 0.5 2.35 9.00566 5.47766 1.46351
250 2 0.5 2.35 9.63488 8.00235 6.77899
251 2 0.5 2.35 0.402656 6.65415 7.91845
252 2 0.5 2.35 4.72658 3.4613 9.7642
253 2 0.5 2.35 5.35729 10.3366 8.71852
254 2 0.5 2.35 6.76039 8.11127 5.97116
255 2 0.5 2.35 4.35543 6.98567 1.23663
256 1 1 2.35 1.9079 10.4395 2.76511
257 2 0.5 2.35 8.72361 6.71997 0.0407138
258 2 0.5 2.35 5.70982 7.60243 5.40721
259 2 0.5 2.35 6.27315 0.627161 8.14289
260 2 0.5 2.35 5.26406 3.89803 8.94705
261 2 0.5 2.35 6.9061 2.81426 5.3433
262 2 0.5 2.35 8.70806 5.06509 5.10537
263 2 0.5 2.35 3.85228 8.83373 0.621351
264 2 0.5 2.35 0.886032 10.6194 8.74108
265 1 1 2.35 9.0604 10.3043 8.22371
266 2 0.5 2.35 9.02642 8.66138 2.50289
267 2 0.5 2.35 1.85036 7.10962 10.3448
268 2 0.5 2.35 4.9137 1.69841 9.57764
269 2 0.5 2.35 4.45121 9.27093 10.4244
270 2 0.5 2.35 2.91999 0.958634 2.54009
271 1 1 2.35 2.70249 5.5055 2.15438
272 2 0.5 2.35 4.8558 3.21617 6.35589
273 2 0.5 2.35 1.82584 3.13827 8.43421
274 2 0.5 2.35 3.25658 0.287868 2.48825
275 2 0.5 2.35 1.83656 8.75779 0.862762
276 2 0.5 2.35 7.57266 8.46888 7.84798
277 2 0.5 2.35 6.53711 6.71048 10.0844
278 2 0.5 2.35 5.37076 7.45294 10.7461
279 2 0.5 2.35 8.04627 8.71136 1.50981
280 2 0.5 2.35 2.57041 5.64156 8.50216
281 2 0.5 2.35 5.22496 8.7287 4.69697
282 2 0.5 2.35 1.91467 10.1681 6.81172
283 2 0.5 2.35 0.0286075 10.7281 3.81617
284 2 0.5 2.35 6.32969 1.82554 2.77124
285 2 0.5 2.35 0.835311 10.3165 6.99943
286 2 0.5 2.35 6.32957 0.419464 4.10658
287 2 0.5 2.35 5.5545 1.26863 6.59858
288 2 0.5 2.35 4.96759 8.66751 10.4085
289 2 0.5 2.35 1.58912 4.0274 8.57618
290 2 0.5 2.35 6.17672 0.0796418 0.289845
291 2 0.5 2.35 8.82822 9.92902 2.1199
292 2 0.5 2.35 5.48285 0.837687 0.848034
293 2 0.5 2.35 5.15687 3.83055 5.80583
294 1 1 2.35 9.85716 8.90887 9.98798
295 2 0.5 2.35 4.44651 4.10268 4.0502
296 1 1 2.35 5.84302 8.23283 6.91417
297 2 0.5 2.35 2.4358 6.3223 9.63661
298 2 0.5 2.35 8.39711 3.11333 8.42345
299 1 1 2.35 8.59734 3.09082 10.2113
300 2 0.5 2.35 7.11359 6.52683 9.83586
301 1 1 2.35 4.86747 0.290271 5.88496
302 2 0.5 2.35 4.88713 6.21044 0.721132
303 1 1 2.35 6.90265 0.866289 8.79495
304 1 1 2.35 10.7361 4.81617 6.74882
305 2 0.5 2.35 10.0935 1.42981 8.75106
306 2 0.5 2.35 2.3329 3.88093 9.18656
307 2 0.5 2.35 9.18231 9.79838 9.3632
308 2 0.5 2.35 5.98683 9.26478 6.76865
309 2 0.5 2.35 5.6473 7.92056 9.46456
310 2 0.5 2.35 1.56803 6.40335 1.10879
311 2 0.5 2.35 8.63071 9.5153 6.38719
312 1 1 2.35 3.80642 7.35172 9.99238
313 1 1 2.35 8.83628 6.47166 9.62083
314 1 1 2.35 5.81096 1.55608 3.21268
315 2 0.5 2.35 2.63894 9.10996 8.15554
316 2 0.5 2.35 3.58413 0.146447 10.589
317 2 0.5 2.35 8.34207 3.17965 7.16435
318 2 0.5 2.35 2.15512 10.552 3.27816
319 1 1 2.35 6.69099 4.89044 9.57508
320 2 0.5 2.35 5.83404 5.86114 7.00445
321 2 0.5 2.35 4.47089 10.1074 6.18726
322 2 0.5 2.35 4.73184 6.70656 8.18588
323 2 0.5 2.35 8.89571 10.2458 3.92992
324 2 0.5 2.35 4.21816 2.88891 2.36993
325 2 0.5 2.35 9.59916 2.01036 1.87007
326 2 0.5 2.35 6.96832 2.47667 1.41115
327 2 0.5 2.35 2.10145 10.4473 7.63245
328 1 1 2.35 6.44665 7.50733 3.37339
329 2 0.5 2.35 7.6735 5.67088 6.70847
330 2 0.5 2.35 3.39124 2.35368 4.55091
331 2 0.5 2.35 1.83836 10.0428 0.662766
332 2 0.5 2.35 10.4417 6.74539 9.3366
333 2 0.5 2.35 0.774364 8.93216 4.33986
334 2 0.5 2.35 3.29836 9.0896 10.0731
335 1 1 2.35 6.18726 0.384776 0.0394844
336 2 0.5 2.35 5.81702 4.50215 3.03046
337 2 0.5 2.35 10.1393 1.819 3.24973
338 1 1 2.35 0.382865 9.78022 9.30551
339 2 0.5 2.35 5.03701 8.40941 9.54056
340 2 0.5 2.35 0.713892 0.548013 1.54267
341 2 0.5 2.35 7.86946 9.32887 9.98548
342 2 0.5 2.35 0.179661 6.69403 1.22301
343 2 0.5 2.35 8.68741 3.69913 6.75442
344 2 0.5 2.35 5.67829 8.99468 4.619
345 1 1 2.35 4.6555 4.78175 3.92724
346 2 0.5 2.35 0.530532 5.79247 8.24401
347 2 0.5 2.35 7.11459 3.1042 0.912671
348 2 0.5 2.35 3.12632 10.069 5.51685
349 1 1 2.35 7.98999 0.898158 10.6827
350 2 0.5 2.35 4.4142 7.23901 7.90982
351 1 1 2.35 0.550126 9.38888 3.34438
352 2 0.5 2.35 3.77122 5.66652 3.87896
353 2 0.5 2.35 7.98131 3.43303 1.36203
354 2 0.5 2.35 2.75112 7.9459 5.72784
355 2 0.5 2.35 3.45773 9.95922 10.5485
356 2 0.5 2.35 0.420717 3.66328 2.27357
357 2 0.5 2.35 1.36027 4.54918 2.51465
358 2 0.5 2.35 7.19198 9.64485 7.53607
359 2 0.5 2.35 2.7726 1.04553 7.62271
360 2 0.5 2.35 9.69198 5.57485 6.51087
361 2 0.5 2.35 1.43611 3.57526 8.39659
362 2 0.5 2.35 6.91555 1.16212 7.48505
363 2 0.5 2.35 7.68906 1.99862 5.28136
364 2 0.5 2.35 2.50371 2.79072 9.75364
365 2 0.5 2.35 0.0122282 5.87027 2.30319
366 2 0.5 2.35 5.94232 4.3541 4.21568
367 2 0.5 2.35 3.1908 2.82354 7.86129
368 2 0.5 2.35 7.38608 10.548 2.00396
369 2 0.5 2.35 1.82974 0.297712 6.47977
370 2 0.5 2.35 0.344992 6.08863 2.66189
371 2 0.5 2.35 7.69382 5.20134 10.2834
372 2 0.5 2.35 6.3974 6.64419 10.2124
373 2 0.5 2.35 3.21831 5.90795 0.13867
374 2 0.5 2.35 9.3779 4.24766 7.89119
375 2 0.5 2.35 3.05363 9.31983 3.8251
376 2 0.5 2.35 5.5217 9.19456 5.24438
377 2 0.5 2.35 3.55394 3.59196 10.1475
378 2 0.5 2.35 9.39074 2.15587 0.285535
379 1 1 2.35 6.65438 6.06038 3.40199
380 2 0.5 2.35 1.25831 1.15386 3.56042
381 2 0.5 2.35 8.24773 5.656 9.87191
382 2 0.5 2.35 3.51976 6.3428 10.1657
383 1 1 2.35 6.04459 10.3599 2.22235
384 2 0.5 2.35 5.11182 1.04534 2.66616
385 2 0.5 2.35 9.38102 10.7295 10.6319
386 2 0.5 2.35 8.79608 6.52831 10.517
387 1 1 2.35 2.64118 6.65649 4.0535
388 1 1 2.35 10.5065 8.05858 0.450046
389 2 0.5 2.35 3.35159 5.64354 3.03736
390 2 0.5 2.35 2.90015 2.83584 10.768
391 2 0.5 2.35 9.9315 7.7272 0.792175
392 2 0.5 2.35 6.24837 5.00952 10.1678
393 1 1 2.35 4.52437 2.0858 5.25906
394 2 0.5 2.35 3.33352 0.469885 7.30513
395 1 1 2.35 6.87005 4.7752 7.91144
396 2 0.5 2.35 4.24955 10.0626 7.01805
397 2 0.5 2.35 3.2389 9.74239 3.12691
398 2 0.5 2.35 9.30041 6.30951 0.626409
399 2 0.5 2.35 3.90053 6.94383 4.87206
400 1 1 2.35 8.42159 4.93955 7.47823
401 2 0.5 2.35 7.46725 9.45869 0.962081
402 2 0.5 2.35 4.51469 0.657755 5.67103
403 2 0.5 2.35 2.55763 9.34296 8.95929
404 2 0.5 2.35 8.68052 6.24789 0.726277
405 2 0.5 2.35 0.496921 0.316961 6.36292
406 2 0.5 2.35 1.8746 5.67697 4.42567
407 1 1 2.35 8.39926 7.88678 6.26621
408 2 0.5 2.35 9.27606 9.85679 7.93118
409 2 0.5 2.35 0.932396 7.47518 1.53217
410 2 0.5 2.35 8.73811 3.79563 8.37219
411 2 0.5 2.35 6.49678 6.13152 7.77609
412 1 1 2.35 8.76278 0.51943 9.37212
413 2 0.5 2.35 4.89659 1.20194 6.63916
414 2 0.5 2.35 1.08658 6.23154 3.804
415 1 1 2.35 4.10995 7.50616 7.38265
416 2 0.5 2.35 3.06813 1.57956 10.7284
417 2 0.5 2.35 1.13887 1.32246 5.91165
418 2 0.5 2.35 0.718216 9.56394 2.39904
419 1 1 2.35 8.63342 2.57103 8.84134
420 2 0.5 2.35 9.10122 2.62955 9.08147
421 2 0.5 2.35 6.00469 1.9126 5.7355
422 2 0.5 2.35 2.45359 5.80762 5.2037
423 1 1 2.35 0.627241 10.1694 8.86342
424 2 0.5 2.35 4.41103 0.820315 7.80262
425 2 0.5 2.35 9.27324 5.17578 5.39717
426 2 0.5 2.35 9.1675 8.34142 1.42593
427 2 0.5 2.35 6.07197 8.7848 9.61273
428 2 0.5 2.35 6.32504 3.48572 5.84362
429 2 0.5 2.35 5.59233 8.11766 0.172201
430 1 1 2.35 2.07263 10.3906 4.52356
431 1 1 2.35 5.49285 7.713 9.38462
432 2 0.5 2.35 8.60395 10.448 1.23939
433 2 0.5 2.35 8.82942 9.68738 5.98753
434 2 0.5 2.35 4.69808 9.57125 8.70831
435 2 0.5 2.35 4.37926 4.64453 5.43582
436 2 0.5 2.35 8.33153 5.06683 1.15398
437 2 0.5 2.35 9.07487 5.36249 7.84869
438 2 0.5 2.35 6.35592 10.1882 3.60883
439 2 0.5 2.35 3.74679 0.538897 0.528023
440 2 0.5 2.35 6.25549 9.5594 9.97063
441 2 0.5 2.35 9.36236 9.89546 2.30917
442 2 0.5 2.35 6.14488 6.03473 6.47144
443 2 0.5 2.35 7.95581 2.59285 1.68644
444 2 0.5 2.35 7.66649 2.41023 0.516685
445 1 1 2.35 1.76674 1.21116 1.68128
446 2 0.5 2.35 0.882532 0.190376 9.63391
447 2 0.5 2.35 0.728211 1.50217 6.50885
448 2 0.5 2.35 8.1459 10.303 9.22104
449 2 0.5 2.35 3.47757 8.26475 8.75758
450 2 0.5 2.35 8.56329 7.05732 3.30322
451 2 0.5 2.35 1.62752 10.2787 7.0219
452 2 0.5 2.35 1.40385 3.01413 4.13449
453 2 0.5 2.35 5.25088 5.30018 7.09059
454 2 0.5 2.35 7.96245 9.82397 10.0316
455 2 0.5 2.35 7.32292 3.50917 1.77611
456 2 0.5 2.35 10.6793 7.46947 6.81685
457 2 0.5 2.35 5.84671 10.0461 4.75862
458 2 0.5 2.35 1.46232 8.4014 10.2556
459 2 0.5 2.35 6.20094 1.42475 7.66554
460 2 0.5 2.35 3.49069 7.79053 4.2338
461 2 0.5 2.35 0.867692 7.37141 5.35053
462 2 0.5 2.35 4.87297 1.16797 3.62837
463 2 0.5 2.35 3.83334 9.61114 6.28543
464 2 0.5 2.35 0.345032 1.33247 3.76205
465 2 0.5 2.35 4.483 0.7908 3.9791
466 2 0.5 2.35 4.21312 6.6823 5.25246
467 2 0.5 2.35 9.88916 8.57066 9.56491
468 2 0.5 2.35 4.49028 10.1197 5.74134
469 2 0.5 2.35 3.7659 3.34419 4.28092
470 1 1 2.35 1.43044 0.104934 6.06275
471 2 0.5 2.35 6.17077 0.676726 7.95164
472 2 0.5 2.35 1.5546 4.33901 4.5625
473 2 0.5 2.35 5.57682 3.29179 6.69016
474 2 0.5 2.35 7.0379 6.96375 1.95546
475 2 0.5 2.35 3.01577 7.50843 6.70717
476 2 0.5 2.35 10.7472 1.90272 0.94683
477 2 0.5 2.35 0.555478 8.32366 0.731054
478 2 0.5 2.35 5.61513 6.71206 5.25372
479 2 0.5 2.35 5.99643 7.18182 4.15198
480 2 0.5 2.35 4.44511 9.0927 8.25559
481 2 0.5 2.35 3.46237 8.73302 2.33344
482 2 0.5 2.35 2.32101 9.94901 6.04295
483 2 0.5 2.35 3.55642 7.8596 10.4333
484 2 0.5 2.35 0.24403 4.40148 9.86338
485 2 0.5 2.35 9.63061 4.47235 9.37321
486 2 0.5 2.35 3.39427 7.82964 6.76654
487 2 0.5 2.35 8.88805 1.12795 6.69017
488 2 0.5 2.35 5.00662 1.29432 7.94715
489 2 0.5 2.35 8.46594 4.63036 0.0930025
490 2 0.5 2.35 1.23065 7.82153 6.97338
491 2 0.5 2.35 9.01768 3.26447 7.30794
492 2 0.5 2.35 3.51971 7.58146 4.66846
493 2 0.5 2.35 8.60982 8.2441 3.53557
494 2 0.5 2.35 8.11504 4.86857 9.94828
495 2 0.5 2.35 0.381131 8.06188 9.02614
496 1 1 2.35 5.81147 3.68959 1.53274
497 2 0.5 2.35 8.86062 6.64195 6.27629
498 2 0.5 2.35 6.84562 2.4188 10.5007
499 1 1 2.35 2.25574 10.1874 10.568
500 1 1 2.35 8.39309 2.24729 5.92218
501 2 0.5 2.35 7.17226 9.01729 8.02859
502 2 0.5 2.35 1.13135 9.76467 9.83995
503 2 0.5 2.35 4.46696 7.68303 3.4269
504 2 0.5 2.35 8.6592 4.46962 0.266175
505 2 0.5 2.35 3.62993 5.75985 3.01682
506 2 0.5 2.35 0.0653713 7.69262 2.28003
507 2 0.5 2.35 6.17854 8.99243 2.69755
508 2 0.5 2.35 2.3051 9.22338 3.50846
509 2 0.5 2.35 0.0959573 0.358461 4.83526
510 2 0.5 2.35 7.60308 2.24549 9.59411
511 2 0.5 2.35 2.5248 10.6866 1.33567
512 2 0.5 2.35 2.17316 8.00924 3.32392
513 2 0.5 2.35 1.58883 1.9633 6.83121
514 2 0.5 2.35 10.6489 3.84687 2.91426
515 2 0.5 2.35 8.16803 2.01594 5.55419
516 2 0.5 2.35 7.35483 5.50146 5.64702
517 2 0.5 2.35 4.7721 0.36047 5.52526
518 2 0.5 2.35 4.80197 4.59637 2.33107
519 2 0.5 2.35 10.5785 4.85788 3.82611
520 2 0.5 2.35 8.42802 4.44968 8.40361
521 2 0.5 2.35 6.38016 0.584785 10.7554
522 2 0.5 2.35 7.45905 4.01302 1.48592
523 2 0.5 2.35 7.57654 7.89463 10.4482
524 2 0.5 2.35 10.2589 10.6314 6.80744
525 2 0.5 2.35 8.24989 0.814593 7.87407
526 2 0.5 2.35 1.65918 4.94831 2.32292
527 2 0.5 2.35 10.1829 1.40044 3.26863
528 2 0.5 2.35 9.92126 10.5925 7.28614
529 1 1 2.35 4.45339 8.72549 9.39835
530 2 0.5 2.35 8.17226 1.25862 9.50548
531 2 0.5 2.35 6.3554 2.80057 8.58641
532 2 0.5 2.35 5.11049 6.86767 7.25018
533 2 0.5 2.35 2.78026 10.0729 0.248361
534 1 1 2.35 7.55486 6.45962 10.6009
535 2 0.5 2.35 9.0276 4.34581 5.56044
536 2 0.5 2.35 6.31419 9.04366 0.726803
537 2 0.5 2.35 0.597043 3.79994 3.84205
538 2 0.5 2.35 8.32171 0.113798 2.20366
539 2 0.5 2.35 10.1376 9.37338 3.36341
540 2 0.5 2.35 4.23254 9.0181 10.002
541 2 0.5 2.35 3.76376 3.35389 8.9608
542 2 0.5 2.35 2.58328 3.51888 10.2841
543 1 1 2.35 1.26523 1.74328 4.88288
544 2 0.5 2.35 3.1654 7.63813 8.66684
545 2 0.5 2.35 7.00965 2.36677 3.03616
546 2 0.5 2.35 3.67389 8.88536 8.96414
547 2 0.5 2.35 10.0715 3.82714 4.83932
548 2 0.5 2.35 0.0905767 2.39811 6.14806
549 2 0.5 2.35 8.58606 8.94142 5.36445
550 2 0.5 2.35 0.0480291 2.83457 10.1839
551 1 1 2.35 9.21473 2.64844 0.0794371
552 2 0.5 2.35 3.38962 0.703816 1.6669
553 2 0.5 2.35 10.5316 10.1421 2.4486
554 2 0.5 2.35 3.5372 7.66592 8.89744
555 2 0.5 2.35 2.55291 8.60032 8.94502
556 2 0.5 2.35 1.04735 6.27778 3.84406
557 2 0.5 2.35 6.75301 3.85762 8.96704
558 2 0.5 2.35 9.81361 9.2564 5.43849
559 1 1 2.35 2.04401 7.1862 10.5059
560 2 0.5 2.35 7.47791 4.60535 8.93663
561 2 0.5 2.35 6.06405 10.7575 2.03302
562 2 0.5 2.35 6.37719 1.40373 8.64696
563 2 0.5 2.35 9.178 7.80812 1.89526
564 2 0.5 2.35 1.2723 3.88546 5.74751
565 2 0.5 2.35 5.91032 1.1804 7.83656
566 2 0.5 2.35 5.19426 10.2736 7.17822
567 2 0.5 2.35 3.21132 8.46689 0.887302
568 2 0.5 2.35 0.840171 1.72294 8.66759
569 2 0.5 2.35 7.48753 6.30053 7.87128
570 1 1 2.35 8.12312 3.71742 8.93852
571 2 0.5 2.35 5.32986 9.66087 2.61859
572 2 0.5 2.35 0.767596 1.62056 6.56172
573 2 0.5 2.35 10.4787 9.51749 8.45034
574 2 0.5 2.35 5.57432 8.4485 3.26851
575 2 0.5 2.35 2.7381 5.82557 9.21284
576 2 0.5 2.35 5.09236 7.68067 10.0893
577 2 0.5 2.35 4.31889 2.71444 7.17151
578 2 0.5 2.35 8.45935 3.96999 1.36841
579 2 0.5 2.35 9.39146 1.62358 3.41371
580 2 0.5 2.35 9.18624 2.46728 9.95092
581 2 0.5 2.35 6.51686 8.86367 1.31662
582 1 1 2.35 2.19514 2.3338 10.2522
583 2 0.5 2.35 7.76496 6.92053 4.71757
584 2 0.5 2.35 10.0642 3.43152 7.35028
585 2 0.5 2.35 7.9802 1.9901 2.68744
586 2 0.5 2.35 9.52581 8.40001 1.83305
587 1 1 2.35 10.7295 2.90281 10.5334
588 2 0.5 2.35 1.12971 8.24932 7.67398
589 2 0.5 2.35 4.19613 6.5214 1.08618
590 2 0.5 2.35 1.44053 3.69183 6.08363
591 2 0.5 2.35 2.87566 9.38822 3.32424
592 2 0.5 2.35 1.69863 3.36819 3.04963
593 2 0.5 2.35 1.83044 1.38692 7.05943
594 2 0.5 2.35 6.82335 6.04892 4.84528
595 2 0.5 2.35 2.19558 9.03469 6.22522
596 2 0.5 2.35 2.5614 3.56198 1.32291
597 1 1 2.35 2.73239 1.27243 5.34742
598 1 1 2.35 7.13265 0.370937 8.02402
599 2 0.5 2.35 6.21278 0.512457 9.69781
600 2 0.5 2.35 5.09318 6.72166 8.81954
601 2 0.5 2.35 7.96319 4.62338 9.42265
602 2 0.5 2.35 10.7152 2.95134 7.0967
603 2 0.5 2.35 4.71476 7.67592 5.02156
604 2 0.5 2.35 3.90482 0.155351 8.18983
605 2 0.5 2.35 3.8541 3.80408 1.60296
606 2 0.5 2.35 9.91405 0.960327 2.40158
607 2 0.5 2.35 0.930193 0.745599 6.22744
608 2 0.5 2.35 0.898317 3.31282 3.14144
609 2 0.5 2.35 0.286928 2.13448 7.86044
610 2 0.5 2.35 2.05112 4.80789 8.59057
611 2 0.5 2.35 9.40364 6.55929 0.147082
612 2 0.5 2.35 0.825394 6.07268 8.27288
613 2 0.5 2.35 5.20566 2.65638 8.94834
614 2 0.5 2.35 8.25199 10.3535 8.65497
615 2 0.5 2.35 5.3867 8.53464 3.12227
616 2 0.5 2.35 9.69047 7.29515 7.11974
617 2 0.5 2.35 9.74797 6.38796 8.37339
618 2 0.5 2.35 6.31048 5.15907 0.132445
619 2 0.5 2.35 6.44151 3.15797 10.302
620 2 0.5 2.35 4.40827 7.11198 6.49982
621 2 0.5 2.35 0.359507 9.58631 8.58107
622 2 0.5 2.35 2.14401 6.7452 4.20129
623 2 0.5 2.35 9.14163 2.63204 7.45324
624 2 0.5 2.35 1.78712 7.3883 8.79372
625 2 0.5 2.35 1.32866 5.56406 1.99831
626 2 0.5 2.35 9.06763 5.53602 5.93928
627 2 0.5 2.35 6.45341 2.14701 2.59889
628 2 0.5 2.35 1.53891 7.71713 1.61336
629 2 0.5 2.35 6.29982 2.83769 1.54336
630 2 0.5 2.35 3.68654 5.1806 2.65333
631 2 0.5 2.35 3.05549 8.11886 9.75857
632 1 1 2.35 8.20414 9.94626 9.47409
633 2 0.5 2.35 6.03411 7.57976 9.15485
634 1 1 2.35 1.7433 8.44004 8.17752
635 2 0.5 2.35 4.59775 4.82589 6.30313
636 2 0.5 2.35 1.57236 5.90401 0.274432
637 2 0.5 2.35 9.53768 2.31305 1.89121
638 2 0.5 2.35 1.70685 1.13127 6.61176
639 2 0.5 2.35 10.1 8.26642 2.46694
640 2 0.5 2.35 4.89446 0.854791 4.82089
641 2 0.5 2.35 2.76307 6.19424 2.03245
642 2 0.5 2.35 8.38311 9.00126 2.776
643 2 0.5 2.35 8.13743 2.02878 8.62971
644 2 0.5 2.35 5.4691 7.6343 1.81198
645 2 0.5 2.35 5.83124 6.66228 4.44057
646 2 0.5 2.35 7.63011 4.48766 3.91636
647 1 1 2.35 4.35584 2.53233 5.11536
648 2 0.5 2.35 10.1376 0.651801 7.22261
649 2 0.5 2.35 1.70576 0.295737 3.17269
650 2 0.5 2.35 0.426803 6.96039 9.42909
651 2 0.5 2.35 3.36803 3.61783 6.15602
652 1 1 2.35 8.1535 5.17797 8.30199
653 2 0.5 2.35 8.14879 5.55115 0.512679
654 2 0.5 2.35 2.59499 1.06391 2.80863
655 2 0.5 2.35 4.08072 10.7325 1.60773
656 2 0.5 2.35 0.857025 0.623653 2.48238
657 2 0.5 2.35 1.95461 8.9889 3.36471
658 2 0.5 2.35 7.26014 6.76147 10.4884
659 2 0.5 2.35 4.38381 4.73817 0.0635656
660 2 0.5 2.35 2.65947 1.09521 6.902
661 2 0.5 2.35 2.31218 9.27343 0.503747
662 2 0.5 2.35 6.15635 6.42638 6.89188
663 2 0.5 2.35 3.70757 1.07736 1.40804
664 2 0.5 2.35 8.05846 9.64321 1.41373
665 1 1 2.35 9.31684 10.7394 4.60815
666 2 0.5 2.35 1.54674 1.7766 6.02222
667 2 0.5 2.35 3.6823 3.87814 8.32195
668 2 0.5 2.35 7.39191 2.71231 4.13467
669 2 0.5 2.35 8.00271 1.97727 0.685516
670 2 0.5 2.35 8.8799 10.4223 4.09634
671 2 0.5 2.35 10.7106 3.5055 6.65627
672 2 0.5 2.35 3.3875 6.90931 4.16113
673 2 0.5 2.35 10.3078 9.5934 5.77958
674 2 0.5 2.35 1.71285 4.11019 4.41712
675 1 1 2.35 0.848831 6.75809 5.49263
676 2 0.5 2.35 4.73564 7.08816 6.44903
677 1 1 2.35 4.86364 10.2915 3.77839
678 2 0.5 2.35 5.05087 1.12086 5.25112
679 2 0.5 2.35 2.32423 3.45401 5.47872
680 2 0.5 2.35 5.95899 7.7736 6.75705
681 2 0.5 2.35 8.28131 1.94167 8.20006
682 2 0.5 2.35 8.12057 3.27173 5.4466
683 2 0.5 2.35 9.23309 1.76404 10.4399
684 2 0.5 2.35 8.46259 6.11607 4.17351
685 2 0.5 2.35 10.0229 6.8777 3.37032
686 2 0.5 2.35 4.01353 7.21563 2.69454
687 2 0.5 2.35 0.936877 7.86759 0.718912
688 1 1 2.35 5.47537 1.23971 4.0451
689 2 0.5 2.35 2.36074 9.08554 1.49228
690 2 0.5 2.35 5.98417 3.99306 2.85026
691 2 0.5 2.35 10.3728 4.73166 2.67793
692 1 1 2.35 2.41967 1.23477 6.38247
693 2 0.5 2.35 6.67536 5.61971 10.2276
694 2 0.5 2.35 2.06067 0.475688 0.282165
695 2 0.5 2.35 5.08231 6.69873 1.31121
696 2 0.5 2.35 1.35331 10.1943 1.89263
697 2 0.5 2.35 5.53185 8.66219 4.95766
698 2 0.5 2.35 8.97347 9.82448 2.20295
699 2 0.5 2.35 7.48423 0.982906 4.22563
700 2 0.5 2.35 9.27028 4.67123 7.54767
701 2 0.5 2.35 5.89057 4.48643 9.24141
702 2 0.5 2.35 5.8855 5.45843 1.5766
703 2 0.5 2.35 7.49767 10.6946 0.0899136
704 2 0.5 2.35 8.07607 2.96778 0.70941
705 2 0.5 2.35 3.5506 2.51909 9.54872
706 2 0.5 2.35 4.16105 5.8675 2.67868
707 2 0.5 2.35 4.12425 0.731546 1.79934
708 2 0.5 2.35 8.06481 7.27249 5.49108
709 2 0.5 2.35 0.903215 0.540823 8.39104
710 2 0.5 2.35 7.34257 2.00862 1.16118
711 2 0.5 2.35 1.48967 8.76358 6.21232
712 2 0.5 2.35 10.1371 6.52808 2.22632
713 2 0.5 2.35 1.93422 4.78997 0.391618
714 2 0.5 2.35 3.23635 6.3472 4.88424
715 2 0.5 2.35 9.75682 6.65818 8.44095
716 2 0.5 2.35 0.889898 10.0707 0.0877385
717 2 0.5 2.35 3.30032 1.09364 0.0118318
718 2 0.5 2.35 9.37464 9.6673 2.11542
719 2 0.5 2.35 1.66455 4.80748 6.99246
720 2 0.5 2.35 5.92369 0.803762 7.76157
721 2 0.5 2.35 10.0069 4.27237 1.82865
722 1 1 2.35 6.1182 0.334818 7.30585
723 2 0.5 2.35 9.50512 1.05805 5.99133
724 2 0.5 2.35 10.5436 9.97141 3.57248
725 2 0.5 2.35 0.738253 2.16901 5.79422
726 2 0.5 2.35 5.72832 0.862489 5.19138
727 1 1 2.35 4.83599 1.64415 9.90232
728 2 0.5 2.35 8.82249 1.32378 5.10358
729 2 0.5 2.35 0.714799 9.36971 9.62212
730 2 0.5 2.35 2.54656 2.14234 2.3639
731 1 1 2.35 1.60096 3.05478 8.5521
732 2 0.5 2.35 1.26443 0.583689 2.87821
733 2 0.5 2.35 6.90037 3.80798 6.72036
734 2 0.5 2.35 10.1678 9.47846 10.5047
735 1 1 2.35 6.21495 0.752255 1.45191
736 2 0.5 2.35 8.95043 3.00493 9.51883
737 2 0.5 2.35 2.0856 9.65706 10.2891
738 2 0.5 2.35 0.764947 0.155261 6.05143
739 2 0.5 2.35 7.26964 10.7702 1.57242
740 2 0.5 2.35 5.62062 1.47377 7.78396
741 2 0.5 2.35 10.7018 5.28739 10.6185
742 2 0.5 2.35 5.86051 5.23062 6.48063
743 2 0.5 2.35 4.65487 6.80101 1.70176
744 2 0.5 2.35 6.85016 0.119114 3.04066
745 1 1 2.35 6.18036 1.22592 7.42821
746 2 0.5 2.35 6.74438 2.21986 7.28902
747 2 0.5 2.35 6.21494 5.56592 8.73101
748 2 0.5 2.35 1.72467 4.04269 2.35708
749 2 0.5 2.35 4.51726 2.51306 8.08411
750 2 0.5 2.35 10.331 2.18153 7.02216
751 2 0.5 2.35 6.13215 3.12285 9.64127
752 2 0.5 2.35 6.81766 3.44491 3.02306
753 1 1 2.35 5.01172 6.72441 9.38047
754 2 0.5 2.35 1.80738 4.31327 5.88856
755 2 0.5 2.35 5.74834 7.31666 3.56185
756 2 0.5 2.35 5.71541 4.71692 2.09455
757 2 0.5 2.35 2.17609 5.55866 2.37144
758 1 1 2.35 3.62881 8.49252 4.35954
759 2 0.5 2.35 4.21726 4.15549 6.21551
760 2 0.5 2.35 6.37702 9.46591 2.19941
761 2 0.5 2.35 4.91658 1.34141 2.48629
762 2 0.5 2.35 10.5748 6.56092 1.46
763 2 0.5 2.35 2.45293 6.28623 2.37728
764 2 0.5 2.35 7.92884 10.1338 6.90394
765 2 0.5 2.35 4.95609 9.47853 10.0552
766 2 0.5 2.35 2.18444 8.60477 9.17511
767 2 0.5 2.35 6.27677 4.61803 8.66574
768 2 0.5 2.35 8.77588 8.65758 3.93593
769 2 0.5 2.35 5.84678 3.83739 2.17653
770 2 0.5 2.35 4.32815 6.69952 5.04022
771 1 1 2.35 5.26402 0.442328 1.57469
772 2 0.5 2.35 8.56048 5.93539 10.4914
773 2 0.5 2.35 0.242897 7.50706 0.375283