LAMMPS Description

10000 atoms

7 atom types
0 21.544347 xlo xhi
0 21.544347 ylo yhi
0 21.544347 zlo zhi

Masses

1 0.356818
2 0.40772
3 0.463247
4 0.523599
5 0.588977
6 0.659584
7 0.735619

PairIJ Coeffs

1 1 morse 0.3 1.5 0.88 1.232
1 2 morse 0.3 1.5 0.9 1.26
1 3 morse 0.3 1.5 0.92 1.288
1 4 morse 0.3 1.5 0.94 1.316
1 5 morse 0.3 1.5 0.96 1.344
1 6 morse 0.3 1.5 0.98 1.372
1 7 morse 0.3 1.5 1 1.4
2 2 morse 0.3 1.5 0.92 1.288
2 3 morse 0.3 1.5 0.94 1.316
2 4 morse 0.3 1.5 0.96 1.344
2 5 morse 0.3 1.5 0.98 1.372
2 6 morse 0.3 1.5 1 1.4
2 7 morse 0.3 1.5 1.02 1.428
3 3 morse 0.3 1.5 0.96 1.344
3 4 morse 0.3 1.5 0.98 1.372
3 5 morse 0.3 1.5 1 1.4
3 6 morse 0.3 1.5 1.02 1.428
3 7 morse 0.3 1.5 1.04 1.456
4 4 morse 0.3 1.5 1 1.4
4 5 morse 0.3 1.5 1.02 1.428
4 6 morse 0.3 1.5 1.04 1.456
4 7 morse 0.3 1.5 1.06 1.484
5 5 morse 0.3 1.5 1.04 1.456
5 6 morse 0.3 1.5 1.06 1.484
5 7 morse 0.3 1.5 1.08 1.512
6 6 morse 0.3 1.5 1.08 1.512
6 7 morse 0.3 1.5 1.1 1.54
7 7 morse 0.3 1.5 1.12 1.568

Atoms

1 4 20.3654 17.0868 15.9801
2 4 19.6869 16.978 5.58482
3 6 5.5461 20.7644 13.9672
4 5 20.9121 15.9464 9.99272
5 3 11.8131 11.0297 2.58679
6 1 18.3549 18.5827 10.1638
7 4 12.4026 5.84187 21.3862
8 5 21.373 11.6526 9.41412
9 4 13.8013 21.1461 11.0441
10 3 0.554198 19.6591 20.7913
11 3 15.2942 11.5603 21.1218
12 3 0.943163 7.71962 1.03639
13 3 6.50675 20.3961 0.0714876
14 4 0.168912 19.4911 11.4613
15 5 9.85527 4.66258 17.6353
16 3 9.39992 8.10632 11.4772
17 4 12.2051 16.5114 1.87702
18 4 8.76607 19.022 6.50204
19 4 16.7073 19.4713 5.0438
20 3 12.5235 5.39331 18.8317
21 4 7.65251 14.8153 3.10622
22 4 20.2165 2.85261 18.388
23 4 9.62443 10.2022 10.7557
24 5 4.92613 13.3648 19.6082
25 5 19.6617 3.79511 8.47214
26 6 13.7551 18.0286 1.21977
27 4 10.4303 10.7781 2.09849
28 4 19.1123 9.52778 3.90651
29 5 1.31411 16.2826 19.6074
30 5 2.47026 7.25299 2.57333
31 3 3.93047 13.5682 8.59238
32 5 7.89435 10.2529 2.95464
33 4 6.87277 19.1814 16.7332
34 2 15.2128 0.50484 2.92658
35 3 7.14825 18.444 5.63716
36 4 8.74859 3.49157 7.95565
37 3 2.65251 1.77232 7.65847
38 2 19.0917 17.3631 14.5781
39 6 3.87544 3.52845 5.39503
40 4 13.427 6.34302 20.0555
41 2 10.1989 13.7066 1.15093
42 5 18.9411 13.0695 12.4925
43 3 3.13149 13.8604 6.81027
44 6 21.0055 9.12258 14.1842
45 4 7.43535 8.45372 20.5327
46 2 8.98166 20.8965 8.97345
47 4 3.7565 2.90019 7.0708
48 3 20.4141 12.909 16.558
49 3 10.0317 7.60012 3.53412
50 2 8.10853 5.90978 4.35562
51 4 6.49998 0.970172 19.5251
52 4 2.65163 2.2889 3.83995
53 3 11.3557 19.1558 19.257
54 5 18.4092 20.6292 13.1918
55 5 4.08042 13.497 2.03361
56 6 15.1808 19.2821 3.30539
57 3 15.088 9.26181 20.0707
58 4 3.76496 2.88837 13.4637
59 4 4.01762 12.6889 13.2908
60 3 10.6981 21.542 13.1344
61 4 1.07462 5.18998 2.38449
62 4 15.5619 16.8239 7.16426
63 3 6.4443 20.1726 14.2577
64 3 17.275 16.1969 11.9211
65 5 6.25057 12.7518 13.1509
66 5 6.14189 3.11385 8.04046
67 3 19.9402 14.7264 2.1267
68 2 21.131 8.26383 14.6475
69 6 17.8474 15.6606 16.8955
70 4 2.6551 7.65129 10.7567
71 6 12.1243 8.53583 6.85518
72 5 18.7612 17.2823 3.84635
73 3 14.2115 19.6478 11.2062
74 4 9.93921 13.4543 0.916038
75 4 11.8245 1.85768 9.8067
76 4 7.05259 10.6851 11.8928
77 3 5.53326 15.4105 19.8981
78 5 8.77289 4.87535 3.95086
79 4 0.748833 2.92116 7.59853
80 3 17.0483 2.1142 7.09963
81 5 9.32096 1.67742 10.2164
82 4 2.27692 2.92621 0.547368
83 3 10.9952 12.5247 17.3336
84 3 8.80135 16.6897 10.604
85 4 14.223 11.5077 7.12905
86 5 0.410845 18.3702 5.61027
87 3 18.5827 15.409 10.9528
88 5 13.7917 19.0071 13.3552
89 4 6.37369 13.9504 17.3254
90 4 7.31395 16.9226 19.4485
91 3 4.1458 11.8641 11.4208
92 3 14.5672 0.0470651 10.9556
93 4 20.2404 15.1994 1.81143
94 4 16.5025 6.06366 1.10409
95 4 19.8535 5.5347 9.80722
96 5 5.14429 20.5637 9.49232
97 3 17.3868 16.3253 15.9663
98 3 12.1691 19.2272 12.3148
99 3 18.8883 9.49518 13.4944
100 4 14.811 21.3006 3.10866
101 4 9.82139 16.5604 17.955
102 4 18.8558 21.3006 12.9922
103 3 1.11239 15.2929 7.65987
104 3 19.9093 16.017 8.55505
105 2 3.80236 3.20645 21.4588
106 4 2.59659 0.971432 0.749186
107 5 19.1679 1.85294 0.270814
108 5 8.9213 4.09855 14.8968
109 2 8.9293 5.90696 12.343
110 5 15.1357 20.0559 0.358396
111 3 5.15128 15.7055 17.6945
112 4 2.84408 15.1922 5.06085
113 3 6.35047 6.92263 0.149901
114 5 1.44781 5.11429 9.54489
115 7 13.472 15.1862 10.0551
116 3 6.94266 9.63494 21.5343
117 6 21.4575 15.3382 6.01655
118 4 12.1845 4.76733 9.32681
119 5 18.061 9.69852 6.15436
120 2 6.59315 13.1271 1.15206
121 4 5.49812 18.7681 4.60161
122 4 8.50999 16.8612 1.67023
123 6 13.4992 19.6983 9.97491
124 3 17.515 17.053 11.1107
125 3 15.1141 8.40439 1.84594
126 4 8.76477 12.5802 6.47439
127 5 8.13249 21.4859 1.35843
128 5 8.5108 12.8713 10.1979
129 4 18.5292 10.0317 11.8491
130 4 11.367 14.9384 12.0467
131 5 21.3893 20.7624 16.0671
132 6 14.2687 10.1912 4.73912
133 6 0.366194 10.9681 21.3633
134 5 2.48326 5.0242 2.29232
135 4 15.2651 18.9339 12.9436
136 6 7.83168 13.0317 8.66363
137 4 17.7547 3.84645 11.0537
138 4 20.114 8.53484 9.20538
139 3 11.9301 11.4038 0.366363
140 4 19.9478 16.4675 14.5531
141 4 8.67891 14.5035 8.0188
142 3 1.75382 12.3334 1.93335
143 6 5.89795 18.9968 5.30451
144 2 20.1967 4.7137 21.1359
145 3 13.4765 9.09562 4.02303
146 4 4.23875 7.40931 0.407193
147 4 9.03354 11.0236 11.8921
148 5 5.86642 18.3899 13.4223
149 3 5.95467 9.55625 9.4563
150 3 4.91344 20.6717 10.3757
151 5 0.108807 18.9253 18.1251
152 4 10.3762 16.0266 16.8565
153 4 18.0709 5.78265 14.4786
154 3 16.3303 16.0221 13.402
155 2 2.78648 7.34364 21.1513
156 4 15.3688 16.1261 15.3605
157 3 14.0227 5.35228 18.8168
158 5 1.07771 5.56621 13.6794
159 4 1.82355 7.35259 6.61694
160 3 19.5273 4.38992 16.6236
161 6 7.06283 11.2209 12.3986
162 4 9.4461 8.39195 8.05612
163 4 4.22109 2.11603 19.2017
164 4 8.1295 19.0938 19.5778
165 5 3.79185 4.01228 0.419114
166 4 11.9504 3.07382 6.94331
167 5 10.9463 8.03787 11.527
168 3 5.67265 17.6251 10.1625
169 3 15.7951 1.08326 13.6624
170 4 18.1966 3.96065 6.89718
171 4 12.0058 3.38077 12.0702
172 4 20.0925 16.4896 21.5275
173 4 10.1146 0.167101 0.462301
174 3 14.3294 7.2729 19.8663
175 4 10.4228 12.6823 2.42269
176 4 11.1809 20.0142 18.7879
177 3 19.8967 19.5936 19.1365
178 4 16.9866 5.73378 16.8176
179 3 1.96929 20.4216 19.5154
180 4 12.8144 19.4192 15.6839
181 4 9.76263 2.9973 7.77314
182 5 6.41405 8.75501 7.04132
183 3 18.9432 5.9366 2.52601
184 4 10.9022 11.5966 8.55307
185 3 21.2753 2.00169 18.0329
186 4 11.8643 18.8151 3.93018
187 4 1.38185 1.1906 19.399
188 4 18.1406 11.5345 1.60682
189 4 2.09622 14.2178 14.01
190 5 19.9208 11.8393 5.79353
191 5 6.0429 14.8607 13.815
192 4 18.4935 8.98879 2.79634
193 2 2.98185 6.33341 11.3611
194 6 5.86337 11.9221 11.0125
195 5 0.349454 13.3565 0.303423
196 4 5.29261 17.5312 14.4979
197 4 14.8186 17.7949 13.0835
198 4 2.79489 1.64901 15.0183
199 6 2.45922 15.5684 10.4847
200 3 2.32473 3.3139 7.30342
201 5 15.197 5.59006 11.7935
202 4 0.769097 11.7109 8.001
203 4 1.2893 14.7365 20.7204
204 5 7.85021 1.98866 4.81175
205 2 12.386 17.0419 15.398
206 4 15.4427 0.0393078 16.6964
207 5 6.22663 13.9734 20.5723
208 4 10.408 0.572327 9.37013
209 4 6.45051 11.2585 2.48321
210 4 3.1915 20.3264 3.53044
211 5 16.8729 3.96307 16.7817
212 4 5.53122 7.07711 15.6222
213 6 4.75066 10.4016 7.06078
214 3 13.0632 9.03747 14.2013
215 2 3.4032 14.8793 1.09715
216 3 5.80634 10.5595 3.20037
217 6 18.6408 17.2716 9.61487
218 2 4.99732 15.9129 8.13121
219 6 17.6459 17.6503 15.1692
220 5 20.025 12.5922 0.849788
221 4 8.40846 10.5028 0.994041
222 4 16.6389 5.01465 20.7604
223 4 11.5475 1.19459 20.0105
224 6 21.1644 12.5096 0.0680203
225 5 19.4295 11.6227 12.4737
226 4 7.33194 6.35166 7.94569
227 4 8.9445 18.3655 17.1253
228 6 3.68211 6.06295 21.4836
229 3 16.5168 13.7503 2.45287
230 7 6.80892 3.27702 15.4789
231 3 21.3503 16.3598 12.6591
232 4 20.6986 9.18594 13.3868
233 2 13.8237 2.09629 6.74235
234 4 15.1073 3.67104 14.6938
235 4 1.00602 18.9682 0.982607
236 1 17.2537 3.59383 17.5384
237 4 7.54614 17.7619 6.83839
238 3 9.03989 8.41496 1.44785
239 7 13.9258 20.6599 17.4135
240 3 17.1819 9.53343 2.2347
241 4 18.3773 20.9918 13.8631
242 4 17.3353 18.6033 1.26079
243 5 18.4321 11.8605 18.8936
244 4 12.694 6.58556 2.27139
245 5 18.8532 21.4543 16.3739
246 2 11.0195 21.2742 15.8492
247 4 1.25229 4.34295 20.3718
248 4 9.05499 1.68884 2.81311
249 7 18.8854 18.3248 17.2922
250 6 15.619 11.4219 4.07316
251 6 7.4431 1.24341 21.2169
252 5 18.4268 21.0197 12.2678
253 4 7.81917 3.14639 6.32025
254 2 17.883 17.5357 7.18706
255 3 1.35179 19.294 18.33
256 3 20.7644 8.13353 11.3171
257 3 4.52629 18.7484 2.83852
258 5 11.1139 8.77137 9.04027
259 6 21.4615 11.1847 20.3386
260 3 2.45723 9.6213 0.534125
261 6 16.3191 13.8801 16.0415
262 4 5.14261 1.49106 12.8678
263 3 5.53613 18.7432 6.5473
264 4 14.6235 10.8661 17.9628
265 4 7.69125 5.3497 17.2884
266 5 12.6819 15.8023 14.9704
267 6 7.49333 5.33823 1.74807
268 2 14.5572 12.6514 3.42597
269 4 7.16418 18.9549 3.11191
270 4 1.04196 2.55228 4.91018
271 3 10.4249 14.4036 8.84152
272 5 19.1538 8.84828 15.9358
273 5 7.17928 4.32339 1.23484
274 3 19.0283 20.6235 20.9303
275 3 12.6872 17.7838 10.5171
276 5 11.7294 11.3122 10.7111
277 4 8.14726 7.6565 0.650417
278 3 14.7937 6.00853 18.0316
279 3 11.9967 20.0137 14.4678
280 4 20.9097 8.42555 2.56881
281 5 6.08255 8.61601 10.8164
282 5 15.8604 10.8218 6.98943
283 2 8.93562 11.8591 11.0404
284 5 14.9124 11.8546 6.43099
285 5 15.9906 19.4241 11.5798
286 4 13.8503 13.3716 19.0454
287 4 13.6722 20.8984 7.92179
288 4 12.5416 9.29924 0.13421
289 5 8.78519 13.237 18.5736
290 3 16.6114 19.9412 18.2847
291 3 18.9733 18.1544 9.81825
292 4 16.0095 18.4908 7.47469
293 5 4.0844 3.80122 10.7398
294 2 18.9484 20.3985 1.56239
295 3 1.61393 6.47821 17.0311
296 4 17.9855 9.88325 12.2924
297 2 10.0611 2.30809 16.4248
298 4 12.6499 14.9175 2.93448
299 7 20.1405 5.49748 8.85901
300 5 11.4825 10.8269 12.4354
301 4 2.80059 12.6181 11.7377
302 3 16.6886 7.65267 20.6358
303 4 18.9265 20.6953 17.1341
304 3 21.5267 0.884822 5.02045
305 5 1.57499 19.1906 0.623514
306 3 2.16656 6.02849 6.39003
307 3 10.2363 19.3845 2.00864
308 4 13.8433 16.6776 12.7941
309 4 6.06399 3.67126 12.4741
310 5 14.1084 10.1308 18.8199
311 4 8.86733 1.68412 6.11933
312 4 8.58344 3.65093 5.8021
313 3 11.9239 17.4894 10.2239
314 6 10.126 2.85036 7.86559
315 4 9.92648 0.181216 0.140643
316 5 1.01886 0.775283 10.7794
317 4 7.01974 6.35197 18.4793
318 4 7.22643 7.05133 20.7969
319 3 3.28429 2.96254 9.73827
320 4 17.191 4.43366 5.11126
321 4 12.9722 6.62988 18.4072
322 6 11.2766 14.8416 5.05673
323 5 3.98293 7.62016 4.56128
324 3 4.46701 9.19832 0.562033
325 6 7.71454 7.55864 18.0077
326 5 20.4246 9.47863 11.8169
327 4 17.0987 19.724 19.5558
328 4 0.878893 1.73515 5.2355
329 3 4.58816 5.08472 6.56615
330 3 19.0549 19.6408 8.32487
331 4 3.81958 13.7463 4.85931
332 4 3.50446 1.85929 0.975913
333 5 7.00212 20.2563 7.33347
334 6 6.37197 20.064 19.2516
335 5 5.33644 5.11815 9.00463
336 5 18.0721 14.5195 11.7188
337 3 5.32532 5.84442 16.1069
338 5 18.4222 13.5569 20.6242
339 4 19.1794 15.7508 11.8337
340 5 3.81211 11.9076 11.7465
341 5 3.19816 13.0977 4.89149
342 2 11.7758 8.21067 19.9222
343 2 18.9982 13.764 5.35292
344 4 16.3812 3.58656 0.327171
345 4 3.87327 4.36464 4.72067
346 4 8.19478 15.2555 10.157
347 3 8.53421 6.59032 15.0576
348 4 19.0223 17.6054 15.1215
349 4 18.4435 9.24142 21.3096
350 7 14.2404 0.686076 17.4511
351 5 21.451 12.1173 2.23774
352 6 3.00519 20.6482 15.4126
353 3 1.73946 9.70424 19.2973
354 5 15.2486 4.70378 1.68175
355 2 16.548 9.8443 12.5745
356 3 8.29 12.3938 16.8421
357 3 6.41594 6.92668 14.6813
358 5 14.0918 7.65899 13.8835
359 6 17.5525 20.6297 18.7107
360 4 15.6575 15.3143 10.0548
361 5 14.1416 12.5132 12.5951
362 5 15.4635 20.0401 1.57266
363 3 13.8679 18.4133 15.8213
364 4 11.875 10.6324 20.5782
365 3 7.59902 10.1257 6.75445
366 4 11.8262 0.436691 18.4978
367 2 12.0688 1.58576 6.99577
368 6 6.08416 8.95382 14.2676
369 6 13.6088 15.3852 13.6511
370 3 11.4924 18.2817 16.2833
371 4 8.46054 10.2549 7.76614
372 5 13.8694 15.1149 0.976998
373 5 2.23278 20.5428 1.95072
374 5 20.8772 13.4097 15.3473
375 4 6.05938 21.0223 1.72688
376 4 17.2522 8.98628 15.4302
377 4 17.8745 1.93789 11.5056
378 3 3.59927 0.200193 11.6051
379 3 8.8767 17.2399 11.9685
380 5 0.189571 21.4667 16.2581
381 2 18.0473 17.5294 20.9259
382 3 15.4071 9.85483 5.3888
383 4 3.26444 2.96361 18.5062
384 3 17.4627 17.1841 13.0888
385 5 12.3406 1.71592 20.4106
386 4 6.49603 11.7824 10.3276
387 5 10.1673 20.8732 15.2279
388 4 7.82952 2.55029 17.5324
389 4 6.45078 6.19036 17.5792
390 5 15.7074 20.9743 18.2742
391 4 7.02949 20.8396 17.5891
392 5 17.9732 13.7163 11.7074
393 4 16.9859 7.42384 19.244
394 5 7.38423 10.6403 16.7285
395 6 10.026 20.156 9.62161
396 3 7.15941 13.2143 9.01291
397 3 0.408549 16.2881 20.914
398 4 0.286038 12.0733 18.6491
399 5 3.74561 7.29467 11.2292
400 4 15.2649 1.54056 9.06286
401 4 3.93678 21.2981 16.2541
402 3 10.9437 18.4182 8.60117
403 3 9.6496 3.45017 3.72081
404 4 9.5724 2.64129 10.7584
405 5 11.7404 6.58536 6.12
406 6 5.21103 19.9158 12.1437
407 4 11.0777 2.50067 8.12866
408 4 8.2097 19.3573 8.75759
409 5 3.99275 18.631 10.605
410 5 16.2144 16.4098 20.7957
411 4 12.6455 11.612 11.8247
412 5 12.8811 11.8515 0.544147
413 4 13.2505 5.07181 11.2115
414 4 4.77019 8.95796 10.6686
415 3 1.06453 19.8221 2.73443
416 4 16.854 7.3612 9.97817
417 3 11.9844 12.6591 0.246637
418 4 21.3658 8.42879 8.89
419 4 16.9764 4.17982 4.92396
420 5 9.57518 12.906 13.6756
421 1 2.97183 17.6621 14.8442
422 4 20.1365 14.2188 10.079
423 5 1.42913 15.9486 8.59509
424 4 15.2574 17.8742 4.53041
425 3 19.0749 5.80025 13.095
426 3 2.60584 10.9527 1.9901
427 4 14.5653 6.96292 6.22478
428 5 20.6971 16.1303 2.78504
429 5 13.0959 12.1863 19.2159
430 5 5.29706 11.3596 6.69724
431 3 12.4512 16.4956 3.03049
432 4 8.64526 14.7705 20.4087
433 3 1.64876 10.5397 3.1956
434 4 16.3224 20.8393 9.8738
435 5 13.1087 3.76297 11.4143
436 2 18.2254 9.29421 20.1077
437 5 0.356318 5.8993 9.00959
438 3 2.60329 16.7427 0.205713
439 4 8.8828 10.0621 4.6224
440 4 18.0309 12.2202 15.0073
441 5 6.2311 5.40712 20.5427
442 4 8.66981 19.2044 18.5995
443 4 8.06732 16.8016 9.29964
444 2 12.2076 11.7642 12.8624
445 3 3.28473 19.8133 8.42863
446 3 17.6696 17.2755 19.946
447 3 13.1115 1.6943 7.48675
448 2 7.94193 8.837 11.7142
449 5 6.13828 5.94512 18.2939
450 5 0.0268107 4.50804 8.5182
451 4 19.0173 11.9005 11.7956
452 3 15.3948 15.8273 6.79092
453 3 14.6731 6.87151 7.69945
454 3 0.683097 19.129 16.6946
455 6 19.3694 21.4218 17.6744
456 2 9.77236 4.40208 3.20446
457 4 12.9141 12.5549 5.80551
458 5 2.10717 6.08847 18.1921
459 3 14.5906 1.54165 3.36902
460 4 11.0193 18.6724 5.46945
461 3 0.321573 20.9106 1.40404
462 5 19.2717 3.45871 13.0907
463 5 17.2603 4.61462 5.00755
464 2 0.678929 14.4162 2.60044
465 3 4.64253 0.601736 17.7555
466 6 17.481 6.31743 9.34149
467 5 12.5361 0.69714 18.3107
468 4 10.1113 1.50855 15.5552
469 5 9.40672 14.9879 20.4583
470 5 9.40396 15.6182 10.9857
471 3 2.59921 7.12066 16.8446
472 4 2.21537 8.50388 11.4939
473 4 0.0855013 13.6034 0.689188
474 5 7.20656 11.69 16.6408
475 3 21.4085 13.147 10.291
476 2 8.54439 0.78132 1.02026
477 4 17.5961 13.918 18.6987
478 5 7.97252 1.27193 3.12925
479 4 18.4461 6.17522 6.35221
480 3 8.44029 6.58794 9.25313
481 4 0.517866 11.6557 5.419
482 4 13.8556 16.4901 2.07971
483 5 1.92336 1.68963 8.79875
484 4 7.2093 19.6128 19.365
485 3 10.0975 2.23647 3.94042
486 4 18.5843 7.87751 4.18301
487 5 0.481168 2.31472 11.3906
488 5 19.1625 15.8931 12.2766
489 3 1.79924 19.1237 1.91578
490 4 12.6153 19.2347 8.76505
491 5 5.49302 0.321016 5.1543
492 3 17.725 14.9379 20.3756
493 4 7.78054 17.0038 2.55334
494 3 0.707938 5.98795 5.37327
495 3 5.52582 18.3704 20.47
496 4 3.35912 2.09267 10.627
497 5 19.6504 9.19973 8.54531
498 2 8.21561 12.6815 15.2228
499 3 12.9261 9.48928 9.95483
500 4 0.415437 17.2516 11.9322
501 5 0.837064 16.02 8.22384
502 5 20.2426 4.70007 14.3888
503 4 12.8782 5.00031 13.914
504 4 2.36665 17.1025 16.3069
505 3 3.647 12.4689 4.2977
506 3 7.16088 21.4665 6.12905
507 2 14.6837 16.7138 12.1263
508 5 0.458194 1.05861 8.08291
509 5 16.7465 15.4416 1.21887
510 4 16.5722 9.99437 7.74684
511 4 6.69996 12.7535 0.409697
512 6 15.4937 15.5989 20.8153
513 4 2.33945 3.8738 13.2285
514 6 11.8085 11.453 6.99293
515 4 5.01236 14.5563 1.16192
516 5 7.67666 9.86534 15.9878
517 5 8.07071 2.44255 20.121
518 4 9.75897 2.16837 1.10189
519 4 17.888 5.82916 18.1639
520 4 11.6805 13.0282 17.0564
521 4 3.86763 6.32808 13.1667
522 5 2.75892 5.86442 12.0463
523 5 15.63 18.695 10.6652
524 3 9.13223 1.95595 5.62063
525 5 15.4046 3.69976 2.5233
526 5 19.1538 10.1379 16.2814
527 6 11.5157 16.5078 7.27282
528 3 2.40415 19.0487 15.7158
529 4 13.2631 8.96721 12.2047
530 3 14.7099 13.6095 1.50023
531 2 9.9934 4.10623 0.328823
532 5 1.77309 15.7489 1.85354
533 4 7.66494 16.6852 7.45553
534 4 17.364 20.8184 19.7347
535 3 11.78 0.929203 1.17468
536 3 0.681522 19.0822 2.70659
537 3 7.32758 7.62591 13.8702
538 4 11.9205 9.78675 11.2248
539 3 6.77909 3.24127 6.77977
540 6 5.94761 13.0736 6.03558
541 3 10.3765 14.9819 1.86986
542 2 16.5961 9.39028 19.0522
543 5 14.8841 3.89481 12.6364
544 2 17.3949 14.5729 17.2922
545 5 18.1671 17.4767 12.6379
546 4 2.83843 0.931739 17.0346
547 2 7.30458 10.4289 19.2375
548 6 8.26307 7.26392 21.0412
549 1 19.0988 15.0595 6.53715
550 5 4.19488 12.5689 9.32004
551 5 5.2003 13.7437 4.50531
552 2 19.4056 1.06296 18.6726
553 6 14.7243 8.69013 17.9898
554 4 20.9058 13.3896 13.8052
555 5 4.19994 18.0287 4.42156
556 4 1.15313 4.50536 5.37451
557 5 12.5839 4.83525 6.50614
558 3 11.3239 8.24913 6.85256
559 3 2.33077 21.1321 13.3723
560 2 15.1036 5.91466 7.48663
561 3 11.21 10.6905 9.37156
562 6 7.03943 8.37279 17.1655
563 4 8.06372 20.6882 5.42962
564 3 10.9815 3.67117 21.2373
565 5 13.812 5.44113 7.87133
566 6 14.8566 6.88418 14.9427
567 3 10.952 10.2696 14.2291
568 5 12.8743 7.75532 12.6135
569 3 8.71894 2.74452 13.4193
570 5 12.5612 3.2586 0.941869
571 5 1.53537 5.69014 12.4788
572 3 16.9736 5.93942 14.4088
573 4 20.4982 12.7733 20.0951
574 6 11.9641 18.3254 4.46222
575 4 13.0564 5.19244 7.09943
576 2 17.3673 2.40503 8.49395
577 3 2.65819 1.37017 9.0255
578 4 4.55971 19.6025 19.3962
579 4 10.4152 5.04168 15.1726
580 5 10.9967 10.6786 19.7948
581 4 15.4355 2.08199 12.321
582 4 20.2957 5.14154 7.59838
583 5 9.69429 14.504 7.36625
584 4 13.0147 19.3425 21.084
585 3 0.128137 14.0274 19.6683
586 4 21.2279 16.849 18.1381
587 3 14.8114 21.3343 8.08361
588 5 17.1442 7.65679 21.3576
589 2 18.5208 3.46812 15.4142
590 3 5.39033 20.2665 20.2533
591 4 19.8131 19.732 14.0091
592 4 16.9975 8.51611 16.857
593 4 18.5651 17.6263 17.9716
594 5 19.9973 2.10914 9.88689
595 5 14.8313 2.84746 1.92208
596 4 17.404 3.97394 6.20848
597 3 14.0922 20.2489 15.8002
598 4 19.986 4.21768 10.4882
599 6 10.6544 1.67478 11.1726
600 5 7.98955 6.85464 17.9693
601 4 13.9994 2.11628 18.9885
602 5 17.3055 10.4642 17.1284
603 4 2.65968 1.45525 4.38232
604 6 16.4326 19.2096 15.2706
605 5 14.7441 16.7484 2.75933
606 3 10.0366 16.449 16.062
607 3 15.5716 14.1907 9.18759
608 4 3.30996 14.7636 2.68609
609 2 17.2211 19.6728 11.7417
610 5 13.2029 10.424 6.92199
611 4 18.2716 10.858 17.573
612 5 5.61039 11.6222 3.59732
613 3 1.90164 2.77536 10.3103
614 3 8.60379 20.1045 19.2708
615 4 4.42736 21.2536 13.6956
616 5 4.84978 8.37807 19.7384
617 4 19.6739 1.8676 20.5708
618 4 20.9699 8.93563 13.832
619 4 20.5484 4.27422 14.2815
620 6 14.4449 14.8089 2.94667
621 4 17.8301 1.19021 7.32726
622 5 7.65219 17.6135 17.3022
623 5 11.729 1.43998 9.32758
624 4 20.318 20.9938 4.72914
625 5 15.1037 10.6879 11.1416
626 6 6.20053 3.37085 5.61598
627 4 17.6089 1.14947 2.84882
628 5 9.395 0.664082 21.2157
629 4 19.85 0.0471621 20.5259
630 4 12.4487 17.6746 1.51343
631 3 11.2815 18.601 2.17086
632 3 1.24908 0.899996 3.78317
633 5 16.7992 9.45791 17.3687
634 6 16.1314 10.7584 1.63173
635 3 10.6204 11.882 14.0206
636 4 9.75386 7.9086 16.4295
637 5 20.7815 2.63595 8.85979
638 3 9.18841 7.60953 2.95196
639 3 21.1521 6.35482 13.7378
640 3 17.8571 8.84835 20.3302
641 5 18.7874 3.99905 4.42645
642 4 7.16374 12.8533 15.6847
643 2 9.3117 2.86733 4.8841
644 4 4.78062 7.62133 9.04844
645 4 2.32432 16.6821 15.5623
646 5 14.1712 0.251952 19.7621
647 2 9.44369 16.6233 1.05453
648 2 16.0914 11.5038 19.5706
649 6 21.1543 6.85315 15.2581
650 4 5.80711 9.33354 1.79291
651 4 6.71428 14.2269 12.9135
652 3 5.48349 19.7947 19.7392
653 4 3.94469 4.70324 14.867
654 4 6.16898 14.0155 18.3403
655 5 1.92939 4.18716 4.62004
656 3 6.18106 9.90857 18.0806
657 2 19.3221 9.6347 5.17692
658 5 10.4919 11.4079 10.8155
659 4 1.51984 19.846 7.23171
660 3 8.39251 6.53807 15.1448
661 3 18.1574 13.9864 14.2283
662 2 2.44955 16.4611 7.65807
663 4 1.42846 15.6924 19.0241
664 3 5.43909 3.54372 10.6573
665 3 17.9923 9.22771 17.8918
666 3 20.7671 8.16069 0.043604
667 4 16.3119 2.5636 7.7596
668 3 4.11026 14.8543 7.27088
669 3 7.35032 11.4165 13.901
670 4 21.1482 13.2388 5.4065
671 3 2.47621 11.1689 8.92008
672 5 6.33659 6.97056 8.91461
673 4 7.78345 4.99817 4.99238
674 5 6.42157 1.98079 4.21367
675 5 18.352 10.918 6.00582
676 3 7.67884 4.0109 1.40212
677 3 0.00560762 10.9115 8.62494
678 5 10.8471 2.4506 2.27373
679 4 14.2767 6.3246 5.65022
680 3 10.1017 16.7787 8.9438
681 3 2.40031 19.9278 1.47827
682 4 2.64324 14.5214 14.0233
683 5 1.53853 20.2772 10.5619
684 6 16.5947 17.5837 13.3406
685 4 0.736156 16.6143 6.75145
686 3 4.32458 12.1625 21.0691
687 4 13.3463 12.5198 8.3066
688 3 14.3924 17.9583 18.5856
689 4 5.27529 10.4053 17.1205
690 4 5.76248 6.17363 16.7755
691 3 20.4368 9.21283 13.5964
692 3 12.8959 18.2736 20.3949
693 4 21.0697 2.42972 7.36029
694 4 5.69645 5.96818 20.2029
695 6 0.648603 10.5076 9.40479
696 4 14.3965 15.703 5.86574
697 5 16.631 12.9264 7.48612
698 4 19.5909 9.53876 19.9634
699 4 7.35373 18.6013 8.52362
700 5 15.1088 8.41388 10.6594
701 4 15.0406 8.51346 7.50773
702 3 4.41562 11.6986 8.16884
703 6 1.17314 2.55101 10.5893
704 3 18.6694 14.231 8.31563
705 4 17.4894 2.30532 8.61726
706 5 15.7595 7.22494 20.6827
707 4 6.1277 19.1023 1.17885
708 4 16.5683 6.88137 2.77833
709 5 19.6578 11.4407 8.88634
710 4 6.4845 15.611 19.0479
711 7 18.9631 9.54191 6.31372
712 4 16.6069 8.71578 9.83046
713 3 0.318912 5.72276 1.8028
714 3 14.2329 9.24914 16.0373
715 4 4.35796 5.31054 20.5377
716 5 17.3503 3.84689 21.0492
717 5 20.6838 14.5123 0.187689
718 4 14.4443 14.679 19.9707
719 3 4.60903 2.08246 2.63796
720 4 11.5183 3.22526 10.1223
721 4 4.0213 0.793259 1.9583
722 2 20.9171 0.46799 3.90991
723 4 2.0942 4.31013 15.5224
724 5 2.66253 5.64037 5.97549
725 5 17.5039 3.64607 17.5396
726 4 9.59586 16.208 11.5473
727 3 12.178 8.94217 18.9253
728 2 18.5374 7.17989 3.78203
729 4 8.35627 6.50444 11.4645
730 5 18.3556 10.0002 4.37148
731 3 6.31388 12.2735 18.4112
732 3 13.7802 7.16544 3.33224
733 5 18.3223 4.69088 11.5173
734 3 20.4183 11.3194 1.33777
735 3 0.127418 6.51265 3.75667
736 3 6.76089 13.0702 10.9104
737 3 10.0811 7.36241 11.0896
738 3 1.45996 1.35184 17.1991
739 5 2.78176 5.76019 20.7386
740 3 9.22423 9.09499 14.7674
741 4 18.7859 1.51261 18.2705
742 3 8.61138 1.44872 16.928
743 5 9.51286 0.989919 0.455444
744 5 18.5276 9.21837 7.21319
745 4 9.9247 0.441347 5.33904
746 3 2.41967 19.3343 7.05044
747 3 3.78964 14.9585 14.8058
748 3 2.11743 6.50257 10.5079
749 5 19.145 19.8149 10.1005
750 5 20.157 2.84513 18.2585
751 4 15.6934 13.9862 0.629916
752 7 1.05124 12.838 18.5212
753 4 7.02353 20.6767 0.00946636
754 3 0.54697 8.06002 11.9639
755 3 9.52862 3.42774 1.36745
756 4 9.04622 9.99066 9.84447
757 5 20.1609 6.98727 8.89031
758 3 9.80445 5.09337 1.72929
759 5 11.0094 17.7852 7.63745
760 3 20.368 16.8095 2.79243
761 3 13.2451 2.44686 10.5218
762 4 0.900113 5.00131 14.8462
763 4 0.747768 6.66187 10.6595
764 5 1.61292 9.11372 15.2104
765 5 16.2913 16.3608 6.60234
766 5 18.9041 12.2337 0.470429
767 5 21.336 13.5369 9.5635
768 4 20.7602 6.43944 13.0747
769 4 2.25011 10.4942 11.1529
770 5 8.20542 20.4806 9.49192
771 4 11.4382 5.49039 4.06119
772 5 14.2044 2.52356 0.12255
773 3 1.2687 1.88077 0.755591
774 4 13.0021 7.6862 17.5232
775 4 14.3073 0.681795 4.40289
776 2 2.18999 12.4511 12.9551
777 4 3.31107 11.603 7.19806
778 4 10.4859 12.3022 9.66636
779 3 0.734624 8.49251 18.3011
780 3 1.55579 17.6596 9.88278
781 5 15.0419 19.5666 21.4935
782 2 13.3043 9.11353 19.1794
783 3 11.995 4.22826 11.634
784 3 15.476 17.2941 12.1993
785 4 16.6177 12.849 12.3841
786 5 17.379 20.2123 16.2027
787 3 16.2683 1.59495 5.68803
788 3 19.1482 20.2639 13.7316
789 4 15.8096 19.2026 12.9389
790 4 16.8505 5.36619 8.36792
791 5 2.09467 10.9545 7.77439
792 4 8.80415 19.6385 11.2804
793 4 15.5033 10.8668 21.2683
794 4 3.47078 12.9236 3.79721
795 3 16.2915 20.3869 8.29788
796 4 6.89492 14.4876 15.1513
797 4 21.4199 17.7842 4.55327
798 5 2.50318 0.962137 11.7687
799 3 13.7743 18.52 7.53172
800 5 13.5512 9.03981 14.1314
801 4 14.9763 15.6031 18.5248
802 5 19.5108 13.1749 17.7709
803 2 20.1989 19.1015 9.49717
804 3 0.448949 3.06841 5.48308
805 5 12.7321 12.9599 7.49448
806 4 13.6695 1.52097 3.86698
807 3 15.6321 0.430717 21.4438
808 4 0.800517 18.9084 1.00467
809 3 5.72429 13.6467 19.4441
810 3 3.34235 20.6434 11.4579
811 3 19.4814 16.2097 14.2991
812 5 3.65631 13.8212 6.93795
813 4 8.21228 12.3238 8.0745
814 3 1.96793 10.7286 10.4801
815 4 19.4851 16.438 0.710908
816 3 8.84948 10.6109 20.6333
817 7 21.4243 10.1103 13.0523
818 3 7.72409 13.1782 18.1529
819 5 15.654 10.2297 11.7367
820 4 11.1067 16.9412 8.91658
821 4 20.7014 4.86022 21.2558
822 5 20.7737 9.70413 4.19094
823 3 14.459 6.89693 10.5515
824 3 11.8869 7.7218 10.0084
825 3 19.2445 4.7701 9.35213
826 4 12.6887 16.774 0.992507
827 5 9.86674 16.7541 4.38243
828 5 2.04265 6.9397 5.15576
829 5 1.70693 16.3692 9.3648
830 4 13.1069 4.64801 1.08206
831 6 0.0911694 4.41215 12.229
832 5 0.453548 2.6074 3.82872
833 4 20.9075 9.94213 4.00875
834 4 19.7928 13.6725 6.81307
835 5 3.45499 12.056 19.0634
836 3 8.03615 6.38023 17.7426
837 5 1.70274 3.28067 4.61324
838 2 7.28799 15.001 8.23058
839 4 9.87193 15.8993 11.0618
840 6 18.2948 5.22164 0.987534
841 6 17.9485 14.8071 12.427
842 5 9.1656 0.534605 16.9546
843 5 13.23 21.2487 5.20803
844 4 8.13484 4.82781 10.7382
845 4 14.1271 12.9474 14.4851
846 4 21.5319 1.1971 7.30871
847 5 6.33823 21.4143 0.118263
848 3 14.165 10.4257 6.3801
849 4 17.6406 16.1572 15.5539
850 5 13.4261 3.88558 9.40282
851 5 9.85377 20.8521 20.7939
852 4 8.73053 10.4181 4.676
853 2 9.12351 9.8832 18.384
854 5 7.05159 9.64309 2.81467
855 3 1.50657 4.6763 19.308
856 5 0.23142 10.2561 13.2117
857 4 11.168 20.8141 1.51974
858 4 15.4149 18.5438 3.57854
859 4 3.43865 3.5382 7.55983
860 4 18.2357 2.2289 19.3979
861 3 5.30189 13.5554 16.6333
862 5 0.292802 0.878178 21.2965
863 5 12.2986 12.1905 6.4095
864 5 8.18513 1.68226 19.9646
865 3 5.55118 17.6594 9.64188
866 5 0.0466737 3.23733 5.38279
867 3 16.4332 21.4206 20.1145
868 3 0.311175 2.6976 15.6983
869 5 17.2751 8.48496 8.95397
870 5 13.9152 12.0002 4.73212
871 3 13.1484 11.4583 20.3768
872 3 11.1885 7.59544 4.00198
873 4 4.4006 6.96099 21.2971
874 5 18.548 1.17782 1.28308
875 3 9.89325 18.4423 6.43255
876 4 3.22143 9.48482 20.7479
877 3 16.2967 15.7939 12.2265
878 4 14.1851 3.29573 0.359594
879 4 10.9597 18.1455 0.74837
880 4 2.23348 16.7807 21.4125
881 4 11.5754 4.72809 15.1828
882 4 16.4617 7.28054 10.133
883 4 4.50377 8.8681 18.2242
884 3 7.31107 6.99893 7.5913
885 5 20.8333 6.26525 12.6795
886 5 16.5491 15.6612 2.27998
887 3 14.9419 21.3332 3.53494
888 3 7.49962 18.951 0.339289
889 5 5.02391 8.40551 1.29651
890 4 10.406 10.7443 5.75948
891 3 20.1804 6.63529 12.8422
892 4 3.92009 15.5332 20.1446
893 2 3.40565 19.5209 14.0221
894 5 3.8571 14.5642 6.57961
895 5 16.6456 13.0027 2.88798
896 4 6.16692 3.26888 6.60294
897 3 3.17717 4.54541 12.5954
898 4 14.0921 2.48483 8.67528
899 4 14.6872 4.25833 1.38051
900 5 16.6903 11.9949 20.802
901 3 19.5724 18.6691 10.289
902 2 6.09052 3.47004 9.84713
903 3 20.7427 18.7529 8.2187
904 2 14.9853 2.73056 20.8688
905 4 13.1016 11.6137 15.2924
906 4 19.9549 4.80972 4.32754
907 4 13.1282 14.2754 15.654
908 4 0.179069 16.0914 5.94253
909 2 13.532 8.62325 11.4912
910 4 17.7529 8.56476 9.13226
911 5 13.326 8.94019 1.20288
912 3 16.4494 9.93524 12.0786
913 3 9.69117 13.5275 17.1016
914 4 9.26952 16.1122 17.2705
915 4 17.5189 16.2565 7.6883
916 3 16.3811 17.1459 1.73042
917 3 14.5786 11.1824 7.7005
918 5 6.47342 9.67266 6.72819
919 5 20.2965 19.6396 21.2225
920 3 18.5583 3.76379 5.46769
921 3 20.7753 17.5219 0.813548
922 5 7.06227 5.37454 13.7724
923 3 0.526 3.83705 4.78066
924 6 5.16035 8.59851 5.13225
925 4 8.60334 2.73139 13.2655
926 6 8.36156 8.67326 13.1597
927 4 13.0995 8.19468 16.87
928 4 14.3528 12.3672 0.871554
929 3 10.4702 9.57 16.5222
930 4 10.3938 16.6026 2.88471
931 4 11.2093 13.7816 17.4714
932 3 5.09931 9.42154 16.2008
933 2 14.7778 19.4725 20.6005
934 2 9.53218 18.8216 10.1321
935 5 7.28065 12.4531 0.274461
936 4 19.1279 11.4436 9.56824
937 5 13.1352 19.6304 17.9128
938 4 7.91058 0.998442 0.262131
939 5 9.28346 3.43447 7.70785
940 4 13.252 8.87637 13.4302
941 4 12.7084 20.1476 5.60917
942 3 10.5225 3.97992 14.1707
943 4 9.25762 18.3284 15.0407
944 4 11.761 13.1065 1.9245
945 4 14.761 13.7389 5.80031
946 3 18.5267 10.2733 13.8643
947 5 7.14934 10.695 17.9555
948 4 8.58128 6.88998 5.34963
949 4 6.01009 6.96084 1.96734
950 6 1.21129 7.84299 19.4071
951 3 9.97057 17.1035 8.77626
952 4 2.67404 7.64183 16.4237
953 3 21.1151 4.65014 10.4888
954 6 11.3316 4.37921 11.7021
955 2 17.4818 8.16268 16.3949
956 3 5.07664 5.05752 16.1842
957 6 13.1892 17.4719 2.56183
958 5 7.19637 12.5531 14.3678
959 3 5.69904 7.19218 5.31592
960 6 12.7948 13.3831 4.65857
961 5 9.58196 11.7658 13.1451
962 5 8.21437 1.02844 5.87621
963 4 9.9663 7.47195 15.1168
964 5 5.23298 15.6554 5.74902
965 4 4.04803 16.5098 5.41379
966 3 14.9682 3.26434 5.60672
967 5 12.2079 14.7814 7.8345
968 4 16.2087 7.81131 5.41455
969 5 17.0706 14.9287 16.4041
970 2 4.21621 6.03714 8.42294
971 4 18.1268 3.61333 11.1839
972 4 21.2069 12.7847 21.076
973 4 4.40832 20.8845 3.33966
974 5 16.583 19.2375 1.55521
975 4 2.50021 16.027 15.2607
976 4 0.950087 9.11154 14.7357