LAMMPS Description

50 atoms

1 atom types
0 3.968503 xlo xhi
0 3.968503 ylo yhi
0 3.968503 zlo zhi


Atoms # sphere

1 1 1 2.35 2.87215 1.83132 2.76672
2 1 1 2.35 0.912629 0.0238742 2.61927
3 1 1 2.35 3.37573 3.96276 1.49781
4 1 1 2.35 3.59151 0.511397 1.57529
5 1 1 2.35 1.49983 2.11211 0.456135
6 1 1 2.35 2.92157 0.374529 1.02943
7 1 1 2.35 0.941824 1.14531 3.5672
8 1 1 2.35 2.65151 3.6184 1.07518
9 1 1 2.35 2.31847 1.31882 0.0457059
10 1 1 2.35 3.72025 3.54192 0.693424
11 1 1 2.35 2.37855 2.48308 0.354877
12 1 1 2.35 2.02153 1.44089 1.87035
13 1 1 2.35 0.114174 2.00801 0.100474
14 1 1 2.35 2.51274 2.65978 2.98356
15 1 1 2.35 3.2193 0.072708 0.415924
16 1 1 2.35 1.45221 3.18249 1.29616
17 1 1 2.35 0.448407 2.65726 3.66132
18 1 1 2.35 1.78767 0.0817825 3.91369
19 1 1 2.35 0.645461 1.69668 1.97119
20 1 1 2.35 3.52693 3.24334 1.06962
21 1 1 2.35 2.8405 0.139618 1.71875
22 1 1 2.35 1.19902 1.3807 0.145576
23 1 1 2.35 1.94553 3.89262 0.731423
24 1 1 2.35 0.315016 3.40554 2.12717
25 1 1 2.35 2.67669 0.462016 1.20206
26 1 1 2.35 3.71185 3.09972 0.446673
27 1 1 2.35 1.88263 2.08251 1.60754
28 1 1 2.35 0.115537 3.08607 2.46777
29 1 1 2.35 1.6172 2.02187 0.64323
30 1 1 2.35 0.587151 1.15625 0.035842
31 1 1 2.35 3.6009 1.77519 0.734585
32 1 1 2.35 3.06064 0.733718 0.190923
33 1 1 2.35 0.999132 0.781621 0.997321
34 1 1 2.35 0.021195 1.13953 1.0948
35 1 1 2.35 0.34084 1.53186 0.573587
36 1 1 2.35 1.44089 2.02367 3.79948
37 1 1 2.35 0.348644 0.107371 3.24049
38 1 1 2.35 0.803233 2.25926 1.33696
39 1 1 2.35 2.81764 1.20144 2.94399
40 1 1 2.35 0.677006 2.11921 1.85275
41 1 1 2.35 3.01981 0.795012 1.22668
42 1 1 2.35 1.12743 1.15126 0.53988
43 1 1 2.35 2.49813 0.570296 2.22302
44 1 1 2.35 2.74911 0.247863 3.80499
45 1 1 2.35 3.69023 1.15838 1.43097
46 1 1 2.35 3.7452 1.9656 2.89015
47 1 1 2.35 3.06382 2.12694 2.5385
48 1 1 2.35 0.682326 1.53248 2.30607
49 1 1 2.35 3.46935 2.24727 0.316579
50 1 1 2.35 3.49326 3.34554 0.643024
