ITEM: TIMESTEP
920000
ITEM: NUMBER OF ATOMS
50
ITEM: BOX BOUNDS xy xz yz pp pp pp
0.0000000000000000e+00 3.9685030000000001e+00 0.0000000000000000e+00
0.0000000000000000e+00 3.9685030000000001e+00 0.0000000000000000e+00
0.0000000000000000e+00 3.9685030000000001e+00 0.0000000000000000e+00
ITEM: ATOMS id x y z radius
1 1.9822 0.518709 2.87354 0.5
2 2.1463 2.91819 1.34573 0.5
3 2.97557 1.9447 1.37687 0.5
4 3.85274 0.535435 3.89038 0.5
5 2.95301 0.654599 3.21252 0.5
6 0.113331 2.01752 1.64225 0.5
7 2.26251 2.22793 1.48876 0.5
8 1.88254 3.45044 3.78907 0.5
9 0.281963 2.81487 0.181759 0.5
10 0.0735556 1.53055 2.5927 0.5
11 3.93008 1.88075 0.234829 0.5
12 0.377828 3.86753 3.24819 0.5
13 2.8433 2.89071 3.27639 0.5
14 1.17741 0.740379 3.49589 0.5
15 1.82616 2.58224 0.534844 0.5
16 3.75084 3.45479 2.04339 0.5
17 2.50799 3.28976 1.97862 0.5
18 0.504869 3.39763 1.00511 0.5
19 3.81515 2.49951 2.38715 0.5
20 0.591867 3.71258 0.129939 0.5
21 1.84208 1.83471 2.68348 0.5
22 1.00434 2.71627 3.01337 0.5
23 2.48971 1.4701 3.84994 0.5
24 0.113351 2.59858 1.14337 0.5
25 2.53679 0.517058 0.0300065 0.5
26 1.16559 2.55546 1.20504 0.5
27 0.693627 1.57074 3.49561 0.5
28 1.48122 0.0803204 3.35075 0.5
29 1.20702 0.188098 0.274667 0.5
30 3.68871 2.23844 3.48858 0.5
31 0.279771 1.30576 0.863896 0.5
32 3.2813 0.804646 0.519573 0.5
33 3.70777 3.07875 3.32411 0.5
34 1.3661 1.92328 3.83896 0.5
35 3.86573 0.345901 0.683028 0.5
36 0.966398 1.44162 2.72131 0.5
37 0.906947 1.46555 1.80817 0.5
38 3.0848 3.69603 3.84237 0.5
39 2.94635 3.25265 1.16289 0.5
40 1.76443 1.85571 0.605343 0.5
41 2.31623 1.13814 0.712268 0.5
42 0.874627 0.3722 2.77047 0.5
43 2.05744 0.399356 1.22089 0.5
44 3.63337 3.51166 0.358843 0.5
45 1.32187 1.01723 0.806561 0.5
46 2.7176 3.83784 2.70415 0.5
47 2.70884 2.66373 0.144641 0.5
48 3.36392 1.11182 1.2612 0.5
49 1.41061 3.3397 0.779289 0.5
50 2.80663 0.152233 1.25739 0.5
