ITEM: TIMESTEP
910000
ITEM: NUMBER OF ATOMS
50
ITEM: BOX BOUNDS xy xz yz pp pp pp
0.0000000000000000e+00 3.9685030000000001e+00 0.0000000000000000e+00
0.0000000000000000e+00 3.9685030000000001e+00 0.0000000000000000e+00
0.0000000000000000e+00 3.9685030000000001e+00 0.0000000000000000e+00
ITEM: ATOMS id x y z radius
1 2.1748 2.44823 2.14985 0.5
2 1.07952 0.393161 2.70308 0.5
3 0.167451 3.91117 0.479178 0.5
4 1.06995 1.04334 0.124194 0.5
5 0.292416 1.98816 2.10254 0.5
6 0.599463 2.80245 -0.00435951 0.5
7 0.860012 3.61417 2.52138 0.5
8 1.85722 1.40718 3.3162 0.5
9 2.11174 0.28235 1.14425 0.5
10 1.73821 3.81004 2.58468 0.5
11 0.553437 3.66652 3.33655 0.5
12 1.13168 3.8753 0.228459 0.5
13 2.4491 1.82079 3.9114 0.5
14 0.85763 1.57778 2.94061 0.5
15 1.4859 3.29475 3.61457 0.5
16 3.35895 1.78834 2.13243 0.5
17 3.58829 0.0133568 1.59165 0.5
18 0.186031 0.894952 2.56093 0.5
19 0.63198 0.472386 3.22768 0.5
20 2.18776 3.33255 0.131429 0.5
21 3.79418 1.14998 0.939151 0.5
22 0.631561 1.86343 1.09551 0.5
23 3.67762 2.77692 2.93974 0.5
24 3.65357 3.82898 2.86155 0.5
25 3.70939 2.63068 0.479979 0.5
26 3.69912 1.88751 2.87237 0.5
27 1.63063 0.749377 2.81924 0.5
28 -0.0836048 2.09435 1.30447 0.5
29 1.37329 2.14066 2.42938 0.5
30 0.229773 1.73777 0.353301 0.5
31 2.81479 1.15154 0.466175 0.5
32 2.98249 0.417691 0.964903 0.5
33 3.49527 3.18071 3.49824 0.5
34 0.836758 1.3263 2.08854 0.5
35 2.50599 3.16105 0.954634 0.5
36 1.86172 1.2632 0.741788 0.5
37 3.86266 1.2959 1.64564 0.5
38 0.784421 3.88578 1.07887 0.5
39 1.48929 1.30396 1.72879 0.5
40 1.02725 0.648016 1.54948 0.5
41 3.0973 2.01792 0.468123 0.5
42 3.08305 1.48346 3.72487 0.5
43 0.616275 3.014 1.15791 0.5
44 2.74491 0.809722 1.75952 0.5
45 0.420555 2.16061 3.50391 0.5
46 2.43324 3.57997 3.32406 0.5
47 3.12663 2.37281 3.46689 0.5
48 2.67069 0.694498 3.81637 0.5
49 1.90299 0.505148 0.174959 0.5
50 1.062 1.84348 3.61158 0.5
