ITEM: TIMESTEP
440000
ITEM: NUMBER OF ATOMS
50
ITEM: BOX BOUNDS xy xz yz pp pp pp
0.0000000000000000e+00 3.9685030000000001e+00 0.0000000000000000e+00
0.0000000000000000e+00 3.9685030000000001e+00 0.0000000000000000e+00
0.0000000000000000e+00 3.9685030000000001e+00 0.0000000000000000e+00
ITEM: ATOMS id x y z radius
1 2.41446 1.88488 0.639488 0.5
2 2.58198 3.09643 0.943739 0.5
3 3.80504 2.37948 0.975493 0.5
4 2.74617 1.68171 3.64577 0.5
5 3.81442 0.621908 0.0725409 0.5
6 0.851144 0.179097 1.04858 0.5
7 2.61913 1.8466 1.58071 0.5
8 0.295992 1.82197 0.648425 0.5
9 0.94257 2.18675 3.65679 0.5
10 2.34122 3.95802 0.2718 0.5
11 3.47331 3.69551 2.75884 0.5
12 2.83473 3.24361 1.87657 0.5
13 2.87774 2.47379 0.403445 0.5
14 3.64463 0.654653 1.48745 0.5
15 1.2015 1.12845 1.19631 0.5
16 0.264061 3.93642 3.02072 0.5
17 3.12677 3.79393 3.66922 0.5
18 1.43149 3.24987 3.26887 0.5
19 2.17869 3.04402 2.51348 0.5
20 2.95206 2.70821 2.74064 0.5
21 2.15174 2.13972 2.58052 0.5
22 2.31083 2.89151 1.66589 0.5
23 2.08737 1.24249 1.27646 0.5
24 0.6786 2.99822 1.6583 0.5
25 3.57182 1.40488 2.40749 0.5
26 2.89591 1.10448 1.09819 0.5
27 3.26591 0.523418 0.359952 0.5
28 1.98564 0.657969 0.184986 0.5
29 2.16641 0.266568 3.53743 0.5
30 1.83259 0.291193 1.21515 0.5
31 2.2797 2.83507 3.46297 0.5
32 3.47643 2.55256 1.84265 0.5
33 2.54604 0.520851 1.79482 0.5
34 0.0590508 0.841613 3.12893 0.5
35 1.23427 1.76308 2.3768 0.5
36 3.70371 3.47583 0.93844 0.5
37 1.06367 0.358584 2.9191 0.5
38 0.424198 1.33623 2.11292 0.5
39 3.5612 1.68061 1.39403 0.5
40 0.645976 3.78281 3.94051 0.5
41 1.70927 2.26954 1.55851 0.5
42 0.177345 1.86371 3.54192 0.5
43 0.783066 0.0748315 2.20337 0.5
44 3.34466 2.63865 3.72103 0.5
45 0.544832 1.24678 3.76397 0.5
46 1.48679 3.50135 2.24583 0.5
47 1.03918 0.823841 0.298088 0.5
48 1.86652 1.09585 2.04206 0.5
49 2.69357 0.142895 2.69765 0.5
50 3.43745 1.53348 0.229762 0.5
