ITEM: TIMESTEP
300000
ITEM: NUMBER OF ATOMS
50
ITEM: BOX BOUNDS xy xz yz pp pp pp
0.0000000000000000e+00 3.9685030000000001e+00 0.0000000000000000e+00
0.0000000000000000e+00 3.9685030000000001e+00 0.0000000000000000e+00
0.0000000000000000e+00 3.9685030000000001e+00 0.0000000000000000e+00
ITEM: ATOMS id x y z radius
1 3.88391 3.39748 0.0326454 0.5
2 1.90484 3.75878 3.81741 0.5
3 1.33129 0.231419 2.42667 0.5
4 2.79143 3.95387 3.55759 0.5
5 2.30574 0.250696 2.67231 0.5
6 2.90678 0.884283 3.8475 0.5
7 2.6612 3.29128 2.75431 0.5
8 0.657037 0.21157 3.3174 0.5
9 0.874324 3.82195 0.345771 0.5
10 0.640755 0.807912 1.1892 0.5
11 2.8674 2.34051 3.64637 0.5
12 1.55603 3.00851 2.5127 0.5
13 2.1902 2.80793 1.88168 0.5
14 0.581296 1.42754 0.249042 0.5
15 1.98735 3.51191 1.2304 0.5
16 2.50304 3.28473 0.186619 0.5
17 2.5422 1.1778 0.366792 0.5
18 3.59761 1.40534 0.16787 0.5
19 1.24304 1.58954 0.942001 0.5
20 0.0486886 4.01662 2.11888 0.5
21 1.82031 2.66089 3.66873 0.5
22 3.27472 1.68571 3.06602 0.5
23 0.536779 2.4956 2.19627 0.5
24 3.87932 0.477287 0.70974 0.5
25 3.10291 2.03585 0.658359 0.5
26 1.14079 3.23809 0.924333 0.5
27 1.5229 1.85641 1.74841 0.5
28 0.705193 3.45669 1.67027 0.5
29 0.868567 2.23357 0.459832 0.5
30 1.5995 2.44699 1.05602 0.5
31 0.498112 1.75794 2.63601 0.5
32 3.98718 0.656317 0.0532343 0.5
33 3.30032 0.0837527 3.03663 0.5
34 2.82409 0.180532 0.775978 0.5
35 1.27469 0.277917 1.20904 0.5
36 0.232553 2.1296 3.46904 0.5
37 3.46982 2.92249 1.81095 0.5
38 0.429965 0.882715 2.71374 0.5
39 3.80096 3.44827 1.06905 0.5
40 3.10418 2.02295 1.99287 0.5
41 1.12198 0.862946 3.47144 0.5
42 1.43901 3.1328 0.319723 0.5
43 1.92398 1.54243 3.67177 0.5
44 1.34627 2.18277 2.79154 0.5
45 0.536386 0.894988 1.87168 0.5
46 0.210482 2.77957 0.800873 0.5
47 0.968362 3.28654 3.23007 0.5
48 3.74364 2.57492 2.59078 0.5
49 2.91664 3.61328 1.90143 0.5
50 2.83006 0.381412 1.81116 0.5
