ITEM: TIMESTEP
170000
ITEM: NUMBER OF ATOMS
50
ITEM: BOX BOUNDS xy xz yz pp pp pp
0.0000000000000000e+00 3.9685030000000001e+00 0.0000000000000000e+00
0.0000000000000000e+00 3.9685030000000001e+00 0.0000000000000000e+00
0.0000000000000000e+00 3.9685030000000001e+00 0.0000000000000000e+00
ITEM: ATOMS id x y z radius
1 2.47618 3.38019 1.28211 0.5
2 3.36105 2.21787 0.554931 0.5
3 1.04909 0.137569 2.96435 0.5
4 0.742699 3.9148 3.93376 0.5
5 2.62246 2.51281 1.8978 0.5
6 1.42462 0.698084 2.26069 0.5
7 1.2392 2.39927 2.53138 0.5
8 2.38851 1.90671 0.199631 0.5
9 2.3779 3.32763 2.38069 0.5
10 0.0433285 3.10821 1.74114 0.5
11 1.70167 3.54701 2.56752 0.5
12 0.258685 3.00761 0.556082 0.5
13 1.72291 2.47495 1.33852 0.5
14 0.0491994 3.85396 1.25974 0.5
15 2.2945 0.279047 1.90424 0.5
16 3.04907 2.71851 1.40516 0.5
17 2.84509 2.70511 0.488272 0.5
18 2.12356 0.859674 3.78508 0.5
19 1.1375 3.14359 1.93512 0.5
20 0.522238 3.1428 3.33288 0.5
21 3.8634 1.52264 2.62836 0.5
22 1.81064 0.959157 3.02621 0.5
23 3.94707 0.435203 0.366989 0.5
24 0.936745 1.08031 3.11988 0.5
25 1.31926 1.10344 0.814216 0.5
26 1.37078 1.92522 0.44811 0.5
27 2.48433 2.57754 2.59211 0.5
28 2.0218 3.4054 0.603671 0.5
29 0.657838 1.42936 1.48241 0.5
30 3.2065 3.76385 0.31231 0.5
31 2.66626 0.174873 3.52713 0.5
32 1.11809 1.97753 3.34465 0.5
33 0.753415 2.36117 1.49834 0.5
34 3.31586 1.77644 3.65531 0.5
35 2.64331 1.91007 0.993314 0.5
36 0.0212115 2.44451 2.02356 0.5
37 2.19089 2.97791 3.25581 0.5
38 1.63561 1.84322 2.1747 0.5
39 3.12238 3.72786 1.78057 0.5
40 2.74174 0.236128 0.93188 0.5
41 0.307087 1.10495 0.77167 0.5
42 3.81918 2.55734 3.75238 0.5
43 1.11773 0.846978 3.89014 0.5
44 3.36042 3.2525 0.986048 0.5
45 2.16899 1.83252 2.62627 0.5
46 3.94757 3.51744 0.0345362 0.5
47 2.67876 3.23431 3.84854 0.5
48 1.29857 3.62882 1.1372 0.5
49 1.93093 0.748447 0.957095 0.5
50 1.59802 3.62735 3.71416 0.5
