ITEM: TIMESTEP
740000
ITEM: NUMBER OF ATOMS
50
ITEM: BOX BOUNDS xy xz yz pp pp pp
0.0000000000000000e+00 3.9685030000000001e+00 0.0000000000000000e+00
0.0000000000000000e+00 3.9685030000000001e+00 0.0000000000000000e+00
0.0000000000000000e+00 3.9685030000000001e+00 0.0000000000000000e+00
ITEM: ATOMS id x y z radius
1 0.22801 1.10974 3.23293 0.5
2 2.02395 3.50406 0.303662 0.5
3 3.89445 3.21037 2.33483 0.5
4 3.22747 1.03346 0.550847 0.5
5 2.03372 3.6034 3.49869 0.5
6 2.54317 2.36077 1.13825 0.5
7 3.18686 0.938588 1.99695 0.5
8 1.15849 1.79066 2.66089 0.5
9 1.8047 0.319997 2.83402 0.5
10 1.94844 0.75112 1.27854 0.5
11 1.0687 2.55847 2.17963 0.5
12 3.44562 3.85854 2.00999 0.5
13 3.51109 2.71695 3.88002 0.5
14 2.70806 3.43486 1.71703 0.5
15 1.85779 1.95638 0.705968 0.5
16 0.433854 2.92984 0.408304 0.5
17 1.35156 0.238671 3.91807 0.5
18 3.51831 2.76391 0.480327 0.5
19 1.09749 1.61983 0.163799 0.5
20 0.422243 2.94478 1.4458 0.5
21 0.656068 0.629253 3.85122 0.5
22 0.163822 1.20935 0.264604 0.5
23 2.19057 2.58642 3.74117 0.5
24 0.361081 3.96444 1.77992 0.5
25 0.879981 3.35182 1.9308 0.5
26 3.4483 2.5483 1.26374 0.5
27 3.43708 0.540382 3.5464 0.5
28 2.57445 1.59537 3.91592 0.5
29 1.77173 1.13734 0.423583 0.5
30 2.1065 3.15759 1.28423 0.5
31 0.235266 2.03855 1.48624 0.5
32 1.31943 1.62898 1.57045 0.5
33 0.572399 0.963543 1.64825 0.5
34 0.620167 3.26195 2.72091 0.5
35 3.926 3.75237 0.128677 0.5
36 2.5 3.548 2.74878 0.5
37 2.56519 0.657789 3.24551 0.5
38 1.21435 0.373967 1.16936 0.5
39 3.61695 1.47583 1.9995 0.5
40 0.0264659 0.666952 2.42801 0.5
41 3.75984 3.48747 1.09822 0.5
42 3.37011 1.35168 3.66363 0.5
43 0.884358 0.331433 2.48219 0.5
44 0.684621 2.33649 3.0029 0.5
45 3.63901 1.99521 0.677856 0.5
46 1.06657 3.59033 0.795196 0.5
47 3.04509 0.274609 0.260553 0.5
48 1.78787 0.988979 3.41227 0.5
49 1.84054 2.77096 3.05023 0.5
50 1.75607 3.52115 2.28776 0.5
