ITEM: TIMESTEP
240000
ITEM: NUMBER OF ATOMS
50
ITEM: BOX BOUNDS xy xz yz pp pp pp
0.0000000000000000e+00 3.9685030000000001e+00 0.0000000000000000e+00
0.0000000000000000e+00 3.9685030000000001e+00 0.0000000000000000e+00
0.0000000000000000e+00 3.9685030000000001e+00 0.0000000000000000e+00
ITEM: ATOMS id x y z radius
1 0.196733 2.00125 0.17192 0.5
2 3.46978 1.12563 0.961555 0.5
3 1.74891 0.863298 2.01898 0.5
4 2.10144 0.23202 0.530688 0.5
5 2.19879 3.54533 3.25817 0.5
6 0.747161 3.26564 2.47418 0.5
7 2.27157 1.54743 3.30736 0.5
8 1.96163 0.288428 2.64037 0.5
9 3.52703 2.84734 0.197684 0.5
10 2.99634 3.34527 0.488926 0.5
11 3.53548 3.731 2.50032 0.5
12 3.04493 0.971974 3.35725 0.5
13 0.907834 0.71614 1.38875 0.5
14 1.68911 3.60118 0.285015 0.5
15 0.947087 0.496971 2.78925 0.5
16 1.83501 2.80838 0.181662 0.5
17 1.29047 1.05003 0.272206 0.5
18 3.86858 3.08701 2.03738 0.5
19 3.66517 1.98705 2.09049 0.5
20 0.948128 2.84458 -0.00172759 0.5
21 0.580941 0.418639 0.0351611 0.5
22 3.94944 1.873 0.998949 0.5
23 3.15234 1.53297 0.419201 0.5
24 2.80128 0.60346 2.22149 0.5
25 2.37708 1.2416 0.705139 0.5
26 2.3822 2.29407 3.53565 0.5
27 2.4393 3.43462 1.22825 0.5
28 0.849398 3.77294 0.675784 0.5
29 3.47247 0.179891 3.6771 0.5
30 3.36031 0.693514 1.69309 0.5
31 3.62644 0.404052 0.372176 0.5
32 2.65418 1.47006 1.81206 0.5
33 1.0207 1.47809 0.837611 0.5
34 3.33908 1.34126 2.66979 0.5
35 1.28457 3.85256 1.30876 0.5
36 2.00851 1.99751 2.58644 0.5
37 2.49564 0.564967 1.1731 0.5
38 2.06276 2.52397 1.19153 0.5
39 3.06178 2.51591 3.41562 0.5
40 0.147479 3.59895 3.79922 0.5
41 3.05737 0.523015 0.269713 0.5
42 1.50543 0.592803 0.886238 0.5
43 3.81763 3.52018 0.899695 0.5
44 1.03634 3.65698 3.50322 0.5
45 0.578265 2.90459 1.23044 0.5
46 0.00760239 1.40697 3.4023 0.5
47 1.39909 3.02778 0.919569 0.5
48 2.01525 1.97736 0.531706 0.5
49 1.94798 0.417095 3.48616 0.5
50 0.0388228 1.26911 2.30703 0.5
