ITEM: TIMESTEP
570000
ITEM: NUMBER OF ATOMS
50
ITEM: BOX BOUNDS xy xz yz pp pp pp
0.0000000000000000e+00 3.9685030000000001e+00 0.0000000000000000e+00
0.0000000000000000e+00 3.9685030000000001e+00 0.0000000000000000e+00
0.0000000000000000e+00 3.9685030000000001e+00 0.0000000000000000e+00
ITEM: ATOMS id x y z radius
1 3.26415 1.93806 2.11669 0.5
2 0.26765 0.463919 1.40904 0.5
3 1.2984 3.62539 2.76803 0.5
4 2.67375 0.541759 1.75847 0.5
5 1.51635 2.02312 3.94313 0.5
6 0.0258471 1.11349 2.87808 0.5
7 3.81642 3.87592 0.806446 0.5
8 0.45582 3.2585 3.57372 0.5
9 2.27377 0.844778 3.58466 0.5
10 0.124961 2.47308 1.55185 0.5
11 1.00571 3.56219 1.25017 0.5
12 2.11153 3.22577 2.28192 0.5
13 3.26777 0.444612 2.67443 0.5
14 3.53549 1.74385 0.114328 0.5
15 1.19629 0.958137 2.81296 0.5
16 3.20391 2.52028 1.26534 0.5
17 1.75986 0.99294 1.22553 0.5
18 3.41682 1.05758 1.97228 0.5
19 2.67056 3.18335 3.19599 0.5
20 2.57926 1.47501 1.56483 0.5
21 3.61628 3.25696 3.65598 0.5
22 3.2598 3.26746 1.24075 0.5
23 3.79158 3.04837 0.688715 0.5
24 2.58173 2.01732 3.45587 0.5
25 2.53893 3.6399 1.34468 0.5
26 2.17569 2.49343 1.08733 0.5
27 1.62638 3.83229 0.581939 0.5
28 0.477425 0.0502246 2.80673 0.5
29 1.36503 3.10524 3.85872 0.5
30 1.31452 0.16298 1.82092 0.5
31 1.81429 0.319754 2.42783 0.5
32 0.993222 0.938985 0.85452 0.5
33 0.525141 1.83107 0.756179 0.5
34 0.71741 1.52933 1.47078 0.5
35 0.460194 3.52145 0.307793 0.5
36 0.232118 3.69993 1.91972 0.5
37 1.31612 2.19816 2.18915 0.5
38 0.769401 2.96942 2.11296 0.5
39 1.21671 2.58231 0.944045 0.5
40 2.84995 0.624706 0.251566 0.5
41 0.678216 1.8467 3.7117 0.5
42 1.82768 1.25633 1.88297 0.5
43 3.09606 0.911758 0.960686 0.5
44 1.58315 2.83545 2.64896 0.5
45 0.631498 0.176292 3.79611 0.5
46 1.64479 3.10868 1.49508 0.5
47 1.48956 1.01999 3.76408 0.5
48 0.0702514 1.93501 3.00664 0.5
49 0.426239 0.938263 3.95093 0.5
50 0.0246498 0.972874 0.843888 0.5
