ITEM: TIMESTEP
380000
ITEM: NUMBER OF ATOMS
50
ITEM: BOX BOUNDS xy xz yz pp pp pp
0.0000000000000000e+00 3.9685030000000001e+00 0.0000000000000000e+00
0.0000000000000000e+00 3.9685030000000001e+00 0.0000000000000000e+00
0.0000000000000000e+00 3.9685030000000001e+00 0.0000000000000000e+00
ITEM: ATOMS id x y z radius
1 3.73781 3.25183 2.52185 0.5
2 2.15867 2.37986 3.18917 0.5
3 3.66291 2.15179 3.33229 0.5
4 1.26876 1.93357 2.66646 0.5
5 0.158518 0.387422 3.36853 0.5
6 0.559178 0.895261 1.15398 0.5
7 2.90542 0.444095 0.015811 0.5
8 0.765746 3.15771 0.433366 0.5
9 3.66653 3.12188 0.675281 0.5
10 3.70684 0.207062 0.605466 0.5
11 3.53494 2.42833 0.257712 0.5
12 0.175858 1.37587 2.68512 0.5
13 0.0723936 1.16811 0.563974 0.5
14 1.65678 3.5398 0.40086 0.5
15 0.918113 2.961 3.22935 0.5
16 2.27723 2.13287 0.0536046 0.5
17 1.13916 1.60262 0.491998 0.5
18 0.886436 1.83658 1.67027 0.5
19 2.46111 2.73039 0.28951 0.5
20 2.99145 3.56296 1.19229 0.5
21 0.54511 0.266243 0.253079 0.5
22 2.17423 2.05104 0.9009 0.5
23 3.95605 2.77317 3.48774 0.5
24 2.39482 0.528866 0.794065 0.5
25 2.8168 0.675344 2.87808 0.5
26 3.48797 2.34593 1.15375 0.5
27 3.48444 3.5867 3.91929 0.5
28 0.172421 2.39275 2.08877 0.5
29 3.81638 1.40438 1.34043 0.5
30 2.75705 1.22851 1.0968 0.5
31 2.75849 1.63816 3.38708 0.5
32 0.050172 3.11263 1.79904 0.5
33 0.972299 3.58485 1.90819 0.5
34 2.06811 2.89238 2.20796 0.5
35 2.76262 2.7549 2.73772 0.5
36 3.22444 1.21113 0.473152 0.5
37 1.19763 0.725616 2.20975 0.5
38 1.61361 0.526167 3.00527 0.5
39 2.10702 1.32383 2.72683 0.5
40 1.79561 2.1097 1.69349 0.5
41 0.414943 2.10829 0.732695 0.5
42 0.87436 3.78799 2.72666 0.5
43 2.36693 2.68984 1.16601 0.5
44 1.39195 0.149867 1.16471 0.5
45 3.09663 2.73731 3.67188 0.5
46 1.4076 2.69496 0.659822 0.5
47 2.85948 1.96993 1.98359 0.5
48 1.60726 1.02892 0.801754 0.5
49 0.644061 2.79739 1.29577 0.5
50 3.93001 1.04657 3.64996 0.5
