ITEM: TIMESTEP
180000
ITEM: NUMBER OF ATOMS
50
ITEM: BOX BOUNDS xy xz yz pp pp pp
0.0000000000000000e+00 3.9685030000000001e+00 0.0000000000000000e+00
0.0000000000000000e+00 3.9685030000000001e+00 0.0000000000000000e+00
0.0000000000000000e+00 3.9685030000000001e+00 0.0000000000000000e+00
ITEM: ATOMS id x y z radius
1 1.60923 0.574207 0.0965044 0.5
2 3.73473 3.64227 3.18185 0.5
3 1.1228 3.87739 2.06609 0.5
4 3.3701 0.365908 3.34711 0.5
5 2.71139 0.439788 2.54426 0.5
6 1.9686 2.92016 2.27705 0.5
7 2.30396 1.04869 1.80735 0.5
8 0.85615 0.0458644 3.1361 0.5
9 2.2893 2.22886 3.45246 0.5
10 1.83814 3.40104 0.268277 0.5
11 3.13392 3.55066 0.928647 0.5
12 3.01103 2.39341 2.98398 0.5
13 2.40559 1.6319 2.88829 0.5
14 1.31782 2.11856 2.15783 0.5
15 1.02659 1.50097 0.315997 0.5
16 0.103211 0.273746 2.89719 0.5
17 1.64391 0.228931 2.77298 0.5
18 0.511575 3.11247 2.9507 0.5
19 3.00702 2.61229 0.518788 0.5
20 3.26335 1.76293 0.990579 0.5
21 2.67761 3.67269 3.67202 0.5
22 2.06874 1.52876 3.74207 0.5
23 3.77857 2.59568 1.77077 0.5
24 3.41385 0.877651 2.5425 0.5
25 0.0704397 1.07979 3.08201 0.5
26 3.10599 1.62631 2.11427 0.5
27 0.0865485 3.56049 2.20616 0.5
28 0.75308 1.73812 3.41219 0.5
29 0.0626571 1.4128 2.29737 0.5
30 1.24527 2.9293 0.741668 0.5
31 0.820222 1.25905 1.89484 0.5
32 1.53298 1.43365 3.04403 0.5
33 2.43996 1.60303 1.23379 0.5
34 2.71446 2.68521 2.13257 0.5
35 1.05587 3.48388 1.44208 0.5
36 0.890756 0.0337764 0.401264 0.5
37 3.85767 1.20486 0.635306 0.5
38 1.72209 1.82936 0.889862 0.5
39 3.46653 0.451142 1.1766 0.5
40 1.7068 2.64022 1.55998 0.5
41 0.511889 2.21258 0.442425 0.5
42 1.7784 1.60355 2.07294 0.5
43 3.92009 1.02099 1.66832 0.5
44 0.363195 3.15479 0.568276 0.5
45 3.06207 1.34595 3.17287 0.5
46 2.96477 0.600377 0.140063 0.5
47 3.4268 2.22308 3.83931 0.5
48 2.66518 3.9342 1.75559 0.5
49 3.22594 3.16554 2.16634 0.5
50 0.835537 0.80704 1.2171 0.5
