ITEM: TIMESTEP
100000
ITEM: NUMBER OF ATOMS
50
ITEM: BOX BOUNDS xy xz yz pp pp pp
0.0000000000000000e+00 3.9685030000000001e+00 0.0000000000000000e+00
0.0000000000000000e+00 3.9685030000000001e+00 0.0000000000000000e+00
0.0000000000000000e+00 3.9685030000000001e+00 0.0000000000000000e+00
ITEM: ATOMS id x y z radius
1 2.16369 3.61402 1.23131 0.5
2 3.84019 3.37451 3.86495 0.5
3 1.6057 2.92841 1.06822 0.5
4 0.484114 0.715074 1.10984 0.5
5 0.85253 0.610411 1.96743 0.5
6 3.13835 1.53401 3.02112 0.5
7 3.86499 2.25992 2.81802 0.5
8 2.33905 1.36981 2.70545 0.5
9 1.30577 2.8484 1.95996 0.5
10 1.02941 2.51102 3.55969 0.5
11 3.55834 0.0640371 2.58428 0.5
12 1.10621 2.24831 1.36817 0.5
13 0.604812 2.97905 1.19977 0.5
14 0.270075 2.44036 3.72465 0.5
15 2.71194 3.3867 2.55311 0.5
16 3.95878 1.13918 0.537816 0.5
17 2.32633 0.620656 1.1911 0.5
18 1.95627 0.622939 3.25457 0.5
19 1.32833 2.16914 0.278638 0.5
20 3.42257 2.8146 1.53658 0.5
21 3.41117 1.99712 0.884122 0.5
22 3.92802 0.74148 2.03344 0.5
23 1.55298 0.983169 2.07042 0.5
24 1.71255 3.63899 2.04133 0.5
25 0.755049 2.98281 2.81043 0.5
26 0.337632 3.47862 1.96317 0.5
27 2.22434 0.164496 2.48343 0.5
28 2.70705 2.27009 2.72202 0.5
29 0.408619 2.53081 1.97036 0.5
30 2.98712 3.57198 1.18851 0.5
31 0.38542 1.3569 2.56256 0.5
32 1.0401 1.83741 2.72436 0.5
33 2.11889 1.75095 3.84409 0.5
34 2.42035 3.02013 0.395137 0.5
35 3.18303 2.84883 2.89718 0.5
36 1.11117 1.61764 3.79493 0.5
37 2.22692 0.517072 -0.0124791 0.5
38 3.09904 0.311985 0.398019 0.5
39 3.8729 1.78702 1.90464 0.5
40 1.0073 0.652821 0.0626229 0.5
41 1.50926 3.71488 0.344877 0.5
42 2.78128 1.40301 3.92878 0.5
43 0.1249 1.40896 3.49834 0.5
44 2.52754 1.86777 2.02219 0.5
45 1.84841 1.46409 0.575455 0.5
46 0.337092 2.1701 0.860661 0.5
47 3.84069 0.0119696 1.25908 0.5
48 3.45901 1.7172 0.0335049 0.5
49 2.27028 3.04308 1.76558 0.5
50 0.396769 0.331956 0.0866615 0.5
