ITEM: TIMESTEP
410000
ITEM: NUMBER OF ATOMS
50
ITEM: BOX BOUNDS xy xz yz pp pp pp
0.0000000000000000e+00 3.9685030000000001e+00 0.0000000000000000e+00
0.0000000000000000e+00 3.9685030000000001e+00 0.0000000000000000e+00
0.0000000000000000e+00 3.9685030000000001e+00 0.0000000000000000e+00
ITEM: ATOMS id x y z radius
1 0.177605 3.20592 3.23253 0.5
2 2.57854 1.72785 1.494 0.5
3 3.05875 0.453705 3.4274 0.5
4 1.54337 1.5199 0.0633499 0.5
5 2.90518 3.47948 3.63745 0.5
6 3.41483 3.58192 2.71848 0.5
7 0.180334 2.23334 3.56636 0.5
8 3.62752 2.29532 0.639072 0.5
9 0.62918 1.28513 1.13369 0.5
10 1.43384 2.05164 3.32471 0.5
11 0.99049 3.01461 3.11774 0.5
12 0.147517 1.95256 1.52112 0.5
13 3.25096 3.43155 1.38429 0.5
14 2.50995 0.356871 0.613003 0.5
15 0.194221 3.61165 2.23025 0.5
16 2.89854 0.219262 2.44609 0.5
17 1.53578 1.02258 1.31165 0.5
18 0.722697 2.55416 3.97236 0.5
19 0.515341 1.43646 3.73899 0.5
20 1.02644 3.95049 3.79933 0.5
21 1.87293 0.0140595 0.0797003 0.5
22 3.05505 1.44158 3.82496 0.5
23 0.31192 1.15581 2.95164 0.5
24 2.96881 1.80209 2.6578 0.5
25 0.680269 1.92753 0.732979 0.5
26 2.20211 1.0281 3.37657 0.5
27 0.0310115 1.83588 2.37181 0.5
28 0.605144 3.55548 0.354675 0.5
29 1.96634 1.49963 2.15436 0.5
30 3.51597 1.25724 3.14669 0.5
31 1.07563 1.73139 1.90134 0.5
32 1.8722 2.27541 2.07498 0.5
33 2.31036 2.36457 3.33048 0.5
34 1.90635 3.21229 2.57472 0.5
35 1.92944 1.96312 0.7737 0.5
36 1.22663 2.93003 2.19379 0.5
37 1.92812 0.268393 1.33442 0.5
38 3.35996 0.981098 0.620681 0.5
39 2.97747 0.618531 1.57815 0.5
40 0.0798683 0.3797 2.87812 0.5
41 2.23355 3.28948 1.58882 0.5
42 0.98666 2.70066 1.48807 0.5
43 1.48771 3.87346 2.81278 0.5
44 1.17761 1.21614 2.87834 0.5
45 0.860319 0.336705 1.18235 0.5
46 3.48981 0.0457878 0.365582 0.5
47 1.27231 3.2373 0.0597478 0.5
48 0.593029 0.684725 3.54626 0.5
49 2.01559 3.19594 3.2872 0.5
50 2.2451 1.23736 1.06106 0.5
