ITEM: TIMESTEP
960000
ITEM: NUMBER OF ATOMS
50
ITEM: BOX BOUNDS xy xz yz pp pp pp
0.0000000000000000e+00 3.9685030000000001e+00 0.0000000000000000e+00
0.0000000000000000e+00 3.9685030000000001e+00 0.0000000000000000e+00
0.0000000000000000e+00 3.9685030000000001e+00 0.0000000000000000e+00
ITEM: ATOMS id x y z radius
1 1.47389 0.685321 0.966679 0.5
2 2.13266 0.258816 1.68906 0.5
3 3.03992 3.33688 2.35391 0.5
4 0.794899 3.0634 3.44606 0.5
5 3.94736 3.32296 3.77728 0.5
6 2.38333 2.4741 1.08486 0.5
7 2.60141 3.08568 0.924135 0.5
8 2.46638 1.34543 3.49944 0.5
9 1.34481 0.584366 1.74977 0.5
10 3.85974 0.198006 0.269347 0.5
11 3.64051 1.90352 2.65924 0.5
12 3.15264 0.339534 2.89139 0.5
13 3.91084 0.410948 3.14073 0.5
14 0.439609 1.88529 2.1625 0.5
15 2.52348 0.554901 0.888998 0.5
16 1.95592 0.473525 3.30339 0.5
17 3.38312 3.62624 3.40645 0.5
18 2.6681 1.73033 2.33769 0.5
19 3.18891 0.306484 0.915155 0.5
20 1.5942 2.33997 2.11971 0.5
21 0.175553 3.86761 1.02449 0.5
22 3.90079 0.849564 0.584354 0.5
23 0.375088 2.69722 0.876215 0.5
24 0.593086 0.524509 0.037096 0.5
25 0.449528 0.678127 2.13852 0.5
26 2.00857 1.36363 1.50709 0.5
27 3.6784 0.987901 3.67781 0.5
28 2.61034 1.49067 1.31917 0.5
29 2.28233 3.3357 1.89554 0.5
30 1.05404 1.31468 1.74398 0.5
31 3.95586 2.62196 2.28083 0.5
32 0.624707 2.60173 1.73044 0.5
33 0.356031 0.835468 1.30777 0.5
34 2.0073 1.12326 2.1909 0.5
35 0.573072 3.52017 0.369655 0.5
36 1.73181 3.54584 -0.0188555 0.5
37 0.34375 1.33912 3.00696 0.5
38 3.87957 3.47605 2.54019 0.5
39 2.80397 3.47706 3.52975 0.5
40 2.83123 0.603632 1.95044 0.5
41 0.40101 1.8838 1.16737 0.5
42 3.29049 3.43778 0.536815 0.5
43 0.60067 2.41354 0.0578029 0.5
44 3.60274 2.76363 3.09587 0.5
45 1.07083 1.03547 2.70955 0.5
46 3.3379 1.64215 0.503003 0.5
47 1.89551 1.14017 0.345702 0.5
48 3.18814 2.00405 3.4812 0.5
49 1.8317 2.18589 3.81873 0.5
50 3.43365 0.789324 1.65393 0.5
