ITEM: TIMESTEP
640000
ITEM: NUMBER OF ATOMS
50
ITEM: BOX BOUNDS xy xz yz pp pp pp
0.0000000000000000e+00 3.9685030000000001e+00 0.0000000000000000e+00
0.0000000000000000e+00 3.9685030000000001e+00 0.0000000000000000e+00
0.0000000000000000e+00 3.9685030000000001e+00 0.0000000000000000e+00
ITEM: ATOMS id x y z radius
1 3.80463 1.26754 0.342178 0.5
2 3.00557 1.28625 3.93552 0.5
3 0.392176 3.14944 1.52166 0.5
4 0.434231 2.02886 2.01953 0.5
5 1.62386 0.0128083 0.375068 0.5
6 2.01607 3.17652 1.46148 0.5
7 3.86655 0.276059 2.9391 0.5
8 2.29377 1.54168 0.698485 0.5
9 1.68419 0.83219 0.702359 0.5
10 2.11825 0.354191 2.16238 0.5
11 1.98758 2.68814 0.671547 0.5
12 3.19757 2.03442 3.8236 0.5
13 0.307256 2.1001 3.94063 0.5
14 2.05766 2.26115 0.0132292 0.5
15 3.74043 1.34502 3.46602 0.5
16 2.93873 2.58105 0.395857 0.5
17 3.07262 0.567762 3.35298 0.5
18 1.28272 3.3169 3.40811 0.5
19 0.155753 2.47722 1.0968 0.5
20 1.31945 0.971827 1.59039 0.5
21 1.20374 0.0299089 1.31442 0.5
22 0.75696 1.0075 3.37476 0.5
23 3.35847 1.58517 2.04972 0.5
24 3.22034 3.81209 3.65772 0.5
25 0.558707 3.82145 3.61576 0.5
26 3.84178 3.25963 3.39872 0.5
27 2.01566 0.673071 3.436 0.5
28 2.49798 1.23436 2.76691 0.5
29 1.59616 1.29955 2.63827 0.5
30 2.29498 0.30503 0.155188 0.5
31 0.23239 1.48501 1.20693 0.5
32 2.63638 3.05565 1.0705 0.5
33 1.68772 1.70509 1.39546 0.5
34 2.66259 0.307911 1.5769 0.5
35 2.21954 2.41022 1.34364 0.5
36 1.97695 2.22721 2.04728 0.5
37 0.940736 3.59383 0.58655 0.5
38 0.309019 1.22418 2.6759 0.5
39 2.26041 1.36825 1.90327 0.5
40 0.983706 2.62369 3.75837 0.5
41 1.57469 2.14361 3.06678 0.5
42 2.27347 3.32173 0.0457002 0.5
43 3.38785 3.4755 0.467763 0.5
44 2.71101 2.18668 1.97997 0.5
45 3.91333 0.521257 3.79207 0.5
46 1.64142 3.16799 2.36574 0.5
47 1.3296 1.49344 3.44861 0.5
48 3.62075 0.854599 1.66118 0.5
49 1.37118 0.173208 2.88937 0.5
50 1.07578 2.83942 0.978759 0.5
