ITEM: TIMESTEP
500000
ITEM: NUMBER OF ATOMS
50
ITEM: BOX BOUNDS xy xz yz pp pp pp
0.0000000000000000e+00 3.9685030000000001e+00 0.0000000000000000e+00
0.0000000000000000e+00 3.9685030000000001e+00 0.0000000000000000e+00
0.0000000000000000e+00 3.9685030000000001e+00 0.0000000000000000e+00
ITEM: ATOMS id x y z radius
1 0.0418735 0.596638 2.24315 0.5
2 1.59497 3.56911 3.37533 0.5
3 3.245 0.988451 3.38918 0.5
4 2.67893 0.481512 2.54592 0.5
5 3.38719 0.481306 0.179058 0.5
6 1.3663 0.129318 1.41402 0.5
7 1.66246 1.22009 3.1636 0.5
8 2.9431 2.29662 1.61725 0.5
9 2.72573 3.29419 0.636318 0.5
10 0.959674 1.1505 1.53699 0.5
11 1.68291 3.36207 2.17351 0.5
12 1.70505 0.864371 2.31829 0.5
13 0.114563 3.08738 2.03841 0.5
14 3.29901 3.07162 1.41919 0.5
15 1.93622 0.635168 0.972877 0.5
16 2.45487 3.85744 1.52345 0.5
17 0.323217 1.44943 0.390559 0.5
18 1.09154 3.13981 0.843741 0.5
19 2.05108 1.79032 0.909737 0.5
20 3.13451 0.131097 2.97634 0.5
21 2.49535 2.66604 2.6312 0.5
22 2.73091 1.32375 1.26789 0.5
23 0.3219 1.9685 3.15297 0.5
24 3.3904 3.24989 2.85359 0.5
25 0.448242 3.24178 3.94693 0.5
26 3.18346 2.43556 0.83116 0.5
27 3.80569 3.72323 3.72581 0.5
28 1.30605 3.12722 2.68622 0.5
29 0.0722821 1.29842 1.54862 0.5
30 1.11546 1.55193 2.33289 0.5
31 2.40612 3.6727 3.62816 0.5
32 1.48973 0.238322 2.8202 0.5
33 0.666127 2.46183 1.51055 0.5
34 1.21258 3.84223 0.184563 0.5
35 2.17345 2.79404 0.216158 0.5
36 0.265639 3.15264 3.08746 0.5
37 3.61731 3.20887 0.435046 0.5
38 0.10104 2.1682 0.95073 0.5
39 1.91344 2.16493 3.16031 0.5
40 2.01688 3.73067 0.605694 0.5
41 1.7025 3.36677 1.13864 0.5
42 2.38631 3.02578 1.73827 0.5
43 2.5209 1.04591 0.262832 0.5
44 0.882848 2.40008 2.68913 0.5
45 3.14194 3.73781 2.0896 0.5
46 2.90774 0.505226 0.825113 0.5
47 3.5426 2.46268 2.67667 0.5
48 1.36207 1.68594 1.30117 0.5
49 3.71228 3.8103 2.72022 0.5
50 2.1944 1.66025 1.96341 0.5
