ITEM: TIMESTEP
260
ITEM: NUMBER OF ATOMS
50
ITEM: BOX BOUNDS xy xz yz pp pp pp
0.0000000000000000e+00 3.9685030000000001e+00 0.0000000000000000e+00
0.0000000000000000e+00 3.9685030000000001e+00 0.0000000000000000e+00
0.0000000000000000e+00 3.9685030000000001e+00 0.0000000000000000e+00
ITEM: ATOMS id x y z radius
1 2.40293 1.24166 2.0029 0.5
2 0.00184923 3.25554 1.21932 0.5
3 3.45234 2.4263 1.16006 0.5
4 2.66026 3.33839 2.95894 0.5
5 3.12589 1.00861 1.65123 0.5
6 0.0114775 1.09683 2.13084 0.5
7 0.985826 3.31099 3.43959 0.5
8 1.06832 3.5566 2.48023 0.5
9 3.41961 2.89897 2.1267 0.5
10 2.50806 2.176 1.69744 0.5
11 0.651293 3.18257 0.389298 0.5
12 3.37866 1.60926 1.79485 0.5
13 3.35312 0.682166 0.728024 0.5
14 2.92696 0.355081 2.74896 0.5
15 2.47792 0.427787 3.32051 0.5
16 1.31789 1.91066 3.37905 0.5
17 0.658828 0.285807 3.18408 0.5
18 2.75562 3.45401 3.8783 0.5
19 0.223918 0.196621 0.616343 0.5
20 3.07406 1.55765 2.57096 0.5
21 1.51298 0.843864 3.75834 0.5
22 3.72187 0.842668 3.26245 0.5
23 3.19313 2.48399 0.0832824 0.5
24 1.8867 0.932275 2.76816 0.5
25 3.12382 3.93791 0.796589 0.5
26 1.57035 1.87768 2.27405 0.5
27 1.60939 2.66177 1.89465 0.5
28 3.70824 1.53214 0.470528 0.5
29 0.203152 2.24909 0.718121 0.5
30 0.247346 3.66228 3.64389 0.5
31 1.6422 3.69609 1.543 0.5
32 2.55673 1.24673 3.62507 0.5
33 0.646567 1.87435 2.6585 0.5
34 0.102103 3.39534 2.20012 0.5
35 2.5448 2.58129 3.55448 0.5
36 0.324135 2.41597 1.83681 0.5
37 2.65074 3.90777 1.81799 0.5
38 0.844019 1.87548 0.0425548 0.5
39 3.66004 3.83576 2.8455 0.5
40 2.14605 1.76566 3.03401 0.5
41 2.44238 2.6961 0.70637 0.5
42 0.204415 2.42305 3.74089 0.5
43 3.30812 2.84278 3.16446 0.5
44 0.637499 1.26898 0.718548 0.5
45 0.282804 2.93291 2.86426 0.5
46 0.852764 1.18143 3.17731 0.5
47 2.5985 2.47023 2.58507 0.5
48 2.94224 3.13678 1.4383 0.5
49 1.80103 1.7097 0.0705948 0.5
50 3.35048 0.262362 3.88398 0.5
