ITEM: TIMESTEP
720000
ITEM: NUMBER OF ATOMS
50
ITEM: BOX BOUNDS xy xz yz pp pp pp
0.0000000000000000e+00 3.9685030000000001e+00 0.0000000000000000e+00
0.0000000000000000e+00 3.9685030000000001e+00 0.0000000000000000e+00
0.0000000000000000e+00 3.9685030000000001e+00 0.0000000000000000e+00
ITEM: ATOMS id x y z radius
1 0.417627 0.552077 3.08167 0.5
2 2.38328 3.09636 0.533179 0.5
3 2.92521 0.742931 0.803641 0.5
4 1.34704 0.70403 1.52801 0.5
5 1.60169 1.54668 1.34212 0.5
6 0.375937 3.81956 2.62966 0.5
7 3.78679 2.3618 0.97033 0.5
8 2.31044 0.843026 2.17912 0.5
9 0.795028 1.99373 0.745453 0.5
10 2.88821 2.06952 3.18224 0.5
11 1.7861 3.61458 3.83227 0.5
12 0.554411 0.19311 1.21628 0.5
13 0.153029 3.61691 0.80103 0.5
14 1.72708 2.97174 1.79305 0.5
15 1.3284 2.54551 3.86482 0.5
16 1.94064 0.505974 0.412297 0.5
17 1.54154 0.826673 3.55456 0.5
18 2.51249 2.49527 2.35185 0.5
19 2.81504 2.32269 0.379442 0.5
20 1.08728 0.0570427 1.93286 0.5
21 1.45099 2.40693 0.86646 0.5
22 3.3088 0.433036 3.92205 0.5
23 0.724474 2.57051 1.50611 0.5
24 0.400689 1.50839 2.79378 0.5
25 0.440528 2.35749 2.9952 0.5
26 2.3782 3.37127 3.05242 0.5
27 1.12134 2.01319 2.29965 0.5
28 1.406 3.67843 2.99276 0.5
29 2.099 2.47481 3.25958 0.5
30 1.7983 2.86239 2.59008 0.5
31 3.37649 3.25343 0.246634 0.5
32 3.13245 1.15841 3.01429 0.5
33 0.489553 2.64276 0.127892 0.5
34 2.29422 1.88583 1.50404 0.5
35 3.35499 2.70775 3.66649 0.5
36 2.09888 1.94629 0.0904296 0.5
37 0.312539 3.2248 1.94689 0.5
38 1.17694 3.35542 1.19194 0.5
39 2.15849 0.179679 2.74594 0.5
40 0.96687 0.857184 0.445917 0.5
41 0.154256 3.19062 3.46757 0.5
42 1.63007 1.67987 0.150636 0.5
43 2.09894 3.77139 1.00141 0.5
44 1.36479 1.08145 2.44289 0.5
45 2.7041 3.7387 0.298206 0.5
46 3.53967 3.96447 1.86534 0.5
47 0.837447 3.60396 0.0779312 0.5
48 2.08066 1.46869 3.12526 0.5
49 2.60067 1.12403 3.95069 0.5
50 3.76926 1.95901 3.84425 0.5
