ITEM: TIMESTEP
610000
ITEM: NUMBER OF ATOMS
50
ITEM: BOX BOUNDS xy xz yz pp pp pp
0.0000000000000000e+00 3.9685030000000001e+00 0.0000000000000000e+00
0.0000000000000000e+00 3.9685030000000001e+00 0.0000000000000000e+00
0.0000000000000000e+00 3.9685030000000001e+00 0.0000000000000000e+00
ITEM: ATOMS id x y z radius
1 2.03886 3.10988 1.60587 0.5
2 0.512721 2.6961 1.54498 0.5
3 1.91509 1.28448 2.50854 0.5
4 2.52147 3.88777 0.727583 0.5
5 2.62391 3.62896 3.68605 0.5
6 1.76008 1.01654 1.64526 0.5
7 1.45416 1.95087 3.43566 0.5
8 3.43187 1.64004 2.69173 0.5
9 2.59667 1.43099 0.642756 0.5
10 3.82 3.21052 1.02527 0.5
11 0.545725 2.24395 2.40972 0.5
12 2.22202 -0.000825432 1.68227 0.5
13 0.346423 2.41782 0.471924 0.5
14 3.22654 3.89166 1.47622 0.5
15 2.01791 0.570462 0.622157 0.5
16 2.42995 1.89826 1.62571 0.5
17 3.45042 0.611587 2.21556 0.5
18 2.99316 0.690361 3.95138 0.5
19 1.00517 3.18551 0.256979 0.5
20 1.37614 1.83943 2.18156 0.5
21 2.59223 2.66874 1.03264 0.5
22 2.32726 2.25471 2.8269 0.5
23 1.45023 3.99033 1.41098 0.5
24 0.740607 3.43114 3.23118 0.5
25 0.571971 1.96124 3.35287 0.5
26 0.287509 0.282597 3.31323 0.5
27 2.85287 3.29355 1.9119 0.5
28 3.27749 3.73588 3.15002 0.5
29 0.223587 1.26343 3.80575 0.5
30 0.798315 3.46312 1.41843 0.5
31 2.4276 0.968931 1.51403 0.5
32 2.2906 0.696054 3.34615 0.5
33 3.24826 1.58836 1.22212 0.5
34 0.844712 1.19443 2.76339 0.5
35 0.817643 0.238164 2.47233 0.5
36 1.90392 0.25123 2.62935 0.5
37 1.40962 3.99871 3.49333 0.5
38 2.77445 2.05559 3.74586 0.5
39 1.64458 2.73053 2.65171 0.5
40 3.50296 0.943434 0.670974 0.5
41 3.899 3.02423 1.87512 0.5
42 0.345233 1.46699 0.714674 0.5
43 3.73213 2.26029 1.33781 0.5
44 1.58169 2.37896 1.59675 0.5
45 1.21719 1.36689 3.77561 0.5
46 3.68884 2.97589 2.84797 0.5
47 0.262151 0.201501 1.78347 0.5
48 3.53604 1.93036 0.41141 0.5
49 -0.0385287 2.43134 3.71842 0.5
50 0.985381 3.12993 2.1221 0.5
