ITEM: TIMESTEP
200000
ITEM: NUMBER OF ATOMS
50
ITEM: BOX BOUNDS xy xz yz pp pp pp
0.0000000000000000e+00 3.9685030000000001e+00 0.0000000000000000e+00
0.0000000000000000e+00 3.9685030000000001e+00 0.0000000000000000e+00
0.0000000000000000e+00 3.9685030000000001e+00 0.0000000000000000e+00
ITEM: ATOMS id x y z radius
1 1.2232 2.81052 1.5872 0.5
2 0.817622 1.07835 1.70749 0.5
3 0.0699051 0.525605 1.92049 0.5
4 0.880299 1.64463 2.17197 0.5
5 0.288704 2.98089 3.8991 0.5
6 2.97729 0.345342 0.578288 0.5
7 1.65898 1.65765 1.08286 0.5
8 2.51367 3.82079 0.167885 0.5
9 2.59719 2.80682 0.493267 0.5
10 0.537917 0.592171 0.0200529 0.5
11 0.901647 0.0741779 3.3613 0.5
12 0.0450901 2.00981 2.93926 0.5
13 2.21391 0.374083 3.27901 0.5
14 2.58598 1.14553 3.73072 0.5
15 2.61328 2.68785 1.68391 0.5
16 1.32172 3.53321 2.29398 0.5
17 3.12108 2.00408 1.94596 0.5
18 1.47944 3.36593 0.947344 0.5
19 2.37369 3.69441 1.15055 0.5
20 3.5984 0.963892 0.358501 0.5
21 2.98101 3.32355 0.814931 0.5
22 2.17074 3.79297 2.78272 0.5
23 2.23822 1.8699 3.13981 0.5
24 2.94457 1.27129 1.07057 0.5
25 0.328085 0.960972 1.09836 0.5
26 2.62145 3.79985 2.02168 0.5
27 0.156155 0.238785 0.718155 0.5
28 3.28975 3.89082 2.51762 0.5
29 3.93741 0.4821 3.0316 0.5
30 3.33323 0.221204 1.49407 0.5
31 2.31373 2.79486 3.26766 0.5
32 3.49928 3.92536 3.85147 0.5
33 0.137241 1.79747 0.952208 0.5
34 3.16355 1.95389 0.558989 0.5
35 2.26763 1.77676 0.316941 0.5
36 1.38449 3.86333 0.310955 0.5
37 1.23323 3.14373 3.15848 0.5
38 1.78677 0.135788 1.81612 0.5
39 0.691305 2.5864 2.66665 0.5
40 1.59932 0.832004 1.72925 0.5
41 2.49582 0.36655 1.20004 0.5
42 3.88328 2.21106 1.74397 0.5
43 1.43769 3.02545 0.275011 0.5
44 3.23889 1.12 2.0628 0.5
45 0.0540351 1.18423 2.55106 0.5
46 3.19095 3.16218 2.95426 0.5
47 2.22563 1.32785 1.9533 0.5
48 0.170126 2.94172 0.798085 0.5
49 0.624027 3.85163 1.53204 0.5
50 0.298744 3.41343 2.97168 0.5
