ITEM: TIMESTEP
580000
ITEM: NUMBER OF ATOMS
50
ITEM: BOX BOUNDS xy xz yz pp pp pp
0.0000000000000000e+00 3.9685030000000001e+00 0.0000000000000000e+00
0.0000000000000000e+00 3.9685030000000001e+00 0.0000000000000000e+00
0.0000000000000000e+00 3.9685030000000001e+00 0.0000000000000000e+00
ITEM: ATOMS id x y z radius
1 2.78494 2.3849 2.72506 0.5
2 1.57705 2.41762 1.46037 0.5
3 3.81995 3.39389 3.76501 0.5
4 1.9748 3.10078 0.283667 0.5
5 0.519201 0.245826 0.177319 0.5
6 1.9239 2.82479 2.20991 0.5
7 0.25682 2.34418 2.08859 0.5
8 2.64171 0.874617 2.14996 0.5
9 1.90223 3.35713 1.40006 0.5
10 0.917751 2.42945 2.77115 0.5
11 2.19187 1.95766 1.88477 0.5
12 0.515129 2.27965 0.997324 0.5
13 1.87213 1.84952 3.33702 0.5
14 3.84607 2.76696 2.81128 0.5
15 2.66136 1.17755 3.98521 0.5
16 2.55705 0.151862 0.27687 0.5
17 0.652129 1.5509 0.241605 0.5
18 2.01787 2.03635 0.685392 0.5
19 0.692553 1.37483 2.13347 0.5
20 2.87332 3.24503 3.63422 0.5
21 1.53671 3.79875 3.86207 0.5
22 3.27846 0.734662 0.633835 0.5
23 0.715882 3.26963 1.3641 0.5
24 3.67837 3.90746 0.917746 0.5
25 3.02252 2.98878 1.96021 0.5
26 2.50284 2.22254 3.95171 0.5
27 3.52265 2.53415 3.68782 0.5
28 1.92317 1.08818 1.84566 0.5
29 2.7572 3.33778 0.77434 0.5
30 2.0973 0.98469 0.559413 0.5
31 1.20356 0.992101 0.162973 0.5
32 1.26391 1.47471 0.992066 0.5
33 1.08452 0.644871 1.54959 0.5
34 1.73484 2.7099 2.91313 0.5
35 3.25895 2.85114 0.458109 0.5
36 2.74608 0.57494 1.28194 0.5
37 0.377742 0.656799 2.13483 0.5
38 3.54809 1.51319 3.92513 0.5
39 0.325784 3.69958 1.83374 0.5
40 3.09089 1.9074 1.14086 0.5
41 3.61863 0.589807 3.54776 0.5
42 1.57213 0.110129 1.92075 0.5
43 0.777109 1.48871 2.94013 0.5
44 2.71237 0.404187 3.35973 0.5
45 2.03892 0.329529 2.62384 0.5
46 3.71493 2.87559 1.03909 0.5
47 0.412562 2.12794 3.66633 0.5
48 1.97768 0.0748779 1.06164 0.5
49 1.00087 3.08792 3.92229 0.5
50 1.75986 0.700431 3.53605 0.5
