ITEM: TIMESTEP
990000
ITEM: NUMBER OF ATOMS
50
ITEM: BOX BOUNDS xy xz yz pp pp pp
0.0000000000000000e+00 3.9685030000000001e+00 0.0000000000000000e+00
0.0000000000000000e+00 3.9685030000000001e+00 0.0000000000000000e+00
0.0000000000000000e+00 3.9685030000000001e+00 0.0000000000000000e+00
ITEM: ATOMS id x y z radius
1 3.2296 2.37437 0.725087 0.5
2 2.55712 2.12682 0.830576 0.5
3 2.20487 0.242452 3.18128 0.5
4 1.48824 0.721861 2.05857 0.5
5 3.41206 2.20159 3.61516 0.5
6 0.575528 3.67011 2.38623 0.5
7 0.497308 0.386074 2.37565 0.5
8 0.33711 0.519681 0.0819171 0.5
9 3.9151 1.4581 0.0911449 0.5
10 1.18746 0.704259 3.80002 0.5
11 3.65231 2.01098 1.9628 0.5
12 2.34063 3.25382 3.5133 0.5
13 3.49455 1.1581 1.38884 0.5
14 1.95645 1.13746 3.0818 0.5
15 3.96438 2.43376 0.291886 0.5
16 0.162993 0.0355114 1.58303 0.5
17 2.88962 0.771662 2.89673 0.5
18 2.8599 3.70308 0.155855 0.5
19 3.04244 1.30517 3.86577 0.5
20 1.41079 1.53029 2.27907 0.5
21 0.416393 1.36233 2.40461 0.5
22 1.54443 2.49187 2.33463 0.5
23 1.93473 0.0226927 0.0235001 0.5
24 2.92598 1.42215 2.08998 0.5
25 3.46703 1.55771 3.11718 0.5
26 3.06759 2.19221 2.31016 0.5
27 3.7601 3.3549 0.729216 0.5
28 0.570542 1.57073 3.67411 0.5
29 0.446047 3.01904 0.0305108 0.5
30 1.12997 2.44742 0.0476752 0.5
31 2.43912 3.04035 2.7155 0.5
32 3.70784 3.21208 0.0355478 0.5
33 1.37147 0.822045 2.99477 0.5
34 2.06609 0.42976 1.46679 0.5
35 3.4483 0.726297 0.371163 0.5
36 3.64381 3.33513 2.9698 0.5
37 2.29425 2.1751 1.80916 0.5
38 0.446426 0.509211 3.02291 0.5
39 1.09781 0.623323 1.16592 0.5
40 0.812806 3.11872 3.07844 0.5
41 2.12669 1.56323 3.90147 0.5
42 3.22554 0.366661 3.67002 0.5
43 0.908417 2.21212 1.44114 0.5
44 1.14073 2.1401 3.15217 0.5
45 2.97634 3.44087 1.47194 0.5
46 0.125398 2.63495 1.36969 0.5
47 1.9203 2.47728 3.21471 0.5
48 2.4012 3.69323 2.51413 0.5
49 2.5048 2.64469 0.0457382 0.5
50 2.32225 1.12402 1.27932 0.5
