ITEM: TIMESTEP
880000
ITEM: NUMBER OF ATOMS
50
ITEM: BOX BOUNDS xy xz yz pp pp pp
0.0000000000000000e+00 3.9685030000000001e+00 0.0000000000000000e+00
0.0000000000000000e+00 3.9685030000000001e+00 0.0000000000000000e+00
0.0000000000000000e+00 3.9685030000000001e+00 0.0000000000000000e+00
ITEM: ATOMS id x y z radius
1 3.7068 1.35749 2.44297 0.5
2 2.10122 3.72422 2.01156 0.5
3 0.758049 3.6669 2.0453 0.5
4 2.28673 3.39423 1.23584 0.5
5 3.94123 3.37227 2.82911 0.5
6 2.1053 2.28559 1.41417 0.5
7 3.43963 0.592151 0.693018 0.5
8 1.85352 3.71669 3.61565 0.5
9 0.0260408 2.86579 0.777246 0.5
10 1.71214 2.29644 3.15439 0.5
11 2.63957 2.46896 0.870535 0.5
12 1.26613 3.03577 2.19845 0.5
13 1.46253 0.618784 3.51814 0.5
14 0.730311 3.90919 3.01494 0.5
15 2.2158 0.362876 2.91758 0.5
16 0.766527 2.92597 3.02724 0.5
17 3.3129 0.88649 3.68573 0.5
18 2.35852 3.18227 3.29017 0.5
19 1.92634 3.139 0.313136 0.5
20 1.628 3.52416 2.853 0.5
21 1.26322 1.96863 0.917959 0.5
22 3.5789 2.99034 2.21285 0.5
23 3.82869 2.0307 1.6004 0.5
24 3.12803 0.00298367 3.13379 0.5
25 3.05646 0.0531199 1.40372 0.5
26 1.61386 1.44881 1.68251 0.5
27 2.46259 1.3704 0.809967 0.5
28 0.865627 1.28092 3.92638 0.5
29 0.27716 0.378898 2.02415 0.5
30 3.2455 2.92608 1.44982 0.5
31 1.7956 2.27014 0.624006 0.5
32 0.0497219 0.504293 3.85998 0.5
33 0.116009 0.760214 3.05295 0.5
34 2.80694 3.76415 0.171372 0.5
35 1.15181 1.0878 1.15205 0.5
36 0.128131 1.96815 2.44376 0.5
37 0.489198 2.27222 1.30143 0.5
38 0.456126 1.93449 0.323758 0.5
39 3.36279 1.61655 3.58903 0.5
40 0.871554 1.8593 2.76559 0.5
41 0.753824 1.2173 2.41918 0.5
42 2.70447 2.23593 3.68627 0.5
43 0.741522 1.75466 1.74137 0.5
44 1.37046 3.53837 1.50271 0.5
45 1.61209 1.30323 2.74804 0.5
46 3.23414 2.25263 2.69834 0.5
47 3.26787 1.85181 0.523763 0.5
48 0.260664 1.33982 1.37869 0.5
49 3.95327 3.531 1.09486 0.5
50 0.83184 0.542717 0.438281 0.5
