ITEM: TIMESTEP
190000
ITEM: NUMBER OF ATOMS
50
ITEM: BOX BOUNDS xy xz yz pp pp pp
0.0000000000000000e+00 3.9685030000000001e+00 0.0000000000000000e+00
0.0000000000000000e+00 3.9685030000000001e+00 0.0000000000000000e+00
0.0000000000000000e+00 3.9685030000000001e+00 0.0000000000000000e+00
ITEM: ATOMS id x y z radius
1 1.99379 2.7492 3.21343 0.5
2 3.24299 3.58185 1.92856 0.5
3 2.96358 0.951826 1.68799 0.5
4 2.22276 0.190336 2.10471 0.5
5 1.24009 2.77375 1.17584 0.5
6 0.613403 0.334333 3.16105 0.5
7 3.30273 2.81566 0.948461 0.5
8 2.15456 3.6236 3.51476 0.5
9 2.14103 0.935823 1.83962 0.5
10 1.03677 2.25328 3.17271 0.5
11 2.83887 1.09984 0.157009 0.5
12 0.142286 3.16938 3.7004 0.5
13 0.0926997 1.00349 3.41073 0.5
14 2.95523 1.61136 0.956617 0.5
15 3.36055 2.73295 3.72159 0.5
16 0.267093 2.07219 1.22047 0.5
17 1.66034 3.23192 1.62986 0.5
18 2.04917 2.94044 0.587132 0.5
19 1.53897 2.69076 2.29675 0.5
20 3.30975 1.42837 3.39425 0.5
21 0.701958 3.714 2.359 0.5
22 0.0757033 0.198784 1.71262 0.5
23 0.841537 2.99778 0.404434 0.5
24 2.1235 0.30317 0.709381 0.5
25 1.31742 0.538972 2.61065 0.5
26 3.5887 2.42649 2.9048 0.5
27 3.7641 0.600105 1.02437 0.5
28 0.470564 0.0298038 0.238513 0.5
29 2.5958 2.40904 1.31902 0.5
30 1.77039 3.50444 2.47485 0.5
31 0.574156 2.94635 1.60928 0.5
32 0.0873252 1.45044 2.08584 0.5
33 0.299215 1.16752 0.265714 0.5
34 2.37051 3.64501 1.35731 0.5
35 0.714379 0.92341 1.34195 0.5
36 2.86512 3.30633 3.14307 0.5
37 1.20924 1.46556 2.80571 0.5
38 0.0862086 2.56082 0.475226 0.5
39 0.290376 2.36881 3.51854 0.5
40 1.61414 0.332542 3.50584 0.5
41 3.05285 0.282816 3.33911 0.5
42 2.14587 1.74274 0.592156 0.5
43 3.17787 -0.0480285 1.01485 0.5
44 2.6251 2.18186 3.57629 0.5
45 2.43633 3.30317 2.04943 0.5
46 0.415685 2.89142 2.5741 0.5
47 0.17329 3.38616 1.01012 0.5
48 1.54768 3.9417 0.124172 0.5
49 3.77797 3.96195 2.77527 0.5
50 3.70721 2.65742 1.87308 0.5
