ITEM: TIMESTEP
780000
ITEM: NUMBER OF ATOMS
50
ITEM: BOX BOUNDS xy xz yz pp pp pp
0.0000000000000000e+00 3.9685030000000001e+00 0.0000000000000000e+00
0.0000000000000000e+00 3.9685030000000001e+00 0.0000000000000000e+00
0.0000000000000000e+00 3.9685030000000001e+00 0.0000000000000000e+00
ITEM: ATOMS id x y z radius
1 3.79105 1.21157 1.17902 0.5
2 1.73135 1.66941 3.73798 0.5
3 0.348966 3.11977 1.88917 0.5
4 1.91689 1.73639 2.37313 0.5
5 0.478505 0.996689 3.70724 0.5
6 3.66008 2.29232 2.26699 0.5
7 2.49665 2.6956 2.22728 0.5
8 0.0333348 1.57292 2.25611 0.5
9 2.84138 2.68033 3.92248 0.5
10 1.3709 1.55216 0.649081 0.5
11 0.231953 3.1582 3.53677 0.5
12 2.96351 0.967678 0.265236 0.5
13 1.23911 2.79468 3.82409 0.5
14 3.34641 0.856771 2.74105 0.5
15 2.89503 0.558782 2.24393 0.5
16 1.72524 2.25116 1.54471 0.5
17 0.681285 0.127407 1.47037 0.5
18 2.09753 2.25383 0.168014 0.5
19 3.75714 0.47786 2.06634 0.5
20 0.284686 3.62152 0.973175 0.5
21 2.14068 0.0780202 1.87958 0.5
22 0.00403916 2.17988 1.02169 0.5
23 1.82393 3.64179 3.91674 0.5
24 1.64554 1.94243 2.99654 0.5
25 0.136753 2.5413 0.234218 0.5
26 2.87437 3.83284 1.40488 0.5
27 0.76784 1.48029 1.39649 0.5
28 3.56505 3.83517 1.35486 0.5
29 2.96011 2.84581 0.827839 0.5
30 1.63319 2.85535 0.784346 0.5
31 0.759645 2.35081 1.87692 0.5
32 1.50621 0.253934 1.92632 0.5
33 3.04287 1.75299 2.34141 0.5
34 3.15864 2.60521 2.83044 0.5
35 2.72918 1.58243 0.741667 0.5
36 0.819974 3.24648 0.512798 0.5
37 3.72024 3.51692 3.99797 0.5
38 0.560776 1.02305 2.60644 0.5
39 2.82756 0.0371664 0.201483 0.5
40 0.557595 2.71269 1.2404 0.5
41 3.52755 1.25628 3.82749 0.5
42 3.27476 3.23121 2.32831 0.5
43 0.00420501 2.20578 3.50668 0.5
44 2.20399 3.22747 2.95132 0.5
45 3.45749 1.72477 0.687684 0.5
46 3.84992 0.613256 0.795256 0.5
47 1.08601 2.7928 2.56784 0.5
48 0.244445 1.55797 0.436878 0.5
49 2.66412 1.87831 3.64401 0.5
50 2.04619 3.98343 0.735936 0.5
