ITEM: TIMESTEP
290000
ITEM: NUMBER OF ATOMS
50
ITEM: BOX BOUNDS xy xz yz pp pp pp
0.0000000000000000e+00 3.9685030000000001e+00 0.0000000000000000e+00
0.0000000000000000e+00 3.9685030000000001e+00 0.0000000000000000e+00
0.0000000000000000e+00 3.9685030000000001e+00 0.0000000000000000e+00
ITEM: ATOMS id x y z radius
1 2.65775 0.114223 2.78073 0.5
2 3.82771 2.49154 0.683199 0.5
3 2.78845 2.52734 0.93259 0.5
4 3.95638 2.96002 0.171221 0.5
5 2.72059 1.25666 3.25564 0.5
6 3.94189 0.338457 3.20858 0.5
7 1.31949 0.202138 3.44033 0.5
8 3.09439 3.08533 0.201466 0.5
9 2.6066 0.871869 0.570399 0.5
10 3.64319 0.958887 0.289094 0.5
11 1.75732 3.70359 1.70538 0.5
12 3.24362 0.416244 1.0879 0.5
13 0.820004 3.32604 2.29122 0.5
14 0.884352 0.716968 0.760809 0.5
15 0.34453 2.37093 2.8134 0.5
16 0.936662 3.78225 1.45613 0.5
17 1.25366 1.40512 3.90133 0.5
18 0.25764 1.3787 1.19269 0.5
19 3.32393 0.664839 3.4337 0.5
20 1.07386 2.29191 2.12427 0.5
21 0.108077 1.30694 2.14745 0.5
22 1.8312 0.855241 2.63153 0.5
23 1.89517 1.70461 0.665573 0.5
24 2.72154 1.95128 1.89034 0.5
25 3.23962 0.881893 2.50667 0.5
26 1.34593 2.23961 3.22653 0.5
27 2.12862 3.02498 3.93078 0.5
28 2.56573 0.140716 0.346144 0.5
29 3.57233 0.0840926 0.309512 0.5
30 0.145961 0.291574 2.2043 0.5
31 1.40001 1.96874 1.33756 0.5
32 2.67353 0.808685 1.65055 0.5
33 3.10625 3.54871 2.15062 0.5
34 0.417386 0.855712 3.89138 0.5
35 1.82667 2.44691 2.0915 0.5
36 0.87741 1.26326 2.4666 0.5
37 0.630929 2.83802 1.51585 0.5
38 2.14506 0.307298 1.87881 0.5
39 0.646312 3.72093 0.344894 0.5
40 0.466083 3.4041 3.46636 0.5
41 3.29081 2.4877 2.71991 0.5
42 1.4145 3.89692 2.55287 0.5
43 1.24334 3.1682 3.75068 0.5
44 1.86304 0.902751 1.11588 0.5
45 2.89519 3.65918 1.18795 0.5
46 3.34651 1.5396 2.68112 0.5
47 2.57772 1.42328 2.36926 0.5
48 3.57351 3.31046 1.47811 0.5
49 3.58377 2.37109 1.68986 0.5
50 3.4366 0.209841 2.11797 0.5
