ITEM: TIMESTEP
420000
ITEM: NUMBER OF ATOMS
50
ITEM: BOX BOUNDS xy xz yz pp pp pp
0.0000000000000000e+00 3.9685030000000001e+00 0.0000000000000000e+00
0.0000000000000000e+00 3.9685030000000001e+00 0.0000000000000000e+00
0.0000000000000000e+00 3.9685030000000001e+00 0.0000000000000000e+00
ITEM: ATOMS id x y z radius
1 1.77482 2.45629 1.82056 0.5
2 3.03352 3.27411 3.66831 0.5
3 2.66626 2.41809 0.0779665 0.5
4 2.83599 3.66633 1.62109 0.5
5 1.29684 2.28546 2.8982 0.5
6 1.4727 1.28845 0.22736 0.5
7 3.55625 2.20665 1.86997 0.5
8 2.73831 2.561 1.45807 0.5
9 1.32658 3.49243 0.835808 0.5
10 0.00431779 2.25471 1.0234 0.5
11 2.84527 1.33016 3.36537 0.5
12 1.0281 3.43838 3.53771 0.5
13 0.175278 1.32451 2.32438 0.5
14 3.61837 2.41239 3.42733 0.5
15 1.84661 3.48412 0.152666 0.5
16 3.34697 1.69282 1.03344 0.5
17 1.85449 0.748941 2.0458 0.5
18 1.53482 2.60434 3.76013 0.5
19 3.04267 3.89785 2.59972 0.5
20 0.574165 0.523237 0.732384 0.5
21 1.39723 2.79534 1.00225 0.5
22 1.33518 1.31377 1.37772 0.5
23 0.222942 1.21127 3.3782 0.5
24 3.81114 0.302114 3.12208 0.5
25 2.61674 0.579911 2.12841 0.5
26 2.80529 0.0920368 3.90044 0.5
27 1.95887 0.555616 0.389472 0.5
28 3.74098 3.05072 1.85628 0.5
29 1.82053 0.549925 3.1366 0.5
30 2.81278 3.07373 2.24851 0.5
31 2.47146 1.74119 1.8106 0.5
32 3.39168 0.554731 0.8164 0.5
33 3.48088 0.953706 1.69415 0.5
34 0.218454 0.301519 1.70221 0.5
35 1.15862 1.13657 3.12345 0.5
36 1.64392 1.48887 2.35674 0.5
37 2.82081 3.10647 0.603664 0.5
38 2.63543 2.67811 2.92635 0.5
39 3.97469 1.85157 0.170181 0.5
40 0.074688 3.20516 3.02356 0.5
41 0.291009 1.27024 0.948186 0.5
42 2.31396 0.503586 1.33506 0.5
43 2.91001 1.28273 2.60726 0.5
44 0.750599 2.85046 2.14323 0.5
45 0.256989 0.0920604 3.88526 0.5
46 0.35462 3.11541 0.114454 0.5
47 2.03818 3.83604 3.4139 0.5
48 1.11828 0.0657068 2.3011 0.5
49 0.270711 2.86283 1.41666 0.5
50 2.2149 1.66221 1.2046 0.5
