ITEM: TIMESTEP
670000
ITEM: NUMBER OF ATOMS
50
ITEM: BOX BOUNDS xy xz yz pp pp pp
0.0000000000000000e+00 3.9685030000000001e+00 0.0000000000000000e+00
0.0000000000000000e+00 3.9685030000000001e+00 0.0000000000000000e+00
0.0000000000000000e+00 3.9685030000000001e+00 0.0000000000000000e+00
ITEM: ATOMS id x y z radius
1 1.20612 2.34992 1.09101 0.5
2 0.839584 3.90826 2.75489 0.5
3 3.79706 0.120295 0.672104 0.5
4 2.11379 2.04026 2.41417 0.5
5 0.344084 0.749083 1.02852 0.5
6 0.758818 1.18717 3.73533 0.5
7 1.5468 3.34884 0.709822 0.5
8 0.725805 2.90277 2.64217 0.5
9 1.66273 3.3178 1.71454 0.5
10 0.353219 2.64857 0.890211 0.5
11 1.77063 2.24192 3.93531 0.5
12 1.35155 0.951329 2.99607 0.5
13 1.95082 2.55727 1.11035 0.5
14 2.74163 2.71885 1.27587 0.5
15 0.143627 2.17182 2.76466 0.5
16 3.40905 1.61658 3.07032 0.5
17 1.61878 2.84189 2.97494 0.5
18 1.22813 3.74959 3.37214 0.5
19 2.1122 1.8355 3.27872 0.5
20 3.51374 1.48933 0.998713 0.5
21 2.67489 2.92784 2.23317 0.5
22 2.53548 1.99476 0.497864 0.5
23 0.516765 2.26491 1.49311 0.5
24 2.73991 0.341577 3.18513 0.5
25 0.399514 1.44768 2.81634 0.5
26 1.48347 0.42984 0.800081 0.5
27 0.700981 3.04791 1.68235 0.5
28 0.95136 1.90859 0.250913 0.5
29 3.64297 2.62483 1.90293 0.5
30 1.11951 1.91546 3.0465 0.5
31 3.90672 3.85906 1.78442 0.5
32 0.772321 0.0104793 1.12257 0.5
33 1.66194 1.24485 3.86392 0.5
34 1.51669 0.316536 2.41571 0.5
35 2.81454 1.3281 3.90972 0.5
36 2.12819 1.32844 1.2972 0.5
37 1.82509 0.656061 1.70463 0.5
38 0.62524 0.134708 3.89564 0.5
39 2.32775 3.6712 3.45029 0.5
40 0.304484 2.00447 3.67144 0.5
41 0.193118 3.24802 3.13198 0.5
42 2.78594 2.67482 3.12438 0.5
43 1.12526 1.71143 1.83253 0.5
44 2.60492 1.13368 2.98343 0.5
45 0.57312 0.426529 2.15289 0.5
46 3.67108 1.08514 1.85961 0.5
47 1.74996 3.10385 3.78321 0.5
48 2.2012 0.966502 0.53493 0.5
49 3.08486 2.33194 3.80399 0.5
50 3.72139 0.557646 2.82989 0.5
