ITEM: TIMESTEP
110000
ITEM: NUMBER OF ATOMS
50
ITEM: BOX BOUNDS xy xz yz pp pp pp
0.0000000000000000e+00 3.9685030000000001e+00 0.0000000000000000e+00
0.0000000000000000e+00 3.9685030000000001e+00 0.0000000000000000e+00
0.0000000000000000e+00 3.9685030000000001e+00 0.0000000000000000e+00
ITEM: ATOMS id x y z radius
1 1.36875 2.59587 3.66322 0.5
2 2.9134 2.65298 2.16474 0.5
3 1.52399 0.117235 1.00696 0.5
4 2.61594 2.25888 1.51613 0.5
5 1.12416 1.00032 2.62058 0.5
6 0.658475 1.10125 0.328539 0.5
7 0.163805 3.54753 -0.00456442 0.5
8 0.186084 2.4042 1.89819 0.5
9 0.160164 0.846161 2.94959 0.5
10 1.1333 0.127384 -0.00227145 0.5
11 2.52116 0.46313 0.185867 0.5
12 3.78859 3.57182 0.887463 0.5
13 0.515475 1.68307 1.7355 0.5
14 3.32553 0.875198 0.91909 0.5
15 2.477 1.4665 0.3073 0.5
16 3.24136 0.926937 2.00432 0.5
17 2.8526 2.96831 3.21221 0.5
18 2.18229 1.26161 3.36438 0.5
19 3.21453 3.88886 3.55702 0.5
20 0.649779 1.79589 2.75555 0.5
21 2.23721 0.440059 3.06781 0.5
22 1.45437 2.89381 2.60204 0.5
23 1.5151 0.980634 0.508089 0.5
24 0.203477 1.62502 3.69788 0.5
25 1.6291 2.37728 1.74937 0.5
26 3.46257 1.73556 1.64166 0.5
27 3.84775 0.75396 3.89127 0.5
28 0.888021 3.07102 1.92955 0.5
29 1.48157 1.93178 0.240989 0.5
30 2.90092 0.801095 3.58729 0.5
31 3.27436 3.00379 0.231338 0.5
32 0.762491 0.108398 3.31869 0.5
33 1.68974 3.2053 0.902358 0.5
34 2.08425 3.41603 2.30925 0.5
35 1.64414 0.606046 3.51935 0.5
36 3.57451 0.251438 2.71014 0.5
37 1.51348 3.69589 3.30895 0.5
38 1.53474 0.90473 1.47161 0.5
39 0.496238 0.120082 1.63051 0.5
40 2.38831 2.25265 3.37153 0.5
41 3.47395 2.61796 1.01188 0.5
42 0.237632 0.161272 0.567628 0.5
43 0.433279 3.22033 3.29222 0.5
44 1.00458 1.43313 3.55139 0.5
45 2.52326 3.86396 3.0571 0.5
46 2.30498 1.09804 2.18479 0.5
47 2.21693 0.150992 2.0866 0.5
48 1.27866 3.9176 2.01235 0.5
49 1.84755 1.86852 2.46687 0.5
50 2.99578 3.41589 1.59482 0.5
