ITEM: TIMESTEP
140000
ITEM: NUMBER OF ATOMS
50
ITEM: BOX BOUNDS xy xz yz pp pp pp
0.0000000000000000e+00 3.9685030000000001e+00 0.0000000000000000e+00
0.0000000000000000e+00 3.9685030000000001e+00 0.0000000000000000e+00
0.0000000000000000e+00 3.9685030000000001e+00 0.0000000000000000e+00
ITEM: ATOMS id x y z radius
1 1.77661 3.56615 0.952419 0.5
2 3.56451 0.48932 0.720592 0.5
3 1.85859 1.83764 3.32715 0.5
4 3.84655 3.42917 1.94707 0.5
5 0.569037 2.40467 3.18818 0.5
6 3.87556 1.19564 1.13254 0.5
7 1.74967 0.644572 3.15556 0.5
8 0.0921269 0.15681 1.36274 0.5
9 3.66846 2.06645 3.49962 0.5
10 1.30552 0.841679 1.71645 0.5
11 0.804509 1.52616 3.16734 0.5
12 2.63826 2.68167 0.287227 0.5
13 2.96499 2.00621 3.11122 0.5
14 2.91803 1.177 1.69325 0.5
15 2.0377 2.23399 0.420379 0.5
16 0.209745 3.77119 2.72205 0.5
17 1.35938 2.71221 0.194781 0.5
18 2.82248 3.46501 3.52392 0.5
19 0.255655 0.161241 -0.0152722 0.5
20 0.650588 1.26624 1.2597 0.5
21 0.876303 3.39529 3.37287 0.5
22 2.59599 0.705718 2.22874 0.5
23 2.33737 1.62517 2.61262 0.5
24 1.2289 0.259055 3.48217 0.5
25 1.32246 1.70662 2.57169 0.5
26 2.50656 1.10984 3.14281 0.5
27 2.55888 0.26404 2.96046 0.5
28 3.4835 2.09225 0.505089 0.5
29 1.93257 2.63347 2.45389 0.5
30 2.1474 0.124445 1.76467 0.5
31 3.58438 2.92187 3.90271 0.5
32 3.52241 0.635057 3.2101 0.5
33 0.256093 1.58451 2.02512 0.5
34 1.1951 2.79784 3.08738 0.5
35 3.73368 0.754918 2.34615 0.5
36 2.979 2.67416 2.54342 0.5
37 3.02922 0.0783811 1.49859 0.5
38 2.96005 3.70546 2.39839 0.5
39 1.47485 2.91323 0.820869 0.5
40 0.699326 3.65566 0.328114 0.5
41 2.92798 1.94649 2.00577 0.5
42 2.31003 3.77644 0.291922 0.5
43 0.258694 1.02631 2.91769 0.5
44 1.13956 3.78539 2.24575 0.5
45 1.68847 0.604822 0.363525 0.5
46 0.500758 1.08687 3.87617 0.5
47 0.848411 0.301658 0.878998 0.5
48 1.90572 3.3815 3.57708 0.5
49 3.3766 3.33838 0.509077 0.5
50 3.10413 2.92601 1.29638 0.5
