ITEM: TIMESTEP
250000
ITEM: NUMBER OF ATOMS
50
ITEM: BOX BOUNDS xy xz yz pp pp pp
0.0000000000000000e+00 3.9685030000000001e+00 0.0000000000000000e+00
0.0000000000000000e+00 3.9685030000000001e+00 0.0000000000000000e+00
0.0000000000000000e+00 3.9685030000000001e+00 0.0000000000000000e+00
ITEM: ATOMS id x y z radius
1 0.417879 1.35506 3.17919 0.5
2 3.66311 0.107497 0.500163 0.5
3 1.0504 1.9067 3.65135 0.5
4 1.51436 1.81461 1.66612 0.5
5 1.43562 0.837483 0.488932 0.5
6 2.628 1.37336 2.7382 0.5
7 2.97205 2.64593 2.21893 0.5
8 3.88277 1.15358 1.13337 0.5
9 1.73553 0.299432 2.92469 0.5
10 3.6373 3.88629 1.99434 0.5
11 2.13967 3.91171 3.79916 0.5
12 1.3069 3.58259 0.811924 0.5
13 0.609822 3.77654 1.65736 0.5
14 2.61976 0.422674 0.261803 0.5
15 1.8225 2.97989 1.6597 0.5
16 0.409171 2.19619 2.97772 0.5
17 2.76836 3.87436 3.07952 0.5
18 3.54719 3.29664 2.80882 0.5
19 2.94531 2.25924 0.936416 0.5
20 0.236979 0.538488 1.67302 0.5
21 3.51006 3.08182 1.68391 0.5
22 0.547728 2.10792 0.858507 0.5
23 3.07839 0.763397 2.40706 0.5
24 1.02158 0.0490001 0.0675493 0.5
25 0.967902 0.102723 2.97332 0.5
26 1.73904 2.71505 0.163545 0.5
27 3.85538 0.201423 3.1695 0.5
28 1.83476 3.46647 3.06969 0.5
29 2.26622 1.03698 1.77134 0.5
30 2.99762 1.75079 1.78217 0.5
31 0.170126 2.47799 -0.00676018 0.5
32 1.80964 2.27361 0.916231 0.5
33 2.91907 0.437345 1.09422 0.5
34 1.36869 0.377339 1.51091 0.5
35 2.76162 1.92009 0.0387366 0.5
36 0.190076 1.62077 2.3698 0.5
37 1.85139 1.79925 0.0865551 0.5
38 2.70781 0.161071 1.99336 0.5
39 2.06939 3.21596 0.50161 0.5
40 0.734903 0.641891 2.47346 0.5
41 1.26935 3.12288 3.60572 0.5
42 2.52335 2.83622 3.49552 0.5
43 3.45358 3.41044 3.69598 0.5
44 0.136215 2.5621 1.77708 0.5
45 1.2431 1.62894 2.71926 0.5
46 3.44541 1.25311 3.09533 0.5
47 2.78945 3.0404 1.17538 0.5
48 1.14501 0.944546 3.47533 0.5
49 0.674361 1.42238 1.11076 0.5
50 1.05997 2.80373 1.4123 0.5
