ITEM: TIMESTEP
870000
ITEM: NUMBER OF ATOMS
50
ITEM: BOX BOUNDS xy xz yz pp pp pp
0.0000000000000000e+00 3.9685030000000001e+00 0.0000000000000000e+00
0.0000000000000000e+00 3.9685030000000001e+00 0.0000000000000000e+00
0.0000000000000000e+00 3.9685030000000001e+00 0.0000000000000000e+00
ITEM: ATOMS id x y z radius
1 1.94313 0.0602362 0.681893 0.5
2 0.890888 0.28257 2.27051 0.5
3 0.717884 1.31329 2.61643 0.5
4 1.92195 2.12882 0.814727 0.5
5 3.49023 0.13088 3.71874 0.5
6 3.69995 0.472852 3.0195 0.5
7 1.01268 2.14611 2.96349 0.5
8 0.388692 2.24289 0.961547 0.5
9 1.2348 3.70456 0.891919 0.5
10 2.61095 2.60453 3.58379 0.5
11 3.22582 3.17293 0.410931 0.5
12 0.748077 1.2735 0.433061 0.5
13 2.74444 1.06009 2.66739 0.5
14 2.98285 3.41907 2.22062 0.5
15 0.678462 2.27173 3.80735 0.5
16 1.64176 1.31898 2.62319 0.5
17 2.07726 3.08945 1.53726 0.5
18 2.63522 0.326509 3.1399 0.5
19 3.45642 1.51938 1.06954 0.5
20 0.00876341 2.24671 1.73543 0.5
21 1.19989 2.10823 0.827685 0.5
22 3.07462 0.942411 3.64078 0.5
23 0.345717 1.51981 1.50414 0.5
24 2.03217 2.51096 3.05012 0.5
25 2.12632 3.18697 0.307504 0.5
26 2.29975 3.48491 3.07582 0.5
27 1.05462 3.79981 3.75534 0.5
28 3.51996 1.95926 2.29492 0.5
29 1.56699 3.95259 1.72552 0.5
30 2.76562 1.69369 1.69302 0.5
31 2.08321 1.99115 2.02702 0.5
32 1.63027 0.593176 3.79226 0.5
33 2.02646 0.984941 3.30448 0.5
34 2.77995 2.6692 1.8393 0.5
35 2.32124 0.180188 1.66977 0.5
36 0.201323 2.906 0.541164 0.5
37 3.84507 1.20713 2.3234 0.5
38 0.0193271 2.98337 2.33012 0.5
39 3.31881 2.32887 1.11694 0.5
40 0.967471 2.92851 0.136789 0.5
41 1.24807 2.86626 0.976425 0.5
42 3.68097 0.718735 1.78769 0.5
43 0.524072 3.36661 3.17166 0.5
44 3.74618 3.89295 1.61734 0.5
45 1.38479 3.17466 3.52009 0.5
46 2.83998 2.24911 2.68411 0.5
47 3.39537 1.86112 3.02422 0.5
48 0.669371 0.675787 3.29785 0.5
49 1.28474 1.69224 1.49567 0.5
50 1.42129 0.198662 2.85527 0.5
