ITEM: TIMESTEP
310000
ITEM: NUMBER OF ATOMS
50
ITEM: BOX BOUNDS xy xz yz pp pp pp
0.0000000000000000e+00 3.9685030000000001e+00 0.0000000000000000e+00
0.0000000000000000e+00 3.9685030000000001e+00 0.0000000000000000e+00
0.0000000000000000e+00 3.9685030000000001e+00 0.0000000000000000e+00
ITEM: ATOMS id x y z radius
1 1.32024 0.696857 3.31747 0.5
2 1.64229 3.56803 1.46853 0.5
3 2.63804 0.94326 2.02343 0.5
4 2.1572 2.23898 1.01517 0.5
5 2.18043 1.35949 3.74628 0.5
6 0.905542 1.32133 2.93431 0.5
7 3.64371 1.63913 1.33048 0.5
8 0.739259 1.41945 3.75947 0.5
9 2.65429 2.66568 0.419753 0.5
10 2.87763 1.34002 2.99951 0.5
11 1.84696 2.8471 0.520423 0.5
12 2.42434 2.16033 2.60119 0.5
13 0.158107 3.72997 0.612917 0.5
14 2.86164 1.84083 0.555179 0.5
15 3.9044 2.04026 2.70053 0.5
16 1.14597 0.366571 1.78843 0.5
17 2.74743 0.976123 1.18429 0.5
18 2.12415 0.454286 3.54701 0.5
19 1.30682 0.410414 0.1198 0.5
20 1.22384 1.16196 1.19104 0.5
21 1.34827 1.40032 2.25325 0.5
22 0.878131 2.4823 2.77761 0.5
23 3.10819 2.73283 3.38671 0.5
24 0.745605 0.252802 2.5171 0.5
25 0.213071 1.00431 1.37897 0.5
26 3.11352 3.67047 0.0472541 0.5
27 1.67898 1.3758 0.314647 0.5
28 1.23464 3.68721 3.28595 0.5
29 3.191 2.74325 2.56281 0.5
30 2.58391 0.837415 0.181807 0.5
31 1.14898 2.21566 1.01002 0.5
32 3.33942 0.389715 1.39789 0.5
33 1.70356 2.87003 2.12349 0.5
34 2.31351 2.21788 3.83071 0.5
35 3.51434 2.81743 1.67705 0.5
36 3.79319 0.903603 3.07912 0.5
37 1.90918 0.46493 2.35153 0.5
38 2.71612 3.26318 3.2935 0.5
39 1.84947 1.25712 2.89114 0.5
40 3.62854 1.96059 3.48065 0.5
41 3.1449 3.03567 0.750134 0.5
42 0.210242 0.447443 1.95906 0.5
43 2.14823 3.66302 0.55774 0.5
44 1.62 2.00778 1.70567 0.5
45 1.50664 1.86703 3.43099 0.5
46 0.424326 0.723467 0.418472 0.5
47 0.286252 2.10767 0.0310362 0.5
48 2.36547 2.9707 1.28982 0.5
49 2.06453 2.42544 3.31612 0.5
50 3.16787 0.500263 3.48119 0.5
