ITEM: TIMESTEP
80000
ITEM: NUMBER OF ATOMS
50
ITEM: BOX BOUNDS xy xz yz pp pp pp
0.0000000000000000e+00 3.9685030000000001e+00 0.0000000000000000e+00
0.0000000000000000e+00 3.9685030000000001e+00 0.0000000000000000e+00
0.0000000000000000e+00 3.9685030000000001e+00 0.0000000000000000e+00
ITEM: ATOMS id x y z radius
1 3.61581 0.557255 0.818257 0.5
2 3.7905 0.363532 2.72299 0.5
3 3.33443 1.39924 0.222083 0.5
4 2.39546 1.49642 1.32175 0.5
5 2.15924 1.34055 3.70226 0.5
6 2.35291 0.0294918 2.12251 0.5
7 3.25734 1.29596 1.76163 0.5
8 2.30593 0.169778 0.923291 0.5
9 2.83942 1.65488 2.51816 0.5
10 2.78679 2.20868 3.78723 0.5
11 0.013816 2.15571 3.69887 0.5
12 2.52905 0.689131 2.87019 0.5
13 0.737356 0.710237 3.04923 0.5
14 1.39692 1.98315 2.454 0.5
15 0.724865 1.44184 2.48674 0.5
16 0.175889 3.05818 3.86517 0.5
17 0.176666 1.50507 0.484176 0.5
18 2.09889 3.3403 1.19826 0.5
19 2.33009 0.997344 2.13778 0.5
20 1.99184 2.81755 3.38752 0.5
21 3.715 0.24957 3.78784 0.5
22 3.71127 1.16983 2.84759 0.5
23 0.682741 0.0862418 2.28785 0.5
24 3.13511 0.361994 1.98693 0.5
25 1.77972 0.287106 3.04517 0.5
26 0.809237 0.210441 3.95068 0.5
27 3.51051 3.89883 1.43983 0.5
28 1.0095 3.52607 3.40329 0.5
29 1.89488 1.32922 2.8305 0.5
30 1.28598 0.799257 3.73998 0.5
31 0.87412 0.87827 0.671967 0.5
32 2.96706 2.27264 1.70127 0.5
33 2.24254 2.18764 2.82444 0.5
34 0.870327 2.1268 1.72075 0.5
35 2.21833 3.42446 0.226203 0.5
36 0.367709 3.64661 0.532248 0.5
37 2.93002 2.67271 3.23874 0.5
38 0.993545 3.17143 2.37981 0.5
39 2.36712 2.98587 1.91283 0.5
40 0.495793 2.38711 3.06708 0.5
41 2.47193 2.59093 0.73 0.5
42 3.3033 3.55189 0.478121 0.5
43 0.362671 3.84414 3.0428 0.5
44 3.23967 3.42635 2.5492 0.5
45 0.986781 3.08149 0.340491 0.5
46 0.0407064 0.708821 1.79927 0.5
47 2.61637 0.247829 3.83649 0.5
48 2.24753 0.984124 0.483103 0.5
49 3.88002 2.66359 0.700417 0.5
50 3.42965 3.48981 3.43515 0.5
