ITEM: TIMESTEP
160000
ITEM: NUMBER OF ATOMS
50
ITEM: BOX BOUNDS xy xz yz pp pp pp
0.0000000000000000e+00 3.9685030000000001e+00 0.0000000000000000e+00
0.0000000000000000e+00 3.9685030000000001e+00 0.0000000000000000e+00
0.0000000000000000e+00 3.9685030000000001e+00 0.0000000000000000e+00
ITEM: ATOMS id x y z radius
1 2.1673 2.18274 0.790275 0.5
2 0.598652 3.20488 3.92276 0.5
3 3.43097 3.15521 1.69534 0.5
4 1.07889 1.29567 3.05309 0.5
5 2.77119 3.35938 0.233813 0.5
6 3.27661 1.51401 1.53509 0.5
7 2.05078 1.36481 3.69919 0.5
8 0.972838 1.92194 1.02789 0.5
9 1.97016 3.34942 1.82506 0.5
10 1.31075 0.624058 3.84337 0.5
11 2.4598 0.0349351 1.08934 0.5
12 0.819597 0.457465 0.932702 0.5
13 2.91216 1.9792 0.560183 0.5
14 3.07926 2.57186 3.29348 0.5
15 1.56063 0.487771 2.23282 0.5
16 1.07125 0.0284266 1.76049 0.5
17 3.51864 1.60746 3.67532 0.5
18 1.31173 1.30285 1.40196 0.5
19 3.96074 0.362571 0.0641318 0.5
20 1.57208 1.38547 0.497926 0.5
21 1.27812 2.95847 3.63295 0.5
22 3.07477 1.7564 2.16722 0.5
23 0.130314 2.22874 2.52915 0.5
24 0.253944 0.155408 1.8867 0.5
25 -0.0745821 0.560892 2.85791 0.5
26 0.351144 3.22114 1.93285 0.5
27 2.62731 2.5786 2.09262 0.5
28 0.882022 3.04391 2.55733 0.5
29 3.255 3.87524 1.99411 0.5
30 3.79016 2.67003 0.990127 0.5
31 2.11509 3.8674 3.17083 0.5
32 0.94873 2.22793 0.112221 0.5
33 0.245685 0.951101 1.48759 0.5
34 3.33789 0.0335875 0.916929 0.5
35 0.89625 3.79343 2.59283 0.5
36 2.26026 2.11551 2.80536 0.5
37 2.92714 0.622507 3.34444 0.5
38 1.56318 3.80195 1.26317 0.5
39 2.49534 0.173413 2.3149 0.5
40 0.805924 1.30268 2.37969 0.5
41 3.69028 1.93101 0.582389 0.5
42 3.56605 3.16476 0.0213768 0.5
43 1.13718 3.06121 0.979379 0.5
44 2.2334 0.352389 0.229407 0.5
45 0.117511 1.65836 2.96446 0.5
46 3.76685 1.10594 0.980582 0.5
47 2.33872 2.5293 3.63428 0.5
48 1.19326 3.3091 1.92064 0.5
49 2.03196 3.04352 2.62095 0.5
50 2.35093 1.15985 0.551509 0.5
