ITEM: TIMESTEP
850000
ITEM: NUMBER OF ATOMS
50
ITEM: BOX BOUNDS xy xz yz pp pp pp
0.0000000000000000e+00 3.9685030000000001e+00 0.0000000000000000e+00
0.0000000000000000e+00 3.9685030000000001e+00 0.0000000000000000e+00
0.0000000000000000e+00 3.9685030000000001e+00 0.0000000000000000e+00
ITEM: ATOMS id x y z radius
1 1.74878 3.5794 2.27716 0.5
2 0.351031 1.4556 1.43147 0.5
3 2.13373 0.760511 0.11737 0.5
4 0.684321 1.97726 2.24445 0.5
5 0.507962 0.977424 3.11292 0.5
6 0.547916 0.161442 2.82315 0.5
7 0.600878 2.94077 3.76843 0.5
8 0.77953 0.369768 3.68477 0.5
9 1.19532 3.40556 3.08359 0.5
10 0.183525 0.780603 0.463464 0.5
11 0.912038 2.30352 2.8773 0.5
12 1.08189 3.93199 1.26363 0.5
13 3.21707 2.08587 3.30482 0.5
14 2.73396 1.96118 2.50289 0.5
15 3.20602 0.92889 0.533482 0.5
16 2.93649 1.90294 1.02733 0.5
17 1.08219 1.62741 3.90231 0.5
18 3.61667 0.195337 0.962406 0.5
19 3.50029 1.39201 2.62655 0.5
20 3.6314 2.61972 0.676537 0.5
21 2.0097 2.1793 0.224158 0.5
22 1.18098 2.86392 2.06268 0.5
23 1.66459 0.73693 1.2347 0.5
24 3.67599 1.62515 0.372392 0.5
25 3.92808 3.1256 2.74582 0.5
26 2.74426 1.28726 1.69375 0.5
27 3.78405 0.182925 2.11077 0.5
28 0.183649 1.70992 3.03948 0.5
29 0.281837 2.21331 0.277512 0.5
30 2.35179 1.57353 0.633258 0.5
31 1.81757 2.70513 3.32647 0.5
32 2.42392 2.75366 2.57366 0.5
33 1.83026 2.54633 1.3448 0.5
34 2.46584 2.70848 0.445459 0.5
35 1.07899 0.193721 0.425373 0.5
36 3.48681 0.292949 2.87223 0.5
37 2.74835 1.53003 3.83065 0.5
38 2.8471 0.495258 1.45068 0.5
39 3.85422 1.26036 3.70164 0.5
40 0.392733 3.82257 0.481138 0.5
41 3.94925 3.4714 3.68384 0.5
42 0.184214 2.50631 1.64486 0.5
43 1.0264 2.48367 0.637555 0.5
44 0.506917 0.466074 1.38691 0.5
45 1.04169 1.26414 0.880816 0.5
46 2.28203 0.757999 3.03641 0.5
47 0.177184 1.24238 2.14618 0.5
48 3.80404 2.38942 2.34379 0.5
49 2.82667 3.58539 1.87372 0.5
50 2.28375 2.1451 3.4519 0.5
