ITEM: TIMESTEP
560000
ITEM: NUMBER OF ATOMS
50
ITEM: BOX BOUNDS xy xz yz pp pp pp
0.0000000000000000e+00 3.9685030000000001e+00 0.0000000000000000e+00
0.0000000000000000e+00 3.9685030000000001e+00 0.0000000000000000e+00
0.0000000000000000e+00 3.9685030000000001e+00 0.0000000000000000e+00
ITEM: ATOMS id x y z radius
1 2.43328 2.31502 3.25103 0.5
2 3.83266 2.07957 3.3326 0.5
3 3.12003 2.93422 1.6337 0.5
4 0.681832 3.32247 0.521403 0.5
5 2.8554 3.18092 2.59777 0.5
6 2.10634 0.6042 0.259218 0.5
7 1.44306 2.89173 1.2427 0.5
8 2.61458 3.92434 0.311815 0.5
9 1.14432 3.71138 1.7093 0.5
10 2.72602 2.18842 0.0207798 0.5
11 1.37108 3.45809 2.68165 0.5
12 0.413851 2.00138 1.70751 0.5
13 2.07657 1.47113 3.3849 0.5
14 2.80872 3.90217 2.23519 0.5
15 1.22086 1.48334 2.59053 0.5
16 0.888562 2.17286 3.17604 0.5
17 2.13532 3.32456 3.07259 0.5
18 2.22157 1.40143 1.0753 0.5
19 2.98076 0.810572 3.68988 0.5
20 3.69549 2.60154 0.137885 0.5
21 1.93745 2.73727 2.51574 0.5
22 2.87702 3.07662 0.787821 0.5
23 2.43191 2.39016 1.4237 0.5
24 3.06392 2.77153 3.21935 0.5
25 0.351051 0.0853723 2.42551 0.5
26 0.460854 0.0702626 0.908943 0.5
27 0.222331 0.176037 3.92273 0.5
28 1.86997 2.31472 0.61397 0.5
29 3.47188 3.49178 3.54308 0.5
30 3.89022 1.29385 1.52293 0.5
31 2.33709 1.71746 1.9327 0.5
32 1.45794 1.18198 3.9133 0.5
33 2.05933 0.921398 2.44586 0.5
34 2.77461 0.864938 1.17191 0.5
35 1.45938 0.54317 0.777405 0.5
36 1.61833 0.694209 1.69367 0.5
37 1.38206 1.54232 1.86676 0.5
38 2.184 0.101603 1.09414 0.5
39 1.78295 3.94795 2.2427 0.5
40 3.65438 2.51907 2.17951 0.5
41 0.743637 0.958929 2.98919 0.5
42 2.1179 3.42632 1.51289 0.5
43 0.79485 1.17207 1.53021 0.5
44 3.43263 3.95557 2.8056 0.5
45 1.31391 1.6078 0.799649 0.5
46 0.0424414 0.446296 3.10571 0.5
47 1.01181 2.18847 0.0636592 0.5
48 3.30705 1.63304 2.28807 0.5
49 1.12144 3.81679 3.76906 0.5
50 3.50971 1.95456 0.919034 0.5
