ITEM: TIMESTEP
130000
ITEM: NUMBER OF ATOMS
50
ITEM: BOX BOUNDS xy xz yz pp pp pp
0.0000000000000000e+00 3.9685030000000001e+00 0.0000000000000000e+00
0.0000000000000000e+00 3.9685030000000001e+00 0.0000000000000000e+00
0.0000000000000000e+00 3.9685030000000001e+00 0.0000000000000000e+00
ITEM: ATOMS id x y z radius
1 1.74478 0.282448 1.5292 0.5
2 3.66058 0.529101 0.849356 0.5
3 2.21945 1.14976 1.63423 0.5
4 3.76993 0.830463 1.61393 0.5
5 3.61174 1.5505 2.36875 0.5
6 0.0565674 2.57875 2.21955 0.5
7 3.2445 3.5567 2.73649 0.5
8 0.500007 2.56321 1.14925 0.5
9 0.81402 2.36263 3.55044 0.5
10 0.71455 3.26723 -0.00983263 0.5
11 2.67592 1.88731 1.66467 0.5
12 1.61812 0.0344546 0.483565 0.5
13 1.38002 0.951423 1.95267 0.5
14 1.92411 1.41047 3.15267 0.5
15 0.758957 3.32367 2.70629 0.5
16 1.15889 3.60474 1.78145 0.5
17 1.706 2.79531 3.77149 0.5
18 3.2149 3.88641 3.48569 0.5
19 2.59139 2.83946 1.45311 0.5
20 0.0715017 3.44823 3.32086 0.5
21 0.457294 3.78175 1.69324 0.5
22 0.963155 1.69868 2.07846 0.5
23 3.74823 2.13047 1.08677 0.5
24 1.80948 2.43512 0.706573 0.5
25 2.78284 0.432933 1.95173 0.5
26 1.72128 0.364952 2.98923 0.5
27 0.761843 0.398605 1.007 0.5
28 2.45277 -0.00194021 0.0770559 0.5
29 3.67494 0.592727 2.86278 0.5
30 1.24084 1.5001 3.91409 0.5
31 2.07305 0.686871 3.84202 0.5
32 1.16789 0.604024 0.0294509 0.5
33 0.76596 0.157241 3.26999 0.5
34 2.07942 3.3695 1.05804 0.5
35 0.445465 2.22331 0.429447 0.5
36 1.44753 2.73962 1.69896 0.5
37 3.03483 2.99314 0.511491 0.5
38 2.06363 1.45361 0.423542 0.5
39 1.96395 3.33838 1.84881 0.5
40 1.78571 2.02693 2.29639 0.5
41 0.0703309 1.8845 3.36706 0.5
42 0.926056 1.21533 3.09969 0.5
43 1.83755 3.02704 2.70562 0.5
44 2.95755 1.75136 3.14522 0.5
45 3.28823 1.12242 0.274714 0.5
46 0.321351 1.40547 2.74058 0.5
47 1.25475 3.67465 3.57216 0.5
48 3.42318 2.75721 3.19584 0.5
49 2.66701 2.25056 0.0589957 0.5
50 2.8933 0.577061 1.26786 0.5
