ITEM: TIMESTEP
620000
ITEM: NUMBER OF ATOMS
50
ITEM: BOX BOUNDS xy xz yz pp pp pp
0.0000000000000000e+00 3.9685030000000001e+00 0.0000000000000000e+00
0.0000000000000000e+00 3.9685030000000001e+00 0.0000000000000000e+00
0.0000000000000000e+00 3.9685030000000001e+00 0.0000000000000000e+00
ITEM: ATOMS id x y z radius
1 0.472907 3.78705 1.26523 0.5
2 3.08744 2.12535 0.325561 0.5
3 2.9734 2.75237 3.47393 0.5
4 3.52398 1.71513 0.967455 0.5
5 0.346116 1.45819 2.44636 0.5
6 2.40676 1.79402 2.92664 0.5
7 1.15951 0.799839 2.88738 0.5
8 1.76119 1.21875 2.11762 0.5
9 3.29914 1.03825 2.05352 0.5
10 3.82317 2.91758 3.7016 0.5
11 1.08843 1.56011 1.53145 0.5
12 1.46419 0.0236681 2.66698 0.5
13 0.475777 2.19555 3.64713 0.5
14 3.82873 1.81964 3.31577 0.5
15 2.81044 2.36453 2.26237 0.5
16 3.33331 2.92736 0.549536 0.5
17 3.22956 0.2393 3.75411 0.5
18 1.01187 0.157268 0.624817 0.5
19 1.85234 1.38825 0.825829 0.5
20 2.76306 0.215973 1.72101 0.5
21 3.82865 0.468809 2.66167 0.5
22 1.96528 1.94456 1.55723 0.5
23 2.13924 1.50573 3.75008 0.5
24 1.49243 2.00485 2.52207 0.5
25 3.83997 1.73292 1.66356 0.5
26 2.84598 0.507298 0.922094 0.5
27 3.32491 1.22789 0.124268 0.5
28 3.06409 2.18805 1.50829 0.5
29 1.71861 3.39847 3.41911 0.5
30 0.0905764 0.637973 0.480388 0.5
31 2.51264 1.41943 1.8374 0.5
32 0.231275 2.47466 1.30039 0.5
33 0.982153 1.01134 0.290022 0.5
34 0.926673 3.84997 3.42146 0.5
35 0.477174 3.65022 2.62261 0.5
36 1.49483 2.72065 0.933383 0.5
37 2.57706 3.12238 1.33579 0.5
38 1.80358 3.46241 0.805996 0.5
39 2.41193 2.75554 0.406434 0.5
40 1.51804 2.16383 3.63049 0.5
41 1.40212 1.87643 0.723944 0.5
42 2.56472 2.23794 0.828629 0.5
43 3.90293 3.79611 3.73003 0.5
44 2.54087 0.804395 2.68215 0.5
45 0.541011 1.81422 0.835874 0.5
46 0.566959 2.95607 2.09245 0.5
47 1.28763 3.65982 1.81923 0.5
48 3.32859 3.76614 1.51527 0.5
49 0.559809 0.485007 2.13002 0.5
50 0.801304 3.2711 0.0334927 0.5
