ITEM: TIMESTEP
150000
ITEM: NUMBER OF ATOMS
50
ITEM: BOX BOUNDS xy xz yz pp pp pp
0.0000000000000000e+00 3.9685030000000001e+00 0.0000000000000000e+00
0.0000000000000000e+00 3.9685030000000001e+00 0.0000000000000000e+00
0.0000000000000000e+00 3.9685030000000001e+00 0.0000000000000000e+00
ITEM: ATOMS id x y z radius
1 1.68639 3.77363 2.53599 0.5
2 0.597474 3.63667 1.11945 0.5
3 2.90318 0.414071 0.854447 0.5
4 2.19134 2.06616 0.359391 0.5
5 2.70275 2.78977 3.74195 0.5
6 2.6733 1.53578 2.8452 0.5
7 2.33008 1.76747 1.16423 0.5
8 2.69345 3.24472 1.32581 0.5
9 1.79972 1.18081 1.28409 0.5
10 2.83 3.65806 0.403329 0.5
11 2.25799 3.65708 0.856408 0.5
12 3.0439 3.1381 3.3082 0.5
13 0.141952 3.83482 3.89381 0.5
14 3.39825 0.333288 3.75625 0.5
15 2.5685 0.620519 3.60177 0.5
16 2.77477 2.39234 1.10984 0.5
17 0.936825 1.18827 1.57666 0.5
18 3.95074 3.96406 0.658366 0.5
19 3.55621 2.23874 3.84888 0.5
20 3.329 1.53515 1.66597 0.5
21 2.53643 2.35163 1.96978 0.5
22 1.58093 2.88541 2.03697 0.5
23 3.47636 0.0494341 2.90534 0.5
24 2.63617 0.616831 1.90834 0.5
25 2.0151 2.26943 2.90532 0.5
26 1.59347 1.8105 2.15978 0.5
27 3.72489 2.26051 0.927923 0.5
28 2.43536 3.92343 3.03042 0.5
29 2.31723 1.06045 0.406395 0.5
30 0.684013 2.66566 2.34667 0.5
31 3.68563 1.45666 3.61867 0.5
32 1.35908 1.87583 0.62381 0.5
33 3.01658 3.33913 2.41443 0.5
34 1.79674 3.52743 3.70964 0.5
35 3.57871 1.07626 2.62813 0.5
36 2.23304 0.779951 2.72718 0.5
37 3.56736 3.69649 1.6201 0.5
38 1.78788 2.33446 1.37671 0.5
39 0.273543 1.65918 2.18873 0.5
40 0.826256 3.25135 3.58793 0.5
41 2.15204 3.06789 2.68338 0.5
42 2.90877 2.45622 2.70502 0.5
43 0.231676 0.650919 3.42279 0.5
44 3.27363 1.50936 0.416915 0.5
45 0.382622 3.83052 2.9668 0.5
46 0.405177 0.656787 2.42021 0.5
47 0.395594 2.7683 1.4209 0.5
48 0.907564 0.582772 0.89687 0.5
49 1.30119 0.799836 0.22286 0.5
50 3.94051 1.16728 0.427088 0.5
