ITEM: TIMESTEP
860000
ITEM: NUMBER OF ATOMS
50
ITEM: BOX BOUNDS xy xz yz pp pp pp
0.0000000000000000e+00 3.9685030000000001e+00 0.0000000000000000e+00
0.0000000000000000e+00 3.9685030000000001e+00 0.0000000000000000e+00
0.0000000000000000e+00 3.9685030000000001e+00 0.0000000000000000e+00
ITEM: ATOMS id x y z radius
1 1.92522 3.28141 3.84626 0.5
2 2.91259 0.57464 0.104832 0.5
3 1.61413 1.52278 1.04303 0.5
4 2.34629 2.85502 2.40049 0.5
5 3.11126 3.78808 0.514021 0.5
6 1.28986 2.55687 0.802088 0.5
7 3.62213 1.85954 3.73659 0.5
8 2.52379 1.55217 3.54397 0.5
9 0.255084 1.48568 0.277975 0.5
10 3.69776 1.3783 1.94641 0.5
11 0.701797 1.21369 1.08803 0.5
12 2.15969 2.30351 0.136253 0.5
13 2.63723 2.28111 3.01093 0.5
14 2.48055 0.7378 1.1864 0.5
15 0.701516 1.61904 1.72126 0.5
16 2.62201 2.8123 0.62668 0.5
17 1.38213 0.19825 3.68622 0.5
18 0.14511 2.67732 0.890551 0.5
19 1.81095 0.154225 2.56386 0.5
20 2.46748 1.66279 2.1702 0.5
21 3.53635 0.233837 3.08415 0.5
22 0.15224 1.16849 3.19761 0.5
23 0.881688 3.35015 0.941968 0.5
24 1.78098 1.79524 2.7952 0.5
25 2.07764 2.76107 3.10965 0.5
26 0.814835 2.00064 3.30226 0.5
27 0.423566 0.243621 0.866442 0.5
28 2.8635 3.72364 1.98285 0.5
29 3.8542 0.735664 0.066252 0.5
30 3.31993 1.55519 0.482617 0.5
31 0.675894 2.40674 2.11215 0.5
32 1.47902 3.20177 2.11833 0.5
33 2.95892 2.70723 3.70281 0.5
34 0.223409 2.47848 0.30632 0.5
35 3.30668 1.50073 2.92319 0.5
36 3.40458 2.36122 2.38755 0.5
37 3.04839 3.01975 2.70052 0.5
38 4.0042 1.8749 1.18547 0.5
39 3.75384 0.518703 2.43104 0.5
40 1.60446 1.34093 3.62087 0.5
41 0.113715 3.35236 1.44011 0.5
42 3.69338 3.70767 0.0534459 0.5
43 0.562706 0.322692 3.45186 0.5
44 1.22797 2.52981 3.93725 0.5
45 3.33145 2.65119 1.37292 0.5
46 0.995678 3.06169 3.06353 0.5
47 0.611207 0.0395861 2.3212 0.5
48 1.32251 4.00821 1.69235 0.5
49 2.23736 0.529409 3.21008 0.5
50 2.78549 3.71726 3.42908 0.5
