ITEM: TIMESTEP
710000
ITEM: NUMBER OF ATOMS
50
ITEM: BOX BOUNDS xy xz yz pp pp pp
0.0000000000000000e+00 3.9685030000000001e+00 0.0000000000000000e+00
0.0000000000000000e+00 3.9685030000000001e+00 0.0000000000000000e+00
0.0000000000000000e+00 3.9685030000000001e+00 0.0000000000000000e+00
ITEM: ATOMS id x y z radius
1 3.06937 0.869516 2.19676 0.5
2 2.05034 1.99716 3.04188 0.5
3 2.87712 0.722643 3.90393 0.5
4 0.185063 1.0135 1.41282 0.5
5 3.33023 1.15441 3.16422 0.5
6 0.716818 1.21288 0.619904 0.5
7 1.08272 3.23753 0.733116 0.5
8 0.0803799 0.147846 2.06235 0.5
9 3.00825 2.03398 0.546073 0.5
10 3.70272 2.63371 0.31535 0.5
11 1.89133 0.410732 3.48001 0.5
12 3.56285 3.27336 3.45674 0.5
13 1.5876 3.46568 3.06333 0.5
14 3.87463 2.31493 1.50836 0.5
15 3.93613 1.62933 0.938472 0.5
16 1.21239 0.344017 0.544675 0.5
17 3.4758 3.55635 0.481694 0.5
18 1.54192 1.05093 1.05277 0.5
19 0.409424 1.78895 3.25725 0.5
20 3.48258 0.644014 0.73446 0.5
21 2.81445 0.470449 2.99729 0.5
22 0.763331 2.09643 1.06173 0.5
23 1.77288 1.55443 0.67866 0.5
24 1.25288 1.0401 3.1776 0.5
25 2.14006 2.2307 0.153551 0.5
26 2.22194 1.34231 2.49438 0.5
27 2.33428 1.15413 3.293 0.5
28 3.9204 0.777903 3.92401 0.5
29 0.751181 2.85845 3.31379 0.5
30 1.34562 2.69957 2.46542 0.5
31 2.88599 1.53385 1.59517 0.5
32 2.02501 2.96925 0.905885 0.5
33 1.86437 3.90449 1.20801 0.5
34 0.181929 2.64344 3.01047 0.5
35 0.481082 2.49243 0.104541 0.5
36 0.0140935 3.14561 1.38688 0.5
37 3.49966 0.247091 3.5422 0.5
38 3.65213 3.81456 2.81516 0.5
39 1.12097 1.75836 0.0593765 0.5
40 0.923994 0.154292 3.57066 0.5
41 2.14615 0.82818 1.70591 0.5
42 2.63163 3.9744 2.17615 0.5
43 1.09186 0.885472 1.8335 0.5
44 2.66304 3.13307 3.16118 0.5
45 1.42871 2.18646 1.47922 0.5
46 1.16309 2.28645 3.00903 0.5
47 3.04152 1.98212 3.54093 0.5
48 1.05861 3.36597 1.5183 0.5
49 1.43851 2.81183 3.90585 0.5
50 3.74533 1.60064 1.98312 0.5
