ITEM: TIMESTEP
10000
ITEM: NUMBER OF ATOMS
50
ITEM: BOX BOUNDS xy xz yz pp pp pp
0.0000000000000000e+00 3.9685030000000001e+00 0.0000000000000000e+00
0.0000000000000000e+00 3.9685030000000001e+00 0.0000000000000000e+00
0.0000000000000000e+00 3.9685030000000001e+00 0.0000000000000000e+00
ITEM: ATOMS id x y z radius
1 3.02253 2.72125 2.53273 0.5
2 3.70178 2.18989 3.51227 0.5
3 2.76744 1.45309 0.491756 0.5
4 3.83044 1.33672 0.53753 0.5
5 0.513309 1.25746 1.14748 0.5
6 0.955187 1.39684 3.84644 0.5
7 2.06589 3.4321 3.86572 0.5
8 1.69591 0.509691 1.59922 0.5
9 3.09958 3.72707 0.340866 0.5
10 1.78926 3.92246 3.02351 0.5
11 2.34371 0.381168 0.0149099 0.5
12 0.950883 3.32813 2.16195 0.5
13 2.14973 2.47341 2.98392 0.5
14 1.50561 2.12856 2.28969 0.5
15 1.13352 1.69459 3.00603 0.5
16 1.19177 2.27424 1.10311 0.5
17 0.856211 0.328843 1.88624 0.5
18 1.5356 1.32561 0.762619 0.5
19 0.383226 1.97496 1.7071 0.5
20 1.94932 0.767749 2.80871 0.5
21 2.16915 2.2099 0.595539 0.5
22 2.82018 3.84098 2.92542 0.5
23 3.9468 0.0869985 3.89833 0.5
24 1.15905 2.99523 0.922974 0.5
25 2.93528 2.82862 3.50337 0.5
26 1.50389 0.142149 0.256464 0.5
27 3.11678 3.32223 1.25088 0.5
28 2.82454 0.912455 3.56097 0.5
29 0.796921 2.45001 0.345378 0.5
30 3.94207 0.0560982 2.15205 0.5
31 2.7257 0.83589 2.56104 0.5
32 3.62274 2.33523 1.76845 0.5
33 2.35676 3.29087 2.03231 0.5
34 1.27599 2.41576 3.442 0.5
35 3.75135 3.12275 2.98365 0.5
36 0.535037 2.69478 2.82813 0.5
37 0.614161 3.49248 0.584901 0.5
38 0.279646 0.524294 0.906157 0.5
39 1.87575 3.63524 1.20117 0.5
40 1.15167 3.33827 3.69986 0.5
41 1.41426 0.782436 3.55579 0.5
42 2.87359 1.86744 2.84362 0.5
43 3.10946 0.796826 0.547697 0.5
44 0.160543 2.89688 1.25331 0.5
45 3.25983 2.29272 0.261946 0.5
46 3.25223 0.147609 1.571 0.5
47 0.949344 1.54037 2.0017 0.5
48 1.01366 3.9437 1.08234 0.5
49 2.3536 0.371485 0.673783 0.5
50 2.22144 1.61885 3.78462 0.5
