ITEM: TIMESTEP
660000
ITEM: NUMBER OF ATOMS
50
ITEM: BOX BOUNDS xy xz yz pp pp pp
0.0000000000000000e+00 3.9685030000000001e+00 0.0000000000000000e+00
0.0000000000000000e+00 3.9685030000000001e+00 0.0000000000000000e+00
0.0000000000000000e+00 3.9685030000000001e+00 0.0000000000000000e+00
ITEM: ATOMS id x y z radius
1 2.10397 1.21109 1.91542 0.5
2 2.08894 1.49756 0.119162 0.5
3 3.17676 1.16823 1.73218 0.5
4 2.69623 3.47819 3.63818 0.5
5 2.70963 1.50943 3.67308 0.5
6 1.14247 1.45602 0.612757 0.5
7 2.14598 0.514779 0.31395 0.5
8 1.47824 2.18311 2.89291 0.5
9 3.13487 0.0723174 3.77961 0.5
10 3.45874 3.38362 1.52541 0.5
11 2.51324 0.864786 1.04525 0.5
12 0.212198 3.21879 2.9766 0.5
13 2.72961 2.21059 3.04996 0.5
14 1.83832 2.86558 3.61976 0.5
15 0.801847 2.0862 3.30944 0.5
16 2.79523 1.75812 0.992203 0.5
17 3.25532 1.98093 3.73617 0.5
18 3.4619 3.02293 0.368518 0.5
19 1.6258 0.125367 3.77005 0.5
20 1.98023 3.8035 2.21395 0.5
21 0.304128 2.90503 3.76823 0.5
22 2.77868 2.79921 0.87324 0.5
23 0.400455 3.87326 2.03081 0.5
24 1.90956 0.851957 3.13112 0.5
25 3.00868 2.48534 1.84074 0.5
26 2.51667 3.48713 1.68957 0.5
27 0.84596 2.63152 0.659945 0.5
28 3.52223 2.05128 0.917545 0.5
29 3.17768 0.440129 1.39546 0.5
30 1.71493 2.81506 0.593556 0.5
31 2.61963 2.99884 2.55014 0.5
32 3.94851 -1.20611e-05 0.604482 0.5
33 1.29393 1.38845 2.58965 0.5
34 0.0779471 2.00131 0.0188842 0.5
35 3.1997 0.750825 0.454416 0.5
36 3.49589 2.82085 2.28984 0.5
37 1.24208 3.86082 2.7852 0.5
38 0.478066 3.54041 3.89505 0.5
39 2.78106 1.1778 2.76802 0.5
40 3.77852 3.81418 3.46896 0.5
41 0.482024 1.28297 3.12438 0.5
42 0.13118 2.42669 1.60043 0.5
43 0.424526 0.333432 1.22644 0.5
44 0.0234105 1.24501 1.21493 0.5
45 3.33843 0.00755225 2.42751 0.5
46 0.919703 0.724193 3.91245 0.5
47 1.91076 2.83511 1.93474 0.5
48 1.07469 0.337173 1.90144 0.5
49 1.94049 1.37865 0.997457 0.5
50 2.76333 3.73709 0.635943 0.5
