ITEM: TIMESTEP
260000
ITEM: NUMBER OF ATOMS
50
ITEM: BOX BOUNDS xy xz yz pp pp pp
0.0000000000000000e+00 3.9685030000000001e+00 0.0000000000000000e+00
0.0000000000000000e+00 3.9685030000000001e+00 0.0000000000000000e+00
0.0000000000000000e+00 3.9685030000000001e+00 0.0000000000000000e+00
ITEM: ATOMS id x y z radius
1 2.57076 3.72482 1.90319 0.5
2 1.40548 1.40377 0.793546 0.5
3 0.0905268 3.33596 2.8728 0.5
4 0.862397 0.909096 3.34106 0.5
5 0.24963 0.194706 3.13977 0.5
6 2.57154 0.560121 1.507 0.5
7 2.55056 3.43408 3.68933 0.5
8 0.0277999 3.00851 1.82874 0.5
9 3.28172 0.090446 0.102268 0.5
10 1.61773 1.99657 3.35863 0.5
11 2.98296 0.0274753 0.908882 0.5
12 1.78927 2.21884 1.71806 0.5
13 0.670718 2.40438 0.973196 0.5
14 1.76919 3.76484 3.87731 0.5
15 1.93319 0.457477 0.707987 0.5
16 3.96362 1.35314 3.09131 0.5
17 3.13181 3.16595 2.7362 0.5
18 3.81941 2.33111 2.91997 0.5
19 2.01379 0.129365 2.78632 0.5
20 2.40475 0.957538 2.34299 0.5
21 1.51478 3.10075 2.52097 0.5
22 2.34885 0.394753 3.56067 0.5
23 2.50092 3.00397 1.95413 0.5
24 3.49686 3.22563 1.17449 0.5
25 3.39124 0.973783 2.20453 0.5
26 2.70286 1.49504 1.13209 0.5
27 2.4284 1.42999 3.65435 0.5
28 1.97173 1.10987 0.107917 0.5
29 0.53805 0.512297 2.39463 0.5
30 0.597383 2.79683 0.163848 0.5
31 2.22638 2.26912 2.32859 0.5
32 3.93848 1.77833 1.2297 0.5
33 1.08868 3.85495 2.81274 0.5
34 2.24717 3.06846 3.07322 0.5
35 3.44309 0.653256 3.0527 0.5
36 1.49678 2.98616 3.68013 0.5
37 2.12463 3.68808 1.18162 0.5
38 0.652298 1.94483 3.37245 0.5
39 1.5039 2.84001 0.822324 0.5
40 2.67225 0.499896 0.413926 0.5
41 1.72504 1.29409 1.73185 0.5
42 3.28829 2.47805 1.89953 0.5
43 0.721397 3.62551 1.99487 0.5
44 3.91742 1.14551 0.482088 0.5
45 3.28921 0.963604 1.17382 0.5
46 3.84577 0.135726 1.49437 0.5
47 3.88511 2.87358 0.41627 0.5
48 0.293293 3.44625 1.0619 0.5
49 1.02192 1.78878 1.58884 0.5
50 0.841809 0.598561 1.33949 0.5
