ITEM: TIMESTEP
450000
ITEM: NUMBER OF ATOMS
50
ITEM: BOX BOUNDS xy xz yz pp pp pp
0.0000000000000000e+00 3.9685030000000001e+00 0.0000000000000000e+00
0.0000000000000000e+00 3.9685030000000001e+00 0.0000000000000000e+00
0.0000000000000000e+00 3.9685030000000001e+00 0.0000000000000000e+00
ITEM: ATOMS id x y z radius
1 3.61285 0.937011 1.54306 0.5
2 0.494308 1.71888 0.327315 0.5
3 1.25223 1.11449 1.01943 0.5
4 3.29564 3.29526 2.18134 0.5
5 3.7353 1.9773 3.49018 0.5
6 1.90468 1.74278 3.73989 0.5
7 1.99793 3.48915 0.675194 0.5
8 2.26836 2.75924 3.59957 0.5
9 3.32586 0.0697128 2.88401 0.5
10 1.95033 2.65608 1.06796 0.5
11 3.08333 3.55811 -0.00836922 0.5
12 1.65872 0.834255 3.32162 0.5
13 3.48593 0.320743 0.328397 0.5
14 0.495319 0.182275 2.14144 0.5
15 3.90382 2.09466 1.90836 0.5
16 1.7874 0.3899 0.568221 0.5
17 3.76144 2.22334 0.758271 0.5
18 0.313957 2.69495 3.38058 0.5
19 1.04777 0.722801 1.76423 0.5
20 2.62208 1.96121 0.836774 0.5
21 3.15337 2.5935 3.0994 0.5
22 0.546787 0.844849 0.565183 0.5
23 2.45682 3.56485 1.73002 0.5
24 2.93815 0.064085 1.06736 0.5
25 1.16125 2.55993 3.7488 0.5
26 1.37785 0.134115 2.71745 0.5
27 2.45235 2.75628 2.67499 0.5
28 3.21436 0.984555 3.7097 0.5
29 1.26783 1.39464 0.167724 0.5
30 1.06508 3.80691 0.57106 0.5
31 0.867868 1.90744 3.52976 0.5
32 0.661363 3.58755 3.68203 0.5
33 0.0673495 3.41568 2.66835 0.5
34 2.97145 1.76044 3.59557 0.5
35 3.90301 3.03458 1.72221 0.5
36 1.32542 1.67974 1.80953 0.5
37 1.66655 1.89012 2.69568 0.5
38 1.14682 2.51798 1.87958 0.5
39 1.55333 3.21523 2.50138 0.5
40 3.36807 2.59505 0.309859 0.5
41 2.38 1.82373 1.62665 0.5
42 0.347902 1.48477 1.34164 0.5
43 1.48816 3.71327 1.7961 0.5
44 3.39332 1.73282 1.33683 0.5
45 3.80058 3.36861 1.01771 0.5
46 3.57788 0.782398 2.33379 0.5
47 2.76126 0.424656 1.81883 0.5
48 2.45156 0.735447 2.72169 0.5
49 3.61664 1.1977 0.537341 0.5
50 2.4097 1.13084 0.144446 0.5
