ITEM: TIMESTEP
430000
ITEM: NUMBER OF ATOMS
50
ITEM: BOX BOUNDS xy xz yz pp pp pp
0.0000000000000000e+00 3.9685030000000001e+00 0.0000000000000000e+00
0.0000000000000000e+00 3.9685030000000001e+00 0.0000000000000000e+00
0.0000000000000000e+00 3.9685030000000001e+00 0.0000000000000000e+00
ITEM: ATOMS id x y z radius
1 0.788369 0.694873 0.0773583 0.5
2 0.768979 0.784732 1.5294 0.5
3 1.29082 0.860954 3.17242 0.5
4 1.85624 0.0399009 1.93272 0.5
5 2.54766 3.95142 2.79329 0.5
6 3.69243 1.84265 2.85982 0.5
7 2.75713 3.15858 2.76516 0.5
8 2.97934 0.938477 1.81717 0.5
9 0.534666 0.0251291 0.950209 0.5
10 3.10077 2.0239 1.80124 0.5
11 0.988922 3.23285 3.64341 0.5
12 0.524143 2.27755 1.88641 0.5
13 0.675913 0.593994 2.41611 0.5
14 2.12045 0.692447 2.37065 0.5
15 2.74031 0.478602 3.49455 0.5
16 1.24652 1.31566 2.27373 0.5
17 1.21044 1.50964 1.38488 0.5
18 3.43266 3.82288 2.20801 0.5
19 1.53738 0.577995 3.88518 0.5
20 0.138008 3.08368 3.80201 0.5
21 2.03877 1.07241 2.99086 0.5
22 3.89763 0.526382 1.4639 0.5
23 0.33226 0.04277 3.48666 0.5
24 1.99402 2.46333 2.8156 0.5
25 1.81428 0.16601 3.05583 0.5
26 1.00923 1.46387 0.503706 0.5
27 1.17417 2.24618 0.873779 0.5
28 2.81843 0.167747 1.74471 0.5
29 2.86374 3.32823 3.65533 0.5
30 0.463541 3.15873 2.56453 0.5
31 3.32234 1.25565 1.03437 0.5
32 3.48726 2.88836 0.3693 0.5
33 3.39893 2.81703 2.40758 0.5
34 2.37931 1.33814 3.87884 0.5
35 0.929327 3.18387 1.74242 0.5
36 1.85307 3.73966 3.73574 0.5
37 0.447257 1.49482 3.19068 0.5
38 0.962839 3.86505 2.76637 0.5
39 3.45387 2.26933 1.13178 0.5
40 0.569787 2.49622 3.21063 0.5
41 0.123091 0.959174 0.637516 0.5
42 2.64132 2.61564 0.32881 0.5
43 2.38809 0.952164 1.17506 0.5
44 3.27805 1.99708 3.70648 0.5
45 0.220106 2.12569 0.942876 0.5
46 2.36443 1.47383 2.08009 0.5
47 3.30462 3.14153 1.11059 0.5
48 3.70324 0.598952 3.768 0.5
49 1.84146 1.93599 3.83295 0.5
50 3.47823 3.78561 3.22192 0.5
