LAMMPS Description

1000 atoms

2 atom types
0 17.099759 xlo xhi
0 17.099759 ylo yhi
0 17.099759 zlo zhi

Masses

1 0.523599
2 0.113097

PairIJ Coeffs

1 1 morse 5 33 1 1.4
1 2 morse 5 33 0.8 1.12
2 2 morse 5 33 0.6 0.84

Atoms

1 2 9.64546 13.5196 2.72336
2 2 12.9834 12.9761 6.43062
3 2 4.96057 0.965056 12.1609
4 1 13.5704 16.4721 16.4432
5 2 12.869 6.06113 15.2495
6 2 8.28609 6.89801 4.01721
7 1 0.440811 14.153 16.9781
8 2 4.58572 1.86778 6.08303
9 2 14.5676 16.1494 0.197008
10 2 16.3461 0.594721 15.0043
11 2 6.10375 4.144 11.4265
12 2 3.77804 10.5972 0.0349832
13 2 7.60577 5.46337 0.915674
14 1 6.64397 5.14385 4.46951
15 2 16.0753 7.99826 11.599
16 2 4.07442 1.23114 12.6834
17 2 6.42247 0.81576 5.54724
18 2 2.25693 9.39077 2.17096
19 1 13.0995 2.01492 5.37887
20 2 7.4919 9.85167 8.47715
21 2 5.21043 16.4429 2.35703
22 2 17.0986 7.85813 15.6035
23 2 6.20307 0.539266 6.40078
24 2 9.72554 16.4271 4.04631
25 2 6.32945 11.848 6.48894
26 2 5.33924 3.12355 4.01821
27 2 6.15018 16.802 5.4575
28 2 15.63 15.5518 13.0328
29 2 5.64473 9.37606 7.68218
30 2 6.2749 16.9795 11.3458
31 2 2.7257 11.0314 12.68
32 2 6.80898 11.8629 10.8947
33 1 14.646 16.0274 12.0441
34 2 14.6175 13.4229 14.3432
35 2 9.36391 2.97122 2.67645
36 2 15.5264 10.2444 7.88996
37 2 7.74412 16.0917 13.2197
38 2 3.24913 1.50322 1.71645
39 2 15.8998 2.03669 11.8019
40 2 0.394433 13.3222 13.8881
41 2 1.97041 5.8026 6.32173
42 2 3.37378 13.746 6.4981
43 2 15.647 7.92032 7.17704
44 2 1.76782 6.28223 13.1826
45 2 14.4607 12.7966 0.434267
46 1 16.0305 15.1249 5.85651
47 2 12.5517 2.72176 7.75376
48 2 14.1599 7.19241 1.99759
49 2 8.67755 17.0376 11.7218
50 1 10.1235 9.53167 10.5775
51 2 12.8757 0.194302 14.7331
52 2 11.7291 4.00022 8.22354
53 1 3.34 7.45965 2.36524
54 2 13.2155 8.08021 10.4592
55 1 10.2026 16.0717 6.45866
56 2 7.79566 11.6468 8.05873
57 2 8.86953 2.93252 1.49811
58 2 0.172132 15.6115 15.9913
59 2 1.26045 8.44059 11.6067
60 2 11.397 6.05468 1.33657
61 2 8.72889 7.97713 6.3345
62 2 16.0342 3.06618 12.3014
63 1 1.47568 5.9119 5.2761
64 2 2.37108 15.1042 8.11971
65 1 13.698 12.4341 7.37116
66 2 1.23012 12.8171 11.6497
67 2 8.91791 10.4173 1.58737
68 1 6.67818 16.9591 12.764
69 2 9.74497 4.38758 0.674289
70 2 0.543034 13.1014 3.46156
71 2 13.4863 2.64178 8.00699
72 2 8.81639 16.4827 1.34729
73 2 10.214 2.86302 0.41875
74 2 6.37498 12.1804 10.9551
75 2 8.92852 11.3878 12.9639
76 2 4.8987 8.584 12.5135
77 2 14.8286 14.3465 10.3442
78 2 15.3932 2.5855 6.69999
79 1 5.88828 6.50485 1.9747
80 2 10.3806 1.91244 12.795
81 2 14.734 11.1037 9.32644
82 1 13.1378 11.2668 8.67907
83 2 16.4546 3.55649 0.427462
84 2 8.14407 13.1085 15.3083
85 2 16.0229 1.25105 5.96785
86 2 15.9602 13.5931 5.432
87 1 9.63272 0.723143 5.01181
88 2 14.5019 10.8283 14.785
89 2 14.4962 6.40498 1.78972
90 2 7.78882 15.7932 4.26239
91 2 1.80335 9.5633 2.27695
92 2 2.57894 11.8079 9.94228
93 2 7.39075 14.9699 7.97651
94 2 12.982 3.37923 16.5003
95 2 7.32936 12.9275 13.7139
96 1 8.31335 8.24434 11.2827
97 2 14.7827 12.4426 3.94158
98 2 1.62084 0.903591 10.3525
99 1 7.27484 2.94459 7.1117
100 2 10.078 14.1943 13.9364
101 2 12.2064 12.3466 0.403247
102 2 4.58797 14.783 13.4067
103 2 16.6337 6.53452 15.5213
104 2 9.78196 11.2746 14.6707
105 2 15.5832 11.7428 0.308569
106 2 13.6812 13.9061 1.37233
107 1 2.01273 14.9232 15.8249
108 2 0.527759 4.64048 14.1454
109 1 11.7084 15.0261 9.96209
110 1 6.96778 15.3115 16.0775
111 2 8.79808 9.03515 15.352
112 2 3.73911 11.5171 5.00441
113 2 10.125 14.7152 10.0354
114 1 8.79035 0.0795494 11.8471
115 2 15.5538 4.99333 11.6132
116 2 1.92993 16.4815 2.56033
117 2 15.8476 1.95569 9.5474
118 2 2.95417 7.71546 9.74649
119 2 2.85991 3.94816 2.15033
120 2 0.227843 9.26203 12.8911
121 1 5.63945 4.42596 7.63214
122 2 15.7035 9.47545 10.1745
123 2 11.2877 9.16097 3.73944
124 2 6.68729 11.707 14.6444
125 2 6.97987 5.4846 5.71129
126 2 3.85582 11.6864 6.17469
127 2 9.78648 15.1739 5.52058
128 2 4.66251 13.6074 8.02328
129 2 3.87675 10.1528 7.47253
130 1 12.5625 13.4906 6.48245
131 2 4.34428 5.5721 3.41368
132 2 11.3865 12.5111 7.2636
133 2 12.1301 11.3753 1.45774
134 2 4.97167 5.23838 3.46818
135 2 12.6728 6.41339 15.3541
136 2 16.0939 7.49083 1.9942
137 2 5.58854 3.31374 5.48085
138 1 4.19277 7.60857 7.34589
139 2 1.32242 10.5149 7.93602
140 2 10.4419 9.47749 2.04158
141 2 1.46383 10.623 3.49012
142 2 14.8114 1.26926 2.63024
143 1 11.7621 15.312 10.5495
144 2 12.601 16.0301 2.40191
145 2 2.36526 4.79455 5.88028
146 1 1.27746 6.9411 2.60866
147 1 4.61976 12.7729 3.60193
148 2 5.82577 5.72723 12.6117
149 1 0.35104 9.17539 14.9122
150 1 6.54724 16.4305 9.60752
151 2 15.7961 2.26697 0.293725
152 2 13.9623 11.3396 3.25504
153 2 14.4607 1.72903 7.94112
154 2 9.29905 2.85054 8.66886
155 2 15.9664 4.21308 4.9138
156 2 6.31387 14.9524 10.2551
157 2 8.94276 8.48565 5.29318
158 2 7.54301 3.87158 7.36316
159 2 14.792 5.33988 4.44469
160 2 4.00685 6.24553 1.64309
161 2 7.76279 5.13691 1.69924
162 2 2.74101 12.7709 10.5941
163 2 3.16643 12.6906 9.99995
164 2 12.1244 9.87049 15.6247
165 2 10.5426 4.85096 4.03131
166 2 14.8227 1.78511 14.1159
167 2 10.4446 5.70534 14.1101
168 2 0.162362 0.45505 12.0871
169 2 1.98437 8.50555 15.2009
170 1 1.39541 13.0008 12.7339
171 2 14.263 3.99756 15.2625
172 2 7.15715 13.7092 15.8121
173 1 11.4262 14.634 9.89236
174 2 6.88607 9.21346 5.26191
175 1 14.8404 12.181 1.23529
176 2 4.60645 7.81075 14.6902
177 1 6.37542 8.0321 1.05753
178 2 13.8621 2.21214 6.36186
179 2 13.844 13.3625 11.3099
180 2 16.5722 10.8972 14.1857
181 2 12.898 2.68664 0.131855
182 2 14.7085 10.1266 8.10641
183 2 14.7089 13.9846 8.91444
184 2 3.74087 9.0999 9.93193
185 2 16.0546 15.181 13.6172
186 2 1.40562 9.78982 7.94574
187 2 11.3622 12.2948 6.08956
188 2 3.01328 14.5649 6.9619
189 2 11.9324 0.869532 7.96364
190 2 1.311 2.54595 2.30101
191 1 1.75949 6.23197 11.0481
192 2 10.8472 0.950489 9.19492
193 2 11.2471 2.40143 7.27301
194 1 8.50867 9.60894 6.05257
195 2 5.66791 15.9713 10.9076
196 2 11.1858 0.404194 9.5452
197 2 14.6136 11.8308 15.6138
198 2 5.39456 13.1699 14.5904
199 1 0.970198 4.63032 8.42817
200 1 12.6315 0.29222 8.33148
201 1 4.31543 10.5984 0.581441
202 2 3.81006 10.0457 4.08026
203 2 2.38541 5.50572 2.29152
204 2 10.5577 10.4376 3.06301
205 2 7.53459 9.64882 13.185
206 1 0.785859 7.83154 9.16122
207 2 7.90008 7.52221 13.4671
208 2 6.29843 13.1382 14.1232
209 2 6.81377 11.5368 1.60438
210 2 14.9176 14.7 6.77367
211 2 3.31039 7.59665 4.23244
212 2 0.989136 5.4146 1.00261
213 2 14.2393 0.391774 8.58976
214 2 10.88 15.2833 12.4734
215 2 17.0917 15.7544 0.0383594
216 2 0.390992 13.903 16.8579
217 2 0.0283497 1.68271 0.365206
218 2 8.8992 5.37556 7.08423
219 2 7.20639 7.46783 2.07774
220 1 12.9713 11.5412 5.83168
221 2 1.5169 9.48687 1.47294
222 2 16.8344 0.663814 14.6224
223 2 1.645 0.275577 11.4813
224 2 9.55244 1.35178 3.03303
225 2 6.89048 3.35702 4.07345
226 1 13.6772 16.6435 4.58264
227 2 0.895292 15.6812 10.5701
228 2 6.16525 0.929419 0.390998
229 2 2.58145 12.9752 12.1151
230 2 2.87129 9.60089 9.56985
231 2 0.0978686 6.97883 15.7232
232 2 9.22055 6.36216 13.8398
233 2 1.60071 8.22213 5.99103
234 2 7.52629 10.0868 7.09274
235 1 13.9358 5.74461 3.67239
236 2 15.9518 1.09946 13.1944
237 2 12.4778 10.5922 16.6884
238 2 5.76258 16.2762 2.57746
239 2 10.067 4.15077 16.0093
240 2 5.58804 5.61954 7.67984
241 2 12.2947 13.3292 2.37271
242 2 11.8774 0.488791 14.6957
243 2 16.7904 9.63283 11.1004
244 2 0.717428 4.4281 7.99461
245 1 7.88465 13.6722 1.70269
246 1 5.46795 17.0919 11.4365
247 2 1.49536 12.9481 5.86414
248 2 16.2198 6.22235 11.9142
249 1 10.065 2.97934 16.7965
250 2 4.13652 10.1315 6.98243
251 2 1.87054 15.838 5.69483
252 2 6.67037 7.8121 0.458932
253 2 4.05801 6.20065 7.51481
254 2 12.5041 13.9466 3.54446
255 2 9.90325 14.9301 9.19252
256 2 15.4453 4.72812 11.9842
257 2 5.2312 10.8878 3.45314
258 2 10.9771 15.8185 10.8256
259 2 12.2668 11.4417 0.108351
260 2 7.62096 9.42832 10.6562
261 2 3.77373 9.39723 3.70867
262 2 13.641 3.53189 12.5722
263 2 16.3351 8.87968 0.825435
264 2 13.126 3.69509 16.176
265 2 8.76587 12.7236 12.8362
266 2 10.7252 16.7761 11.4976
267 1 9.18077 10.3928 13.8257
268 2 6.27339 4.25191 10.6456
269 2 16.1597 2.71037 11.9215
270 2 11.9949 6.34815 3.14013
271 2 8.63381 16.8883 0.880022
272 2 10.1785 1.5877 15.1762
273 2 14.1837 10.7462 2.97035
274 2 1.81838 4.75068 4.11223
275 2 2.31941 11.7041 8.1146
276 1 2.38782 7.17641 10.9689
277 2 3.51391 14.8145 0.0212924
278 2 1.15845 9.45423 12.8066
279 1 0.537683 14.6232 4.32673
280 2 3.63088 4.02603 13.1343
281 2 4.94314 3.42168 0.621887
282 2 5.20873 7.25196 13.9728
283 2 4.2665 15.6198 13.9579
284 2 3.52905 7.39068 7.87766
285 1 6.18197 6.65442 6.90947
286 2 2.73125 1.93904 7.12065
287 2 16.9552 0.266141 7.2252
288 2 7.86005 12.05 12.0158
289 2 7.948 0.0100185 2.01686
290 2 2.8658 3.77146 1.17721
291 2 6.29615 14.8808 12.9165
292 2 7.88097 9.5265 10.9386
293 2 12.5106 12.3759 8.80867
294 2 4.36643 2.78106 4.38305
295 2 0.49099 15.1846 1.72875
296 2 11.9235 10.4758 0.785703
297 2 1.78761 0.0387835 7.55543
298 1 16.8929 13.9803 7.89328
299 1 3.7576 14.7638 8.75672
300 2 9.68997 7.06499 13.3896
301 2 12.1835 7.61525 15.6009
302 2 6.33101 6.4716 1.14362
303 2 11.2978 5.30091 9.03919
304 2 1.94802 7.25344 7.25444
305 2 8.97425 12.1619 1.85069
306 2 4.53889 13.7546 16.4172
307 2 0.527923 11.1209 8.4291
308 2 5.26506 13.9549 1.9145
309 2 4.50665 14.6036 3.49388
310 2 1.92637 16.2708 11.8745
311 2 12.5245 5.75387 1.27286
312 2 0.0245357 9.14046 14.3366
313 2 8.04437 5.97962 11.3657
314 2 12.5481 10.7867 4.37748
315 1 3.6095 6.65783 12.2755
316 2 9.34166 0.511329 5.87992
317 2 4.35019 3.52514 11.2783
318 2 16.9146 2.84076 12.7193
319 2 16.9132 10.0007 2.27518
320 2 15.4092 5.16258 3.90654
321 2 16.8366 13.4863 5.03521
322 2 9.0622 16.1665 8.34803
323 1 8.52418 7.67989 4.78801
324 2 16.9961 1.29823 12.5285
325 2 3.95504 9.18003 8.91334
326 2 0.682462 12.7763 1.51694
327 2 6.34781 8.64551 7.73882
328 1 9.25145 9.86635 5.36744
329 2 0.527276 8.1307 8.07928
330 2 2.00083 11.7213 12.4793
331 2 3.91198 9.85187 15.5829
332 2 12.7241 15.8577 1.76463
333 2 5.3616 5.27262 5.8234
334 1 0.548105 9.13182 3.27974
335 2 10.6016 4.31778 4.57656
336 2 1.07029 9.5764 8.2098
337 2 3.37201 0.718535 11.9165
338 2 6.7671 6.51359 7.83665
339 2 3.66157 6.72936 7.08384
340 2 13.8457 0.615596 10.1573
341 2 10.938 13.5599 7.86663
342 2 15.1736 6.42832 11.4963
343 2 12.7455 16.2664 16.6857
344 1 9.74485 0.021466 3.87229
345 2 3.44759 14.5908 12.3203
346 2 16.5827 6.99112 1.5112
347 1 2.76101 15.123 13.3978
348 2 7.0019 1.73685 4.96129
349 2 11.3816 8.15778 3.3359
350 2 2.58425 14.7255 9.67621
351 2 16.4226 14.3125 6.69001
352 2 11.6799 13.0172 16.6385
353 2 2.10106 9.38354 5.1398
354 2 10.3728 9.10889 2.47234
355 2 12.3808 10.0788 14.4849
356 2 7.65973 2.82516 2.43582
357 2 15.3276 8.7255 14.3396
358 1 0.528151 6.60864 11.6803
359 2 6.93936 13.3865 1.63931
360 1 11.0365 9.60204 13.9794
361 2 13.224 1.98771 8.51019
362 1 4.62342 15.0018 9.97681
363 2 3.68042 1.68249 2.62896
364 2 13.5752 9.60106 0.539609
365 2 6.13751 6.15835 0.228716
366 2 4.5919 2.75587 2.40715
367 1 9.81952 5.42528 2.77146
368 2 11.0478 12.4971 11.5445
369 2 4.38331 3.39366 10.4306
370 1 16.4126 5.6298 8.65776
371 2 1.3294 0.0287059 4.86735
372 1 11.7505 3.62286 14.9666
373 2 10.323 13.5784 9.15667
374 2 6.94483 0.00388216 3.02468
375 2 6.6867 6.14207 7.78877
376 2 14.3866 6.95167 2.23783
377 2 5.85504 16.6192 6.38474
378 2 14.9272 3.9494 8.26762
379 2 12.9482 12.0725 0.74041
380 1 4.49462 8.58757 14.0839
381 1 14.3776 15.603 2.99907
382 2 10.1417 12.2849 15.1358
383 2 2.98383 8.60092 4.29816
384 2 16.4839 3.25441 0.682413
385 2 15.7077 6.4467 16.8755
386 1 10.6198 10.1551 13.6416
387 2 5.99888 16.1083 0.0485007
388 1 8.07846 7.64637 7.34197
389 2 5.25406 0.525721 1.93925
390 2 8.26062 13.9983 8.72139
391 2 3.33902 9.74635 15.0566
392 2 4.03879 11.6405 13.1541
393 2 16.029 5.7964 12.1599
394 2 10.7547 10.8569 14.28
395 2 13.7329 14.5021 12.5234
396 2 7.49812 8.7343 9.6987
397 2 16.8155 2.24451 3.94064
398 2 0.947974 0.993624 8.83943
399 2 16.8582 11.2318 4.70298
400 2 0.81479 3.11656 15.7516
401 2 11.643 2.99717 14.1535
402 2 0.299186 6.15705 10.6745
403 2 0.392061 4.65954 12.0273
404 2 2.71241 15.579 10.9051
405 2 7.68272 13.576 7.10493
406 2 3.76999 12.908 7.09263
407 2 14.124 12.0768 7.15695
408 2 8.06703 5.42907 2.3406
409 2 5.20934 12.4257 2.62546
410 1 11.0264 9.29518 14.3402
411 2 0.277058 11.0018 3.3652
412 2 2.93826 15.828 8.78142
413 2 12.4636 6.611 4.48346
414 2 1.9142 15.1491 4.50815
415 2 13.7548 3.53662 2.22484
416 2 7.09106 1.36997 11.9121
417 1 9.18653 2.57545 11.5392
418 2 6.67527 9.52538 6.29517
419 2 15.1054 14.0598 3.63711
420 2 2.22951 10.7127 14.5162
421 2 4.33964 16.5128 13.0136
422 2 1.97599 15.4874 4.77457
423 2 0.500117 6.65936 9.21924
424 2 4.47517 12.6606 0.274496
425 1 11.0239 12.7665 5.97513
426 1 14.1144 5.42429 12.5214
427 2 7.79251 11.131 3.85208
428 2 9.44003 3.50518 3.78473
429 2 0.200074 10.7902 0.416886
430 2 15.8611 11.8136 1.21569
431 2 2.72078 0.278333 0.298035
432 2 4.97883 9.36097 2.23862
433 2 4.17986 16.4878 2.99369
434 2 10.4344 3.87055 15.9319
435 2 15.3341 10.5514 10.0939
436 2 15.7986 15.4413 13.3756
437 2 11.6332 15.5286 0.0876393
438 2 8.75323 1.03194 1.89974
439 1 12.4544 8.90732 14.3565
440 2 11.614 5.04949 3.00773
441 2 11.3503 0.63755 2.56333
442 1 16.8282 7.79616 3.81903
443 2 16.8063 15.9085 8.85443
444 2 13.5782 14.0524 3.57539
445 1 10.6532 11.7517 12.3609
446 2 15.8693 2.12799 12.0032
447 2 12.9143 7.12576 16.0473
448 2 13.0727 9.83744 3.0171
449 2 16.8612 6.1344 12.4849
450 2 5.01073 2.95522 10.7498
451 2 15.682 4.74892 14.7298
452 2 14.6515 13.2552 1.23122
453 2 10.2191 11.1697 16.6432
454 1 10.5486 1.4605 12.2187
455 2 15.2027 11.8147 1.72622
456 2 7.48676 16.4691 4.30246
457 1 15.7125 5.09085 8.27471
458 2 2.56802 1.09346 11.7786
459 1 14.9251 14.7607 5.07727
460 1 2.76029 11.2269 8.55507
461 2 15.8067 14.6553 2.61201
462 2 2.29256 4.52797 13.3267
463 2 14.0041 13.8951 5.60272
464 2 2.1048 0.822184 16.055
465 2 13.6887 5.23333 13.3752
466 2 7.3156 10.1035 14.3065
467 2 10.9417 10.5011 10.495
468 2 4.40588 1.30939 16.6075
469 1 9.01582 15.6027 13.8831
470 2 3.14403 13.7538 12.3553
471 2 9.37967 8.35658 16.4459
472 1 3.09418 11.8551 9.37326
473 1 14.6045 7.70328 7.13509
474 2 7.30881 7.50193 3.88128
475 2 16.8481 15.3313 7.94784
476 1 12.3081 1.13527 16.8645
477 2 7.49601 6.76332 12.8474
478 2 1.52941 14.7352 0.163486
479 1 5.88076 16.4408 4.59261
480 2 6.06695 10.4461 12.0577
481 2 11.1331 6.8629 3.83467
482 1 16.6611 15.8644 8.65517
483 2 9.30794 7.35912 13.6602
484 2 2.1392 9.44824 5.32444
485 2 10.8826 0.340043 4.58268
486 2 11.1432 7.60298 10.5626
487 2 16.0519 1.2876 13.9924
488 2 10.7279 9.34214 11.1042
489 2 6.43262 7.69615 2.48824
490 2 14.0103 0.16921 13.0691
491 2 9.11639 0.0166479 11.5615
492 2 9.95377 6.98842 11.1031
493 2 1.03618 4.92179 3.71128
494 2 13.575 8.26571 6.17244
495 2 4.24737 15.1523 14.0782
496 1 13.5803 5.25488 12.9442
497 2 15.2577 15.1273 5.98136
498 2 13.6996 3.61565 2.08167
499 2 3.45647 0.392926 3.50738
500 2 7.77546 1.77866 13.1507
501 1 1.93022 2.03734 5.6588
502 2 8.16368 5.80091 12.5453
503 2 6.46116 6.84875 9.87255
504 2 3.78058 1.73257 14.7181
505 1 11.032 16.407 8.31395
506 1 16.2448 3.44021 7.33863
507 2 7.81221 9.94696 8.71805
508 2 12.2429 15.6344 16.749
509 2 4.84382 3.76864 12.0265
510 2 6.93566 4.29991 15.136
511 2 0.469705 11.2508 1.93324
512 2 7.05859 1.26459 13.1809
513 2 9.77317 16.0764 10.9419
514 2 0.231693 14.5632 9.37108
515 2 3.07443 5.83183 15.8664
516 2 5.65916 1.10539 11.0023
517 2 14.9521 7.33026 9.11993
518 2 6.3125 15.375 16.1284
519 2 9.61777 5.89397 10.133
520 2 8.14102 6.99994 13.2557
521 2 0.857983 14.212 7.66059
522 2 10.4855 14.3935 16.2361
523 1 9.86992 9.4121 0.676909
524 2 11.2099 9.01482 15.4261
525 1 8.7144 10.0688 10.045
526 2 14.6294 14.0332 14.753
527 2 5.28086 10.648 2.43442
528 2 14.0543 2.97065 2.39083
529 2 8.77844 2.16273 15.7958
530 2 14.1726 3.2401 10.3187
531 2 5.73188 10.0759 1.88395
532 2 13.5062 0.965523 7.6377
533 2 14.8319 1.83823 5.34287
534 2 12.9274 14.4756 6.4262
535 2 16.7313 7.39067 14.3201
536 2 4.79611 7.67077 3.50368
537 2 2.33782 1.22128 5.95188
538 2 7.57083 15.6317 7.17073
539 1 7.33506 8.37055 7.12507
540 2 6.8892 1.27293 6.02893
541 2 11.1926 11.1562 15.8488
542 2 16.2515 5.39698 8.13289
543 2 5.93796 9.44899 5.28983
544 2 4.8198 14.6654 14.1928
545 2 1.26586 13.5234 12.5939
546 2 11.4837 5.85253 17.0536
547 2 6.02508 7.13194 10.1511
548 2 5.95249 1.4803 10.8519
549 2 16.8552 13.4007 15.2806
550 2 14.191 8.17312 12.2201
551 2 11.9958 3.05358 14.6829
552 2 9.42686 3.05144 10.8025
553 2 16.8853 5.2956 11.7253
554 2 7.49218 2.37341 10.4233
555 1 13.3297 14.1354 13.776
556 2 3.46047 12.6514 0.155234
557 2 10.0424 16.0628 8.50473
558 2 4.17412 11.203 13.5982
559 2 4.32892 3.43621 9.29585
560 2 16.0239 0.640959 7.43529
561 2 6.80853 7.77727 2.72041
562 2 10.4398 9.32889 6.34024
563 2 10.1427 14.9217 13.6389
564 1 2.53372 13.3202 8.81011
565 2 3.36486 3.41378 3.03127
566 1 11.579 9.84776 9.45276
567 2 9.53124 14.5626 16.0683
568 2 11.5033 8.24442 6.8463
569 1 0.871435 11.6826 6.21541
570 2 3.16864 2.9059 7.08571
571 2 1.89981 13.3499 8.17535
572 2 3.71382 0.909027 3.81694
573 2 15.9038 8.27768 9.79135
574 1 3.56278 10.5361 3.86852
575 2 3.01833 16.4153 3.85657
576 1 1.72997 5.90903 16.1273
577 2 3.54839 13.9398 12.7924
578 1 8.82302 13.937 13.1569
579 2 9.42844 8.89562 3.57877
580 2 7.31767 0.567145 15.8253
581 1 15.5428 4.44266 0.350579
582 2 16.3227 12.6289 10.8663
583 2 9.94894 2.53863 8.00629
584 2 10.265 2.22023 9.09021
585 2 10.2179 6.25064 8.17231
586 1 6.22214 9.24512 8.07863
587 2 9.26708 3.92499 9.96878
588 2 2.67062 1.48043 15.4669
589 1 4.26022 13.5237 4.0768
590 2 2.82739 1.22244 5.97943
591 2 16.3332 12.8938 12.4177
592 2 2.79281 8.94031 11.7874
593 2 1.31502 2.63817 9.25298
594 1 1.0565 14.9269 3.58515
595 2 3.39027 1.36341 15.9619
596 2 8.81982 14.8793 2.81664
597 1 11.2285 11.1676 2.8253
598 2 5.24313 4.13317 9.22995
599 1 11.2219 5.17679 16.3474
600 2 14.3512 13.3114 16.2127
601 2 3.64079 5.44253 7.88051
602 1 0.355287 7.58666 9.57897
603 1 10.0864 4.59356 3.20857
604 2 8.47492 7.96338 8.07971
605 2 9.23173 1.73978 2.99562
606 1 10.6669 1.49298 14.2961
607 2 1.69035 15.2787 0.576903
608 2 3.22438 17.0519 5.27943
609 1 4.75171 1.63286 4.49656
610 2 0.382299 2.54995 12.0147
611 2 1.13197 5.71952 12.192
612 2 9.93795 6.93238 12.2879
613 2 8.16425 7.61808 5.11339
614 1 2.47979 6.22406 5.01108
615 2 2.65597 12.5692 17.0894
616 2 6.12651 11.6016 10.902
617 2 0.939591 10.9871 6.78992
618 1 11.2148 1.05673 9.13531
619 2 2.03548 4.8455 15.3388
620 1 11.1146 7.65782 4.01671
621 2 14.3671 5.04266 10.135
622 2 15.1165 0.00103207 15.0412
623 2 14.8616 10.4043 13.9609
624 2 1.56251 6.69364 8.58801
625 2 4.0042 16.4198 14.2701
626 2 9.18814 5.76572 2.9165
627 2 14.2379 12.7958 2.27841
628 2 14.48 4.75338 8.17552
629 2 3.77148 2.40012 15.3383
630 2 7.78122 16.4653 16.5998
631 1 15.7299 14.7111 7.43591
632 2 12.424 3.00624 11.0154
633 2 13.9846 0.55389 7.82714
634 2 9.08008 12.1208 13.9475
635 1 12.8598 12.1754 6.85514
636 2 2.06586 4.40539 10.5772
637 2 10.7713 6.91836 8.16176
638 2 7.8286 11.6051 3.91791
639 2 13.9763 10.3106 3.33351
640 1 10.5797 8.1246 6.96556
641 2 4.1718 10.2855 11.8921
642 2 1.40188 13.0664 4.82474
643 2 16.1015 15.5683 12.7461
644 2 2.46967 7.76116 3.62493
645 2 9.38559 14.7204 15.1674
646 2 12.2268 12.1135 2.36281
647 2 0.103431 16.8757 15.221
648 2 10.8793 13.9292 0.502511
649 2 9.97002 6.66458 16.1583
650 2 14.1659 0.965108 9.53606
651 1 3.84027 12.1262 11.9547
652 2 12.8159 15.2038 6.42521
653 2 8.82735 11.877 2.06528
654 2 12.7931 16.4032 1.66138
655 1 7.70391 1.76626 3.97978
656 2 14.7626 1.88884 17.071
657 2 0.108925 5.27028 9.12942
658 1 16.3506 11.7701 0.26219
659 2 11.1146 4.1752 6.95646
660 2 5.33575 2.03483 14.4334
661 2 9.22672 1.41393 9.33561
662 2 7.67624 13.5172 6.09348
663 2 3.35375 12.7319 12.8928
664 2 1.9647 16.0306 16.6806
665 2 14.5545 0.459711 12.8096
666 2 3.89396 15.6288 12.4933
667 2 15.133 2.62215 13.9157
668 2 0.996994 4.52924 14.0802
669 2 6.79815 1.16437 16.5631
670 2 14.024 5.60538 0.712444
671 1 17.0681 12.333 5.36305
672 2 4.90047 2.75184 2.02829
673 1 13.7922 2.80491 14.4625
674 2 11.1096 14.6483 3.65621
675 2 13.0173 2.65151 5.95318
676 2 12.0746 2.19493 0.948312
677 2 3.3392 6.02076 15.5509
678 2 3.851 2.48032 7.21102
679 2 5.72761 9.96951 6.41771
680 2 14.9419 15.9809 14.1999
681 2 1.04521 1.17007 14.6713
682 2 13.8279 5.11986 4.50455
683 2 11.8255 14.2622 1.23039
684 2 0.582351 15.2609 7.16544
685 2 11.3125 8.91097 7.36233
686 2 12.967 13.84 5.61781
687 2 1.52545 8.63191 6.92341
688 1 3.9191 13.3529 0.834402
689 2 7.50616 0.348849 2.46244
690 2 5.41316 5.00639 16.0751
691 2 16.4323 16.8792 1.8598
692 2 16.9693 0.0282162 17.0317
693 2 11.1346 1.76102 11.6908
694 2 6.20891 12.7439 9.10153
695 2 5.63482 9.2578 5.24399
696 2 8.26685 11.1195 4.32744
697 2 13.1192 14.9196 4.77416
698 2 13.9758 11.3003 7.19299
699 2 8.56682 3.97763 12.7175
700 2 4.47982 16.2195 17.0408
701 2 15.4667 6.75151 8.54515
702 2 14.156 7.7799 5.99747
703 2 11.2638 8.2776 13.1583
704 2 0.643837 11.7618 2.29594
705 2 10.691 17.0752 7.55429
706 2 5.64529 0.585686 10.9992
707 1 15.1761 9.86508 11.3731
708 2 9.12149 10.2648 16.8252
709 2 9.47665 4.85218 12.7512
710 2 0.220922 10.5974 11.4168
711 2 16.891 6.34581 9.91154
712 2 2.14035 0.695645 15.5907
713 2 12.6791 12.6875 10.4001
714 2 5.28954 15.0485 15.2244
715 2 14.3554 12.9153 0.0411805
716 1 0.676778 1.75301 12.1811
717 2 11.9896 11.2133 15.509
718 2 0.602995 8.30949 0.4945
719 2 10.5874 13.2656 13.591
720 2 8.18591 10.2601 1.50042
721 2 9.27213 3.00268 16.719
722 2 14.7493 5.40284 17.0417
723 2 17.0248 10.4899 11.7438
724 2 2.1861 8.11294 15.8092
725 1 16.7804 6.54747 5.87935
726 2 8.20588 6.90091 10.6467
727 2 10.7401 10.4921 9.62996
728 2 3.23172 9.44809 9.32056
729 1 11.7388 14.4458 5.22322
730 1 1.23348 0.539007 2.56996
731 2 9.19092 4.55962 10.6767
732 1 13.3153 5.06919 15.8949
733 2 1.81848 11.7163 0.546827
734 2 0.702815 9.01309 16.6667
735 2 12.6664 3.0867 11.0143
736 2 14.3681 7.48706 6.96056
737 2 5.64956 15.2449 7.87744
738 1 1.75411 16.2135 9.84076
739 2 11.8031 4.35479 16.4358
740 2 4.31992 10.8069 2.20801
741 2 15.0048 9.36802 0.28107
742 2 1.44813 1.88209 13.8067
743 2 9.40388 13.5662 10.9172
744 1 5.91101 14.2314 4.77938
745 2 11.8489 9.75541 6.12176
746 2 10.5208 16.2018 0.857993
747 1 10.8306 9.77942 15.5253
748 1 10.0859 16.9052 16.3018
749 2 16.5311 6.35282 2.39529
750 2 12.5634 1.06608 9.18616
751 2 9.04932 15.6732 8.69205
752 2 15.9286 9.74057 11.1215
753 2 6.058 12.8475 10.2817
754 2 12.8884 0.341207 15.2823
755 1 2.1237 15.9982 16.479
756 2 12.8725 11.1612 5.57091
757 2 9.76301 4.2498 0.0973819
758 2 7.29064 15.374 13.1478
759 2 10.1958 12.5689 13.5613
760 2 4.88586 5.77072 15.613
761 2 9.5133 5.83398 7.32697
762 2 13.8754 7.22409 2.5953
763 1 6.41532 2.08252 0.886161
764 2 11.0526 12.3728 14.399
765 2 13.4617 3.27032 11.2421
766 2 10.7945 2.37105 11.889
767 2 15.1943 4.78877 12.2405
768 1 4.96385 3.50698 1.60604
769 2 16.6808 14.0491 13.8578
770 1 0.628582 11.4836 9.52168
771 2 14.5799 15.3046 3.76386
772 2 3.17328 16.2588 8.50981
773 2 13.834 5.19196 8.83983
774 1 11.3565 3.64311 14.9568
775 2 11.9902 13.6522 2.41312
776 2 15.1142 9.80497 12.443
777 2 2.32086 2.73295 15.438
778 2 15.8437 6.69238 1.07021
779 2 14.4817 5.3733 10.776
780 2 0.538052 3.4023 13.5015
781 1 5.96568 0.104369 12.0994
782 2 3.93244 8.70771 13.5805
783 2 14.946 3.48804 13.4769
784 2 2.06876 8.72111 12.7904
785 2 14.5382 12.5201 14.6277
786 2 13.9349 9.45027 16.3631
787 2 1.02286 16.2418 11.5514
788 2 11.9932 12.5044 14.0346
789 2 10.2467 16.3308 13.494
790 2 8.838 14.9137 15.362
791 2 13.8765 0.909182 10.3646
792 2 5.93318 1.18029 13.6403
793 1 3.64121 9.68011 10.1128
794 2 10.9552 1.843 6.20515
795 1 11.39 13.0836 8.90062
796 1 2.57326 8.63168 13.4344
797 2 3.72297 11.7264 8.58566
798 2 3.40726 6.92519 11.5258
799 2 2.51929 3.47912 16.2383
800 2 7.12101 14.1887 3.17591
801 2 13.6687 13.7211 1.13498
802 2 14.9868 10.8226 5.99516
803 2 9.78 12.6939 9.53914
804 2 12.3084 2.49231 0.746418
805 2 9.01634 12.1671 13.5649
806 1 2.00459 16.6787 13.8712
807 2 16.2569 17.097 12.7601
808 2 11.2833 7.96392 0.0907334
809 1 5.51679 14.4855 0.685647
810 2 10.0626 8.27477 10.4802
811 2 7.30247 11.1367 3.67822
812 2 12.7585 7.31312 13.8776
813 2 10.1699 11.9409 6.60439
814 2 8.85135 10.2288 2.28099
815 2 6.95315 5.51431 1.2285
816 2 11.4528 12.2541 7.55794
817 1 4.0853 14.8022 16.6673
818 2 2.24621 10.3476 8.27301
819 2 6.85846 2.0218 11.1188
820 2 15.8626 2.92988 11.8914
821 2 1.85783 6.48241 16.7955
822 2 0.229519 10.3084 7.04077
823 2 3.70414 7.17516 7.56878
824 2 10.3511 7.58631 9.66587
825 2 2.93195 10.725 7.0609
826 2 4.59493 10.5306 12.7746
827 1 5.82732 16.2164 3.48253
828 1 4.43788 1.07568 12.9658
829 2 2.44434 8.90315 9.6241
830 2 13.1648 0.473526 13.3667
831 2 5.9152 9.04907 2.10106
832 2 12.0297 10.85 7.14397
833 2 6.1856 5.43482 3.65664
834 2 9.73696 8.82769 16.2251
835 2 16.0562 4.85208 0.406751
836 2 10.1907 15.1808 0.78502
837 2 14.2872 16.354 10.519
838 2 10.9329 1.39311 10.4932
839 2 8.92856 3.82885 5.84627
840 2 15.7287 14.413 4.33281
841 2 11.5976 12.2917 14.2567
842 2 5.20537 11.3435 9.3089
843 2 11.3295 6.84757 1.89019
844 2 4.30329 3.68745 10.6777
845 2 12.0214 2.3218 1.03078
846 2 7.94155 15.806 11.4591
847 2 14.2453 14.1973 12.3057
848 2 1.1023 16.5831 15.7534
849 2 13.3373 14.6551 8.60001
850 2 10.1473 1.23761 7.5315
851 2 16.2582 9.30179 13.3705
852 2 4.01936 5.12727 0.586421
853 2 2.44692 4.66596 4.7892
854 2 5.51156 0.279837 15.7283
855 2 0.298395 2.80241 8.37744
856 2 6.77205 2.57808 3.95535
857 2 8.42934 12.9258 7.07983
858 2 15.8954 0.0191951 7.51984
859 2 13.3062 15.0601 13.2702
860 1 16.5814 16.7415 16.2046
861 1 13.612 2.33337 15.5226
862 2 2.66733 6.28043 13.8712
863 2 0.819226 10.1257 6.74607
864 2 7.2827 5.32249 5.68339
865 2 2.93713 11.4015 3.59798
866 1 17.0215 14.5912 15.7059
867 2 9.57201 5.63402 13.4343
868 2 13.1738 1.2147 8.41392
869 1 2.05453 2.23237 4.63955
870 1 10.4428 2.59057 9.67056
871 2 0.209475 17.0752 16.4315
872 2 10.2456 16.1019 4.65387
873 1 3.90925 2.75803 2.15665
874 2 14.9347 6.2526 2.63793
875 1 10.0865 13.3243 11.0744
876 2 0.939066 8.32038 5.23909
877 2 3.85595 13.3544 9.91399
878 2 0.539843 15.9719 12.4938
879 2 16.2701 9.6747 5.99143
880 1 0.613731 6.62819 13.7158
881 1 11.2142 11.6203 10.0507
882 2 7.78225 5.93771 4.0903
883 2 11.1001 10.2488 11.1062
884 2 2.93307 14.4018 8.1538
885 2 14.7595 15.0484 16.9257
886 2 2.59308 12.8322 6.554
887 2 15.8728 12.866 15.6652
888 2 13.0826 13.0239 7.3349
889 2 3.53671 1.47381 8.08386
890 2 3.82553 0.303352 0.640719
891 2 9.74984 9.79983 6.84958
892 2 0.716409 12.6259 6.41555
893 2 9.64427 10.7709 9.17584
894 1 0.144806 4.74856 12.255
895 2 15.9561 6.02722 1.65394
896 2 9.12396 3.72043 1.32038
897 2 4.30441 5.51229 14.4407
898 2 7.1035 7.65771 16.9328
899 1 5.92867 1.04708 11.2728
900 1 7.53933 5.4606 13.8219
901 2 8.9414 14.2163 9.75595
902 2 6.76454 1.16522 1.63496
903 2 0.685373 11.1161 8.96214
904 2 12.9806 8.08703 13.046
905 2 14.7205 2.8226 14.9169
906 2 14.7605 3.76929 9.97489
907 2 8.86553 2.91537 15.4556
908 2 16.9764 12.9327 6.55816
909 2 11.6974 2.5712 15.107
910 1 5.62608 13.4074 8.83172
911 2 12.377 7.2446 15.5876
912 2 8.39381 4.08761 10.2526
913 1 5.70843 15.916 8.0846
914 1 7.42569 5.91448 4.03076
915 2 15.5543 6.09463 11.6008
916 2 4.93348 2.97013 11.6179
917 2 15.5131 13.3173 5.46186
918 2 2.19998 17.0841 4.85549
919 2 10.6344 7.46038 13.1948
920 1 0.489121 3.92298 15.9384
921 1 7.04985 3.04872 8.84553
922 2 15.6347 13.8406 12.0291
923 2 10.2969 8.18995 0.387208
924 2 5.52509 15.5077 16.0749
925 2 11.1792 10.3356 11.9213
926 1 0.543846 4.59878 4.36326
927 2 11.1543 16.5362 15.3615
928 2 4.52946 9.48392 14.1595
929 2 5.925 0.654231 5.96654
930 2 14.9562 8.85899 0.426859
931 2 0.845033 0.0973915 0.913958
932 2 14.6748 11.954 3.91531
933 2 11.9315 11.1072 13.8801
934 2 10.7639 13.1882 7.93765
935 2 9.98487 11.5062 13.1808
936 1 5.88873 0.349898 12.2832
937 2 16.1275 0.859848 9.80712
938 2 5.45747 16.6822 0.854317
939 1 11.5547 11.2721 9.57774
940 2 3.7484 13.217 4.19546
941 2 12.1715 10.214 5.04409
942 2 16.7179 0.854695 4.53531
943 2 11.8257 0.742746 8.00174
944 2 6.86569 6.15742 1.15095
945 2 14.3276 8.4404 5.17733
946 1 13.1703 7.07061 16.3346
947 2 15.4249 8.10602 9.68955
948 1 0.457079 16.3685 8.83324
949 2 9.39396 10.9039 9.48856
950 2 8.65754 1.9067 6.13236
951 2 14.3942 12.5875 3.72119
952 2 7.39757 17.0331 13.4008
953 2 6.75709 1.26463 13.5738
954 2 3.5537 13.3735 9.70806
955 2 0.92098 2.32094 5.33084
956 2 13.2778 7.49612 9.50618
957 2 1.7452 4.24599 17.0729
958 2 1.85178 16.9376 16.1656
959 2 0.72944 0.273388 5.9152
960 2 15.5806 1.43357 8.76841
961 2 3.45174 12.9637 0.0790986
962 2 16.7806 9.08224 1.96575
963 2 6.1539 7.88993 5.49599
964 2 10.6357 12.2994 10.7937
965 2 8.35588 3.17114 14.4235
966 2 12.0024 13.196 15.9095
967 2 6.29266 4.56293 11.9026
968 2 5.32773 2.70406 8.2369
969 2 10.8423 15.8116 13.4402
970 1 14.8359 15.4098 0.408234
971 2 16.783 6.30815 2.4578
972 2 5.99712 8.7469 14.7952
973 2 10.9142 9.87904 0.371066
974 2 7.22258 1.50442 15.7855
975 2 12.6322 3.26881 6.7779
976 2 9.47902 1.00893 10.8849
977 2 16.6616 12.721 15.7198
978 2 12.1336 9.35511 17.064
979 2 12.6011 8.80045 10.8499
980 2 0.383662 0.0554747 3.92844
981 2 5.27799 13.0363 8.48582
982 2 5.54775 4.0835 8.50128
983 2 10.1919 0.929515 10.3829
984 2 13.1681 5.38033 5.5309
985 2 10.8192 1.21719 6.44208
986 2 5.51211 5.26975 15.8856
987 2 1.41936 4.37031 9.05404
988 2 7.23917 6.03904 1.80182
989 2 14.7679 10.6256 2.37133
990 2 8.47175 4.07711 9.27586
991 2 10.7232 4.40452 16.6549
992 2 4.54025 16.6132 0.809978
993 2 9.90561 9.04175 10.8364
994 2 0.930524 16.4043 0.905927
995 2 12.9903 11.5749 13.8966
996 1 8.64182 13.446 0.277196
997 2 0.739561 11.292 12.2833
998 1 0.0529702 3.07543 0.0965359
999 2 13.1241 4.29752 8.2535