LAMMPS Description

50 atoms

1 atom types
0 3.815714 xlo xhi
0 3.815714 ylo yhi
0 3.815714 zlo zhi

PairIJ Coeffs

1 1 morse 0.5 1 1 2

Atoms # sphere

1 1 1 2.35 2.6503 2.82211 3.07846
2 1 1 2.35 2.08926 0.395745 2.19714
3 1 1 2.35 2.04123 3.57033 3.3361
4 1 1 2.35 2.03416 0.979961 2.68641
5 1 1 2.35 0.475191 0.239206 2.1097
6 1 1 2.35 1.2178 2.25735 2.07016
7 1 1 2.35 1.58905 2.3299 1.12745
8 1 1 2.35 1.15374 1.50118 1.09759
9 1 1 2.35 3.5377 1.14515 1.62069
10 1 1 2.35 3.02086 0.884174 0.344881
11 1 1 2.35 3.4235 0.305944 3.80456
12 1 1 2.35 0.502199 0.602521 3.35744
13 1 1 2.35 3.22278 1.82547 3.64827
14 1 1 2.35 1.73872 0.712672 3.10667
15 1 1 2.35 0.670705 1.54395 2.80664
16 1 1 2.35 2.20117 2.95516 2.9991
17 1 1 2.35 2.70476 1.35248 0.284621
18 1 1 2.35 3.37691 3.68093 3.79286
19 1 1 2.35 1.89899 0.66605 2.17399
20 1 1 2.35 0.462216 0.712888 2.62002
21 1 1 2.35 0.603053 1.50527 2.82362
22 1 1 2.35 0.163788 3.15175 0.785386
23 1 1 2.35 0.663851 3.15758 0.837291
24 1 1 2.35 1.15211 0.0038563 3.03958
25 1 1 2.35 0.321331 0.806591 2.80614
26 1 1 2.35 0.0627572 3.63097 0.118357
27 1 1 2.35 1.29142 3.01328 2.07434
28 1 1 2.35 3.6378 3.16921 0.432674
29 1 1 2.35 2.1765 0.178731 0.864051
30 1 1 2.35 1.89055 2.19474 2.15601
31 1 1 2.35 0.466277 1.58492 2.92426
32 1 1 2.35 2.92869 3.46609 2.34128
33 1 1 2.35 0.62378 2.2629 3.00243
34 1 1 2.35 2.26548 0.424073 1.84487
35 1 1 2.35 0.481296 0.619714 0.676399
36 1 1 2.35 0.933804 3.67431 0.187614
37 1 1 2.35 1.54421 3.09258 0.551333
38 1 1 2.35 2.42077 0.20931 1.46606
39 1 1 2.35 3.75488 0.608749 2.52374
40 1 1 2.35 2.40509 0.481694 0.431828
41 1 1 2.35 0.564583 2.76901 2.52655
42 1 1 2.35 2.28369 1.21686 3.69589
43 1 1 2.35 3.21056 3.24336 1.39729
44 1 1 2.35 1.11865 3.57589 1.09371
45 1 1 2.35 3.0958 0.566281 0.997768
46 1 1 2.35 1.82803 1.95426 2.3862
47 1 1 2.35 2.65335 0.757925 3.56163
48 1 1 2.35 0.748348 1.51681 1.16837
49 1 1 2.35 1.59496 0.510964 0.687387
50 1 1 2.35 3.56312 0.052825 2.54064
