LAMMPS Description

50 atoms

1 atom types
0 3.968503 xlo xhi
0 3.968503 ylo yhi
0 3.968503 zlo zhi


Atoms # sphere

1 1 1 2.35 1.39081 3.88311 2.80845
2 1 1 2.35 1.04279 0.357174 0.0716889
3 1 1 2.35 1.41698 3.68349 2.91572
4 1 1 2.35 3.52525 3.03564 1.87349
5 1 1 2.35 2.599 3.15228 1.2472
6 1 1 2.35 3.19688 0.110582 2.85257
7 1 1 2.35 3.36178 1.35517 2.18025
8 1 1 2.35 1.12212 3.63311 0.0173568
9 1 1 2.35 3.2263 2.96754 2.83729
10 1 1 2.35 3.1697 3.74426 2.68986
11 1 1 2.35 3.18947 0.65334 3.1385
12 1 1 2.35 2.39868 2.01575 2.34866
13 1 1 2.35 2.02937 3.4217 3.24257
14 1 1 2.35 3.94446 0.703497 1.72883
15 1 1 2.35 0.533871 3.19464 2.64381
16 1 1 2.35 1.20934 1.04378 2.29391
17 1 1 2.35 3.47581 0.0364662 0.062487
18 1 1 2.35 0.654128 3.54018 3.92572
19 1 1 2.35 2.86735 2.65146 0.732547
20 1 1 2.35 3.65147 0.541774 0.492244
21 1 1 2.35 2.3729 0.326107 1.09786
22 1 1 2.35 3.52571 0.48732 3.0934
23 1 1 2.35 1.80676 3.27298 3.44292
24 1 1 2.35 3.229 3.62974 0.915713
25 1 1 2.35 0.760618 1.1196 2.46695
26 1 1 2.35 1.97476 0.545967 2.32835
27 1 1 2.35 3.17758 2.13204 0.845705
28 1 1 2.35 0.826191 2.34164 0.383129
29 1 1 2.35 3.03984 0.892726 3.41597
30 1 1 2.35 2.89961 0.093159 3.09778
31 1 1 2.35 3.885 0.483303 1.47971
32 1 1 2.35 2.54167 2.92994 3.55016
33 1 1 2.35 2.84354 2.63633 0.897523
34 1 1 2.35 3.90214 2.91471 0.844718
35 1 1 2.35 2.01908 0.64399 3.69435
36 1 1 2.35 2.0954 0.0802232 0.858124
37 1 1 2.35 3.07838 0.624245 1.14848
38 1 1 2.35 3.0604 2.88029 2.79407
39 1 1 2.35 2.38178 1.57476 2.21413
40 1 1 2.35 0.250057 3.48771 1.39859
41 1 1 2.35 0.626205 0.342935 2.64601
42 1 1 2.35 1.80292 0.152411 1.85758
43 1 1 2.35 1.11346 0.0929469 3.00484
44 1 1 2.35 1.4566 1.03992 1.24372
45 1 1 2.35 0.0501631 2.25415 3.49674
46 1 1 2.35 1.9425 0.10336 1.29807
47 1 1 2.35 3.5615 0.77376 1.55897
48 1 1 2.35 2.47702 1.46397 0.240202
49 1 1 2.35 0.355883 1.62828 0.192766
50 1 1 2.35 1.529 3.54728 2.8179
