ITEM: TIMESTEP
150000
ITEM: NUMBER OF ATOMS
1000
ITEM: BOX BOUNDS xy xz yz pp pp pp
0.0000000000000000e+00 1.3572088000000001e+01 0.0000000000000000e+00
0.0000000000000000e+00 1.3572088000000001e+01 0.0000000000000000e+00
0.0000000000000000e+00 1.3572088000000001e+01 0.0000000000000000e+00
ITEM: ATOMS id x y z radius
1 7.0468 2.49283 0.627975 0.5
2 2.90425 10.1199 12.5464 0.5
3 13.0736 8.46285 6.28952 0.5
4 13.114 3.68194 10.7523 0.5
5 7.55337 13.1445 12.3064 0.5
6 13.4578 7.51379 4.14105 0.5
7 3.79952 5.87219 1.93878 0.5
8 9.56855 7.55583 4.4187 0.5
9 1.21893 1.76797 10.4775 0.5
10 5.40158 8.68028 2.23047 0.5
11 11.45 9.21644 12.4957 0.5
12 7.15852 10.5702 11.9831 0.5
13 5.24806 0.019793 9.38695 0.5
14 11.9414 11.9704 9.81804 0.5
15 6.3578 0.186261 0.0404013 0.5
16 1.56609 13.2733 11.5545 0.5
17 9.54161 7.57027 1.36145 0.5
18 10.5336 11.1147 0.904146 0.5
19 3.66613 9.1577 7.20144 0.5
20 5.56128 1.30358 8.83508 0.5
21 2.43488 8.78726 9.38838 0.5
22 7.79551 1.58368 1.69457 0.5
23 5.8634 13.0502 13.357 0.5
24 9.348 7.26916 5.58462 0.5
25 4.53462 11.4207 10.0591 0.5
26 2.07443 7.72883 7.6185 0.5
27 8.51046 7.63743 6.08631 0.5
28 12.8211 13.2234 2.68444 0.5
29 7.19262 10.517 1.32316 0.5
30 6.24396 6.88146 10.5111 0.5
31 7.2336 10.0263 4.65242 0.5
32 1.69265 10.7545 3.8291 0.5
33 11.5447 7.09775 3.29236 0.5
34 7.9619 7.47335 8.51827 0.5
35 12.0561 8.51971 11.824 0.5
36 10.6446 6.75255 2.5525 0.5
37 13.4836 0.7859 10.4404 0.5
38 9.46746 3.68902 10.1768 0.5
39 2.48654 7.99165 0.109012 0.5
40 8.84194 6.41061 9.0718 0.5
41 1.66325 6.97129 10.2205 0.5
42 9.86367 4.55169 12.2825 0.5
43 10.0858 0.642246 3.74225 0.5
44 4.34078 3.43212 2.92739 0.5
45 4.64395 6.43667 10.8658 0.5
46 0.403156 6.23463 3.39659 0.5
47 6.53588 10.9515 2.13436 0.5
48 0.842917 2.47878 13.4142 0.5
49 5.37382 12.598 1.25776 0.5
50 11.9421 11.9182 2.17441 0.5
51 6.02285 11.7631 1.58097 0.5
52 6.31966 8.06627 7.00221 0.5
53 3.75159 5.85508 3.65084 0.5
54 12.369 8.89929 0.934459 0.5
55 0.0199048 12.0865 1.92826 0.5
56 1.89037 12.8101 6.06405 0.5
57 7.7715 1.24893 10.5789 0.5
58 9.53614 1.01183 7.44914 0.5
59 9.63176 4.42418 7.39183 0.5
60 2.74712 3.09298 10.2793 0.5
61 0.984458 4.81926 2.88045 0.5
62 8.72253 10.3779 2.09086 0.5
63 0.197009 10.2938 10.5373 0.5
64 2.53403 1.61329 10.6809 0.5
65 0.659635 12.256 3.91401 0.5
66 4.67978 11.1941 2.8057 0.5
67 6.66858 1.65936 3.99392 0.5
68 12.1431 2.75314 6.87797 0.5
69 1.8721 3.23287 6.2988 0.5
70 7.93711 5.657 2.35693 0.5
71 6.80999 4.57787 13.2461 0.5
72 9.80227 12.4536 7.96461 0.5
73 12.4037 5.17752 4.19053 0.5
74 0.151871 5.09594 3.73768 0.5
75 12.6148 5.45612 11.3782 0.5
76 5.22837 5.24106 8.74409 0.5
77 9.67916 6.25771 4.37162 0.5
78 11.6453 7.91325 8.27398 0.5
79 9.16258 10.7339 6.37939 0.5
80 6.00513 2.53978 3.89188 0.5
81 12.2636 11.1384 1.03723 0.5
82 0.909923 6.07569 10.4307 0.5
83 2.24574 13.1664 2.49227 0.5
84 5.81348 2.2232 2.65269 0.5
85 7.59678 11.7602 3.81106 0.5
86 6.33106 8.07775 2.07868 0.5
87 11.5504 11.2784 5.60967 0.5
88 1.43066 5.90253 2.52033 0.5
89 3.7914 4.75424 6.95476 0.5
90 13.4882 12.2462 13.3495 0.5
91 3.92602 6.75961 10.817 0.5
92 13.5031 2.37249 4.13911 0.5
93 12.0464 9.46844 0.233025 0.5
94 10.4238 8.12725 6.1685 0.5
95 10.023 6.02465 1.47995 0.5
96 0.0242381 7.19581 10.1679 0.5
97 6.23098 10.8738 4.73216 0.5
98 6.92115 6.98289 6.81137 0.5
99 12.2038 5.9069 6.31353 0.5
100 12.546 5.85109 0.700431 0.5
101 4.30866 7.02606 11.4997 0.5
102 13.3761 8.19002 10.591 0.5
103 11.1508 7.26502 10.9318 0.5
104 4.7067 1.00662 5.25279 0.5
105 4.12516 11.2448 6.61331 0.5
106 6.37028 7.98001 13.4596 0.5
107 4.01558 12.6016 10.6554 0.5
108 3.45217 0.969476 2.60001 0.5
109 11.1539 3.99657 4.69142 0.5
110 6.36074 0.251843 10.578 0.5
111 4.23137 6.00348 11.023 0.5
112 7.77124 10.6785 9.81331 0.5
113 1.5692 2.82098 1.44441 0.5
114 13.2179 5.1577 10.0265 0.5
115 13.3192 4.75492 4.784 0.5
116 10.5177 6.37053 9.46196 0.5
117 8.60739 4.10985 12.0403 0.5
118 12.1746 4.52888 6.11227 0.5
119 2.24693 10.7441 10.52 0.5
120 9.1891 1.91417 2.56722 0.5
121 8.44894 10.6904 1.41261 0.5
122 0.60862 11.92 6.59808 0.5
123 3.14379 8.01611 10.8015 0.5
124 1.55078 8.78402 1.15646 0.5
125 13.5204 1.23896 5.31962 0.5
126 0.7256 2.70405 11.2984 0.5
127 2.33106 3.47926 11.7657 0.5
128 9.46375 8.99641 8.55253 0.5
129 12.0603 13.1173 9.32695 0.5
130 4.13013 9.84437 1.89105 0.5
131 2.53436 7.14977 0.917867 0.5
132 7.31062 5.33476 8.45722 0.5
133 5.9787 12.9351 3.16276 0.5
134 7.38842 10.8428 10.3688 0.5
135 1.47092 12.1715 9.49205 0.5
136 1.48616 4.11624 12.0597 0.5
137 6.51252 6.15709 8.26317 0.5
138 8.07405 3.74261 6.87428 0.5
139 8.56869 5.91845 6.8545 0.5
140 12.0561 2.49737 8.50937 0.5
141 10.7049 5.26712 6.02352 0.5
142 4.79674 0.890226 2.4126 0.5
143 0.563214 10.8536 0.54147 0.5
144 7.77616 8.43991 2.71837 0.5
145 7.37377 5.75118 12.7652 0.5
146 5.88259 3.95003 4.22207 0.5
147 1.34333 4.01941 1.84717 0.5
148 7.12047 9.6015 9.02719 0.5
149 8.05173 13.204 12.897 0.5
150 4.61314 9.02583 9.79175 0.5
151 13.2145 2.22162 8.12109 0.5
152 7.87857 3.87474 4.94985 0.5
153 10.1635 4.22641 6.59544 0.5
154 7.0274 2.96881 0.596091 0.5
155 4.42279 9.00389 9.69319 0.5
156 12.5059 2.81151 10.6484 0.5
157 12.0897 0.258212 6.46447 0.5
158 3.35063 6.52279 4.65523 0.5
159 2.70983 3.57816 3.37252 0.5
160 0.41496 9.71349 11.8393 0.5
161 3.28908 6.62048 10.0668 0.5
162 8.35526 7.6486 5.65925 0.5
163 4.59889 8.51335 0.916621 0.5
164 6.56342 3.00771 8.91534 0.5
165 3.50974 8.46701 1.34922 0.5
166 10.2785 4.93667 13.0906 0.5
167 6.64793 4.3297 1.12813 0.5
168 10.7038 4.5778 6.47114 0.5
169 7.58289 2.12785 4.56509 0.5
170 4.07629 9.29606 7.13693 0.5
171 2.14645 11.5536 12.9117 0.5
172 3.19619 7.87478 0.733296 0.5
173 12.8882 1.50621 1.48695 0.5
174 5.23646 3.61858 12.9594 0.5
175 2.59025 10.8852 1.1535 0.5
176 6.5472 11.3199 0.409201 0.5
177 12.9678 6.08271 6.73369 0.5
178 3.2998 13.1032 2.77891 0.5
179 0.21199 11.49 4.4489 0.5
180 4.73545 6.78035 12.1762 0.5
181 8.76837 10.4241 10.2967 0.5
182 1.38518 13.4196 12.4172 0.5
183 12.4272 10.1074 12.0369 0.5
184 9.92856 10.3686 9.50499 0.5
185 11.2454 11.3522 6.30908 0.5
186 9.30807 6.88972 0.137316 0.5
187 3.86167 10.6737 1.75928 0.5
188 1.80408 4.1334 11.2618 0.5
189 6.6317 1.56564 6.52698 0.5
190 3.76287 7.36548 9.59332 0.5
191 7.07766 1.54891 5.54418 0.5
192 12.7275 4.83139 10.9914 0.5
193 9.80238 0.987621 12.4144 0.5
194 7.04093 0.725507 3.08616 0.5
195 11.2541 6.97462 12.17 0.5
196 1.38422 13.4466 6.07146 0.5
197 10.5523 9.28007 11.4185 0.5
198 10.58 0.213005 12.2793 0.5
199 8.39472 8.41666 8.48166 0.5
200 1.68951 8.78914 2.84112 0.5
201 1.02692 6.81578 3.14272 0.5
202 4.11309 3.55788 6.28164 0.5
203 4.80634 8.72626 7.66121 0.5
204 5.20123 4.69942 3.309 0.5
205 7.64075 6.55579 3.21243 0.5
206 5.43165 1.18154 0.87751 0.5
207 12.7267 6.77791 5.63385 0.5
208 6.34951 0.752201 6.82036 0.5
209 10.3076 9.54712 5.93769 0.5
210 13.3557 2.35932 5.21523 0.5
211 1.58006 6.59903 7.60195 0.5
212 3.19428 2.48881 9.75651 0.5
213 0.523434 0.488407 5.4541 0.5
214 3.67635 12.0673 4.30736 0.5
215 0.564659 10.6336 10.6718 0.5
216 12.2277 8.95498 4.95337 0.5
217 11.6016 0.425995 0.673928 0.5
218 3.72283 13.4815 4.86949 0.5
219 7.41547 8.70354 9.471 0.5
220 1.58611 8.6886 13.1303 0.5
221 4.67036 11.6616 10.323 0.5
222 6.60602 3.49997 3.20645 0.5
223 0.0884993 5.77147 5.02531 0.5
224 0.53594 7.8729 0.949199 0.5
225 1.57828 0.219059 2.95486 0.5
226 2.23511 5.0781 10.623 0.5
227 8.89493 2.7787 4.97222 0.5
228 0.119591 10.3465 1.87061 0.5
229 4.17991 5.73979 7.38678 0.5
230 2.14815 5.85753 13.2307 0.5
231 7.31057 6.36327 10.0536 0.5
232 3.33235 10.38 1.25044 0.5
233 13.1869 6.19655 7.34884 0.5
234 10.6914 8.09273 9.05281 0.5
235 0.195838 0.968261 7.73591 0.5
236 7.62587 4.61706 9.28896 0.5
237 6.95471 10.2547 9.76072 0.5
238 2.9772 5.6173 8.31806 0.5
239 10.2034 8.11263 9.85882 0.5
240 12.3328 12.4621 11.6536 0.5
241 5.44351 6.22467 1.69683 0.5
242 0.732668 6.92614 2.31141 0.5
243 4.91937 6.40595 9.46432 0.5
244 11.1949 12.1854 8.51478 0.5
245 1.247 10.1281 9.07256 0.5
246 0.879529 0.25753 3.63807 0.5
247 0.914433 6.8413 9.85008 0.5
248 4.09916 11.4537 2.10364 0.5
249 8.08637 1.85537 6.1968 0.5
250 10.23 5.91091 7.16435 0.5
251 8.4608 3.66878 7.28015 0.5
252 9.92407 4.23827 4.41123 0.5
253 4.98493 2.93489 10.0271 0.5
254 10.7125 7.62195 4.27305 0.5
255 3.55159 5.38608 0.188453 0.5
256 13.0373 2.93491 13.1013 0.5
257 2.32565 1.54791 5.58158 0.5
258 4.35481 6.94373 10.1823 0.5
259 9.63757 5.64969 4.63737 0.5
260 2.70913 10.863 9.47358 0.5
261 0.341151 0.0144819 11.4201 0.5
262 12.9743 13.5917 9.79206 0.5
263 13.4358 9.32059 4.40934 0.5
264 0.464441 8.98501 1.68729 0.5
265 4.29972 11.9656 2.53759 0.5
266 9.5044 1.43078 1.72519 0.5
267 4.78515 11.0962 3.66218 0.5
268 8.6054 7.13362 6.64362 0.5
269 8.10427 2.05226 8.95257 0.5
270 10.3752 10.5165 6.18949 0.5
271 8.13908 9.20925 0.903589 0.5
272 3.9988 9.65778 0.807677 0.5
273 2.69267 0.947354 13.2108 0.5
274 11.7907 9.00494 7.4443 0.5
275 1.31551 9.35038 10.5155 0.5
276 8.82048 13.3214 10.7562 0.5
277 0.117474 9.22681 8.31931 0.5
278 10.4873 3.06047 10.2854 0.5
279 4.03214 7.10974 7.38959 0.5
280 3.26623 6.89562 5.42386 0.5
281 10.9164 12.5376 8.86357 0.5
282 1.25174 6.9545 0.881458 0.5
283 10.5568 3.74784 6.92551 0.5
284 6.85213 3.26017 11.903 0.5
285 12.0075 0.557142 12.0382 0.5
286 0.69204 13.0923 2.08442 0.5
287 7.69766 9.92217 8.21668 0.5
288 3.14086 0.860484 3.24738 0.5
289 2.40979 8.65963 5.51414 0.5
290 0.545716 8.02309 3.95761 0.5
291 7.63855 11.8912 1.28772 0.5
292 4.44653 2.846 6.67401 0.5
293 3.75013 5.42211 10.5697 0.5
294 8.42848 4.00384 1.80613 0.5
295 7.92857 8.42068 7.42916 0.5
296 4.28956 8.24628 4.49782 0.5
297 9.08652 6.14141 5.64367 0.5
298 10.4613 3.05994 10.2324 0.5
299 9.0847 0.325282 4.8135 0.5
300 7.48647 2.44565 6.82146 0.5
301 7.85369 12.4764 4.3916 0.5
302 12.7991 11.6255 12.4699 0.5
303 4.2894 6.43493 6.73315 0.5
304 0.315284 3.42382 8.52756 0.5
305 13.3796 6.86121 3.14458 0.5
306 11.5724 7.30833 6.17331 0.5
307 12.5137 10.4127 2.6656 0.5
308 10.8601 9.21917 11.1849 0.5
309 0.996533 0.858445 9.09898 0.5
310 0.998647 7.10662 5.97132 0.5
311 6.53862 2.98938 8.6843 0.5
312 1.76032 2.65928 9.17956 0.5
313 13.1536 11.2897 9.64703 0.5
314 12.0424 9.39625 2.67388 0.5
315 6.85911 1.22053 5.50746 0.5
316 12.5537 8.24968 1.1027 0.5
317 2.82743 8.41923 5.10903 0.5
318 12.6263 6.13877 11.662 0.5
319 0.262762 0.256372 9.67176 0.5
320 3.94878 8.83123 13.5408 0.5
321 10.0809 11.3012 11.9733 0.5
322 3.12027 0.127718 1.78975 0.5
323 10.9429 2.90272 2.66335 0.5
324 11.6349 4.95689 1.45773 0.5
325 3.67683 7.74958 7.697 0.5
326 9.81131 7.79245 1.68512 0.5
327 9.11734 10.6894 2.89678 0.5
328 12.8274 12.6374 6.49237 0.5
329 3.17304 7.82183 0.982357 0.5
330 2.68471 7.86842 5.05875 0.5
331 5.57836 2.12602 10.5852 0.5
332 9.95902 6.97146 2.4748 0.5
333 9.49853 5.724 9.87611 0.5
334 4.41274 9.59919 10.6949 0.5
335 0.746444 5.98761 10.787 0.5
336 4.18206 7.98443 8.69225 0.5
337 10.1779 0.270347 2.49237 0.5
338 12.7261 8.46364 13.4945 0.5
339 12.9522 10.6852 9.83336 0.5
340 10.1244 6.88715 2.84978 0.5
341 4.90141 6.40139 3.05827 0.5
342 8.98533 7.05015 8.53772 0.5
343 10.8076 10.1604 1.42399 0.5
344 7.66234 9.1005 6.47649 0.5
345 7.09042 7.43779 8.31879 0.5
346 6.87095 5.29744 1.83834 0.5
347 9.7966 2.10671 5.54718 0.5
348 5.78372 11.8329 7.8078 0.5
349 5.867 3.74155 8.22524 0.5
350 3.30698 1.38432 8.81347 0.5
351 6.16619 8.21643 12.4757 0.5
352 4.8571 6.85623 4.76787 0.5
353 8.60539 11.7258 1.64236 0.5
354 9.17488 2.8831 10.8628 0.5
355 2.72246 7.32363 8.80403 0.5
356 10.7673 1.71587 10.9745 0.5
357 9.98512 13.3045 10.4289 0.5
358 11.6081 7.21247 2.01683 0.5
359 0.815914 4.3183 1.07949 0.5
360 9.39217 8.1839 4.45555 0.5
361 9.57468 2.32396 10.9848 0.5
362 6.61865 12.5598 7.46479 0.5
363 2.51076 9.00095 8.91113 0.5
364 2.38539 0.256294 8.86586 0.5
365 7.9871 7.72262 2.26158 0.5
366 0.0641265 13.4083 2.94788 0.5
367 9.46133 8.8742 4.19451 0.5
368 7.70338 11.1653 3.09258 0.5
369 3.97108 8.17897 4.03428 0.5
370 6.2849 0.509926 10.5623 0.5
371 2.78609 12.3612 5.66477 0.5
372 6.60536 1.87446 11.002 0.5
373 0.368243 7.00352 11.4334 0.5
374 5.77536 4.34912 3.86278 0.5
375 1.00646 7.19694 0.500821 0.5
376 3.13824 1.02905 13.1873 0.5
377 0.777113 4.23301 1.88822 0.5
378 7.09476 5.71698 8.03782 0.5
379 5.30353 5.8816 8.93988 0.5
380 6.6333 1.51762 11.1973 0.5
381 12.8233 5.31715 9.69469 0.5
382 7.04847 5.19048 5.49923 0.5
383 2.60154 5.97702 1.43972 0.5
384 0.12299 6.91666 10.7569 0.5
385 1.56435 0.801116 12.7322 0.5
386 12.3716 6.87194 7.1485 0.5
387 12.9966 1.08617 2.03978 0.5
388 12.6287 7.57234 5.60403 0.5
389 12.3619 6.38094 3.54621 0.5
390 2.01384 3.86903 12.091 0.5
391 2.26455 7.57867 13.0536 0.5
392 8.13923 5.42008 7.62289 0.5
393 3.0235 6.57591 2.68716 0.5
394 12.7104 8.03475 9.56051 0.5
395 1.52286 12.1696 5.65491 0.5
396 3.73289 3.54809 6.10106 0.5
397 10.2782 6.73866 11.322 0.5
398 6.15077 9.12277 5.21872 0.5
399 1.10625 8.62712 8.68036 0.5
400 10.2641 11.205 10.6055 0.5
401 1.51535 9.95261 1.30718 0.5
402 12.2565 1.16117 5.1486 0.5
403 0.920484 5.18804 9.12271 0.5
404 4.18191 6.10374 1.75776 0.5
405 8.31716 4.73205 8.66423 0.5
406 0.538912 5.5173 8.8778 0.5
407 7.8421 10.8205 7.14577 0.5
408 3.21319 2.76029 3.37005 0.5
409 7.37399 11.1896 12.2316 0.5
410 4.10495 1.61723 0.13417 0.5
411 4.49466 3.57116 2.25934 0.5
412 11.4261 12.4912 11.8281 0.5
413 1.01318 13.3445 10.6921 0.5
414 2.94764 5.28367 3.61021 0.5
415 4.32462 3.11104 9.9957 0.5
416 1.21844 3.43599 12.5046 0.5
417 7.35204 12.9076 7.05136 0.5
418 5.531 4.56544 3.43703 0.5
419 7.89517 5.37568 8.31231 0.5
420 10.0015 11.1997 1.40315 0.5
421 1.46629 4.10002 10.9601 0.5
422 0.95878 8.37944 6.25162 0.5
423 5.1204 2.95822 3.44473 0.5
424 0.486438 13.2951 6.15517 0.5
425 9.46362 5.7597 2.16137 0.5
426 12.1177 1.07065 11.0762 0.5
427 8.7363 10.5031 11.9506 0.5
428 1.89232 11.2348 0.607996 0.5
429 11.4496 9.38026 8.10159 0.5
430 0.306631 5.64482 10.7877 0.5
431 6.19184 7.17828 10.621 0.5
432 10.1491 11.0201 10.7982 0.5
433 5.67818 9.88498 0.760457 0.5
434 13.3078 9.26963 7.65468 0.5
435 6.9626 7.92055 6.31491 0.5
436 8.21145 11.9823 1.73198 0.5
437 0.809653 2.10089 2.99207 0.5
438 3.9625 9.42808 8.3301 0.5
439 9.26109 1.5974 4.3715 0.5
440 4.94901 6.91789 11.9667 0.5
441 5.6635 10.1404 3.24691 0.5
442 11.8885 7.79578 1.67005 0.5
443 13.5418 8.94795 0.411045 0.5
444 7.64092 7.3406 10.9719 0.5
445 4.43078 3.32239 2.21988 0.5
446 11.8726 11.5371 4.41048 0.5
447 3.22462 0.458 12.6669 0.5
448 8.28826 7.50446 7.74699 0.5
449 11.7142 6.75003 2.39194 0.5
450 8.0931 12.1741 2.45419 0.5
451 2.8467 3.5508 7.55597 0.5
452 4.14641 4.47768 1.94106 0.5
453 6.41592 7.38881 3.44046 0.5
454 7.39574 2.66991 12.1333 0.5
455 1.38781 2.40092 7.84349 0.5
456 4.79727 4.78018 2.76342 0.5
457 6.19958 4.31656 3.07618 0.5
458 5.2636 2.10399 8.62937 0.5
459 4.84333 3.43199 0.0789071 0.5
460 5.15233 0.743346 6.13945 0.5
461 4.96612 6.25124 11.8505 0.5
462 4.37054 7.4243 1.81838 0.5
463 9.45085 6.04637 8.77195 0.5
464 1.25604 9.94768 3.33871 0.5
465 6.98666 7.32478 12.1006 0.5
466 9.76915 13.0042 11.4078 0.5
467 5.47202 4.11006 8.84734 0.5
468 6.88538 11.2651 13.4452 0.5
469 2.19541 0.998284 12.1335 0.5
470 11.7348 3.42193 11.5948 0.5
471 7.70316 7.44987 4.76558 0.5
472 5.34409 9.38221 11.6557 0.5
473 4.48378 6.67268 0.0355793 0.5
474 12.6814 11.4004 2.23994 0.5
475 12.8905 2.28562 8.98347 0.5
476 2.5408 1.96139 3.4618 0.5
477 12.1527 1.04854 11.9529 0.5
478 11.4905 8.96617 2.82206 0.5
479 3.26141 0.422531 5.72058 0.5
480 10.5422 1.99302 4.18644 0.5
481 1.70189 10.4743 1.80448 0.5
482 1.92913 9.84769 12.4896 0.5
483 8.35764 0.684956 5.83313 0.5
484 8.49425 7.41203 8.40512 0.5
485 0.651115 12.9888 11.5712 0.5
486 10.1568 0.255628 12.0711 0.5
487 12.4932 3.52606 2.86149 0.5
488 8.55297 0.973266 8.05584 0.5
489 5.61529 7.68745 5.62175 0.5
490 10.133 4.4085 0.691731 0.5
491 8.88373 2.4077 8.52809 0.5
492 11.265 12.591 0.873549 0.5
493 12.7948 10.0378 0.772551 0.5
494 1.80403 1.08798 4.16727 0.5
495 6.97055 2.91921 8.57293 0.5
496 5.89365 8.10284 0.707539 0.5
497 8.9032 6.91973 1.08362 0.5
498 2.74745 10.9984 3.01526 0.5
499 7.87292 5.20045 12.9937 0.5
500 8.62509 1.05139 3.82654 0.5
501 7.15714 4.84327 2.07177 0.5
502 11.3983 2.37575 1.59986 0.5
503 5.92866 4.68114 6.91701 0.5
504 5.0283 0.0170466 8.95419 0.5
505 0.420445 11.8229 1.3502 0.5
506 12.5664 6.96178 10.3454 0.5
507 3.99816 6.07482 9.70027 0.5
508 0.577277 4.26502 13.1927 0.5
509 5.22358 11.755 2.75054 0.5
510 9.33871 7.94438 4.53524 0.5
511 4.07174 8.19173 8.30852 0.5
512 5.55144 1.42665 4.97908 0.5
513 8.99588 11.8897 8.67324 0.5
514 2.24726 6.70598 13.0461 0.5
515 4.48696 12.6805 6.50286 0.5
516 11.9651 7.4566 7.13216 0.5
517 12.2824 0.708483 3.19711 0.5
518 10.8781 8.4472 6.81432 0.5
519 2.92443 0.483127 2.49907 0.5
520 2.13376 1.69928 3.71638 0.5
521 6.87864 13.0031 8.53764 0.5
522 0.871656 2.61346 3.40425 0.5
523 6.58986 8.16546 2.27356 0.5
524 12.4181 10.7171 2.88904 0.5
525 5.71293 6.61988 6.79405 0.5
526 2.49895 10.0239 5.25523 0.5
527 8.30451 11.2447 11.2305 0.5
528 13.0109 7.77309 6.15118 0.5
529 4.33047 1.48333 13.4709 0.5
530 3.57979 0.527133 3.57219 0.5
531 4.07565 3.69996 9.55339 0.5
532 0.933837 8.49068 5.58262 0.5
533 9.49614 10.9955 12.8001 0.5
534 10.7969 11.7351 0.457138 0.5
535 12.5876 8.88733 13.4399 0.5
536 5.20194 12.049 3.37587 0.5
537 0.480685 11.6052 3.72801 0.5
538 7.20707 12.0499 4.75347 0.5
539 5.11353 6.5152 11.7533 0.5
540 6.81164 9.02417 7.24728 0.5
541 6.7548 11.3232 3.58827 0.5
542 12.3347 10.6519 6.61063 0.5
543 10.4228 5.06914 9.51236 0.5
544 8.54638 4.56046 3.36055 0.5
545 8.39598 8.71305 5.98994 0.5
546 6.26528 12.9747 9.23431 0.5
547 5.28984 2.75613 6.15786 0.5
548 1.23878 2.87897 7.65978 0.5
549 8.765 13.4232 9.06747 0.5
550 2.89301 8.24127 13.1685 0.5
551 11.3677 3.99676 1.28914 0.5
552 5.26196 12.4154 1.57841 0.5
553 0.99839 7.18269 0.413038 0.5
554 2.10161 0.657354 11.084 0.5
555 1.56214 10.1775 12.5901 0.5
556 6.99915 0.145278 1.72118 0.5
557 12.631 7.19362 11.7917 0.5
558 7.2423 13.1365 2.0953 0.5
559 1.98375 10.1371 6.2408 0.5
560 2.81955 4.31356 3.31753 0.5
561 2.83741 3.05709 10.2606 0.5
562 6.36982 6.50324 10.2912 0.5
563 7.02139 7.95718 11.532 0.5
564 5.74347 1.81286 12.3615 0.5
565 2.00283 5.04123 7.12161 0.5
566 5.62857 8.88872 12.8444 0.5
567 4.57545 6.00346 7.47654 0.5
568 8.96503 11.8884 12.1919 0.5
569 11.5087 3.37511 6.98053 0.5
570 7.24435 3.81063 12.7265 0.5
571 4.29753 7.52273 1.13853 0.5
572 4.97499 7.62482 7.69061 0.5
573 9.8682 0.152461 10.8704 0.5
574 5.16192 0.198355 11.208 0.5
575 12.8012 11.0652 4.54917 0.5
576 2.94901 0.529436 4.44799 0.5
577 9.19287 11.5112 10.3411 0.5
578 13.1306 9.23918 12.734 0.5
579 1.22426 7.72295 5.25416 0.5
580 10.7145 4.27137 7.19037 0.5
581 9.1422 12.2925 3.65497 0.5
582 10.5674 11.7089 4.53325 0.5
583 0.921825 10.5392 1.92836 0.5
584 0.917035 0.0751121 2.38048 0.5
585 2.26696 13.3991 7.55977 0.5
586 9.45895 2.54023 1.10368 0.5
587 7.5361 11.6904 11.0529 0.5
588 9.26197 8.98471 10.7384 0.5
589 2.87915 5.08308 0.869991 0.5
590 5.87271 5.91339 10.695 0.5
591 4.91738 6.62625 13.6089 0.5
592 4.70719 12.1263 8.41951 0.5
593 0.277214 2.02551 9.38333 0.5
594 1.88179 13.4652 0.593027 0.5
595 2.34718 3.97338 5.14612 0.5
596 6.2012 1.84084 2.35288 0.5
597 1.72914 9.81741 4.43959 0.5
598 4.90678 2.34943 4.69589 0.5
599 2.79888 10.4876 5.99404 0.5
600 0.916656 13.5004 3.69377 0.5
601 0.795825 3.27481 5.27049 0.5
602 4.60913 13.4434 10.4875 0.5
603 9.99703 8.67126 12.3899 0.5
604 1.29171 0.0914435 6.69995 0.5
605 11.3731 12.4472 2.36175 0.5
606 8.1591 8.77212 4.4653 0.5
607 12.9822 12.9405 10.2685 0.5
608 2.88295 1.27503 8.36788 0.5
609 9.37499 12.4977 8.40122 0.5
610 0.572511 10.4815 8.18902 0.5
611 8.09869 11.9263 13.0667 0.5
612 0.553896 6.34448 7.19686 0.5
613 13.4914 3.24682 9.51962 0.5
614 7.59057 8.12645 11.467 0.5
615 3.10392 12.0288 8.48597 0.5
616 0.765432 11.1467 10.9402 0.5
617 10.8822 3.95915 0.427244 0.5
618 11.0874 8.47245 3.93958 0.5
619 5.92707 5.0387 13.3048 0.5
620 13.3525 0.837348 2.58484 0.5
621 9.8942 9.32636 7.83178 0.5
622 5.24015 1.93076 5.64446 0.5
623 10.7819 8.61424 12.8811 0.5
624 7.14816 1.44374 3.07195 0.5
625 11.5428 2.19388 7.89838 0.5
626 5.40882 8.30965 8.81831 0.5
627 6.72676 4.60617 2.9932 0.5
628 13.4862 7.7162 4.15623 0.5
629 1.65878 8.12783 6.64395 0.5
630 11.211 1.13062 9.36514 0.5
631 0.594346 1.33066 3.26709 0.5
632 5.80124 6.12535 5.60652 0.5
633 6.08557 3.57584 7.02624 0.5
634 7.61162 5.61003 2.57564 0.5
635 8.46425 4.6086 12.7018 0.5
636 7.48413 2.62311 0.824724 0.5
637 13.4987 5.36316 3.25412 0.5
638 7.85009 12.9163 5.6153 0.5
639 1.5419 8.6657 8.8779 0.5
640 8.69346 12.3974 7.32613 0.5
641 8.57752 6.48714 6.92152 0.5
642 7.34161 10.4092 9.04588 0.5
643 3.67986 11.7124 9.33303 0.5
644 0.656658 10.0433 3.75682 0.5
645 9.92847 3.46231 8.79475 0.5
646 1.61263 4.21446 3.73046 0.5
647 12.5782 9.81387 10.0839 0.5
648 3.3482 9.84762 3.40814 0.5
649 9.23802 9.68746 5.78653 0.5
650 2.87684 6.21864 7.81289 0.5
651 4.02173 0.854861 11.2117 0.5
652 3.97539 8.34757 2.00319 0.5
653 6.64515 12.1977 7.35591 0.5
654 1.54218 4.43623 0.401189 0.5
655 5.59416 11.8128 2.58987 0.5
656 12.7835 5.57161 6.98922 0.5
657 8.25882 6.39961 11.9421 0.5
658 4.53746 3.25633 10.2987 0.5
659 9.83567 5.53591 7.86329 0.5
660 4.53551 4.2535 7.55227 0.5
661 10.5818 0.890528 8.32991 0.5
662 2.21642 1.25811 11.146 0.5
663 5.86229 10.2268 13.3029 0.5
664 1.57637 0.725047 1.92239 0.5
665 9.63321 6.25325 5.45003 0.5
666 8.35683 12.9262 0.130399 0.5
667 0.246263 5.75556 8.09394 0.5
668 8.59949 13.4816 9.6372 0.5
669 11.6135 7.84716 12.7649 0.5
670 0.625076 0.701059 10.0829 0.5
671 10.1303 9.86313 9.53559 0.5
672 11.5306 9.48855 8.47208 0.5
673 2.10661 7.68978 10.0061 0.5
674 0.168083 11.495 0.255867 0.5
675 10.0055 8.61799 0.362599 0.5
676 7.94359 11.9116 11.8638 0.5
677 12.6688 12.844 1.41642 0.5
678 5.8321 7.17013 1.00708 0.5
679 8.56852 5.8224 5.2631 0.5
680 7.66064 0.138432 13.4052 0.5
681 11.2966 1.06224 11.5568 0.5
682 4.31705 9.65235 6.90279 0.5
683 8.37692 5.89092 8.10619 0.5
684 12.4882 1.0656 3.58452 0.5
685 12.8899 6.15473 12.2388 0.5
686 8.03356 13.2218 0.444763 0.5
687 8.34717 7.31894 3.54043 0.5
688 12.77 3.50003 5.73102 0.5
689 0.358711 9.7007 3.48964 0.5
690 0.756378 6.84891 7.0981 0.5
691 1.79008 6.37808 10.9024 0.5
692 7.77198 8.23825 5.58872 0.5
693 0.906203 5.43366 13.3259 0.5
694 8.28343 12.6393 8.14553 0.5
695 9.40919 3.16513 11.7904 0.5
696 11.5605 1.02183 5.48072 0.5
697 0.577063 3.64808 12.0777 0.5
698 10.621 5.497 0.192312 0.5
699 6.56326 2.04995 5.80346 0.5
700 6.51785 10.3816 0.0728032 0.5
701 11.0606 1.61381 0.351398 0.5
702 0.478546 11.3624 1.32485 0.5
703 7.27672 1.52935 8.4524 0.5
704 9.09718 7.97159 12.3125 0.5
705 6.73539 10.6464 10.1226 0.5
706 5.79611 12.9691 7.36255 0.5
707 13.4786 1.50813 0.0906339 0.5
708 12.1139 2.94728 13.2259 0.5
709 13.4893 6.23063 7.27188 0.5
710 6.4553 7.24077 9.17363 0.5
711 8.7429 2.7614 7.09091 0.5
712 10.4807 5.95439 5.91627 0.5
713 7.63219 12.3281 10.0707 0.5
714 10.9284 9.94845 7.01976 0.5
715 5.1566 0.505127 11.6075 0.5
716 10.1102 10.2305 3.95863 0.5
717 8.33699 6.36317 6.95775 0.5
718 1.31105 2.34194 7.60271 0.5
719 4.60227 13.2742 3.96486 0.5
720 2.02453 8.74586 8.82593 0.5
721 9.76581 11.891 0.469775 0.5
722 6.18929 3.15175 11.0658 0.5
723 11.5611 4.21984 2.69016 0.5
724 7.9247 3.89219 2.20231 0.5
725 10.3256 3.09217 3.93333 0.5
726 0.0801903 5.59027 4.50261 0.5
727 0.435037 1.82573 12.169 0.5
728 3.16152 12.8917 8.74402 0.5
729 11.9545 9.0686 1.9735 0.5
730 8.94175 4.83773 4.53624 0.5
731 11.5002 9.88194 5.42837 0.5
732 4.68121 12.5385 11.0604 0.5
733 5.67155 3.70358 5.43201 0.5
734 9.27458 9.10898 10.9596 0.5
735 2.71843 3.69044 10.5602 0.5
736 3.7271 13.1074 9.79514 0.5
737 1.9442 0.815587 12.2759 0.5
738 5.59383 11.8724 8.21613 0.5
739 2.21715 11.9266 1.57375 0.5
740 4.84697 4.21569 8.8615 0.5
741 1.0548 12.3049 0.804136 0.5
742 4.002 5.12344 11.9759 0.5
743 4.6494 13.0064 8.62883 0.5
744 2.97792 3.4498 8.72426 0.5
745 11.3626 12.6477 8.36973 0.5
746 6.21261 7.16263 1.08946 0.5
747 6.6107 12.0677 0.293258 0.5
748 0.465321 7.3954 6.23529 0.5
749 5.75682 5.87384 3.96259 0.5
750 5.00557 4.04678 13.496 0.5
751 6.47364 11.0428 13.4261 0.5
752 4.49463 7.82634 4.63135 0.5
753 11.51 9.96641 2.85657 0.5
754 12.3899 6.4183 12.1251 0.5
755 0.101196 0.0774427 11.8455 0.5
756 0.330422 6.78997 11.7213 0.5
757 12.677 8.31535 3.68565 0.5
758 11.8094 0.398839 3.76965 0.5
759 9.11809 4.04221 8.04914 0.5
760 3.53666 7.97411 3.05795 0.5
761 10.0563 7.52204 3.89404 0.5
762 11.8424 5.53531 7.70212 0.5
763 0.305595 7.28011 8.93149 0.5
764 2.80628 13.351 11.6076 0.5
765 5.57636 5.11986 7.02396 0.5
766 13.1656 10.5727 1.48667 0.5
767 2.38721 10.0245 5.25677 0.5
768 5.49144 4.64045 11.9961 0.5
769 2.47122 7.12472 0.737875 0.5
770 10.2074 4.16253 11.4072 0.5
771 7.9229 11.3053 0.614179 0.5
772 6.9019 13.5648 9.4375 0.5
773 1.61664 8.07813 10.1386 0.5
774 7.51213 8.88135 10.6068 0.5
775 9.19012 7.07507 0.0297567 0.5
776 10.1711 13.2017 8.7798 0.5
777 6.69756 0.744316 4.88471 0.5
778 12.6571 10.0118 6.89596 0.5
779 13.2801 8.26513 5.55373 0.5
780 11.4342 1.20888 12.8947 0.5
781 10.315 7.9065 1.35183 0.5
782 0.638119 8.75405 12.065 0.5
783 2.94506 0.107587 8.88602 0.5
784 4.24716 3.83345 5.25391 0.5
785 0.615191 7.66303 9.27946 0.5
786 8.97154 5.49834 8.78556 0.5
787 0.87923 7.35686 12.1793 0.5
788 2.55828 0.381518 13.503 0.5
789 9.27378 10.3387 12.4478 0.5
790 8.13596 0.829074 6.73569 0.5
791 13.2843 6.28702 2.63491 0.5
792 10.0227 1.82212 12.5373 0.5
793 11.233 6.45604 5.55738 0.5
794 2.71646 6.14952 12.4151 0.5
795 3.03557 13.3137 0.58941 0.5
796 2.76393 11.0782 7.00949 0.5
797 11.6304 1.05608 5.22056 0.5
798 12.7057 1.7862 1.72983 0.5
799 6.59588 2.98786 4.94989 0.5
800 10.7681 0.486597 4.50526 0.5
801 7.13683 1.05915 9.54304 0.5
802 2.56417 4.30009 13.0573 0.5
803 4.09719 12.2938 1.84626 0.5
804 9.79844 7.04251 11.7657 0.5
805 8.15164 7.03608 4.97285 0.5
806 7.8528 0.934018 3.65453 0.5
807 11.0551 0.660413 9.11041 0.5
808 10.9268 0.656424 9.37992 0.5
809 12.5725 2.78079 4.68473 0.5
810 13.2147 5.98883 5.35009 0.5
811 9.91934 0.83097 5.89106 0.5
812 10.1477 7.12088 4.70557 0.5
813 9.04727 0.959215 9.4377 0.5
814 11.4217 6.63147 9.11462 0.5
815 6.45757 5.13639 13.4578 0.5
816 6.86533 1.35757 10.8812 0.5
817 2.62019 4.80894 1.32113 0.5
818 12.9207 5.00242 11.3661 0.5
819 0.077044 9.97841 11.5551 0.5
820 11.8693 8.93924 3.59027 0.5
821 12.8544 11.0065 3.48152 0.5
822 2.96298 5.15941 12.8108 0.5
823 6.20371 10.9201 2.91989 0.5
824 9.27495 10.3232 4.08764 0.5
825 4.07379 10.3075 12.8776 0.5
826 7.77755 9.81107 7.23705 0.5
827 7.25208 13.1335 1.10426 0.5
828 12.6745 8.63274 2.99488 0.5
829 2.40823 11.1558 7.57927 0.5
830 3.84059 6.25151 4.01012 0.5
831 6.88986 13.102 8.88859 0.5
832 12.0062 11.2375 6.09034 0.5
833 12.0334 10.5027 8.81315 0.5
834 8.12452 10.426 1.52721 0.5
835 6.03422 4.7392 5.38072 0.5
836 2.65596 0.99093 6.76717 0.5
837 3.87043 13.111 6.59922 0.5
838 8.78812 9.97153 11.215 0.5
839 0.611628 9.28465 3.37598 0.5
840 7.28876 2.46701 10.1078 0.5
841 12.449 11.7145 1.47431 0.5
842 12.3088 3.40589 3.01537 0.5
843 12.4438 7.17937 4.62181 0.5
844 11.9248 10.327 10.232 0.5
845 4.50219 4.25627 6.6072 0.5
846 9.85286 9.19071 9.85013 0.5
847 9.46144 6.78092 3.8833 0.5
848 7.43178 12.1692 0.688873 0.5
849 4.69052 0.382994 0.542713 0.5
850 12.9715 11.6387 9.26806 0.5
851 6.83222 11.9913 5.57738 0.5
852 4.65793 5.66047 8.86018 0.5
853 3.50011 9.23658 11.3503 0.5
854 5.0587 4.36296 9.40661 0.5
855 5.21957 10.1081 12.1917 0.5
856 7.94078 3.12048 7.65422 0.5
857 11.1642 5.54579 13.3237 0.5
858 8.39253 9.09296 3.39361 0.5
859 4.1201 1.918 5.67104 0.5
860 0.392082 13.3125 7.63456 0.5
861 12.5315 9.65441 3.93475 0.5
862 12.7448 7.03225 10.9963 0.5
863 13.061 7.11556 2.38424 0.5
864 7.97949 6.19983 0.434541 0.5
865 0.586225 10.0486 0.718573 0.5
866 4.10112 12.875 10.9433 0.5
867 8.9523 3.55426 10.8366 0.5
868 6.71699 10.9167 0.159961 0.5
869 7.28915 5.13562 7.72364 0.5
870 8.33743 5.58649 1.1441 0.5
871 5.14493 2.08615 9.75811 0.5
872 11.3736 4.21554 5.13028 0.5
873 6.91148 5.60312 7.88797 0.5
874 10.8203 6.54651 3.65358 0.5
875 12.9158 10.9165 12.593 0.5
876 4.87293 5.28301 2.53487 0.5
877 7.56654 7.88169 13.2045 0.5
878 0.234851 2.72095 11.8048 0.5
879 6.4579 7.2066 6.67712 0.5
880 9.75208 8.60969 2.995 0.5
881 0.844994 4.1295 2.86792 0.5
882 8.17152 6.19111 7.79805 0.5
883 6.96052 7.61456 11.1135 0.5
884 6.33412 3.51041 5.39075 0.5
885 6.7026 10.0916 0.603327 0.5
886 9.07326 8.92996 11.8772 0.5
887 2.30108 7.14362 5.35496 0.5
888 2.30545 2.12423 0.430157 0.5
889 8.0389 6.40149 3.27568 0.5
890 2.14405 5.67131 11.9446 0.5
891 2.48006 9.94081 3.7845 0.5
892 4.34642 2.11384 2.95457 0.5
893 10.9941 10.0159 7.50166 0.5
894 0.0167299 12.353 7.48191 0.5
895 12.3057 10.3501 0.0311815 0.5
896 3.90663 7.80221 13.3425 0.5
897 12.7987 2.73877 6.78822 0.5
898 9.05798 12.5371 12.6708 0.5
899 2.15552 10.7133 8.04224 0.5
900 9.40744 1.85418 4.76096 0.5
901 5.76103 1.00207 1.54396 0.5
902 8.45945 0.187809 8.74997 0.5
903 8.6235 10.9888 12.1224 0.5
904 7.03853 8.33156 1.94459 0.5
905 0.932682 10.9399 10.9121 0.5
906 12.1417 6.4186 10.0289 0.5
907 6.02148 13.0477 0.527212 0.5
908 7.42158 8.89005 4.58757 0.5
909 0.527826 11.0308 1.31265 0.5
910 2.73548 11.6378 13.5134 0.5
911 6.74673 6.84757 12.8081 0.5
912 12.6779 10.5309 4.54297 0.5
913 11.4705 10.1764 1.31313 0.5
914 8.35344 3.39494 6.21699 0.5
915 9.5288 11.8619 9.08593 0.5
916 2.20583 11.5708 4.2078 0.5
917 6.07603 10.7654 4.81472 0.5
918 10.9175 2.261 8.4079 0.5
919 1.19399 6.59581 4.5408 0.5
920 12.04 10.0985 9.46013 0.5
921 12.6482 1.9514 6.69247 0.5
922 3.93742 3.80851 7.46426 0.5
923 12.4382 10.524 8.41761 0.5
924 4.15801 7.95627 3.78294 0.5
925 8.53837 0.773582 12.0762 0.5
926 7.93293 8.45268 4.3534 0.5
927 12.8356 12.3648 7.73223 0.5
928 3.13801 4.40307 1.94123 0.5
929 5.25804 13.5195 2.82616 0.5
930 13.2872 2.02356 9.82126 0.5
931 12.8898 7.7272 10.7122 0.5
932 4.10649 0.197516 1.46193 0.5
933 6.1239 7.92316 1.15917 0.5