ITEM: TIMESTEP
760000
ITEM: NUMBER OF ATOMS
1000
ITEM: BOX BOUNDS xy xz yz pp pp pp
0.0000000000000000e+00 1.3572088000000001e+01 0.0000000000000000e+00
0.0000000000000000e+00 1.3572088000000001e+01 0.0000000000000000e+00
0.0000000000000000e+00 1.3572088000000001e+01 0.0000000000000000e+00
ITEM: ATOMS id x y z radius
1 8.73335 12.3414 11.5746 0.5
2 0.628467 6.67844 7.53579 0.5
3 1.1765 9.82669 3.31011 0.5
4 4.33566 7.32537 7.92617 0.5
5 3.93728 5.42124 1.06258 0.5
6 8.19807 12.342 12.2462 0.5
7 12.1757 5.05869 12.592 0.5
8 7.8898 1.85804 0.382987 0.5
9 12.8099 7.33478 11.0841 0.5
10 0.530932 6.60969 9.86575 0.5
11 10.7868 12.3982 8.51146 0.5
12 4.52849 12.1401 12.7456 0.5
13 4.12525 4.36041 8.06988 0.5
14 4.34219 8.21133 13.0355 0.5
15 1.17929 3.16504 1.20749 0.5
16 3.52734 4.80689 10.0575 0.5
17 8.67927 5.34109 11.4465 0.5
18 12.2767 13.3748 7.99367 0.5
19 7.01444 7.1718 8.36785 0.5
20 0.171399 1.91925 3.94073 0.5
21 4.29899 4.63157 4.66368 0.5
22 0.882854 4.61069 12.0326 0.5
23 4.38048 8.92659 9.72365 0.5
24 11.6166 11.5376 4.53759 0.5
25 2.71802 0.290546 5.18128 0.5
26 0.214569 6.14981 12.673 0.5
27 1.86191 9.15348 12.7137 0.5
28 8.74265 6.44289 5.39892 0.5
29 2.57361 0.107643 2.90695 0.5
30 10.5507 13.4005 9.10481 0.5
31 0.0995696 10.1035 8.5944 0.5
32 6.21516 13.2278 2.64565 0.5
33 7.62187 6.66287 6.06788 0.5
34 2.13291 13.2361 2.49051 0.5
35 12.1955 11.0975 10.771 0.5
36 2.56811 12.3203 6.24726 0.5
37 9.76963 4.42483 5.46666 0.5
38 8.93128 2.13039 5.90333 0.5
39 9.34498 0.282867 9.32652 0.5
40 10.5199 5.071 9.54594 0.5
41 11.2733 7.82981 6.01256 0.5
42 9.09554 4.5122 0.75845 0.5
43 8.22677 3.67757 10.8421 0.5
44 4.58021 11.1109 5.25977 0.5
45 6.94949 0.0596775 8.90641 0.5
46 10.6643 11.1106 10.3275 0.5
47 2.98489 12.8091 2.20035 0.5
48 0.69488 8.80298 9.83792 0.5
49 3.74618 7.74662 1.0584 0.5
50 8.0565 9.8067 4.64638 0.5
51 4.63487 3.33988 4.89127 0.5
52 6.20737 3.87522 9.89311 0.5
53 6.90299 9.27849 3.09101 0.5
54 10.3634 10.6339 6.15235 0.5
55 8.13271 7.70325 4.84144 0.5
56 2.89999 2.14273 11.0131 0.5
57 8.14866 13.5168 12.8335 0.5
58 7.88123 4.2979 7.64862 0.5
59 3.92288 5.79082 9.94243 0.5
60 8.7423 7.1807 8.68333 0.5
61 13.4364 8.80191 11.3279 0.5
62 7.61004 2.1962 3.34281 0.5
63 9.89435 4.31222 4.97883 0.5
64 4.7067 11.6197 11.8982 0.5
65 10.6584 10.3785 12.7453 0.5
66 11.0934 0.259498 0.0538879 0.5
67 9.33502 9.63801 7.24112 0.5
68 1.39732 2.59609 1.26651 0.5
69 9.90402 6.81552 3.73717 0.5
70 10.7966 1.93552 11.8585 0.5
71 8.78007 1.52421 1.44412 0.5
72 3.71575 9.73262 7.44266 0.5
73 5.12384 2.27183 13.5854 0.5
74 5.36912 13.2352 0.808661 0.5
75 0.45173 12.7734 0.201033 0.5
76 4.67916 8.504 5.53086 0.5
77 3.36936 7.02799 11.2026 0.5
78 5.20526 6.31953 12.1643 0.5
79 7.22474 3.65527 4.94478 0.5
80 7.69609 4.08046 9.4687 0.5
81 8.66456 4.08871 0.277695 0.5
82 5.6592 12.1153 13.1801 0.5
83 10.0164 13.0861 12.3062 0.5
84 1.42456 12.557 2.22213 0.5
85 13.1615 10.7558 4.44182 0.5
86 3.85478 11.7133 6.53612 0.5
87 11.8491 6.77393 1.36183 0.5
88 2.47355 12.0498 10.6834 0.5
89 12.9025 4.03503 8.36137 0.5
90 11.2682 1.93786 6.27049 0.5
91 12.4314 8.77304 7.77852 0.5
92 7.47917 7.01273 8.2315 0.5
93 0.0235476 7.20697 5.69859 0.5
94 6.0898 12.7567 7.61722 0.5
95 13.5648 1.54535 8.54896 0.5
96 2.44678 12.6312 12.5236 0.5
97 12.331 10.2919 1.03796 0.5
98 8.2025 10.9238 0.881932 0.5
99 10.063 0.627262 4.72735 0.5
100 11.3733 12.3459 5.72244 0.5
101 10.0107 9.73949 11.9758 0.5
102 10.3982 7.12744 9.66892 0.5
103 9.8254 0.24354 1.94247 0.5
104 12.576 1.64092 7.56227 0.5
105 9.96132 7.75332 10.6921 0.5
106 3.77934 8.2511 6.87183 0.5
107 13.5699 4.72886 7.08904 0.5
108 13.4487 10.4092 4.52399 0.5
109 12.7006 13.2444 8.43249 0.5
110 1.83535 4.32337 0.138151 0.5
111 4.48537 8.78283 2.24732 0.5
112 0.681322 11.3213 2.60825 0.5
113 0.226241 3.23994 12.1856 0.5
114 10.7064 7.66503 9.59857 0.5
115 9.54403 3.47439 2.92801 0.5
116 4.38047 11.43 6.46588 0.5
117 12.2711 0.886267 9.49786 0.5
118 7.58574 3.84966 8.60306 0.5
119 10.8992 6.60316 2.98967 0.5
120 1.84642 13.563 0.847841 0.5
121 6.94346 0.404357 11.4741 0.5
122 8.08861 5.89384 9.1181 0.5
123 2.35956 1.33998 8.84845 0.5
124 8.82425 11.766 10.3999 0.5
125 1.02049 9.59656 3.2655 0.5
126 11.4752 5.00434 8.81439 0.5
127 4.89003 10.4621 9.64104 0.5
128 6.96806 5.00511 5.57246 0.5
129 0.432125 10.6453 12.5637 0.5
130 13.0869 13.1567 7.86483 0.5
131 9.37856 13.0721 6.50983 0.5
132 0.240559 10.5231 8.27906 0.5
133 8.45557 10.9431 4.84918 0.5
134 2.52491 5.9647 12.3814 0.5
135 1.58797 1.89637 5.66068 0.5
136 12.5037 0.425948 1.65433 0.5
137 2.55495 3.29791 4.35621 0.5
138 6.89766 0.841639 6.73084 0.5
139 4.20687 4.08079 6.47936 0.5
140 4.03085 3.29133 10.2633 0.5
141 4.82479 4.30925 1.63484 0.5
142 13.5011 1.32494 5.0268 0.5
143 1.28665 9.13976 9.11992 0.5
144 5.39855 7.03381 2.83933 0.5
145 4.73468 0.0694577 6.25068 0.5
146 6.82086 1.46397 2.64831 0.5
147 5.47215 9.54422 10.1966 0.5
148 0.0493216 1.97276 1.18589 0.5
149 11.076 1.18436 8.15341 0.5
150 6.93637 12.0877 4.58647 0.5
151 7.22352 7.2978 2.50091 0.5
152 3.70573 6.1938 13.2458 0.5
153 2.47036 2.83233 12.0288 0.5
154 6.43736 6.57716 2.16769 0.5
155 12.8078 2.66887 10.9937 0.5
156 13.3123 5.26837 5.69166 0.5
157 12.9345 1.04101 3.34679 0.5
158 2.25113 2.25768 7.52173 0.5
159 6.12711 4.84445 8.67693 0.5
160 8.84995 3.84631 11.0534 0.5
161 2.59164 1.0844 8.21818 0.5
162 3.2571 9.65818 3.37058 0.5
163 2.94452 3.22421 12.1305 0.5
164 9.51542 11.9487 2.27036 0.5
165 8.6222 1.82312 8.26096 0.5
166 6.12396 6.52948 5.4431 0.5
167 6.2028 3.31988 3.75887 0.5
168 1.57678 4.26887 11.0079 0.5
169 3.1067 6.17673 6.64304 0.5
170 5.94954 13.4478 8.44991 0.5
171 4.18806 4.35602 5.37771 0.5
172 12.4936 2.87677 0.555019 0.5
173 10.6355 9.2638 12.4154 0.5
174 13.4357 10.7357 10.0321 0.5
175 1.50201 12.023 4.96488 0.5
176 8.68912 9.51049 6.10126 0.5
177 12.6018 8.52695 1.95249 0.5
178 1.41817 2.48885 12.2783 0.5
179 11.8957 7.91023 7.38138 0.5
180 8.72962 6.17881 13.5205 0.5
181 6.4672 5.2245 4.847 0.5
182 3.73401 10.9218 7.69771 0.5
183 7.2555 4.57132 2.26969 0.5
184 6.83608 6.99439 7.31822 0.5
185 1.94083 2.98863 2.92888 0.5
186 3.98536 7.68632 9.31931 0.5
187 8.81187 11.2391 3.06212 0.5
188 3.42356 8.0947 3.40663 0.5
189 4.29912 4.40065 5.11086 0.5
190 7.5102 6.72701 4.40232 0.5
191 6.70169 9.43546 11.0343 0.5
192 2.5709 7.97728 12.4569 0.5
193 8.70066 10.0898 3.66598 0.5
194 10.5431 10.4046 6.36057 0.5
195 10.7965 1.3054 6.91471 0.5
196 7.45732 11.2192 6.81216 0.5
197 12.5305 3.72226 4.00081 0.5
198 7.16551 3.16388 13.1805 0.5
199 10.6068 8.80841 5.03131 0.5
200 2.19645 4.3156 2.29369 0.5
201 10.052 13.103 10.9404 0.5
202 4.49769 9.07249 2.44347 0.5
203 5.78599 6.3441 8.82457 0.5
204 12.5702 3.74771 0.58994 0.5
205 5.63486 11.2937 11.1828 0.5
206 9.79705 1.53181 8.07962 0.5
207 11.1095 7.15165 11.338 0.5
208 7.12153 1.00991 8.51054 0.5
209 6.53147 6.81449 9.56815 0.5
210 5.02068 3.0928 12.1014 0.5
211 4.75095 3.21772 8.14017 0.5
212 2.36146 4.99598 2.7802 0.5
213 3.38518 1.81166 10.899 0.5
214 0.555242 1.41783 12.0227 0.5
215 6.25584 12.7849 9.7267 0.5
216 13.1734 10.8354 10.6466 0.5
217 5.87967 11.7726 5.09594 0.5
218 0.261483 8.38601 3.80893 0.5
219 12.19 6.50026 3.70251 0.5
220 0.26186 2.17059 4.29876 0.5
221 10.1367 1.95762 8.22363 0.5
222 11.1532 6.73434 9.30306 0.5
223 12.5413 11.6954 10.7963 0.5
224 2.45562 3.69978 12.7151 0.5
225 1.04065 2.92618 10.3514 0.5
226 2.45779 2.58151 6.94051 0.5
227 13.4186 4.70533 11.0418 0.5
228 12.2522 4.57559 8.22115 0.5
229 4.05663 0.625656 10.3643 0.5
230 0.475623 0.9768 1.5079 0.5
231 3.23735 11.2696 10.434 0.5
232 10.8228 5.22024 2.84774 0.5
233 11.1995 5.22374 0.812437 0.5
234 4.02741 2.11177 1.71925 0.5
235 11.5539 2.70811 8.86917 0.5
236 11.3393 11.7518 0.031072 0.5
237 10.2143 5.70638 5.32189 0.5
238 1.49425 5.09521 0.320668 0.5
239 5.77504 5.3783 1.11355 0.5
240 11.9912 7.90192 7.43558 0.5
241 6.47999 1.12583 9.46155 0.5
242 4.32542 8.23385 5.29275 0.5
243 12.6722 8.17857 6.46869 0.5
244 1.57379 3.40015 7.35734 0.5
245 6.73192 1.88599 1.07419 0.5
246 5.4392 10.2781 4.04461 0.5
247 4.10798 7.2407 5.49988 0.5
248 6.16916 7.31902 6.20578 0.5
249 13.0046 10.3284 10.7862 0.5
250 1.83122 2.91169 4.4425 0.5
251 7.50085 5.60451 6.06882 0.5
252 7.18804 10.5697 6.151 0.5
253 11.055 8.16158 1.90074 0.5
254 10.1403 7.06577 3.66105 0.5
255 9.97263 10.7616 1.478 0.5
256 6.27984 10.4436 10.1297 0.5
257 5.91037 7.03492 1.48256 0.5
258 2.85189 6.46511 13.4786 0.5
259 1.80819 2.9544 7.62989 0.5
260 3.25223 11.2761 12.3941 0.5
261 8.75742 9.96665 11.4449 0.5
262 1.86108 11.0529 7.5196 0.5
263 0.270781 8.06275 10.5284 0.5
264 8.9557 4.00484 5.40786 0.5
265 0.36963 2.65697 1.22932 0.5
266 3.59575 3.17438 13.1857 0.5
267 7.82699 2.91883 9.27924 0.5
268 3.69499 12.9442 11.6059 0.5
269 7.11888 7.51297 10.2598 0.5
270 7.15409 6.51981 7.71499 0.5
271 3.71624 12.7307 1.21836 0.5
272 5.20736 11.5304 10.7947 0.5
273 11.6667 6.11474 6.14868 0.5
274 11.0722 7.08335 10.1019 0.5
275 8.32035 4.95754 11.0224 0.5
276 6.33826 11.1828 4.52905 0.5
277 8.47569 11.5855 2.68037 0.5
278 9.14817 9.56497 9.19679 0.5
279 2.30255 7.74313 3.18031 0.5
280 7.58088 7.34275 10.863 0.5
281 12.748 12.7394 9.75964 0.5
282 4.47144 8.75508 7.50901 0.5
283 3.05687 9.38322 5.81395 0.5
284 7.13819 5.50679 4.85666 0.5
285 0.972291 2.87726 3.39643 0.5
286 5.33111 9.70463 10.1618 0.5
287 11.5906 4.37671 4.19234 0.5
288 8.52983 1.95141 10.5268 0.5
289 0.718612 7.12062 10.6213 0.5
290 2.27948 1.02464 6.15232 0.5
291 10.0229 10.4533 6.90208 0.5
292 5.54152 11.811 3.4238 0.5
293 11.3244 9.17275 1.52509 0.5
294 0.135215 13.4053 2.35989 0.5
295 7.9365 11.5838 6.25407 0.5
296 9.75293 11.8268 0.413197 0.5
297 10.1748 7.40953 13.0644 0.5
298 1.40305 5.20318 11.0641 0.5
299 5.33879 3.71286 9.8902 0.5
300 4.20107 1.79471 12.2045 0.5
301 1.97947 6.8441 4.19797 0.5
302 5.65566 4.06105 1.91008 0.5
303 5.51145 12.2345 0.775205 0.5
304 1.92637 4.7829 4.97689 0.5
305 4.15254 6.69126 6.0658 0.5
306 4.6997 2.69956 4.28123 0.5
307 1.89361 11.6107 7.01025 0.5
308 4.49428 2.23107 6.89851 0.5
309 4.805 7.5846 12.204 0.5
310 7.2067 9.30519 10.0705 0.5
311 4.85047 6.15567 4.84415 0.5
312 9.01062 2.29746 6.89798 0.5
313 7.70738 8.50281 6.31871 0.5
314 11.8815 0.0383009 8.49435 0.5
315 3.39191 7.3412 1.45895 0.5
316 13.4437 3.00826 8.39377 0.5
317 1.43393 9.36552 3.48879 0.5
318 7.45546 1.14472 10.2738 0.5
319 13.1134 12.79 10.9795 0.5
320 5.06284 9.37662 8.43937 0.5
321 9.30082 0.890684 0.48302 0.5
322 9.81735 5.75439 11.7743 0.5
323 10.5225 12.9928 5.27024 0.5
324 10.1996 0.661537 12.1056 0.5
325 4.65607 1.13148 2.08891 0.5
326 5.8079 12.2259 7.9892 0.5
327 0.243964 1.66736 5.57167 0.5
328 9.43037 11.8621 7.97115 0.5
329 6.85689 6.57412 13.2012 0.5
330 4.99582 12.5951 3.64658 0.5
331 12.584 10.5346 7.93264 0.5
332 9.07527 7.84668 4.26514 0.5
333 12.6464 0.364662 8.20624 0.5
334 3.84949 5.00866 7.959 0.5
335 0.0229235 3.21334 1.56518 0.5
336 7.33639 1.55999 8.52394 0.5
337 1.64205 10.0794 11.8779 0.5
338 3.14617 8.61401 5.33722 0.5
339 9.57655 6.27863 9.71162 0.5
340 7.67977 8.72949 9.18303 0.5
341 3.99764 10.5354 0.78303 0.5
342 1.2328 1.77789 12.7913 0.5
343 6.47784 8.27974 6.57272 0.5
344 7.2392 0.491635 1.7077 0.5
345 6.55823 6.35739 7.57651 0.5
346 11.7244 8.76782 2.70335 0.5
347 12.1743 6.09619 4.28512 0.5
348 13.1373 3.92014 1.97958 0.5
349 13.4681 2.46785 6.5601 0.5
350 4.23044 5.75659 7.65168 0.5
351 1.82003 5.77565 13.0952 0.5
352 11.4176 10.2713 2.11144 0.5
353 8.4259 12.1963 11.6581 0.5
354 10.6112 11.887 8.367 0.5
355 11.7713 2.3161 5.28162 0.5
356 2.13763 10.6658 6.22306 0.5
357 3.30674 6.28736 0.636411 0.5
358 10.6027 1.16631 1.89143 0.5
359 8.40655 9.18361 12.1513 0.5
360 3.44229 10.1779 4.04392 0.5
361 13.166 3.19642 12.9507 0.5
362 2.19715 3.6787 11.3108 0.5
363 1.31125 7.0404 10.1367 0.5
364 2.94872 2.48199 4.99398 0.5
365 10.4744 0.604555 7.8146 0.5
366 9.57559 1.95557 5.50106 0.5
367 9.4257 2.24756 5.47646 0.5
368 4.95233 5.40998 1.35243 0.5
369 8.86597 2.54162 4.02115 0.5
370 1.28867 0.744053 4.9238 0.5
371 11.4231 7.24384 4.5186 0.5
372 5.40475 11.621 2.42644 0.5
373 13.3549 10.6982 2.54038 0.5
374 3.25295 2.07749 11.2488 0.5
375 1.68441 13.5247 9.61012 0.5
376 10.987 4.7056 8.43221 0.5
377 7.39619 2.06165 10.7323 0.5
378 6.80437 11.7331 5.00558 0.5
379 8.96504 1.77665 3.75194 0.5
380 7.86892 12.3074 10.5187 0.5
381 0.487594 12.4171 8.62965 0.5
382 8.05272 10.8725 2.3751 0.5
383 9.25898 6.85941 1.94174 0.5
384 8.39772 9.68138 6.71841 0.5
385 7.56621 6.28749 11.4969 0.5
386 9.49454 9.00448 6.47535 0.5
387 8.23761 8.26489 1.8563 0.5
388 5.77361 7.75742 3.48006 0.5
389 9.09219 2.11288 7.07533 0.5
390 9.34239 10.299 11.9246 0.5
391 2.60745 5.5486 4.90108 0.5
392 11.4337 6.79723 5.6048 0.5
393 9.73329 12.8952 5.06006 0.5
394 0.459717 8.86584 9.79015 0.5
395 0.236455 0.47662 0.388048 0.5
396 11.313 7.41201 3.75438 0.5
397 8.93385 4.88553 10.6161 0.5
398 9.85305 9.93678 3.01197 0.5
399 11.0671 2.60727 3.20662 0.5
400 6.88669 2.9205 11.1847 0.5
401 1.98264 5.69003 9.35781 0.5
402 0.996356 2.29377 12.6814 0.5
403 3.93772 10.4081 6.69309 0.5
404 5.11511 0.520622 7.72644 0.5
405 6.33648 9.46548 10.1015 0.5
406 4.76238 7.51588 9.07144 0.5
407 2.05947 2.14914 8.27813 0.5
408 11.973 1.45485 9.16306 0.5
409 10.5574 10.3269 7.92122 0.5
410 3.47077 1.35091 6.30677 0.5
411 5.88477 6.61156 7.88113 0.5
412 3.33098 10.9489 11.5502 0.5
413 5.44527 2.40643 13.0855 0.5
414 10.4615 9.54188 12.5069 0.5
415 4.71554 5.04484 13.0529 0.5
416 2.78874 7.50668 8.81363 0.5
417 8.86323 9.70169 9.61002 0.5
418 10.6451 4.82354 6.16205 0.5
419 10.8108 0.899734 2.90707 0.5
420 9.45107 7.0029 10.7256 0.5
421 12.4793 6.30303 3.71706 0.5
422 11.6021 10.4143 2.95224 0.5
423 4.81417 5.59838 11.3655 0.5
424 6.37799 4.25829 0.215672 0.5
425 6.80691 13.1919 10.6798 0.5
426 3.78178 2.6587 6.33527 0.5
427 6.03918 13.2342 13.4098 0.5
428 1.28554 1.22729 5.46711 0.5
429 7.57989 0.354336 7.93746 0.5
430 2.45947 9.46109 12.329 0.5
431 0.871272 9.59495 2.52945 0.5
432 10.5259 4.07634 0.33324 0.5
433 3.50828 1.18827 6.94825 0.5
434 6.01553 7.0172 5.22203 0.5
435 10.8246 2.28601 11.4063 0.5
436 12.1603 10.1709 0.983274 0.5
437 13.4618 13.0106 11.9356 0.5
438 7.04846 3.33756 2.73698 0.5
439 0.814441 5.05859 4.04098 0.5
440 0.212677 1.03027 2.86184 0.5
441 11.4623 8.1714 10.1778 0.5
442 6.4343 13.3354 9.34194 0.5
443 11.6854 11.6135 3.32018 0.5
444 3.00742 10.1777 12.1152 0.5
445 3.36489 12.5369 11.642 0.5
446 12.2162 0.252778 11.534 0.5
447 1.92328 7.29483 7.71675 0.5
448 7.52727 12.5707 5.33537 0.5
449 9.28085 3.8626 10.5331 0.5
450 1.38628 6.91619 2.3631 0.5
451 12.7111 12.5101 3.99997 0.5
452 0.578096 0.725463 13.5698 0.5
453 7.29693 11.6368 6.35262 0.5
454 1.22269 2.52588 0.25226 0.5
455 10.5444 3.60481 11.4218 0.5
456 5.05382 5.25201 5.73038 0.5
457 8.14628 9.91049 2.27941 0.5
458 6.89428 4.61448 2.06739 0.5
459 2.377 13.3145 5.22749 0.5
460 4.15578 5.80127 8.40066 0.5
461 10.7909 4.89298 3.57338 0.5
462 4.22319 9.10217 5.62761 0.5
463 13.108 13.3169 10.8095 0.5
464 7.1511 1.71338 1.08273 0.5
465 11.3201 1.52695 11.4571 0.5
466 1.704 2.28795 10.4371 0.5
467 8.86496 2.54544 5.2286 0.5
468 1.38262 10.3628 8.61791 0.5
469 13.3106 9.85165 3.33053 0.5
470 1.71154 8.92268 1.26122 0.5
471 9.01671 3.02154 8.7425 0.5
472 3.04668 3.85108 1.87856 0.5
473 12.4956 9.17785 4.66701 0.5
474 13.0572 1.50002 7.26567 0.5
475 7.70688 2.28326 4.44132 0.5
476 1.54792 4.81104 11.5095 0.5
477 8.05454 11.5945 7.08008 0.5
478 0.493928 4.2655 1.46998 0.5
479 5.3328 0.85543 12.8938 0.5
480 9.06568 12.8793 3.50467 0.5
481 2.11225 5.3425 6.13587 0.5
482 10.0811 5.95101 11.6788 0.5
483 1.13652 2.22812 5.31977 0.5
484 0.78297 10.2718 1.08916 0.5
485 11.0091 9.64089 9.33306 0.5
486 6.53565 7.29529 10.3999 0.5
487 3.48026 12.4862 7.11659 0.5
488 1.11605 9.71475 12.9892 0.5
489 0.600765 4.34053 4.27884 0.5
490 3.80302 8.23081 4.75792 0.5
491 6.17515 13.4003 9.45836 0.5
492 3.72935 1.06778 0.305572 0.5
493 9.4015 11.361 5.54418 0.5
494 12.4648 3.51942 1.10025 0.5
495 5.45092 7.25268 7.9858 0.5
496 6.85344 9.11205 2.95585 0.5
497 12.0728 8.04203 10.8297 0.5
498 2.10844 10.2861 9.74054 0.5
499 0.390948 4.36743 1.25817 0.5
500 9.05844 3.96774 10.6429 0.5
501 1.6348 13.1973 9.62751 0.5
502 3.72434 3.38861 10.4381 0.5
503 12.965 8.66945 13.0398 0.5
504 0.697499 9.84937 6.28463 0.5
505 10.1244 10.7706 9.80612 0.5
506 11.7148 11.9555 0.781373 0.5
507 11.6707 6.52594 3.56469 0.5
508 12.582 6.8191 8.48664 0.5
509 0.0049897 5.89834 12.0769 0.5
510 3.37051 2.10996 3.93504 0.5
511 2.61314 13.0962 7.74755 0.5
512 2.54609 0.790497 1.31578 0.5
513 9.32963 6.67423 3.78723 0.5
514 8.60204 10.4626 4.27536 0.5
515 3.97792 2.4604 6.87601 0.5
516 8.00892 6.95943 2.27957 0.5
517 4.05263 10.273 3.57604 0.5
518 10.0264 6.19259 0.123354 0.5
519 3.03855 7.89326 2.22257 0.5
520 12.8435 6.93846 4.23992 0.5
521 0.551065 9.94912 12.6303 0.5
522 9.37056 10.1579 5.47789 0.5
523 2.00882 9.858 11.6735 0.5
524 8.5052 0.372145 11.6592 0.5
525 12.6294 13.4274 11.5836 0.5
526 3.2288 8.64963 12.5694 0.5
527 4.5943 11.0927 5.06931 0.5
528 9.9265 11.96 2.7317 0.5
529 0.446635 2.2647 4.57078 0.5
530 1.96874 11.3168 10.0203 0.5
531 11.0046 4.10902 12.088 0.5
532 9.12757 7.13889 2.74354 0.5
533 1.54416 7.99763 7.86852 0.5
534 7.22553 4.89869 6.33355 0.5
535 7.15984 9.43809 5.38579 0.5
536 6.55165 10.5066 6.92543 0.5
537 3.20467 9.09781 7.13839 0.5
538 11.5913 12.3054 2.80028 0.5
539 13.4563 1.83178 6.1303 0.5
540 6.41252 7.20697 3.14257 0.5
541 8.59586 2.51186 9.2576 0.5
542 2.41716 7.7901 9.13589 0.5
543 6.12775 5.24152 8.21639 0.5
544 8.06878 10.4165 1.95564 0.5
545 2.51689 9.8387 8.70073 0.5
546 8.21964 5.86234 12.8303 0.5
547 5.6073 4.67236 7.41377 0.5
548 6.78345 4.75113 7.66711 0.5
549 2.92352 4.74106 13.2636 0.5
550 11.4263 1.34539 6.33452 0.5
551 2.07748 6.68996 7.87136 0.5
552 9.0414 6.07909 9.18771 0.5
553 3.49094 2.08512 11.851 0.5
554 0.317148 13.3232 8.91838 0.5
555 9.98357 0.117553 5.28512 0.5
556 4.88111 6.19234 7.76861 0.5
557 9.53686 9.92158 5.49511 0.5
558 1.70954 7.67698 3.95065 0.5
559 1.80492 10.7914 8.41364 0.5
560 7.44642 8.31116 10.5515 0.5
561 6.67338 5.98331 2.38413 0.5
562 9.15897 12.8789 8.34591 0.5
563 2.18804 5.49125 12.5459 0.5
564 5.65469 1.97763 9.46898 0.5
565 3.45072 6.87347 3.86281 0.5
566 10.9205 11.9188 8.58958 0.5
567 3.90532 11.0381 9.13019 0.5
568 10.0431 10.194 13.4038 0.5
569 3.35517 2.18564 2.34949 0.5
570 13.2306 5.21652 0.799907 0.5
571 8.99505 1.1983 0.411414 0.5
572 2.03531 7.62807 1.94125 0.5
573 10.4905 7.00282 3.8756 0.5
574 11.979 10.8705 7.15922 0.5
575 2.70601 1.38855 9.01031 0.5
576 8.84139 13.0592 11.0457 0.5
577 5.04428 0.884811 2.46221 0.5
578 11.5319 1.87358 10.0028 0.5
579 1.64361 5.35076 9.00329 0.5
580 7.34058 1.28917 6.91019 0.5
581 11.3298 10.9111 9.39852 0.5
582 8.68531 5.18201 1.36559 0.5
583 12.989 1.01052 9.36561 0.5
584 2.91576 8.87909 3.0496 0.5
585 9.70136 2.08343 12.6679 0.5
586 5.55987 4.63983 5.50254 0.5
587 1.38087 12.6874 9.53911 0.5
588 5.27246 5.67915 12.2823 0.5
589 4.02805 3.20015 10.3327 0.5
590 3.53021 11.0823 8.84785 0.5
591 0.00309511 0.642005 0.300569 0.5
592 3.28022 13.469 9.59101 0.5
593 13.2563 1.46759 2.08283 0.5
594 9.79713 3.13103 13.3692 0.5
595 10.986 3.89869 2.96156 0.5
596 9.85473 0.349649 4.20489 0.5
597 10.2315 7.94328 11.3608 0.5
598 1.65292 3.08158 7.62877 0.5
599 6.95008 12.2936 0.199281 0.5
600 4.00661 0.0566302 12.901 0.5
601 10.6574 11.9313 6.73697 0.5
602 10.8764 6.08523 5.87428 0.5
603 7.04937 8.93578 0.711576 0.5
604 6.81825 6.10189 2.1484 0.5
605 0.827183 12.711 9.79524 0.5
606 3.31599 13.3587 8.42147 0.5
607 2.3612 3.7834 12.8259 0.5
608 10.9534 1.00612 4.59957 0.5
609 9.67398 6.26893 1.01144 0.5
610 0.982991 2.10585 9.05702 0.5
611 12.8464 1.70808 1.78663 0.5
612 9.49799 6.92184 13.117 0.5
613 7.3868 10.5496 4.01632 0.5
614 10.8487 2.58965 10.9257 0.5
615 0.379469 0.778942 8.88686 0.5
616 5.80789 2.90695 10.0772 0.5
617 2.91403 3.16983 11.2358 0.5
618 7.78744 13.2544 7.97713 0.5
619 4.05435 10.1712 10.2473 0.5
620 3.26393 11.3446 9.34573 0.5
621 12.0139 10.6613 4.92841 0.5
622 8.75502 12.627 4.46406 0.5
623 3.7455 4.39191 5.55035 0.5
624 12.0543 7.26377 4.59711 0.5
625 4.46385 6.3857 4.95124 0.5
626 8.09635 0.895404 6.70294 0.5
627 3.14997 2.62379 1.11865 0.5
628 5.05685 8.32391 7.55161 0.5
629 0.975638 6.86814 8.42759 0.5
630 3.80539 9.61428 4.85447 0.5
631 5.11555 9.17103 5.09667 0.5
632 13.1523 12.4786 6.46243 0.5
633 0.980126 4.17553 9.09626 0.5
634 6.82314 1.82041 6.28546 0.5
635 2.44217 12.4299 1.78307 0.5
636 5.12016 13.4537 9.37127 0.5
637 5.82557 0.803894 5.74163 0.5
638 4.4227 5.69145 0.457926 0.5
639 2.63501 0.936122 6.55696 0.5
640 7.76136 8.94447 8.9981 0.5
641 1.76028 0.748482 7.4286 0.5
642 12.3609 2.89515 8.46596 0.5
643 12.5418 10.2994 4.92288 0.5
644 13.3734 3.3483 12.0298 0.5
645 0.820586 0.742367 5.317 0.5
646 10.5321 0.980616 1.90365 0.5
647 3.76272 2.12131 1.74399 0.5
648 3.39951 4.73103 1.94408 0.5
649 5.46922 13.4076 7.0561 0.5
650 12.6208 12.2395 8.97628 0.5
651 9.69382 13.5183 4.66945 0.5
652 8.69049 3.27829 0.932301 0.5
653 7.77362 10.3335 11.8811 0.5
654 13.1916 6.73487 0.52107 0.5
655 7.53753 11.9732 5.14489 0.5
656 12.2006 1.8201 5.71552 0.5
657 1.54392 6.28336 4.63888 0.5
658 4.68455 1.74029 1.30413 0.5
659 10.9208 6.60113 0.374138 0.5
660 10.9427 2.79968 11.3444 0.5
661 10.4876 1.36362 9.88821 0.5
662 5.63616 11.1465 0.363937 0.5
663 6.65786 6.95915 9.93566 0.5
664 2.2147 3.64768 11.7271 0.5
665 1.62185 3.24761 0.0564871 0.5
666 11.9719 11.0486 5.45389 0.5
667 1.86474 2.61305 4.19934 0.5
668 9.35172 13.3984 1.04407 0.5
669 2.46292 10.6057 9.93029 0.5
670 2.46869 0.493401 11.0944 0.5
671 2.97706 2.51442 4.8831 0.5
672 8.53977 4.87114 3.71736 0.5
673 6.6775 0.796556 1.77081 0.5
674 5.68404 0.558009 2.98323 0.5
675 7.97242 6.06434 4.63676 0.5
676 7.62776 0.419099 12.3146 0.5
677 0.274976 0.896742 5.06846 0.5
678 2.71412 8.50628 9.50562 0.5
679 8.71199 5.08051 9.65291 0.5
680 7.42509 5.83914 12.2514 0.5
681 10.941 9.01899 2.50286 0.5
682 7.33671 7.03671 5.26339 0.5
683 10.4736 3.53998 11.1157 0.5
684 12.6615 11.312 9.95504 0.5
685 10.8735 3.70528 12.6971 0.5
686 9.51975 4.07737 6.83944 0.5
687 5.80531 3.75993 2.24121 0.5
688 10.2848 10.4522 3.99909 0.5
689 11.4439 9.12492 3.08567 0.5
690 1.39399 11.6099 4.23444 0.5
691 4.15161 1.77561 8.79128 0.5
692 12.0964 9.19818 2.9128 0.5
693 10.9752 2.25529 9.899 0.5
694 5.30553 9.85481 10.9607 0.5
695 2.9803 10.8121 12.9661 0.5
696 7.55421 1.12508 8.47198 0.5
697 13.0103 0.113276 6.89114 0.5
698 3.12319 2.86623 8.77929 0.5
699 1.38938 9.389 4.05308 0.5
700 8.54043 3.20552 0.665818 0.5
701 3.12095 13.2578 1.62087 0.5
702 6.77916 10.1465 12.7781 0.5
703 0.152136 0.428549 9.98785 0.5
704 11.0708 11.2228 13.0316 0.5
705 8.31552 3.51462 0.978037 0.5
706 9.02218 2.56331 3.14929 0.5
707 6.49285 6.19604 1.2612 0.5
708 7.1291 6.31957 8.09751 0.5
709 10.8672 1.5801 3.35802 0.5
710 11.2389 5.19013 5.42524 0.5
711 5.78957 10.0199 10.2059 0.5
712 10.2257 1.15693 5.69535 0.5
713 8.84806 3.12214 8.30628 0.5
714 0.422211 1.68931 2.11917 0.5
715 11.703 6.45372 13.388 0.5
716 10.3308 7.81086 8.07203 0.5
717 11.5655 6.98421 13.222 0.5
718 4.96291 11.9448 9.74031 0.5
719 9.80891 10.8181 4.61572 0.5
720 5.97472 7.08323 10.6396 0.5
721 11.9223 0.414362 5.96889 0.5
722 11.0451 0.569622 12.6731 0.5
723 5.28504 6.17356 5.88989 0.5
724 5.77423 4.46737 6.50678 0.5
725 6.66874 4.79381 3.32196 0.5
726 13.0929 13.041 4.64464 0.5
727 3.21203 11.3447 1.94007 0.5
728 10.0089 6.70468 10.4353 0.5
729 0.0436266 11.3297 4.57549 0.5
730 9.92639 13.3567 13.2984 0.5
731 9.42276 12.629 1.70692 0.5
732 12.9031 0.865412 3.9466 0.5
733 0.683136 6.20373 4.6093 0.5
734 0.900116 10.4952 2.54924 0.5
735 7.14753 9.87991 4.75631 0.5
736 3.33166 11.0122 11.3917 0.5
737 9.84656 12.99 10.549 0.5
738 6.13148 12.9858 3.39013 0.5
739 0.358728 12.5472 5.58964 0.5
740 6.59352 4.39237 7.00616 0.5
741 1.46772 8.88785 12.9897 0.5
742 2.41559 12.2028 8.04799 0.5
743 0.239527 1.68834 10.2808 0.5
744 0.666003 10.6201 1.20939 0.5
745 9.45071 5.76128 1.29427 0.5
746 6.58218 8.71387 2.43891 0.5
747 3.44468 0.971209 1.52669 0.5
748 5.78495 12.7631 10.6909 0.5
749 4.29364 11.09 1.24572 0.5
750 7.37467 6.44508 7.16494 0.5
751 1.44087 3.89974 8.34225 0.5
752 11.1557 6.44954 7.42412 0.5
753 10.5219 5.33254 4.52676 0.5
754 2.02796 6.85766 9.02133 0.5
755 2.86564 4.375 11.7902 0.5
756 11.9568 3.59154 7.01379 0.5
757 8.0454 3.77823 6.93235 0.5
758 5.83907 8.45602 5.02934 0.5
759 1.86639 3.35789 5.65618 0.5
760 12.5562 7.35576 10.9993 0.5
761 6.75803 6.98213 4.73007 0.5
762 11.2828 12.3569 13.027 0.5
763 9.97456 6.04656 10.7229 0.5
764 11.5954 12.2546 1.98773 0.5
765 6.98362 11.3904 4.36959 0.5
766 3.35491 10.5674 1.95338 0.5
767 4.62958 8.12356 1.59454 0.5
768 13.0699 10.6151 2.52041 0.5
769 6.71651 1.89497 4.09442 0.5
770 11.4046 2.80511 10.1328 0.5
771 7.23701 2.25265 8.90084 0.5
772 12.1486 6.09165 12.8693 0.5
773 8.30204 1.3041 2.18286 0.5
774 1.11585 10.5022 5.58446 0.5
775 10.4531 5.08831 0.367469 0.5
776 8.63981 13.3043 8.16498 0.5
777 10.2913 8.06614 4.64006 0.5
778 9.46137 2.08113 1.26287 0.5
779 13.2213 5.50142 3.84784 0.5
780 8.27694 10.9235 9.96979 0.5
781 0.424711 11.7148 8.61298 0.5
782 4.34905 13.3778 3.02316 0.5
783 11.9493 2.13046 11.7179 0.5
784 7.33782 6.20799 7.3563 0.5
785 5.98595 7.92433 0.0329317 0.5
786 11.1971 5.28859 7.4288 0.5
787 5.63837 1.17919 11.3303 0.5
788 10.1964 11.3654 5.65905 0.5
789 2.50699 0.303223 4.03963 0.5
790 1.54208 0.320783 12.7807 0.5
791 7.65068 5.74134 12.4579 0.5
792 13.3825 9.7789 2.23442 0.5
793 11.9991 10.529 0.55448 0.5
794 8.20131 7.29671 8.51466 0.5
795 11.3316 2.95383 2.78617 0.5
796 8.12894 0.964766 1.50121 0.5
797 8.51861 12.8967 6.5228 0.5
798 12.2327 8.10452 12.1668 0.5
799 9.82902 5.58923 0.042907 0.5
800 1.60974 5.18102 7.58761 0.5
801 6.10707 3.1886 6.90006 0.5
802 7.22721 4.68238 13.1578 0.5
803 0.585761 11.1585 9.18207 0.5
804 2.21071 12.0043 13.419 0.5
805 13.5669 5.92951 1.40269 0.5
806 5.55481 3.75131 7.97176 0.5
807 5.18864 0.514853 6.20648 0.5
808 2.61011 12.1637 8.5324 0.5
809 13.4773 4.17201 3.53593 0.5
810 2.60359 11.7709 0.867681 0.5
811 12.081 5.56196 11.4054 0.5
812 1.81309 8.046 11.7872 0.5
813 7.95734 10.8282 3.47669 0.5
814 10.6791 7.42227 1.05863 0.5
815 9.88888 4.19924 3.8253 0.5
816 3.75212 0.271418 7.07656 0.5
817 4.61329 0.719141 8.59486 0.5
818 2.34576 6.18157 13.101 0.5
819 10.0085 3.46766 0.354454 0.5
820 3.26466 11.6824 4.89124 0.5
821 11.8141 3.17316 7.71973 0.5
822 1.60164 12.0011 12.0608 0.5
823 2.85118 5.0577 8.77072 0.5
824 0.764849 10.4337 8.07088 0.5
825 8.77438 2.20967 13.3727 0.5
826 5.38693 4.9972 3.39199 0.5
827 4.84063 5.81693 8.03253 0.5
828 8.26594 3.95595 1.47906 0.5
829 8.6073 3.75361 10.0956 0.5
830 11.4663 5.93236 3.90162 0.5
831 7.61778 8.02802 1.46329 0.5
832 2.21423 8.23545 12.6522 0.5
833 6.07886 0.121691 8.90903 0.5
834 9.84544 10.7595 6.67968 0.5
835 4.68184 0.114339 5.543 0.5
836 4.48208 10.4114 9.48271 0.5
837 4.3047 8.115 9.54607 0.5
838 9.46533 8.10534 0.674177 0.5
839 5.8718 11.2892 7.34562 0.5
840 12.9564 4.64031 6.95261 0.5
841 1.31306 0.241763 5.22954 0.5
842 5.82461 3.26037 2.79224 0.5
843 12.0979 12.7588 1.17151 0.5
844 8.08026 8.3372 6.06575 0.5
845 4.46283 9.01854 3.44503 0.5
846 1.88231 10.9507 3.85982 0.5
847 5.20216 12.2193 7.21014 0.5
848 8.07827 9.57317 9.39639 0.5
849 8.23137 11.4722 8.95463 0.5
850 4.46814 4.47559 6.81301 0.5
851 3.39863 7.9019 4.94193 0.5
852 8.79186 11.934 11.8981 0.5
853 1.92355 7.83087 11.9928 0.5
854 1.81758 8.14851 6.48087 0.5
855 10.1968 4.56059 8.75297 0.5
856 3.60063 4.34792 7.08854 0.5
857 9.47568 10.1435 10.2045 0.5
858 0.82024 5.96595 10.8222 0.5
859 0.953693 13.0718 5.04575 0.5
860 9.26613 9.67823 5.85582 0.5
861 1.69357 9.60044 3.11606 0.5
862 0.905527 11.1854 12.4926 0.5
863 3.68522 2.79797 3.25422 0.5
864 8.72651 5.71043 2.95894 0.5
865 2.83683 4.28651 4.11378 0.5
866 0.371549 8.53141 12.4283 0.5
867 8.50902 3.09837 6.33613 0.5
868 10.8354 2.85035 5.84324 0.5
869 9.23994 5.78448 5.17196 0.5
870 8.43353 0.562987 11.3813 0.5
871 10.6709 8.65697 7.05068 0.5
872 6.41506 0.529426 1.32065 0.5
873 4.14479 9.29096 7.2569 0.5
874 10.2947 0.79012 13.1038 0.5
875 12.6619 1.48277 3.13731 0.5
876 10.4789 5.25916 7.95199 0.5
877 2.86001 6.30729 2.77197 0.5
878 12.1346 0.0581063 10.2414 0.5
879 1.48742 0.169407 2.61187 0.5
880 0.841093 7.88868 11.4963 0.5
881 4.12189 10.9665 6.41978 0.5
882 7.41627 12.846 4.59038 0.5
883 3.459 3.24006 5.16904 0.5
884 12.9209 6.61791 10.8668 0.5
885 5.49351 13.4858 2.60405 0.5
886 4.00899 3.64577 2.29587 0.5
887 6.1334 7.3145 0.386327 0.5
888 7.80138 9.99573 12.7176 0.5
889 0.51113 7.78611 7.9671 0.5
890 12.5891 10.0134 4.40412 0.5
891 12.0178 1.1152 13.4621 0.5
892 2.26788 3.76469 8.50621 0.5
893 8.93372 0.397236 4.40672 0.5
894 9.51322 13.2039 2.74343 0.5
895 5.37621 12.6202 0.687424 0.5
896 8.63878 6.86598 7.14335 0.5
897 12.6614 9.50365 7.39081 0.5
898 12.4902 7.3665 7.29347 0.5
899 5.64062 12.4526 11.8732 0.5
900 5.17934 0.634934 9.03572 0.5
901 8.5759 4.09903 7.04235 0.5
902 12.9676 5.03425 0.193681 0.5
903 0.39453 11.4783 5.94233 0.5
904 1.61795 8.85876 12.0184 0.5
905 6.1783 5.21632 6.49538 0.5
906 3.88382 3.7269 5.46746 0.5
907 5.46223 2.67975 3.08391 0.5
908 11.8495 6.77055 0.921759 0.5
909 10.4251 10.8225 8.83527 0.5
910 12.883 4.87902 9.68779 0.5
911 9.59765 12.4977 13.1082 0.5
912 11.5238 11.2552 11.3228 0.5
913 13.1777 6.72682 1.54239 0.5
914 9.68981 4.7632 6.58451 0.5
915 2.02963 4.32779 13.1084 0.5
916 13.5495 0.776809 3.61052 0.5
917 9.60976 7.93375 0.422799 0.5
918 11.9947 6.18707 11.1785 0.5
919 13.4893 8.91707 9.96028 0.5
920 6.37907 10.0421 10.7794 0.5
921 12.0413 6.53996 5.49145 0.5
922 13.2226 5.75427 10.0818 0.5
923 0.110245 3.25965 11.8017 0.5
924 5.94814 10.4042 4.17732 0.5
925 9.93038 1.3446 5.69299 0.5
926 8.22172 1.35973 2.48424 0.5
927 7.72418 6.15926 1.72147 0.5
928 5.88073 9.28474 11.3398 0.5
929 12.4171 13.187 2.53698 0.5
930 13.4714 3.17356 10.0226 0.5
931 10.8884 2.28872 5.51039 0.5
932 12.7138 12.3598 9.89912 0.5
933 2.98624 12.0829 13.4572 0.5