ITEM: TIMESTEP
160000
ITEM: NUMBER OF ATOMS
1000
ITEM: BOX BOUNDS xy xz yz pp pp pp
0.0000000000000000e+00 1.3572088000000001e+01 0.0000000000000000e+00
0.0000000000000000e+00 1.3572088000000001e+01 0.0000000000000000e+00
0.0000000000000000e+00 1.3572088000000001e+01 0.0000000000000000e+00
ITEM: ATOMS id x y z radius
1 11.1832 13.394 2.63338 0.5
2 2.02194 12.6455 10.6189 0.5
3 11.1473 9.28369 7.75439 0.5
4 2.2705 1.8379 12.5505 0.5
5 9.13454 2.44212 2.2231 0.5
6 13.2661 13.0851 2.37541 0.5
7 3.7702 4.81121 2.6153 0.5
8 11.3001 3.59354 1.92808 0.5
9 0.451149 2.29678 0.465308 0.5
10 4.90988 8.05497 4.71391 0.5
11 11.6491 11.8177 0.555772 0.5
12 4.48397 10.4927 12.6289 0.5
13 7.19143 12.2688 6.34453 0.5
14 13.0302 12.1275 0.683361 0.5
15 3.28303 11.3119 13.5096 0.5
16 4.85675 1.563 0.776008 0.5
17 9.97018 9.56107 4.22259 0.5
18 9.03566 11.8525 0.965016 0.5
19 2.59535 9.12329 7.28671 0.5
20 6.34641 8.3887 11.8888 0.5
21 3.80583 11.3512 7.99063 0.5
22 4.81767 1.86395 1.30359 0.5
23 9.4061 12.3661 5.15682 0.5
24 9.03586 6.77419 3.72524 0.5
25 5.23218 13.0004 2.65022 0.5
26 12.9146 7.05673 6.3494 0.5
27 8.43198 4.06572 5.29482 0.5
28 1.56313 0.0960761 5.26903 0.5
29 7.73077 2.13559 10.9244 0.5
30 7.34186 1.44313 11.8244 0.5
31 5.32191 5.21327 4.14804 0.5
32 0.661699 10.3773 12.3546 0.5
33 1.03517 8.13267 2.50039 0.5
34 7.13646 7.11405 12.2574 0.5
35 9.81811 8.08884 11.3093 0.5
36 7.81104 1.88862 13.0812 0.5
37 0.824122 2.85686 11.574 0.5
38 12.0847 4.91208 10.1881 0.5
39 11.9423 6.17849 13.2692 0.5
40 6.00046 1.73177 7.52425 0.5
41 9.86943 6.87016 11.7904 0.5
42 8.76873 1.28277 6.95371 0.5
43 7.35958 0.479263 5.06613 0.5
44 2.69288 5.68702 6.61213 0.5
45 4.76023 3.50612 5.16121 0.5
46 10.4874 3.68519 2.16955 0.5
47 8.2143 12.6584 3.96097 0.5
48 12.6852 2.19539 1.23427 0.5
49 3.7911 2.42653 0.0428717 0.5
50 9.03975 10.3377 0.283122 0.5
51 7.4099 11.4989 0.911004 0.5
52 2.48066 4.55737 4.78996 0.5
53 8.76267 7.51172 2.56732 0.5
54 0.0637369 8.35014 2.92161 0.5
55 1.42239 9.26788 3.44758 0.5
56 1.20235 9.83309 7.69093 0.5
57 7.06844 2.09528 10.3427 0.5
58 12.9241 0.774059 9.2277 0.5
59 12.0903 6.76558 7.69944 0.5
60 4.99642 3.51439 12.6495 0.5
61 3.27739 7.96165 5.39086 0.5
62 10.6834 7.15607 2.35879 0.5
63 2.45994 7.6868 10.511 0.5
64 4.42134 8.20449 8.97665 0.5
65 13.1872 3.15977 4.51928 0.5
66 8.3798 10.1213 5.44123 0.5
67 1.90722 4.28613 1.53642 0.5
68 2.8601 2.66228 3.58652 0.5
69 13.2025 5.28566 7.84463 0.5
70 10.859 3.91349 3.5761 0.5
71 8.959 9.15051 11.4143 0.5
72 10.2703 12.2187 3.22587 0.5
73 10.3076 3.40985 4.63291 0.5
74 0.0366989 5.02592 3.93542 0.5
75 12.7962 9.49313 8.16131 0.5
76 4.72571 6.82464 9.3892 0.5
77 7.93844 7.76913 5.96593 0.5
78 12.1479 8.16507 6.30719 0.5
79 11.6476 1.89607 6.32368 0.5
80 10.2041 1.4838 5.39791 0.5
81 13.3547 5.272 3.94753 0.5
82 5.14572 8.38818 10.3674 0.5
83 3.03368 12.7051 13.564 0.5
84 5.45452 3.47626 0.986469 0.5
85 6.24187 9.15856 2.20964 0.5
86 8.37098 9.65829 4.47326 0.5
87 1.57698 0.422018 6.33119 0.5
88 13.4233 5.48055 5.64922 0.5
89 4.28447 3.87695 6.89454 0.5
90 3.80193 11.1495 11.905 0.5
91 6.74867 6.74058 11.0884 0.5
92 13.0055 2.05701 12.1497 0.5
93 10.2845 8.71077 11.8752 0.5
94 4.84224 6.1703 11.6867 0.5
95 11.1696 6.29965 2.08698 0.5
96 2.36912 0.717695 10.3573 0.5
97 8.3096 11.5115 3.36439 0.5
98 2.56641 3.81339 8.20422 0.5
99 12.1306 4.78976 7.36777 0.5
100 9.80252 7.58567 1.21185 0.5
101 4.80427 6.93342 11.0729 0.5
102 0.664205 12.3837 10.5048 0.5
103 11.4578 7.12724 1.16765 0.5
104 2.05777 0.973084 4.72047 0.5
105 2.42918 8.11174 5.97501 0.5
106 10.1241 12.6106 2.32649 0.5
107 5.6674 1.18214 4.99572 0.5
108 3.05831 12.7747 1.5758 0.5
109 1.78788 4.29906 6.74209 0.5
110 5.54856 0.607348 7.05834 0.5
111 11.2802 8.52865 8.49696 0.5
112 13.263 10.6228 8.10858 0.5
113 5.08118 5.09592 0.190723 0.5
114 10.1432 5.93492 12.4197 0.5
115 0.306154 5.70446 6.44286 0.5
116 10.2867 5.16731 0.584419 0.5
117 11.0898 3.3397 11.1858 0.5
118 0.571384 2.12682 7.45827 0.5
119 2.3042 0.111946 7.55888 0.5
120 7.51034 3.48926 2.20063 0.5
121 6.66102 0.223811 1.95353 0.5
122 4.32397 13.1638 2.7922 0.5
123 11.9153 8.5937 6.02849 0.5
124 1.03903 9.38296 11.3354 0.5
125 10.3635 13.5699 4.52461 0.5
126 1.37117 1.01153 0.640571 0.5
127 12.8838 1.51914 0.446336 0.5
128 8.59182 10.9557 7.69294 0.5
129 13.4947 11.1763 9.9721 0.5
130 2.97471 12.9978 4.04282 0.5
131 3.3293 6.83683 12.3965 0.5
132 8.51588 6.13857 10.4272 0.5
133 7.82696 1.66649 4.23359 0.5
134 3.69569 12.009 10.8709 0.5
135 7.7764 13.0812 8.9351 0.5
136 0.195124 3.24286 1.27401 0.5
137 5.66054 4.48155 9.85241 0.5
138 9.44859 3.00236 3.99197 0.5
139 7.7748 1.4967 8.50993 0.5
140 13.227 1.02479 7.7351 0.5
141 11.5716 0.517416 4.21665 0.5
142 4.69558 12.5942 0.946379 0.5
143 10.8301 10.6691 10.8237 0.5
144 11.0792 5.06194 2.22794 0.5
145 7.44819 9.83256 1.70577 0.5
146 5.60575 2.4845 2.52538 0.5
147 5.18604 3.39002 6.73159 0.5
148 7.73478 9.68354 13.0862 0.5
149 6.49092 11.1698 2.79694 0.5
150 5.71851 8.78956 7.72144 0.5
151 12.2961 4.4286 7.0033 0.5
152 6.85951 4.7855 7.0624 0.5
153 10.3803 5.99488 6.60411 0.5
154 7.20613 13.2598 12.2616 0.5
155 13.0474 0.583506 4.76478 0.5
156 13.1525 4.388 11.2169 0.5
157 13.5546 11.2166 8.94285 0.5
158 4.61927 8.2599 4.49675 0.5
159 4.1909 4.57721 4.85468 0.5
160 0.791189 9.82984 1.12274 0.5
161 3.69104 7.54351 9.72653 0.5
162 7.26919 5.76267 5.73969 0.5
163 4.65439 9.56889 1.84351 0.5
164 4.35952 0.765714 7.80712 0.5
165 4.97896 8.67856 3.82765 0.5
166 10.8475 4.90769 8.79678 0.5
167 6.56885 1.43566 12.413 0.5
168 13.4089 3.87296 6.27172 0.5
169 8.11056 0.116501 0.220442 0.5
170 4.36297 6.24119 6.00871 0.5
171 3.6464 11.5594 12.977 0.5
172 1.72312 8.61033 9.65537 0.5
173 10.268 2.02179 4.83883 0.5
174 3.20497 5.48374 1.98941 0.5
175 7.16132 1.07228 2.70552 0.5
176 3.50794 9.51675 11.296 0.5
177 12.9023 5.5781 10.9904 0.5
178 3.03876 11.783 0.546676 0.5
179 12.6881 10.4879 7.84721 0.5
180 5.32704 8.5815 6.60507 0.5
181 8.60446 10.5176 11.4987 0.5
182 0.557015 2.28707 13.0734 0.5
183 11.0723 0.921389 3.70772 0.5
184 12.1921 9.44828 9.68064 0.5
185 11.8174 13.3465 6.13371 0.5
186 8.55823 3.28834 11.0745 0.5
187 8.07866 7.65588 3.35508 0.5
188 5.44663 3.171 10.0153 0.5
189 5.8184 1.95939 6.01469 0.5
190 2.64134 9.70543 12.6891 0.5
191 8.42626 2.9106 6.65327 0.5
192 10.4313 8.86645 9.6837 0.5
193 6.32613 1.04028 13.4982 0.5
194 4.86337 6.37361 11.4597 0.5
195 1.23897 4.60647 13.0754 0.5
196 4.14816 11.5457 5.45649 0.5
197 10.5714 6.84185 13.2728 0.5
198 10.4436 0.142267 13.0882 0.5
199 9.26636 8.64246 10.3063 0.5
200 11.0262 8.78812 7.39723 0.5
201 3.11329 4.04233 3.39429 0.5
202 10.5094 1.34189 5.87713 0.5
203 4.74838 11.8747 9.04759 0.5
204 3.57068 0.309503 2.32125 0.5
205 6.03877 6.11454 3.46655 0.5
206 4.32113 0.638825 2.89787 0.5
207 0.220135 6.3845 5.65661 0.5
208 7.65404 12.7146 5.97162 0.5
209 11.1186 10.2703 8.55404 0.5
210 0.956514 0.558745 3.25532 0.5
211 0.341978 8.34737 5.85965 0.5
212 1.69268 4.49963 7.75596 0.5
213 2.64883 9.59474 6.59009 0.5
214 7.38048 13.2599 4.16535 0.5
215 13.1487 11.6459 9.30377 0.5
216 9.7431 0.642376 5.73776 0.5
217 8.9458 2.09126 5.08493 0.5
218 6.54861 10.2485 4.28889 0.5
219 5.27902 9.41485 7.76218 0.5
220 1.76792 4.38341 12.5335 0.5
221 6.53356 1.07114 11.7167 0.5
222 6.25874 2.3217 3.72398 0.5
223 0.877355 5.81252 2.60701 0.5
224 2.8465 7.65455 1.99927 0.5
225 3.79853 12.9396 12.9611 0.5
226 4.62117 7.50634 10.5063 0.5
227 11.6533 0.187741 1.10904 0.5
228 3.92675 11.1155 1.30122 0.5
229 2.0347 5.77186 9.66387 0.5
230 11.8484 8.55074 9.2759 0.5
231 5.60899 4.49807 7.66631 0.5
232 2.15981 6.71472 2.59552 0.5
233 9.83307 5.61907 6.53356 0.5
234 10.0823 6.35263 10.2647 0.5
235 8.51587 11.2247 4.96822 0.5
236 9.59361 3.78149 10.9356 0.5
237 9.84372 12.0228 0.230183 0.5
238 3.51501 7.14112 5.33383 0.5
239 8.17342 6.15386 11.5566 0.5
240 0.572772 2.71457 12.0858 0.5
241 3.37613 5.59984 1.72194 0.5
242 7.31353 6.30595 3.55405 0.5
243 3.94517 7.56812 9.56809 0.5
244 10.445 2.81972 10.6366 0.5
245 4.04124 0.156976 6.23275 0.5
246 3.15261 0.499774 2.12986 0.5
247 13.0083 7.88365 5.83505 0.5
248 5.70608 10.5384 2.37595 0.5
249 4.91464 2.49259 4.87021 0.5
250 11.1901 1.26442 9.668 0.5
251 10.0958 5.37884 5.93252 0.5
252 10.3519 1.14484 3.46055 0.5
253 3.18535 3.52471 7.14516 0.5
254 8.85391 11.2873 5.67299 0.5
255 13.5301 6.3396 1.4345 0.5
256 11.3781 4.6633 10.5344 0.5
257 2.37252 2.53443 1.7524 0.5
258 5.05646 10.5682 11.1821 0.5
259 10.034 5.62761 6.10953 0.5
260 2.82207 10.3169 1.46582 0.5
261 1.91349 10.7184 12.8753 0.5
262 7.17714 0.0340481 12.9656 0.5
263 1.37544 9.68263 6.04402 0.5
264 2.36723 8.15485 10.5085 0.5
265 4.62438 0.851924 1.274 0.5
266 8.35289 1.50476 0.608589 0.5
267 4.71882 2.42317 3.57579 0.5
268 10.7776 3.06805 5.7841 0.5
269 9.29515 2.91607 8.32841 0.5
270 11.1865 12.6129 5.66775 0.5
271 10.2406 9.64321 4.88864 0.5
272 5.28611 0.841231 5.36995 0.5
273 5.91511 0.266447 11.5251 0.5
274 1.62536 10.2494 6.89821 0.5
275 0.603268 12.0239 10.7407 0.5
276 8.26017 2.64863 0.296696 0.5
277 2.29432 11.0653 7.7362 0.5
278 11.362 1.32874 13.1215 0.5
279 2.33953 6.57791 8.67238 0.5
280 0.489151 2.33403 4.98751 0.5
281 6.18773 10.4835 8.45525 0.5
282 2.88329 6.78374 13.3871 0.5
283 0.513095 0.691235 10.115 0.5
284 7.42248 2.34212 13.1599 0.5
285 10.5136 0.384104 1.65922 0.5
286 13.2705 13.0575 13.2161 0.5
287 9.18882 8.31958 12.1987 0.5
288 5.91988 3.01492 4.66101 0.5
289 3.1738 5.61311 5.74335 0.5
290 5.78688 8.59484 1.43456 0.5
291 6.09618 12.3186 2.7804 0.5
292 0.70555 2.34441 9.41423 0.5
293 3.74719 7.52491 9.94175 0.5
294 5.05409 3.76726 3.76267 0.5
295 10.7436 9.71189 8.83683 0.5
296 3.65194 8.5697 4.0239 0.5
297 10.9594 9.81014 5.49676 0.5
298 7.78187 1.8497 11.3158 0.5
299 13.3634 9.75821 5.76079 0.5
300 8.18638 11.4696 7.09889 0.5
301 3.975 0.535588 8.62429 0.5
302 0.128774 11.2363 0.0789438 0.5
303 2.38928 8.71731 6.29369 0.5
304 11.2882 3.70905 10.973 0.5
305 10.6314 10.2364 2.71612 0.5
306 11.3429 5.06188 6.47996 0.5
307 11.5038 11.9868 13.3174 0.5
308 0.743758 9.26618 9.0852 0.5
309 0.233148 9.25658 2.68104 0.5
310 4.1789 7.4493 6.81606 0.5
311 3.97035 2.00807 8.8773 0.5
312 12.9617 1.40257 8.3023 0.5
313 10.2155 11.8124 0.679234 0.5
314 11.9212 6.92375 1.38702 0.5
315 8.91098 10.6324 5.43285 0.5
316 11.793 11.0063 2.72741 0.5
317 8.53039 9.11829 6.52293 0.5
318 8.50982 9.61161 7.68496 0.5
319 0.84943 12.6329 8.17305 0.5
320 4.50499 7.12907 5.45834 0.5
321 8.73335 11.1761 0.682499 0.5
322 0.86446 2.23303 2.31421 0.5
323 0.689113 5.39669 13.0799 0.5
324 10.1971 7.79288 0.146394 0.5
325 2.43499 3.44468 9.50928 0.5
326 10.7142 8.6788 3.08933 0.5
327 13.4352 11.5708 2.74704 0.5
328 12.9654 2.82668 4.35204 0.5
329 2.57538 8.04456 1.81965 0.5
330 3.2202 7.63535 4.27807 0.5
331 5.11265 0.206836 9.69625 0.5
332 11.8059 4.53287 12.0036 0.5
333 8.91463 4.83622 7.6924 0.5
334 7.20219 8.07349 1.90632 0.5
335 1.24853 10.1179 9.38106 0.5
336 2.48052 12.0906 9.38018 0.5
337 8.70807 3.72681 3.47189 0.5
338 12.7743 5.17435 13.2635 0.5
339 10.6024 8.6669 11.0058 0.5
340 10.4363 4.20138 1.73611 0.5
341 4.0645 3.45473 0.441382 0.5
342 7.11424 5.56233 4.33194 0.5
343 9.35123 7.64584 -0.0048059 0.5
344 6.68076 5.74127 9.9455 0.5
345 5.39784 8.99186 9.85985 0.5
346 5.97213 2.91918 0.787076 0.5
347 8.54132 4.23062 9.58206 0.5
348 12.7953 3.95145 8.98388 0.5
349 5.94352 4.09544 7.0217 0.5
350 2.84882 1.61186 9.59075 0.5
351 6.67982 4.13891 12.398 0.5
352 8.76661 5.74443 4.27459 0.5
353 6.55302 12.0093 2.01066 0.5
354 13.005 0.947927 11.9599 0.5
355 2.09303 9.73609 5.80051 0.5
356 10.3197 2.8241 10.8999 0.5
357 6.58477 10.4978 6.18134 0.5
358 5.41492 6.30302 4.61693 0.5
359 3.46659 3.54532 3.0273 0.5
360 10.5057 11.6751 6.78493 0.5
361 10.3611 0.545241 11.6935 0.5
362 5.4646 10.9592 4.76505 0.5
363 4.89763 7.05327 5.12067 0.5
364 2.50459 10.7757 3.93058 0.5
365 9.40138 9.39489 6.58977 0.5
366 3.33908 12.0192 3.32718 0.5
367 10.748 0.135558 4.74085 0.5
368 9.96425 13.3423 4.27682 0.5
369 3.36748 9.56009 5.11079 0.5
370 4.6101 5.23505 8.2269 0.5
371 4.70837 5.16882 4.09141 0.5
372 3.79694 9.10166 9.55115 0.5
373 11.794 7.31915 12.3623 0.5
374 3.21428 3.61909 3.6241 0.5
375 0.872108 3.93846 1.42142 0.5
376 8.0389 2.80674 0.617115 0.5
377 2.41802 1.1816 0.435751 0.5
378 4.36645 5.207 5.33859 0.5
379 7.14896 8.14458 8.80233 0.5
380 9.96041 12.8751 10.5075 0.5
381 0.790924 9.41498 11.2984 0.5
382 8.21562 2.30937 4.03304 0.5
383 3.02091 8.77717 1.06164 0.5
384 13.1217 5.17103 10.4553 0.5
385 3.86659 12.2704 10.1553 0.5
386 12.1754 6.67355 7.68435 0.5
387 1.11809 0.203635 10.4202 0.5
388 13.1427 8.82532 4.60115 0.5
389 5.84691 6.12045 13.3324 0.5
390 0.832005 1.47196 0.214405 0.5
391 0.853381 3.05095 13.0916 0.5
392 8.80965 5.94667 11.0234 0.5
393 5.80548 5.06733 5.39337 0.5
394 1.06382 8.1539 9.44987 0.5
395 1.11602 8.91859 1.36668 0.5
396 12.8979 2.43406 8.1759 0.5
397 6.50364 7.16102 11.5248 0.5
398 9.41436 7.66914 6.62628 0.5
399 2.12519 8.96955 8.21452 0.5
400 8.52614 8.43116 1.05915 0.5
401 3.57388 11.4662 10.3954 0.5
402 10.8049 3.56029 5.98766 0.5
403 10.8039 5.02203 0.00956765 0.5
404 1.42428 5.17635 0.688231 0.5
405 8.63111 4.20101 8.70271 0.5
406 12.6798 9.74302 7.18007 0.5
407 10.3813 8.70633 12.69 0.5
408 2.26453 5.1535 2.59361 0.5
409 5.09467 8.05453 12.4859 0.5
410 6.31928 11.5716 1.99962 0.5
411 4.22853 2.60841 10.5408 0.5
412 12.2042 10.9685 7.08707 0.5
413 3.73225 1.84075 11.2873 0.5
414 6.1331 1.42218 1.41141 0.5
415 6.92931 1.19522 5.29158 0.5
416 3.88921 3.8491 10.7692 0.5
417 0.482266 3.10542 3.63313 0.5
418 4.6378 3.00759 2.65334 0.5
419 7.92295 8.34882 9.58614 0.5
420 10.7855 10.2983 2.38262 0.5
421 1.37444 7.55751 2.10784 0.5
422 0.536867 0.790453 5.31771 0.5
423 7.69734 4.40349 2.36691 0.5
424 2.1361 11.0648 6.18582 0.5
425 7.76968 7.55064 0.26449 0.5
426 1.58314 2.21494 12.3361 0.5
427 5.05973 7.96117 10.0117 0.5
428 13.2275 8.34723 13.5465 0.5
429 0.494159 10.9088 4.08547 0.5
430 2.65348 3.93235 12.8112 0.5
431 7.87022 1.19297 7.81189 0.5
432 11.6173 11.7154 11.7023 0.5
433 5.80476 8.43827 3.05832 0.5
434 2.39995 13.2182 6.48942 0.5
435 10.1706 4.76781 4.55019 0.5
436 6.3126 8.85109 0.170401 0.5
437 0.887173 0.107116 1.19372 0.5
438 1.22265 6.23689 2.01064 0.5
439 7.72985 0.640741 4.89503 0.5
440 4.32544 1.6788 0.34416 0.5
441 10.7405 0.220351 4.28247 0.5
442 11.9651 8.25898 13.4389 0.5
443 0.926377 7.71934 0.198355 0.5
444 7.02455 5.30514 10.3558 0.5
445 2.15718 5.43264 13.192 0.5
446 8.99462 12.8659 2.10444 0.5
447 3.57543 2.86677 11.7053 0.5
448 11.0704 12.5475 12.0743 0.5
449 12.1716 10.7081 2.25731 0.5
450 9.06344 0.818896 2.12854 0.5
451 0.414255 5.97924 8.10642 0.5
452 3.20319 5.68788 3.37558 0.5
453 4.75228 11.7521 3.13774 0.5
454 7.18653 11.9092 13.3489 0.5
455 1.13932 0.765048 5.13647 0.5
456 5.19811 4.94643 4.0305 0.5
457 11.5436 6.36396 5.50946 0.5
458 7.56764 3.98834 6.96542 0.5
459 6.64894 7.35176 3.02169 0.5
460 0.42974 2.83537 10.3332 0.5
461 4.50933 5.26466 13.0426 0.5
462 4.61768 9.38058 1.40731 0.5
463 5.29778 7.27062 11.4693 0.5
464 10.9765 7.58321 6.97204 0.5
465 5.26986 2.08216 0.417798 0.5
466 8.86583 12.0107 12.4915 0.5
467 9.76477 4.64185 9.14091 0.5
468 3.53294 6.38622 2.93933 0.5
469 11.5822 1.89374 12.8506 0.5
470 2.95232 4.86997 10.3119 0.5
471 12.8807 10.3425 5.98424 0.5
472 0.332833 8.65668 9.2805 0.5
473 3.68616 7.92475 9.97737 0.5
474 9.15217 13.3194 5.87687 0.5
475 0.469697 2.05807 13.4585 0.5
476 2.23363 2.51829 3.38223 0.5
477 0.0560209 3.46443 2.41589 0.5
478 0.105164 11.3239 0.721043 0.5
479 2.19182 12.4909 3.92911 0.5
480 6.2235 1.57248 2.58222 0.5
481 1.40875 8.76691 0.97489 0.5
482 1.8593 6.70232 10.5016 0.5
483 8.85072 1.02533 12.0671 0.5
484 9.11952 4.52067 10.3994 0.5
485 11.5992 2.41744 8.9311 0.5
486 0.81382 1.90547 8.00066 0.5
487 7.97242 4.71739 4.4255 0.5
488 11.1326 8.90827 4.27558 0.5
489 4.84718 4.42922 4.78624 0.5
490 7.05419 6.02065 2.49378 0.5
491 10.3035 1.6332 10.9754 0.5
492 9.34829 12.5966 11.0392 0.5
493 13.3405 11.3609 2.06907 0.5
494 2.04181 0.747169 1.7843 0.5
495 4.55251 1.66052 8.66958 0.5
496 5.50243 9.44195 3.27499 0.5
497 9.46881 6.41377 12.313 0.5
498 4.35011 13.1559 13.144 0.5
499 1.77812 8.1736 0.608225 0.5
500 7.76486 5.86842 4.90143 0.5
501 9.74882 2.58778 3.97935 0.5
502 4.11571 10.404 1.30512 0.5
503 2.03518 4.23282 11.0678 0.5
504 5.45849 13.0093 9.03027 0.5
505 2.70136 11.1807 2.48958 0.5
506 11.8643 8.01615 0.0184515 0.5
507 4.85863 6.16578 11.5441 0.5
508 2.54795 9.40976 13.056 0.5
509 7.35973 2.7823 4.43694 0.5
510 10.0964 10.358 4.89829 0.5
511 8.71014 11.4612 4.8887 0.5
512 3.25554 2.59421 6.07691 0.5
513 7.38635 0.635091 9.07161 0.5
514 2.56063 7.18888 1.4847 0.5
515 7.75578 13.1735 3.46677 0.5
516 12.2318 5.36342 7.11747 0.5
517 11.9965 12.6834 2.29034 0.5
518 0.893601 12.1765 7.30253 0.5
519 4.19258 12.6732 11.3746 0.5
520 2.91918 1.05713 0.0984532 0.5
521 7.04032 11.0505 8.3112 0.5
522 1.63423 1.3211 0.917533 0.5
523 9.83342 7.62785 2.2895 0.5
524 0.153747 7.11458 7.21825 0.5
525 5.08686 11.1016 7.55771 0.5
526 4.03816 11.777 6.41143 0.5
527 8.27793 11.7494 10.5306 0.5
528 10.4251 7.91589 6.9658 0.5
529 4.60289 10.732 0.0220282 0.5
530 1.36215 0.135161 9.36838 0.5
531 12.7965 2.3266 7.73146 0.5
532 11.625 3.07132 2.83557 0.5
533 8.49199 10.0062 0.251976 0.5
534 7.93274 2.30257 0.414235 0.5
535 9.66441 12.7572 0.193131 0.5
536 4.43681 12.2483 7.4821 0.5
537 12.6418 9.40126 0.649719 0.5
538 9.20156 11.9081 3.37922 0.5
539 6.68191 8.06062 1.30621 0.5
540 6.47007 13.1406 8.49653 0.5
541 7.50334 8.9313 0.718893 0.5
542 0.835117 8.00807 3.4122 0.5
543 8.84584 4.35273 10.4984 0.5
544 10.7679 3.42306 13.0781 0.5
545 6.83464 7.51008 6.27587 0.5
546 4.11037 0.85598 5.08293 0.5
547 2.23151 2.95018 3.97633 0.5
548 0.226254 2.3395 5.76479 0.5
549 7.35838 10.5792 12.3858 0.5
550 2.31946 6.7051 0.729985 0.5
551 12.7431 0.814218 4.41246 0.5
552 0.551764 9.97929 2.38233 0.5
553 1.54378 9.21121 3.80602 0.5
554 4.60296 1.19845 7.71081 0.5
555 3.0852 7.22855 6.8405 0.5
556 6.49744 11.1704 2.26339 0.5
557 0.429065 5.40324 12.4856 0.5
558 10.5853 0.962267 13.4398 0.5
559 0.155467 8.77801 1.53012 0.5
560 1.49396 4.77226 1.18041 0.5
561 1.28823 3.40486 6.49828 0.5
562 10.4635 8.71281 10.0824 0.5
563 2.39745 10.8639 13.3059 0.5
564 4.87554 0.713863 13.016 0.5
565 0.0713433 7.03785 9.01037 0.5
566 9.04148 8.96577 4.45612 0.5
567 5.98676 5.90702 8.56753 0.5
568 4.69647 8.37862 13.1616 0.5
569 1.07146 4.82391 4.93935 0.5
570 9.51868 6.28456 1.88773 0.5
571 3.43404 12.8468 4.70167 0.5
572 4.3763 6.37232 6.51828 0.5
573 10.2491 13.0272 9.83482 0.5
574 2.67548 1.40739 0.713316 0.5
575 11.2661 12.4204 2.13859 0.5
576 2.41718 3.88892 3.08142 0.5
577 3.83853 0.143228 8.52345 0.5
578 8.96447 7.28201 0.866388 0.5
579 4.99463 8.0696 8.75002 0.5
580 9.44586 1.95054 8.96112 0.5
581 9.29284 2.0903 7.26246 0.5
582 0.178807 1.55076 5.89257 0.5
583 5.68818 9.23494 3.42124 0.5
584 0.436751 1.22157 3.24884 0.5
585 0.585382 2.63411 8.88015 0.5
586 4.80209 12.062 0.824773 0.5
587 7.3644 11.8277 9.49568 0.5
588 7.83863 8.19499 7.19067 0.5
589 7.83495 7.02957 11.544 0.5
590 5.69286 9.189 13.4727 0.5
591 0.0512924 6.50724 12.7259 0.5
592 6.73983 9.67409 8.59817 0.5
593 12.5939 6.10197 8.63135 0.5
594 2.24955 12.4477 12.9042 0.5
595 8.36819 6.97534 4.7619 0.5
596 4.97918 12.9816 2.31105 0.5
597 3.16501 12.8877 0.866646 0.5
598 3.94696 1.7561 3.9831 0.5
599 3.35077 13.563 1.93398 0.5
600 0.060828 11.7943 7.98479 0.5
601 12.4694 4.06402 6.37855 0.5
602 4.31673 0.4335 12.8934 0.5
603 6.26093 8.07115 2.63507 0.5
604 11.0797 6.11362 7.31581 0.5
605 2.03221 9.90732 1.90572 0.5
606 8.75988 5.42213 7.07776 0.5
607 0.74362 12.3882 11.1782 0.5
608 13.2058 0.950259 9.73911 0.5
609 11.9907 2.18741 11.439 0.5
610 11.6505 12.4332 7.63967 0.5
611 7.52619 12.907 0.449156 0.5
612 12.5611 4.74948 12.1961 0.5
613 10.6962 3.25974 1.86298 0.5
614 8.62843 8.1364 1.69067 0.5
615 2.76862 11.4918 9.22871 0.5
616 3.95527 0.201477 11.2767 0.5
617 8.03817 7.91839 0.390177 0.5
618 10.2044 5.70904 7.1753 0.5
619 3.06511 3.54752 9.38815 0.5
620 11.7882 4.01422 3.63399 0.5
621 9.4678 7.413 9.84461 0.5
622 3.74104 5.92133 5.93486 0.5
623 10.2733 10.1674 12.6269 0.5
624 6.99189 12.2886 2.45275 0.5
625 11.7813 12.5601 7.01239 0.5
626 6.03458 10.2384 9.82578 0.5
627 3.62241 4.69662 2.9138 0.5
628 13.3439 8.45367 0.198451 0.5
629 2.91264 7.80217 3.2533 0.5
630 7.03549 5.45791 9.66191 0.5
631 8.64015 1.06559 0.61284 0.5
632 5.396 4.75021 1.89655 0.5
633 8.886 13.5116 6.94891 0.5
634 13.5293 2.6392 13.3235 0.5
635 5.236 7.36577 0.159727 0.5
636 5.6164 2.39828 0.0205771 0.5
637 2.67235 6.19774 1.46289 0.5
638 11.6834 0.139144 6.97147 0.5
639 2.48906 1.13081 12.1439 0.5
640 12.0028 10.8272 5.59163 0.5
641 5.8567 4.17603 6.01605 0.5
642 5.76389 10.4463 10.9729 0.5
643 4.9446 11.6502 6.59951 0.5
644 5.29486 10.6253 4.63371 0.5
645 2.1634 0.200348 11.2577 0.5
646 0.297127 4.05588 4.79888 0.5
647 4.57116 10.4233 7.36026 0.5
648 9.79789 11.9256 8.19443 0.5
649 9.81008 12.2106 3.49716 0.5
650 5.35642 5.92608 3.74692 0.5
651 5.64166 0.253208 10.3201 0.5
652 4.27291 7.45902 2.0214 0.5
653 7.45131 10.6693 11.7077 0.5
654 3.98049 6.95185 3.14303 0.5
655 5.81854 2.85893 5.24506 0.5
656 7.61825 0.452376 9.97143 0.5
657 3.48378 7.51526 8.95027 0.5
658 3.89203 1.387 3.57911 0.5
659 10.5611 7.24605 10.0624 0.5
660 3.63583 0.192601 9.15988 0.5
661 11.9749 1.6605 8.93431 0.5
662 5.20477 0.302026 0.532183 0.5
663 7.05491 3.0071 4.11833 0.5
664 10.1629 2.50531 5.61765 0.5
665 11.6457 1.24148 2.59377 0.5
666 9.51491 0.404584 13.456 0.5
667 2.41223 6.63287 5.53814 0.5
668 11.5297 3.58034 8.05397 0.5
669 6.44122 6.16174 11.6056 0.5
670 2.92447 2.06343 11.1599 0.5
671 10.1673 13.07 8.0883 0.5
672 0.178498 10.7429 8.7456 0.5
673 2.72655 3.48369 7.53027 0.5
674 11.8363 12.9633 13.4185 0.5
675 11.4711 4.4768 10.8215 0.5
676 5.9045 10.5535 1.49588 0.5
677 12.1656 2.14935 12.72 0.5
678 7.65166 10.9321 6.30656 0.5
679 5.40536 2.30511 6.85828 0.5
680 8.6506 0.0380775 1.26678 0.5
681 11.6897 2.03883 13.0378 0.5
682 4.10622 6.05605 4.324 0.5
683 9.01725 0.512973 8.52925 0.5
684 0.114079 3.3632 1.06255 0.5
685 12.7304 8.17738 8.28398 0.5
686 10.8008 0.844049 3.32143 0.5
687 8.82693 9.52761 5.0785 0.5
688 11.2673 3.36251 6.01164 0.5
689 13.532 8.97357 1.83917 0.5
690 4.54111 3.5381 6.21913 0.5
691 13.5097 12.4032 9.35999 0.5
692 6.38508 6.13591 3.62388 0.5
693 12.2231 8.01018 0.0349069 0.5
694 9.58184 10.0507 6.63367 0.5
695 12.0156 1.56135 10.2338 0.5
696 12.2625 3.78585 5.47036 0.5
697 9.36594 8.78291 10.6777 0.5
698 11.7997 4.29781 2.99292 0.5
699 3.7277 1.67652 4.6649 0.5
700 5.18576 9.70242 11.1268 0.5
701 9.76251 13.2556 0.109852 0.5
702 2.43506 10.5585 0.975239 0.5
703 7.15103 11.5136 7.84822 0.5
704 11.4735 5.81275 0.751719 0.5
705 2.66478 11.8289 9.48177 0.5
706 8.49512 8.9764 4.25565 0.5
707 11.8688 1.40996 1.29528 0.5
708 0.626674 5.89469 12.9805 0.5
709 10.5897 7.46346 7.9982 0.5
710 6.65501 8.72215 7.46911 0.5
711 0.57772 1.88367 9.75438 0.5
712 8.08988 6.12869 10.5095 0.5
713 5.32261 9.6519 12.6257 0.5
714 1.58814 10.6404 8.55837 0.5
715 2.05829 3.66641 9.81837 0.5
716 9.60759 9.97857 7.35653 0.5
717 6.76923 7.18901 7.00023 0.5
718 4.55235 1.35994 12.1346 0.5
719 2.76712 12.083 5.35487 0.5
720 0.0407164 12.1733 10.8659 0.5
721 9.57594 13.3603 2.20037 0.5
722 4.62561 0.858458 6.38971 0.5
723 13.318 6.10846 4.0622 0.5
724 8.32028 4.30471 2.71661 0.5
725 10.3819 13.2542 2.98758 0.5
726 11.5402 6.41953 6.39493 0.5
727 12.0841 3.88492 8.65858 0.5
728 2.50571 12.62 7.6928 0.5
729 10.7307 4.41018 2.12545 0.5
730 6.77053 2.87138 6.56956 0.5
731 11.7395 8.81134 8.42387 0.5
732 7.52192 9.02739 3.34088 0.5
733 4.30866 4.62144 3.99108 0.5
734 6.99784 9.85267 13.3967 0.5
735 12.1014 6.44123 8.76232 0.5
736 7.0986 9.64345 6.17192 0.5
737 3.79296 2.41935 8.39601 0.5
738 6.13181 12.7946 4.31029 0.5
739 3.66817 11.9264 2.13165 0.5
740 3.40381 2.88381 5.74858 0.5
741 6.04564 12.9715 13.2294 0.5
742 3.93161 5.94304 10.0636 0.5
743 5.78776 4.97873 7.54683 0.5
744 3.70948 12.5853 7.56739 0.5
745 9.27137 11.9208 6.92961 0.5
746 6.61508 10.6117 3.40578 0.5
747 1.78417 1.85344 1.38926 0.5
748 11.5219 7.79494 9.18969 0.5
749 5.76776 9.94553 4.61069 0.5
750 5.09191 1.20005 9.8494 0.5
751 8.85149 10.2286 2.93359 0.5
752 6.35756 8.07878 3.98262 0.5
753 11.0267 10.7539 11.5635 0.5
754 11.9707 9.35999 0.943267 0.5
755 12.5753 0.278592 1.04791 0.5
756 11.1582 2.87942 3.26064 0.5
757 12.0666 6.06819 3.74456 0.5
758 10.5311 1.02284 1.40616 0.5
759 9.96306 1.8125 8.5232 0.5
760 8.23927 3.31872 0.717529 0.5
761 9.19585 8.81945 4.68457 0.5
762 12.1011 7.2679 9.08915 0.5
763 11.0748 5.73512 5.83487 0.5
764 2.73375 9.04443 9.55629 0.5
765 6.62442 8.13815 9.86255 0.5
766 2.24227 8.15098 4.20988 0.5
767 2.59961 10.2919 1.94481 0.5
768 2.57637 4.63543 9.96944 0.5
769 13.3621 3.72423 12.8291 0.5
770 7.80069 3.84729 10.1705 0.5
771 4.1534 8.55332 11.1194 0.5
772 8.89447 11.7709 10.2226 0.5
773 1.8716 5.78073 5.92349 0.5
774 3.49164 11.0343 11.4447 0.5
775 7.87867 10.2477 11.9685 0.5
776 11.7143 3.9438 8.70062 0.5
777 8.07559 4.44884 2.97347 0.5
778 0.685125 1.07193 7.04537 0.5
779 1.76481 11.8197 4.3524 0.5
780 11.703 2.256 9.33724 0.5
781 10.0219 10.0804 0.665938 0.5
782 0.120869 8.1355 12.7828 0.5
783 4.36392 12.2006 13.5489 0.5
784 12.1851 2.31854 3.72714 0.5
785 13.1883 3.24402 12.5201 0.5
786 8.03284 3.17076 9.31616 0.5
787 1.44724 4.34801 13.3572 0.5
788 6.76001 10.7406 9.96734 0.5
789 4.79476 8.69663 13.2067 0.5
790 8.75526 13.233 6.02235 0.5
791 0.407332 0.37765 6.96641 0.5
792 13.5729 1.38747 0.903557 0.5
793 13.1564 5.99848 8.99082 0.5
794 8.69863 5.81265 13.1807 0.5
795 3.02683 9.10129 10.9968 0.5
796 2.60077 9.63225 6.87683 0.5
797 0.0694703 3.55862 4.34935 0.5
798 12.4766 0.380251 3.11603 0.5
799 5.40281 13.1445 7.2173 0.5
800 12.643 2.39268 2.85623 0.5
801 3.90817 2.52323 11.7905 0.5
802 4.48092 6.23243 10.1596 0.5
803 2.75523 2.71893 4.32272 0.5
804 6.32139 2.7707 11.8164 0.5
805 10.9729 11.3931 9.00295 0.5
806 11.1634 2.44631 0.860775 0.5
807 11.8951 2.24142 10.4312 0.5
808 12.5534 0.238572 11.6446 0.5
809 10.0229 2.51007 6.30495 0.5
810 1.93651 11.5578 4.73711 0.5
811 9.21703 2.48678 6.36237 0.5
812 9.61214 8.1268 6.53096 0.5
813 10.861 1.67949 11.5203 0.5
814 9.15136 5.64218 6.71832 0.5
815 6.71165 5.49078 12.0958 0.5
816 7.27748 10.6155 7.18087 0.5
817 3.38254 2.83681 2.53608 0.5
818 7.9531 7.50217 10.9657 0.5
819 12.0969 13.2225 12.3778 0.5
820 11.0249 8.08982 10.3361 0.5
821 8.46485 9.36018 10.352 0.5
822 2.31567 5.60627 0.182271 0.5
823 11.6751 8.80979 2.90823 0.5
824 12.2897 0.184294 10.3325 0.5
825 2.89517 6.81163 12.1966 0.5
826 11.0995 8.88581 10.5831 0.5
827 5.24576 2.42838 2.14658 0.5
828 12.3999 5.86924 13.2736 0.5
829 6.36404 9.98497 5.68369 0.5
830 5.98369 2.33371 6.07195 0.5
831 7.42496 11.2971 11.5085 0.5
832 9.2301 10.2839 4.35514 0.5
833 13.487 9.4831 8.7073 0.5
834 5.8933 12.3118 0.696978 0.5
835 5.25573 2.56605 7.89135 0.5
836 13.0085 2.5882 8.73307 0.5
837 1.51474 9.15199 5.62908 0.5
838 3.824 10.905 11.452 0.5
839 4.03539 6.37437 0.899677 0.5
840 12.2147 9.92068 10.5152 0.5
841 11.0565 12.2667 3.82802 0.5
842 0.844468 2.60235 5.60849 0.5
843 13.3933 8.99443 5.72594 0.5
844 7.74183 0.40071 10.6172 0.5
845 13.4086 3.14135 11.6186 0.5
846 9.73693 7.44129 8.47158 0.5
847 11.0088 8.75731 2.15425 0.5
848 8.9374 13.3758 3.04563 0.5
849 6.4076 13.3714 12.2334 0.5
850 2.06483 13.3227 6.4181 0.5
851 6.60561 9.34373 7.12983 0.5
852 1.68642 10.954 8.84919 0.5
853 13.5297 5.96472 9.14975 0.5
854 4.61101 2.3528 8.07233 0.5
855 9.33457 4.53519 1.65662 0.5
856 8.38943 3.91531 4.50397 0.5
857 10.4532 5.31158 11.4406 0.5
858 7.27921 0.176237 3.59822 0.5
859 4.95583 13.0455 4.0759 0.5
860 11.0643 13.3312 7.2861 0.5
861 0.946104 10.9656 4.06398 0.5
862 3.50691 7.30285 0.760715 0.5
863 1.10162 6.96637 2.99801 0.5
864 7.85391 9.41612 12.0474 0.5
865 12.3861 6.61555 0.301059 0.5
866 4.945 1.51407 6.70236 0.5
867 10.2985 5.0128 9.90725 0.5
868 5.26619 11.3158 9.27626 0.5
869 7.60802 2.06148 7.41107 0.5
870 8.11029 9.20277 4.34021 0.5
871 2.17902 1.26378 8.78456 0.5
872 12.4728 12.8367 4.14586 0.5
873 4.83052 9.55226 10.136 0.5
874 12.6107 6.82035 6.45538 0.5
875 11.8288 7.07679 13.2044 0.5
876 1.31442 5.80702 2.54696 0.5
877 9.18977 5.24031 3.02488 0.5
878 0.0144356 0.33558 11.6084 0.5
879 5.64641 8.99618 6.19654 0.5
880 10.7344 11.7354 0.42029 0.5
881 1.62097 0.627345 2.6442 0.5
882 8.6553 5.53273 6.69792 0.5
883 4.64633 8.38801 8.72803 0.5
884 1.49494 3.71213 11.1902 0.5
885 3.1335 9.94578 10.2799 0.5
886 9.46363 5.96839 2.57282 0.5
887 6.05528 2.15962 2.30799 0.5
888 3.25041 1.27629 0.280822 0.5
889 10.1441 6.55121 3.86586 0.5
890 13.5166 6.12843 12.9219 0.5
891 3.10509 13.178 5.2658 0.5
892 2.85852 12.8744 1.45222 0.5
893 12.5035 12.2632 3.53908 0.5
894 12.3828 0.925782 11.7922 0.5
895 9.5614 10.8316 0.0708573 0.5
896 4.06039 6.21446 12.8722 0.5
897 12.9212 2.53728 10.9457 0.5
898 7.92975 8.2333 1.31604 0.5
899 8.00745 10.148 7.14293 0.5
900 10.5066 3.35923 6.14098 0.5
901 7.23505 5.01234 13.3412 0.5
902 6.81152 7.11753 8.69124 0.5
903 3.6397 10.3577 12.5473 0.5
904 7.67428 7.89693 2.40814 0.5
905 0.18912 1.49043 11.2462 0.5
906 8.80718 6.52978 7.58768 0.5
907 3.94872 2.94061 0.0845655 0.5
908 7.73024 8.26185 6.65875 0.5
909 4.39079 9.75719 13.2462 0.5
910 4.91172 11.1586 0.446393 0.5
911 6.73287 8.54078 2.52911 0.5
912 11.3078 11.6518 4.3423 0.5
913 0.247415 10.4404 1.8098 0.5
914 9.79214 13.4393 5.50293 0.5
915 0.638969 12.0343 11.4512 0.5
916 3.93953 0.148114 5.76298 0.5
917 5.64892 1.95009 7.26567 0.5
918 2.27079 2.60361 9.7434 0.5
919 12.6148 8.59109 11.8656 0.5
920 12.156 9.83154 10.0375 0.5
921 1.61547 4.92454 5.63961 0.5
922 3.56795 3.49193 5.76227 0.5
923 11.8378 9.91785 9.31162 0.5
924 2.73804 7.42311 1.16931 0.5
925 5.44781 2.07945 10.3432 0.5
926 8.35968 8.61998 5.38658 0.5
927 9.13862 0.524102 8.18615 0.5
928 4.19887 7.30632 1.69849 0.5
929 5.56399 0.197541 2.81951 0.5
930 13.4645 0.84346 1.46083 0.5
931 11.9988 6.60881 12.2434 0.5
932 6.02979 2.19642 1.87203 0.5