ITEM: TIMESTEP
120000
ITEM: NUMBER OF ATOMS
1000
ITEM: BOX BOUNDS xy xz yz pp pp pp
0.0000000000000000e+00 1.3572088000000001e+01 0.0000000000000000e+00
0.0000000000000000e+00 1.3572088000000001e+01 0.0000000000000000e+00
0.0000000000000000e+00 1.3572088000000001e+01 0.0000000000000000e+00
ITEM: ATOMS id x y z radius
1 0.00974518 2.07567 4.02318 0.5
2 9.74684 10.3704 12.5994 0.5
3 1.28099 0.473586 6.17767 0.5
4 12.3123 0.212544 10.3146 0.5
5 3.70025 4.75098 3.99901 0.5
6 8.23267 13.3979 13.173 0.5
7 9.24333 7.16877 0.531963 0.5
8 7.9266 5.85895 4.08585 0.5
9 13.4355 2.31022 9.80523 0.5
10 0.160586 11.3305 1.77544 0.5
11 12.1221 7.04818 10.5912 0.5
12 8.34586 1.65814 9.99239 0.5
13 0.00993028 11.1935 0.582894 0.5
14 11.1329 11.6542 2.61769 0.5
15 10.0196 9.64278 5.93129 0.5
16 2.69673 0.736922 10.9243 0.5
17 12.5282 6.75289 4.19055 0.5
18 3.57249 0.701043 9.86855 0.5
19 1.80626 6.30719 0.818783 0.5
20 12.6894 4.2084 1.4777 0.5
21 11.9146 9.73915 8.80294 0.5
22 1.94798 4.2292 3.06422 0.5
23 13.5713 4.41744 1.60321 0.5
24 12.8077 2.0103 6.22831 0.5
25 0.477849 10.3642 0.896338 0.5
26 12.0797 7.37208 6.04954 0.5
27 6.13581 9.01985 5.91882 0.5
28 13.1486 5.59206 11.4407 0.5
29 5.88304 0.695651 2.08171 0.5
30 9.4923 1.29885 11.1712 0.5
31 7.7197 10.0943 7.5833 0.5
32 11.6762 1.12094 6.34647 0.5
33 7.19211 9.25014 10.6398 0.5
34 8.15393 8.98617 4.65557 0.5
35 1.18922 4.66444 4.99286 0.5
36 0.93515 6.6141 0.468971 0.5
37 2.50533 3.68498 10.365 0.5
38 8.11563 1.9719 9.35391 0.5
39 11.977 9.26518 0.950558 0.5
40 6.38763 10.019 6.72658 0.5
41 3.63694 0.90378 5.70509 0.5
42 9.97384 7.78066 11.399 0.5
43 9.7248 1.94292 7.65886 0.5
44 5.22156 3.97426 9.88056 0.5
45 3.82425 1.65997 13.5116 0.5
46 2.73467 4.40295 6.17714 0.5
47 8.29389 11.597 11.1375 0.5
48 9.92698 7.98542 9.52092 0.5
49 9.23757 9.47901 3.87076 0.5
50 0.919289 5.86451 13.375 0.5
51 9.02466 1.91506 7.22806 0.5
52 8.57704 8.52411 3.16314 0.5
53 0.836311 5.7992 13.3257 0.5
54 8.34191 9.71826 9.67024 0.5
55 3.53029 8.64215 8.65585 0.5
56 1.11531 0.259739 6.65758 0.5
57 7.23031 13.4851 10.7172 0.5
58 9.61836 11.0969 8.7781 0.5
59 10.2353 1.49763 8.64496 0.5
60 6.86534 8.8732 1.45985 0.5
61 11.5003 9.85263 12.9945 0.5
62 10.4225 0.582745 1.41785 0.5
63 9.94593 8.05598 7.23301 0.5
64 2.04102 12.943 11.519 0.5
65 5.50646 3.43357 12.292 0.5
66 3.16482 7.09736 13.3527 0.5
67 6.37399 4.21527 3.22564 0.5
68 10.161 4.02982 12.0371 0.5
69 0.0751547 10.4631 13.4072 0.5
70 8.43495 8.30335 12.8284 0.5
71 9.28438 1.96424 0.463634 0.5
72 7.0162 5.26781 9.51162 0.5
73 5.25262 11.3442 6.73406 0.5
74 3.14614 0.09092 4.31723 0.5
75 3.55798 11.2255 9.22013 0.5
76 2.21315 0.0843252 6.45709 0.5
77 10.5312 6.7382 12.6626 0.5
78 0.666825 9.63494 12.6672 0.5
79 7.09888 6.91439 5.59561 0.5
80 12.1012 2.90601 6.68648 0.5
81 11.5655 9.35968 2.89972 0.5
82 5.05651 5.05652 8.24586 0.5
83 9.55979 6.39497 9.99554 0.5
84 0.770293 4.46484 4.00719 0.5
85 4.97984 12.4227 9.51167 0.5
86 4.40448 1.78943 5.02942 0.5
87 12.8066 6.35109 11.376 0.5
88 4.15986 5.14664 12.2984 0.5
89 1.21459 2.42846 11.0438 0.5
90 0.380278 10.1686 7.97652 0.5
91 5.218 8.84951 13.4846 0.5
92 6.0047 2.48567 2.28847 0.5
93 11.9653 11.3955 11.0591 0.5
94 0.424946 2.17382 10.7694 0.5
95 9.99344 2.92748 9.59724 0.5
96 3.25742 7.75612 10.2582 0.5
97 10.794 2.00936 2.65627 0.5
98 13.0488 4.06028 11.9477 0.5
99 3.61422 13.442 1.16808 0.5
100 7.673 4.40782 2.28867 0.5
101 10.0108 10.8256 5.14389 0.5
102 10.941 11.2936 9.82638 0.5
103 7.02616 0.987097 3.13793 0.5
104 5.67888 12.8757 12.5724 0.5
105 1.72098 1.35317 8.38505 0.5
106 5.77531 5.52131 11.2663 0.5
107 10.144 0.888623 8.48131 0.5
108 3.51455 2.48567 7.40032 0.5
109 2.954 2.35583 3.82865 0.5
110 0.433643 5.11178 9.63043 0.5
111 12.1307 5.33409 5.08664 0.5
112 0.353113 5.87317 11.5564 0.5
113 10.5216 13.2518 1.76564 0.5
114 4.24306 8.15955 10.6838 0.5
115 12.2957 12.8583 3.46151 0.5
116 13.1653 11.5063 13.1782 0.5
117 6.81743 9.24943 5.94107 0.5
118 3.9285 0.163837 3.0836 0.5
119 0.626691 11.2833 11.3478 0.5
120 8.51904 2.1215 4.16596 0.5
121 0.0291548 4.55469 12.1111 0.5
122 4.76484 10.9544 8.61856 0.5
123 5.13326 5.21672 11.1116 0.5
124 2.74079 8.38614 6.39182 0.5
125 1.58643 13.3368 5.30102 0.5
126 8.09179 2.11583 4.91517 0.5
127 2.88201 5.341 12.3669 0.5
128 0.413192 9.48742 5.35629 0.5
129 9.15555 0.716734 8.47518 0.5
130 4.11556 9.42898 1.89879 0.5
131 0.85779 1.79775 11.4876 0.5
132 9.83161 7.5424 7.91924 0.5
133 10.4372 1.59501 11.1894 0.5
134 7.61146 4.36637 4.58233 0.5
135 3.04379 1.44537 0.107887 0.5
136 2.00452 4.03986 0.515432 0.5
137 4.61354 2.23646 10.8755 0.5
138 10.0217 5.86729 8.32554 0.5
139 11.2505 5.6413 1.96355 0.5
140 1.57602 9.52911 4.87318 0.5
141 1.58603 5.29628 12.3891 0.5
142 7.65125 11.6406 12.2363 0.5
143 12.0392 13.4833 5.85947 0.5
144 5.34748 9.57116 12.7602 0.5
145 1.60682 10.543 7.97987 0.5
146 6.36701 2.59893 9.10318 0.5
147 5.95232 1.1439 0.207301 0.5
148 0.541807 11.7101 7.30831 0.5
149 1.53411 11.6635 11.9955 0.5
150 10.1647 10.881 11.773 0.5
151 9.77284 3.46982 9.85053 0.5
152 12.898 4.39317 5.93653 0.5
153 13.0654 1.37517 4.65442 0.5
154 4.91382 11.1945 1.61723 0.5
155 7.85508 1.19858 9.48579 0.5
156 12.793 7.02411 3.96249 0.5
157 0.774755 9.05751 2.41016 0.5
158 9.07212 5.17245 3.40516 0.5
159 4.62791 0.171998 3.44783 0.5
160 0.333925 11.3772 8.92703 0.5
161 6.71946 5.77998 6.59551 0.5
162 4.96473 11.0952 0.822616 0.5
163 2.33702 5.50299 5.95704 0.5
164 1.23456 6.83368 8.48975 0.5
165 3.57619 7.03396 1.12075 0.5
166 9.77412 2.59858 0.765856 0.5
167 10.3405 0.943551 4.13391 0.5
168 5.1213 9.70322 0.61823 0.5
169 3.06804 4.85734 4.20458 0.5
170 10.7325 6.05035 4.83539 0.5
171 3.4781 9.0879 2.31067 0.5
172 11.7059 8.15189 4.3984 0.5
173 6.17379 2.1583 7.9133 0.5
174 10.1594 0.66745 9.17686 0.5
175 6.63255 12.4546 5.5766 0.5
176 12.3001 10.6357 10.9171 0.5
177 1.72064 9.23626 11.3477 0.5
178 4.09706 4.6734 3.80479 0.5
179 10.7712 8.54105 5.93689 0.5
180 1.45938 9.71688 13.3537 0.5
181 11.2843 2.67992 10.3336 0.5
182 1.64385 3.51423 4.20668 0.5
183 3.98146 11.7517 1.24557 0.5
184 1.1556 10.9895 7.33295 0.5
185 7.19076 6.50372 7.18883 0.5
186 0.134839 4.7425 5.74612 0.5
187 2.26196 6.77842 8.51746 0.5
188 12.7387 6.62948 1.72788 0.5
189 3.76214 13.3464 3.35155 0.5
190 3.16364 4.20043 13.5155 0.5
191 5.89197 3.4324 4.97862 0.5
192 13.3777 1.0051 0.0344832 0.5
193 7.41472 5.95691 1.38494 0.5
194 0.448038 8.02524 12.9631 0.5
195 5.73248 1.15573 3.95314 0.5
196 0.768248 10.3026 6.7898 0.5
197 1.82084 9.63791 0.106179 0.5
198 3.25614 3.66618 0.493051 0.5
199 0.242038 10.2339 5.85714 0.5
200 3.714 12.2976 0.712954 0.5
201 13.4274 7.89184 2.47904 0.5
202 5.61962 5.25816 5.9507 0.5
203 2.18582 5.48143 4.68413 0.5
204 5.76225 4.7447 7.7895 0.5
205 9.86453 6.73747 10.9259 0.5
206 7.79905 8.36131 13.5574 0.5
207 10.9798 4.28016 11.6288 0.5
208 4.34601 5.71093 5.55054 0.5
209 8.0251 11.1646 10.3936 0.5
210 12.6535 3.72513 10.7978 0.5
211 10.2204 5.45068 9.95192 0.5
212 3.75871 3.4763 1.07858 0.5
213 12.7698 1.4758 7.97148 0.5
214 4.77085 10.6344 12.6579 0.5
215 7.16362 4.66968 13.5138 0.5
216 9.43437 11.6043 3.66379 0.5
217 0.542847 10.2115 0.0791089 0.5
218 2.68757 2.19071 13.028 0.5
219 4.56827 1.14005 10.1993 0.5
220 10.6361 8.88626 13.4578 0.5
221 1.10471 1.70167 0.146294 0.5
222 6.02769 0.202417 10.8154 0.5
223 5.93325 7.48844 9.30319 0.5
224 12.6398 12.4633 9.56291 0.5
225 2.26678 13.5136 8.44263 0.5
226 0.0627485 2.89724 6.69436 0.5
227 3.64114 12.6795 2.49632 0.5
228 4.89661 1.37077 7.14853 0.5
229 5.59595 6.04661 12.807 0.5
230 3.07366 6.24295 1.40276 0.5
231 8.50645 8.97532 7.59813 0.5
232 8.06974 12.5865 3.64187 0.5
233 1.15547 6.47373 8.04703 0.5
234 11.6628 6.48652 2.66351 0.5
235 12.6619 6.81601 9.96512 0.5
236 9.05271 2.69752 4.81283 0.5
237 9.03949 3.89612 3.01353 0.5
238 12.0611 0.0709061 10.7476 0.5
239 0.434596 2.53198 8.25592 0.5
240 8.64959 9.31473 10.4313 0.5
241 9.83352 6.49597 4.87084 0.5
242 3.90467 1.0538 4.4263 0.5
243 5.90053 4.1896 6.72139 0.5
244 1.33647 11.8991 1.80764 0.5
245 11.7679 10.2082 9.17159 0.5
246 3.72001 0.0205741 4.8942 0.5
247 0.0599321 6.84654 11.4946 0.5
248 1.44539 10.1953 7.705 0.5
249 7.5888 0.0592098 4.17437 0.5
250 1.45773 11.8024 10.3551 0.5
251 7.11075 12.362 6.87544 0.5
252 6.20453 3.21516 12.6997 0.5
253 4.60887 4.92057 12.4623 0.5
254 11.4913 2.28072 4.14341 0.5
255 12.4478 6.63936 10.1008 0.5
256 12.6725 4.74949 3.27802 0.5
257 1.39967 3.7007 12.7487 0.5
258 3.56128 4.56438 9.71317 0.5
259 5.98006 4.55828 5.22082 0.5
260 0.396408 11.5373 6.33367 0.5
261 11.889 2.37155 8.59005 0.5
262 7.31702 12.0828 8.80812 0.5
263 9.99283 13.4202 13.4732 0.5
264 11.7518 7.56018 11.0955 0.5
265 9.11509 12.717 10.3777 0.5
266 13.4075 9.96138 4.66922 0.5
267 5.86731 11.6067 10.5006 0.5
268 7.78231 9.27155 10.7101 0.5
269 4.0269 4.32343 1.67281 0.5
270 0.385903 11.3963 3.41623 0.5
271 2.35577 7.71329 1.06903 0.5
272 7.18352 4.85722 10.3046 0.5
273 12.4218 11.3589 11.4019 0.5
274 8.24379 0.267746 12.0007 0.5
275 5.05147 8.89151 8.65987 0.5
276 3.96997 2.76134 13.4466 0.5
277 11.8615 6.6324 9.19759 0.5
278 1.91847 8.42385 8.45724 0.5
279 2.92147 7.23754 6.63432 0.5
280 10.3862 9.93598 3.5486 0.5
281 8.65596 0.0884314 2.26109 0.5
282 4.14854 8.87694 12.8812 0.5
283 12.2902 5.79302 12.2671 0.5
284 6.85537 7.45377 2.30061 0.5
285 4.01007 12.6943 0.479369 0.5
286 10.9995 3.27116 3.97594 0.5
287 8.37421 4.04091 2.62908 0.5
288 10.1607 5.28468 8.90302 0.5
289 8.04235 9.94653 0.35057 0.5
290 0.224439 8.20386 5.66879 0.5
291 7.31336 9.04956 4.33753 0.5
292 6.66014 12.0596 4.60778 0.5
293 3.36924 9.59456 10.7126 0.5
294 1.06495 5.93149 1.01141 0.5
295 7.9617 11.4506 1.05947 0.5
296 4.41173 9.93299 10.1679 0.5
297 8.45512 10.3753 9.00076 0.5
298 2.42188 5.53172 12.8442 0.5
299 8.53118 6.56465 4.81996 0.5
300 7.22425 9.91539 5.23447 0.5
301 6.44177 7.99898 2.49915 0.5
302 0.284907 1.73924 2.32798 0.5
303 4.53389 7.36897 12.0006 0.5
304 10.3665 3.19345 7.30399 0.5
305 0.319523 5.0345 2.96365 0.5
306 9.04437 11.7395 13.4498 0.5
307 5.72774 1.43825 4.75853 0.5
308 0.209645 0.977421 0.451746 0.5
309 4.67048 5.10683 11.63 0.5
310 1.3089 2.17262 6.07052 0.5
311 1.98631 4.81853 0.789097 0.5
312 10.524 6.14248 9.32768 0.5
313 10.0703 1.38184 12.2652 0.5
314 4.31532 11.9878 3.39883 0.5
315 11.8621 2.60802 11.2354 0.5
316 6.62477 1.53229 9.15332 0.5
317 0.0647486 6.03784 4.37704 0.5
318 12.1591 4.98334 4.68458 0.5
319 11.976 11.919 12.7437 0.5
320 4.40127 9.31479 11.2336 0.5
321 7.01408 11.7642 8.42325 0.5
322 3.72211 13.1044 4.06881 0.5
323 11.2704 6.84228 4.02092 0.5
324 1.08451 6.14993 11.2833 0.5
325 1.4297 5.02283 3.87072 0.5
326 4.58011 3.7617 0.747481 0.5
327 10.8165 4.8967 12.1501 0.5
328 10.6707 13.4253 10.7084 0.5
329 7.78031 4.63205 7.97617 0.5
330 0.511089 8.11132 5.87783 0.5
331 11.4347 10.9886 8.7725 0.5
332 1.73374 2.94479 13.037 0.5
333 0.365745 5.44421 9.51404 0.5
334 0.822703 12.8931 10.9189 0.5
335 3.09889 6.52089 4.26889 0.5
336 3.55313 2.30039 1.72087 0.5
337 11.4006 12.6408 9.00044 0.5
338 11.0446 8.93394 11.8201 0.5
339 12.287 12.6168 8.9296 0.5
340 10.1029 6.93678 6.3877 0.5
341 10.1327 12.8613 13.3298 0.5
342 9.72508 6.46071 7.67808 0.5
343 13.4516 12.1345 8.28869 0.5
344 2.42558 11.8177 5.27732 0.5
345 10.3281 1.9764 7.48955 0.5
346 4.24349 1.94154 7.6547 0.5
347 13.1349 2.86495 5.56975 0.5
348 5.65872 6.88357 10.27 0.5
349 10.6475 1.75572 7.51134 0.5
350 12.7109 7.02421 10.5427 0.5
351 0.129164 11.0352 11.1849 0.5
352 7.55348 6.37773 5.74984 0.5
353 10.8391 7.6827 5.05716 0.5
354 7.99189 12.6315 5.77779 0.5
355 11.2019 7.23787 8.18395 0.5
356 11.3649 1.59564 7.77347 0.5
357 2.14448 13.1011 0.771711 0.5
358 7.45201 7.43925 8.79998 0.5
359 13.1179 10.3965 9.07002 0.5
360 11.2471 7.09446 2.9847 0.5
361 7.45152 13.2134 11.7357 0.5
362 4.80481 1.395 6.03237 0.5
363 7.32554 8.70723 2.79135 0.5
364 6.10639 2.12055 7.81396 0.5
365 12.8803 1.34079 1.82302 0.5
366 12.5769 11.0277 10.9182 0.5
367 7.55502 5.27154 4.52048 0.5
368 10.9677 8.55339 13.1494 0.5
369 3.85185 9.90147 4.23083 0.5
370 9.97786 11.6645 6.33606 0.5
371 8.52678 0.999926 3.39776 0.5
372 11.6378 10.436 10.9274 0.5
373 4.40632 3.86318 6.3664 0.5
374 4.20075 5.30026 2.6782 0.5
375 0.84273 7.84813 12.795 0.5
376 1.87701 9.69733 11.8151 0.5
377 8.0766 9.33271 2.81938 0.5
378 1.58226 9.26649 7.14504 0.5
379 11.4776 8.34327 8.47642 0.5
380 7.43952 10.5772 0.0605697 0.5
381 4.38883 9.1951 12.6421 0.5
382 5.75296 11.3769 5.32535 0.5
383 3.47126 7.5724 0.0217008 0.5
384 12.9468 8.2535 3.85601 0.5
385 7.74509 8.87739 3.31196 0.5
386 11.2344 4.06376 1.42803 0.5
387 3.87698 1.67357 13.0437 0.5
388 12.7564 5.26196 7.25589 0.5
389 2.5526 2.37971 2.9483 0.5
390 3.26719 9.90866 2.07725 0.5
391 5.98089 6.83741 1.50104 0.5
392 4.96389 10.148 5.71828 0.5
393 2.6584 7.77151 0.875049 0.5
394 2.70048 5.39837 8.9167 0.5
395 3.92116 3.32561 4.36593 0.5
396 8.5462 1.74574 0.397319 0.5
397 11.3133 5.42836 7.33415 0.5
398 1.90084 8.59017 11.8696 0.5
399 6.08275 11.1172 10.9384 0.5
400 2.98189 7.01792 6.84721 0.5
401 12.8597 1.32347 10.5611 0.5
402 13.0343 11.4507 8.71869 0.5
403 10.91 1.35237 8.62239 0.5
404 4.09948 10.9695 2.18918 0.5
405 4.62658 6.14735 9.10846 0.5
406 6.48346 6.05789 8.75901 0.5
407 1.02694 4.12273 8.76787 0.5
408 9.78011 7.65276 7.09283 0.5
409 12.0559 0.87752 1.16453 0.5
410 2.34472 12.6592 6.55362 0.5
411 8.9985 12.382 11.4612 0.5
412 10.0363 12.3919 1.49122 0.5
413 5.33876 9.43629 5.86776 0.5
414 7.63946 8.69819 7.52761 0.5
415 2.71154 13.3053 1.20732 0.5
416 4.65029 6.79097 7.83014 0.5
417 4.45935 7.26896 7.43328 0.5
418 5.43524 1.31875 5.46676 0.5
419 4.3624 7.07831 9.92661 0.5
420 11.0331 8.0356 12.6246 0.5
421 12.744 1.56519 12.6666 0.5
422 0.84316 12.7621 6.36446 0.5
423 6.62252 4.5178 5.03484 0.5
424 9.31996 13.1559 10.9224 0.5
425 8.02302 9.17019 1.54325 0.5
426 9.18248 13.569 12.1709 0.5
427 7.87499 0.393839 8.54125 0.5
428 7.20039 8.89158 3.07377 0.5
429 13.0528 9.97964 3.49862 0.5
430 10.8046 8.10996 11.8862 0.5
431 3.03863 0.481451 8.63118 0.5
432 10.2584 0.565638 4.46724 0.5
433 5.66885 0.623756 0.758819 0.5
434 3.71481 8.80103 10.3704 0.5
435 12.4637 8.03611 9.63468 0.5
436 7.08127 9.99305 3.39203 0.5
437 5.41647 2.66684 4.06054 0.5
438 9.75521 5.23313 7.82658 0.5
439 11.3192 3.78503 9.26484 0.5
440 1.84116 5.15724 11.1188 0.5
441 8.3515 0.491752 1.07892 0.5
442 0.570278 9.32678 5.98586 0.5
443 0.556826 9.05155 6.30052 0.5
444 0.421331 4.13976 1.70859 0.5
445 1.62932 13.1648 9.18803 0.5
446 3.78882 11.4773 6.20224 0.5
447 1.67947 4.99049 2.80534 0.5
448 3.1757 7.20859 9.4777 0.5
449 7.35715 7.5695 7.34095 0.5
450 8.57876 13.1752 9.14546 0.5
451 2.76485 1.07611 13.1783 0.5
452 4.04656 11.6321 2.4981 0.5
453 0.241068 3.53073 5.53603 0.5
454 5.6819 1.96756 12.8516 0.5
455 3.76213 6.3201 3.72381 0.5
456 9.24107 0.414176 1.72912 0.5
457 13.1586 0.103393 4.2394 0.5
458 11.3555 2.35577 1.49383 0.5
459 0.762585 13.112 13.4301 0.5
460 2.06801 11.3596 11.305 0.5
461 9.56336 8.85745 9.19113 0.5
462 10.0011 5.6782 4.42812 0.5
463 8.18336 2.4245 0.0389675 0.5
464 11.5712 5.42737 13.445 0.5
465 7.87591 4.9977 4.56261 0.5
466 0.114453 11.9558 2.37846 0.5
467 4.7354 4.72206 8.8819 0.5
468 2.00987 12.2186 2.29662 0.5
469 8.61454 10.6435 13.5553 0.5
470 8.58621 0.661829 13.1319 0.5
471 0.373653 3.37517 9.73206 0.5
472 7.85872 11.9101 10.1099 0.5
473 3.80614 4.95321 6.0136 0.5
474 12.8743 0.905086 5.13049 0.5
475 3.87577 1.10689 10.9021 0.5
476 0.491215 2.20307 9.33653 0.5
477 12.9487 13.335 3.34715 0.5
478 2.96051 13.1598 2.70433 0.5
479 1.10211 10.486 5.89318 0.5
480 6.40919 3.68025 5.63893 0.5
481 12.3075 6.67233 5.24688 0.5
482 2.06538 10.0898 8.83648 0.5
483 10.5284 4.82622 6.88454 0.5
484 5.50057 9.28838 6.00539 0.5
485 2.76422 9.21303 2.39577 0.5
486 5.20772 4.8759 9.61346 0.5
487 8.73853 1.78583 2.72447 0.5
488 11.3817 3.28599 13.451 0.5
489 10.3118 4.61275 13.3888 0.5
490 13.5691 13.14 3.97622 0.5
491 9.40048 0.958054 9.14023 0.5
492 11.4166 11.4637 12.9885 0.5
493 10.3321 10.0003 5.16375 0.5
494 0.871105 10.9621 5.00163 0.5
495 6.48612 10.6389 5.88647 0.5
496 10.2964 6.69744 13.488 0.5
497 9.98473 5.69469 1.83426 0.5
498 9.58473 4.44731 7.64685 0.5
499 6.53226 12.6529 5.95675 0.5
500 1.10801 7.74306 1.56396 0.5
501 9.60228 1.74819 12.9703 0.5
502 10.6358 5.93451 1.28942 0.5
503 5.58078 6.43824 6.95883 0.5
504 9.21037 6.11854 10.1723 0.5
505 1.39509 7.03733 1.04325 0.5
506 2.35691 3.04892 13.3502 0.5
507 11.3894 6.24292 12.8618 0.5
508 0.333892 8.24206 12.3771 0.5
509 3.36696 7.89846 12.3844 0.5
510 13.2627 2.27226 5.38048 0.5
511 9.27207 0.319963 7.15834 0.5
512 0.466305 6.58349 4.55877 0.5
513 12.0389 6.47097 6.34065 0.5
514 12.8313 7.45892 7.48607 0.5
515 5.19322 2.99485 8.42848 0.5
516 11.053 13.19 5.94439 0.5
517 8.89738 9.22557 5.12906 0.5
518 7.17828 11.3249 8.89527 0.5
519 3.60009 13.5055 9.04186 0.5
520 2.43762 0.748632 3.7595 0.5
521 8.85119 12.4374 2.25397 0.5
522 10.8443 5.72414 12.6779 0.5
523 3.83742 1.82677 0.288379 0.5
524 4.66821 10.1005 13.5302 0.5
525 4.60627 1.47032 6.60383 0.5
526 10.925 10.6577 12.1333 0.5
527 4.19268 9.64889 13.1647 0.5
528 5.00693 12.0011 9.25443 0.5
529 10.4801 0.611922 13.4021 0.5
530 2.44588 13.2496 9.02465 0.5
531 1.15599 2.96327 11.494 0.5
532 12.111 10.3943 8.74298 0.5
533 7.14124 10.6191 10.3136 0.5
534 4.65655 12.9041 0.757227 0.5
535 3.04275 7.54376 7.4913 0.5
536 4.70437 13.2283 5.53877 0.5
537 9.19174 11.3327 2.83017 0.5
538 2.74722 12.8415 6.17828 0.5
539 12.6746 5.04669 6.67988 0.5
540 0.931795 12.0729 6.70298 0.5
541 3.84122 13.0335 5.65063 0.5
542 6.86552 6.34022 12.0196 0.5
543 13.2664 6.37271 11.297 0.5
544 11.3459 5.46115 7.06725 0.5
545 9.0258 7.08134 2.46786 0.5
546 4.66492 2.83716 11.0443 0.5
547 7.57409 1.97149 8.37159 0.5
548 0.587666 12.0102 11.568 0.5
549 2.29961 11.7038 8.89196 0.5
550 12.9938 11.4331 11.8692 0.5
551 3.26565 13.4513 1.03635 0.5
552 8.33917 1.0297 2.64127 0.5
553 12.1016 12.6548 8.98426 0.5
554 8.23501 1.47982 12.0325 0.5
555 6.71469 12.9609 4.10131 0.5
556 7.02576 10.5739 9.14564 0.5
557 8.34135 7.02986 11.3618 0.5
558 4.27231 11.4222 5.75795 0.5
559 0.18561 11.6794 8.70946 0.5
560 3.09653 9.80676 8.21107 0.5
561 4.29359 1.04298 12.7502 0.5
562 5.63513 1.72647 12.4757 0.5
563 6.25794 11.2152 2.71799 0.5
564 3.97413 1.91604 5.96405 0.5
565 7.89174 0.7405 7.29738 0.5
566 8.29494 1.92393 12.9879 0.5
567 10.7655 1.60765 9.34967 0.5
568 7.7872 12.2515 6.82658 0.5
569 8.30259 4.78564 0.145864 0.5
570 10.3266 9.16808 3.63135 0.5
571 13.0811 5.98226 2.69102 0.5
572 3.3471 7.24083 4.37789 0.5
573 6.76832 3.93799 8.92448 0.5
574 8.68866 3.34926 13.1598 0.5
575 1.7329 12.8776 3.68692 0.5
576 7.81969 6.79411 4.01503 0.5
577 0.256109 0.531255 2.9202 0.5
578 9.65917 8.96986 7.12389 0.5
579 7.6362 8.4954 12.9646 0.5
580 1.61805 12.3006 7.03416 0.5
581 10.2527 11.2987 10.2107 0.5
582 6.10872 1.34272 2.08193 0.5
583 2.73945 0.959096 4.57068 0.5
584 12.2817 8.03816 13.0228 0.5
585 11.8297 3.94225 4.99234 0.5
586 11.4314 1.04517 1.19692 0.5
587 5.14391 13.3082 7.70612 0.5
588 4.33694 6.16423 13.1595 0.5
589 6.18072 11.8847 10.2103 0.5
590 5.61114 7.28948 12.1658 0.5
591 2.13354 7.45926 12.0735 0.5
592 2.18714 6.11041 5.95379 0.5
593 1.82828 5.60377 8.29101 0.5
594 2.41193 1.53369 0.224093 0.5
595 0.733579 1.72542 2.29695 0.5
596 3.44836 2.47721 10.234 0.5
597 0.433696 9.27547 1.83708 0.5
598 0.437749 2.41098 3.2649 0.5
599 4.76523 8.79375 9.34938 0.5
600 12.7096 5.14497 3.37279 0.5
601 12.1236 11.964 13.3153 0.5
602 2.63077 1.88557 9.38286 0.5
603 9.89189 8.88542 7.48158 0.5
604 10.8754 5.6738 7.29124 0.5
605 5.74333 9.89323 9.90691 0.5
606 6.45172 8.60062 2.50928 0.5
607 1.34358 7.91197 6.54678 0.5
608 5.01355 1.35253 9.55776 0.5
609 0.511388 8.21206 5.97244 0.5
610 12.4127 6.69613 6.82113 0.5
611 4.25966 12.8984 10.5352 0.5
612 9.72463 8.3759 10.4295 0.5
613 6.43679 2.0834 9.34235 0.5
614 5.0796 7.68067 3.4753 0.5
615 9.74696 2.1475 5.09006 0.5
616 11.6119 11.6418 10.8228 0.5
617 9.77135 2.7528 12.427 0.5
618 8.59365 12.861 8.81576 0.5
619 2.60497 2.95907 10.5697 0.5
620 7.31101 12.2895 10.8703 0.5
621 8.05347 0.812987 9.57406 0.5
622 7.52556 4.8689 7.52851 0.5
623 7.81474 8.96586 13.1547 0.5
624 9.28244 1.27843 4.6753 0.5
625 2.57516 3.07259 2.87533 0.5
626 6.55971 6.8515 3.44773 0.5
627 6.94423 4.75316 1.14318 0.5
628 7.50352 9.30938 13.2493 0.5
629 0.709863 9.56579 11.4997 0.5
630 11.4991 0.321064 11.4822 0.5
631 9.01809 5.12299 12.0504 0.5
632 5.83359 6.65303 3.57226 0.5
633 6.19532 1.61925 8.00891 0.5
634 7.74073 6.72891 1.53919 0.5
635 8.24341 9.23061 12.0496 0.5
636 11.2185 0.442499 9.05663 0.5
637 9.32345 11.58 11.9364 0.5
638 4.78396 2.03214 8.48816 0.5
639 9.1042 1.24468 9.39209 0.5
640 0.290328 10.7827 9.10684 0.5
641 4.45902 1.48408 8.41927 0.5
642 1.58 2.33238 2.6816 0.5
643 1.34101 12.1269 11.3133 0.5
644 3.75023 10.521 3.52894 0.5
645 13.4875 4.78858 9.49958 0.5
646 11.3272 7.09328 0.763249 0.5
647 10.1666 10.9691 12.5725 0.5
648 7.08803 4.58565 6.00515 0.5
649 10.8713 6.39413 6.14547 0.5
650 7.18922 0.638274 0.14527 0.5
651 12.4864 1.35089 9.61368 0.5
652 5.54171 5.27315 3.98071 0.5
653 2.96925 1.44319 5.20979 0.5
654 4.55875 1.33853 5.87415 0.5
655 1.14826 8.48314 2.68361 0.5
656 1.86417 8.19083 10.5593 0.5
657 6.09988 6.92281 10.1898 0.5
658 12.7289 3.95978 10.1143 0.5
659 9.49954 3.25643 3.63316 0.5
660 7.29057 4.86998 8.56722 0.5
661 1.76246 4.15837 5.58923 0.5
662 1.2756 13.0091 12.6039 0.5
663 2.7072 10.0369 3.44348 0.5
664 0.269989 11.1086 2.22787 0.5
665 9.94374 10.7535 8.27692 0.5
666 12.0223 12.5476 9.11187 0.5
667 13.3471 5.55184 4.34939 0.5
668 4.59164 2.54532 8.7264 0.5
669 5.78638 7.25869 1.93425 0.5
670 0.0522853 7.07759 12.1823 0.5
671 11.6415 6.37544 12.0668 0.5
672 11.4859 8.30789 2.63462 0.5
673 0.738149 6.07387 1.09831 0.5
674 9.58899 10.3772 9.28383 0.5
675 7.66893 7.2907 7.98774 0.5
676 6.76026 13.4837 12.5051 0.5
677 12.667 9.42825 12.5306 0.5
678 6.84584 8.77609 10.8226 0.5
679 2.31652 2.32078 4.24227 0.5
680 4.26731 2.85453 2.11203 0.5
681 4.55711 5.39151 9.4569 0.5
682 10.3529 0.458049 9.78565 0.5
683 4.03498 3.48784 8.64532 0.5
684 5.1139 11.432 2.04695 0.5
685 5.95562 6.44396 10.1467 0.5
686 10.3162 1.26955 5.92065 0.5
687 4.54364 1.41748 0.811877 0.5
688 8.08148 4.74392 2.97083 0.5
689 13.1899 7.73339 5.55869 0.5
690 1.88467 5.17533 8.07971 0.5
691 4.31584 12.1783 10.7935 0.5
692 5.61678 9.92875 5.54209 0.5
693 10.1226 13.0748 3.63494 0.5
694 2.16354 1.97604 9.33738 0.5
695 6.70904 3.98667 4.46141 0.5
696 9.9372 7.90434 6.19371 0.5
697 12.4124 4.02575 10.5307 0.5
698 3.76757 4.55198 11.716 0.5
699 6.55091 11.9125 4.05778 0.5
700 11.1478 5.86319 9.86547 0.5
701 8.34355 2.79526 10.3408 0.5
702 6.71792 9.21118 3.47704 0.5
703 6.21207 7.47285 5.66692 0.5
704 10.0227 11.3381 9.29301 0.5
705 3.25507 7.39258 7.2051 0.5
706 7.93661 10.9292 0.0377893 0.5
707 12.3651 9.25798 8.47533 0.5
708 9.81292 11.042 3.60229 0.5
709 12.9496 8.09568 1.9135 0.5
710 8.13358 8.53589 7.84571 0.5
711 12.3565 0.0595465 10.6173 0.5
712 10.0127 5.91393 2.23749 0.5
713 6.66242 9.68538 11.3281 0.5
714 7.48739 3.17431 9.1248 0.5
715 3.85183 12.4738 8.79756 0.5
716 0.35086 6.73076 9.96087 0.5
717 4.89434 11.6036 3.40085 0.5
718 7.37811 10.1341 8.33463 0.5
719 9.10632 4.8035 11.2317 0.5
720 2.24273 6.66562 8.21051 0.5
721 8.54107 0.247906 8.94236 0.5
722 9.23227 6.0827 12.1538 0.5
723 10.5012 13.5623 3.44593 0.5
724 10.839 12.5235 3.29673 0.5
725 8.48237 6.37629 9.5401 0.5
726 4.28431 7.56865 2.7528 0.5
727 1.78256 12.4897 2.7659 0.5
728 5.02788 0.376274 3.04054 0.5
729 7.22588 5.50722 4.89399 0.5
730 13.0485 12.5427 0.872839 0.5
731 8.56 2.85488 6.48725 0.5
732 2.94097 5.64368 1.70803 0.5
733 2.53202 9.41817 3.62809 0.5
734 9.12479 10.3269 4.29863 0.5
735 4.68311 3.48431 11.4161 0.5
736 5.39927 1.46607 3.90716 0.5
737 9.25175 5.04398 6.67849 0.5
738 9.42417 11.3545 3.89641 0.5
739 1.20583 6.01552 3.21337 0.5
740 8.36238 8.51418 8.00185 0.5
741 11.7039 8.1986 5.45277 0.5
742 0.925403 6.51879 2.36617 0.5
743 2.447 0.947288 5.39339 0.5
744 5.88098 11.308 6.86869 0.5
745 5.61451 0.392907 13.4031 0.5
746 5.39887 3.81457 1.33156 0.5
747 12.24 3.21047 2.18183 0.5
748 9.32879 9.21063 2.55102 0.5
749 5.3541 9.77391 4.09607 0.5
750 4.74767 12.3822 4.63635 0.5
751 0.437944 12.1166 3.90624 0.5
752 10.8314 9.61873 4.76693 0.5
753 13.114 6.41767 7.04712 0.5
754 0.652514 6.49283 7.56374 0.5
755 2.58297 1.30796 4.13837 0.5
756 10.051 11.2854 6.87329 0.5
757 11.9521 4.21562 2.34456 0.5
758 4.03699 3.13207 10.2163 0.5
759 10.3227 8.83941 2.71478 0.5
760 2.13499 2.32226 12.7679 0.5
761 2.98107 1.47147 7.03415 0.5
762 12.0099 7.76774 7.69512 0.5
763 7.62314 3.42985 10.3396 0.5
764 4.85745 5.31161 10.1475 0.5
765 6.73272 13.296 13.0062 0.5
766 10.5674 6.67394 9.32833 0.5
767 13.2087 2.13339 9.53317 0.5
768 7.49686 3.67174 12.0069 0.5
769 0.932144 5.31271 12.9801 0.5
770 7.50314 5.21749 13.1013 0.5
771 3.97074 7.99346 12.1457 0.5
772 11.7409 2.09706 1.76763 0.5
773 9.61989 4.74791 8.95759 0.5
774 10.696 13.0587 8.9211 0.5
775 12.0325 7.70662 13.0436 0.5
776 6.44777 3.35244 5.25601 0.5
777 1.96078 13.3136 2.72159 0.5
778 8.43571 2.51899 10.6258 0.5
779 1.33604 10.6027 2.45965 0.5
780 1.45495 0.114802 8.1886 0.5
781 7.47375 8.73986 5.17927 0.5
782 0.495991 2.91532 10.2692 0.5
783 13.1642 1.17206 12.0477 0.5
784 10.6163 12.4375 12.3502 0.5
785 1.38739 9.80233 9.58925 0.5
786 9.12484 4.57532 0.295081 0.5
787 11.6225 4.95892 9.91442 0.5
788 1.64872 13.0406 2.09232 0.5
789 10.8212 8.32866 8.46787 0.5
790 0.385581 3.92264 6.7721 0.5
791 1.25589 8.15195 12.8839 0.5
792 0.72696 3.45895 0.351674 0.5
793 2.8731 11.9273 5.08996 0.5
794 13.1335 11.1765 12.8303 0.5
795 5.60645 7.81597 7.41492 0.5
796 5.10074 1.24623 9.59268 0.5
797 9.89458 0.0334674 3.04829 0.5
798 0.0852898 10.1093 8.09107 0.5
799 8.21968 7.05368 5.39999 0.5
800 10.7011 1.03675 1.8324 0.5
801 4.94269 1.17991 9.48651 0.5
802 6.43071 8.3631 4.24181 0.5
803 1.10279 11.265 12.412 0.5
804 10.3391 1.68095 0.19818 0.5
805 8.80336 8.03586 2.97141 0.5
806 12.7858 6.67259 1.70819 0.5
807 0.879846 0.927018 10.9972 0.5
808 2.06261 8.08658 10.8729 0.5
809 12.5772 1.54126 5.78452 0.5
810 11.0054 8.73062 13.5055 0.5
811 9.03603 0.619407 4.42076 0.5
812 12.6706 6.12176 6.37691 0.5
813 1.76164 0.0337009 8.7746 0.5
814 3.63892 4.63759 9.00342 0.5
815 11.5886 3.68219 11.6347 0.5
816 13.4823 0.00603739 1.22027 0.5
817 9.26702 8.03802 2.31258 0.5
818 4.15812 2.17526 12.142 0.5
819 3.71061 5.46257 11.3995 0.5
820 0.801192 2.43993 5.34547 0.5
821 6.69196 13.3719 5.09377 0.5
822 4.5217 9.75257 7.12454 0.5
823 5.51894 9.70175 5.94306 0.5
824 8.56688 1.08199 11.6227 0.5
825 2.8303 10.4684 11.6169 0.5
826 7.27045 10.6084 8.84206 0.5
827 9.29766 11.4749 1.46021 0.5
828 4.66398 9.16946 3.47064 0.5
829 1.71293 9.46395 4.51222 0.5
830 1.75703 10.0319 11.7073 0.5
831 6.06405 0.768075 6.39603 0.5
832 7.55279 2.52769 9.67638 0.5
833 11.6089 0.409756 3.52887 0.5
834 13.2199 0.625769 10.1665 0.5
835 5.92044 12.8228 11.8734 0.5
836 8.70613 12.2434 8.79866 0.5
837 1.07767 12.3124 13.4179 0.5
838 5.29628 11.6696 9.87464 0.5
839 9.83728 0.394744 5.98437 0.5
840 12.8365 0.083379 0.0798487 0.5
841 1.08209 12.7991 0.342754 0.5
842 0.878692 4.70123 8.85242 0.5
843 5.98522 7.7401 3.17457 0.5
844 8.45682 9.3713 1.53979 0.5
845 4.47979 8.43553 7.69483 0.5
846 6.1925 3.49262 6.42152 0.5
847 1.30547 3.40333 6.51871 0.5
848 8.94425 11.3642 1.764 0.5
849 8.28719 1.36052 1.22668 0.5
850 0.4699 10.7119 5.55511 0.5
851 3.60078 8.23385 2.6128 0.5
852 6.97931 3.78218 13.148 0.5
853 1.16224 1.97756 6.65514 0.5
854 4.5606 2.26072 8.55433 0.5
855 1.9296 7.33528 11.208 0.5
856 10.6094 4.04062 3.20897 0.5
857 6.28571 8.02649 5.18861 0.5
858 8.02254 5.69047 2.65114 0.5
859 2.57555 12.5925 5.17553 0.5
860 4.26948 7.14121 6.47268 0.5
861 10.6477 1.45615 3.3587 0.5
862 13.4336 12.3638 11.9322 0.5
863 8.40583 7.9294 3.15432 0.5
864 8.9978 5.37101 7.41369 0.5
865 7.6255 9.19099 3.53922 0.5
866 7.2515 7.17327 2.66973 0.5
867 2.35885 9.87942 9.32574 0.5
868 3.75377 3.7498 0.949426 0.5
869 6.86874 4.24003 5.77381 0.5
870 4.39157 7.967 7.33603 0.5
871 5.31563 2.06103 11.4813 0.5
872 3.75869 10.1799 10.9445 0.5
873 5.64521 0.893747 0.338061 0.5
874 7.8372 8.5882 3.3839 0.5
875 9.52523 3.66403 0.74005 0.5
876 5.38566 3.00992 8.04841 0.5
877 0.948013 4.6725 13.3688 0.5
878 2.21346 4.89334 11.3811 0.5
879 0.0121196 2.55714 10.8805 0.5
880 7.9375 7.30396 7.84977 0.5
881 13.3274 8.27108 8.97763 0.5
882 5.08587 3.9604 10.0692 0.5
883 13.2868 6.25581 5.80463 0.5
884 3.57199 7.00219 8.00806 0.5
885 7.88081 6.94552 13.5621 0.5
886 7.54137 0.776428 10.1841 0.5
887 6.77812 0.342602 7.20101 0.5
888 1.14269 0.482933 5.82431 0.5
889 3.99597 2.16312 1.56571 0.5
890 4.81824 6.52761 11.8518 0.5
891 13.095 6.34017 10.966 0.5
892 3.25295 12.3395 12.234 0.5
893 0.246038 11.2141 8.51094 0.5
894 1.04411 9.69826 7.11284 0.5
895 11.5168 11.4083 9.21708 0.5
896 5.32156 12.8053 9.04218 0.5
897 6.83885 2.02309 8.09613 0.5
898 1.07881 8.76164 2.19203 0.5
899 0.76433 5.73685 7.71812 0.5
900 1.86427 0.00874491 12.6602 0.5
901 9.77204 7.16714 7.99721 0.5
902 7.74976 0.405025 6.08505 0.5
903 6.60924 8.41858 7.69938 0.5
904 5.49229 7.4339 12.886 0.5
905 12.499 12.6301 2.26422 0.5
906 6.48998 3.63329 4.74621 0.5
907 4.95958 8.53035 10.814 0.5
908 9.37007 12.6368 2.14519 0.5
909 2.8658 10.4363 11.5373 0.5
910 2.15239 1.06916 1.8861 0.5
911 13.1235 13.2255 3.59534 0.5
912 9.19602 6.27975 5.90285 0.5
913 11.3425 1.44648 3.64293 0.5
914 9.28786 4.67182 2.85916 0.5
915 7.79529 12.1354 5.97922 0.5
916 12.5217 5.2469 3.85655 0.5
917 10.9761 13.3925 1.73836 0.5
918 8.99775 5.07537 8.46407 0.5
919 5.9432 10.9001 0.989344 0.5
920 4.37074 9.71124 3.99603 0.5
921 11.3163 4.4533 5.02829 0.5
922 5.65163 10.114 5.7689 0.5
923 10.3043 2.88184 7.34883 0.5
924 4.90258 8.80436 0.644318 0.5
925 6.85819 0.596264 3.37135 0.5
926 4.80789 9.15063 3.91757 0.5
927 3.00382 8.11053 0.265048 0.5
928 6.57233 6.98877 1.03883 0.5
929 6.79439 11.1918 3.14578 0.5
930 6.32915 7.05854 2.05534 0.5
931 4.24536 7.26164 6.63859 0.5
932 3.602 12.9785 6.97255 0.5
933 3.96792 8.57255 9.70135 0.5