ITEM: TIMESTEP
30000
ITEM: NUMBER OF ATOMS
1000
ITEM: BOX BOUNDS xy xz yz pp pp pp
0.0000000000000000e+00 1.3572088000000001e+01 0.0000000000000000e+00
0.0000000000000000e+00 1.3572088000000001e+01 0.0000000000000000e+00
0.0000000000000000e+00 1.3572088000000001e+01 0.0000000000000000e+00
ITEM: ATOMS id x y z radius
1 12.3028 2.47014 0.0201223 0.5
2 8.71717 8.76245 3.73329 0.5
3 5.92016 7.49277 11.5689 0.5
4 11.5458 1.60229 5.01992 0.5
5 9.73035 5.51691 9.89209 0.5
6 0.615141 7.09408 4.14949 0.5
7 10.4917 10.1546 8.85392 0.5
8 6.3288 11.4768 4.43522 0.5
9 9.56285 5.49946 4.73357 0.5
10 9.89636 10.1267 11.8573 0.5
11 12.6885 12.1249 3.0555 0.5
12 0.136893 5.92623 9.49183 0.5
13 9.7468 3.41531 9.60551 0.5
14 0.243471 1.10523 12.2802 0.5
15 5.58609 8.10504 11.6433 0.5
16 2.1454 4.51811 11.8962 0.5
17 3.45766 6.58925 13.1424 0.5
18 9.52019 5.58244 4.50898 0.5
19 7.46382 9.96054 3.80072 0.5
20 13.012 11.4142 12.3075 0.5
21 10.2538 5.88543 4.24067 0.5
22 0.213804 10.8815 3.91789 0.5
23 0.383151 2.41362 2.37604 0.5
24 10.1927 4.66489 0.45792 0.5
25 0.219912 10.3247 3.16916 0.5
26 8.37707 2.99609 7.81975 0.5
27 12.817 5.44652 7.32328 0.5
28 9.81078 11.1396 2.85573 0.5
29 0.457301 10.038 11.5311 0.5
30 11.4315 10.6758 13.5374 0.5
31 5.10466 12.5381 6.53069 0.5
32 1.34816 10.4188 11.7072 0.5
33 5.63073 7.94381 2.94415 0.5
34 0.822161 11.0914 11.8782 0.5
35 6.87028 3.64359 8.90532 0.5
36 1.47987 2.89242 7.91962 0.5
37 13.3674 5.36038 0.96368 0.5
38 0.500589 1.92425 4.74278 0.5
39 9.7935 5.26298 5.59047 0.5
40 4.47958 5.94771 7.64824 0.5
41 8.13609 0.505351 12.1081 0.5
42 7.95053 12.9592 8.02512 0.5
43 1.8513 3.6612 6.93868 0.5
44 4.72458 11.3712 1.1756 0.5
45 10.8992 8.39087 6.67369 0.5
46 8.51198 12.7645 12.4096 0.5
47 8.17895 11.3831 1.09981 0.5
48 1.78411 0.664935 10.6233 0.5
49 13.1338 9.2201 0.809691 0.5
50 5.09926 8.42843 5.06999 0.5
51 13.1108 4.19357 5.88805 0.5
52 12.4656 0.897885 0.626463 0.5
53 2.63379 9.50285 1.29666 0.5
54 8.30644 7.26922 7.83603 0.5
55 9.14149 10.75 13.5109 0.5
56 9.0079 13.2155 1.29966 0.5
57 5.32373 10.4136 2.60149 0.5
58 8.1327 6.61342 11.0967 0.5
59 9.35742 6.73415 7.25117 0.5
60 0.816263 2.56323 1.11896 0.5
61 0.36877 3.75573 1.17231 0.5
62 5.1614 11.9815 10.9047 0.5
63 10.8005 8.30846 11.7862 0.5
64 6.18538 6.30915 9.97187 0.5
65 6.74865 7.9189 4.1338 0.5
66 12.5734 10.8522 3.01466 0.5
67 13.3146 13.0934 12.7328 0.5
68 7.3299 0.266212 0.825092 0.5
69 10.1711 4.86723 9.20606 0.5
70 13.1559 2.7973 7.07434 0.5
71 7.81702 11.9905 0.73907 0.5
72 7.45988 10.5992 2.36921 0.5
73 5.90509 8.46315 4.77316 0.5
74 3.39431 1.55703 7.58856 0.5
75 6.23661 5.43511 9.33087 0.5
76 5.26043 6.49829 3.34867 0.5
77 1.31146 12.4382 12.3338 0.5
78 0.652745 9.61646 4.80925 0.5
79 5.0104 11.2721 11.7093 0.5
80 4.1959 2.51538 9.54168 0.5
81 10.5686 6.98826 13.2324 0.5
82 11.2633 7.56969 0.299026 0.5
83 7.87252 2.53434 0.963571 0.5
84 10.4417 11.1307 4.67601 0.5
85 12.7992 3.29207 0.81149 0.5
86 2.30304 8.21158 10.4198 0.5
87 2.62086 1.73511 8.00248 0.5
88 6.47168 4.97983 1.63616 0.5
89 9.38215 6.52276 7.48384 0.5
90 4.60969 1.48344 5.04697 0.5
91 11.684 7.92709 6.29636 0.5
92 2.36093 0.0441635 3.18722 0.5
93 3.22752 13.1792 8.7416 0.5
94 5.6502 9.79802 0.522838 0.5
95 8.50632 12.1569 13.3953 0.5
96 5.96319 5.42993 13.4416 0.5
97 13.2706 1.41199 3.88486 0.5
98 0.743796 8.47722 8.40383 0.5
99 5.14428 11.0347 4.77342 0.5
100 4.77613 6.02865 5.2888 0.5
101 11.2895 9.9862 1.93582 0.5
102 13.44 10.579 9.98024 0.5
103 0.590538 3.92552 1.77199 0.5
104 7.90002 4.62756 5.36032 0.5
105 1.24246 0.872237 8.89109 0.5
106 4.04942 0.457373 5.31688 0.5
107 0.249113 7.15524 10.36 0.5
108 9.67629 0.136883 2.33385 0.5
109 11.409 9.03742 13.2092 0.5
110 5.57121 8.52215 6.69566 0.5
111 0.0901919 8.50423 2.6294 0.5
112 9.48247 4.0359 3.16787 0.5
113 6.41438 13.5598 13.3788 0.5
114 3.97639 7.28866 6.25614 0.5
115 0.102421 2.14673 10.7265 0.5
116 6.39908 2.8726 3.74468 0.5
117 2.41192 2.61899 7.76625 0.5
118 1.60947 8.25741 4.57411 0.5
119 10.9693 4.75315 2.31432 0.5
120 6.93448 4.56429 3.42208 0.5
121 7.37315 7.98823 12.3789 0.5
122 9.1627 3.80085 2.08817 0.5
123 1.84384 7.50724 9.67989 0.5
124 12.3828 0.0633851 5.74343 0.5
125 13.0244 12.3749 6.96136 0.5
126 7.86675 13.2835 9.42122 0.5
127 7.99469 12.1216 11.3591 0.5
128 5.84274 2.09499 5.37871 0.5
129 0.360617 12.2629 2.56124 0.5
130 1.38759 12.5432 5.51548 0.5
131 11.7692 13.1107 9.86796 0.5
132 1.80989 3.33812 0.650361 0.5
133 3.56536 13.5188 8.42948 0.5
134 4.77209 12.2745 5.66544 0.5
135 11.1234 10.8441 0.570487 0.5
136 13.3194 7.56148 2.03004 0.5
137 10.7647 3.40921 3.51532 0.5
138 11.1523 2.03119 2.77041 0.5
139 13.2737 2.04676 3.60871 0.5
140 11.6118 1.79609 7.66724 0.5
141 12.8006 0.82028 4.3218 0.5
142 10.4678 3.3264 4.76898 0.5
143 12.431 12.7216 8.67002 0.5
144 2.37941 5.07166 9.50794 0.5
145 5.03329 4.89611 7.93191 0.5
146 1.76443 0.754433 10.0466 0.5
147 2.49254 6.14233 10.4126 0.5
148 13.3305 4.44388 10.3354 0.5
149 6.10741 8.50346 5.07716 0.5
150 5.42135 8.26303 0.716023 0.5
151 2.31282 0.075752 12.1862 0.5
152 0.967738 3.7536 6.1099 0.5
153 4.0276 12.2076 1.84386 0.5
154 9.32486 2.98948 6.32093 0.5
155 10.2297 11.1738 11.7626 0.5
156 10.2226 7.27187 1.55372 0.5
157 13.0493 2.11408 11.5823 0.5
158 0.249776 5.38684 7.8155 0.5
159 8.80746 4.16992 6.48769 0.5
160 9.46575 4.63786 10.4332 0.5
161 8.72311 8.71522 8.62436 0.5
162 6.49247 1.49734 0.909292 0.5
163 3.92858 9.5869 4.74102 0.5
164 9.00004 2.39068 2.24325 0.5
165 11.9422 5.71129 6.13025 0.5
166 1.54245 4.13691 10.392 0.5
167 8.11815 7.82242 8.62922 0.5
168 11.1712 4.72168 13.4341 0.5
169 12.8647 11.14 6.69769 0.5
170 2.66788 8.61058 6.00068 0.5
171 3.33741 7.30537 8.86194 0.5
172 4.57991 10.6127 6.88772 0.5
173 5.87973 7.65703 5.32931 0.5
174 11.9251 9.64873 5.06859 0.5
175 0.117058 7.68368 10.4009 0.5
176 3.34803 7.73515 6.35365 0.5
177 7.39601 2.32864 3.46852 0.5
178 8.57427 6.43911 1.90385 0.5
179 3.68173 8.17119 0.41197 0.5
180 11.8786 9.25842 4.5076 0.5
181 9.43731 13.0635 1.68115 0.5
182 8.65954 10.4853 4.45439 0.5
183 0.99281 8.74092 9.93635 0.5
184 10.127 11.2898 3.20711 0.5
185 8.52205 3.57477 7.70405 0.5
186 10.0311 10.1533 4.29251 0.5
187 10.0727 2.90244 9.13273 0.5
188 5.71303 8.13039 8.07284 0.5
189 2.42872 6.9951 11.065 0.5
190 9.69031 5.5565 8.13412 0.5
191 9.41044 6.13092 4.90298 0.5
192 11.2623 0.605918 13.22 0.5
193 10.475 0.601727 12.8083 0.5
194 2.53705 0.0730007 6.36815 0.5
195 10.4193 7.55441 1.58689 0.5
196 10.6418 7.66705 7.35899 0.5
197 2.22314 8.71604 5.32063 0.5
198 7.30832 6.45971 11.752 0.5
199 1.80044 8.9493 3.628 0.5
200 12.3602 9.13205 7.29629 0.5
201 1.84769 6.71535 1.928 0.5
202 5.99189 3.94232 9.77722 0.5
203 13.5451 5.36539 5.91497 0.5
204 1.40455 4.1745 6.35558 0.5
205 3.94182 8.92154 4.17785 0.5
206 6.13683 4.25682 12.655 0.5
207 3.48089 11.6469 3.24759 0.5
208 6.66716 0.20713 1.817 0.5
209 12.8816 11.6128 6.02282 0.5
210 0.599626 9.73332 1.00546 0.5
211 3.29463 2.95663 11.3048 0.5
212 4.08929 2.67091 10.7173 0.5
213 2.48699 7.61505 6.0287 0.5
214 3.79006 9.89536 6.70481 0.5
215 5.02656 1.7557 4.87618 0.5
216 6.75514 12.2962 2.7826 0.5
217 0.189967 10.1222 0.0756265 0.5
218 13.3753 7.48632 3.28647 0.5
219 8.89821 13.5476 7.48347 0.5
220 7.14081 13.3323 1.94087 0.5
221 3.0862 3.58383 6.31058 0.5
222 11.1754 7.35051 6.12333 0.5
223 3.61067 12.9267 1.04538 0.5
224 0.347805 10.1593 4.04328 0.5
225 11.2396 1.99464 8.71033 0.5
226 10.3238 4.05665 10.6424 0.5
227 9.77454 7.3495 12.7729 0.5
228 10.8275 4.69466 9.89595 0.5
229 1.47452 12.9368 12.6972 0.5
230 9.54699 4.15158 8.91958 0.5
231 11.1523 8.83 10.9326 0.5
232 12.3121 1.5684 10.0296 0.5
233 0.690187 12.2116 5.99367 0.5
234 6.23665 7.85865 3.80658 0.5
235 12.5727 7.44514 13.2742 0.5
236 6.69361 11.8203 12.0952 0.5
237 9.06898 12.6505 1.59819 0.5
238 12.6149 0.187756 1.1961 0.5
239 12.4522 9.67022 0.650936 0.5
240 2.25421 4.32546 6.95922 0.5
241 7.8632 9.7102 3.46427 0.5
242 8.6938 1.26961 12.6235 0.5
243 3.97326 6.13671 12.3563 0.5
244 11.194 1.32788 3.3343 0.5
245 8.54573 12.9839 4.90819 0.5
246 9.16296 7.27981 0.184576 0.5
247 2.18551 8.98757 10.4269 0.5
248 3.17531 9.59211 2.39444 0.5
249 0.124941 2.84781 8.79491 0.5
250 5.01692 3.79568 10.997 0.5
251 10.9159 1.28448 10.2059 0.5
252 5.77055 4.98438 1.68045 0.5
253 11.855 7.65953 1.18991 0.5
254 12.8153 3.62765 6.64501 0.5
255 0.37018 7.45858 0.183992 0.5
256 2.92011 2.76538 4.42327 0.5
257 1.82752 0.563037 13.223 0.5
258 3.95777 7.01496 1.84903 0.5
259 11.0613 2.9518 10.1363 0.5
260 9.93226 9.67063 12.4849 0.5
261 6.22236 7.09722 4.08425 0.5
262 2.69429 12.5027 7.4383 0.5
263 3.3514 9.61029 1.15841 0.5
264 1.82556 5.77151 10.8667 0.5
265 8.73804 9.13856 0.717228 0.5
266 12.6327 2.06601 8.9148 0.5
267 3.08794 1.81429 10.739 0.5
268 4.65722 2.33651 7.94497 0.5
269 11.2767 4.69852 4.23092 0.5
270 6.22683 5.21818 7.34264 0.5
271 10.032 8.82375 5.13478 0.5
272 3.00407 13.2097 9.6494 0.5
273 9.14731 11.8138 13.2647 0.5
274 12.6817 11.9899 2.37824 0.5
275 3.56525 1.04042 2.21182 0.5
276 2.35236 6.06135 6.16875 0.5
277 7.6556 8.38879 6.35553 0.5
278 2.60139 10.7937 9.73438 0.5
279 12.2189 2.46387 8.98443 0.5
280 7.17054 10.5863 1.23775 0.5
281 3.48287 11.6054 11.8917 0.5
282 13.3257 10.2437 8.09719 0.5
283 10.7565 8.35957 12.2853 0.5
284 0.14878 12.3753 1.64387 0.5
285 1.22424 8.87941 5.68265 0.5
286 2.64989 7.17083 2.12722 0.5
287 7.66761 11.3004 2.16381 0.5
288 8.22175 2.76359 10.1839 0.5
289 4.13912 12.7668 13.5644 0.5
290 13.4167 3.68878 6.6095 0.5
291 7.27103 3.9734 9.65616 0.5
292 9.42105 3.18796 11.2081 0.5
293 5.01125 7.36173 11.3277 0.5
294 2.72369 3.6295 11.4196 0.5
295 10.0574 6.71902 2.51725 0.5
296 10.2587 0.735324 3.68221 0.5
297 9.52723 8.05026 0.881485 0.5
298 12.6463 8.15267 11.2549 0.5
299 1.84744 13.4053 11.9367 0.5
300 10.6285 6.27986 5.54365 0.5
301 1.47535 7.11175 2.64261 0.5
302 1.40328 3.13679 9.95468 0.5
303 9.82276 7.49761 7.4035 0.5
304 3.22492 6.89036 7.17059 0.5
305 7.60362 1.16634 0.750846 0.5
306 10.0744 4.61422 5.90834 0.5
307 7.6597 2.4903 8.66546 0.5
308 0.599015 0.156304 1.05839 0.5
309 9.79152 5.18757 1.12516 0.5
310 8.72196 5.50071 2.58103 0.5
311 4.26444 6.07836 12.7549 0.5
312 3.13103 4.59432 12.3738 0.5
313 8.18814 8.40383 5.65762 0.5
314 1.58608 5.02052 0.505755 0.5
315 11.0409 4.09949 8.21621 0.5
316 7.77985 7.25593 9.77154 0.5
317 1.22225 4.04798 2.2415 0.5
318 8.57643 5.62536 0.931239 0.5
319 1.82748 12.5763 6.87607 0.5
320 4.91179 9.246 12.4298 0.5
321 10.0416 6.6445 9.60193 0.5
322 11.492 5.51835 2.57228 0.5
323 5.05247 0.103982 11.3238 0.5
324 0.581601 2.59297 4.08091 0.5
325 4.37435 2.96725 13.0117 0.5
326 7.3543 10.8588 10.8717 0.5
327 2.58607 5.87263 11.1915 0.5
328 7.22302 12.4685 7.59722 0.5
329 5.78192 0.146138 2.72165 0.5
330 12.3928 11.9551 1.36215 0.5
331 3.81796 5.57323 11.2916 0.5
332 6.47582 12.5701 1.21214 0.5
333 11.9288 5.96001 3.88949 0.5
334 1.40151 11.6216 13.1162 0.5
335 12.9668 7.45302 4.46887 0.5
336 1.63195 0.722671 12.4422 0.5
337 3.93274 2.42172 7.14423 0.5
338 6.88728 6.68685 5.48822 0.5
339 9.39266 2.87487 13.0281 0.5
340 1.27314 0.714561 3.93769 0.5
341 3.41501 7.29681 9.50318 0.5
342 7.33641 6.36536 4.42174 0.5
343 5.15381 8.28089 0.370059 0.5
344 11.264 6.59189 6.8964 0.5
345 11.1258 8.9621 6.26006 0.5
346 1.21915 4.4337 5.93169 0.5
347 3.5847 0.633744 13.1856 0.5
348 11.9605 3.46299 11.7456 0.5
349 9.3081 0.878427 2.13968 0.5
350 12.2788 12.4417 12.6101 0.5
351 2.95832 5.66064 11.2478 0.5
352 5.84595 8.66205 2.43486 0.5
353 8.36857 12.8625 2.50917 0.5
354 6.33754 7.4301 11.4532 0.5
355 3.68954 2.16378 1.50096 0.5
356 10.2314 1.55893 11.6199 0.5
357 2.75663 9.61451 13.1409 0.5
358 12.6271 1.81422 8.22166 0.5
359 6.6128 5.98266 11.9566 0.5
360 2.48578 9.81911 10.659 0.5
361 13.4035 4.92082 10.5731 0.5
362 2.01462 2.23407 3.05533 0.5
363 10.1258 7.75523 3.7337 0.5
364 9.54973 10.407 11.7629 0.5
365 2.34198 3.86337 1.18438 0.5
366 10.0703 12.356 12.2278 0.5
367 11.0146 4.96658 3.85118 0.5
368 10.2897 12.8553 3.81856 0.5
369 10.9466 8.66899 1.96813 0.5
370 8.77434 11.7649 4.66492 0.5
371 12.2305 8.1501 13.0087 0.5
372 3.5841 4.49325 2.86346 0.5
373 8.42042 6.17836 9.56061 0.5
374 2.51932 8.24874 9.81017 0.5
375 1.5873 11.1332 7.08091 0.5
376 2.97989 10.9647 5.7214 0.5
377 10.8424 1.16373 2.25316 0.5
378 2.63235 13.2828 12.6948 0.5
379 6.75727 7.9434 3.81617 0.5
380 12.6013 5.12047 7.27141 0.5
381 5.85446 7.85752 5.22518 0.5
382 12.2783 9.16258 2.44379 0.5
383 5.43912 4.409 6.01525 0.5
384 10.1436 7.5042 13.4664 0.5
385 6.48415 7.52497 1.14557 0.5
386 11.5192 7.92061 4.85471 0.5
387 12.9898 5.67703 2.09203 0.5
388 0.450769 8.23365 4.14623 0.5
389 10.5279 7.35524 12.0555 0.5
390 9.0586 5.33504 13.0649 0.5
391 9.71826 1.54487 11.8651 0.5
392 12.6012 4.96854 0.234517 0.5
393 1.38736 10.9272 5.9954 0.5
394 8.78986 12.6988 9.30806 0.5
395 13.3115 2.70807 3.60192 0.5
396 12.1168 6.81351 4.20367 0.5
397 3.97032 9.00685 10.5788 0.5
398 6.30736 8.48762 5.29209 0.5
399 10.3327 7.10471 8.29611 0.5
400 3.67337 12.0917 6.23151 0.5
401 1.04978 0.0449453 13.1107 0.5
402 4.49258 8.41233 13.1049 0.5
403 6.3618 1.98892 8.10015 0.5
404 5.776 6.53527 10.8668 0.5
405 6.99185 3.73069 5.89554 0.5
406 1.29021 11.5689 11.721 0.5
407 0.99301 10.544 1.92258 0.5
408 6.26675 6.40948 3.27974 0.5
409 2.54819 2.82465 8.05825 0.5
410 5.7657 5.66579 0.38988 0.5
411 2.07939 6.38097 10.467 0.5
412 12.69 11.4147 13.3774 0.5
413 6.36965 1.15667 10.3858 0.5
414 12.1305 6.38467 0.335065 0.5
415 2.37605 8.36372 8.16785 0.5
416 2.67112 1.60448 12.4541 0.5
417 1.09844 11.5821 5.10289 0.5
418 11.972 3.78358 10.4251 0.5
419 3.37638 0.715128 5.54862 0.5
420 3.99041 2.78818 1.88247 0.5
421 8.90555 6.37105 11.8703 0.5
422 8.6006 12.5407 6.90903 0.5
423 13.1118 13.3208 12.9689 0.5
424 3.77794 1.80116 12.7588 0.5
425 6.66579 1.7512 11.6906 0.5
426 13.4556 1.5698 12.2393 0.5
427 4.83742 11.7647 12.1337 0.5
428 1.4391 8.05753 2.91868 0.5
429 6.47812 13.2457 12.4547 0.5
430 11.5139 3.66174 0.0542486 0.5
431 3.53007 2.7987 4.00115 0.5
432 2.45847 12.9704 5.11153 0.5
433 8.65637 8.05612 12.5169 0.5
434 7.72106 8.66917 12.5613 0.5
435 5.96622 3.52443 10.1493 0.5
436 9.78835 10.2641 9.58877 0.5
437 1.80959 11.621 6.87571 0.5
438 4.03013 4.28814 4.82454 0.5
439 10.8982 2.52326 6.82421 0.5
440 0.514142 11.6023 10.3668 0.5
441 3.50461 1.1977 2.29278 0.5
442 11.7772 3.11526 6.569 0.5
443 4.53156 12.5082 7.67101 0.5
444 8.3703 2.17235 9.40075 0.5
445 0.211292 10.0869 0.845555 0.5
446 13.472 3.02027 5.38366 0.5
447 0.179205 2.64859 10.0866 0.5
448 1.28676 0.859967 12.6066 0.5
449 3.3875 10.0596 5.18273 0.5
450 1.48975 8.60037 3.13623 0.5
451 0.138171 10.9309 13.5078 0.5
452 3.15929 11.8514 12.5361 0.5
453 7.39268 11.2972 2.74251 0.5
454 7.4315 10.67 4.07734 0.5
455 1.59289 3.70243 0.399165 0.5
456 13.0048 13.5069 8.45457 0.5
457 1.08175 10.8354 12.8614 0.5
458 11.0156 13.1568 7.34699 0.5
459 2.77556 3.78464 13.0955 0.5
460 0.0822276 7.19287 11.9102 0.5
461 11.5448 2.77504 0.0994494 0.5
462 3.45157 2.92504 0.144802 0.5
463 2.95801 2.48005 10.7892 0.5
464 11.6049 10.5109 3.70244 0.5
465 10.2213 0.46345 2.23761 0.5
466 11.3159 7.12305 6.11571 0.5
467 2.35913 4.46446 6.97734 0.5
468 2.92044 11.8145 7.85566 0.5
469 4.12875 4.88325 0.951811 0.5
470 11.4441 2.23713 4.52949 0.5
471 0.492968 7.17102 4.00893 0.5
472 3.43957 1.973 7.36689 0.5
473 10.7121 5.12749 9.72568 0.5
474 12.4253 6.7687 11.9816 0.5
475 2.69997 12.5523 10.1717 0.5
476 10.0882 0.483328 6.46958 0.5
477 10.9573 1.67078 7.28864 0.5
478 2.6798 6.87854 0.42979 0.5
479 4.00764 6.72927 12.5829 0.5
480 6.75798 13.0209 0.533837 0.5
481 2.46824 3.60477 7.57071 0.5
482 8.73531 2.54377 0.646881 0.5
483 2.00956 11.5225 6.17938 0.5
484 10.483 12.0326 12.8808 0.5
485 9.51495 3.31862 9.74436 0.5
486 7.20607 12.5936 11.1887 0.5
487 12.8026 12.8972 10.7902 0.5
488 5.30831 9.67359 11.0008 0.5
489 3.02019 1.00343 8.66809 0.5
490 13.2505 10.1594 7.23002 0.5
491 5.78414 9.56684 1.86158 0.5
492 12.724 5.24642 5.57461 0.5
493 11.4308 0.187225 2.72717 0.5
494 7.19599 13.1652 7.89025 0.5
495 3.12345 11.8978 7.47754 0.5
496 10.1335 2.91491 1.13745 0.5
497 5.68922 4.73138 3.79961 0.5
498 13.1123 12.4537 11.4267 0.5
499 10.7513 1.11024 8.99663 0.5
500 9.32768 10.2365 11.9491 0.5
501 4.2527 11.7245 4.59278 0.5
502 11.3682 7.16916 10.3169 0.5
503 1.41587 5.66733 10.7833 0.5
504 4.0038 6.68104 2.78486 0.5
505 3.78606 11.9636 11.0029 0.5
506 1.79801 5.5505 1.90919 0.5
507 7.99549 6.92234 10.733 0.5
508 1.314 1.84911 4.93547 0.5
509 2.69415 0.425381 4.89058 0.5
510 12.7508 12.7553 6.98935 0.5
511 3.10097 8.36097 1.50773 0.5
512 6.55543 5.36685 9.21264 0.5
513 3.87104 2.49065 5.57313 0.5
514 10.0849 5.31832 1.82873 0.5
515 2.99063 0.834574 5.60683 0.5
516 3.63944 0.365263 7.88204 0.5
517 1.28483 6.85303 3.04957 0.5
518 4.21946 7.8531 3.45977 0.5
519 2.04814 7.3609 7.09037 0.5
520 0.135138 8.44971 4.74707 0.5
521 8.49481 1.82949 4.44923 0.5
522 11.5608 11.8309 10.7069 0.5
523 11.4954 7.29774 1.66261 0.5
524 3.02692 0.609061 7.52915 0.5
525 7.09024 9.46716 11.5172 0.5
526 6.38564 6.3394 13.4788 0.5
527 6.45172 1.42027 1.71674 0.5
528 5.45941 0.123177 3.689 0.5
529 10.4484 3.14924 11.6335 0.5
530 9.65189 9.39141 10.8345 0.5
531 7.9447 4.88883 10.6417 0.5
532 5.2403 4.28759 1.10183 0.5
533 1.84161 13.419 12.3788 0.5
534 10.6034 9.53248 9.77835 0.5
535 12.9123 7.98607 1.89917 0.5
536 1.36272 8.25757 7.57201 0.5
537 12.4976 10.5557 7.88105 0.5
538 1.87584 1.14118 11.2739 0.5
539 3.58266 6.81077 2.96509 0.5
540 1.1279 8.04646 8.70182 0.5
541 12.1721 5.78182 0.197286 0.5
542 8.0156 4.16424 11.5943 0.5
543 9.97662 7.43784 0.772669 0.5
544 7.33939 11.4174 12.3744 0.5
545 5.56101 2.15929 11.4522 0.5
546 7.58953 10.6053 3.55766 0.5
547 10.4197 6.76038 4.98456 0.5
548 1.35401 9.76529 1.72867 0.5
549 3.78053 10.6852 5.70921 0.5
550 11.1247 7.74907 4.26523 0.5
551 2.20519 11.4689 1.1496 0.5
552 7.16939 0.586899 4.00519 0.5
553 10.4664 13.0411 7.40539 0.5
554 0.765207 0.321299 1.27652 0.5
555 13.4852 10.5938 12.59 0.5
556 8.31099 3.37214 1.18258 0.5
557 10.7633 0.875587 7.39145 0.5
558 9.5157 6.2926 1.51716 0.5
559 7.51661 6.18221 9.71876 0.5
560 6.21291 1.03666 3.80405 0.5
561 2.9873 7.87362 12.5968 0.5
562 0.287407 2.13971 1.64108 0.5
563 9.01874 10.6803 10.7566 0.5
564 1.42221 0.314269 3.04665 0.5
565 11.3868 5.08599 10.1282 0.5
566 7.82518 11.1885 1.31659 0.5
567 6.80093 6.85526 10.2008 0.5
568 12.3908 4.44279 10.7786 0.5
569 12.9231 9.04874 2.2539 0.5
570 12.6925 10.7123 5.2013 0.5
571 4.84039 2.59055 8.67156 0.5
572 7.95665 3.45566 3.40283 0.5
573 10.6971 6.34403 10.7026 0.5
574 11.2121 5.13604 0.389155 0.5
575 12.4507 2.14763 2.36252 0.5
576 4.50987 10.5198 9.22905 0.5
577 7.87175 13.4053 12.6912 0.5
578 7.18477 0.330856 7.3691 0.5
579 10.8927 1.07181 3.07889 0.5
580 9.13196 0.409924 10.8119 0.5
581 10.6299 1.24613 7.78845 0.5
582 1.00771 12.7353 11.8185 0.5
583 7.04872 7.34885 2.43238 0.5
584 3.15018 1.23663 11.3015 0.5
585 3.66728 11.6714 9.29471 0.5
586 11.1554 9.66947 13.4669 0.5
587 4.88367 0.863945 7.6116 0.5
588 0.108029 11.5421 0.277672 0.5
589 1.57614 8.82099 9.11804 0.5
590 13.2372 7.36452 5.08953 0.5
591 6.12442 13.2828 3.54931 0.5
592 12.5852 3.16423 3.54389 0.5
593 13.4846 6.29418 4.03173 0.5
594 2.50147 3.1445 13.501 0.5
595 0.363016 0.310917 9.76652 0.5
596 10.6513 3.31611 11.1202 0.5
597 7.8183 8.08673 5.32735 0.5
598 11.5857 0.316538 0.870394 0.5
599 0.286122 5.90204 6.51378 0.5
600 0.362137 7.53128 10.9037 0.5
601 7.6595 0.00588397 12.7516 0.5
602 2.91157 9.3527 5.73649 0.5
603 11.3502 6.53877 8.81116 0.5
604 6.87881 7.91029 12.5128 0.5
605 11.1352 11.5338 7.2775 0.5
606 3.4383 8.71423 5.33202 0.5
607 2.64531 8.11135 5.23856 0.5
608 6.4649 1.45544 4.84088 0.5
609 2.71731 10.2433 3.64668 0.5
610 3.63084 10.708 2.22167 0.5
611 7.42713 0.809389 9.30872 0.5
612 9.00338 9.39972 11.6065 0.5
613 6.08173 12.5765 7.08085 0.5
614 9.39968 8.86427 12.5217 0.5
615 12.8618 12.1221 8.20849 0.5
616 12.1392 13.3074 4.54932 0.5
617 8.26331 6.00032 2.35663 0.5
618 6.6139 8.86425 4.7233 0.5
619 8.46993 4.77942 13.2566 0.5
620 13.1411 7.57921 1.10143 0.5
621 1.07245 13.0017 13.5514 0.5
622 2.31308 2.39717 12.9068 0.5
623 7.85195 7.87582 6.85619 0.5
624 11.7063 7.5664 5.1504 0.5
625 1.82353 8.46104 10.9222 0.5
626 12.7769 4.25823 0.821697 0.5
627 9.4855 8.40787 9.31404 0.5
628 3.68265 5.97974 11.9999 0.5
629 4.53041 10.4723 8.15639 0.5
630 2.74368 2.88425 2.49904 0.5
631 6.79468 7.13842 3.0568 0.5
632 5.00523 9.69743 1.47484 0.5
633 7.28791 0.579604 4.91743 0.5
634 7.34846 9.67051 11.3814 0.5
635 11.5011 3.40867 2.526 0.5
636 8.0878 7.42581 9.44643 0.5
637 12.8353 4.4933 11.8245 0.5
638 1.79655 6.64742 3.96118 0.5
639 7.82367 8.50038 13.3805 0.5
640 4.33532 4.82417 5.15703 0.5
641 9.69506 7.05057 4.46333 0.5
642 11.1246 11.1827 11.7234 0.5
643 7.42666 12.7219 2.66598 0.5
644 0.213591 2.7355 10.8981 0.5
645 4.39045 3.29968 7.05029 0.5
646 3.44967 6.59768 3.69199 0.5
647 7.84311 0.595902 11.0556 0.5
648 5.2114 4.50531 1.88615 0.5
649 3.69446 13.5595 9.73188 0.5
650 2.37618 8.7006 1.49577 0.5
651 6.81292 13.0421 4.53238 0.5
652 6.45833 5.34596 3.25674 0.5
653 0.725036 6.16862 9.06886 0.5
654 7.04671 1.18602 6.28391 0.5
655 10.0868 0.76826 11.1249 0.5
656 4.25439 10.7527 5.4489 0.5
657 9.35689 5.35985 1.26149 0.5
658 0.111825 10.854 1.63432 0.5
659 9.8153 5.71359 3.56257 0.5
660 10.2409 10.591 7.13272 0.5
661 6.75313 9.24853 7.4074 0.5
662 12.44 6.43369 1.50468 0.5
663 1.43229 0.850846 2.39311 0.5
664 0.447916 8.32663 9.39218 0.5
665 11.6163 13.2286 5.36303 0.5
666 4.95499 12.2674 10.8168 0.5
667 8.15705 8.6069 8.58946 0.5
668 9.88013 9.36215 9.42876 0.5
669 8.70346 13.4802 8.74854 0.5
670 13.5438 1.26103 3.21749 0.5
671 2.85736 13.3114 5.23886 0.5
672 8.67669 10.6436 10.0754 0.5
673 10.7358 9.44473 7.89017 0.5
674 4.79654 11.7461 13.123 0.5
675 7.91095 11.9748 10.4833 0.5
676 2.16181 6.72507 8.15142 0.5
677 1.40007 0.691012 7.17943 0.5
678 10.0195 5.63548 8.72238 0.5
679 4.49613 10.6418 11.9937 0.5
680 8.25097 3.14554 5.0228 0.5
681 7.53723 3.33544 13.0985 0.5
682 2.30003 1.66054 2.48463 0.5
683 1.53462 10.3524 1.47697 0.5
684 11.5825 9.46874 2.92742 0.5
685 8.8347 13.0621 11.7588 0.5
686 7.61551 1.11144 3.58502 0.5
687 8.68336 2.66414 8.1739 0.5
688 5.73974 7.70816 3.54609 0.5
689 11.5362 8.76226 11.0069 0.5
690 7.35795 13.1168 7.91646 0.5
691 2.45352 3.26547 1.44493 0.5
692 5.04196 0.871866 0.295523 0.5
693 0.00453776 8.58946 8.23921 0.5
694 9.39556 0.287203 7.03326 0.5
695 9.72845 6.25592 5.45694 0.5
696 2.12354 1.50715 1.30346 0.5
697 11.4635 9.70478 1.686 0.5
698 10.4573 11.0995 8.51103 0.5
699 1.78165 12.1724 3.30021 0.5
700 0.384006 8.4218 3.92677 0.5
701 9.23568 10.6318 7.05143 0.5
702 6.54799 1.03302 11.5741 0.5
703 6.2285 5.73828 6.37139 0.5
704 13.0026 12.3181 0.226756 0.5
705 8.36578 8.51369 0.565512 0.5
706 6.54019 8.01639 6.09392 0.5
707 2.55503 0.752884 7.04241 0.5
708 12.3053 5.60496 3.23088 0.5
709 2.4989 2.90237 10.7112 0.5
710 7.18298 9.15085 0.42418 0.5
711 13.3123 1.81675 1.21384 0.5
712 12.7599 8.03535 4.90163 0.5
713 6.40246 12.7075 5.94387 0.5
714 1.44829 3.08505 11.7111 0.5
715 1.97497 9.16181 12.7991 0.5
716 6.30513 12.5225 10.6397 0.5
717 1.76749 12.4413 10.3588 0.5
718 4.62368 7.42032 8.42113 0.5
719 8.51831 10.8321 6.87802 0.5
720 5.01429 11.4794 3.36428 0.5
721 13.0468 0.239268 11.8586 0.5
722 6.937 3.55051 6.66468 0.5
723 4.57451 7.04606 11.598 0.5
724 8.07158 12.6622 1.97423 0.5
725 6.04709 1.78677 1.55844 0.5
726 0.580778 5.78425 12.3295 0.5
727 7.25637 1.46098 2.7894 0.5
728 6.20567 0.259213 7.06766 0.5
729 5.82257 10.3138 2.6749 0.5
730 5.1028 12.5858 10.1318 0.5
731 12.282 0.238154 5.40367 0.5
732 3.24581 6.52827 5.46365 0.5
733 6.77232 0.515678 11.8052 0.5
734 2.54535 8.53707 5.85873 0.5
735 0.0145709 11.5128 0.284105 0.5
736 10.4521 1.8733 11.8289 0.5
737 7.51099 12.9378 9.31609 0.5
738 2.57434 13.5206 0.775981 0.5
739 3.78798 0.104572 10.2679 0.5
740 13.5573 11.6626 8.74671 0.5
741 0.284418 9.62479 2.16155 0.5
742 6.4242 6.90872 3.49775 0.5
743 4.84991 4.51134 3.14767 0.5
744 10.2913 6.49044 1.37737 0.5
745 11.6276 12.2312 0.151686 0.5
746 12.3707 12.5132 7.13449 0.5
747 13.1165 1.08803 10.3116 0.5
748 13.328 4.99411 12.4109 0.5
749 4.02633 7.05011 2.48953 0.5
750 2.03421 13.0323 1.42072 0.5
751 8.86136 12.3429 0.278798 0.5
752 10.4597 6.83503 13.092 0.5
753 8.33215 0.589608 12.4146 0.5
754 9.10395 6.91752 5.85143 0.5
755 2.1819 0.925265 0.0800835 0.5
756 2.56693 1.72782 9.23778 0.5
757 13.109 12.5353 10.0312 0.5
758 10.0016 0.190175 6.58615 0.5
759 9.32969 7.936 8.87153 0.5
760 6.08169 6.47895 7.55502 0.5
761 1.57511 8.46697 9.43126 0.5
762 2.54471 7.93293 7.67549 0.5
763 11.4302 10.4032 3.679 0.5
764 3.9927 0.856611 5.01988 0.5
765 13.2997 11.3048 1.63147 0.5
766 3.41764 5.70583 6.64833 0.5
767 5.90232 5.65006 2.99118 0.5
768 12.0195 3.1718 11.1799 0.5
769 1.5161 4.28473 0.243916 0.5
770 1.91337 9.57519 6.1958 0.5
771 5.65665 1.22758 7.91893 0.5
772 0.696593 3.28822 6.80552 0.5
773 1.82929 0.067318 4.77007 0.5
774 11.6274 1.93118 1.52847 0.5
775 6.11019 3.59214 13.0868 0.5
776 0.246596 9.96719 11.4848 0.5
777 6.81184 12.4664 2.10993 0.5
778 12.9868 4.2414 2.89467 0.5
779 6.4671 9.39633 12.5075 0.5
780 4.50886 4.4023 7.03043 0.5
781 13.4711 7.68853 5.39613 0.5
782 11.8459 10.0066 12.2451 0.5
783 9.36809 10.5399 11.0015 0.5
784 12.866 0.346131 13.2429 0.5
785 11.2364 12.7305 5.63346 0.5
786 11.2544 3.35508 5.53381 0.5
787 9.781 1.44794 5.14967 0.5
788 8.03749 3.5875 1.12843 0.5
789 8.4334 2.75172 10.4248 0.5
790 6.47984 12.4911 2.97607 0.5
791 7.38149 4.91076 8.92821 0.5
792 5.67313 7.95905 9.17008 0.5
793 8.24849 2.38882 5.83286 0.5
794 6.23147 5.61103 0.52926 0.5
795 1.72518 10.4674 1.06544 0.5
796 6.9662 7.84695 6.43383 0.5
797 4.26153 0.940305 2.53946 0.5
798 10.9827 2.09783 3.23682 0.5
799 0.259609 6.19474 9.25146 0.5
800 8.48301 4.89975 2.34688 0.5
801 3.58564 5.97974 3.17114 0.5
802 2.04532 11.6929 7.87688 0.5
803 5.67195 11.8404 1.04501 0.5
804 2.06684 11.2327 6.50691 0.5
805 9.60314 4.9245 1.04799 0.5
806 4.72732 1.23601 0.404756 0.5
807 4.90525 9.60805 9.60159 0.5
808 3.66366 8.74358 6.49285 0.5
809 11.6666 5.58031 7.84917 0.5
810 3.37169 1.09429 3.16046 0.5
811 9.95265 8.8039 4.0644 0.5
812 1.65131 2.52528 2.17791 0.5
813 6.23458 8.15212 1.92812 0.5
814 8.86971 12.1093 12.3599 0.5
815 10.5955 0.440068 13.2117 0.5
816 2.7281 12.8753 4.35877 0.5
817 1.34494 12.6502 2.51593 0.5
818 6.80574 2.4144 5.1399 0.5
819 7.2002 11.0269 9.09052 0.5
820 13.2414 10.817 7.65497 0.5
821 0.672313 8.79093 12.1965 0.5
822 6.28819 6.47529 4.87233 0.5
823 3.59551 7.53183 6.5088 0.5
824 12.7248 6.9799 5.91775 0.5
825 10.619 5.68902 13.4164 0.5
826 4.44024 4.0396 0.595269 0.5
827 12.3009 11.8877 2.90226 0.5
828 5.19701 3.68877 2.50436 0.5
829 4.84251 4.35083 7.29062 0.5
830 7.28661 3.51129 6.92294 0.5
831 7.02205 0.765075 4.60148 0.5
832 4.1379 5.45616 0.201382 0.5
833 11.3748 10.9753 7.86542 0.5
834 10.6867 11.8729 1.77705 0.5
835 12.5605 -0.00477429 1.40181 0.5
836 5.31013 4.20755 12.5529 0.5
837 7.46508 10.2652 11.542 0.5
838 9.57418 6.83985 12.9303 0.5
839 2.39249 5.70191 5.18762 0.5
840 11.5076 0.470421 7.51092 0.5
841 8.49601 0.643377 6.71918 0.5
842 1.16764 9.33055 8.66753 0.5
843 13.3621 1.02301 10.349 0.5
844 7.15352 3.30535 6.4382 0.5
845 7.44518 12.9942 10.6507 0.5
846 9.57376 11.8513 13.2463 0.5
847 3.90369 8.19942 4.34551 0.5
848 2.87059 5.94607 8.72629 0.5
849 6.09999 8.04677 4.3845 0.5
850 5.25033 3.93928 10.1717 0.5
851 12.8843 10.4643 8.72128 0.5
852 8.72148 2.80805 4.28862 0.5
853 2.34521 1.24969 5.02138 0.5
854 13.5342 4.92734 10.6762 0.5
855 4.85506 11.3205 3.69267 0.5
856 1.96295 9.74541 0.484519 0.5
857 7.8163 11.846 10.9315 0.5
858 1.70268 6.4196 13.4271 0.5
859 13.0685 4.58803 3.01871 0.5
860 6.76702 2.10739 7.85212 0.5
861 11.6096 0.704678 9.74104 0.5
862 3.11256 2.97894 11.373 0.5
863 9.70992 6.16181 3.24224 0.5
864 6.65463 8.19234 8.19413 0.5
865 9.3277 5.47312 4.7736 0.5
866 8.5088 10.3032 4.20836 0.5
867 4.46062 5.66307 11.6412 0.5
868 2.07214 7.0614 4.93385 0.5
869 7.51514 10.277 12.4159 0.5
870 5.31918 11.3055 4.32838 0.5
871 11.8116 5.96946 6.99696 0.5
872 3.04508 2.43161 13.0208 0.5
873 12.7015 13.1521 0.68625 0.5
874 8.23821 4.87483 8.83448 0.5
875 8.13358 10.285 6.2334 0.5
876 7.13507 5.74291 6.99655 0.5
877 12.13 7.11527 3.53277 0.5
878 9.51053 5.01812 9.05839 0.5
879 0.390432 0.511625 9.01065 0.5
880 1.12687 11.2853 4.67689 0.5
881 0.105193 6.20432 7.86169 0.5
882 12.5197 6.16056 4.71946 0.5
883 1.01419 12.4744 3.07249 0.5
884 8.8592 7.1842 13.5701 0.5
885 9.66253 13.0048 9.7793 0.5
886 0.378025 6.36684 9.17436 0.5
887 3.84227 1.24174 12.4074 0.5
888 10.1511 1.46499 10.5074 0.5
889 1.61732 3.41764 10.0448 0.5
890 12.0058 5.43767 7.13496 0.5
891 2.57107 4.68895 7.50204 0.5
892 5.67819 5.02584 6.44319 0.5
893 1.41593 12.9724 7.09506 0.5
894 7.00289 10.9386 8.71828 0.5
895 1.82602 0.432027 0.538166 0.5
896 6.65449 10.096 12.2257 0.5
897 8.16335 1.89171 11.6497 0.5
898 7.39436 13.072 1.55729 0.5
899 6.02216 5.47057 8.8412 0.5
900 13.529 1.96196 8.1241 0.5
901 3.69372 5.70036 0.20323 0.5
902 0.415039 9.31638 12.9618 0.5
903 5.67292 11.0551 3.90973 0.5
904 1.61541 0.452557 0.307128 0.5
905 12.6918 8.61733 5.96739 0.5
906 8.02227 10.9545 13.1471 0.5
907 7.72956 7.66933 12.0367 0.5
908 3.24416 10.2691 4.46366 0.5
909 13.2803 4.46716 2.44468 0.5
910 0.243538 6.57311 5.12423 0.5
911 8.18013 8.95722 10.0559 0.5
912 0.390333 10.8182 13.3038 0.5
913 1.00427 1.89027 8.41295 0.5
914 8.8933 12.1213 0.342051 0.5
915 3.76183 4.88502 11.5622 0.5
916 1.06268 7.40109 3.84956 0.5
917 2.89982 7.29343 10.4283 0.5
918 4.01337 11.0819 3.68009 0.5
919 4.74718 6.27911 0.273278 0.5
920 4.87406 7.67656 1.28025 0.5
921 8.60907 11.5494 1.63873 0.5
922 9.755 5.68723 12.9863 0.5
923 2.74487 6.19384 8.54458 0.5
924 6.99288 3.49355 6.72787 0.5
925 2.7541 1.49097 6.15466 0.5
926 6.12564 12.0421 11.269 0.5
927 1.57452 12.7511 11.7382 0.5
928 10.0801 1.29737 5.84389 0.5
929 12.379 5.27125 4.33658 0.5
930 10.9622 1.08925 7.39229 0.5
931 11.3077 5.4713 8.5309 0.5
932 5.01038 11.3066 6.64256 0.5
933 0.695598 10.4454 6.43737 0.5