ITEM: TIMESTEP
450000
ITEM: NUMBER OF ATOMS
1000
ITEM: BOX BOUNDS xy xz yz pp pp pp
0.0000000000000000e+00 1.3572088000000001e+01 0.0000000000000000e+00
0.0000000000000000e+00 1.3572088000000001e+01 0.0000000000000000e+00
0.0000000000000000e+00 1.3572088000000001e+01 0.0000000000000000e+00
ITEM: ATOMS id x y z radius
1 5.93287 9.78277 3.97084 0.5
2 12.8837 5.64211 4.49698 0.5
3 8.1178 1.73771 10.5142 0.5
4 6.59266 4.84608 7.171 0.5
5 1.65334 6.72737 6.23476 0.5
6 4.34575 0.97233 0.359855 0.5
7 0.0548602 8.72923 12.8389 0.5
8 1.52494 4.9756 10.3703 0.5
9 5.75244 8.71567 1.84965 0.5
10 6.83829 7.78913 8.97871 0.5
11 4.87938 13.2672 12.48 0.5
12 5.88523 7.39169 6.324 0.5
13 4.94491 7.56147 12.2801 0.5
14 6.38131 11.5552 0.878576 0.5
15 12.787 11.662 0.0884792 0.5
16 3.87999 2.42465 4.43336 0.5
17 7.66454 12.1762 8.81048 0.5
18 7.79111 5.56765 4.98826 0.5
19 2.55065 4.49563 0.733975 0.5
20 12.4279 3.36241 11.1386 0.5
21 10.6356 6.82457 10.4214 0.5
22 3.86961 8.84606 7.71485 0.5
23 10.7617 7.90569 1.34548 0.5
24 8.24295 1.33031 12.2605 0.5
25 0.683335 9.12736 0.546152 0.5
26 7.46019 0.398158 6.37377 0.5
27 7.70062 9.85673 10.3397 0.5
28 1.69683 0.584364 1.66169 0.5
29 1.53331 11.6453 2.89038 0.5
30 6.35085 12.7766 1.98734 0.5
31 8.36208 2.03639 6.95456 0.5
32 6.33971 4.91881 12.8798 0.5
33 6.07198 9.61203 11.7071 0.5
34 9.22363 4.06036 13.4561 0.5
35 10.5858 4.59662 3.92712 0.5
36 0.19271 5.04793 8.70001 0.5
37 2.74407 13.4392 8.01039 0.5
38 0.120863 2.3166 9.29611 0.5
39 4.90108 3.24368 10.0613 0.5
40 5.63034 7.3851 12.7498 0.5
41 3.53088 2.96743 10.8778 0.5
42 4.35735 10.4979 10.8726 0.5
43 6.92393 4.62298 9.34883 0.5
44 11.9401 13.4122 11.4155 0.5
45 11.3902 12.9155 0.915669 0.5
46 0.5077 12.5558 6.73664 0.5
47 11.8484 6.57372 3.65679 0.5
48 11.5128 1.47423 6.49291 0.5
49 3.24887 6.35858 1.3665 0.5
50 0.317881 0.0259774 2.71548 0.5
51 5.00505 9.98664 0.435938 0.5
52 10.4184 1.34346 11.9113 0.5
53 0.508847 3.80476 8.77941 0.5
54 10.8835 1.88336 5.13371 0.5
55 3.1763 7.19731 1.01375 0.5
56 8.70747 8.70554 7.8434 0.5
57 3.87584 0.409409 5.80003 0.5
58 5.32721 8.72983 5.14859 0.5
59 5.4491 1.52449 9.83909 0.5
60 11.4192 5.27051 10.9381 0.5
61 1.03823 12.3203 11.8578 0.5
62 1.12783 6.246 5.03435 0.5
63 11.2504 2.28934 4.62717 0.5
64 7.61314 5.8308 3.75734 0.5
65 0.0315347 9.87088 11.037 0.5
66 8.03235 12.4233 8.72597 0.5
67 9.44535 12.8619 10.4302 0.5
68 13.3417 0.195187 6.1873 0.5
69 10.2146 3.53371 8.79078 0.5
70 9.83847 0.14437 13.4933 0.5
71 3.12206 0.568617 9.49367 0.5
72 0.245376 0.868474 4.20217 0.5
73 0.543071 8.15527 5.44002 0.5
74 6.73515 13.2316 6.72561 0.5
75 0.593696 13.4353 8.78532 0.5
76 6.67318 7.25526 12.6422 0.5
77 3.25675 13.1847 2.23897 0.5
78 12.74 2.45239 10.8311 0.5
79 10.6376 8.33046 9.52834 0.5
80 6.99459 7.92068 1.48763 0.5
81 1.16436 5.45209 9.1638 0.5
82 10.0095 6.61524 8.51088 0.5
83 9.64071 5.14747 2.61558 0.5
84 10.0556 2.68032 0.787006 0.5
85 3.19588 11.6478 1.48712 0.5
86 10.4819 5.68227 8.19218 0.5
87 7.3072 10.5053 5.56424 0.5
88 8.45834 13.0158 1.42178 0.5
89 1.74988 4.54777 9.93587 0.5
90 2.11507 3.77513 12.0758 0.5
91 8.49285 13.0727 12.2629 0.5
92 3.64239 12.8678 8.18131 0.5
93 2.77992 12.1645 12.7958 0.5
94 1.94095 7.76561 0.699191 0.5
95 0.909949 9.09085 12.1338 0.5
96 8.1006 0.994767 2.98087 0.5
97 9.18956 4.79005 12.3549 0.5
98 3.39002 9.17879 6.3139 0.5
99 1.08951 12.1786 2.80977 0.5
100 9.27179 11.5806 9.54661 0.5
101 1.51155 6.63304 2.0458 0.5
102 9.54625 1.89643 8.81154 0.5
103 2.60713 3.29175 5.81874 0.5
104 9.37124 4.83116 12.2479 0.5
105 4.94453 7.25543 6.85123 0.5
106 9.20687 8.5864 6.86993 0.5
107 1.20133 5.75701 2.6426 0.5
108 4.05483 2.29696 6.87242 0.5
109 0.00519758 8.52054 4.19715 0.5
110 8.79205 10.5905 6.2877 0.5
111 4.31105 0.152117 8.94887 0.5
112 13.2797 3.14822 8.43097 0.5
113 10.8431 5.23214 2.37119 0.5
114 6.34746 7.10172 6.99888 0.5
115 0.361944 7.7594 8.42104 0.5
116 8.70767 7.28556 12.2847 0.5
117 7.01759 1.65625 12.0228 0.5
118 12.9284 2.09142 5.61098 0.5
119 7.24839 11.5117 2.58708 0.5
120 0.0737047 3.56384 2.24326 0.5
121 1.74147 6.13424 1.8721 0.5
122 3.4946 10.5234 6.09847 0.5
123 3.35165 8.74629 9.07732 0.5
124 3.66186 11.8203 3.96767 0.5
125 8.1106 7.10632 1.44386 0.5
126 3.33385 11.8341 3.1359 0.5
127 3.74451 5.23888 12.0267 0.5
128 0.125662 7.83893 1.77906 0.5
129 4.67722 4.89691 2.68628 0.5
130 1.25537 2.37622 11.3047 0.5
131 0.580669 6.63989 0.123737 0.5
132 9.57711 12.1891 10.5133 0.5
133 4.18371 10.6728 5.07569 0.5
134 6.70105 6.45346 7.97125 0.5
135 5.64003 13.3209 9.48812 0.5
136 12.1373 7.43268 1.13166 0.5
137 3.34368 11.5882 5.6986 0.5
138 12.5783 12.8802 7.25626 0.5
139 7.47843 9.56179 3.97497 0.5
140 5.28784 5.11158 6.74181 0.5
141 8.76697 6.99046 0.541478 0.5
142 0.729142 1.11483 10.0258 0.5
143 0.797204 4.60927 11.1493 0.5
144 7.5191 9.09902 12.6218 0.5
145 3.39102 4.39592 2.04356 0.5
146 6.6903 8.36466 2.09995 0.5
147 6.0698 0.574555 11.1312 0.5
148 12.7308 10.9775 13.1266 0.5
149 8.91356 10.839 5.96945 0.5
150 4.17441 10.5684 2.17968 0.5
151 3.75467 9.51146 13.3443 0.5
152 -0.00457364 9.48105 2.03206 0.5
153 8.69988 3.88144 11.9006 0.5
154 4.94984 1.73021 7.85494 0.5
155 2.60741 7.9742 11.529 0.5
156 5.9292 5.14315 12.2728 0.5
157 9.83811 6.9697 12.4853 0.5
158 4.40577 12.7906 1.00255 0.5
159 4.55291 12.3161 7.82636 0.5
160 13.1048 0.750561 1.40963 0.5
161 11.9013 11.8381 4.64783 0.5
162 2.05564 0.979637 9.85907 0.5
163 3.63722 10.1587 4.8852 0.5
164 1.13069 2.64908 9.55915 0.5
165 1.27176 12.5348 6.73639 0.5
166 9.26665 10.7061 7.85162 0.5
167 7.44884 1.7087 0.839006 0.5
168 12.4036 9.13459 6.43594 0.5
169 3.44848 7.2245 13.488 0.5
170 11.5597 12.1425 2.48106 0.5
171 2.43143 6.60151 11.705 0.5
172 3.20798 0.967553 4.39927 0.5
173 10.0027 11.0788 11.7294 0.5
174 3.11688 11.3203 4.61433 0.5
175 6.28317 2.41647 4.17742 0.5
176 8.55453 8.97929 11.7158 0.5
177 5.9471 13.3805 2.01787 0.5
178 10.8168 4.31167 4.69057 0.5
179 1.66105 11.8432 11.9492 0.5
180 3.28034 4.40425 1.92894 0.5
181 10.5961 9.73516 8.7656 0.5
182 2.14299 3.13075 0.751792 0.5
183 7.21063 12.1465 0.277097 0.5
184 8.67473 13.1386 11.1132 0.5
185 11.5588 1.4619 4.33613 0.5
186 1.10288 10.6129 4.3446 0.5
187 8.62857 5.3042 8.57949 0.5
188 3.56635 12.1211 13.4973 0.5
189 0.237915 3.45281 6.49247 0.5
190 4.099 1.97956 1.56276 0.5
191 7.80672 9.45941 4.59624 0.5
192 4.64161 8.08233 4.92112 0.5
193 1.98455 7.86441 3.27548 0.5
194 5.23622 0.413899 0.863266 0.5
195 5.61961 13.1806 10.6077 0.5
196 7.19433 6.01575 2.28235 0.5
197 7.23671 0.63289 13.0698 0.5
198 11.7482 5.68435 5.38146 0.5
199 12.4465 4.92953 1.35113 0.5
200 13.4738 3.52619 13.1874 0.5
201 10.0024 3.07673 9.4268 0.5
202 0.874164 9.49757 6.76957 0.5
203 7.64097 0.648858 6.55634 0.5
204 6.42157 11.2415 1.98748 0.5
205 3.72082 12.9413 10.2795 0.5
206 2.22636 3.56504 8.78807 0.5
207 3.92737 5.29434 3.45001 0.5
208 5.17331 2.58867 3.23089 0.5
209 12.5723 3.0487 11.6991 0.5
210 11.5322 7.73152 9.88573 0.5
211 11.8929 9.42739 7.95521 0.5
212 3.89873 7.65408 11.2584 0.5
213 4.607 1.00399 8.35823 0.5
214 7.45492 10.543 8.8301 0.5
215 1.19153 5.26978 6.83013 0.5
216 8.11816 1.52337 12.0935 0.5
217 4.41061 0.293319 6.23477 0.5
218 5.86795 1.62365 3.66797 0.5
219 10.0037 4.52296 3.49287 0.5
220 9.32053 3.92349 6.70722 0.5
221 6.70342 1.81678 10.1841 0.5
222 7.27009 12.1642 10.8078 0.5
223 5.9724 11.2721 9.27964 0.5
224 8.64817 13.3516 11.8982 0.5
225 11.2738 5.19191 6.63049 0.5
226 1.26843 5.08181 2.86158 0.5
227 1.45506 12.0675 4.57118 0.5
228 12.6476 9.37504 2.87161 0.5
229 5.76849 12.8342 9.12817 0.5
230 8.61775 3.15541 3.68219 0.5
231 3.49733 7.7117 1.27407 0.5
232 9.52072 13.0142 11.6818 0.5
233 9.28293 2.19485 11.7929 0.5
234 1.22262 6.97695 7.54176 0.5
235 2.90826 5.35102 11.7794 0.5
236 11.4298 7.5579 9.44131 0.5
237 10.3557 10.4624 9.91423 0.5
238 11.5051 8.09315 5.94937 0.5
239 1.72358 9.57381 10.2049 0.5
240 1.96117 3.55784 10.7281 0.5
241 13.1097 0.673447 0.0753221 0.5
242 11.2872 5.24177 7.28672 0.5
243 0.751826 2.92598 6.59877 0.5
244 2.44989 12.9621 8.77623 0.5
245 10.6088 5.89108 7.03605 0.5
246 12.6464 9.71508 10.3345 0.5
247 0.956558 11.8795 12.9704 0.5
248 0.208138 1.06059 2.43849 0.5
249 11.6726 1.43522 11.7402 0.5
250 12.7359 7.06485 9.27585 0.5
251 5.4775 3.61862 9.94037 0.5
252 5.20795 1.79977 10.121 0.5
253 1.03924 7.1947 7.75684 0.5
254 6.77209 4.44964 2.93271 0.5
255 10.9545 9.18103 13.4272 0.5
256 5.93947 12.8433 4.97353 0.5
257 11.2974 8.21304 8.32893 0.5
258 8.50601 1.50232 7.19431 0.5
259 10.4242 0.763957 5.7489 0.5
260 2.64279 11.7234 3.40589 0.5
261 3.44532 10.2386 12.8919 0.5
262 10.756 9.57985 2.8576 0.5
263 4.45622 4.43436 12.2556 0.5
264 7.38974 13.4908 4.21111 0.5
265 9.37591 10.7894 13.2398 0.5
266 1.75305 1.63956 4.79592 0.5
267 10.429 5.78135 6.32748 0.5
268 8.35368 13.2376 1.5882 0.5
269 4.31386 9.29126 12.8526 0.5
270 5.94083 8.59101 0.194654 0.5
271 8.74576 3.28392 5.55643 0.5
272 0.182717 2.77537 6.29915 0.5
273 5.01089 2.49165 8.21342 0.5
274 1.66502 8.75197 13.4881 0.5
275 5.32036 0.665603 11.1954 0.5
276 4.99892 0.881886 11.6679 0.5
277 3.37977 2.67683 11.0181 0.5
278 3.77505 7.80706 3.36273 0.5
279 8.60832 3.61957 6.6958 0.5
280 8.46822 8.31828 5.27091 0.5
281 3.33694 1.04934 11.0481 0.5
282 0.901026 11.0592 5.5168 0.5
283 10.1253 12.892 5.26704 0.5
284 6.00854 4.78523 10.5808 0.5
285 10.5536 13.18 3.49767 0.5
286 12.1592 13.1852 2.33179 0.5
287 10.4744 9.04448 7.26698 0.5
288 9.2477 12.3301 5.07237 0.5
289 12.6437 4.08317 5.94108 0.5
290 13.049 3.07214 6.22482 0.5
291 2.4617 3.3441 4.29781 0.5
292 11.9822 5.31333 7.57569 0.5
293 11.6693 4.7181 9.884 0.5
294 1.02901 6.1693 9.42327 0.5
295 6.30477 13.392 0.00306555 0.5
296 4.29674 1.08511 11.3264 0.5
297 3.86431 4.06406 2.00928 0.5
298 7.74373 3.87995 10.3013 0.5
299 10.9305 13.571 5.88087 0.5
300 13.477 13.0611 1.92537 0.5
301 1.03001 5.6252 4.55076 0.5
302 5.12047 7.33399 3.2006 0.5
303 1.97514 1.1584 8.48446 0.5
304 7.31257 7.94428 7.9258 0.5
305 3.10109 1.65936 7.20672 0.5
306 2.41141 10.6513 4.97679 0.5
307 3.11738 6.15883 1.60969 0.5
308 5.95043 10.365 0.0266256 0.5
309 2.1192 2.50286 13.112 0.5
310 4.18961 6.75863 10.8347 0.5
311 4.51962 3.48928 13.4461 0.5
312 12.6698 6.86077 9.1628 0.5
313 4.59303 5.45027 1.36532 0.5
314 5.73761 1.42546 7.06689 0.5
315 9.39534 2.81079 2.28936 0.5
316 2.91153 2.48202 12.1454 0.5
317 0.626291 8.1131 10.3124 0.5
318 1.72483 6.28397 8.78497 0.5
319 10.2764 4.00293 5.06197 0.5
320 10.4146 1.78599 2.21852 0.5
321 6.15464 3.28317 10.8464 0.5
322 2.27729 3.77083 9.34687 0.5
323 7.65388 1.54686 0.581102 0.5
324 5.68309 1.84492 6.73247 0.5
325 8.64215 7.67706 1.86852 0.5
326 11.8157 10.5519 10.1999 0.5
327 9.20372 1.59818 0.0274016 0.5
328 3.74076 11.1672 9.75372 0.5
329 2.74316 9.03052 8.1765 0.5
330 2.66752 7.49987 8.73551 0.5
331 1.16798 1.17131 1.68188 0.5
332 5.34622 5.13024 10.6432 0.5
333 12.9378 5.4415 2.93647 0.5
334 3.24684 10.4657 2.39528 0.5
335 3.07746 6.62355 0.161575 0.5
336 5.58296 11.4385 0.0665207 0.5
337 6.72849 8.60133 0.809556 0.5
338 10.6903 10.7721 11.413 0.5
339 1.72247 2.43434 6.91818 0.5
340 2.02332 10.9298 10.4884 0.5
341 0.785282 1.82844 4.9068 0.5
342 9.69864 0.498936 13.1101 0.5
343 12.1588 6.4789 4.41216 0.5
344 10.3537 5.43955 10.2081 0.5
345 2.94392 11.8713 12.8941 0.5
346 2.22303 8.58857 6.42045 0.5
347 10.5473 2.61692 3.68086 0.5
348 7.78315 9.08306 7.7513 0.5
349 6.83126 9.80019 1.47755 0.5
350 1.01894 7.66554 12.8834 0.5
351 7.08888 4.71412 2.18245 0.5
352 11.931 11.5071 13.1484 0.5
353 5.29296 7.21082 3.16019 0.5
354 11.9678 5.13065 5.82866 0.5
355 6.72042 4.66729 1.97248 0.5
356 7.8373 0.223088 8.35169 0.5
357 12.6024 7.84148 10.9837 0.5
358 11.4926 3.31779 13.0156 0.5
359 1.95398 1.52988 11.7961 0.5
360 8.32287 11.225 7.60346 0.5
361 7.83691 8.17348 4.30572 0.5
362 10.7499 8.38878 7.29519 0.5
363 7.32026 9.91751 3.73794 0.5
364 4.39244 7.19544 3.88918 0.5
365 10.2563 12.3295 8.82981 0.5
366 2.87429 1.74157 1.57119 0.5
367 11.2508 1.62563 9.45344 0.5
368 12.1033 2.84043 13.5068 0.5
369 13.1931 4.08621 4.54852 0.5
370 12.5597 11.7565 7.9205 0.5
371 5.44141 5.01264 2.25317 0.5
372 9.65927 6.5877 9.46305 0.5
373 12.086 6.33057 1.77261 0.5
374 12.6179 10.5194 8.91349 0.5
375 9.8857 3.92863 1.73235 0.5
376 12.6651 7.66016 3.03863 0.5
377 5.96297 4.54932 2.77765 0.5
378 7.97005 12.5145 4.17097 0.5
379 6.86769 8.10513 12.0169 0.5
380 10.494 2.14456 7.74014 0.5
381 8.44693 3.79923 6.25684 0.5
382 2.86977 11.336 5.36571 0.5
383 0.230586 8.57525 10.3282 0.5
384 9.29675 5.04639 2.40315 0.5
385 13.2133 12.6049 4.64602 0.5
386 3.67522 5.14889 3.38868 0.5
387 3.1591 6.59675 4.09465 0.5
388 3.61477 1.27652 0.723222 0.5
389 10.7904 3.09555 3.7927 0.5
390 5.13777 4.48565 6.235 0.5
391 11.8856 3.56086 7.8495 0.5
392 3.29834 6.0553 2.62157 0.5
393 7.13652 4.48873 5.33083 0.5
394 12.7335 9.61607 4.45534 0.5
395 11.6651 4.17664 9.55702 0.5
396 0.298493 11.7907 1.13628 0.5
397 12.4881 6.44569 7.34515 0.5
398 5.40264 1.17752 8.51385 0.5
399 0.557505 11.9968 6.7164 0.5
400 10.6848 4.7127 8.90571 0.5
401 11.0459 6.09288 1.40384 0.5
402 0.18085 5.09439 12.172 0.5
403 4.13503 0.720851 11.5642 0.5
404 0.412315 9.01597 10.3442 0.5
405 0.0714888 11.1262 5.96463 0.5
406 13.5482 4.86169 5.83131 0.5
407 4.01452 6.27198 7.01782 0.5
408 4.07357 5.55639 11.876 0.5
409 3.89466 1.30639 4.55665 0.5
410 5.9113 11.9109 12.1474 0.5
411 12.1391 2.77581 3.08152 0.5
412 4.73313 11.1882 0.455462 0.5
413 6.33707 8.17582 6.85487 0.5
414 9.08709 0.504296 0.860604 0.5
415 4.21868 5.2868 0.443819 0.5
416 13.1369 1.56337 8.18202 0.5
417 2.50214 0.127294 0.979066 0.5
418 4.15607 1.22872 1.60011 0.5
419 0.34286 8.72286 0.800497 0.5
420 4.55515 12.3451 11.4739 0.5
421 11.7344 7.32195 2.18627 0.5
422 0.689993 12.6053 2.3195 0.5
423 5.33689 9.20239 7.48745 0.5
424 5.07202 11.2315 10.7372 0.5
425 2.10014 13.2907 8.87348 0.5
426 0.860089 11.6971 8.87555 0.5
427 12.5116 9.64781 12.3285 0.5
428 3.04328 4.97338 2.77621 0.5
429 7.11131 3.73229 6.29224 0.5
430 9.34959 12.9609 2.04215 0.5
431 5.9841 3.41053 6.39619 0.5
432 0.315342 0.197147 11.6658 0.5
433 1.44185 3.85718 8.18024 0.5
434 2.96311 2.84743 11.4581 0.5
435 7.49219 1.25806 12.0241 0.5
436 6.99327 12.6753 0.0453595 0.5
437 8.72011 1.65786 10.6226 0.5
438 5.11922 9.74666 2.98765 0.5
439 11.8884 2.235 6.40993 0.5
440 5.68885 5.41261 11.6887 0.5
441 1.56059 5.97005 12.6052 0.5
442 6.06401 7.27359 0.233912 0.5
443 9.57997 2.44661 11.7651 0.5
444 12.905 0.721906 3.36164 0.5
445 2.90789 10.369 0.402184 0.5
446 8.19862 13.3357 4.27239 0.5
447 9.28981 12.1875 10.1926 0.5
448 7.31087 13.2775 7.11261 0.5
449 5.70368 6.26626 2.23785 0.5
450 10.5143 7.52797 9.09043 0.5
451 12.5784 7.41081 11.8524 0.5
452 6.49519 0.516805 3.77505 0.5
453 13.1556 8.57141 6.17349 0.5
454 13.5807 1.72427 10.1308 0.5
455 6.93689 1.15861 5.9911 0.5
456 1.32389 5.34483 7.8517 0.5
457 4.85017 0.0314097 3.08511 0.5
458 7.99918 0.922217 5.4674 0.5
459 12.3996 13.3579 9.68772 0.5
460 10.4925 10.0941 12.0728 0.5
461 12.9928 11.5871 1.48971 0.5
462 2.06603 9.27009 3.97516 0.5
463 2.27337 3.7361 6.50082 0.5
464 6.41285 0.489171 6.8645 0.5
465 3.72783 11.476 5.28214 0.5
466 2.81773 0.62805 7.48669 0.5
467 4.85858 6.31989 10.2862 0.5
468 1.42049 5.20601 1.29166 0.5
469 3.92164 0.405208 11.241 0.5
470 1.78506 8.15243 0.29166 0.5
471 6.06099 11.4445 3.34142 0.5
472 7.2096 0.871031 5.54185 0.5
473 10.8573 7.49719 5.17841 0.5
474 9.17047 0.973225 5.65379 0.5
475 3.7233 12.1966 12.3128 0.5
476 9.11488 0.483003 0.388772 0.5
477 11.995 5.62248 11.5949 0.5
478 12.1916 9.05513 3.77693 0.5
479 4.09399 9.7437 8.28594 0.5
480 10.9535 5.2683 11.9807 0.5
481 2.00864 8.90096 4.99518 0.5
482 9.57064 9.95505 5.95597 0.5
483 10.9233 7.84498 9.36265 0.5
484 7.86597 12.4233 6.04483 0.5
485 4.28577 5.40816 10.2352 0.5
486 4.93505 0.808976 8.21286 0.5
487 4.71351 9.31363 7.43375 0.5
488 12.2443 0.177965 10.3136 0.5
489 0.808663 5.81214 9.21292 0.5
490 1.49401 13.2618 10.5788 0.5
491 6.45538 10.4622 10.736 0.5
492 0.455081 8.01754 9.58107 0.5
493 9.92877 7.62848 4.32646 0.5
494 6.77003 12.8966 5.98414 0.5
495 8.24632 7.21128 7.83938 0.5
496 6.8369 10.1495 2.28371 0.5
497 4.56193 7.95246 12.2045 0.5
498 3.2498 8.33604 9.50697 0.5
499 3.68183 11.0612 9.34598 0.5
500 10.9425 1.31956 11.0176 0.5
501 8.83836 10.4509 12.9448 0.5
502 2.77185 10.36 9.81225 0.5
503 0.766689 1.64917 9.1826 0.5
504 9.78612 8.72447 4.34415 0.5
505 5.65276 11.0976 10.9491 0.5
506 10.7438 0.948944 11.6658 0.5
507 3.72616 6.61677 3.85999 0.5
508 2.15597 12.6328 6.10163 0.5
509 1.49081 10.0339 9.32959 0.5
510 7.93004 3.05351 10.2118 0.5
511 11.8553 11.627 1.12713 0.5
512 3.5373 7.39606 4.1191 0.5
513 3.84379 1.44353 8.73226 0.5
514 5.88604 7.48037 3.93246 0.5
515 7.26338 4.30718 9.14161 0.5
516 8.14477 1.06321 1.46649 0.5
517 1.63974 5.42475 5.88913 0.5
518 6.01973 3.40174 8.82666 0.5
519 5.70172 4.40233 3.589 0.5
520 12.5268 10.8682 2.93715 0.5
521 10.8942 1.32646 3.65497 0.5
522 0.325585 6.28769 8.88334 0.5
523 8.78981 9.88775 8.78843 0.5
524 10.4559 3.76519 3.06723 0.5
525 3.32551 7.27459 3.88667 0.5
526 6.39295 11.5814 8.52231 0.5
527 8.87388 12.0609 0.497604 0.5
528 7.89921 12.3198 13.5748 0.5
529 1.37734 8.81598 3.13423 0.5
530 1.92906 7.93262 0.22939 0.5
531 4.06645 11.2972 4.437 0.5
532 5.75843 8.31105 2.52177 0.5
533 10.9995 6.52363 3.48762 0.5
534 1.49096 11.8308 6.24181 0.5
535 0.309728 0.357474 3.48244 0.5
536 5.11409 12.6588 3.90421 0.5
537 2.79801 3.90527 6.15368 0.5
538 7.6684 1.68737 4.88586 0.5
539 9.31759 2.74181 10.4714 0.5
540 5.25866 9.69727 5.39616 0.5
541 7.67379 4.43116 2.76703 0.5
542 6.14648 0.904567 7.78447 0.5
543 9.87457 1.3193 10.1943 0.5
544 7.61153 4.24341 13.1759 0.5
545 13.2601 1.79442 5.08493 0.5
546 7.20813 2.51061 5.82082 0.5
547 6.9705 11.5376 7.46206 0.5
548 1.6498 0.755473 12.4765 0.5
549 4.05091 2.44378 10.3122 0.5
550 3.27214 10.0183 0.85058 0.5
551 8.5404 9.09902 7.24787 0.5
552 11.3358 6.25456 12.6126 0.5
553 10.5993 5.2735 4.62289 0.5
554 6.71288 11.3202 7.20168 0.5
555 8.57754 6.65259 2.33377 0.5
556 0.0327629 2.35963 0.471716 0.5
557 5.73456 4.28478 6.7334 0.5
558 6.42394 4.32649 10.3696 0.5
559 6.52672 3.05201 4.02489 0.5
560 3.75037 7.67597 3.32181 0.5
561 3.22847 6.10965 1.37265 0.5
562 8.9986 1.02597 4.37348 0.5
563 5.45178 13.3015 9.7962 0.5
564 4.20451 5.85361 6.4259 0.5
565 4.65754 9.85136 10.3079 0.5
566 5.23009 9.06906 10.0964 0.5
567 4.18234 6.54031 11.9695 0.5
568 4.25172 10.3486 4.51093 0.5
569 6.70864 0.584105 12.5992 0.5
570 12.1389 1.35629 9.61179 0.5
571 10.3808 5.55885 2.35219 0.5
572 3.99476 11.6647 12.4477 0.5
573 8.60008 12.7486 3.51909 0.5
574 11.493 12.9642 5.2541 0.5
575 10.816 12.5451 8.28037 0.5
576 13.0854 4.9233 7.68982 0.5
577 12.1445 3.64405 2.71182 0.5
578 7.13826 5.87592 12.5408 0.5
579 11.973 1.30368 13.2079 0.5
580 11.0607 11.6817 11.6044 0.5
581 11.0542 12.4628 11.7512 0.5
582 13.0004 5.49302 11.2691 0.5
583 9.3354 13.4234 8.77902 0.5
584 4.33654 4.60573 6.46511 0.5
585 12.0883 7.62734 13.1226 0.5
586 4.49165 11.5505 5.13875 0.5
587 6.54181 6.60067 9.3008 0.5
588 10.2589 13.3097 8.98032 0.5
589 6.08582 6.20693 4.30165 0.5
590 0.485918 4.67443 4.93353 0.5
591 6.60656 12.108 8.95012 0.5
592 8.71256 8.57473 6.01368 0.5
593 5.40329 10.2785 12.8937 0.5
594 3.21947 1.82154 7.42047 0.5
595 3.32096 5.17362 2.72911 0.5
596 8.94849 3.22841 5.56317 0.5
597 7.1194 8.81009 1.55897 0.5
598 1.5645 1.53448 11.94 0.5
599 8.80562 11.5578 12.4329 0.5
600 2.88252 12.1454 5.45994 0.5
601 1.42256 4.61118 2.39558 0.5
602 1.85344 8.46414 5.57424 0.5
603 9.81601 2.0356 6.47869 0.5
604 2.8042 1.80071 9.28808 0.5
605 8.38975 7.34877 9.91314 0.5
606 12.1431 5.02082 12.5154 0.5
607 12.8275 3.40203 11.0019 0.5
608 2.2391 0.742285 4.32213 0.5
609 11.3484 3.97484 10.3828 0.5
610 5.5717 3.55477 4.2159 0.5
611 3.77748 2.03262 4.66635 0.5
612 9.22506 7.96037 0.547586 0.5
613 11.4357 6.66267 1.68447 0.5
614 3.92778 4.95095 1.67278 0.5
615 2.30601 13.2137 11.3789 0.5
616 1.54988 11.0752 4.74252 0.5
617 1.64835 8.36325 7.18111 0.5
618 3.15757 4.27466 7.52478 0.5
619 5.0141 4.90984 8.16288 0.5
620 13.1288 1.84197 12.2746 0.5
621 9.59706 4.49455 12.1147 0.5
622 3.38458 0.0587182 4.28849 0.5
623 3.78105 11.1867 6.48033 0.5
624 10.1994 5.34589 10.9444 0.5
625 2.36444 6.52422 0.304728 0.5
626 13.502 5.33274 3.09522 0.5
627 5.05487 1.40413 5.58069 0.5
628 8.24365 0.478061 5.55563 0.5
629 13.2744 8.8021 7.96425 0.5
630 4.69657 0.0783127 1.02684 0.5
631 0.170422 8.54302 5.59193 0.5
632 0.568696 2.75422 0.461883 0.5
633 1.88365 7.14633 3.3902 0.5
634 9.39876 12.5689 7.27419 0.5
635 6.38567 13.0055 2.91756 0.5
636 9.87762 4.78527 3.69067 0.5
637 3.68309 8.55971 5.18714 0.5
638 1.83462 8.73575 0.726321 0.5
639 2.18298 0.247542 8.95604 0.5
640 11.4544 4.93074 2.10235 0.5
641 0.778346 3.33465 7.3182 0.5
642 1.19056 9.96263 12.7805 0.5
643 8.60445 3.12568 10.2822 0.5
644 6.13919 0.665701 1.1434 0.5
645 6.52731 3.44953 10.2995 0.5
646 4.05269 1.24485 11.734 0.5
647 9.29285 1.51946 8.87141 0.5
648 10.2524 1.90312 0.487426 0.5
649 9.42321 10.1012 3.17274 0.5
650 2.74455 4.54531 2.72648 0.5
651 1.0325 9.44312 12.8907 0.5
652 7.15881 8.89052 10.2354 0.5
653 2.66959 1.63829 9.01559 0.5
654 5.40079 11.9189 2.08995 0.5
655 1.85615 2.29746 2.03155 0.5
656 11.888 0.262849 2.67775 0.5
657 11.9683 1.51995 1.95104 0.5
658 2.42277 11.769 4.09088 0.5
659 6.88189 5.48899 9.76241 0.5
660 11.0064 10.9903 2.56743 0.5
661 4.74736 7.26375 13.448 0.5
662 0.0574794 9.83131 9.9504 0.5
663 3.94463 13.0865 6.27132 0.5
664 1.04352 6.49779 6.67358 0.5
665 5.03691 12.5196 8.94658 0.5
666 9.7537 10.0822 3.74896 0.5
667 11.411 11.0838 7.5244 0.5
668 12.0316 12.2395 5.06557 0.5
669 0.276818 2.07237 6.18135 0.5
670 1.33029 9.00031 5.15826 0.5
671 3.77137 11.3823 6.17976 0.5
672 11.2099 6.21438 7.23042 0.5
673 9.58625 4.92024 9.84313 0.5
674 1.76374 9.72052 8.67124 0.5
675 2.26299 0.506955 8.34174 0.5
676 1.00054 5.1998 4.54885 0.5
677 3.88313 8.52007 5.72735 0.5
678 8.23815 9.28794 0.384816 0.5
679 5.8467 11.0308 1.86053 0.5
680 0.440136 9.55324 3.05873 0.5
681 9.9944 9.67221 7.51222 0.5
682 10.7071 9.55975 3.17527 0.5
683 8.73352 9.55677 12.2533 0.5
684 6.45415 3.57154 5.40997 0.5
685 3.94393 3.97601 12.4481 0.5
686 4.8948 1.31584 5.73141 0.5
687 12.0158 12.7095 1.32827 0.5
688 0.150277 9.70686 5.5307 0.5
689 9.70741 7.01142 3.96973 0.5
690 11.938 5.68856 11.6915 0.5
691 5.42357 7.61288 3.86669 0.5
692 6.07802 6.13795 9.00144 0.5
693 7.19651 11.4586 13.5098 0.5
694 7.81238 9.00977 0.147236 0.5
695 5.77827 6.20363 12.054 0.5
696 1.03948 11.5274 11.0849 0.5
697 9.1365 9.15708 5.72377 0.5
698 3.29187 3.67472 8.98206 0.5
699 0.209124 1.03458 7.85945 0.5
700 7.71343 4.51599 3.92365 0.5
701 6.99485 0.260183 0.0695909 0.5
702 3.43226 6.561 2.40093 0.5
703 7.04937 1.34191 9.0494 0.5
704 9.45368 5.64866 2.61097 0.5
705 10.6538 0.738479 11.3177 0.5
706 2.0618 8.68484 11.8781 0.5
707 6.78563 11.4165 4.82938 0.5
708 10.6858 3.16115 8.07789 0.5
709 11.3771 5.43567 8.9742 0.5
710 2.24872 3.57658 11.9848 0.5
711 11.0353 3.18172 1.78557 0.5
712 3.71914 12.0479 9.13933 0.5
713 6.69249 8.74137 9.73486 0.5
714 6.79819 9.05947 0.355986 0.5
715 12.5333 10.5489 6.7218 0.5
716 7.00388 12.7123 2.19757 0.5
717 4.53742 7.0957 6.63908 0.5
718 9.25134 0.165989 13.4448 0.5
719 2.28445 7.07034 0.306551 0.5
720 1.54299 5.51647 0.879801 0.5
721 10.3496 6.53541 4.77373 0.5
722 10.5821 1.43972 5.83303 0.5
723 9.15315 4.04968 7.59138 0.5
724 1.14392 0.551892 11.3563 0.5
725 6.9453 5.53729 3.1688 0.5
726 8.63611 2.00773 13.1211 0.5
727 9.6867 1.65144 12.1651 0.5
728 12.0282 11.7786 5.33939 0.5
729 12.4636 7.45824 11.9927 0.5
730 3.62126 4.49304 11.3149 0.5
731 0.878992 3.24321 11.5816 0.5
732 7.32748 10.6962 6.1705 0.5
733 4.08437 9.25243 9.18523 0.5
734 3.97734 7.26249 3.95876 0.5
735 13.1087 1.41393 0.331027 0.5
736 3.34301 10.5978 2.35441 0.5
737 7.49057 6.52397 1.0593 0.5
738 8.01468 7.97363 11.1033 0.5
739 8.94006 4.15999 3.67544 0.5
740 3.7687 12.9961 4.61883 0.5
741 3.9165 12.5693 10.4851 0.5
742 12.6282 4.15494 4.97118 0.5
743 4.17744 9.88158 5.38656 0.5
744 2.69398 6.15311 4.53197 0.5
745 11.8782 0.587145 2.20546 0.5
746 6.28687 1.17992 13.5107 0.5
747 4.63001 7.5175 4.39582 0.5
748 2.50203 3.38824 6.38619 0.5
749 10.3004 6.19664 2.3239 0.5
750 11.0101 10.7112 13.4245 0.5
751 7.20869 6.60997 0.453435 0.5
752 0.788596 1.3922 0.666668 0.5
753 2.2004 3.32715 1.5511 0.5
754 11.567 8.64316 11.6407 0.5
755 6.54724 6.01964 12.7383 0.5
756 7.70461 11.0378 11.0223 0.5
757 4.33827 6.26247 3.11931 0.5
758 13.0515 11.0266 9.06261 0.5
759 8.52032 1.28702 13.1594 0.5
760 3.58931 10.8755 11.6929 0.5
761 8.15836 8.347 5.99467 0.5
762 6.87352 7.77828 2.99864 0.5
763 9.04647 1.30845 4.99091 0.5
764 3.99969 0.731081 9.50154 0.5
765 13.1554 6.16106 12.4407 0.5
766 1.26025 0.0715923 10.5264 0.5
767 7.12482 7.85292 1.80708 0.5
768 11.449 0.217872 1.07482 0.5
769 0.267486 5.77187 3.5781 0.5
770 1.5813 6.58213 10.059 0.5
771 11.6136 5.76575 5.29342 0.5
772 10.8366 12.3366 13.5431 0.5
773 11.9722 13.2346 4.7756 0.5
774 6.74034 10.3939 0.728395 0.5
775 12.4528 0.928034 4.55724 0.5
776 1.86634 5.48891 9.68496 0.5
777 3.83829 3.89215 4.1744 0.5
778 1.31698 8.27174 9.79845 0.5
779 11.4781 13.2717 11.5074 0.5
780 12.3325 9.52499 4.37462 0.5
781 0.898449 7.65123 9.43252 0.5
782 10.2398 13.1339 7.60905 0.5
783 3.65373 6.66251 2.573 0.5
784 2.75449 12.9905 8.62088 0.5
785 10.877 11.4678 7.70951 0.5
786 11.0333 5.93073 9.44676 0.5
787 5.29348 8.2028 6.34348 0.5
788 8.18821 5.17588 7.08133 0.5
789 11.8728 0.718197 11.9241 0.5
790 5.11523 9.17421 2.74294 0.5
791 4.48053 11.8138 13.0933 0.5
792 11.14 6.18066 1.7293 0.5
793 3.33564 0.171135 5.39941 0.5
794 2.66976 11.884 12.0973 0.5
795 2.7054 8.44634 0.317757 0.5
796 6.03967 10.2048 12.1472 0.5
797 9.9218 10.2265 4.12307 0.5
798 0.661802 10.9506 6.85496 0.5
799 4.71241 6.10113 10.4583 0.5
800 6.22968 6.9705 12.8735 0.5
801 7.34728 0.477617 6.23518 0.5
802 5.04707 5.69518 6.21641 0.5
803 0.270556 7.22495 0.444961 0.5
804 10.9898 9.79587 1.73777 0.5
805 3.3072 10.7683 11.3999 0.5
806 3.08118 10.2368 8.02395 0.5
807 5.78735 1.53833 7.81047 0.5
808 1.76739 8.12928 0.8179 0.5
809 9.60288 8.17185 6.89035 0.5
810 11.9498 13.1671 8.61229 0.5
811 9.17247 5.74822 0.847799 0.5
812 4.35025 3.51099 9.73302 0.5
813 3.79351 3.1427 5.31761 0.5
814 4.5476 11.0389 6.33837 0.5
815 9.56025 4.55586 8.32293 0.5
816 0.0234337 11.2107 1.01124 0.5
817 0.677132 2.10744 9.26329 0.5
818 7.72091 3.35207 9.7854 0.5
819 1.27246 2.10087 5.90592 0.5
820 1.61369 9.40113 10.9832 0.5
821 4.801 2.37098 6.54478 0.5
822 4.41026 3.79673 11.2918 0.5
823 2.57283 13.4375 5.29718 0.5
824 10.2881 7.41542 11.5968 0.5
825 2.61891 5.148 10.5306 0.5
826 7.26713 9.71557 3.17029 0.5
827 4.61393 6.98656 1.51285 0.5
828 2.1192 0.193107 5.74628 0.5
829 3.20544 2.3916 7.46371 0.5
830 0.391718 9.64313 8.8616 0.5
831 6.08626 1.43587 5.28569 0.5
832 11.8553 8.31496 11.0416 0.5
833 0.974192 0.962982 11.0578 0.5
834 2.90721 6.28816 4.79459 0.5
835 13.1154 13.2681 10.2728 0.5
836 2.61053 7.59357 2.53591 0.5
837 11.9605 3.6376 2.99889 0.5
838 13.3131 6.91843 6.5988 0.5
839 5.06117 0.675058 0.759209 0.5
840 8.56544 13.3469 5.94703 0.5
841 6.7288 3.61068 0.267786 0.5
842 1.39023 0.959492 7.91118 0.5
843 5.8895 2.74068 8.77059 0.5
844 7.56645 5.48277 13.1536 0.5
845 2.50577 1.17988 4.63944 0.5
846 8.36438 9.0994 5.6613 0.5
847 0.020316 5.86693 10.9063 0.5
848 0.094364 9.09421 2.5027 0.5
849 8.46537 5.56208 12.9137 0.5
850 0.193618 5.22024 8.25436 0.5
851 1.73969 11.9204 8.67262 0.5
852 1.98032 13.3478 0.0363924 0.5
853 9.38615 8.12991 12.5703 0.5
854 8.97741 6.26179 9.95635 0.5
855 10.7468 11.2766 8.8373 0.5
856 1.20065 2.29377 4.3444 0.5
857 9.99547 9.75386 11.7807 0.5
858 7.30761 3.02979 9.54041 0.5
859 12.5467 5.79592 8.37733 0.5
860 11.0793 3.8702 9.48618 0.5
861 2.3866 2.94357 11.9001 0.5
862 10.0292 0.490238 4.30607 0.5
863 4.32188 12.2372 11.2926 0.5
864 1.79209 0.1213 10.4474 0.5
865 6.42384 8.80284 12.0927 0.5
866 6.9793 11.3041 7.50656 0.5
867 8.25432 12.8327 2.17339 0.5
868 7.28711 1.25904 1.81652 0.5
869 0.444882 3.40435 11.3994 0.5
870 4.77315 4.44259 3.35726 0.5
871 0.578928 12.6065 0.951795 0.5
872 10.6582 11.0792 3.46159 0.5
873 2.37221 13.0498 13.1035 0.5
874 4.61026 7.80454 0.365231 0.5
875 8.84169 5.50291 13.4259 0.5
876 11.7683 13.1565 6.70155 0.5
877 2.44637 9.47713 3.74033 0.5
878 8.92465 2.09888 6.67844 0.5
879 5.53676 11.6431 12.1955 0.5
880 10.5895 8.23994 4.43241 0.5
881 9.6835 5.66292 2.25976 0.5
882 2.17156 5.65177 5.8833 0.5
883 11.7074 2.51573 1.7071 0.5
884 12.9674 1.43274 2.58418 0.5
885 12.4105 7.90045 1.57848 0.5
886 5.03336 8.9011 8.69762 0.5
887 13.5136 13.2797 10.6153 0.5
888 2.60859 3.34982 4.03665 0.5
889 11.9136 2.65566 11.7621 0.5
890 11.842 11.6658 2.64141 0.5
891 4.9841 6.40331 11.0611 0.5
892 7.10036 9.85182 5.34885 0.5
893 8.48705 2.07689 0.352196 0.5
894 7.1212 2.62743 5.08238 0.5
895 12.4166 4.55665 8.0628 0.5
896 8.40908 10.0846 11.414 0.5
897 9.38665 2.00556 5.67276 0.5
898 10.9937 1.13393 3.8699 0.5
899 11.92 4.27079 5.5022 0.5
900 13.3243 3.32657 11.3683 0.5
901 4.5625 2.97165 8.99794 0.5
902 8.59022 3.187 1.06347 0.5
903 6.74565 9.1078 2.15344 0.5
904 9.08688 10.0055 11.2959 0.5
905 12.4696 2.81499 9.60097 0.5
906 8.88902 9.7182 11.0791 0.5
907 7.229 2.60146 2.95003 0.5
908 10.5055 8.91001 10.3405 0.5
909 7.99908 3.54257 9.37371 0.5
910 2.51455 11.1181 7.25109 0.5
911 4.01159 6.55723 3.28476 0.5
912 10.2532 12.8403 3.23634 0.5
913 0.080217 10.613 9.47973 0.5
914 11.3485 7.72475 10.8159 0.5
915 3.9523 5.79328 2.01809 0.5
916 9.62093 7.4971 8.30891 0.5
917 7.04421 7.56472 10.6474 0.5
918 5.95087 8.65977 4.91297 0.5
919 1.83803 13.4748 6.71668 0.5
920 1.79352 5.24179 0.295419 0.5
921 11.5277 7.13684 3.97181 0.5
922 11.3266 8.38212 7.82429 0.5
923 3.91304 2.7426 0.354653 0.5
924 9.5926 8.499 0.678968 0.5
925 11.2664 1.81389 0.7802 0.5
926 0.28732 2.47472 4.43479 0.5
927 3.02107 1.10971 1.67964 0.5
928 2.12132 12.9054 4.5644 0.5
929 13.3724 4.89484 4.86167 0.5
930 8.21834 8.85786 4.35477 0.5
931 9.5228 10.3143 1.77179 0.5
932 8.09735 1.37743 4.91136 0.5
933 10.6065 8.27056 4.40368 0.5