ITEM: TIMESTEP
700000
ITEM: NUMBER OF ATOMS
1000
ITEM: BOX BOUNDS xy xz yz pp pp pp
0.0000000000000000e+00 1.3572088000000001e+01 0.0000000000000000e+00
0.0000000000000000e+00 1.3572088000000001e+01 0.0000000000000000e+00
0.0000000000000000e+00 1.3572088000000001e+01 0.0000000000000000e+00
ITEM: ATOMS id x y z radius
1 12.3948 8.07758 1.5054 0.5
2 5.59681 12.1147 5.69083 0.5
3 11.0769 1.65099 0.329998 0.5
4 0.700523 4.01547 2.40465 0.5
5 12.0374 4.68881 5.34894 0.5
6 4.40398 10.0123 2.61992 0.5
7 11.2493 2.099 11.3645 0.5
8 12.9279 7.88789 7.63256 0.5
9 8.78802 6.21671 9.282 0.5
10 5.00571 3.32293 11.7669 0.5
11 1.05618 0.616701 8.63015 0.5
12 2.25493 5.87789 11.6894 0.5
13 5.17408 5.4028 13.003 0.5
14 9.3533 12.7267 11.1926 0.5
15 8.30136 9.36419 10.1867 0.5
16 9.28925 2.51779 11.6105 0.5
17 5.34319 6.33677 9.0207 0.5
18 10.6781 12.3539 1.15886 0.5
19 12.1103 2.92265 5.9706 0.5
20 5.36753 4.83343 6.54709 0.5
21 7.38614 2.9301 7.82485 0.5
22 8.79607 11.2294 7.05923 0.5
23 3.13514 12.3602 7.81657 0.5
24 5.69438 11.0296 7.35748 0.5
25 3.0129 13.1058 3.88191 0.5
26 2.59616 6.2134 0.306096 0.5
27 1.96721 7.09311 8.52585 0.5
28 9.16318 0.86197 8.94976 0.5
29 5.58903 9.48655 10.4897 0.5
30 10.8353 10.9343 9.94063 0.5
31 11.2517 2.22885 0.105451 0.5
32 8.67101 11.4622 2.15352 0.5
33 9.77907 6.96958 4.40332 0.5
34 3.7162 7.02172 2.72517 0.5
35 6.72335 11.4584 8.62721 0.5
36 13.1732 9.55728 9.6312 0.5
37 11.4293 3.01085 7.94107 0.5
38 6.30331 1.46829 6.95914 0.5
39 1.51883 10.6328 1.96099 0.5
40 8.01892 11.5586 5.54678 0.5
41 5.79815 3.86187 11.8709 0.5
42 5.86216 3.62062 12.8965 0.5
43 4.74941 1.086 10.3683 0.5
44 7.86967 7.03731 3.86697 0.5
45 4.60887 1.28355 0.888141 0.5
46 9.28153 0.426592 3.31401 0.5
47 2.22598 3.98002 13.4445 0.5
48 10.843 2.61437 2.50551 0.5
49 1.86577 3.22185 5.73651 0.5
50 9.24988 9.34276 9.29542 0.5
51 2.81043 12.5702 0.387534 0.5
52 2.58417 11.9257 8.57884 0.5
53 11.2202 8.14212 4.44998 0.5
54 7.35982 0.810222 0.865576 0.5
55 13.3589 4.96248 9.17978 0.5
56 11.6254 5.27602 0.0745249 0.5
57 13.4733 4.10529 6.11219 0.5
58 7.3245 12.6594 5.81861 0.5
59 1.64194 6.8454 4.00786 0.5
60 3.84201 12.8181 9.83728 0.5
61 13.4688 8.34789 7.78317 0.5
62 11.5598 12.9954 5.49653 0.5
63 0.569558 3.37753 7.11632 0.5
64 10.3728 10.2029 0.964906 0.5
65 3.7391 12.8455 6.00874 0.5
66 1.57066 12.5854 9.0051 0.5
67 13.5196 8.49787 0.499589 0.5
68 5.90244 13.0159 7.59616 0.5
69 9.84593 5.96527 8.08753 0.5
70 9.8979 2.38269 13.36 0.5
71 10.6731 1.24937 4.24875 0.5
72 5.90032 4.26038 7.87575 0.5
73 13.3503 6.22473 4.19868 0.5
74 12.3416 7.59109 4.95583 0.5
75 4.00224 2.58184 7.88392 0.5
76 4.49152 11.5927 11.6088 0.5
77 6.96479 2.88627 6.64171 0.5
78 11.3755 12.2755 11.6935 0.5
79 8.24484 8.61649 13.5207 0.5
80 5.24609 13.1406 5.93961 0.5
81 13.4883 11.0307 9.82162 0.5
82 0.684423 2.7203 7.14262 0.5
83 8.38748 1.58533 9.4797 0.5
84 0.463097 12.3962 5.02807 0.5
85 1.73761 4.8722 3.80628 0.5
86 4.14186 2.42411 9.13241 0.5
87 1.35039 5.50832 7.10385 0.5
88 0.69363 9.29892 8.00636 0.5
89 5.94047 5.54631 3.95886 0.5
90 1.79089 11.8814 13.1406 0.5
91 10.7147 9.93591 3.66617 0.5
92 13.3572 11.3394 12.3161 0.5
93 4.50973 3.28229 2.75621 0.5
94 2.81825 1.4197 13.4719 0.5
95 13.0027 1.39818 9.15163 0.5
96 1.11477 0.539282 5.86322 0.5
97 12.1125 8.03096 4.07829 0.5
98 12.2656 5.34395 2.0249 0.5
99 7.06891 5.40978 1.43834 0.5
100 4.03907 13.1853 10.3857 0.5
101 5.60314 13.0351 0.407966 0.5
102 6.20473 7.40296 0.176945 0.5
103 1.42365 13.3304 11.811 0.5
104 6.69539 9.83338 4.23139 0.5
105 1.78825 0.229337 5.26698 0.5
106 11.0182 10.9779 11.2265 0.5
107 7.70514 4.93928 2.90556 0.5
108 5.65643 12.444 10.1848 0.5
109 9.05715 7.79939 12.4299 0.5
110 11.8055 7.54325 6.01618 0.5
111 12.7112 5.77221 2.14308 0.5
112 5.86428 0.833725 2.20373 0.5
113 0.805281 8.45113 3.67236 0.5
114 7.97538 9.29201 11.87 0.5
115 12.106 11.4633 2.40643 0.5
116 5.47068 12.9496 7.51071 0.5
117 0.372505 12.4096 10.5202 0.5
118 4.33401 9.42056 13.3435 0.5
119 7.01251 10.5128 2.64008 0.5
120 0.863179 3.04546 1.49676 0.5
121 6.98829 11.0022 6.77561 0.5
122 7.28328 6.33558 1.828 0.5
123 11.5785 8.95496 10.9825 0.5
124 0.927237 8.65472 6.27823 0.5
125 2.85817 11.4777 3.90397 0.5
126 0.0250728 7.92089 8.48029 0.5
127 6.06497 5.71046 10.1755 0.5
128 11.3478 8.56998 2.79916 0.5
129 10.4838 5.67733 2.97083 0.5
130 2.02298 1.61822 6.2036 0.5
131 10.0074 10.5073 7.31862 0.5
132 5.39067 3.55302 6.03311 0.5
133 4.52931 4.75667 1.52294 0.5
134 10.9646 7.67929 10.202 0.5
135 1.74122 6.37141 12.0518 0.5
136 13.6027 2.92344 4.41499 0.5
137 11.815 8.96079 3.09255 0.5
138 1.57316 4.76213 6.50502 0.5
139 4.23398 10.1819 5.49672 0.5
140 3.10981 8.60893 5.7822 0.5
141 11.3163 0.664464 7.28392 0.5
142 4.37174 4.23919 6.92293 0.5
143 12.2065 7.89645 0.137044 0.5
144 11.1424 2.31312 13.3231 0.5
145 2.36877 9.33097 12.606 0.5
146 8.57381 10.9584 7.91357 0.5
147 7.69189 1.10956 4.70908 0.5
148 7.15354 4.80142 5.18201 0.5
149 0.743377 9.2204 10.3034 0.5
150 1.93301 4.56279 1.78727 0.5
151 13.3382 12.8029 4.00366 0.5
152 9.32254 13.4422 2.84047 0.5
153 7.16426 4.97874 10.2504 0.5
154 10.9373 0.334517 3.90863 0.5
155 11.4085 7.82888 6.08817 0.5
156 6.59414 11.5986 3.89227 0.5
157 11.248 5.38982 3.07561 0.5
158 7.7559 5.87347 9.75578 0.5
159 13.3513 8.13716 10.3181 0.5
160 6.5057 8.39747 12.8676 0.5
161 10.7326 1.34994 5.37043 0.5
162 4.13578 11.5481 12.3832 0.5
163 12.4682 10.1797 5.63155 0.5
164 1.46323 1.41794 12.6745 0.5
165 10.7831 1.39643 4.58384 0.5
166 4.89074 7.41653 9.53536 0.5
167 8.58979 4.58043 10.985 0.5
168 1.63073 5.79718 13.216 0.5
169 10.7865 6.62008 1.47994 0.5
170 5.00457 5.14176 8.25901 0.5
171 12.7649 0.439185 13.6166 0.5
172 10.0282 1.09128 12.4893 0.5
173 11.3442 0.41864 11.8941 0.5
174 6.4149 7.34723 12.5827 0.5
175 2.30951 0.935284 13.3637 0.5
176 4.26211 0.112508 7.06908 0.5
177 5.20062 2.49356 6.83098 0.5
178 2.96748 8.66155 12.4903 0.5
179 13.3832 11.1503 6.20123 0.5
180 10.5217 10.1926 8.96829 0.5
181 4.61846 13.4516 8.13414 0.5
182 4.65451 1.68511 8.21085 0.5
183 13.425 5.45051 7.86823 0.5
184 0.256333 7.76293 3.04424 0.5
185 -0.0349705 4.44354 2.45839 0.5
186 0.70295 13.1436 3.9551 0.5
187 9.97216 5.47745 9.79734 0.5
188 1.04683 0.435366 3.62598 0.5
189 8.50723 1.26471 7.63475 0.5
190 10.6646 9.09385 7.09189 0.5
191 9.48937 10.1412 9.44695 0.5
192 4.50719 6.00916 1.88717 0.5
193 4.1544 5.5278 7.92248 0.5
194 8.0427 2.40627 10.9935 0.5
195 10.8412 2.80416 4.47461 0.5
196 0.889435 9.44471 1.37209 0.5
197 11.62 10.7367 13.1127 0.5
198 6.2126 1.53168 0.0902572 0.5
199 9.73053 2.72241 11.7145 0.5
200 11.8997 11.0239 10.8818 0.5
201 0.559156 4.33225 10.2982 0.5
202 3.35403 6.4223 10.9542 0.5
203 9.30688 9.81707 3.42835 0.5
204 11.3886 0.788826 2.22356 0.5
205 0.178845 9.2963 9.76304 0.5
206 8.52294 3.16668 8.20114 0.5
207 4.16115 11.1692 5.02185 0.5
208 12.2825 3.88087 12.8074 0.5
209 4.12681 12.9838 13.1687 0.5
210 5.58479 1.27061 5.40625 0.5
211 8.08247 5.85751 2.73132 0.5
212 8.33564 5.3118 2.27681 0.5
213 1.28568 11.1035 7.69476 0.5
214 8.10463 8.23623 0.65557 0.5
215 10.2467 2.9009 1.30117 0.5
216 10.0473 7.31271 3.30076 0.5
217 11.8577 1.08736 10.1384 0.5
218 6.81597 1.04887 10.3786 0.5
219 6.84929 4.27792 4.57861 0.5
220 11.2431 11.7471 1.29962 0.5
221 8.81301 1.81862 6.74449 0.5
222 6.86489 2.81494 2.3654 0.5
223 0.530316 6.39081 6.63535 0.5
224 4.30411 10.9819 4.22901 0.5
225 7.88879 7.95017 12.2243 0.5
226 1.25736 13.142 9.76355 0.5
227 4.24421 2.33253 11.9211 0.5
228 3.90873 12.872 7.31405 0.5
229 5.37894 10.1174 2.73997 0.5
230 10.9558 6.7052 12.3238 0.5
231 2.13466 3.25811 4.66206 0.5
232 9.68643 8.14446 9.52379 0.5
233 3.1561 1.49906 11.1603 0.5
234 10.5689 8.40618 6.88707 0.5
235 8.78733 5.67874 8.76237 0.5
236 10.6527 3.76929 2.94163 0.5
237 10.473 11.8635 9.00586 0.5
238 5.83839 8.21422 6.01993 0.5
239 7.57073 6.49613 5.3744 0.5
240 5.45803 3.81978 5.89417 0.5
241 1.77142 9.04743 9.96609 0.5
242 2.7359 3.41548 3.31912 0.5
243 4.16267 10.6804 5.4967 0.5
244 2.53692 4.57214 3.14474 0.5
245 6.18013 5.66475 5.2583 0.5
246 10.4966 1.30828 5.87004 0.5
247 10.7552 9.22358 1.66119 0.5
248 11.3165 8.65465 4.80309 0.5
249 4.87511 9.92029 8.26433 0.5
250 9.27767 9.09697 6.37121 0.5
251 2.75688 10.1314 4.58171 0.5
252 11.741 0.704587 10.4346 0.5
253 8.42096 5.2174 12.9629 0.5
254 2.08213 9.53707 0.83321 0.5
255 3.5238 8.44912 0.608852 0.5
256 2.23794 7.46723 4.03111 0.5
257 12.2125 12.8596 8.60101 0.5
258 7.262 4.19127 11.5411 0.5
259 9.63923 10.636 6.82239 0.5
260 11.0675 9.62208 2.90163 0.5
261 12.6694 5.82713 0.798294 0.5
262 2.2968 6.58679 1.28536 0.5
263 7.2854 2.89332 2.05722 0.5
264 7.03751 12.6233 3.76423 0.5
265 8.35692 8.17253 5.9533 0.5
266 2.03732 9.45225 12.493 0.5
267 1.87063 6.14364 12.5984 0.5
268 3.9782 10.0964 11.3387 0.5
269 1.99654 12.5607 4.12612 0.5
270 12.3721 4.85997 6.0862 0.5
271 13.4581 1.05141 12.4321 0.5
272 0.869526 0.519712 12.0028 0.5
273 2.78685 5.47058 11.7882 0.5
274 6.65215 4.15457 3.59097 0.5
275 5.42265 0.239698 5.83674 0.5
276 8.98017 0.913158 9.71594 0.5
277 4.76723 9.74692 10.0068 0.5
278 7.90149 3.06468 13.1361 0.5
279 6.46828 1.44851 9.49219 0.5
280 5.7806 12.4411 11.547 0.5
281 8.0286 12.7597 1.09976 0.5
282 1.24231 9.7922 4.73056 0.5
283 3.2381 13.4542 2.82678 0.5
284 10.2354 5.53803 12.6803 0.5
285 12.8117 8.18761 4.28887 0.5
286 12.7459 8.55085 5.47418 0.5
287 5.83984 11.253 12.2794 0.5
288 13.5783 1.64877 0.344691 0.5
289 2.93679 10.7536 1.58144 0.5
290 3.5548 2.55292 12.4736 0.5
291 12.532 8.25099 0.357012 0.5
292 8.41051 5.86958 8.62424 0.5
293 7.06582 1.47922 3.80862 0.5
294 5.78033 1.26215 0.211311 0.5
295 7.26594 2.70926 10.9092 0.5
296 9.26166 7.85374 3.36546 0.5
297 5.88727 12.4826 7.36643 0.5
298 10.1214 11.561 9.36216 0.5
299 6.24749 8.10496 12.1392 0.5
300 9.88203 8.05491 0.477269 0.5
301 2.19787 1.39397 9.2773 0.5
302 12.4793 6.26684 3.52561 0.5
303 0.132586 1.49613 2.41659 0.5
304 7.35592 9.35484 2.52783 0.5
305 8.32849 13.1019 1.50782 0.5
306 10.9706 5.50216 7.56558 0.5
307 1.65319 4.75613 5.50783 0.5
308 10.1584 4.25014 6.01764 0.5
309 2.98321 -0.00285891 0.813755 0.5
310 9.24201 3.58376 13.1471 0.5
311 3.75964 5.56127 7.16867 0.5
312 11.9096 11.4212 12.47 0.5
313 1.74244 2.33962 4.96628 0.5
314 0.201831 4.93764 12.3425 0.5
315 3.51141 10.8826 12.3534 0.5
316 5.02517 6.22091 9.07998 0.5
317 10.798 7.07177 2.19262 0.5
318 9.54738 8.58289 11.5839 0.5
319 9.66048 12.9788 1.09074 0.5
320 7.09909 4.64592 6.03135 0.5
321 9.99649 6.98398 13.4054 0.5
322 13.0416 2.00422 1.26756 0.5
323 7.62721 8.70516 9.66439 0.5
324 2.52443 2.10971 0.666983 0.5
325 5.09497 9.32593 4.35939 0.5
326 12.6649 7.35646 10.1688 0.5
327 8.21973 7.99677 13.4379 0.5
328 13.1079 8.19318 7.30319 0.5
329 2.88601 4.00275 12.2048 0.5
330 4.41025 9.49851 2.43902 0.5
331 5.71724 5.86248 13.4278 0.5
332 11.3571 0.853943 13.4156 0.5
333 8.37781 1.70458 11.2816 0.5
334 8.16041 7.39461 11.7737 0.5
335 7.22747 0.890142 10.9176 0.5
336 10.4142 7.06066 8.70286 0.5
337 0.941701 12.3761 11.5511 0.5
338 10.7244 11.9261 1.8758 0.5
339 2.69142 4.35221 6.33428 0.5
340 6.87969 10.4039 2.68298 0.5
341 1.88946 6.93872 9.20726 0.5
342 4.35141 0.920767 10.8574 0.5
343 8.50272 6.78466 2.82586 0.5
344 3.12886 11.1163 12.8274 0.5
345 5.77857 10.4299 3.63171 0.5
346 12.6603 1.5573 10.3098 0.5
347 10.9344 12.3806 12.7472 0.5
348 12.5713 2.41533 10.5383 0.5
349 0.938212 12.4926 7.36893 0.5
350 3.63917 1.62181 13.0422 0.5
351 0.2594 9.54863 7.53834 0.5
352 11.9967 8.3407 9.40383 0.5
353 1.32494 0.75578 1.92965 0.5
354 12 0.33142 4.88319 0.5
355 12.3384 4.45674 3.79025 0.5
356 5.92708 13.2825 0.293728 0.5
357 11.0454 9.21992 9.07429 0.5
358 11.7024 13.4983 10.3503 0.5
359 12.734 10.9549 10.3031 0.5
360 5.94883 3.56248 1.73191 0.5
361 7.61718 13.5026 11.7275 0.5
362 5.38545 11.6253 8.44366 0.5
363 1.52734 7.83514 2.59423 0.5
364 9.17353 5.70621 0.730936 0.5
365 4.04784 4.25505 0.442764 0.5
366 7.69648 4.1867 8.68541 0.5
367 9.6699 12.4313 8.80017 0.5
368 7.11016 5.83569 9.2059 0.5
369 7.58412 12.0605 7.02438 0.5
370 4.88052 11.0828 4.4144 0.5
371 12.4574 12.7867 3.06841 0.5
372 5.68897 13.2145 4.9784 0.5
373 12.4216 7.98049 4.35991 0.5
374 4.87878 10.2884 6.90828 0.5
375 10.0845 11.8628 9.8756 0.5
376 6.925 4.84493 5.92214 0.5
377 9.3046 1.26154 6.8967 0.5
378 6.56521 9.31854 10.617 0.5
379 3.82587 1.6118 11.8641 0.5
380 4.07193 8.40864 8.97847 0.5
381 11.6051 12.2103 12.4929 0.5
382 5.4952 2.19446 7.68526 0.5
383 8.25438 12.1836 7.676 0.5
384 1.38047 12.8296 8.85467 0.5
385 6.99661 1.16527 8.49662 0.5
386 3.23527 2.79849 7.23817 0.5
387 3.33558 5.19024 11.3629 0.5
388 12.2281 5.66193 2.52043 0.5
389 1.23584 10.2278 6.99083 0.5
390 4.73995 10.9259 3.07093 0.5
391 12.2136 4.94447 6.51302 0.5
392 4.25201 11.9685 7.96239 0.5
393 13.3542 11.2581 4.17971 0.5
394 5.5376 7.9682 10.7805 0.5
395 10.615 4.39093 6.37681 0.5
396 4.53263 4.6058 8.50145 0.5
397 10.2828 0.36519 1.16328 0.5
398 6.84356 11.5243 1.73059 0.5
399 4.91165 3.32701 11.25 0.5
400 1.39363 7.43612 3.04372 0.5
401 7.6993 13.3112 2.55443 0.5
402 3.84833 5.59236 12.3846 0.5
403 4.08868 3.55548 11.2848 0.5
404 13.326 3.59221 6.78139 0.5
405 1.16964 11.7323 9.92957 0.5
406 5.18379 2.09643 7.71913 0.5
407 7.84119 4.4582 6.40438 0.5
408 9.62513 4.85227 4.00284 0.5
409 4.34638 6.94708 9.63353 0.5
410 5.06673 0.230328 2.90145 0.5
411 4.51885 8.70192 8.71649 0.5
412 2.78494 7.18845 3.02163 0.5
413 1.48368 6.80015 3.76782 0.5
414 9.11018 12.8368 0.695549 0.5
415 2.4774 10.5956 8.92445 0.5
416 1.17973 1.83603 2.95566 0.5
417 12.8124 9.38108 0.906467 0.5
418 7.48082 4.94426 7.70878 0.5
419 11.5315 11.2842 12.1689 0.5
420 9.3436 10.8781 13.4296 0.5
421 2.01178 0.0379466 9.08916 0.5
422 12.6268 5.80727 9.60819 0.5
423 0.909083 0.526333 10.0516 0.5
424 11.8356 5.60278 3.78124 0.5
425 4.1106 0.631705 6.97253 0.5
426 0.830388 1.14753 0.849026 0.5
427 7.75199 2.12309 1.26093 0.5
428 3.46226 10.7534 5.04631 0.5
429 2.07535 4.33222 12.4261 0.5
430 9.68379 7.8698 9.60934 0.5
431 6.79719 0.370739 5.0599 0.5
432 8.51571 5.51607 12.3433 0.5
433 0.0473773 9.86723 9.16599 0.5
434 0.760782 9.19856 1.18169 0.5
435 10.7535 1.22933 7.59464 0.5
436 1.40857 4.18284 8.8919 0.5
437 8.93671 5.97217 0.035018 0.5
438 4.5974 2.79122 5.0908 0.5
439 12.4914 3.51849 2.21231 0.5
440 6.86148 5.48448 12.4152 0.5
441 7.24233 1.07169 1.81681 0.5
442 4.95656 4.85219 7.15939 0.5
443 7.73012 0.690203 0.711683 0.5
444 0.0585275 6.737 3.69653 0.5
445 6.90141 2.68472 10.0759 0.5
446 10.5235 4.79961 13.4244 0.5
447 11.5989 1.73434 4.64305 0.5
448 6.38186 12.4554 6.16704 0.5
449 4.39879 8.30345 10.7482 0.5
450 6.53053 8.36752 13.3432 0.5
451 3.06626 9.76999 10.6648 0.5
452 4.34431 0.322895 4.31203 0.5
453 6.08893 7.95504 1.12917 0.5
454 10.6496 5.49651 6.8814 0.5
455 5.83298 8.53781 0.522109 0.5
456 10.9383 0.131062 5.58257 0.5
457 11.2809 5.00988 11.8568 0.5
458 7.65694 8.33863 11.1757 0.5
459 0.868323 12.6857 13.342 0.5
460 1.67394 8.82666 8.81643 0.5
461 8.49851 4.83247 12.4923 0.5
462 7.10255 3.27794 0.477872 0.5
463 12.0651 8.52513 7.57657 0.5
464 5.66742 2.94659 11.0115 0.5
465 0.0568262 7.59791 1.4523 0.5
466 10.2534 7.96583 1.64226 0.5
467 12.2902 5.79644 9.58295 0.5
468 5.33207 11.8407 11.0364 0.5
469 10.2391 10.3227 6.17493 0.5
470 3.71817 2.16559 12.8548 0.5
471 6.31503 7.12882 9.0879 0.5
472 5.21247 8.92206 5.09828 0.5
473 3.32013 11.9173 5.60203 0.5
474 1.00294 5.7155 9.50364 0.5
475 9.81191 11.0905 1.77779 0.5
476 5.82 13.0736 11.1729 0.5
477 11.3537 11.34 7.80407 0.5
478 12.9125 2.45321 12.6469 0.5
479 0.17488 4.63191 3.38632 0.5
480 13.2026 9.22685 4.2767 0.5
481 6.50057 2.78376 6.00552 0.5
482 9.03399 9.23618 10.8483 0.5
483 2.53281 11.6047 8.16899 0.5
484 1.09078 7.21908 6.58127 0.5
485 3.33358 11.9071 6.41495 0.5
486 4.91457 6.93108 3.69376 0.5
487 11.2495 4.41921 6.16255 0.5
488 9.21321 12.6116 11.2517 0.5
489 1.25219 8.66465 12.0802 0.5
490 1.85303 5.99269 7.52774 0.5
491 7.74428 7.12827 10.1094 0.5
492 3.64097 3.22046 3.14621 0.5
493 1.65581 8.96065 8.1953 0.5
494 13.0514 2.75197 1.29772 0.5
495 0.187577 5.58113 9.98019 0.5
496 12.6198 1.90816 10.6571 0.5
497 0.778194 9.95706 0.848907 0.5
498 11.7814 11.5564 9.76488 0.5
499 9.26536 4.05951 6.51004 0.5
500 10.928 1.76102 0.730789 0.5
501 4.25468 4.45733 1.65583 0.5
502 1.90582 4.7837 10.5873 0.5
503 1.25057 4.50007 13.23 0.5
504 1.01304 3.10463 11.3125 0.5
505 3.57023 5.37455 8.46863 0.5
506 12.8728 5.06157 8.57209 0.5
507 2.74403 13.149 4.03352 0.5
508 6.21424 11.977 2.27103 0.5
509 7.95437 6.21246 0.32967 0.5
510 1.48858 4.67777 9.32473 0.5
511 2.41653 0.0176175 4.53571 0.5
512 1.01914 10.7024 9.72216 0.5
513 9.31899 9.32369 9.50737 0.5
514 8.72503 12.8349 12.2813 0.5
515 7.41754e-05 6.08503 4.52758 0.5
516 8.6274 7.28951 11.5228 0.5
517 5.62272 11.2004 5.51556 0.5
518 1.34098 12.14 1.47895 0.5
519 0.804275 7.71976 8.55845 0.5
520 12.9296 6.54872 10.9024 0.5
521 12.5641 9.41325 1.82181 0.5
522 2.71837 4.98048 3.83025 0.5
523 3.80655 4.5678 4.54755 0.5
524 2.09639 10.1874 2.91893 0.5
525 12.5106 6.67903 13.2897 0.5
526 5.16424 4.99983 2.91764 0.5
527 7.69773 3.67765 12.8662 0.5
528 4.74964 11.9664 8.29607 0.5
529 6.57538 10.6911 1.69796 0.5
530 1.96197 5.69945 13.0236 0.5
531 1.90373 11.0104 0.943474 0.5
532 11.4878 13.2643 4.30948 0.5
533 1.59857 12.6252 5.99212 0.5
534 9.64781 9.14592 5.23653 0.5
535 7.98968 12.7723 10.3584 0.5
536 2.90073 4.84227 3.48419 0.5
537 10.3622 2.90486 2.59842 0.5
538 5.93225 1.92843 2.33377 0.5
539 1.96672 12.1694 12.4145 0.5
540 8.05955 9.60859 7.20632 0.5
541 0.475249 8.12503 13.2184 0.5
542 9.92114 1.08494 3.95653 0.5
543 10.9442 4.57067 3.75199 0.5
544 7.99225 10.5773 0.507872 0.5
545 4.68015 8.43779 7.84376 0.5
546 1.43435 1.86079 4.89196 0.5
547 2.17107 4.46242 13.0707 0.5
548 10.6019 2.48584 1.67828 0.5
549 5.21091 7.70294 12.411 0.5
550 8.38702 11.4768 8.06684 0.5
551 6.08026 4.92887 2.74157 0.5
552 7.21041 10.914 6.86111 0.5
553 7.38784 9.69953 12.4485 0.5
554 5.7403 10.0333 6.71949 0.5
555 4.57434 7.29853 8.2154 0.5
556 7.36169 8.8171 9.00322 0.5
557 11.387 7.75011 1.33911 0.5
558 0.246809 0.177726 4.22935 0.5
559 8.03827 9.64685 10.794 0.5
560 4.07445 8.13848 11.9975 0.5
561 11.8319 7.0394 3.47343 0.5
562 1.9967 7.09437 6.5021 0.5
563 11.7755 4.9949 0.601743 0.5
564 5.16069 8.77688 2.6211 0.5
565 3.08534 4.53527 0.699849 0.5
566 9.07328 0.80152 11.7979 0.5
567 7.42837 3.83749 12.2417 0.5
568 1.13852 0.448214 5.52807 0.5
569 4.44145 10.4956 12.2637 0.5
570 8.17099 8.01378 2.02256 0.5
571 0.23525 1.81541 0.796285 0.5
572 7.52045 4.90028 9.2304 0.5
573 1.78212 6.08845 4.73326 0.5
574 8.62351 5.2369 6.17162 0.5
575 7.12652 11.787 5.97857 0.5
576 4.27168 2.26882 0.968171 0.5
577 8.75589 4.02519 13.086 0.5
578 10.085 1.66295 8.61434 0.5
579 11.4731 4.36973 5.86978 0.5
580 7.73648 13.5298 7.69404 0.5
581 9.06515 10.7493 12.6136 0.5
582 4.85779 11.7279 2.11955 0.5
583 8.05266 9.1765 3.90285 0.5
584 6.93121 6.72437 1.04209 0.5
585 8.32342 7.74594 6.06434 0.5
586 12.8683 4.0613 7.3458 0.5
587 6.84744 0.309014 10.3177 0.5
588 6.95478 4.57522 9.30725 0.5
589 4.01811 3.41821 12.3327 0.5
590 0.98737 12.4194 10.1527 0.5
591 3.32566 0.847364 13.1256 0.5
592 7.55268 2.2211 4.44529 0.5
593 11.0649 10.4613 4.0845 0.5
594 12.2053 10.0056 4.61136 0.5
595 10.403 2.44403 3.40729 0.5
596 0.83686 13.1148 5.44008 0.5
597 0.29427 2.24563 9.12851 0.5
598 7.13063 10.3225 8.71845 0.5
599 0.891854 6.18264 2.82956 0.5
600 4.79394 6.89669 11.0546 0.5
601 9.04054 5.54858 5.72894 0.5
602 3.35647 9.2838 12.6114 0.5
603 2.69874 12.7782 9.86862 0.5
604 4.90642 12.0077 9.41417 0.5
605 9.26095 2.13764 10.7795 0.5
606 11.9537 3.80606 13.5281 0.5
607 1.64369 12.6931 6.73919 0.5
608 13.4402 13.4843 6.34102 0.5
609 3.53698 1.93377 12.2591 0.5
610 2.57239 2.0315 11.9489 0.5
611 2.45511 7.46254 1.00805 0.5
612 8.42623 6.87406 9.37204 0.5
613 13.4207 7.1974 12.621 0.5
614 8.68665 10.4943 8.84322 0.5
615 4.12537 3.16581 7.98455 0.5
616 11.6766 0.910101 1.99 0.5
617 7.40277 7.36038 8.06651 0.5
618 10.5772 10.441 3.15819 0.5
619 3.77069 5.5128 0.636936 0.5
620 9.0523 5.6687 9.68289 0.5
621 5.35843 12.2643 0.608972 0.5
622 1.28353 12.3682 9.46855 0.5
623 0.531414 4.99514 4.37787 0.5
624 9.75827 1.35691 12.466 0.5
625 13.4366 0.469943 11.2831 0.5
626 0.506071 10.9812 6.14743 0.5
627 11.1693 13.4354 12.4091 0.5
628 6.17493 8.47864 12.8106 0.5
629 8.51967 5.65714 10.2379 0.5
630 11.4001 4.43143 12.0417 0.5
631 7.85022 1.3116 10.7692 0.5
632 8.81191 12.1259 10.5193 0.5
633 10.289 3.05603 4.05133 0.5
634 1.84615 12.1724 8.439 0.5
635 11.7194 9.78349 4.13453 0.5
636 7.80731 2.11081 8.24813 0.5
637 10.3736 11.203 11.3959 0.5
638 8.95523 0.983075 6.90398 0.5
639 5.7909 7.54953 5.63334 0.5
640 7.76687 11.2345 4.91146 0.5
641 13.008 10.2103 1.88632 0.5
642 0.50683 8.95268 10.9041 0.5
643 4.22121 2.49713 3.37823 0.5
644 10.9955 4.15076 6.98566 0.5
645 11.2271 0.595349 8.8471 0.5
646 7.14367 4.67766 1.31954 0.5
647 5.20528 12.9945 5.15777 0.5
648 1.77222 2.59739 9.35163 0.5
649 7.24547 8.4243 7.33102 0.5
650 2.34055 3.05445 7.92551 0.5
651 12.831 13.5158 6.2032 0.5
652 7.83028 6.94402 5.66921 0.5
653 9.05698 4.52034 9.21825 0.5
654 11.3239 6.99468 11.3243 0.5
655 6.02866 12.8123 2.32285 0.5
656 11.5866 9.65471 9.55276 0.5
657 8.71154 10.097 7.95931 0.5
658 9.93272 5.86958 2.0379 0.5
659 9.45207 6.13096 11.1772 0.5
660 4.37701 1.62346 6.39946 0.5
661 12.3861 8.10079 8.32616 0.5
662 2.47034 7.82588 9.00645 0.5
663 4.90141 8.35095 0.0923193 0.5
664 11.0496 10.5979 4.43161 0.5
665 8.20488 10.6194 1.00265 0.5
666 11.7293 12.7512 9.71135 0.5
667 7.69842 6.55622 5.71569 0.5
668 10.9828 4.64686 9.89284 0.5
669 7.44552 3.66475 3.17482 0.5
670 12.016 10.0236 1.91813 0.5
671 0.152614 10.6065 10.8731 0.5
672 9.6363 5.78272 2.99254 0.5
673 2.33786 1.65998 1.30799 0.5
674 1.80763 12.8919 7.05757 0.5
675 4.73837 5.76641 9.94333 0.5
676 12.1919 7.21415 7.56731 0.5
677 0.996658 1.02497 5.16061 0.5
678 12.1802 3.363 2.61536 0.5
679 8.9727 3.56915 5.09219 0.5
680 8.66773 10.7166 11.935 0.5
681 13.1026 8.41177 9.71335 0.5
682 6.10225 1.58599 5.65078 0.5
683 12.7003 4.37096 7.91516 0.5
684 13.085 11.3282 12.7739 0.5
685 7.95226 7.29589 11.6946 0.5
686 0.131268 4.37182 2.72388 0.5
687 8.45538 3.34986 11.733 0.5
688 8.79356 13.0804 9.17259 0.5
689 5.45004 3.94825 3.66453 0.5
690 0.628414 2.10895 9.3658 0.5
691 1.03712 3.52757 1.72028 0.5
692 2.45085 0.27501 0.742537 0.5
693 11.9592 11.5529 2.85038 0.5
694 9.32685 13.3695 4.41757 0.5
695 13.287 2.34059 12.3055 0.5
696 6.49402 2.75809 10.0794 0.5
697 5.90767 12.3745 1.85462 0.5
698 7.86491 5.7735 0.0883631 0.5
699 2.95513 13.037 12.0866 0.5
700 5.23167 4.88351 2.61819 0.5
701 0.710021 7.63062 11.2383 0.5
702 1.47528 3.4389 8.94592 0.5
703 2.51531 12.8351 6.56429 0.5
704 2.06724 11.0503 0.87506 0.5
705 5.14922 0.11598 4.8355 0.5
706 12.0235 12.4448 4.83516 0.5
707 12.7205 7.47509 4.66994 0.5
708 1.10829 4.36128 7.4548 0.5
709 10.3101 6.75581 2.97113 0.5
710 12.3745 9.07782 7.54646 0.5
711 3.45218 3.33703 10.9277 0.5
712 2.76357 12.1162 4.74924 0.5
713 10.0073 6.67319 7.01031 0.5
714 13.0177 6.71153 10.2906 0.5
715 12.4086 13.182 10.5581 0.5
716 4.93467 5.4345 7.93077 0.5
717 3.6675 10.4518 7.44059 0.5
718 8.03561 7.94609 12.7982 0.5
719 1.13031 10.5399 6.52698 0.5
720 13.2003 9.07006 0.821802 0.5
721 1.16035 12.7728 9.22778 0.5
722 3.57631 10.708 0.290461 0.5
723 7.53874 9.13024 12.3973 0.5
724 2.56508 3.58889 3.80446 0.5
725 3.7869 3.89954 1.24167 0.5
726 5.81264 9.34925 8.57094 0.5
727 0.143125 1.45113 8.86743 0.5
728 6.19867 11.1928 6.284 0.5
729 4.76023 5.36991 13.3452 0.5
730 4.58389 3.93916 5.63544 0.5
731 6.08183 13.1571 11.1947 0.5
732 7.49885 9.25885 0.988927 0.5
733 1.87066 4.2175 13.3323 0.5
734 3.9817 12.2455 11.695 0.5
735 6.467 3.91327 0.619145 0.5
736 7.71539 -0.00185349 8.57034 0.5
737 3.45251 6.28668 10.2789 0.5
738 7.24292 3.34374 4.08302 0.5
739 2.68467 2.24502 2.49119 0.5
740 8.13025 3.27957 0.593688 0.5
741 4.4633 0.775904 2.76878 0.5
742 8.31256 12.6313 4.20645 0.5
743 8.81548 5.45418 1.55207 0.5
744 9.65229 8.39178 8.71586 0.5
745 11.8811 8.86513 8.75724 0.5
746 11.1785 7.37442 8.08612 0.5
747 10.6898 1.55659 7.12373 0.5
748 2.00343 12.4004 4.85317 0.5
749 13.3476 1.95624 1.87759 0.5
750 0.525461 1.04384 3.69179 0.5
751 7.1367 4.22646 0.537913 0.5
752 3.50486 5.99804 3.30157 0.5
753 2.77561 3.99329 1.3173 0.5
754 5.10391 5.10949 1.08647 0.5
755 8.42814 12.0904 9.94667 0.5
756 10.8669 5.64695 2.21694 0.5
757 3.80864 4.06395 5.82055 0.5
758 3.6862 4.47382 8.3112 0.5
759 2.33586 12.5227 0.780527 0.5
760 3.97158 12.2085 12.8224 0.5
761 5.69242 1.37378 13.2998 0.5
762 12.0407 5.11265 12.4623 0.5
763 4.35385 4.22595 12.9182 0.5
764 12.0441 7.71963 4.51041 0.5
765 3.88598 9.60172 9.22266 0.5
766 0.729189 13.1219 1.34308 0.5
767 2.86079 3.34266 11.1759 0.5
768 7.81414 10.0131 1.08051 0.5
769 12.3795 2.878 1.55528 0.5
770 11.2036 5.22861 11.3091 0.5
771 4.12724 0.685943 8.46673 0.5
772 8.92682 3.01899 10.5493 0.5
773 0.604704 7.57433 0.100326 0.5
774 13.1525 9.49622 3.16803 0.5
775 2.62563 4.96172 0.828688 0.5
776 5.71602 2.67837 9.81729 0.5
777 2.75509 7.77889 0.337839 0.5
778 9.78075 3.03728 7.60628 0.5
779 10.3706 0.226317 4.29469 0.5
780 7.60557 12.7707 2.52866 0.5
781 3.85246 10.2628 7.17201 0.5
782 0.810709 8.74018 2.1855 0.5
783 4.57656 6.03883 11.9412 0.5
784 9.73458 0.961656 11.3843 0.5
785 10.0054 8.02966 2.3559 0.5
786 3.8814 11.5408 4.18978 0.5
787 0.367306 4.05439 5.20552 0.5
788 3.24529 6.20744 0.4275 0.5
789 12.2684 6.85514 2.98002 0.5
790 11.5729 8.4072 11.883 0.5
791 1.02781 11.3376 12.5168 0.5
792 8.54794 3.52585 6.54526 0.5
793 10.6668 7.08905 6.1225 0.5
794 6.1683 1.05312 2.45373 0.5
795 0.395606 10.8312 9.74017 0.5
796 13.1431 10.9148 3.6107 0.5
797 2.59061 12.7771 9.41848 0.5
798 12.1829 12.9206 3.72924 0.5
799 4.52657 3.43186 13.2014 0.5
800 -0.0140438 8.62474 0.437627 0.5
801 7.00641 5.01281 2.7032 0.5
802 6.18961 5.80387 3.44837 0.5
803 9.62089 5.78757 12.7174 0.5
804 5.96455 5.42949 10.6255 0.5
805 8.79745 9.65807 7.06696 0.5
806 11.6276 10.0833 6.12613 0.5
807 6.06345 1.91507 12.5592 0.5
808 9.47876 3.07657 11.0401 0.5
809 2.44057 12.5223 4.80767 0.5
810 10.451 12.329 4.3067 0.5
811 2.07306 2.50476 0.639553 0.5
812 11.2853 9.75326 8.33222 0.5
813 6.48302 7.57688 9.97099 0.5
814 6.19227 3.31468 12.7732 0.5
815 8.42623 6.52882 0.759893 0.5
816 12.8884 13.2913 12.3577 0.5
817 5.10869 7.74646 0.501682 0.5
818 13.259 11.323 7.19619 0.5
819 1.57117 5.20732 13.4968 0.5
820 7.2912 4.55649 6.12358 0.5
821 10.2419 12.1763 11.6834 0.5
822 7.84415 12.953 5.66045 0.5
823 7.21859 1.60176 6.81125 0.5
824 12.3539 0.220516 5.60313 0.5
825 7.89992 13.2055 10.5682 0.5
826 11.1469 9.90187 11.7781 0.5
827 4.75084 1.32737 3.6899 0.5
828 2.85987 1.44809 1.52276 0.5
829 5.71458 8.18368 5.5143 0.5
830 1.76705 7.78442 4.39176 0.5
831 4.14313 10.7007 9.53709 0.5
832 10.7519 9.19511 6.62492 0.5
833 5.58707 6.44379 7.4698 0.5
834 5.4076 1.54954 6.22229 0.5
835 5.88047 12.2028 6.41046 0.5
836 2.82373 1.50995 6.92272 0.5
837 4.23 6.13686 8.74968 0.5
838 11.2712 12.6163 4.91202 0.5
839 3.62321 10.2935 6.07805 0.5
840 3.12114 12.8252 12.0609 0.5
841 10.4729 0.469848 5.53477 0.5
842 6.45637 7.05648 5.42762 0.5
843 4.65875 4.1352 1.57976 0.5
844 10.6461 4.33481 5.98693 0.5
845 7.35387 5.04366 0.0168607 0.5
846 2.19792 10.5587 5.06003 0.5
847 7.01015 1.35755 3.83911 0.5
848 9.76226 0.533311 0.810093 0.5
849 6.35284 5.94344 7.97489 0.5
850 1.15279 8.92688 9.88309 0.5
851 8.72404 13.1459 3.10259 0.5
852 8.78605 3.89432 4.68104 0.5
853 7.18827 10.9816 2.87949 0.5
854 11.3132 0.753608 2.35995 0.5
855 1.80852 2.87541 10.3422 0.5
856 3.76578 4.12066 0.149099 0.5
857 0.716199 12.7892 12.6483 0.5
858 4.53162 6.38669 13.2803 0.5
859 9.92264 2.56245 1.16986 0.5
860 7.97093 11.3126 11.3923 0.5
861 3.37448 2.78704 0.075949 0.5
862 2.53792 2.11764 4.25041 0.5
863 2.8848 8.99464 1.13718 0.5
864 1.25369 8.74973 0.577019 0.5
865 6.66581 3.04228 0.425939 0.5
866 1.41537 0.600666 12.0847 0.5
867 9.38841 6.70163 1.78228 0.5
868 5.44251 5.31777 3.64627 0.5
869 11.6279 9.24888 2.38109 0.5
870 1.69819 0.977325 10.2158 0.5
871 1.26821 4.06378 6.31195 0.5
872 6.68367 12.6282 5.0626 0.5
873 5.00323 5.38833 0.740522 0.5
874 1.22284 8.5371 9.34277 0.5
875 4.77078 7.18091 3.38083 0.5
876 6.55716 2.33653 8.67067 0.5
877 10.2743 9.20533 6.45288 0.5
878 1.60209 2.38672 12.9668 0.5
879 7.25396 1.142 5.16748 0.5
880 3.62134 6.48461 8.64621 0.5
881 9.61994 9.89477 11.59 0.5
882 4.64332 7.25583 1.12783 0.5
883 1.19188 1.14336 5.20513 0.5
884 1.79381 1.46021 12.8797 0.5
885 1.33749 3.77199 12.8913 0.5
886 4.01667 7.21944 9.82896 0.5
887 6.06677 11.964 12.842 0.5
888 2.81776 11.3019 3.12938 0.5
889 1.75638 10.8674 4.74095 0.5
890 3.04464 13.2467 5.06284 0.5
891 8.84489 10.5181 11.2953 0.5
892 2.92265 10.9336 1.51736 0.5
893 0.471122 6.40689 12.6847 0.5
894 7.58676 4.61752 0.809927 0.5
895 13.086 9.10252 5.83104 0.5
896 11.2823 11.9401 10.2315 0.5
897 6.01191 5.12048 6.18903 0.5
898 8.72894 5.31918 9.30458 0.5
899 9.16026 12.0311 10.9144 0.5
900 9.87264 10.7349 11.1047 0.5
901 3.18572 3.34813 9.54994 0.5
902 3.82246 1.49363 7.78252 0.5
903 6.5965 7.30053 6.56475 0.5
904 6.31043 0.500192 9.63591 0.5
905 5.73666 2.19566 8.02674 0.5
906 8.42238 8.82716 1.00511 0.5
907 8.11689 4.52057 0.229313 0.5
908 10.4387 1.45632 9.22247 0.5
909 8.16728 11.2719 13.2845 0.5
910 10.812 3.86038 4.60513 0.5
911 2.15765 1.77138 1.7079 0.5
912 7.79821 1.39071 6.94602 0.5
913 5.16515 3.71628 11.7215 0.5
914 8.82328 5.09254 1.09393 0.5
915 10.2473 9.00554 0.65489 0.5
916 5.28187 13.2712 0.397852 0.5
917 6.06544 13.4051 2.22389 0.5
918 1.63094 3.60117 8.47461 0.5
919 2.69606 7.83792 10.3052 0.5
920 11.9791 2.68335 10.2805 0.5
921 12.931 3.12283 10.0705 0.5
922 11.1992 10.5171 5.02301 0.5
923 10.9461 7.38699 10.4389 0.5
924 9.27477 10.3377 11.1173 0.5
925 3.19854 12.3924 0.338086 0.5
926 4.85018 3.29201 0.174939 0.5
927 10.5376 4.53117 1.73467 0.5
928 7.86517 8.23728 12.2184 0.5
929 13.2528 2.87185 10.9016 0.5
930 4.11269 11.5185 8.57828 0.5
931 8.48369 1.40905 10.0389 0.5
932 5.4233 3.30061 11.4425 0.5
933 1.77586 11.6662 4.32053 0.5