ITEM: TIMESTEP
540000
ITEM: NUMBER OF ATOMS
1000
ITEM: BOX BOUNDS xy xz yz pp pp pp
0.0000000000000000e+00 1.3572088000000001e+01 0.0000000000000000e+00
0.0000000000000000e+00 1.3572088000000001e+01 0.0000000000000000e+00
0.0000000000000000e+00 1.3572088000000001e+01 0.0000000000000000e+00
ITEM: ATOMS id x y z radius
1 2.28106 11.1458 6.90386 0.5
2 4.87644 5.96354 5.97292 0.5
3 5.23599 0.785896 5.70419 0.5
4 6.58695 3.69596 0.078951 0.5
5 12.456 1.46998 6.94467 0.5
6 3.51483 2.45977 3.21153 0.5
7 13.0239 9.7165 6.10674 0.5
8 10.9 2.72447 0.380254 0.5
9 12.2907 6.67906 6.69807 0.5
10 2.09462 8.5317 8.71092 0.5
11 1.78691 6.66389 6.03607 0.5
12 5.30665 2.51955 6.57105 0.5
13 0.441511 4.76619 9.94277 0.5
14 4.80619 12 12.1567 0.5
15 9.4619 5.54063 4.08201 0.5
16 13.1165 0.512811 12.9145 0.5
17 9.65891 1.38097 0.455255 0.5
18 4.23994 3.36142 0.867093 0.5
19 13.5184 10.9007 3.94217 0.5
20 1.53068 5.16343 3.19138 0.5
21 1.83766 0.882543 2.85008 0.5
22 4.61258 12.4936 3.66759 0.5
23 12.9627 6.54009 6.93726 0.5
24 4.15351 3.41656 6.28746 0.5
25 5.43082 2.9818 8.01524 0.5
26 6.14889 13.5723 5.01505 0.5
27 0.989462 10.977 11.7634 0.5
28 6.96473 13.0962 9.16183 0.5
29 7.2309 0.194015 4.27435 0.5
30 6.88656 4.11861 7.02807 0.5
31 1.70497 2.68103 9.56069 0.5
32 5.11419 4.6987 8.01434 0.5
33 5.595 12.4217 11.518 0.5
34 10.6081 0.713651 0.838486 0.5
35 1.65227 10.7248 7.25282 0.5
36 2.04594 13.464 2.65066 0.5
37 9.54635 10.6886 13.0899 0.5
38 4.366 10.4284 6.99285 0.5
39 0.400712 1.55827 11.2739 0.5
40 4.3406 12.5633 6.74058 0.5
41 5.15575 1.04485 7.23944 0.5
42 8.187 2.88402 5.45575 0.5
43 3.55112 7.19182 8.98211 0.5
44 7.50354 3.61232 4.34623 0.5
45 1.81068 0.660595 7.64635 0.5
46 13.0322 13.4106 12.7535 0.5
47 9.44599 0.0669795 6.00029 0.5
48 10.0677 7.93803 10.3385 0.5
49 12.0185 5.16924 3.16818 0.5
50 6.29186 6.46922 11.2011 0.5
51 6.50385 10.5429 11.37 0.5
52 4.0631 3.11792 12.3134 0.5
53 0.71279 9.80828 6.56198 0.5
54 12.2555 0.0832578 2.56283 0.5
55 4.60414 1.43746 9.17612 0.5
56 0.590974 4.68235 4.51145 0.5
57 9.87383 5.87287 6.80474 0.5
58 8.15446 3.99743 1.1584 0.5
59 12.5315 11.8586 8.19302 0.5
60 0.218604 13.386 11.206 0.5
61 6.11191 4.45016 6.50892 0.5
62 7.84726 11.6067 10.9013 0.5
63 4.10942 5.94764 11.9608 0.5
64 6.84676 13.4889 5.80907 0.5
65 0.318276 12.1109 1.82004 0.5
66 1.87777 2.71505 6.62359 0.5
67 1.8606 8.56945 12.5447 0.5
68 10.26 10.6218 11.8536 0.5
69 6.46958 9.03835 10.8267 0.5
70 7.9507 4.13678 9.6845 0.5
71 11.7951 0.446935 7.46896 0.5
72 12.5562 5.46078 10.1446 0.5
73 2.48218 4.53451 8.85641 0.5
74 12.8649 4.00514 1.8172 0.5
75 11.5791 11.7835 10.4644 0.5
76 6.12567 10.3392 4.34211 0.5
77 8.49254 10.0185 10.4323 0.5
78 4.28501 1.15082 6.09255 0.5
79 6.61479 9.37038 11.6497 0.5
80 5.70871 11.9579 4.85039 0.5
81 8.33006 7.07628 0.433383 0.5
82 1.54733 3.62155 3.15695 0.5
83 4.23458 11.9778 7.37061 0.5
84 4.97233 6.20651 8.60746 0.5
85 3.22463 2.11 3.48232 0.5
86 3.29745 2.7257 7.05154 0.5
87 9.37253 1.32201 3.0286 0.5
88 3.27757 13.0367 12.0727 0.5
89 4.24552 5.95206 0.0231459 0.5
90 4.35369 10.0161 11.1935 0.5
91 2.06672 12.8076 5.34468 0.5
92 1.89258 7.28141 6.42249 0.5
93 4.38742 6.87543 10.0918 0.5
94 0.360823 6.99694 6.08055 0.5
95 7.03902 7.78759 5.75121 0.5
96 9.35131 3.53303 7.5568 0.5
97 5.35144 8.79126 8.20146 0.5
98 1.01539 2.86991 1.73278 0.5
99 9.10925 4.03057 2.35537 0.5
100 13.4294 2.09271 7.29491 0.5
101 2.6213 12.2668 0.799658 0.5
102 6.7299 6.84001 7.22649 0.5
103 3.96267 10.3064 6.67933 0.5
104 8.4448 6.67759 0.540662 0.5
105 0.116196 9.40775 8.29299 0.5
106 10.4163 12.9163 10.16 0.5
107 12.4359 1.9117 6.27214 0.5
108 5.08055 12.4805 10.4104 0.5
109 6.99746 13.5041 3.6034 0.5
110 10.2833 0.695597 8.8996 0.5
111 12.2932 10.4248 10.0697 0.5
112 13.1823 9.71615 12.1073 0.5
113 10.7578 7.67531 0.138434 0.5
114 4.84253 8.17896 1.0989 0.5
115 2.6241 2.38248 6.98001 0.5
116 3.06877 5.0874 12.0247 0.5
117 10.2397 10.7302 1.58894 0.5
118 2.22741 12.0586 12.0771 0.5
119 3.69304 1.7671 8.82182 0.5
120 13.0288 13.4831 5.23835 0.5
121 9.51397 1.2836 3.41373 0.5
122 2.50978 10.1958 13.5255 0.5
123 2.10832 11.6138 0.0274758 0.5
124 0.703963 10.1533 0.285166 0.5
125 2.11133 11.8963 11.477 0.5
126 11.6385 7.62483 10.3445 0.5
127 11.4955 9.20701 5.56514 0.5
128 6.56504 11.8939 12.536 0.5
129 1.99968 0.770157 13.3421 0.5
130 9.19793 1.63051 0.899988 0.5
131 12.8332 7.63025 7.59989 0.5
132 7.46504 10.6717 5.66109 0.5
133 0.503618 13.2825 6.80933 0.5
134 5.12367 1.87539 5.45262 0.5
135 8.84274 10.8747 9.77359 0.5
136 0.828979 5.89212 9.74282 0.5
137 6.87383 8.319 10.3098 0.5
138 8.00142 2.12684 10.2935 0.5
139 6.72827 9.60152 8.87185 0.5
140 1.45984 6.80298 10.2718 0.5
141 0.213982 7.05982 9.97133 0.5
142 0.881196 5.44478 10.0946 0.5
143 6.83925 10.6701 2.22082 0.5
144 11.7775 8.60349 3.9272 0.5
145 6.91556 5.35034 2.1848 0.5
146 3.57932 13.1748 2.94108 0.5
147 2.9193 9.3768 10.968 0.5
148 4.40678 8.6474 3.39204 0.5
149 10.2665 11.8896 3.60145 0.5
150 5.40729 5.93158 10.3128 0.5
151 11.2129 4.68318 7.12927 0.5
152 10.1817 7.35862 3.43993 0.5
153 4.28724 13.1406 3.69681 0.5
154 3.54557 12.6166 3.10902 0.5
155 11.5235 7.40489 9.13201 0.5
156 0.599856 9.29524 10.2724 0.5
157 2.52216 0.726735 13.32 0.5
158 5.10049 11.6148 3.872 0.5
159 7.08189 6.61197 3.69435 0.5
160 5.18735 6.57959 2.04763 0.5
161 12.2127 5.39297 6.21227 0.5
162 2.44609 0.556659 7.79617 0.5
163 11.9697 8.22361 10.2372 0.5
164 7.25454 13.479 12.8869 0.5
165 11.1196 8.26876 11.8193 0.5
166 9.00038 5.62933 1.87434 0.5
167 5.01452 7.25385 0.962298 0.5
168 6.58169 1.63263 6.36506 0.5
169 7.23442 11.6183 6.12804 0.5
170 7.19319 0.503026 11.1181 0.5
171 12.1779 1.678 8.57811 0.5
172 13.4675 7.88642 11.8897 0.5
173 1.34224 2.93085 7.18371 0.5
174 13.0603 4.94415 10.2249 0.5
175 7.3189 12.7269 5.33074 0.5
176 10.2055 0.557777 11.1916 0.5
177 6.17929 3.45147 4.7826 0.5
178 11.4065 1.58124 3.7831 0.5
179 8.23886 13.1761 0.101188 0.5
180 3.39575 7.61325 3.65318 0.5
181 1.91014 12.189 10.5111 0.5
182 7.70479 0.337235 6.58316 0.5
183 0.964352 8.24949 8.52976 0.5
184 5.10141 7.99135 11.3482 0.5
185 9.50252 4.07597 5.48663 0.5
186 2.40354 2.32058 12.4585 0.5
187 6.6251 8.81511 8.15321 0.5
188 3.70907 8.57396 3.53917 0.5
189 2.73665 11.365 9.30704 0.5
190 11.5773 13.5732 7.18387 0.5
191 7.34092 8.06687 7.91399 0.5
192 7.73571 10.8516 0.117847 0.5
193 0.456604 0.457546 10.1601 0.5
194 3.40061 2.38976 8.84498 0.5
195 13.4946 4.19976 12.2553 0.5
196 9.14428 6.08383 9.48118 0.5
197 0.315542 9.57273 2.94827 0.5
198 11.6724 7.74965 9.94848 0.5
199 9.87402 2.65377 6.3838 0.5
200 0.103405 1.09763 12.5925 0.5
201 3.71893 6.78743 2.3908 0.5
202 10.8577 13.3817 11.7403 0.5
203 2.77146 9.45568 3.56485 0.5
204 1.78001 9.29266 2.24416 0.5
205 9.22173 8.81 3.58254 0.5
206 13.0494 13.511 12.0858 0.5
207 4.13275 1.45988 6.69954 0.5
208 0.454661 6.90862 9.58418 0.5
209 2.79732 5.42639 11.6421 0.5
210 9.30723 13.2188 2.34481 0.5
211 13.2409 9.17403 7.82247 0.5
212 2.89356 5.55648 2.26431 0.5
213 5.65514 12.1279 7.27491 0.5
214 11.4775 8.07307 8.54003 0.5
215 4.15938 2.40032 11.7969 0.5
216 3.45158 11.4405 8.06594 0.5
217 9.85748 1.43354 9.6569 0.5
218 13.2036 0.114373 4.84866 0.5
219 2.25899 8.89848 8.33145 0.5
220 0.399047 5.73541 8.64967 0.5
221 12.3154 10.1479 12.493 0.5
222 4.63184 2.86366 12.1474 0.5
223 7.15361 3.74404 1.67235 0.5
224 9.99206 12.5251 13.0629 0.5
225 3.53233 5.48721 7.14531 0.5
226 10.4443 4.59981 12.2992 0.5
227 11.2341 2.89622 1.09545 0.5
228 8.58463 8.89719 5.21741 0.5
229 5.89137 9.34112 7.45217 0.5
230 8.18088 7.06324 10.4254 0.5
231 6.56954 1.95701 5.30614 0.5
232 4.30492 4.83379 7.82757 0.5
233 5.5917 12.2603 12.7489 0.5
234 4.21054 12.1933 3.94111 0.5
235 3.4723 10.4577 10.0989 0.5
236 13.4883 10.5475 5.29956 0.5
237 10.5754 10.0454 1.62544 0.5
238 9.57368 11.5742 8.28804 0.5
239 1.78062 8.85921 13.5291 0.5
240 9.04516 4.73356 9.29347 0.5
241 5.94971 0.470235 1.00644 0.5
242 3.46009 5.08612 8.72906 0.5
243 3.29891 5.58129 7.19468 0.5
244 1.48757 8.99425 9.20693 0.5
245 9.43186 11.132 11.1476 0.5
246 6.07993 7.02202 10.2346 0.5
247 1.58925 4.42468 9.44881 0.5
248 2.54201 12.8984 11.1215 0.5
249 1.86194 0.717169 12.9915 0.5
250 5.72271 9.41308 9.88716 0.5
251 3.71058 12.3608 7.4886 0.5
252 2.11544 13.0903 2.3357 0.5
253 4.2609 2.04788 10.2379 0.5
254 7.50719 13.4561 8.07354 0.5
255 10.313 13.0993 5.05385 0.5
256 9.08381 6.19573 0.741931 0.5
257 4.04432 2.02388 1.79025 0.5
258 12.3891 9.58943 7.65099 0.5
259 7.62868 7.35815 1.28548 0.5
260 1.44146 0.740347 6.48934 0.5
261 11.2203 12.1205 9.10837 0.5
262 1.71182 11.9772 12.5625 0.5
263 3.66906 0.924503 5.57019 0.5
264 5.44919 1.79383 3.59997 0.5
265 10.7654 10.3786 1.81826 0.5
266 10.4859 4.30989 12.1886 0.5
267 5.25491 6.7775 5.70521 0.5
268 3.82631 12.8301 8.03597 0.5
269 10.2104 8.18557 11.8216 0.5
270 2.18015 0.0135563 3.43054 0.5
271 2.79877 6.05074 8.76422 0.5
272 6.03848 8.3796 0.320252 0.5
273 4.74347 1.62523 7.25739 0.5
274 13.3246 10.4758 5.56768 0.5
275 8.97757 10.665 1.86126 0.5
276 10.3842 7.4698 9.34459 0.5
277 1.3529 5.99091 13.5116 0.5
278 0.749044 12.3604 4.75683 0.5
279 5.20147 6.33765 12.2233 0.5
280 5.93993 8.87615 11.0739 0.5
281 10.2027 13.3802 0.883953 0.5
282 11.7228 12.8957 7.79153 0.5
283 7.4724 10.8379 10.183 0.5
284 2.37013 4.2165 10.6867 0.5
285 3.26329 6.93187 8.50096 0.5
286 5.24243 2.90688 2.00295 0.5
287 8.58616 1.08369 3.32905 0.5
288 6.6413 5.2061 6.46692 0.5
289 11.1993 2.62749 8.83729 0.5
290 5.9379 12.8554 11.7726 0.5
291 11.9833 1.49667 0.821505 0.5
292 6.29721 6.62244 9.43148 0.5
293 1.41296 8.61615 9.3212 0.5
294 2.30159 5.9397 13.2912 0.5
295 12.3456 7.33956 6.15144 0.5
296 9.87136 1.89179 7.56778 0.5
297 12.4015 5.57273 11.8534 0.5
298 4.89311 5.88416 13.0595 0.5
299 7.74376 8.8742 7.27691 0.5
300 8.89226 4.88169 4.86699 0.5
301 2.04593 2.65331 10.6671 0.5
302 0.71992 1.92969 5.18335 0.5
303 6.75882 1.91713 13.3824 0.5
304 12.9366 9.27709 1.27156 0.5
305 2.57595 8.69959 1.484 0.5
306 2.77553 1.8738 1.35793 0.5
307 2.31294 2.69409 2.66943 0.5
308 13.2189 8.24706 1.76867 0.5
309 7.87297 13.4012 4.08799 0.5
310 1.25754 13.035 10.7266 0.5
311 11.5295 3.84958 9.76 0.5
312 5.77602 7.07779 7.96981 0.5
313 10.9295 3.78395 8.2082 0.5
314 11.3053 3.79721 8.61178 0.5
315 1.21735 5.98692 9.85701 0.5
316 4.44235 9.30087 13.3291 0.5
317 7.91491 0.286226 4.11493 0.5
318 0.313308 5.63194 0.992149 0.5
319 8.5433 4.54046 12.3647 0.5
320 3.86645 4.53682 0.683808 0.5
321 11.2069 3.74469 10.7413 0.5
322 8.60615 2.19554 11.8867 0.5
323 12.6198 2.64048 13.123 0.5
324 2.83085 4.80694 13.4699 0.5
325 12.6022 10.9895 7.55623 0.5
326 0.26426 8.98767 8.79104 0.5
327 2.72393 13.2544 2.93554 0.5
328 8.77638 7.25145 10.7646 0.5
329 2.959 7.7631 0.890659 0.5
330 12.7013 6.41322 6.43261 0.5
331 6.50007 12.3011 11.0745 0.5
332 2.42842 2.11328 12.8125 0.5
333 1.79574 1.74248 4.9353 0.5
334 5.0502 10.6136 12.9331 0.5
335 1.44428 12.2918 5.0576 0.5
336 6.89496 8.24243 1.98484 0.5
337 11.0847 12.5788 2.94656 0.5
338 2.13062 4.3708 12.6945 0.5
339 1.27256 11.8842 6.57305 0.5
340 4.06496 1.69469 0.302751 0.5
341 12.6483 7.42441 8.65782 0.5
342 11.9544 4.554 6.56889 0.5
343 1.3656 11.0958 2.51977 0.5
344 11.2107 1.59573 12.4828 0.5
345 10.0516 3.70893 13.0091 0.5
346 10.2295 0.189976 11.0351 0.5
347 2.9009 3.21853 2.07068 0.5
348 0.73503 5.69585 3.90075 0.5
349 8.46658 11.1369 11.9724 0.5
350 7.34904 7.31339 1.19596 0.5
351 10.5881 0.226968 4.46985 0.5
352 10.4102 11.2517 10.4344 0.5
353 0.70068 0.911554 2.64558 0.5
354 2.18941 5.81736 9.45921 0.5
355 12.5283 2.09381 8.61891 0.5
356 10.3069 9.41198 12.2377 0.5
357 6.72376 12.7262 9.35847 0.5
358 12.8635 6.89508 11.6442 0.5
359 4.69105 3.15684 7.56304 0.5
360 8.62048 2.51807 3.94096 0.5
361 1.02262 9.66865 9.83589 0.5
362 2.91076 2.98614 8.69524 0.5
363 12.0218 9.54116 9.5391 0.5
364 13.4327 7.08863 10.5569 0.5
365 7.44603 4.74888 10.4264 0.5
366 12.1452 3.96557 10.5417 0.5
367 2.75343 7.59314 10.2804 0.5
368 3.22202 10.1881 8.47593 0.5
369 6.01773 2.371 5.08829 0.5
370 10.8471 3.52206 3.05719 0.5
371 6.92028 9.27704 2.53495 0.5
372 12.9807 5.71167 11.7951 0.5
373 10.1046 12.7914 8.84219 0.5
374 3.60769 6.72349 4.16003 0.5
375 3.58238 13.3948 11.497 0.5
376 3.29491 7.86298 7.4002 0.5
377 5.06221 4.97628 13.3231 0.5
378 8.61838 3.43379 7.70989 0.5
379 10.9617 11.6323 12.197 0.5
380 12.9506 5.95203 1.78871 0.5
381 3.62273 2.22864 11.9949 0.5
382 1.46949 1.11349 9.46814 0.5
383 11.2752 4.66398 8.27805 0.5
384 2.94346 8.03976 7.45042 0.5
385 12.4925 10.9279 8.73943 0.5
386 8.67752 2.14134 5.67811 0.5
387 1.84708 5.76187 1.29121 0.5
388 11.7056 0.486111 0.684927 0.5
389 2.89771 4.70135 11.7797 0.5
390 1.64211 1.34653 9.60912 0.5
391 0.935183 10.859 0.676068 0.5
392 12.4303 10.8061 7.79492 0.5
393 5.56695 8.17238 0.330066 0.5
394 4.61334 1.05351 0.216167 0.5
395 0.698493 8.07878 10.1515 0.5
396 0.0810466 7.72486 5.35646 0.5
397 4.31856 4.05678 11.8048 0.5
398 8.4049 1.66262 7.03633 0.5
399 6.64773 10.9803 4.58903 0.5
400 13.2316 11.2068 4.72989 0.5
401 11.5941 6.04166 3.20256 0.5
402 3.31817 4.6241 12.762 0.5
403 5.70669 12.741 3.42295 0.5
404 12.1252 10.7238 5.23736 0.5
405 9.1879 1.77358 12.6782 0.5
406 1.0572 10.5962 2.62508 0.5
407 0.00892702 12.9599 3.05238 0.5
408 12.6109 3.00776 11.9335 0.5
409 5.54215 6.81327 7.25761 0.5
410 9.41989 13.5526 0.51905 0.5
411 10.7687 9.40337 10.4335 0.5
412 13.0929 4.30972 0.954959 0.5
413 8.23164 8.84306 6.50748 0.5
414 6.88481 10.0258 0.922053 0.5
415 3.52745 11.6501 12.1735 0.5
416 10.0666 2.53083 3.60049 0.5
417 12.1175 0.349119 9.27277 0.5
418 6.88216 13.1717 1.96001 0.5
419 10.6139 12.6324 10.499 0.5
420 5.33464 6.69259 9.73843 0.5
421 2.90905 1.20144 1.67347 0.5
422 10.3512 4.76252 5.1166 0.5
423 8.62296 2.35356 3.11739 0.5
424 7.30617 2.42557 3.20948 0.5
425 12.3875 2.25194 8.50265 0.5
426 2.86549 4.66326 9.03696 0.5
427 4.90861 12.4473 5.36562 0.5
428 10.6899 6.10721 8.67425 0.5
429 0.557286 11.7096 12.112 0.5
430 0.129178 3.25182 5.82643 0.5
431 7.4881 3.39358 7.28847 0.5
432 1.95366 13.5534 2.57551 0.5
433 4.01243 11.7706 2.88087 0.5
434 4.19639 11.7065 2.84784 0.5
435 10.5393 0.794529 3.91131 0.5
436 7.93714 6.85157 11.7754 0.5
437 5.71325 7.45366 11.2456 0.5
438 12.7294 4.06469 1.72482 0.5
439 6.79369 2.63417 3.44374 0.5
440 11.4149 6.70076 2.01782 0.5
441 5.06319 11.1854 5.8019 0.5
442 4.2153 9.38821 7.22414 0.5
443 3.99547 0.597369 5.89714 0.5
444 3.10195 8.47763 3.54766 0.5
445 12.6448 3.15883 13.0474 0.5
446 12.8062 9.27535 10.2237 0.5
447 7.724 11.6591 9.48374 0.5
448 8.02417 5.63539 12.6228 0.5
449 8.4889 11.0332 5.53288 0.5
450 0.968516 1.96723 7.30561 0.5
451 9.65561 2.03161 11.613 0.5
452 1.42265 10.3535 6.91142 0.5
453 5.79105 9.84878 13.0353 0.5
454 6.24198 10.4406 8.18753 0.5
455 0.049638 6.89254 9.31828 0.5
456 7.05548 3.68226 10.8949 0.5
457 11.1504 11.2999 6.35045 0.5
458 7.84427 12.8993 0.830997 0.5
459 6.2422 6.60305 3.16294 0.5
460 7.42194 4.89475 5.04386 0.5
461 7.91402 0.681579 0.714095 0.5
462 5.60074 11.8661 2.04949 0.5
463 5.94359 11.4929 9.39781 0.5
464 1.46369 12.5702 10.6139 0.5
465 9.18445 2.28164 0.685202 0.5
466 3.40795 0.30077 6.48065 0.5
467 13.4245 0.506397 12.2641 0.5
468 1.43728 10.0559 10.592 0.5
469 0.246889 0.569552 9.96879 0.5
470 5.80463 5.25183 2.04569 0.5
471 11.3835 1.77483 3.87187 0.5
472 10.1875 12.6898 0.845734 0.5
473 0.382318 7.31522 0.131719 0.5
474 3.07169 6.01093 12.5984 0.5
475 2.28683 1.22937 2.457 0.5
476 3.76929 6.77654 10.9084 0.5
477 4.73097 9.44553 0.586518 0.5
478 10.1788 2.08913 12.3412 0.5
479 4.58733 12.1764 7.75702 0.5
480 2.47048 13.1933 10.4772 0.5
481 2.65489 5.86989 10.4207 0.5
482 8.34456 13.3531 7.09571 0.5
483 3.72164 2.41371 9.01437 0.5
484 10.4077 3.41675 1.10986 0.5
485 1.07576 2.05508 11.5796 0.5
486 12.6479 4.66388 4.76482 0.5
487 0.430739 6.97896 3.03175 0.5
488 2.0055 6.71107 4.63145 0.5
489 6.54116 0.871881 3.43514 0.5
490 12.0171 3.68956 8.29147 0.5
491 13.3689 0.222606 5.98688 0.5
492 3.29265 12.9902 2.02053 0.5
493 12.9698 1.37339 0.512392 0.5
494 3.98298 9.71617 0.460014 0.5
495 7.8142 7.7393 5.61793 0.5
496 5.10162 3.97161 2.7192 0.5
497 1.79819 1.14189 9.76181 0.5
498 4.16452 10.6617 12.481 0.5
499 4.62657 4.42138 4.35147 0.5
500 5.93446 12.9726 0.733901 0.5
501 10.2994 11.357 12.8829 0.5
502 11.5807 11.6869 3.82482 0.5
503 8.78865 5.42804 6.05612 0.5
504 0.195945 9.76869 3.2616 0.5
505 12.4113 1.09505 6.08519 0.5
506 2.50804 9.38241 2.15473 0.5
507 8.55277 0.263883 10.3279 0.5
508 8.4565 4.97984 0.198344 0.5
509 9.44835 5.61875 1.06224 0.5
510 12.8237 10.8165 4.27059 0.5
511 7.33017 12.1322 13.1504 0.5
512 9.89152 10.4875 4.35006 0.5
513 9.84987 4.97106 5.13938 0.5
514 2.72219 7.44399 9.48602 0.5
515 0.785085 0.998769 7.37985 0.5
516 4.43287 4.6717 5.66566 0.5
517 2.05959 6.60114 1.33034 0.5
518 2.05453 11.0596 9.922 0.5
519 4.43603 11.4594 9.54972 0.5
520 2.14002 7.67157 5.29459 0.5
521 12.0489 6.22003 7.14323 0.5
522 0.897595 6.87998 4.42813 0.5
523 10.1805 12.0848 1.90226 0.5
524 8.75447 8.38916 7.74129 0.5
525 10.6608 0.0166636 4.0996 0.5
526 8.37062 8.45514 11.302 0.5
527 6.82894 13.0885 1.98961 0.5
528 9.39129 5.76751 8.90955 0.5
529 8.96142 12.932 9.17518 0.5
530 10.0345 1.41541 8.34656 0.5
531 5.26754 10.95 5.69415 0.5
532 10.7085 3.58375 0.308978 0.5
533 13.1147 11.6261 12.6047 0.5
534 5.96721 6.20715 7.04722 0.5
535 2.87029 10.5738 1.08137 0.5
536 11.6575 9.64872 3.63517 0.5
537 12.1437 4.51724 8.61759 0.5
538 12.454 7.372 10.1724 0.5
539 8.21911 11.297 7.371 0.5
540 9.95399 2.98055 9.20377 0.5
541 11.5582 1.17303 5.13423 0.5
542 1.66538 6.84477 7.1849 0.5
543 0.851409 10.7305 9.12478 0.5
544 5.75849 0.485898 12.9846 0.5
545 3.94093 2.07571 7.98309 0.5
546 0.862749 0.613791 5.40211 0.5
547 8.89429 0.811599 11.4297 0.5
548 3.67343 9.73009 0.709142 0.5
549 11.6801 8.43777 2.99099 0.5
550 11.0256 4.12741 7.60639 0.5
551 4.95718 10.3227 12.7657 0.5
552 1.33665 12.697 6.41421 0.5
553 10.1322 1.71667 3.24774 0.5
554 2.65503 4.09988 3.20044 0.5
555 7.80262 5.03301 9.37653 0.5
556 5.32485 0.429837 2.37745 0.5
557 1.15905 0.620901 2.35402 0.5
558 10.87 9.67897 3.61273 0.5
559 6.26864 12.2472 3.3814 0.5
560 3.25684 5.23762 12.5728 0.5
561 12.3137 2.29313 8.36167 0.5
562 12.4992 0.362727 11.8801 0.5
563 9.62665 1.76767 9.56154 0.5
564 12.636 1.60254 1.64702 0.5
565 2.01668 9.4699 7.48216 0.5
566 8.94067 1.16345 12.4653 0.5
567 6.76617 8.91541 5.85712 0.5
568 3.84717 1.0171 5.87969 0.5
569 13.3532 10.298 11.8669 0.5
570 1.96132 2.54646 1.46984 0.5
571 10.8488 9.56185 13.2445 0.5
572 4.23343 2.03215 8.87839 0.5
573 9.55714 11.175 4.39389 0.5
574 3.01493 0.528454 4.95541 0.5
575 2.28643 5.31744 9.91106 0.5
576 8.73964 11.2152 6.18518 0.5
577 2.44284 13.1008 11.0994 0.5
578 12.9324 6.565 9.47748 0.5
579 2.22091 4.22478 4.03602 0.5
580 3.57253 0.395868 10.3506 0.5
581 11.1896 2.53081 0.348255 0.5
582 3.65641 4.23498 7.40285 0.5
583 11.7446 6.47631 7.24346 0.5
584 4.89694 9.63746 7.29181 0.5
585 13.1068 12.5538 11.329 0.5
586 11.9208 7.14386 7.17175 0.5
587 3.58925 1.81614 6.04718 0.5
588 13.046 1.42975 9.75123 0.5
589 10.6329 1.77264 6.33297 0.5
590 7.83467 6.62226 1.25652 0.5
591 8.7627 4.65194 3.49625 0.5
592 10.6648 13.3278 11.0505 0.5
593 11.424 2.06375 0.67115 0.5
594 11.0957 1.96865 12.8231 0.5
595 12.8088 2.49485 6.00942 0.5
596 0.508896 13.4266 11.2041 0.5
597 9.20957 11.2772 12.3062 0.5
598 8.58315 11.1712 0.472213 0.5
599 0.990256 12.1422 1.79621 0.5
600 13.0788 4.02083 0.909704 0.5
601 5.24132 6.50821 10.3289 0.5
602 3.84169 9.04101 3.02049 0.5
603 6.91356 6.91219 12.6721 0.5
604 1.78316 10.1621 6.24533 0.5
605 8.09886 8.81616 0.805125 0.5
606 10.6499 13.0439 12.666 0.5
607 3.49105 10.5533 8.09471 0.5
608 10.2432 2.93385 4.10778 0.5
609 8.7119 9.64447 8.60245 0.5
610 3.80346 1.83403 5.0997 0.5
611 0.099106 7.87416 11.859 0.5
612 6.77329 9.37031 11.9821 0.5
613 9.76404 12.7947 8.3309 0.5
614 4.94282 0.782762 5.84133 0.5
615 3.42677 3.87608 6.03138 0.5
616 7.25596 7.18512 11.6197 0.5
617 0.369839 5.49029 4.21581 0.5
618 12.7584 12.9848 8.17457 0.5
619 9.78897 4.37116 3.49117 0.5
620 12.2753 9.61556 3.41271 0.5
621 3.81519 7.8185 11.1196 0.5
622 5.57544 13.0307 6.2903 0.5
623 7.63124 11.4997 0.0978656 0.5
624 10.18 9.50993 11.8888 0.5
625 3.61163 8.03565 3.89576 0.5
626 5.24143 12.205 13.5395 0.5
627 12.55 2.30371 10.2505 0.5
628 4.97823 10.0369 5.21506 0.5
629 2.64814 2.6754 12.4778 0.5
630 4.8692 0.953079 12.7993 0.5
631 8.04719 2.5513 1.32463 0.5
632 9.31949 10.681 8.19196 0.5
633 11.345 10.7947 4.44447 0.5
634 10.2956 2.51842 0.898024 0.5
635 6.15555 10.409 12.9089 0.5
636 11.2792 7.40513 3.38193 0.5
637 9.20706 7.87251 8.39121 0.5
638 8.50113 9.4475 1.26019 0.5
639 4.71766 6.46372 13.1434 0.5
640 9.67121 12.9362 4.93429 0.5
641 8.46662 7.75184 12.7735 0.5
642 8.59664 12.6062 1.20908 0.5
643 12.123 6.65684 11.095 0.5
644 2.48333 1.24191 13.361 0.5
645 10.3562 12.2053 8.62678 0.5
646 2.98003 2.36804 11.9109 0.5
647 8.03641 0.0698186 6.53616 0.5
648 9.69776 4.88602 0.944225 0.5
649 4.22883 13.5149 7.52166 0.5
650 5.66376 9.7521 9.99151 0.5
651 1.73665 6.27687 11.9072 0.5
652 12.9289 0.376475 9.03612 0.5
653 4.03597 13.0091 0.994238 0.5
654 9.06444 0.606778 0.259034 0.5
655 5.88044 1.87527 1.4465 0.5
656 7.13139 0.930938 9.2801 0.5
657 2.58513 1.91334 4.44252 0.5
658 6.19896 12.6061 11.6458 0.5
659 8.92036 0.870438 3.46354 0.5
660 6.25958 12.1469 7.6699 0.5
661 2.90968 8.40364 0.993027 0.5
662 13.0976 2.76402 6.25978 0.5
663 5.32052 12.5096 6.4225 0.5
664 13.4435 8.16862 8.74066 0.5
665 11.4363 7.69864 9.31937 0.5
666 9.81293 9.09493 0.779817 0.5
667 6.54078 13.4964 3.65089 0.5
668 6.34797 4.11328 4.24799 0.5
669 2.14641 7.35339 7.78977 0.5
670 3.99861 2.04691 11.2225 0.5
671 10.0331 3.41483 4.24964 0.5
672 12.6309 10.7809 2.51891 0.5
673 1.67104 11.9068 1.43619 0.5
674 7.53278 12.5163 6.3819 0.5
675 13.375 6.02114 3.63423 0.5
676 9.18192 13.2041 8.26976 0.5
677 3.19752 11.0217 3.92827 0.5
678 2.60819 7.18818 10.7818 0.5
679 5.92823 9.51698 12.2107 0.5
680 5.66932 6.08858 11.456 0.5
681 7.66102 6.64415 12.8933 0.5
682 5.69424 7.54037 6.2093 0.5
683 10.7725 1.21511 0.320844 0.5
684 13.3603 12.0561 2.39726 0.5
685 11.2349 8.51386 13.3759 0.5
686 2.67902 10.0519 10.2231 0.5
687 8.20379 6.00513 2.07979 0.5
688 5.27479 5.49592 5.5649 0.5
689 4.47677 4.77969 12.9482 0.5
690 3.98474 4.62484 5.39734 0.5
691 3.98366 10.8315 0.661514 0.5
692 2.78757 0.591959 8.27349 0.5
693 5.37498 12.2531 12.3798 0.5
694 5.91286 5.53769 10.2097 0.5
695 7.97385 10.0367 5.57338 0.5
696 12.8 5.25233 10.7482 0.5
697 1.27235 11.6223 7.13627 0.5
698 3.69881 7.22164 0.0106613 0.5
699 8.56759 6.29042 3.88095 0.5
700 8.65674 12.8737 4.14051 0.5
701 7.36507 6.6135 6.59187 0.5
702 2.41939 2.73714 10.8234 0.5
703 2.89896 7.95623 3.91043 0.5
704 6.32393 2.36112 1.27958 0.5
705 3.83473 4.08755 8.02607 0.5
706 10.9766 6.47154 6.12377 0.5
707 7.5272 5.97156 8.59092 0.5
708 8.40967 7.06674 12.5731 0.5
709 10.6413 9.05584 0.49919 0.5
710 2.75101 2.58591 10.2964 0.5
711 12.0492 6.85102 6.23269 0.5
712 4.46742 2.86966 7.56234 0.5
713 9.03554 13.1692 2.82699 0.5
714 10.4091 3.61314 6.91254 0.5
715 0.16637 2.36404 5.05076 0.5
716 3.31394 8.30083 5.4678 0.5
717 12.9127 4.49863 3.03452 0.5
718 8.79226 1.45535 4.02042 0.5
719 9.93211 6.87641 5.73223 0.5
720 5.50495 2.66889 7.01952 0.5
721 2.13102 0.226066 2.43863 0.5
722 9.53573 1.14156 4.63797 0.5
723 2.36087 3.52327 0.91602 0.5
724 5.70175 12.3892 7.0218 0.5
725 7.34884 8.53771 10.3432 0.5
726 13.122 3.4559 12.3913 0.5
727 3.31732 12.833 2.99732 0.5
728 8.13902 3.33319 0.759894 0.5
729 3.59232 7.49482 3.08125 0.5
730 3.87045 11.7707 2.59983 0.5
731 0.387274 0.796237 12.9307 0.5
732 8.43898 0.0597611 2.56377 0.5
733 3.27818 3.15657 7.56647 0.5
734 10.441 3.12024 10.3556 0.5
735 1.60578 5.02921 6.82822 0.5
736 12.8614 9.64478 9.19532 0.5
737 13.2988 0.817149 5.44742 0.5
738 7.29636 10.3913 12.181 0.5
739 10.6876 2.80023 1.77759 0.5
740 8.68011 12.4602 3.29228 0.5
741 10.2437 2.37765 10.1077 0.5
742 10.9705 12.523 5.0657 0.5
743 5.24994 11.4974 6.33381 0.5
744 0.28893 10.1909 4.27235 0.5
745 0.490104 6.7529 3.50313 0.5
746 7.70191 12.2358 1.93931 0.5
747 1.36526 1.36152 13.0261 0.5
748 11.5856 9.29092 3.79207 0.5
749 4.34132 2.99956 2.54166 0.5
750 5.01123 4.27142 11.0683 0.5
751 12.4736 2.09738 6.10167 0.5
752 9.91347 8.64192 8.21379 0.5
753 2.52364 1.51444 1.06936 0.5
754 10.773 9.10833 7.85531 0.5
755 12.3428 12.1954 12.3938 0.5
756 1.82431 5.01853 10.295 0.5
757 9.71479 2.50388 11.2295 0.5
758 8.58484 1.02246 1.63097 0.5
759 1.43839 6.20166 8.16087 0.5
760 12.955 3.17992 3.59541 0.5
761 10.4281 9.69731 4.98497 0.5
762 1.76675 4.87386 7.79111 0.5
763 3.94674 3.83483 4.05515 0.5
764 1.50544 8.40746 8.48998 0.5
765 8.90859 11.7085 5.18623 0.5
766 4.71971 8.63357 10.2369 0.5
767 6.7221 8.94879 1.73139 0.5
768 9.78616 6.98844 8.42072 0.5
769 12.4909 6.74392 10.9002 0.5
770 1.0326 9.68212 5.21155 0.5
771 9.60262 5.94433 11.1183 0.5
772 6.77194 6.40351 0.436083 0.5
773 12.257 7.99405 12.125 0.5
774 6.19347 12.955 1.51576 0.5
775 0.659836 9.43334 10.8195 0.5
776 7.33449 1.62553 12.9264 0.5
777 6.06226 11.3834 2.36373 0.5
778 9.88768 4.04145 5.92676 0.5
779 12.1153 3.82288 9.7044 0.5
780 11.8372 1.97009 11.9884 0.5
781 4.72109 0.554431 0.944584 0.5
782 5.41941 1.45846 9.63263 0.5
783 1.94976 3.80341 11.5053 0.5
784 0.927416 0.856642 3.13007 0.5
785 12.6728 5.68694 8.2443 0.5
786 9.42526 3.02262 4.45168 0.5
787 4.58361 0.41495 0.0739763 0.5
788 11.4768 13.5301 12.5317 0.5
789 7.28392 9.14514 6.77096 0.5
790 8.59109 4.526 11.0745 0.5
791 11.9753 5.5451 0.0107541 0.5
792 12.5355 4.22019 6.35243 0.5
793 13.4386 3.84836 4.37819 0.5
794 2.23469 4.81632 12.0029 0.5
795 3.5933 11.1634 2.41764 0.5
796 4.01887 4.2875 9.93985 0.5
797 3.52954 10.6167 3.49896 0.5
798 3.72306 4.18215 2.17995 0.5
799 5.66811 10.9023 0.767662 0.5
800 3.14148 1.64883 13.3396 0.5
801 7.24929 4.00737 4.07757 0.5
802 0.794681 9.27247 11.8783 0.5
803 3.58241 1.51308 12.5888 0.5
804 0.430959 8.67564 5.08102 0.5
805 13.4864 4.89054 10.9913 0.5
806 12.2017 7.84413 0.167601 0.5
807 1.89451 8.34156 12.1498 0.5
808 3.18506 5.52905 1.09311 0.5
809 2.96667 8.89621 10.124 0.5
810 6.12586 10.1588 5.23397 0.5
811 7.3736 10.9479 12.3828 0.5
812 1.13103 8.75341 1.62128 0.5
813 9.94084 13.536 9.63744 0.5
814 0.871062 0.310785 12.8265 0.5
815 7.92993 5.09322 5.10254 0.5
816 8.74716 6.16737 2.43041 0.5
817 1.31016 6.92159 11.3755 0.5
818 6.91156 13.0039 9.92295 0.5
819 5.2121 12.3416 10.508 0.5
820 5.83956 9.84669 11.1016 0.5
821 0.869994 9.09406 5.85108 0.5
822 1.94478 6.3395 3.50858 0.5
823 12.7742 8.80262 3.31615 0.5
824 1.50034 6.9542 1.12474 0.5
825 1.75903 6.64833 5.56583 0.5
826 11.1415 2.15008 0.245673 0.5
827 6.42504 10.9736 13.5253 0.5
828 4.14889 7.08795 11.6999 0.5
829 4.78533 8.01709 4.22635 0.5
830 8.17217 6.8297 4.35019 0.5
831 12.2571 3.37678 0.353657 0.5
832 6.16424 2.25604 6.53418 0.5
833 2.53697 9.7159 9.73025 0.5
834 6.33355 2.14271 3.38207 0.5
835 3.43517 1.15498 0.895426 0.5
836 2.13783 10.5535 2.69111 0.5
837 13.0779 11.4632 5.62371 0.5
838 7.48478 6.60753 7.02976 0.5
839 3.46122 5.17964 3.98448 0.5
840 2.44227 8.75117 12.1537 0.5
841 4.67572 5.92481 0.221564 0.5
842 9.70402 7.03674 1.24844 0.5
843 10.3331 11.1361 12.8715 0.5
844 1.38457 10.999 7.73504 0.5
845 13.2328 9.99652 10.2788 0.5
846 2.4255 7.50548 12.7494 0.5
847 0.274457 11.2001 5.03622 0.5
848 5.20055 0.605748 11.1918 0.5
849 3.61396 1.27151 12.1041 0.5
850 8.75826 7.25127 0.81315 0.5
851 10.9766 4.66171 13.2511 0.5
852 11.912 7.99942 9.843 0.5
853 8.39186 7.28449 0.0477381 0.5
854 12.3693 5.85214 5.81851 0.5
855 -0.00170191 3.85804 3.41948 0.5
856 1.11176 2.23672 12.7397 0.5
857 4.37446 5.18484 4.52397 0.5
858 2.62522 12.3559 10.784 0.5
859 2.83219 11.1955 11.9396 0.5
860 3.1267 0.924917 6.58638 0.5
861 8.46295 11.8511 8.42614 0.5
862 6.56826 6.55453 13.521 0.5
863 6.59043 4.87334 4.91516 0.5
864 1.34412 4.78409 4.11422 0.5
865 10.16 0.633277 2.3387 0.5
866 6.75908 13.4464 9.51495 0.5
867 1.32264 6.59845 2.61766 0.5
868 12.3422 4.36942 4.43234 0.5
869 9.39337 4.88237 2.66285 0.5
870 1.38121 1.66193 2.61265 0.5
871 9.29425 7.09089 12.3036 0.5
872 13.088 3.07862 0.608221 0.5
873 8.39628 2.7032 0.140404 0.5
874 3.35049 11.9183 7.04481 0.5
875 9.88571 10.5425 5.24008 0.5
876 7.60324 6.75034 4.59311 0.5
877 0.936635 1.24121 3.44971 0.5
878 0.95137 7.53347 11.0522 0.5
879 11.5331 4.4378 2.14741 0.5
880 11.7178 8.55496 6.53413 0.5
881 6.73666 6.62513 12.6576 0.5
882 6.10113 9.7668 2.31155 0.5
883 4.29412 13.462 4.24455 0.5
884 7.15874 0.165729 9.7938 0.5
885 4.54616 11.4718 10.0597 0.5
886 6.51115 10.4117 0.271789 0.5
887 12.2925 7.0232 1.47218 0.5
888 7.96372 2.42297 6.55058 0.5
889 0.662682 4.12207 10.6559 0.5
890 11.102 0.868181 3.69061 0.5
891 9.60474 4.35914 10.725 0.5
892 5.03911 6.39406 1.97122 0.5
893 3.4328 8.03413 13.0572 0.5
894 2.19664 3.31234 5.55531 0.5
895 11.928 3.80082 11.7452 0.5
896 12.3334 0.467995 12.7556 0.5
897 3.883 8.09735 7.06846 0.5
898 1.05824 2.38225 1.84565 0.5
899 11.5698 0.0392553 10.5892 0.5
900 1.0193 2.58234 7.38025 0.5
901 4.76679 1.36284 3.67429 0.5
902 8.86874 2.02403 12.2413 0.5
903 1.17472 10.3623 5.50097 0.5
904 5.13189 9.85036 1.12031 0.5
905 2.03693 11.1885 3.22144 0.5
906 4.30412 11.1244 2.89198 0.5
907 11.2674 3.37806 13.4726 0.5
908 10.1836 7.18178 12.929 0.5
909 12.2574 12.9586 11.9192 0.5
910 0.786863 10.9208 2.08516 0.5
911 1.72392 8.77174 0.0962079 0.5
912 2.00132 8.10443 2.08168 0.5
913 10.7475 13.4258 10.0685 0.5
914 9.82516 1.4292 10.6022 0.5
915 10.0144 1.16472 2.13976 0.5
916 9.55074 5.98621 7.65004 0.5
917 3.06223 4.2988 12.1623 0.5
918 2.92803 7.40831 4.09472 0.5
919 0.409672 0.75651 8.63519 0.5
920 4.13875 6.22007 5.72582 0.5
921 7.46599 1.96001 10.1323 0.5
922 11.844 10.3492 6.56254 0.5
923 7.96662 7.80387 0.664089 0.5
924 4.37582 9.80986 11.1838 0.5
925 13.0885 0.18615 8.84972 0.5
926 8.53038 1.29758 13.5322 0.5
927 6.45672 9.79229 4.06846 0.5
928 4.83881 6.93163 8.10675 0.5
929 5.59556 7.01133 9.78399 0.5
930 11.1373 6.75453 11.0008 0.5
931 1.51205 2.27361 6.45103 0.5
932 13.5611 12.3223 2.80951 0.5
933 4.65195 2.54527 9.55543 0.5