ITEM: TIMESTEP
1000000
ITEM: NUMBER OF ATOMS
1000
ITEM: BOX BOUNDS xy xz yz pp pp pp
0.0000000000000000e+00 1.3572088000000001e+01 0.0000000000000000e+00
0.0000000000000000e+00 1.3572088000000001e+01 0.0000000000000000e+00
0.0000000000000000e+00 1.3572088000000001e+01 0.0000000000000000e+00
ITEM: ATOMS id x y z radius
1 3.7477 5.02724 10.3964 0.5
2 1.10031 10.1315 4.55097 0.5
3 0.673133 6.96165 11.9881 0.5
4 10.225 11.5095 4.11925 0.5
5 3.91638 7.37796 7.14035 0.5
6 4.91507 8.45598 10.9518 0.5
7 4.12027 8.6237 12.7008 0.5
8 5.03264 6.55149 5.3939 0.5
9 7.45731 3.39818 1.38514 0.5
10 0.89625 0.0793788 8.61085 0.5
11 8.33171 10.4086 10.3545 0.5
12 5.30468 5.72248 7.00894 0.5
13 -0.0149466 9.47218 11.9375 0.5
14 10.1089 2.842 6.92294 0.5
15 2.66045 2.65322 5.79562 0.5
16 11.3786 10.3783 2.07538 0.5
17 12.8643 9.08184 10.7259 0.5
18 12.2415 7.93364 11.6207 0.5
19 7.86762 1.86328 4.13206 0.5
20 10.9255 11.2128 2.91335 0.5
21 9.85257 3.548 0.417601 0.5
22 2.74955 1.3419 11.3814 0.5
23 13.3318 2.10063 10.4251 0.5
24 10.3702 11.5447 8.62091 0.5
25 2.1114 7.07994 2.21541 0.5
26 1.96592 7.73102 1.20304 0.5
27 10.8725 6.46236 7.15572 0.5
28 8.14086 0.228951 12.3823 0.5
29 11.4235 11.9244 7.46701 0.5
30 2.02459 11.6701 3.08035 0.5
31 7.02927 13.1151 10.2877 0.5
32 0.436948 13.4809 7.19433 0.5
33 11.7025 12.5746 3.21219 0.5
34 5.16486 9.00636 4.78339 0.5
35 7.10002 11.9228 11.7861 0.5
36 9.48913 11.945 13.388 0.5
37 8.62721 11.7801 8.11158 0.5
38 11.0847 5.33058 9.795 0.5
39 6.87563 8.92178 11.5262 0.5
40 3.8383 10.9218 4.45343 0.5
41 13.5456 13.1591 9.60699 0.5
42 8.79498 4.09679 5.08299 0.5
43 6.15934 4.36597 0.110015 0.5
44 1.88469 7.6346 7.84777 0.5
45 5.91657 12.2062 7.56177 0.5
46 2.91143 11.1215 7.30719 0.5
47 4.82886 3.8182 3.82083 0.5
48 11.9006 0.103321 5.73087 0.5
49 7.74306 0.966336 5.74785 0.5
50 12.9748 11.1756 1.97241 0.5
51 10.3877 4.43514 0.338647 0.5
52 7.07697 11.9198 8.64462 0.5
53 6.1433 3.69642 8.05519 0.5
54 9.97772 5.07721 4.90813 0.5
55 10.611 9.4223 4.86009 0.5
56 0.511006 1.2021 11.3716 0.5
57 12.4639 10.3531 12.9175 0.5
58 2.95365 0.338035 3.4564 0.5
59 10.115 8.14945 6.07792 0.5
60 6.37839 3.0477 10.6252 0.5
61 8.02594 7.52643 0.537846 0.5
62 6.77723 9.2502 4.63029 0.5
63 4.31182 11.2295 9.92261 0.5
64 3.53746 13.3791 9.09072 0.5
65 10.2061 8.74631 13.5117 0.5
66 13.3996 13.0768 4.67222 0.5
67 10.1736 8.17487 13.039 0.5
68 8.4754 13.4371 11.0028 0.5
69 1.43747 11.9035 6.85946 0.5
70 9.15482 6.87029 0.883834 0.5
71 5.39438 6.79977 10.0398 0.5
72 2.21837 8.31037 4.13376 0.5
73 0.896777 12.571 12.6942 0.5
74 10.9059 4.1747 9.92183 0.5
75 7.89477 7.99137 9.18106 0.5
76 7.19159 11.3446 5.17824 0.5
77 2.50134 11.7733 4.62297 0.5
78 8.42249 10.4156 9.80398 0.5
79 4.88793 10.6017 7.42667 0.5
80 10.4832 11.7257 0.685293 0.5
81 8.30126 2.08678 1.2367 0.5
82 10.4323 4.29392 4.7342 0.5
83 0.538557 3.9772 8.50446 0.5
84 11.4002 9.04664 11.393 0.5
85 1.92556 9.50966 3.55584 0.5
86 6.52249 7.63667 4.81205 0.5
87 4.03749 12.726 8.69363 0.5
88 9.03904 10.0044 12.0885 0.5
89 10.2746 8.50749 13.0702 0.5
90 5.81264 8.34193 9.04732 0.5
91 2.05123 13.4685 13.3325 0.5
92 4.64569 9.90118 1.58309 0.5
93 10.7916 1.07881 0.150372 0.5
94 9.79165 1.76695 11.2741 0.5
95 0.298058 0.580822 1.91145 0.5
96 9.78898 12.8788 0.189452 0.5
97 4.27465 4.38721 9.73442 0.5
98 9.70135 7.46973 2.56403 0.5
99 10.2443 2.70394 3.45504 0.5
100 2.07507 0.730265 4.88446 0.5
101 6.38502 10.3672 1.39039 0.5
102 4.70032 9.26549 0.982564 0.5
103 7.40655 12.9048 11.4299 0.5
104 11.4137 2.95945 9.11147 0.5
105 3.12245 4.59932 11.548 0.5
106 13.0181 4.06892 11.2828 0.5
107 2.45485 6.28774 10.5393 0.5
108 6.76759 4.41376 9.35013 0.5
109 8.36103 6.52899 0.884031 0.5
110 0.788726 12.4305 2.86115 0.5
111 8.22256 9.78939 11.5898 0.5
112 1.57566 9.45933 3.18075 0.5
113 6.4253 9.58908 1.00445 0.5
114 3.28753 11.4911 10.9014 0.5
115 11.2867 3.93924 4.40177 0.5
116 2.04549 2.05911 5.75166 0.5
117 9.81805 5.16254 13.3434 0.5
118 0.433326 7.73794 8.07783 0.5
119 11.6177 7.84648 9.49543 0.5
120 4.76936 8.89836 9.64002 0.5
121 9.71962 10.4833 12.6298 0.5
122 7.35631 8.77451 1.44169 0.5
123 9.8182 3.47332 4.34855 0.5
124 10.0353 10.4788 0.0208136 0.5
125 11.8491 8.16574 9.39205 0.5
126 6.13585 11.8791 8.5009 0.5
127 6.72241 10.8277 6.46519 0.5
128 9.83237 2.33078 6.88715 0.5
129 9.66624 6.7971 3.2774 0.5
130 2.42263 1.41426 8.88595 0.5
131 1.77184 10.3239 10.1481 0.5
132 11.9854 4.90528 7.44533 0.5
133 0.411482 0.13455 3.56087 0.5
134 0.838686 10.0605 6.83888 0.5
135 7.02479 7.43212 0.267422 0.5
136 0.580805 3.5954 7.96729 0.5
137 6.98013 3.18625 9.70652 0.5
138 8.74416 8.07442 3.2136 0.5
139 4.23895 4.15277 3.63237 0.5
140 0.0773815 7.90625 12.6473 0.5
141 3.42105 11.7146 9.65804 0.5
142 9.73004 7.71843 9.82768 0.5
143 1.18844 3.62134 0.267111 0.5
144 3.71351 8.81636 7.01274 0.5
145 11.2023 2.82652 9.34086 0.5
146 12.7012 9.05278 3.67015 0.5
147 0.874598 6.04871 11.6213 0.5
148 3.66961 5.83826 3.56403 0.5
149 6.63928 3.10904 4.24454 0.5
150 5.02036 10.0422 4.70902 0.5
151 4.84929 3.48874 12.3086 0.5
152 11.2968 7.38967 1.60796 0.5
153 2.28689 11.0908 7.67409 0.5
154 0.142207 5.82509 0.745915 0.5
155 8.25355 10.7422 13.2503 0.5
156 6.59788 0.816548 12.1832 0.5
157 13.3684 0.171056 10.2271 0.5
158 3.00133 4.91572 3.65248 0.5
159 2.12885 4.75567 3.64495 0.5
160 3.32362 0.103907 6.1486 0.5
161 2.86834 6.19491 9.05451 0.5
162 7.39109 5.16729 7.55294 0.5
163 3.06271 0.975763 8.21739 0.5
164 12.2044 10.1147 4.62047 0.5
165 8.14811 2.39646 7.4681 0.5
166 6.51987 5.28349 0.327222 0.5
167 7.63561 1.34976 5.28915 0.5
168 3.03145 5.82918 8.94203 0.5
169 1.27056 6.00771 7.36365 0.5
170 6.9723 3.15783 13.5235 0.5
171 2.60339 9.86152 0.976757 0.5
172 10.5618 6.56013 4.38615 0.5
173 6.80704 1.39908 0.151279 0.5
174 8.11774 13.266 1.18091 0.5
175 8.66415 4.09063 12.4987 0.5
176 6.10466 12.7527 1.42497 0.5
177 2.1974 5.42599 9.48965 0.5
178 9.77945 4.23596 11.019 0.5
179 9.81998 2.83665 5.7831 0.5
180 10.4238 3.5423 4.28308 0.5
181 8.76866 4.12228 2.57539 0.5
182 0.962058 2.99551 4.02988 0.5
183 5.35594 11.7254 8.64238 0.5
184 8.63011 9.67058 0.929708 0.5
185 0.440302 0.2327 4.43705 0.5
186 10.942 12.6398 8.06375 0.5
187 1.46744 1.99064 9.26929 0.5
188 4.85731 5.55723 9.58001 0.5
189 9.11096 1.05798 7.92199 0.5
190 11.8159 10.8548 7.42646 0.5
191 11.1523 7.45845 7.25414 0.5
192 12.2779 4.45472 10.8084 0.5
193 5.3034 9.90964 10.8721 0.5
194 9.50039 7.17516 1.38057 0.5
195 11.8235 2.5451 13.3714 0.5
196 3.09399 11.3343 7.68571 0.5
197 12.0791 9.33964 0.551148 0.5
198 12.0235 6.66705 0.0659149 0.5
199 6.89608 9.40649 1.00891 0.5
200 4.10217 13.5503 6.27188 0.5
201 8.68462 13.0828 8.95477 0.5
202 11.071 11.9967 0.225223 0.5
203 9.12035 12.8872 9.77032 0.5
204 12.1386 2.19878 6.38566 0.5
205 10.0847 1.24711 13.2586 0.5
206 0.159577 2.62556 0.184736 0.5
207 11.0666 0.216404 9.79754 0.5
208 12.5004 1.0427 3.93296 0.5
209 7.18618 12.8389 5.28465 0.5
210 6.2636 10.1283 3.21584 0.5
211 3.17756 10.1158 12.8103 0.5
212 5.26939 7.59013 0.154903 0.5
213 8.18842 11.2555 8.22226 0.5
214 12.9888 5.93895 12.0745 0.5
215 0.00516099 6.04656 6.36491 0.5
216 12.4668 9.55704 8.49175 0.5
217 1.14606 3.67302 0.0645987 0.5
218 1.46316 2.99107 8.02642 0.5
219 6.85157 8.08152 10.4151 0.5
220 8.35414 13.2448 1.58469 0.5
221 9.178 11.3729 2.05602 0.5
222 3.8223 1.85532 6.69273 0.5
223 4.7664 7.29151 12.1017 0.5
224 2.42309 9.16752 9.97856 0.5
225 9.0509 13.1414 0.483324 0.5
226 0.73052 6.78946 3.06121 0.5
227 4.25683 8.04277 2.72811 0.5
228 2.23264 4.68427 0.62666 0.5
229 13.6136 11.352 6.01554 0.5
230 1.84427 10.4802 9.68102 0.5
231 11.2553 13.0767 3.41388 0.5
232 6.55842 9.40318 6.1894 0.5
233 6.70842 10.6277 9.43401 0.5
234 7.12127 3.84597 0.088092 0.5
235 10.4812 12.5157 5.80041 0.5
236 6.82253 4.76095 6.16247 0.5
237 9.62284 13.1917 2.62465 0.5
238 1.40482 2.24134 4.41541 0.5
239 0.303305 5.93981 11.3072 0.5
240 7.77564 2.14684 5.94882 0.5
241 5.68793 6.84284 12.3048 0.5
242 11.2906 8.46359 5.98002 0.5
243 12.559 11.0693 7.34187 0.5
244 2.44231 13.3185 2.55566 0.5
245 6.70872 6.89036 12.6913 0.5
246 1.21645 0.197877 4.63096 0.5
247 7.41249 11.5003 5.23302 0.5
248 5.54134 4.22337 3.10695 0.5
249 6.26147 3.62653 2.13458 0.5
250 11.1033 4.35999 0.768349 0.5
251 12.8213 5.46914 11.005 0.5
252 0.423468 5.88563 6.2305 0.5
253 12.5415 1.21584 1.81655 0.5
254 8.64628 1.78475 2.21436 0.5
255 4.26236 9.96328 10.0258 0.5
256 8.23573 7.06895 3.86553 0.5
257 1.47188 6.56559 0.778099 0.5
258 4.11887 12.9327 9.01316 0.5
259 13.2032 9.20509 9.03868 0.5
260 7.32318 13.4111 8.15803 0.5
261 10.6021 6.42639 9.61345 0.5
262 1.27117 3.07885 7.8241 0.5
263 4.56354 9.33941 13.4231 0.5
264 0.149146 1.17811 6.97444 0.5
265 4.08926 4.07663 11.6979 0.5
266 11.6335 6.24757 0.666136 0.5
267 1.74323 12.7359 12.4337 0.5
268 1.27184 0.227138 1.70342 0.5
269 9.80711 5.39211 1.90522 0.5
270 10.335 12.2142 0.320901 0.5
271 6.07702 11.9246 12.9245 0.5
272 12.3407 4.56909 9.86169 0.5
273 5.28931 0.988495 3.88217 0.5
274 12.3245 4.15023 8.51943 0.5
275 4.64234 3.07195 12.6087 0.5
276 1.01245 5.1176 8.55696 0.5
277 3.15772 4.74343 5.79331 0.5
278 9.61928 12.8672 2.21092 0.5
279 11.8967 6.44085 2.73944 0.5
280 2.32661 4.81925 13.5794 0.5
281 8.19002 9.62123 3.25703 0.5
282 9.04365 12.3732 9.81882 0.5
283 10.2348 12.5078 2.63532 0.5
284 12.7337 9.95508 1.19289 0.5
285 2.23812 4.23391 6.92676 0.5
286 5.31628 9.713 13.1606 0.5
287 0.972496 10.2053 4.80714 0.5
288 12.2478 12.9743 6.89902 0.5
289 10.8715 8.56823 11.6099 0.5
290 6.67035 6.40215 3.76638 0.5
291 8.94861 1.32782 11.8304 0.5
292 6.37031 5.29169 2.5502 0.5
293 11.8451 1.93871 11.9865 0.5
294 6.39111 5.83114 5.44061 0.5
295 0.953161 9.62484 8.14842 0.5
296 6.7942 8.40532 8.26395 0.5
297 10.9852 4.06521 9.34366 0.5
298 12.0711 8.05595 8.26033 0.5
299 7.14649 0.156684 10.3572 0.5
300 7.95971 2.96496 7.9442 0.5
301 3.02618 11.8765 6.12225 0.5
302 4.39292 9.18448 8.26613 0.5
303 5.94073 3.02625 9.57843 0.5
304 1.24907 6.02614 2.51829 0.5
305 11.6298 10.8933 0.600086 0.5
306 11.2151 0.340221 12.487 0.5
307 11.6861 0.696573 8.54825 0.5
308 2.69805 1.00836 8.98327 0.5
309 11.5176 5.21817 8.82773 0.5
310 7.92553 10.9114 2.96137 0.5
311 3.60092 10.9719 7.95212 0.5
312 12.8767 9.39379 1.68176 0.5
313 4.0728 6.05218 6.27757 0.5
314 11.2066 1.62057 9.46529 0.5
315 1.75854 7.78175 0.0290284 0.5
316 11.2344 13.0046 1.83797 0.5
317 13.5693 10.5256 13.1949 0.5
318 9.62924 2.26093 0.680924 0.5
319 6.32235 3.8761 1.81769 0.5
320 8.74601 12.7076 9.89778 0.5
321 0.907393 11.7333 3.58636 0.5
322 1.46454 0.366409 3.30079 0.5
323 4.34669 10.4843 5.41992 0.5
324 9.35376 11.8827 5.84886 0.5
325 12.3789 5.05673 3.85052 0.5
326 13.4352 9.16707 11.4864 0.5
327 4.67582 8.49373 1.81054 0.5
328 7.09534 1.12199 6.4512 0.5
329 0.121938 5.06871 8.04052 0.5
330 13.2443 12.4934 5.77156 0.5
331 0.359245 2.59006 11.8677 0.5
332 11.9768 0.785876 1.46753 0.5
333 5.42404 10.662 13.4336 0.5
334 1.33085 1.66358 2.16221 0.5
335 6.24761 1.65084 2.18981 0.5
336 8.98382 11.3386 12.9607 0.5
337 6.98691 3.91367 0.0158628 0.5
338 2.62786 2.19187 2.55262 0.5
339 13.0247 8.072 10.6658 0.5
340 2.08983 9.04376 0.981122 0.5
341 2.74073 12.3784 2.26807 0.5
342 1.36468 2.40078 10.9941 0.5
343 5.82054 13.5344 0.598354 0.5
344 4.84852 4.38404 8.43718 0.5
345 5.01358 1.43097 9.64008 0.5
346 2.50769 7.96081 9.79655 0.5
347 5.95498 0.0899477 12.8142 0.5
348 8.78981 0.580901 8.26639 0.5
349 3.66323 0.506495 9.13653 0.5
350 8.38384 2.25539 10.4959 0.5
351 2.46139 6.04178 9.10862 0.5
352 0.0716746 1.19395 3.3643 0.5
353 11.9221 6.52841 3.76924 0.5
354 3.14103 1.10988 5.54156 0.5
355 4.20096 5.74297 10.6194 0.5
356 1.40613 4.35551 7.64485 0.5
357 12.4746 0.609308 3.68313 0.5
358 4.25393 2.34949 2.74877 0.5
359 12.5931 7.94228 7.8094 0.5
360 0.308855 6.04774 3.29713 0.5
361 6.74066 7.48053 7.28726 0.5
362 0.76615 13.0085 10.0028 0.5
363 3.65424 11.2309 2.0372 0.5
364 11.4571 4.8376 9.68667 0.5
365 5.92654 4.84714 6.18823 0.5
366 0.240133 11.9603 2.21805 0.5
367 2.36617 11.5335 3.86013 0.5
368 10.4908 5.3128 6.62274 0.5
369 11.3629 4.8439 9.1926 0.5
370 10.5485 12.3201 2.397 0.5
371 11.3398 2.90442 7.14971 0.5
372 3.74158 4.7364 12.4872 0.5
373 9.23826 3.58302 3.74768 0.5
374 9.31662 8.85429 1.26806 0.5
375 12.7895 9.12535 3.02326 0.5
376 11.9929 5.43153 8.43341 0.5
377 2.72369 9.86206 2.78307 0.5
378 4.61016 10.7713 7.83376 0.5
379 0.55638 11.208 1.88555 0.5
380 1.2592 4.70059 4.46001 0.5
381 0.14594 3.55639 8.93831 0.5
382 13.0397 5.18797 3.94584 0.5
383 13.1918 4.04404 7.02001 0.5
384 0.464261 9.3721 13.0429 0.5
385 9.55918 7.24212 7.31877 0.5
386 3.31908 8.02835 12.8346 0.5
387 3.9906 1.45546 12.4712 0.5
388 2.91339 1.76553 1.31055 0.5
389 6.77198 3.77144 12.6577 0.5
390 5.75937 6.63682 3.96455 0.5
391 3.41318 8.5271 7.95488 0.5
392 12.5106 2.08124 0.344174 0.5
393 1.86453 2.52365 10.3372 0.5
394 8.07061 10.006 10.3799 0.5
395 5.86769 1.03671 11.4583 0.5
396 1.31253 7.06221 4.53646 0.5
397 12.6064 3.24293 12.0463 0.5
398 7.50338 11.612 1.40861 0.5
399 13.4026 12.5041 13.0609 0.5
400 1.17053 12.5758 12.2017 0.5
401 0.471332 3.34299 1.49331 0.5
402 5.56028 8.92171 12.9716 0.5
403 11.4943 12.7319 1.0024 0.5
404 12.0604 0.0447904 2.64192 0.5
405 6.73781 10.1457 9.58135 0.5
406 2.20753 9.90227 8.94061 0.5
407 4.29337 5.78104 12.0841 0.5
408 7.38831 8.65769 4.80256 0.5
409 9.643 1.0923 11.4705 0.5
410 2.09175 2.53886 7.26805 0.5
411 5.63667 2.03961 5.31318 0.5
412 8.9847 8.31942 5.0605 0.5
413 13.2697 10.7683 10.2323 0.5
414 4.09712 10.629 8.25845 0.5
415 10.2322 7.38993 2.34283 0.5
416 8.98051 8.71952 4.70612 0.5
417 0.346096 3.35964 4.10469 0.5
418 6.75566 5.04902 8.56623 0.5
419 12.2649 8.71673 7.5462 0.5
420 1.32241 10.1022 1.63006 0.5
421 2.35525 11.3748 1.42197 0.5
422 9.42148 7.31635 2.38101 0.5
423 6.9472 5.69973 3.19523 0.5
424 9.35102 7.799 2.12951 0.5
425 13.2898 0.639102 6.99079 0.5
426 8.67866 13.5205 4.03535 0.5
427 1.2169 12.1268 6.24032 0.5
428 2.64578 5.02462 11.4144 0.5
429 8.1934 6.10108 7.05731 0.5
430 1.18931 1.72036 2.63079 0.5
431 9.08677 9.63668 5.99212 0.5
432 8.3293 3.47839 1.85864 0.5
433 4.75613 5.44594 10.561 0.5
434 5.56456 12.0563 9.66304 0.5
435 6.8155 1.4862 1.82972 0.5
436 0.681455 0.0662475 10.1886 0.5
437 4.86318 5.61334 5.74229 0.5
438 1.37881 12.598 9.018 0.5
439 0.441137 5.39951 9.98931 0.5
440 9.83803 7.44986 8.13446 0.5
441 1.44486 12.7972 5.67564 0.5
442 12.1179 3.50659 7.12616 0.5
443 10.2821 3.96923 12.8031 0.5
444 9.85515 2.039 9.4363 0.5
445 2.76314 3.43802 0.614095 0.5
446 2.3903 11.727 11.2293 0.5
447 0.716563 9.59045 0.159479 0.5
448 3.47326 10.9795 4.59793 0.5
449 4.643 1.64389 2.38226 0.5
450 5.38589 2.21848 3.78711 0.5
451 2.82355 12.6288 8.4171 0.5
452 8.28288 11.2423 10.3127 0.5
453 1.56651 6.23713 7.58365 0.5
454 6.83799 3.28546 4.18168 0.5
455 6.79493 3.17474 13.206 0.5
456 8.11396 7.72355 1.70777 0.5
457 11.8264 8.72248 5.59935 0.5
458 4.4035 12.9057 12.63 0.5
459 13.5013 4.3798 10.4872 0.5
460 7.27389 8.35443 11.7805 0.5
461 10.8254 4.3532 8.25561 0.5
462 4.44617 7.85393 10.7727 0.5
463 9.66371 7.59391 7.03392 0.5
464 0.233502 5.22071 12.1063 0.5
465 6.5021 5.27379 5.40577 0.5
466 1.09363 6.46241 11.0085 0.5
467 5.43452 3.23098 1.49894 0.5
468 5.09562 6.95354 11.7209 0.5
469 8.89217 2.91115 12.0008 0.5
470 8.83812 7.82363 8.24806 0.5
471 2.53253 1.74888 13.2176 0.5
472 13.0302 0.124084 7.85039 0.5
473 2.09467 11.4087 1.31797 0.5
474 9.79403 12.9084 9.27687 0.5
475 13.1763 11.6477 6.99793 0.5
476 5.55575 1.24169 0.848896 0.5
477 11.757 5.96662 5.24832 0.5
478 10.246 13.1662 2.24542 0.5
479 1.08857 0.444811 6.73692 0.5
480 12.0318 7.67802 1.22784 0.5
481 1.67384 5.13238 5.12608 0.5
482 2.75921 2.26554 4.75705 0.5
483 9.55621 0.917542 11.1839 0.5
484 4.28642 10.2873 12.0326 0.5
485 9.6284 6.68851 1.1914 0.5
486 8.90062 7.74544 11.5982 0.5
487 3.35591 9.60462 10.2984 0.5
488 7.32959 0.971699 7.25086 0.5
489 13.6103 10.306 11.9451 0.5
490 1.2505 9.7788 0.34447 0.5
491 5.92801 4.56695 2.43545 0.5
492 12.3752 6.56826 10.7704 0.5
493 1.6134 7.76136 5.57484 0.5
494 6.33478 2.71271 4.25019 0.5
495 13.5754 10.4947 9.55332 0.5
496 2.49004 8.52118 6.07731 0.5
497 8.57729 5.97347 0.258657 0.5
498 8.28328 4.72261 6.84915 0.5
499 6.34777 12.8604 5.14633 0.5
500 12.2891 1.06975 3.39869 0.5
501 4.86367 0.327289 8.1284 0.5
502 6.59246 12.7963 8.48574 0.5
503 2.54772 10.1527 0.978434 0.5
504 1.9068 2.8243 8.71929 0.5
505 3.6987 0.65112 8.6978 0.5
506 3.46804 4.60799 5.38669 0.5
507 9.92581 12.6049 7.91331 0.5
508 10.5597 13.5432 7.95803 0.5
509 12.7267 11.2606 1.80314 0.5
510 12.537 8.93615 3.36719 0.5
511 4.49545 2.45381 8.09111 0.5
512 0.735623 8.20322 11.097 0.5
513 12.4226 10.0238 4.79554 0.5
514 6.20599 5.85854 3.47102 0.5
515 0.102798 9.90328 2.05483 0.5
516 10.9243 9.27796 3.2301 0.5
517 11.0648 2.34909 6.04683 0.5
518 4.37725 5.96107 11.9487 0.5
519 10.823 5.28441 11.8466 0.5
520 11.7362 0.856275 12.2673 0.5
521 12.9179 2.05895 13.0383 0.5
522 3.1817 9.07062 8.32086 0.5
523 10.0942 8.11435 2.55202 0.5
524 12.3024 7.84947 11.7314 0.5
525 2.92218 12.9608 1.88455 0.5
526 8.13028 3.74636 5.54999 0.5
527 6.33575 2.0879 9.27118 0.5
528 2.27811 13.5967 8.58545 0.5
529 4.26908 12.6826 1.57945 0.5
530 10.2181 5.72756 11.2683 0.5
531 8.25376 3.03717 13.4414 0.5
532 11.604 1.83203 7.63275 0.5
533 6.53288 0.923533 3.26493 0.5
534 2.8934 0.676243 5.49387 0.5
535 10.4634 0.122875 3.67142 0.5
536 4.90664 8.99433 7.37134 0.5
537 12.1033 4.83526 6.74415 0.5
538 1.84768 5.90865 9.56534 0.5
539 7.99654 8.2858 0.267927 0.5
540 6.30899 1.12966 10.2582 0.5
541 4.77886 5.04197 8.2607 0.5
542 2.06528 0.0258906 7.19665 0.5
543 5.83911 2.10794 8.82859 0.5
544 5.40938 10.6548 4.41178 0.5
545 3.38222 4.80822 10.035 0.5
546 10.6349 10.981 5.37335 0.5
547 7.07011 6.93245 6.98997 0.5
548 8.70898 3.06966 13.1413 0.5
549 9.56564 5.6451 3.88049 0.5
550 10.6778 13.2665 11.6079 0.5
551 1.14162 9.53446 5.42471 0.5
552 7.75729 3.6531 11.6607 0.5
553 8.84989 12.9646 0.0808256 0.5
554 4.27778 10.6734 0.397745 0.5
555 3.83539 10.9942 1.3393 0.5
556 9.71892 10.9091 7.37202 0.5
557 0.157576 0.612528 2.15354 0.5
558 0.118404 1.017 6.14939 0.5
559 2.8152 12.09 0.746577 0.5
560 8.79584 8.67924 12.041 0.5
561 9.92904 0.469501 7.4484 0.5
562 7.27569 4.54891 1.90307 0.5
563 1.08668 4.5625 0.0143317 0.5
564 2.7331 5.19588 7.49153 0.5
565 5.01022 11.3901 10.9037 0.5
566 13.0439 5.81763 10.3727 0.5
567 10.3505 9.31779 3.72555 0.5
568 2.03714 5.37067 13.2647 0.5
569 10.597 5.45755 5.26641 0.5
570 5.2967 11.4598 0.616793 0.5
571 4.13295 11.9843 5.259 0.5
572 12.2267 8.90815 6.51946 0.5
573 9.63236 6.22106 4.87836 0.5
574 2.30379 2.59668 2.29877 0.5
575 9.0469 4.64115 13.0661 0.5
576 12.1384 8.49843 7.7543 0.5
577 4.53915 0.49838 5.26566 0.5
578 3.01878 9.14339 9.37988 0.5
579 12.3611 11.5037 12.1573 0.5
580 8.52858 3.08216 8.61617 0.5
581 10.603 2.87385 6.09755 0.5
582 5.41842 0.120422 2.9556 0.5
583 10.6559 3.06899 9.4307 0.5
584 0.822956 6.00761 12.0754 0.5
585 7.60284 1.74547 5.26673 0.5
586 4.5856 4.43044 6.39416 0.5
587 11.5631 5.4258 5.89948 0.5
588 12.4298 10.6315 8.38163 0.5
589 10.6241 11.1592 8.63169 0.5
590 7.35011 11.2735 8.55176 0.5
591 6.16162 10.0766 7.46786 0.5
592 7.00387 3.43328 1.78059 0.5
593 11.0719 4.47604 2.09345 0.5
594 1.86221 9.96407 0.146776 0.5
595 10.3739 11.2191 4.74544 0.5
596 12.854 2.34607 1.83918 0.5
597 0.214368 2.94621 11.6359 0.5
598 8.53171 4.43576 7.20674 0.5
599 0.355944 8.36629 4.18852 0.5
600 9.4647 8.94105 9.78854 0.5
601 1.75469 0.328044 11.2209 0.5
602 1.92556 4.38018 8.38292 0.5
603 2.90365 4.50134 0.668577 0.5
604 13.4482 0.78007 0.821848 0.5
605 1.33988 1.57511 9.6663 0.5
606 0.409774 13.5545 12.0361 0.5
607 4.54038 1.87155 10.2946 0.5
608 3.90643 11.1726 1.79051 0.5
609 5.83814 6.73547 9.2699 0.5
610 9.17944 12.6556 10.1773 0.5
611 9.29419 9.71014 9.88772 0.5
612 12.2095 2.53261 2.22738 0.5
613 5.00514 7.94893 0.171076 0.5
614 10.9018 6.32138 5.61325 0.5
615 3.32993 8.69114 5.70978 0.5
616 8.92805 10.5599 11.895 0.5
617 3.65978 9.18714 7.62382 0.5
618 7.57728 11.6622 1.4328 0.5
619 7.96469 9.82289 1.94506 0.5
620 12.8031 11.9934 11.1645 0.5
621 0.0359066 5.21946 1.44998 0.5
622 2.30666 13.2703 8.93532 0.5
623 12.8231 3.78895 7.6179 0.5
624 8.34294 1.21264 1.3443 0.5
625 4.99491 11.3666 9.19412 0.5
626 9.02549 8.57819 1.47689 0.5
627 11.3834 2.61806 10.7506 0.5
628 5.6924 2.60501 11.1003 0.5
629 4.15746 11.9323 11.1902 0.5
630 8.22367 3.34873 12.6663 0.5
631 10.1382 3.73673 2.37218 0.5
632 3.98244 6.47922 5.12178 0.5
633 8.95973 9.37937 7.82974 0.5
634 0.0597961 11.1821 3.12971 0.5
635 9.84465 6.43829 4.64541 0.5
636 9.79016 4.47268 5.89119 0.5
637 1.96012 12.4631 6.82031 0.5
638 6.3038 7.65463 6.34645 0.5
639 12.022 2.74424 10.6497 0.5
640 3.47885 8.12333 4.36911 0.5
641 8.09517 10.6683 3.76106 0.5
642 8.9895 13.2417 10.2711 0.5
643 7.59941 13.4144 9.2126 0.5
644 12.2207 11.7675 8.41364 0.5
645 6.32753 3.56595 2.90641 0.5
646 0.466128 10.3068 10.8349 0.5
647 13.3804 8.82706 0.0131431 0.5
648 13.5845 1.98502 11.1893 0.5
649 3.01604 2.55581 6.55227 0.5
650 4.16638 1.4371 6.23731 0.5
651 5.33436 11.3054 2.87706 0.5
652 4.02224 5.79463 3.22893 0.5
653 3.37717 1.078 9.82392 0.5
654 7.04583 10.8183 9.97235 0.5
655 8.60364 1.44691 6.58891 0.5
656 6.91165 6.4067 2.45078 0.5
657 8.41826 0.248159 12.8739 0.5
658 7.45012 0.160734 1.37141 0.5
659 7.53708 8.06556 4.64895 0.5
660 5.76644 3.46514 0.900737 0.5
661 3.581 0.127014 13.4829 0.5
662 4.55248 7.69234 3.95586 0.5
663 3.63555 9.96903 1.23352 0.5
664 12.5518 2.19802 8.20693 0.5
665 2.84635 13.0802 13.0244 0.5
666 8.17175 12.5629 6.15887 0.5
667 10.4049 4.7616 6.26662 0.5
668 1.69014 6.2043 2.37524 0.5
669 1.48345 3.48261 13.3926 0.5
670 2.25353 7.12033 13.0511 0.5
671 3.45276 1.08683 11.7895 0.5
672 1.62618 11.8662 11.9917 0.5
673 1.6265 4.65991 12.7483 0.5
674 3.68488 10.0023 8.20937 0.5
675 11.1951 5.96658 12.4474 0.5
676 10.2308 4.6795 5.30434 0.5
677 5.00243 10.2231 2.39925 0.5
678 11.7472 5.36183 2.49045 0.5
679 2.49543 8.81154 1.91238 0.5
680 11.5865 10.5941 11.0331 0.5
681 2.54773 1.72121 12.8265 0.5
682 12.37 0.517332 9.54867 0.5
683 12.9324 3.53659 10.6402 0.5
684 3.20852 9.94629 12.2566 0.5
685 3.77985 4.4173 13.2877 0.5
686 2.29612 11.4766 0.20972 0.5
687 8.93973 11.3876 0.93541 0.5
688 0.652329 12.8679 2.22063 0.5
689 6.32423 12.9101 9.0109 0.5
690 2.47399 1.97345 9.74245 0.5
691 7.40074 9.82328 4.62496 0.5
692 5.25226 1.66827 11.3609 0.5
693 11.9083 0.672447 6.48555 0.5
694 2.22579 10.0612 5.84931 0.5
695 8.0812 2.88787 8.92259 0.5
696 7.79629 10.447 0.108651 0.5
697 6.7638 12.4839 8.91335 0.5
698 4.68395 10.4742 12.3849 0.5
699 11.5883 3.30488 6.52425 0.5
700 7.47708 13.2015 7.24728 0.5
701 0.503532 8.11063 4.67428 0.5
702 6.61124 12.7426 8.87106 0.5
703 10.66 11.4165 6.14863 0.5
704 12.033 10.248 10.2979 0.5
705 7.1553 3.64662 7.76496 0.5
706 2.64062 10.8104 9.89114 0.5
707 7.69739 6.20713 1.5018 0.5
708 11.2914 3.90888 4.95568 0.5
709 4.89727 0.0329785 1.39141 0.5
710 9.67982 9.64185 0.221174 0.5
711 8.82819 8.34904 13.2631 0.5
712 13.0193 6.31701 6.46453 0.5
713 9.74855 7.85081 9.36897 0.5
714 12.6095 0.958378 8.76983 0.5
715 1.90516 5.26121 6.541 0.5
716 13.2486 2.69796 3.4691 0.5
717 12.9624 1.98041 0.157011 0.5
718 6.03352 9.5946 9.19746 0.5
719 7.10464 7.42934 13.0973 0.5
720 7.20082 5.70657 3.21256 0.5
721 12.6049 8.46533 9.63454 0.5
722 9.34739 13.4358 0.831178 0.5
723 4.06681 11.5986 10.2064 0.5
724 9.47451 7.98855 5.83722 0.5
725 8.43389 10.1414 11.9919 0.5
726 10.9106 11.9865 4.13779 0.5
727 11.542 12.7642 4.31439 0.5
728 11.6103 9.87321 2.49675 0.5
729 0.0189421 4.6993 2.30551 0.5
730 8.56863 12.5822 8.64924 0.5
731 1.49523 8.43566 3.89214 0.5
732 11.0198 10.794 10.5255 0.5
733 3.88905 7.54562 7.71714 0.5
734 8.11391 0.49455 8.42896 0.5
735 1.18693 9.49169 5.49911 0.5
736 2.10566 9.33638 8.88211 0.5
737 6.38805 3.99161 9.47503 0.5
738 3.14671 7.43182 6.02126 0.5
739 2.81893 12.693 0.942909 0.5
740 3.96025 4.22807 4.37015 0.5
741 1.37457 13.5413 6.28106 0.5
742 5.76322 9.31842 9.58651 0.5
743 3.86471 8.36837 11.7111 0.5
744 13.3078 8.09119 10.1728 0.5
745 10.6443 2.85309 0.766062 0.5
746 7.80932 10.7299 1.02238 0.5
747 12.0078 3.15319 9.15629 0.5
748 4.86314 3.52619 13.4694 0.5
749 6.03839 0.598924 3.11339 0.5
750 4.4909 11.7845 6.74108 0.5
751 2.34861 7.9149 7.32043 0.5
752 7.95043 10.4363 8.52907 0.5
753 1.71016 10.9378 12.0314 0.5
754 3.85133 6.18758 1.18578 0.5
755 4.31601 13.4421 10.6235 0.5
756 13.3959 2.05003 0.396782 0.5
757 9.5272 11.7258 3.60662 0.5
758 6.4047 1.33534 6.59262 0.5
759 11.9768 0.669882 4.88255 0.5
760 8.12423 4.65916 7.79027 0.5
761 12.1337 7.58782 11.8524 0.5
762 5.94176 5.89559 13.0459 0.5
763 3.4422 6.36289 1.01361 0.5
764 10.3667 1.93639 1.97562 0.5
765 10.3366 10.3407 2.63133 0.5
766 9.65861 10.5926 7.28213 0.5
767 12.5171 11.4466 2.81831 0.5
768 12.3691 8.64664 1.65379 0.5
769 0.881692 7.42239 10.6053 0.5
770 10.4232 4.31859 7.65106 0.5
771 9.24786 0.218841 10.0789 0.5
772 3.24344 3.6328 12.4921 0.5
773 6.2684 12.8791 8.31902 0.5
774 3.20053 12.455 10.9611 0.5
775 3.60162 11.3137 7.84608 0.5
776 2.26029 2.04646 2.86889 0.5
777 9.80435 7.583 0.681549 0.5
778 6.60059 10.0664 12.7419 0.5
779 3.85061 2.59011 0.850776 0.5
780 4.28918 9.45944 6.73454 0.5
781 4.72855 4.81534 2.25728 0.5
782 10.242 6.50444 7.99294 0.5
783 6.5121 11.6565 1.59085 0.5
784 11.0071 10.1464 3.48938 0.5
785 12.578 2.88589 2.2546 0.5
786 6.77092 10.3893 8.8435 0.5
787 10.931 4.73079 1.37555 0.5
788 10.5721 0.867184 12.0721 0.5
789 12.4588 12.0021 8.563 0.5
790 5.22459 11.4044 8.82992 0.5
791 0.141105 11.6975 8.62079 0.5
792 11.0994 2.06959 10.8707 0.5
793 8.1704 6.57595 13.5022 0.5
794 2.76789 7.44503 10.7513 0.5
795 7.30366 4.08975 3.14558 0.5
796 5.69431 6.83396 12.2378 0.5
797 6.17076 7.61281 5.03501 0.5
798 0.517095 5.6795 9.09675 0.5
799 9.37349 8.00348 7.36054 0.5
800 9.17352 1.72382 5.82668 0.5
801 9.57125 7.83278 10.8976 0.5
802 5.25471 8.29019 6.66308 0.5
803 4.71035 12.1291 10.9094 0.5
804 6.03512 9.67822 0.731438 0.5
805 11.6197 5.3629 3.82101 0.5
806 11.0014 9.74949 3.58855 0.5
807 6.83575 1.20283 3.25223 0.5
808 11.5032 8.92668 13.3179 0.5
809 2.75045 10.4871 7.67441 0.5
810 7.64669 8.58331 3.84462 0.5
811 0.71046 5.97727 4.82941 0.5
812 11.2119 7.96349 8.91928 0.5
813 6.28053 5.65892 4.3343 0.5
814 13.3135 4.82249 10.6722 0.5
815 13.2771 10.5677 10.1292 0.5
816 11.607 1.5118 12.0634 0.5
817 6.85685 4.67623 9.39039 0.5
818 11.6163 1.64902 3.09278 0.5
819 0.129625 3.87614 10.8059 0.5
820 10.4804 3.97885 7.96441 0.5
821 9.02479 8.71534 6.24286 0.5
822 2.74748 2.43687 0.752746 0.5
823 9.75266 1.3167 6.3029 0.5
824 6.0642 7.51823 5.82419 0.5
825 6.30448 3.38553 10.5063 0.5
826 5.02234 4.09561 2.3179 0.5
827 6.815 10.5021 4.22118 0.5
828 9.86825 13.3929 2.19722 0.5
829 6.92281 0.61794 7.40732 0.5
830 6.81393 3.39845 3.32356 0.5
831 1.78484 3.58792 9.95454 0.5
832 8.8773 8.95566 13.0056 0.5
833 3.04999 4.03831 13.2401 0.5
834 11.5649 1.16991 13.1858 0.5
835 2.75463 0.952991 1.94296 0.5
836 2.135 7.53915 11.1465 0.5
837 4.24201 13.4563 6.43912 0.5
838 10.871 0.688473 8.17998 0.5
839 6.27048 11.8315 8.25853 0.5
840 9.81652 7.07521 5.24868 0.5
841 3.70614 6.74699 12.2009 0.5
842 5.58865 11.4702 7.516 0.5
843 10.2707 9.04909 8.15014 0.5
844 10.9978 5.66502 10.9874 0.5
845 1.46656 3.28682 6.72856 0.5
846 0.137049 0.671249 9.35046 0.5
847 4.57175 5.83848 0.375795 0.5
848 3.45937 0.826302 12.5754 0.5
849 8.75483 6.3682 12.0479 0.5
850 5.6851 0.130732 2.75491 0.5
851 1.37631 12.3046 0.126761 0.5
852 13.3482 10.8698 6.10399 0.5
853 3.84419 11.821 2.78212 0.5
854 1.82214 12.4866 7.58928 0.5
855 10.7727 11.0598 6.40863 0.5
856 9.06135 12.798 3.13753 0.5
857 11.4626 9.81649 6.19985 0.5
858 3.6112 1.58009 3.6887 0.5
859 9.57808 1.42131 1.232 0.5
860 13.4097 11.9122 10.814 0.5
861 9.3326 11.6939 11.9643 0.5
862 12.1331 10.5952 8.61009 0.5
863 6.97042 13.3592 1.13312 0.5
864 12.4402 9.17483 13.2268 0.5
865 10.6733 9.16306 5.60059 0.5
866 4.29332 2.51216 7.39871 0.5
867 8.8159 8.60551 4.34732 0.5
868 9.39879 12.5313 0.0882094 0.5
869 7.19508 5.85336 6.94506 0.5
870 11.2633 3.89407 8.00488 0.5
871 13.3307 3.83851 13.1107 0.5
872 9.22538 12.2629 5.96999 0.5
873 8.93743 10.566 5.70515 0.5
874 12.8029 0.222214 2.00235 0.5
875 1.29623 4.36504 10.5356 0.5
876 4.18232 10.5532 2.73533 0.5
877 0.152603 7.41448 11.8081 0.5
878 13.22 4.13898 12.9994 0.5
879 10.6077 4.18799 8.31335 0.5
880 7.06992 1.00165 11.1216 0.5
881 7.05145 8.12673 6.05861 0.5
882 11.9655 11.1244 1.1047 0.5
883 1.65407 5.52984 7.30982 0.5
884 13.0955 3.04376 1.83111 0.5
885 11.964 4.32397 5.92871 0.5
886 4.02529 5.23376 2.71179 0.5
887 2.68044 6.16594 7.0127 0.5
888 2.85249 3.3135 0.945196 0.5
889 12.9825 12.1258 8.01859 0.5
890 1.44932 2.19042 11.8657 0.5
891 10.1403 11.7362 10.2911 0.5
892 7.98868 8.32486 6.2149 0.5
893 12.8445 2.91989 12.4621 0.5
894 2.00742 7.2883 8.92587 0.5
895 2.74566 3.65012 10.2172 0.5
896 1.48296 2.1856 2.02719 0.5
897 1.63769 12.9794 6.28985 0.5
898 13.0862 9.00538 3.01815 0.5
899 5.10921 11.4497 5.00849 0.5
900 5.7665 11.8313 3.08533 0.5
901 2.90275 0.194973 5.12858 0.5
902 11.0387 4.58903 9.71047 0.5
903 13.5309 1.20817 13.3739 0.5
904 11.1889 13.4957 2.9143 0.5
905 4.99024 6.15332 4.12035 0.5
906 8.76158 9.8269 0.872817 0.5
907 5.2623 7.18159 5.67261 0.5
908 7.90418 3.78231 1.43503 0.5
909 2.31659 10.4382 8.70506 0.5
910 10.8125 0.78809 11.5533 0.5
911 0.767763 8.28443 2.21005 0.5
912 11.5638 3.39487 2.26998 0.5
913 5.97952 6.33092 10.3836 0.5
914 2.08103 9.32585 2.60145 0.5
915 8.64461 13.5443 9.96493 0.5
916 0.937406 9.346 2.27127 0.5
917 11.5129 12.28 6.51227 0.5
918 9.87452 2.66226 4.19119 0.5
919 4.3558 9.31719 13.3911 0.5
920 7.03403 9.99861 4.74565 0.5
921 3.55269 1.10163 11.6682 0.5
922 10.1336 5.39864 8.33528 0.5
923 7.02199 1.30024 3.34245 0.5
924 11.3752 4.52583 7.24603 0.5
925 4.17724 2.14205 4.18369 0.5
926 8.75464 5.09642 6.40389 0.5
927 5.1251 5.14759 5.51502 0.5
928 3.89334 1.65538 11.7463 0.5
929 3.34335 13.2583 8.48834 0.5
930 1.31968 1.55601 8.2079 0.5
931 12.8024 5.27917 7.58463 0.5
932 1.23887 3.65158 13.1307 0.5
933 7.81128 12.8301 9.84296 0.5