ITEM: TIMESTEP
170000
ITEM: NUMBER OF ATOMS
1000
ITEM: BOX BOUNDS xy xz yz pp pp pp
0.0000000000000000e+00 1.3572088000000001e+01 0.0000000000000000e+00
0.0000000000000000e+00 1.3572088000000001e+01 0.0000000000000000e+00
0.0000000000000000e+00 1.3572088000000001e+01 0.0000000000000000e+00
ITEM: ATOMS id x y z radius
1 7.44979 0.7318 6.12394 0.5
2 4.15309 11.8023 5.04054 0.5
3 0.726965 10.0877 9.23654 0.5
4 13.159 13.2657 12.7434 0.5
5 10.9175 0.814052 5.9972 0.5
6 9.10668 12.9502 11.8711 0.5
7 4.92258 4.89868 2.45487 0.5
8 8.39805 13.1508 3.0095 0.5
9 12.4024 0.517121 2.07567 0.5
10 7.29362 8.11379 4.47303 0.5
11 10.5622 13.0604 12.481 0.5
12 7.35754 1.8075 2.71485 0.5
13 7.79523 12.7 3.72137 0.5
14 10.3927 12.0138 0.264647 0.5
15 6.03945 12.0173 12.8912 0.5
16 0.881336 12.4586 0.189769 0.5
17 7.49062 9.20473 2.33294 0.5
18 11.6785 9.39042 0.406473 0.5
19 3.27339 6.79743 7.92806 0.5
20 5.41628 10.3909 0.0664522 0.5
21 4.45441 12.6998 9.56083 0.5
22 3.46219 4.09841 0.0468797 0.5
23 11.9364 9.92443 4.58248 0.5
24 12.4664 4.41358 5.21405 0.5
25 6.13313 12.9143 1.42069 0.5
26 1.72235 5.2447 3.65264 0.5
27 7.90682 4.29507 5.6819 0.5
28 3.75206 1.98474 2.88155 0.5
29 8.51153 5.64918 9.13823 0.5
30 9.03246 1.85466 10.2614 0.5
31 9.53079 5.9882 6.5677 0.5
32 12.6332 13.4637 12.379 0.5
33 3.43757 8.95538 3.15119 0.5
34 3.35818 4.66022 3.71388 0.5
35 7.16752 8.40654 12.9045 0.5
36 4.24038 3.0638 11.1372 0.5
37 4.08018 1.94673 5.92874 0.5
38 13.0364 0.482222 11.328 0.5
39 11.1219 4.55386 1.67051 0.5
40 4.42287 1.37077 6.90411 0.5
41 11.045 5.0803 13.0284 0.5
42 12.2741 11.4006 5.51973 0.5
43 6.91858 2.48134 8.10835 0.5
44 5.15766 6.26103 8.05316 0.5
45 5.08022 1.13106 4.99594 0.5
46 11.1369 2.0799 3.08365 0.5
47 8.30102 2.08937 5.02087 0.5
48 2.36412 2.05427 2.96378 0.5
49 4.89697 6.85638 4.22839 0.5
50 0.424978 6.76584 0.10158 0.5
51 4.51083 12.3081 3.46798 0.5
52 5.61029 5.38343 6.56272 0.5
53 5.89277 8.14506 2.37027 0.5
54 0.571593 8.57146 6.02199 0.5
55 3.52692 5.84201 2.79573 0.5
56 1.50743 10.5996 8.74045 0.5
57 6.78623 2.29439 8.27026 0.5
58 13.0394 2.80298 4.40012 0.5
59 11.0058 7.30388 6.46847 0.5
60 4.47801 1.49358 9.05133 0.5
61 1.84038 7.79456 5.64958 0.5
62 1.05085 4.45173 1.17079 0.5
63 11.8221 11.1311 9.18409 0.5
64 6.84595 5.83881 10.7383 0.5
65 0.963586 3.57002 4.63618 0.5
66 0.400258 9.07905 1.6226 0.5
67 2.72105 5.90974 3.43759 0.5
68 7.84618 2.64828 2.21532 0.5
69 11.861 5.7148 5.18098 0.5
70 9.18664 6.9651 0.287794 0.5
71 9.0712 11.2368 7.60836 0.5
72 10.6053 9.34755 3.91623 0.5
73 10.3075 3.67786 2.88715 0.5
74 13.1331 5.14511 5.75577 0.5
75 0.595443 7.2301 10.6025 0.5
76 4.66608 10.6629 11.5648 0.5
77 4.53149 8.46092 8.60115 0.5
78 0.611697 4.17265 2.27051 0.5
79 12.3134 12.7876 4.87899 0.5
80 7.39265 1.95841 5.09918 0.5
81 3.6402 6.17444 6.74409 0.5
82 2.83153 10.1952 9.90836 0.5
83 2.06994 8.37596 11.9809 0.5
84 6.24403 3.8122 11.9621 0.5
85 4.40743 8.53212 2.40718 0.5
86 7.79308 9.31388 2.86413 0.5
87 5.24979 1.57929 5.45575 0.5
88 0.0663675 4.38136 6.20579 0.5
89 6.0082 3.80381 5.33789 0.5
90 10.9414 11.5459 12.3529 0.5
91 4.1065 7.65498 0.899495 0.5
92 11.8619 1.36628 1.64854 0.5
93 11.9215 8.78579 12.1456 0.5
94 3.12296 7.63994 8.57522 0.5
95 9.56203 7.02074 4.45167 0.5
96 1.35486 2.1038 11.5127 0.5
97 7.86215 0.789875 1.47833 0.5
98 1.3954 2.48193 8.06893 0.5
99 10.9428 5.67456 8.72486 0.5
100 11.5476 9.14285 12.4818 0.5
101 4.67875 9.22003 11.8925 0.5
102 5.50939 1.73857 3.28379 0.5
103 13.2972 12.1376 2.21924 0.5
104 0.890164 13.5137 3.67997 0.5
105 2.30043 10.2523 6.63328 0.5
106 9.5836 11.8171 2.75856 0.5
107 7.20615 3.06883 5.66828 0.5
108 1.81526 12.2987 12.5719 0.5
109 4.11464 5.47252 11.6537 0.5
110 5.07503 1.52866 7.06066 0.5
111 12.7819 9.89021 4.52649 0.5
112 1.81071 10.4035 12.3562 0.5
113 8.44622 1.61546 0.677829 0.5
114 9.16044 0.411913 1.40842 0.5
115 13.5644 7.36494 9.09908 0.5
116 11.0398 8.87561 4.4312 0.5
117 11.3022 5.99049 12.6743 0.5
118 12.4872 5.12537 6.70247 0.5
119 1.95652 12.4702 9.68814 0.5
120 7.3463 4.38456 12.7229 0.5
121 4.10441 3.8551 0.0484359 0.5
122 4.49369 1.88474 8.46858 0.5
123 8.19634 9.4988 5.5903 0.5
124 2.35419 10.0668 11.4989 0.5
125 7.45405 13.47 5.34706 0.5
126 1.04911 2.85112 0.538856 0.5
127 7.25538 0.680116 12.1197 0.5
128 9.64748 9.4063 9.11533 0.5
129 1.32287 9.70684 13.3075 0.5
130 1.49842 12.7529 8.34726 0.5
131 4.32351 8.36302 0.478726 0.5
132 6.14566 7.60716 9.94064 0.5
133 5.76041 4.56445 3.10215 0.5
134 2.5273 0.105521 10.4521 0.5
135 10.7786 0.0942327 6.33363 0.5
136 2.52499 2.74917 5.00999 0.5
137 4.0582 11.862 8.74966 0.5
138 7.4731 1.7598 3.82569 0.5
139 7.98305 11.1599 10.1661 0.5
140 12.6983 3.59859 4.08755 0.5
141 9.39891 3.57712 5.47368 0.5
142 0.883598 13.3014 12.9982 0.5
143 6.54215 12.1417 11.6602 0.5
144 7.82379 7.42303 1.89362 0.5
145 5.78905 12.0159 2.16474 0.5
146 7.08411 1.8385 1.15251 0.5
147 6.17827 6.45566 7.19077 0.5
148 4.65181 11.297 13.2441 0.5
149 4.51445 9.78697 6.12839 0.5
150 9.79987 9.55514 7.86454 0.5
151 11.9182 4.04755 2.25148 0.5
152 7.8499 0.469 7.59747 0.5
153 10.0832 3.03079 7.21508 0.5
154 13.0386 0.0926618 12.1283 0.5
155 0.520959 5.31755 5.25363 0.5
156 10.198 4.13902 4.68252 0.5
157 0.61032 9.20142 10.7289 0.5
158 8.60219 6.97319 3.97546 0.5
159 7.23676 5.39886 6.94279 0.5
160 11.4955 7.78123 12.515 0.5
161 3.93266 10.7149 12.4558 0.5
162 6.51912 3.33012 9.44871 0.5
163 0.484004 9.84581 0.0672605 0.5
164 3.94856 8.82094 5.23667 0.5
165 6.77421 5.88806 7.19229 0.5
166 10.168 6.52013 8.01281 0.5
167 9.6807 13.4772 8.95477 0.5
168 11.5783 6.97922 5.08821 0.5
169 9.07497 2.47174 12.2327 0.5
170 0.0230525 5.1705 9.04209 0.5
171 2.09309 11.8211 9.31306 0.5
172 11.302 8.52396 10.4084 0.5
173 6.31283 1.47644 5.82181 0.5
174 3.42115 3.2836 4.61039 0.5
175 5.68643 13.462 1.87528 0.5
176 6.28634 11.7342 12.654 0.5
177 12.7013 5.18227 8.06336 0.5
178 3.10898 0.206778 12.5079 0.5
179 4.12057 11.5176 2.62306 0.5
180 7.51005 9.69348 2.66474 0.5
181 9.07605 9.42654 7.2461 0.5
182 11.1302 11.7739 8.97562 0.5
183 6.91603 0.734769 5.33628 0.5
184 0.312563 11.0242 10.6567 0.5
185 1.16526 6.33587 6.21459 0.5
186 7.38963 4.14679 0.47584 0.5
187 8.27187 10.4065 1.65696 0.5
188 3.4549 12.6105 7.85072 0.5
189 5.46021 11.3228 5.47128 0.5
190 0.940481 9.95217 12.5149 0.5
191 7.16069 4.14476 5.29766 0.5
192 9.46421 9.22278 8.67096 0.5
193 5.35227 3.94871 10.0925 0.5
194 1.39381 6.1575 7.50766 0.5
195 1.02744 9.76553 10.9621 0.5
196 0.0500109 9.26761 6.72301 0.5
197 13.5055 2.89235 10.8092 0.5
198 10.5305 10.5121 10.0338 0.5
199 9.32695 10.775 4.99326 0.5
200 10.4216 7.07297 8.32813 0.5
201 6.50179 4.32814 4.25261 0.5
202 10.7791 13.2702 8.4771 0.5
203 8.21097 12.4517 9.61164 0.5
204 5.42857 12.7268 4.32028 0.5
205 7.99032 9.73893 1.44559 0.5
206 0.874733 12.3763 0.679257 0.5
207 3.47779 6.90007 5.62616 0.5
208 8.25748 7.3346 6.66518 0.5
209 10.9919 12.0623 10.239 0.5
210 3.44855 11.8401 0.573114 0.5
211 0.70974 10.1 0.751348 0.5
212 1.84619 6.20409 6.96205 0.5
213 6.39002 10.5499 3.44022 0.5
214 6.02119 11.1134 4.9266 0.5
215 0.215779 0.205257 7.20516 0.5
216 6.08827 1.88799 7.54209 0.5
217 11.4408 2.87918 10.0962 0.5
218 7.27769 9.74067 5.97387 0.5
219 8.17376 11.1887 4.43484 0.5
220 6.05778 5.18891 3.44593 0.5
221 10.2335 1.27017 11.7211 0.5
222 4.541 1.91756 0.444816 0.5
223 12.2537 3.96603 4.9316 0.5
224 3.75315 9.0708 0.681031 0.5
225 11.8345 0.704601 10.2341 0.5
226 13.4509 6.8208 8.45047 0.5
227 0.716112 12.9906 3.02741 0.5
228 6.09665 9.67033 13.5354 0.5
229 4.09154 7.83294 10.8551 0.5
230 12.9154 9.22265 8.15613 0.5
231 7.53987 4.4774 8.95754 0.5
232 13.4516 5.88491 3.85629 0.5
233 5.50997 0.35085 9.98207 0.5
234 4.80747 7.72469 10.1442 0.5
235 8.87528 12.1623 6.47725 0.5
236 9.38866 4.5198 0.0552143 0.5
237 9.92675 1.68162 0.549454 0.5
238 9.76117 1.47179 8.71983 0.5
239 3.83333 9.12148 0.352068 0.5
240 9.25859 1.98031 12.6277 0.5
241 3.23352 5.74982 2.67835 0.5
242 7.40897 7.48274 6.6904 0.5
243 3.50591 7.10463 9.82719 0.5
244 10.0671 6.80138 8.28539 0.5
245 6.65485 8.34483 6.38782 0.5
246 0.628497 10.6467 2.46026 0.5
247 9.21973 7.6451 7.14737 0.5
248 7.87704 10.0184 12.9841 0.5
249 5.16674 0.78359 3.59771 0.5
250 8.77461 1.03953 9.92163 0.5
251 9.44302 1.78146 8.57232 0.5
252 8.33941 4.49301 4.96755 0.5
253 7.80162 6.89966 7.40648 0.5
254 8.01117 11.2547 4.61264 0.5
255 2.79188 8.19669 2.03237 0.5
256 1.90987 5.33355 11.4941 0.5
257 2.58562 4.22763 3.64748 0.5
258 11.6946 12.0911 1.64728 0.5
259 0.635699 0.5692 2.34835 0.5
260 12.7092 11.7156 1.49993 0.5
261 0.705726 10.9073 12.0791 0.5
262 3.68372 1.15899 10.1122 0.5
263 3.31791 7.07717 6.52737 0.5
264 0.456877 9.72372 10.2304 0.5
265 4.38493 1.29727 12.9162 0.5
266 9.36712 1.15835 8.43396 0.5
267 5.5881 1.50234 2.75758 0.5
268 3.30835 8.37699 7.55834 0.5
269 10.0437 0.819079 8.67482 0.5
270 1.16444 9.89791 1.65956 0.5
271 12.6943 9.0848 7.06618 0.5
272 7.37478 8.89074 7.24045 0.5
273 6.99804 10.7331 11.4712 0.5
274 3.65619 9.4081 5.45911 0.5
275 11.4644 12.8064 10.307 0.5
276 7.54785 4.35677 13.0373 0.5
277 2.33217 3.85674 9.92129 0.5
278 11.7142 0.8859 8.56368 0.5
279 2.23828 12.128 9.46922 0.5
280 12.8319 4.15758 2.00822 0.5
281 6.44893 9.10115 6.75016 0.5
282 4.09983 5.09342 13.4816 0.5
283 1.66758 2.7497 10.9189 0.5
284 7.16414 4.35496 11.425 0.5
285 12.1324 12.7943 2.11424 0.5
286 1.55966 8.47376 11.8533 0.5
287 5.50227 9.92893 8.42364 0.5
288 6.40555 4.05334 3.80389 0.5
289 1.97765 3.40331 6.465 0.5
290 5.52032 6.56265 0.77328 0.5
291 5.87322 7.61419 2.01162 0.5
292 13.014 1.62962 6.47907 0.5
293 5.11864 5.54713 11.6677 0.5
294 7.72315 0.310037 3.97729 0.5
295 11.6026 12.5071 3.89167 0.5
296 12.5711 6.11996 0.363003 0.5
297 11.6538 6.14579 6.13089 0.5
298 4.01983 13.2716 5.03115 0.5
299 11.6301 4.59883 8.3415 0.5
300 9.70895 11.9707 6.93617 0.5
301 0.795418 4.77758 10.5644 0.5
302 10.7316 11.8222 13.2722 0.5
303 4.88673 6.72132 4.79286 0.5
304 10.711 7.36517 10.0165 0.5
305 11.5581 1.08907 3.5121 0.5
306 11.4078 2.59346 5.69917 0.5
307 13.1495 12.4253 1.72285 0.5
308 11.8707 9.78954 0.28006 0.5
309 7.56565 9.81895 3.27156 0.5
310 5.17105 2.95149 4.27491 0.5
311 3.52149 13.4753 9.94619 0.5
312 13.5889 2.74609 12.7661 0.5
313 12.0888 11.1743 1.38625 0.5
314 10.3655 5.92262 3.37153 0.5
315 11.4048 10.3913 3.22822 0.5
316 10.3094 1.02847 13.0779 0.5
317 8.85132 9.51386 0.734552 0.5
318 6.71553 8.92391 7.46086 0.5
319 11.9695 10.214 10.4428 0.5
320 7.76235 4.47888 2.7268 0.5
321 8.80391 10.5836 12.9171 0.5
322 2.47031 12.6615 2.36293 0.5
323 4.42679 6.27147 10.8589 0.5
324 0.652945 8.2361 11.7531 0.5
325 4.80264 7.21857 10.771 0.5
326 0.267272 9.96704 3.8733 0.5
327 2.83742 12.0475 2.83955 0.5
328 1.60584 11.5233 3.28815 0.5
329 3.46161 8.48103 0.32698 0.5
330 13.2043 8.70942 0.821009 0.5
331 3.29558 13.3364 10.635 0.5
332 11.7717 1.12113 13.3539 0.5
333 10.0606 4.09461 13.0168 0.5
334 4.42881 1.18914 12.2188 0.5
335 12.0142 9.4489 8.93182 0.5
336 2.92726 7.60043 12.4899 0.5
337 10.6583 7.132 3.55927 0.5
338 11.4519 5.69623 1.18974 0.5
339 11.7013 7.99264 7.7906 0.5
340 13.3416 2.29721 2.24146 0.5
341 0.912277 4.72486 1.03777 0.5
342 5.41713 7.26552 1.03589 0.5
343 11.3722 9.34468 13.0799 0.5
344 9.64613 6.35397 10.2787 0.5
345 2.59131 7.78274 12.8915 0.5
346 8.80995 4.36197 12.6931 0.5
347 6.88922 4.16495 10.6623 0.5
348 9.77067 4.54768 7.56713 0.5
349 7.35808 8.30342 12.9915 0.5
350 12.3296 3.10891 10.9208 0.5
351 9.60621 4.7077 12.4422 0.5
352 6.38282 10.0705 4.6295 0.5
353 3.15798 10.7784 3.39352 0.5
354 12.014 13.4052 8.888 0.5
355 5.12747 7.68865 4.87896 0.5
356 12.2382 3.26527 9.0704 0.5
357 7.41997 10.6019 7.7653 0.5
358 11.1934 4.80595 5.19579 0.5
359 4.73596 2.13607 5.13714 0.5
360 1.33217 8.31536 8.74687 0.5
361 8.19293 0.0891164 8.94564 0.5
362 5.25718 7.10038 6.51958 0.5
363 7.35062 5.7941 0.746636 0.5
364 4.00277 11.115 4.61381 0.5
365 11.477 6.00757 8.64593 0.5
366 2.08542 7.57602 5.3919 0.5
367 13.4333 10.3975 1.78842 0.5
368 0.342264 12.3176 3.05082 0.5
369 3.03497 8.14701 4.07616 0.5
370 1.83366 1.54343 9.10476 0.5
371 4.73364 1.79607 3.98191 0.5
372 10.1666 5.83894 12.5679 0.5
373 13.1443 9.58986 3.73073 0.5
374 3.44164 4.68815 5.96989 0.5
375 13.0673 3.95934 2.68742 0.5
376 7.24943 5.16565 10.135 0.5
377 10.6611 12.9285 12.6348 0.5
378 7.68997 5.55873 6.33542 0.5
379 9.53095 7.62056 6.8507 0.5
380 9.75912 1.72669 9.83819 0.5
381 10.1391 11.0651 11.6613 0.5
382 10.2251 1.04443 6.904 0.5
383 13.3625 8.48241 10.319 0.5
384 11.1245 9.07477 10.7969 0.5
385 1.65037 3.31604 9.10208 0.5
386 11.5759 6.07694 6.14226 0.5
387 5.27904 4.80734 9.88916 0.5
388 9.99035 6.11461 3.35367 0.5
389 1.98706 2.33829 1.95332 0.5
390 13.5577 2.51913 1.50276 0.5
391 11.9487 2.88437 11.8284 0.5
392 8.52714 8.33117 13.3701 0.5
393 8.4424 6.62926 1.71228 0.5
394 10.1161 5.55117 10.6343 0.5
395 0.429069 9.36812 12.9009 0.5
396 12.6956 3.03575 8.49324 0.5
397 3.00596 7.12854 12.0013 0.5
398 0.162574 8.31225 7.16697 0.5
399 1.46889 6.15688 11.8398 0.5
400 8.54275 6.37063 11.6321 0.5
401 10.2484 11.0125 7.88575 0.5
402 10.9733 5.3003 7.32152 0.5
403 1.00819 2.4462 12.709 0.5
404 0.727181 7.27239 2.12821 0.5
405 11.7465 2.57898 9.10482 0.5
406 12.6661 7.3996 9.0106 0.5
407 10.9317 8.66474 12.8507 0.5
408 12.9924 12.2844 7.89736 0.5
409 6.04456 11.7604 12.8538 0.5
410 5.60676 6.7719 13.5343 0.5
411 3.32666 3.75436 11.4368 0.5
412 13.3258 0.375453 7.77784 0.5
413 2.36941 5.16926 7.78884 0.5
414 2.49699 3.21022 0.291732 0.5
415 11.6897 9.65133 6.8175 0.5
416 3.82416 3.50579 11.7293 0.5
417 3.45013 4.1134 4.75666 0.5
418 5.89435 3.56683 2.74228 0.5
419 11.9134 6.56477 7.62491 0.5
420 12.8888 10 2.57298 0.5
421 1.7103 3.06122 2.97327 0.5
422 2.5698 5.36123 4.83061 0.5
423 10.4555 7.08443 3.71423 0.5
424 0.442964 11.278 7.73466 0.5
425 4.47152 13.1913 2.53393 0.5
426 12.5314 3.80962 10.5389 0.5
427 4.54965 10.6208 10.0648 0.5
428 9.99108 8.99842 11.0903 0.5
429 12.9275 6.41755 5.08375 0.5
430 6.53216 3.46225 0.511109 0.5
431 6.04501 1.21996 10.0323 0.5
432 12.949 11.6357 11.1476 0.5
433 1.82025 9.60914 2.22565 0.5
434 1.41577 12.1289 4.69845 0.5
435 11.6063 4.26678 5.23277 0.5
436 5.77065 8.95504 11.3402 0.5
437 1.08393 10.9367 0.974765 0.5
438 0.574211 6.2861 5.88865 0.5
439 9.89458 12.412 5.5315 0.5
440 2.70149 1.07308 12.9031 0.5
441 6.44417 12.7337 3.85598 0.5
442 10.6062 8.58861 13.0826 0.5
443 0.809269 8.01691 2.16824 0.5
444 6.75705 7.60647 9.57849 0.5
445 3.39085 5.20873 11.0294 0.5
446 7.95869 1.26422 13.2838 0.5
447 3.37991 4.54294 9.05475 0.5
448 12.8639 13.4452 12.1224 0.5
449 0.779606 7.48825 5.52325 0.5
450 8.13455 4.15461 0.996844 0.5
451 13.079 3.34826 13.4167 0.5
452 0.484161 2.58902 4.1998 0.5
453 5.47649 11.6403 0.652935 0.5
454 3.59819 2.41721 12.023 0.5
455 10.6928 3.41143 4.00766 0.5
456 5.83777 6.83267 7.80537 0.5
457 7.03782 6.85481 11.0954 0.5
458 8.28614 3.68986 6.62336 0.5
459 5.52121 9.87982 13.3729 0.5
460 12.9251 4.1702 9.52937 0.5
461 5.94631 5.91801 1.67462 0.5
462 4.27548 12.6208 1.56232 0.5
463 3.62326 6.93415 8.41779 0.5
464 10.2825 10.5921 5.09626 0.5
465 4.20153 3.34694 5.05557 0.5
466 7.00716 10.3533 0.227552 0.5
467 8.92456 4.59171 12.5637 0.5
468 0.0151232 4.92373 5.69192 0.5
469 12.9917 12.3074 3.44699 0.5
470 3.04895 7.53009 13.1844 0.5
471 4.49743 7.61621 5.08824 0.5
472 11.1003 8.07559 7.80464 0.5
473 2.04008 7.76807 10.5046 0.5
474 9.54725 11.4664 5.53689 0.5
475 0.608898 2.28646 7.37854 0.5
476 2.63456 5.98967 3.49306 0.5
477 1.32835 13.4508 1.48552 0.5
478 13.315 7.33501 5.90902 0.5
479 4.28821 1.57923 5.99845 0.5
480 6.37951 0.951163 0.365881 0.5
481 3.08077 12.6766 3.21162 0.5
482 2.12805 6.96676 11.7495 0.5
483 11.0227 4.63385 1.07774 0.5
484 12.9507 5.49648 1.13746 0.5
485 2.70869 4.68802 9.00325 0.5
486 1.50733 6.44971 5.34496 0.5
487 8.58591 3.99343 6.08589 0.5
488 9.43177 12.3244 4.01725 0.5
489 6.96783 5.39517 4.46076 0.5
490 7.57541 5.75611 2.22512 0.5
491 7.02666 6.7857 11.3589 0.5
492 9.51082 9.49589 11.4003 0.5
493 8.34441 12.1021 13.2175 0.5
494 3.36989 3.02791 3.87503 0.5
495 2.80204 0.330199 9.53564 0.5
496 5.85736 11.7305 1.50251 0.5
497 7.32183 7.37115 1.92449 0.5
498 2.34516 13.2204 0.620481 0.5
499 5.99785 8.4689 1.97154 0.5
500 10.547 4.89372 7.60397 0.5
501 6.55128 4.01331 7.73658 0.5
502 5.11652 12.3594 12.5005 0.5
503 10.726 8.0072 9.3579 0.5
504 4.11855 12.7909 11.891 0.5
505 3.50315 2.68869 3.54007 0.5
506 10.619 9.2556 2.32065 0.5
507 6.00808 6.87909 5.32224 0.5
508 0.0326357 10.2037 11.0618 0.5
509 4.13169 7.21369 10.2762 0.5
510 12.1333 9.20699 8.11001 0.5
511 9.88205 9.95021 4.91509 0.5
512 3.67179 1.08227 4.72718 0.5
513 9.72278 1.69141 8.43702 0.5
514 13.0821 4.1054 12.16 0.5
515 7.12909 11.382 5.58178 0.5
516 12.8214 4.3591 3.79748 0.5
517 1.40105 0.448266 2.60499 0.5
518 2.68676 9.82928 7.13466 0.5
519 3.2732 12.4669 10.6363 0.5
520 12.3244 4.28763 4.08543 0.5
521 7.06071 12.2132 9.48821 0.5
522 1.82538 2.54841 0.708479 0.5
523 8.20308 4.39182 6.06585 0.5
524 1.50811 6.0984 5.48214 0.5
525 8.37043 8.881 8.248 0.5
526 2.57299 12.9968 6.593 0.5
527 6.33469 10.9265 10.8979 0.5
528 9.49459 7.1232 5.90895 0.5
529 11.744 9.85498 4.34884 0.5
530 0.18734 4.1989 9.43228 0.5
531 0.959137 4.15554 6.2058 0.5
532 10.1136 13.3215 0.163704 0.5
533 6.20825 10.8888 13.1346 0.5
534 2.1561 0.702677 10.4439 0.5
535 7.25692 0.608288 12.7258 0.5
536 4.69511 6.9005 7.25646 0.5
537 10.8855 7.70205 4.91518 0.5
538 8.34726 11.9325 2.8481 0.5
539 3.85426 6.47347 10.6274 0.5
540 5.86018 10.1075 6.08616 0.5
541 7.07463 5.96648 13.1498 0.5
542 13.2207 8.51682 0.766714 0.5
543 10.0386 6.84317 11.7545 0.5
544 10.6085 5.77461 12.2675 0.5
545 7.47796 6.15171 6.92352 0.5
546 2.41057 11.2916 6.1971 0.5
547 5.3981 1.25745 5.87352 0.5
548 4.68081 13.2764 5.53633 0.5
549 7.87837 12.1054 6.25693 0.5
550 13.5312 6.58241 10.1071 0.5
551 0.0326819 0.210057 6.79795 0.5
552 10.1691 6.4704 3.50186 0.5
553 5.81102 7.99995 0.264723 0.5
554 5.01197 3.84831 7.66237 0.5
555 2.53361 4.68894 5.64164 0.5
556 4.57827 11.3202 0.121938 0.5
557 2.4787 3.26052 12.0817 0.5
558 0.414651 1.06771 0.352267 0.5
559 1.22667 6.92658 2.16186 0.5
560 1.45547 2.16079 0.967314 0.5
561 11.827 2.02837 3.80999 0.5
562 11.8438 9.61471 0.652043 0.5
563 0.00746203 10.8134 11.5431 0.5
564 1.53085 11.2521 4.5278 0.5
565 11.2539 7.00213 7.06368 0.5
566 10.4725 7.96276 1.67122 0.5
567 8.90417 3.14587 12.753 0.5
568 3.7668 10.123 9.10196 0.5
569 1.22889 4.65507 7.78231 0.5
570 5.08661 1.84718 10.1098 0.5
571 4.97628 10.6279 13.5374 0.5
572 8.50981 6.88625 5.22267 0.5
573 6.33165 1.97168 9.82479 0.5
574 1.33474 0.136442 13.4613 0.5
575 0.181515 1.87376 13.2446 0.5
576 5.42705 10.3808 1.78343 0.5
577 7.5309 12.7385 10.2184 0.5
578 7.3268 1.75488 12.5127 0.5
579 6.53206 6.19714 10.8562 0.5
580 5.70205 2.20528 8.99428 0.5
581 4.35997 2.52377 8.46381 0.5
582 11.3983 3.36324 3.26858 0.5
583 7.54987 8.4322 1.16053 0.5
584 10.6704 13.1836 12.8819 0.5
585 13.4669 12.0422 8.97451 0.5
586 5.29184 0.844207 0.433011 0.5
587 3.46489 11.3742 9.51465 0.5
588 4.93627 11.742 8.13335 0.5
589 5.817 4.65959 7.95007 0.5
590 4.68004 4.41888 0.260477 0.5
591 3.75202 8.7533 0.331013 0.5
592 7.64466 9.23472 8.16883 0.5
593 2.99952 8.66667 8.88868 0.5
594 3.42881 0.239843 9.96517 0.5
595 10.0699 4.95538 5.78357 0.5
596 6.53732 0.359617 4.40222 0.5
597 0.881286 9.80547 1.96896 0.5
598 7.142 3.14719 6.46307 0.5
599 4.01613 7.88295 4.05646 0.5
600 12.7318 9.65251 7.60216 0.5
601 2.01337 0.0858934 4.37339 0.5
602 1.54776 0.349442 8.53656 0.5
603 5.78779 9.6563 2.77414 0.5
604 9.13551 6.88394 6.52576 0.5
605 2.74013 12.056 0.016925 0.5
606 6.13398 4.37108 9.50125 0.5
607 2.10141 9.78293 6.48717 0.5
608 3.16572 9.91621 5.55392 0.5
609 11.4275 5.6874 7.96708 0.5
610 12.4746 13.3696 2.98074 0.5
611 8.29404 13.0936 9.31531 0.5
612 2.57243 5.43994 10.8423 0.5
613 6.03556 2.90122 7.50734 0.5
614 6.14983 12.2473 3.11572 0.5
615 4.80638 12.0103 11.9828 0.5
616 6.20555 2.48341 9.6682 0.5
617 5.57677 7.43335 1.03426 0.5
618 10.7295 4.76309 10.4789 0.5
619 12.965 4.72242 10.7572 0.5
620 11.2949 1.92398 7.02342 0.5
621 10.9582 9.50298 8.19343 0.5
622 6.72884 6.41246 8.79762 0.5
623 12.9603 9.35355 4.62957 0.5
624 5.80793 11.8054 12.1347 0.5
625 10.6261 1.23634 5.54318 0.5
626 8.59766 12.1743 4.66896 0.5
627 1.47046 13.2618 1.56262 0.5
628 7.71194 6.34395 0.990852 0.5
629 2.39064 5.88973 2.70339 0.5
630 4.67667 8.8599 11.0583 0.5
631 12.506 0.455118 1.08801 0.5
632 7.59397 3.78563 1.11557 0.5
633 10.1357 0.716442 7.56245 0.5
634 1.34479 3.04592 11.2018 0.5
635 5.47569 7.23238 2.1278 0.5
636 6.56555 0.20272 10.4224 0.5
637 6.82684 3.10451 4.60873 0.5
638 12.3285 0.801903 2.94441 0.5
639 1.37319 4.05431 10.9843 0.5
640 11.2591 0.335587 6.29565 0.5
641 2.2938 3.03133 7.60748 0.5
642 8.24241 8.83401 9.38448 0.5
643 5.74666 9.68469 6.11839 0.5
644 5.00779 10.86 5.40975 0.5
645 10.619 1.71992 0.380685 0.5
646 0.996 6.89368 8.04316 0.5
647 5.71018 8.5231 6.05099 0.5
648 5.21077 3.02826 10.4165 0.5
649 13.3311 10.4851 3.59927 0.5
650 5.97814 3.9375 4.49701 0.5
651 4.55849 13.0849 9.61427 0.5
652 3.91962 7.2628 2.18552 0.5
653 11.0455 9.40093 0.685844 0.5
654 13.4107 8.03235 12.5041 0.5
655 3.76619 11.0031 8.2986 0.5
656 8.67332 3.1734 7.61372 0.5
657 8.78408 12.7151 8.96202 0.5
658 5.0767 2.97792 2.07432 0.5
659 2.57695 8.90659 12.6685 0.5
660 5.61297 3.31746 8.40135 0.5
661 12.3097 0.974721 7.48078 0.5
662 2.53554 2.00271 9.64062 0.5
663 3.82756 0.12772 0.548585 0.5
664 9.91542 4.51915 5.063 0.5
665 8.22724 0.685886 5.50631 0.5
666 11.0767 1.26494 0.52172 0.5
667 2.11079 3.82873 4.94331 0.5
668 10.9303 6.94529 8.93902 0.5
669 6.99814 4.72578 11.7753 0.5
670 2.40222 1.31348 7.84852 0.5
671 2.58742 11.8514 6.86886 0.5
672 11.5767 7.76802 12.4634 0.5
673 4.90055 12.1565 5.14105 0.5
674 4.59625 10.5039 6.12179 0.5
675 9.75177 7.79755 11.3605 0.5
676 7.10925 12.1905 4.70619 0.5
677 13.1408 1.94648 13.3222 0.5
678 5.87923 7.66879 6.53287 0.5
679 7.04271 11.1329 6.56081 0.5
680 8.65938 11.6827 10.6994 0.5
681 9.78244 6.46187 10.0167 0.5
682 2.1685 6.47948 8.66504 0.5
683 9.5092 7.96133 9.98791 0.5
684 3.50139 2.03275 1.05813 0.5
685 8.17223 1.56816 9.02087 0.5
686 9.16146 0.451521 12.2954 0.5
687 12.1578 8.79632 2.62394 0.5
688 12.92 4.26962 5.89868 0.5
689 4.01087 10.5862 3.31444 0.5
690 7.34864 1.73584 3.88664 0.5
691 2.36471 11.2526 5.94495 0.5
692 5.3344 3.18705 12.9847 0.5
693 9.52671 9.14444 11.0719 0.5
694 8.55843 8.02408 10.0347 0.5
695 8.21749 13.5389 10.3936 0.5
696 13.002 3.53633 6.33355 0.5
697 6.83416 4.76405 2.20501 0.5
698 9.19116 2.39133 1.74446 0.5
699 7.23053 13.4656 7.40146 0.5
700 5.43295 0.790937 0.517201 0.5
701 11.8901 3.36274 13.0595 0.5
702 1.93391 11.9124 2.23592 0.5
703 6.72536 1.70605 8.42995 0.5
704 10.2342 4.0426 1.13918 0.5
705 6.68871 9.13157 7.40054 0.5
706 7.93431 11.4081 3.17795 0.5
707 10.056 11.7301 1.59954 0.5
708 2.96608 5.64841 0.273025 0.5
709 0.745485 5.93868 7.54972 0.5
710 8.29019 9.04203 11.6151 0.5
711 3.19865 1.08654 6.61809 0.5
712 4.61168 8.85452 11.1814 0.5
713 4.53763 12.7753 11.6915 0.5
714 6.13947 0.344527 9.30475 0.5
715 1.01063 4.60746 7.29818 0.5
716 8.00596 7.77811 5.47263 0.5
717 7.1798 7.20415 12.8246 0.5
718 5.36051 5.52038 8.94909 0.5
719 2.83463 9.89672 2.72915 0.5
720 13.3688 0.90764 9.65115 0.5
721 6.8476 1.28532 0.529231 0.5
722 10.8892 12.518 3.9111 0.5
723 0.878003 8.17629 4.75426 0.5
724 8.47749 2.78743 4.95458 0.5
725 8.42704 0.680929 3.12841 0.5
726 11.4783 5.58364 4.71384 0.5
727 10.2151 5.99565 11.7076 0.5
728 2.26863 11.3509 5.68604 0.5
729 11.0677 4.65544 3.49573 0.5
730 7.64868 4.2164 7.76172 0.5
731 10.8919 9.77332 9.36644 0.5
732 6.24877 9.63467 0.774804 0.5
733 7.5377 2.61603 13.5579 0.5
734 7.52466 11.5316 12.1972 0.5
735 11.287 4.93818 8.93473 0.5
736 8.06706 9.16096 2.05269 0.5
737 4.29111 2.34696 11.107 0.5
738 8.74056 0.789317 7.68851 0.5
739 4.89023 8.11915 12.4634 0.5
740 1.17126 1.66702 7.68111 0.5
741 6.37206 0.215312 12.1756 0.5
742 4.31499 5.31304 8.78136 0.5
743 6.33924 7.89477 7.99497 0.5
744 0.654065 12.6278 9.04788 0.5
745 8.35846 1.45315 6.37752 0.5
746 8.03463 8.78311 9.66735 0.5
747 4.29524 2.45946 1.44125 0.5
748 7.42482 9.81492 10.4337 0.5
749 4.73408 12.3263 4.61781 0.5
750 7.81806 2.20386 9.24554 0.5
751 12.3375 10.3645 1.91124 0.5
752 10.8075 9.32037 6.4563 0.5
753 9.83168 7.71313 0.80508 0.5
754 10.8578 5.39588 3.52124 0.5
755 2.5976 10.099 4.74706 0.5
756 11.4611 2.08137 2.3189 0.5
757 1.4927 9.80636 5.6976 0.5
758 12.4688 12.4848 12.5578 0.5
759 8.97779 12.0679 10.656 0.5
760 9.06169 4.34951 13.173 0.5
761 7.96726 9.22344 1.22337 0.5
762 11.5379 11.4693 10.6611 0.5
763 10.9257 5.516 7.85658 0.5
764 0.708937 10.5319 9.47111 0.5
765 3.94056 7.69811 13.1479 0.5
766 13.5414 4.32408 2.54905 0.5
767 2.40678 7.06434 1.71055 0.5
768 13.0257 2.5657 5.56977 0.5
769 2.21817 2.08382 12.3302 0.5
770 3.98698 3.84149 6.00796 0.5
771 6.13176 9.36415 12.8376 0.5
772 11.3903 12.7585 5.08257 0.5
773 2.93094 6.18472 3.57034 0.5
774 13.0517 10.3939 8.30251 0.5
775 9.74464 9.87396 10.2765 0.5
776 3.13166 3.12931 8.80429 0.5
777 6.73986 7.21782 1.87114 0.5
778 13.3479 0.552525 7.03186 0.5
779 13.2694 3.46999 2.70164 0.5
780 12.41 4.36673 8.93207 0.5
781 11.4318 8.32093 13.2047 0.5
782 1.46521 5.50183 9.2475 0.5
783 4.22203 0.603415 12.9166 0.5
784 10.2912 1.21822 5.12798 0.5
785 10.9352 1.74415 8.74126 0.5
786 4.12542 6.50363 8.96668 0.5
787 4.52768 1.25411 4.38799 0.5
788 7.65325 13.3293 9.8341 0.5
789 3.80933 12.2395 12.7803 0.5
790 8.68452 9.54695 4.10947 0.5
791 11.6665 12.6108 5.41059 0.5
792 0.551138 0.298125 1.5085 0.5
793 8.14921 9.50801 12.9453 0.5
794 7.1386 5.29734 0.0543933 0.5
795 4.04076 12.3312 9.22989 0.5
796 13.0391 8.85108 11.1122 0.5
797 11.179 5.55671 10.1548 0.5
798 12.381 8.93131 1.40431 0.5
799 7.92304 12.1439 6.31042 0.5
800 12.1382 2.40958 6.79988 0.5
801 0.0288038 12.446 12.5428 0.5
802 0.644857 6.15815 10.1513 0.5
803 11.5727 2.86949 2.12557 0.5
804 5.80369 0.412867 11.2416 0.5
805 12.5851 6.75766 8.28127 0.5
806 3.1451 3.84529 2.07949 0.5
807 13.1115 3.08382 8.7534 0.5
808 10.4792 13.4037 0.934951 0.5
809 12.348 2.58835 8.89498 0.5
810 3.28866 11.8759 6.1328 0.5
811 6.09746 13.032 8.30298 0.5
812 0.803207 5.74558 4.11889 0.5
813 10.3658 6.69408 10.0053 0.5
814 6.98612 3.33494 7.34809 0.5
815 0.911903 6.23731 11.0119 0.5
816 6.50908 10.2241 7.54221 0.5
817 2.26752 5.81085 1.08069 0.5
818 6.43636 10.4675 13.4512 0.5
819 10.6143 3.55265 11.3833 0.5
820 11.3892 0.00788496 13.0114 0.5
821 12.4541 8.03824 2.91073 0.5
822 0.0714101 7.34342 12.358 0.5
823 9.72136 5.87875 4.43146 0.5
824 12.6108 5.26982 9.05528 0.5
825 4.33104 3.36823 0.433092 0.5
826 6.6566 11.8354 10.9837 0.5
827 7.63737 6.47125 0.923168 0.5
828 9.42584 7.54536 0.624204 0.5
829 9.35229 12.9083 6.37122 0.5
830 5.30718 0.867376 6.6347 0.5
831 10.0075 10.0027 11.9284 0.5
832 9.48257 11.545 1.79604 0.5
833 9.91834 9.17334 6.54942 0.5
834 7.26991 2.74556 0.343596 0.5
835 6.12358 7.32234 11.0571 0.5
836 7.94429 0.486996 7.81384 0.5
837 6.61355 9.64608 2.84389 0.5
838 3.85364 12.418 11.2888 0.5
839 3.54338 6.28859 9.92627 0.5
840 11.1495 9.25645 0.192331 0.5
841 12.5092 13.2442 1.89409 0.5
842 0.76628 13.1412 2.89129 0.5
843 2.4301 10.5897 5.37911 0.5
844 6.62734 10.5799 0.571254 0.5
845 9.96269 5.14151 10.6776 0.5
846 0.457965 6.26406 7.50815 0.5
847 0.0254862 11.8601 3.7014 0.5
848 9.28422 11.4739 2.82095 0.5
849 5.80449 1.35824 10.1077 0.5
850 2.70252 2.68565 9.87522 0.5
851 3.67825 10.4373 11.238 0.5
852 1.01948 8.76592 6.7906 0.5
853 0.124344 7.80826 12.722 0.5
854 6.21063 0.824226 9.99452 0.5
855 0.577851 3.44738 4.73886 0.5
856 10.1701 5.68413 6.62471 0.5
857 8.79174 5.0161 11.6006 0.5
858 10.4258 9.31383 5.77797 0.5
859 5.94838 0.0783064 5.55389 0.5
860 10.8334 13.4699 9.30701 0.5
861 2.10561 9.89503 6.89234 0.5
862 2.5849 7.38579 0.768142 0.5
863 3.80673 5.50886 3.44926 0.5
864 9.7999 12.3138 10.8333 0.5
865 7.94431 2.74509 0.411083 0.5
866 4.09989 10.6978 5.69593 0.5
867 8.64229 7.3155 0.24678 0.5
868 7.78257 1.18347 11.4178 0.5
869 6.36269 0.622408 7.86392 0.5
870 8.59734 8.26601 4.74062 0.5
871 2.20954 13.3079 10.6749 0.5
872 0.730538 0.858525 3.4148 0.5
873 3.16552 11.7893 9.90727 0.5
874 12.7551 6.98188 7.57648 0.5
875 8.32945 5.79474 12.6678 0.5
876 1.12355 7.04288 3.19069 0.5
877 11.7687 3.43015 1.30431 0.5
878 1.14042 9.529 13.0918 0.5
879 8.74074 8.1677 4.36815 0.5
880 12.7091 8.82701 1.04692 0.5
881 12.4241 13.2001 2.16406 0.5
882 11.3062 11.4488 10.2705 0.5
883 4.1035 7.91858 7.2965 0.5
884 11.9894 5.53035 11.1871 0.5
885 3.38543 0.939915 8.14225 0.5
886 1.79151 3.51716 4.02049 0.5
887 10.039 1.27007 0.48035 0.5
888 1.02323 12.5354 11.0923 0.5
889 13.3372 4.53938 6.89739 0.5
890 3.36038 5.54225 13.207 0.5
891 5.32843 13.5602 4.61739 0.5
892 1.23798 2.13114 12.556 0.5
893 4.57533 0.402372 5.57198 0.5
894 13.085 12.2931 8.97568 0.5
895 10.2884 2.42702 11.9261 0.5
896 4.7949 3.83565 1.7334 0.5
897 12.3533 12.0353 11.0407 0.5
898 8.71232 7.98981 0.782259 0.5
899 11.9504 8.97937 6.04549 0.5
900 10.8764 4.63178 10.4602 0.5
901 11.5339 4.50007 4.75967 0.5
902 10.0658 7.23735 6.12778 0.5
903 2.04542 8.76357 10.8182 0.5
904 5.9042 11.6129 11.6167 0.5
905 11.9842 2.33009 9.33177 0.5
906 6.22275 9.69472 6.26064 0.5
907 10.5482 1.03736 8.18382 0.5
908 5.81144 8.09923 11.5871 0.5
909 6.48246 11.4291 0.237727 0.5
910 6.34848 13.1521 1.25594 0.5
911 4.15312 5.25506 4.2901 0.5
912 0.185775 0.0522633 7.54778 0.5
913 10.6057 6.67715 4.29971 0.5
914 7.04167 2.46736 1.65607 0.5
915 1.7527 10.9266 11.4698 0.5
916 1.93517 8.93709 7.47646 0.5
917 5.9406 13.4127 7.75131 0.5
918 1.5341 3.35027 3.84861 0.5
919 7.61768 13.2164 12.8107 0.5
920 12.0171 12.8315 12.7748 0.5
921 13.4368 2.62685 9.80495 0.5
922 5.02797 3.25996 8.48217 0.5
923 8.45706 9.05969 8.28205 0.5
924 0.568902 8.76143 1.71168 0.5
925 6.01537 11.2277 7.36419 0.5
926 9.68064 5.20353 3.89888 0.5
927 8.19912 1.31006 8.40572 0.5
928 3.63154 4.35156 0.0250478 0.5
929 5.17546 12.284 2.84814 0.5
930 13.2751 1.25451 11.5345 0.5
931 10.6708 9.86319 13.2429 0.5
932 6.85452 2.71574 0.68188 0.5
933 7.56235 1.39056 12.8048 0.5