ITEM: TIMESTEP
290000
ITEM: NUMBER OF ATOMS
1000
ITEM: BOX BOUNDS xy xz yz pp pp pp
0.0000000000000000e+00 1.3572088000000001e+01 0.0000000000000000e+00
0.0000000000000000e+00 1.3572088000000001e+01 0.0000000000000000e+00
0.0000000000000000e+00 1.3572088000000001e+01 0.0000000000000000e+00
ITEM: ATOMS id x y z radius
1 4.47073 0.698423 7.7349 0.5
2 13.221 0.0180916 3.93072 0.5
3 10.6709 11.9122 13.3267 0.5
4 10.1096 13.4341 12.8279 0.5
5 8.23279 8.75675 2.14151 0.5
6 12.6935 10.3831 1.80002 0.5
7 12.9858 0.981991 5.17804 0.5
8 5.74805 3.29275 10.5408 0.5
9 3.63643 0.61156 4.77902 0.5
10 10.3271 10.0098 8.40527 0.5
11 9.083 7.189 2.74366 0.5
12 13.1081 6.02501 2.69987 0.5
13 12.9341 11.7136 5.47472 0.5
14 8.79968 8.59115 2.69649 0.5
15 5.07976 10.3445 9.34745 0.5
16 12.2389 5.06047 8.29264 0.5
17 5.08183 4.65652 4.60879 0.5
18 9.08139 10.2868 6.69222 0.5
19 11.4332 11.0806 10.8644 0.5
20 9.52801 4.88841 12.3481 0.5
21 0.946717 13.1808 5.48652 0.5
22 9.04514 10.9954 6.49554 0.5
23 7.90742 0.442874 12.7039 0.5
24 8.27002 9.94643 13.0473 0.5
25 7.66515 11.7878 8.44732 0.5
26 7.16866 8.278 13.0618 0.5
27 7.26673 10.8073 0.806503 0.5
28 5.07995 12.2526 4.22171 0.5
29 8.05601 0.345293 12.9427 0.5
30 0.341175 4.88064 11.2553 0.5
31 12.6739 2.04283 6.43583 0.5
32 1.23963 6.05665 8.94664 0.5
33 2.59272 8.70627 10.2729 0.5
34 11.8739 6.9763 11.6693 0.5
35 6.55333 10.0375 0.321486 0.5
36 1.10042 11.4736 9.35483 0.5
37 2.52972 0.460305 10.898 0.5
38 0.398227 2.90451 11.1116 0.5
39 0.298978 0.755441 4.05828 0.5
40 0.358497 4.58427 11.2033 0.5
41 9.84047 2.40679 11.281 0.5
42 10.7768 5.08178 7.93598 0.5
43 3.334 9.07474 13.4003 0.5
44 1.67882 11.8987 13.3804 0.5
45 5.48133 7.56276 5.29915 0.5
46 3.82705 6.41705 8.21168 0.5
47 3.16287 7.085 5.85066 0.5
48 13.4932 6.75765 13.2496 0.5
49 9.28995 5.46765 11.3634 0.5
50 11.522 8.9711 7.93795 0.5
51 13.0705 5.19303 10.1871 0.5
52 2.97333 2.1764 9.1656 0.5
53 1.3978 11.0599 4.67372 0.5
54 0.974506 10.3615 6.65128 0.5
55 5.93266 3.90501 4.41852 0.5
56 2.1311 7.49368 5.94826 0.5
57 3.295 12.7502 7.0168 0.5
58 8.3097 10.9571 8.3319 0.5
59 9.56378 10.375 4.325 0.5
60 3.20387 8.68728 0.196798 0.5
61 8.97834 12.4953 7.81954 0.5
62 4.89841 10.9449 4.75683 0.5
63 0.358618 4.97643 8.40616 0.5
64 10.125 8.38309 4.60943 0.5
65 0.129082 5.74343 0.623402 0.5
66 5.01916 6.44296 7.17881 0.5
67 12.6252 5.45388 3.73044 0.5
68 4.39572 9.27371 10.5856 0.5
69 12.6359 2.89703 11.1338 0.5
70 7.32443 4.39496 12.0442 0.5
71 10.8075 11.4498 7.18121 0.5
72 6.5031 8.4109 7.8459 0.5
73 5.85691 12.8377 0.963438 0.5
74 9.0214 4.71739 11.8952 0.5
75 6.60832 1.74042 5.40355 0.5
76 8.57307 1.70039 4.89419 0.5
77 9.80071 9.48485 8.96742 0.5
78 8.83417 8.02021 5.88219 0.5
79 4.8408 11.1494 7.04907 0.5
80 10.8786 13.0558 8.15493 0.5
81 12.0993 11.3949 11.6525 0.5
82 9.18459 13.6076 6.27017 0.5
83 11.3063 5.22795 2.76981 0.5
84 13.2953 11.7806 8.15794 0.5
85 1.38847 13.1352 4.39654 0.5
86 12.2968 6.56879 0.112295 0.5
87 4.50204 5.31336 4.23846 0.5
88 5.77802 3.4064 10.972 0.5
89 0.414345 12.9313 13.077 0.5
90 8.70165 2.70909 6.7558 0.5
91 0.694713 7.63742 6.60975 0.5
92 8.75614 8.7505 4.67566 0.5
93 9.61648 7.06176 12.4547 0.5
94 12.8939 10.8508 0.0409893 0.5
95 5.92998 5.25705 0.851327 0.5
96 5.08771 0.915434 1.40556 0.5
97 2.71887 2.67296 2.65008 0.5
98 12.8651 1.73136 9.57307 0.5
99 0.38361 5.15518 7.15901 0.5
100 5.47143 5.87146 2.16329 0.5
101 12.9584 10.2971 7.2383 0.5
102 6.11737 0.758263 3.19264 0.5
103 10.2681 12.6165 8.84742 0.5
104 11.523 7.92084 8.92936 0.5
105 4.29477 6.69829 2.60555 0.5
106 0.451793 2.0477 9.62224 0.5
107 4.51913 3.38451 11.4066 0.5
108 12.9753 3.29088 4.02546 0.5
109 2.71178 2.26773 5.87474 0.5
110 3.81024 11.259 2.47758 0.5
111 12.5137 11.8347 5.6672 0.5
112 9.2129 5.66494 0.878689 0.5
113 10.5192 8.63827 8.47537 0.5
114 4.03625 3.17475 9.95553 0.5
115 5.4095 8.21461 9.72009 0.5
116 12.9684 12.2066 2.16976 0.5
117 0.603554 10.6511 1.20964 0.5
118 9.14016 8.56487 5.21217 0.5
119 2.54819 11.7981 1.44566 0.5
120 1.20569 0.526319 12.0785 0.5
121 7.01861 1.027 5.40042 0.5
122 1.459 2.61809 11.6474 0.5
123 13.524 4.05124 2.15434 0.5
124 0.220419 4.73674 9.3848 0.5
125 6.35972 11.5732 4.10292 0.5
126 2.70431 8.60057 5.82174 0.5
127 8.28407 5.92022 10.8397 0.5
128 5.06903 5.07296 5.74102 0.5
129 7.41614 12.6569 9.32586 0.5
130 0.735747 5.39782 6.69196 0.5
131 12.3545 5.59381 12.5176 0.5
132 2.45689 7.80842 7.17578 0.5
133 13.063 12.5953 5.89146 0.5
134 4.73259 3.56404 3.19046 0.5
135 6.21323 11.8549 8.09098 0.5
136 7.14091 6.19781 4.3583 0.5
137 5.96619 7.87807 9.07179 0.5
138 6.536 7.13866 1.72335 0.5
139 12.3084 3.61934 12.9466 0.5
140 2.97228 12.9205 11.7224 0.5
141 11.0535 6.42161 6.32686 0.5
142 5.00426 4.97957 4.77929 0.5
143 11.4486 0.872777 9.45764 0.5
144 12.0645 3.97616 4.78585 0.5
145 6.81865 5.12016 9.15385 0.5
146 1.5973 5.00913 6.06075 0.5
147 1.28258 1.91553 2.26659 0.5
148 9.7405 6.2831 12.0756 0.5
149 5.80309 8.49667 13.1295 0.5
150 4.12431 5.32933 4.52259 0.5
151 10.6365 12.4838 7.65336 0.5
152 9.41616 12.9328 5.42776 0.5
153 3.71024 3.94941 5.14332 0.5
154 1.56212 8.8321 4.01571 0.5
155 4.13673 6.05767 5.11439 0.5
156 12.3891 10.822 5.41884 0.5
157 3.01154 7.25793 3.33614 0.5
158 2.11898 10.141 6.99994 0.5
159 10.4542 12.2172 11.028 0.5
160 8.31806 5.92232 1.24126 0.5
161 4.8025 1.78617 7.31015 0.5
162 5.93783 2.46206 9.05309 0.5
163 8.83919 10.7955 0.927705 0.5
164 2.31895 6.34559 3.70496 0.5
165 9.67122 0.950924 8.25048 0.5
166 7.35957 5.30972 11.1136 0.5
167 11.8743 5.85302 5.1216 0.5
168 0.892812 10.4142 8.44146 0.5
169 12.3113 7.98783 2.1744 0.5
170 11.7313 0.126847 9.99553 0.5
171 0.349109 9.95875 3.03395 0.5
172 0.0599956 9.97185 2.2797 0.5
173 1.86798 10.786 12.6072 0.5
174 8.8748 8.85053 13.3972 0.5
175 13.1088 5.71559 12.7182 0.5
176 0.217794 7.1439 13.4427 0.5
177 11.9471 11.123 7.35905 0.5
178 3.14369 11.1728 7.11411 0.5
179 8.43158 13.4261 13.3469 0.5
180 5.50272 9.73661 10.2136 0.5
181 5.27798 9.10433 10.9653 0.5
182 8.49388 6.16801 4.10697 0.5
183 6.9698 3.46795 8.7949 0.5
184 4.5033 1.37969 1.69136 0.5
185 3.31704 1.89895 5.49699 0.5
186 1.7805 4.40567 4.60366 0.5
187 1.65547 9.36007 3.44364 0.5
188 8.55671 12.4356 9.37534 0.5
189 2.52882 8.28959 4.66291 0.5
190 7.35928 3.74541 12.4689 0.5
191 2.528 1.00974 10.3424 0.5
192 12.1174 7.71103 12.384 0.5
193 4.83074 5.60549 12.6563 0.5
194 5.39778 2.70215 7.20807 0.5
195 11.4445 13.0756 2.62721 0.5
196 9.42836 11.4678 6.46586 0.5
197 1.1037 8.67393 10.1596 0.5
198 6.31775 8.63519 5.0935 0.5
199 7.27996 1.63084 10.3575 0.5
200 0.434058 13.4127 4.78986 0.5
201 3.59791 8.87768 2.82904 0.5
202 10.7088 2.67638 11.7589 0.5
203 4.13333 5.38689 12.9973 0.5
204 13.5486 0.966974 5.99971 0.5
205 12.6159 7.94701 4.83562 0.5
206 1.30648 7.29262 4.29711 0.5
207 9.54521 1.40128 10.1796 0.5
208 12.9179 11.2222 6.48769 0.5
209 0.700974 12.4561 4.73299 0.5
210 0.593774 12.729 0.925236 0.5
211 7.69469 4.00058 10.0125 0.5
212 3.79032 8.37865 5.33952 0.5
213 13.0519 0.0859349 11.6106 0.5
214 13.3004 6.79716 8.01754 0.5
215 10.4059 12.8376 9.70184 0.5
216 4.87076 5.77239 2.64392 0.5
217 11.5815 6.16662 6.32523 0.5
218 8.11683 7.88912 8.93477 0.5
219 2.46207 3.67144 11.6204 0.5
220 12.2436 3.16139 3.99644 0.5
221 4.34421 2.78056 7.73396 0.5
222 0.5813 2.31792 11.377 0.5
223 12.171 6.70601 8.67005 0.5
224 0.113547 5.35807 11.7625 0.5
225 6.42535 2.56852 3.53827 0.5
226 6.42555 0.933736 0.565422 0.5
227 2.85704 12.5531 10.3343 0.5
228 6.11895 5.60072 2.04092 0.5
229 13.1259 5.25412 3.32164 0.5
230 7.42033 2.26002 6.92462 0.5
231 1.88695 2.17954 1.12246 0.5
232 1.25692 5.2015 2.58932 0.5
233 4.47709 6.98059 13.1721 0.5
234 11.2506 10.4211 12.3672 0.5
235 10.7521 12.2933 11.3842 0.5
236 9.98034 6.43296 4.72573 0.5
237 0.520432 0.855076 6.8648 0.5
238 2.55338 8.48429 10.5435 0.5
239 3.48513 12.9349 7.23128 0.5
240 7.49426 12.9258 11.0925 0.5
241 6.53997 9.38628 8.75917 0.5
242 6.48749 4.68734 7.11082 0.5
243 11.68 12.4211 11.7191 0.5
244 11.029 3.26572 9.61373 0.5
245 7.17123 9.91092 9.34399 0.5
246 4.82099 4.9334 7.60859 0.5
247 0.80392 8.8008 1.39271 0.5
248 8.53167 3.00674 7.58123 0.5
249 0.275773 9.59353 11.5113 0.5
250 11.297 3.63961 1.67231 0.5
251 1.97399 2.28595 10.5942 0.5
252 4.51326 9.46581 1.34424 0.5
253 8.87252 8.21445 11.8584 0.5
254 12.5009 5.7346 1.14088 0.5
255 9.61597 3.34865 10.6156 0.5
256 10.0035 9.75073 13.1991 0.5
257 9.93091 2.87543 7.55356 0.5
258 1.67569 13.4839 1.16265 0.5
259 9.07024 6.29947 0.437527 0.5
260 0.823363 2.35382 8.49784 0.5
261 10.8623 8.44567 10.1594 0.5
262 9.63469 4.76541 4.15461 0.5
263 5.95072 8.09873 11.123 0.5
264 11.5443 0.248874 8.25398 0.5
265 5.5971 9.0843 6.43083 0.5
266 11.6852 3.91554 6.47737 0.5
267 11.2623 8.18213 10.0106 0.5
268 0.92497 6.69852 1.46731 0.5
269 0.282492 9.12757 8.54722 0.5
270 4.6078 8.6062 7.97865 0.5
271 2.1627 6.54762 6.93617 0.5
272 9.88263 3.63204 6.64765 0.5
273 3.05911 12.8923 7.30467 0.5
274 7.45043 4.04106 9.48045 0.5
275 5.41967 10.9625 4.33566 0.5
276 0.695799 12.8791 10.0389 0.5
277 5.35813 12.4812 12.0816 0.5
278 0.40081 0.557058 3.15702 0.5
279 4.64326 2.49353 5.16 0.5
280 13.4222 7.53847 2.03703 0.5
281 10.5553 13.2255 7.94863 0.5
282 9.2488 1.32081 5.75055 0.5
283 10.89 0.429324 1.73852 0.5
284 2.3174 0.20882 5.96247 0.5
285 8.82564 0.415585 4.06967 0.5
286 1.41751 4.6732 4.38219 0.5
287 6.81613 3.98092 3.06928 0.5
288 1.17804 5.42111 13.334 0.5
289 4.95195 11.4247 5.91295 0.5
290 2.15834 12.5321 9.34421 0.5
291 8.42705 8.12775 4.35187 0.5
292 7.86248 6.72406 7.93861 0.5
293 2.38396 1.11556 0.0934435 0.5
294 11.6588 2.32451 8.51499 0.5
295 2.38517 9.73233 12.8489 0.5
296 0.0773497 5.71582 2.98795 0.5
297 9.2827 6.57971 2.86556 0.5
298 13.4439 3.79039 5.63388 0.5
299 12.9553 8.45961 13.322 0.5
300 5.40147 10.9982 5.28087 0.5
301 2.67944 8.36841 11.4582 0.5
302 8.5015 3.92991 5.71451 0.5
303 11.5477 0.086219 9.84642 0.5
304 5.62346 7.15239 3.91627 0.5
305 9.83434 7.59358 5.9589 0.5
306 4.64495 13.5035 11.81 0.5
307 12.1782 10.8544 8.20126 0.5
308 11.4613 12.6707 0.858099 0.5
309 2.78986 12.0947 11.7813 0.5
310 11.2868 7.56197 8.95763 0.5
311 13.5275 12.9976 0.032698 0.5
312 4.67972 13.277 2.57209 0.5
313 6.89876 7.64635 7.86623 0.5
314 0.442691 13.3502 11.7391 0.5
315 12.8147 3.35461 0.0507832 0.5
316 2.6666 6.2539 7.01167 0.5
317 11.5997 9.54109 6.33476 0.5
318 9.9765 12.2593 4.98786 0.5
319 0.787474 0.317592 6.56319 0.5
320 9.19181 8.84108 3.64611 0.5
321 4.77962 0.164452 7.26278 0.5
322 11.582 7.99553 13.5155 0.5
323 6.49072 0.373113 5.48656 0.5
324 1.81242 0.438949 6.50172 0.5
325 7.9684 5.31205 7.38977 0.5
326 13.413 4.78162 2.38436 0.5
327 7.48356 5.7067 8.54915 0.5
328 9.21518 10.3791 7.60697 0.5
329 7.61851 11.6668 10.7596 0.5
330 8.59922 0.646206 2.57106 0.5
331 8.69365 9.55065 9.0291 0.5
332 1.8149 3.81653 5.61203 0.5
333 10.1868 12.7628 0.414853 0.5
334 5.42229 8.00998 0.185198 0.5
335 11.3398 1.95132 0.531393 0.5
336 9.56521 11.611 8.3371 0.5
337 8.57707 5.40929 8.79097 0.5
338 11.3955 7.15801 1.66428 0.5
339 4.64693 10.6103 7.74107 0.5
340 3.18914 7.89714 6.16111 0.5
341 13.4931 13.3326 9.52535 0.5
342 10.7122 8.33919 1.94169 0.5
343 0.334149 4.08402 9.51716 0.5
344 13.5733 10.8823 5.85291 0.5
345 12.0989 8.63685 9.68212 0.5
346 2.79558 11.2168 6.36186 0.5
347 2.56391 12.7718 11.2231 0.5
348 11.7705 1.83075 5.43297 0.5
349 10.8705 0.76017 13.199 0.5
350 0.970842 11.2203 2.16939 0.5
351 5.67687 0.193096 0.646772 0.5
352 11.5813 0.206712 3.77553 0.5
353 9.99045 11.8904 8.63656 0.5
354 1.60453 2.71958 5.85198 0.5
355 6.42971 6.18643 4.71639 0.5
356 13.2069 9.45314 0.419348 0.5
357 12.9601 4.96518 9.21832 0.5
358 12.467 8.67786 5.32441 0.5
359 10.3337 13.1539 13.2211 0.5
360 10.5473 6.40756 4.40907 0.5
361 13.1373 9.91021 5.23889 0.5
362 1.78604 10.1338 12.8172 0.5
363 13.5025 10.1241 11.7975 0.5
364 12.6254 10.066 1.28678 0.5
365 11.4853 2.88469 10.8415 0.5
366 5.32342 7.9806 12.7032 0.5
367 10.6093 8.94549 4.34117 0.5
368 6.03731 8.67299 4.85903 0.5
369 7.0929 10.8099 1.15045 0.5
370 4.79728 9.10253 2.13129 0.5
371 0.761378 5.65241 4.26627 0.5
372 9.37554 0.613512 0.529424 0.5
373 8.62811 5.82877 7.236 0.5
374 7.09573 13.2433 6.64088 0.5
375 7.67682 0.80928 4.07163 0.5
376 3.55999 10.1744 7.18269 0.5
377 0.96156 3.67438 0.678354 0.5
378 5.37171 3.90989 10.2537 0.5
379 7.88693 5.63635 1.77548 0.5
380 9.85002 11.0492 2.10077 0.5
381 13.1724 0.730033 9.04621 0.5
382 12.0718 3.04583 6.76032 0.5
383 12.2648 5.48437 9.019 0.5
384 11.019 2.95261 7.12727 0.5
385 4.90222 10.5409 4.31649 0.5
386 3.52349 12.2986 8.17623 0.5
387 9.21079 6.54188 12.2042 0.5
388 4.03938 2.80268 4.65419 0.5
389 8.51032 13.2532 8.98566 0.5
390 9.71098 10.9713 7.35457 0.5
391 12.4067 7.0881 8.96238 0.5
392 10.2733 8.44714 3.31524 0.5
393 6.7144 6.03967 10.1482 0.5
394 12.3966 11.7599 2.36882 0.5
395 11.6265 5.41924 8.20947 0.5
396 11.4251 3.97908 5.46638 0.5
397 3.52204 9.35316 9.89296 0.5
398 1.96499 6.53624 8.52056 0.5
399 7.43838 6.70934 8.45998 0.5
400 12.5768 6.71076 7.27729 0.5
401 2.40772 2.47957 1.63194 0.5
402 12.5986 1.55819 6.092 0.5
403 11.3575 7.8811 1.13707 0.5
404 0.138569 8.66656 6.01605 0.5
405 3.7807 4.03179 10.4533 0.5
406 6.24121 4.34147 8.44572 0.5
407 11.8998 5.37322 4.90829 0.5
408 2.9265 12.4144 11.1857 0.5
409 9.43613 7.65 4.49511 0.5
410 2.37736 10.3844 11.8009 0.5
411 5.39191 3.96325 10.7469 0.5
412 0.00799201 5.77269 7.72393 0.5
413 13.4377 13.263 11.9702 0.5
414 5.7262 7.85388 11.5181 0.5
415 0.846303 4.60066 9.60219 0.5
416 10.2643 1.58425 5.03545 0.5
417 13.0481 0.852167 9.06305 0.5
418 10.0511 3.84839 10.2343 0.5
419 10.2584 2.16716 9.57172 0.5
420 11.3956 4.81834 13.069 0.5
421 5.92451 1.75138 13.1541 0.5
422 7.77797 9.79428 9.58544 0.5
423 4.48995 10.8203 1.53398 0.5
424 2.44055 0.182736 6.70344 0.5
425 7.27619 7.38603 11.2131 0.5
426 6.53013 0.286139 10.4104 0.5
427 4.84077 13.3642 11.8521 0.5
428 11.5898 11.1594 1.55042 0.5
429 5.14282 4.05975 13.1091 0.5
430 3.61636 11.5684 0.0440896 0.5
431 11.738 11.7553 11.1999 0.5
432 1.11356 2.56004 9.6013 0.5
433 4.91234 8.22282 13.4386 0.5
434 9.27952 4.57081 2.04843 0.5
435 13.4574 6.13077 11.0944 0.5
436 5.74773 0.278322 5.74952 0.5
437 8.3495 1.10931 11.1674 0.5
438 5.91734 7.48021 11.7813 0.5
439 0.370545 6.92209 6.93517 0.5
440 8.93346 0.419523 7.58506 0.5
441 4.87039 12.0261 12.5628 0.5
442 4.08694 10.6479 12.0476 0.5
443 12.056 3.02347 7.48733 0.5
444 12.2497 0.224444 12.526 0.5
445 10.4374 8.4196 12.0248 0.5
446 4.22231 2.65906 2.71281 0.5
447 4.84981 4.93588 1.53698 0.5
448 6.33051 1.18831 2.68535 0.5
449 1.71993 9.57363 12.9688 0.5
450 3.40779 0.364786 5.13269 0.5
451 10.92 7.37455 11.4871 0.5
452 0.868168 7.22579 1.03543 0.5
453 0.0844181 6.19747 0.908955 0.5
454 9.48834 8.59736 0.931145 0.5
455 10.0418 5.47574 7.40948 0.5
456 8.1198 4.08996 5.29466 0.5
457 13.2054 1.02048 2.7076 0.5
458 8.14392 3.21181 9.06755 0.5
459 1.09807 12.35 1.61406 0.5
460 13.1561 4.82763 5.73797 0.5
461 8.46092 12.7955 7.73161 0.5
462 13.5391 10.386 1.72899 0.5
463 4.38308 8.73976 5.46031 0.5
464 12.0776 12.6491 10.9899 0.5
465 10.8852 3.31532 11.1884 0.5
466 11.7364 9.62145 7.8417 0.5
467 11.4902 7.48729 1.13007 0.5
468 9.35567 5.27098 11.8715 0.5
469 3.89472 4.56283 9.12198 0.5
470 7.95869 0.615851 10.035 0.5
471 2.44522 10.2023 1.16043 0.5
472 1.67333 4.11506 6.75312 0.5
473 13.3232 5.75585 8.20982 0.5
474 1.24654 0.0119946 1.71378 0.5
475 8.02925 7.81998 11.7593 0.5
476 5.49006 4.26421 2.75456 0.5
477 5.99361 0.598455 1.38315 0.5
478 4.03224 10.9855 3.57386 0.5
479 12.9937 11.2904 12.2853 0.5
480 10.7716 10.3319 8.59111 0.5
481 8.14604 2.35808 6.11559 0.5
482 6.3153 2.79677 12.9423 0.5
483 10.3245 9.32768 10.0903 0.5
484 3.94264 3.55453 10.7218 0.5
485 8.16569 2.4585 10.8926 0.5
486 10.1302 5.77678 11.6302 0.5
487 0.879869 4.93185 11.8374 0.5
488 3.62089 12.9899 5.88786 0.5
489 0.98729 9.01935 12.1309 0.5
490 7.48288 10.9217 9.91029 0.5
491 0.392708 6.95068 11.7605 0.5
492 5.95454 7.64231 3.24216 0.5
493 9.76297 6.53842 2.93957 0.5
494 2.96823 10.6012 3.40945 0.5
495 5.35722 12.5762 5.281 0.5
496 11.4063 10.0797 2.23235 0.5
497 12.2569 9.0968 1.43499 0.5
498 12.6666 12.9996 9.22693 0.5
499 10.4772 6.28633 7.41936 0.5
500 7.04774 10.8494 3.26405 0.5
501 10.3195 8.48344 0.4156 0.5
502 11.0963 9.23373 1.18954 0.5
503 3.68451 12.7686 3.4665 0.5
504 9.19204 11.9899 6.9229 0.5
505 7.60586 0.404036 1.75919 0.5
506 0.218931 2.36373 6.79521 0.5
507 12.2981 13.5122 11.2813 0.5
508 9.99934 11.3837 11.3022 0.5
509 6.19264 9.95943 12.2763 0.5
510 12.4775 8.89204 9.03232 0.5
511 13.2479 13.0285 2.38827 0.5
512 2.1876 9.60321 5.82926 0.5
513 7.82837 10.842 6.16444 0.5
514 9.45376 2.37031 7.61949 0.5
515 5.05324 7.70445 0.658701 0.5
516 8.7322 2.53742 6.56276 0.5
517 11.674 10.9396 2.03165 0.5
518 5.41077 8.24528 0.982657 0.5
519 0.924172 5.23633 2.05569 0.5
520 9.00081 12.7613 9.03164 0.5
521 8.959 12.0128 2.70646 0.5
522 8.47114 2.4997 2.95059 0.5
523 5.21446 4.86833 12.1612 0.5
524 6.35694 9.83667 3.07375 0.5
525 6.30146 9.31582 10.9355 0.5
526 10.135 9.58628 12.7781 0.5
527 6.09858 3.12037 5.87535 0.5
528 5.48625 1.04255 7.81029 0.5
529 12.4389 13.5139 8.93705 0.5
530 9.67995 5.72503 0.758185 0.5
531 2.70608 11.4985 7.93425 0.5
532 11.7004 7.62946 9.22014 0.5
533 6.30069 10.3987 2.01646 0.5
534 4.04749 2.02957 1.19372 0.5
535 5.34793 3.46419 12.4404 0.5
536 10.7555 13.3202 5.13559 0.5
537 4.99971 6.22833 12.4473 0.5
538 3.18069 8.09375 3.2653 0.5
539 8.72696 9.49384 7.43093 0.5
540 12.756 10.279 9.62284 0.5
541 9.2223 9.61751 12.2355 0.5
542 6.34831 5.67533 11.6819 0.5
543 1.24352 5.7759 2.3727 0.5
544 9.17852 1.08063 12.2064 0.5
545 0.883168 13.1337 3.82628 0.5
546 10.9395 13.3267 10.5236 0.5
547 -0.0269241 3.859 8.20129 0.5
548 13.3852 7.6568 3.80942 0.5
549 6.76648 8.54669 9.07539 0.5
550 4.05659 10.6221 6.03018 0.5
551 12.3532 11.4692 8.33265 0.5
552 10.6163 11.6394 9.5966 0.5
553 0.288468 0.958989 9.10881 0.5
554 2.79077 6.72682 2.29392 0.5
555 11.8465 2.06869 4.66045 0.5
556 7.63967 4.32821 3.95978 0.5
557 5.41111 6.39426 12.6109 0.5
558 12.1822 5.57795 11.5779 0.5
559 5.95831 10.8124 7.70958 0.5
560 4.34496 6.20589 9.95498 0.5
561 7.38552 6.66747 11.8362 0.5
562 10.6561 12.7875 5.64142 0.5
563 9.75973 12.1231 6.43592 0.5
564 8.67068 6.10302 0.451913 0.5
565 7.92139 10.9337 10.5588 0.5
566 9.22565 7.32806 5.99606 0.5
567 3.47021 2.13717 1.70483 0.5
568 13.4138 4.04446 1.12498 0.5
569 12.8982 3.57619 6.03677 0.5
570 7.22027 9.88974 2.71818 0.5
571 1.73721 1.72028 5.55195 0.5
572 9.71588 3.6021 7.6054 0.5
573 4.25883 7.0182 12.3089 0.5
574 9.11138 2.76547 5.18233 0.5
575 10.3836 10.8478 6.74172 0.5
576 1.31626 2.30002 12.068 0.5
577 10.6001 6.76266 2.28775 0.5
578 13.4158 2.37975 2.82781 0.5
579 11.5746 4.0362 10.1474 0.5
580 6.24751 2.21172 4.53487 0.5
581 10.3955 4.10539 10.9997 0.5
582 5.62652 1.90982 9.12146 0.5
583 11.8944 1.57755 8.1692 0.5
584 1.37032 1.08828 0.0698038 0.5
585 8.18193 3.82203 5.70139 0.5
586 1.52528 3.24108 2.48398 0.5
587 3.42902 10.7612 9.79131 0.5
588 8.18869 1.76329 2.31578 0.5
589 7.37826 4.71255 1.10448 0.5
590 8.81769 3.16286 1.52515 0.5
591 0.581609 6.23744 10.3607 0.5
592 13.0236 1.35853 12.4862 0.5
593 5.95694 10.7699 11.1858 0.5
594 11.1433 1.24817 12.686 0.5
595 3.89031 0.434124 12.2968 0.5
596 4.18458 11.111 6.98487 0.5
597 13.365 12.5206 10.033 0.5
598 4.58759 11.649 13.3183 0.5
599 8.83432 3.35714 3.50303 0.5
600 5.1451 9.63883 7.6633 0.5
601 6.26937 5.55981 0.474955 0.5
602 8.53383 11.3903 2.89521 0.5
603 2.02235 5.21746 5.61416 0.5
604 11.1174 7.43641 12.8409 0.5
605 4.67503 9.30242 0.202532 0.5
606 2.97131 8.44507 2.53971 0.5
607 0.383585 3.01202 6.94586 0.5
608 6.74153 2.71672 12.228 0.5
609 9.48797 13.2632 3.42167 0.5
610 3.07495 8.30888 7.14862 0.5
611 12.8627 5.79589 3.16755 0.5
612 12.9686 6.30614 2.57979 0.5
613 12.322 1.91456 4.91688 0.5
614 8.60239 0.263307 5.76449 0.5
615 0.514927 7.48398 1.94311 0.5
616 5.82658 7.47148 13.2835 0.5
617 9.7413 7.22178 12.1064 0.5
618 0.13226 11.862 6.51038 0.5
619 5.72795 11.8549 1.99425 0.5
620 11.0935 11.528 6.82997 0.5
621 0.77507 9.38492 6.67933 0.5
622 1.76358 3.55806 1.34294 0.5
623 5.20926 6.34836 2.30912 0.5
624 11.2228 7.58724 3.27212 0.5
625 8.01108 5.06994 6.35361 0.5
626 4.11695 1.07904 9.3102 0.5
627 7.80078 12.4837 5.61261 0.5
628 9.47401 0.769008 1.02812 0.5
629 13.063 10.3026 9.27418 0.5
630 1.62136 2.1763 12.5344 0.5
631 5.57707 10.8416 5.00791 0.5
632 1.29679 7.40641 7.12531 0.5
633 12.15 12.1422 3.32552 0.5
634 6.30726 1.78625 0.692616 0.5
635 8.18003 8.53156 11.0157 0.5
636 2.60405 1.18321 4.15181 0.5
637 1.37444 11.526 13.504 0.5
638 0.609839 8.14468 9.05916 0.5
639 3.2559 3.61902 0.858302 0.5
640 10.5511 11.8837 0.00363173 0.5
641 4.12685 12.7365 3.32891 0.5
642 5.82443 10.8432 12.8184 0.5
643 11.235 0.513161 9.33251 0.5
644 7.78348 0.479058 5.57824 0.5
645 7.97243 10.5196 8.24239 0.5
646 5.25577 6.1318 9.89248 0.5
647 9.50727 7.00645 11.9832 0.5
648 1.81454 4.29573 11.8144 0.5
649 0.567622 0.212231 3.67167 0.5
650 4.3664 11.9396 1.98727 0.5
651 7.55562 1.63393 6.22848 0.5
652 8.36816 3.0242 12.8961 0.5
653 9.69391 11.8185 0.446188 0.5
654 11.8999 7.66738 1.95114 0.5
655 1.26248 0.036157 6.32758 0.5
656 4.29609 1.46163 2.58446 0.5
657 0.43302 7.58612 9.03984 0.5
658 8.3184 3.02823 3.71711 0.5
659 7.57014 10.7136 3.9781 0.5
660 1.51636 6.28446 5.76241 0.5
661 4.66302 7.44842 0.155219 0.5
662 13.4265 0.821521 2.62329 0.5
663 8.04712 11.2526 0.841568 0.5
664 11.9387 5.41315 9.75306 0.5
665 11.4939 13.0307 5.44601 0.5
666 9.21156 5.93832 0.120909 0.5
667 2.56103 12.0328 1.20011 0.5
668 5.62704 9.33722 2.86862 0.5
669 1.09912 10.3487 4.53712 0.5
670 4.54404 5.10929 8.62453 0.5
671 12.9427 0.249009 12.1419 0.5
672 0.860773 8.77477 3.41135 0.5
673 4.98703 5.66734 10.6454 0.5
674 11.8818 7.02986 11.8521 0.5
675 9.02522 7.49969 2.10113 0.5
676 4.33526 7.83338 2.13877 0.5
677 12.6166 7.49247 9.64227 0.5
678 11.2694 10.7604 9.7532 0.5
679 6.60846 4.34129 4.32272 0.5
680 1.72042 6.79504 1.50743 0.5
681 4.89598 13.1804 8.24549 0.5
682 3.92124 13.0287 13.0584 0.5
683 3.89574 8.59134 12.0918 0.5
684 12.7271 2.8496 12.1146 0.5
685 3.69364 9.3243 11.7502 0.5
686 8.57018 6.2873 12.3404 0.5
687 12.717 9.84295 10.613 0.5
688 9.94611 12.4093 1.67001 0.5
689 2.38236 0.650736 1.47739 0.5
690 3.39456 3.19283 12.0228 0.5
691 10.027 10.7199 4.99851 0.5
692 4.72507 5.58508 0.609211 0.5
693 9.55326 5.0303 10.7799 0.5
694 8.33128 7.93654 12.3204 0.5
695 0.0746443 3.43669 6.33402 0.5
696 3.45375 2.53733 3.12452 0.5
697 3.91201 4.89715 10.4604 0.5
698 3.14569 10.3571 1.34286 0.5
699 11.1178 1.77165 13.2919 0.5
700 6.18274 5.79053 10.4088 0.5
701 3.53364 5.89394 5.42105 0.5
702 8.63033 5.85082 2.11146 0.5
703 12.8614 3.9935 1.39042 0.5
704 11.1955 0.110647 6.79431 0.5
705 2.36167 6.30359 5.54992 0.5
706 5.14942 0.948406 2.36431 0.5
707 12.724 5.47086 10.4146 0.5
708 4.40361 4.97661 9.39504 0.5
709 9.36048 4.11871 6.55022 0.5
710 4.76673 13.137 12.2975 0.5
711 12.7694 12.2428 9.0353 0.5
712 2.6923 8.52626 10.1319 0.5
713 1.18305 3.51553 1.4636 0.5
714 5.2011 11.8008 10.4092 0.5
715 11.4257 5.15543 1.6679 0.5
716 1.91517 12.8916 0.95625 0.5
717 7.10584 9.07527 0.23413 0.5
718 3.96546 8.6909 6.39246 0.5
719 11.6568 7.08017 2.06671 0.5
720 6.02861 0.485343 1.92893 0.5
721 0.550098 1.90898 2.68927 0.5
722 3.0496 2.33527 10.0176 0.5
723 7.96453 2.66204 5.34856 0.5
724 8.47726 2.28882 0.0281071 0.5
725 11.0855 0.571392 10.089 0.5
726 12.4123 5.38902 3.46629 0.5
727 12.9328 6.15418 10.5321 0.5
728 13.398 9.24342 5.51626 0.5
729 7.36198 3.78281 4.37784 0.5
730 0.33354 2.59579 12.5417 0.5
731 10.0189 9.00631 2.68834 0.5
732 11.4578 4.53751 2.01587 0.5
733 2.32572 0.767082 11.4392 0.5
734 10.7982 9.61483 5.0678 0.5
735 9.51667 7.83285 5.31369 0.5
736 4.17772 9.06469 9.84 0.5
737 11.8957 1.72641 3.72506 0.5
738 7.32705 12.648 11.1472 0.5
739 1.06915 6.43243 2.1594 0.5
740 6.84507 4.04994 5.43601 0.5
741 0.13055 7.99052 2.56701 0.5
742 3.14377 11.3058 8.4978 0.5
743 0.565246 5.99071 9.20312 0.5
744 8.98379 3.02382 5.47582 0.5
745 7.8584 4.7327 4.29936 0.5
746 12.0889 10.718 10.3465 0.5
747 11.09 13.0081 5.75305 0.5
748 7.66396 1.99607 5.57153 0.5
749 1.99792 10.6725 4.93541 0.5
750 7.98864 3.96537 9.96192 0.5
751 5.36152 0.698518 12.0437 0.5
752 10.5438 0.299141 5.18076 0.5
753 7.06526 7.32379 9.0744 0.5
754 8.32934 3.00873 8.19114 0.5
755 3.64433 2.34734 11.8144 0.5
756 9.30369 1.21052 11.3891 0.5
757 4.55697 2.72325 1.35807 0.5
758 12.0305 13.4929 4.03796 0.5
759 6.99801 6.94486 8.31908 0.5
760 0.531091 4.48746 0.330582 0.5
761 8.79923 1.82141 12.0987 0.5
762 8.33186 8.61064 6.15997 0.5
763 7.81663 11.9748 3.25477 0.5
764 2.23344 12.5374 7.11868 0.5
765 10.3676 7.30384 4.04921 0.5
766 2.2278 11.2523 8.60258 0.5
767 5.1314 5.85231 8.15266 0.5
768 10.8458 6.21969 1.46351 0.5
769 3.12861 6.08765 5.49795 0.5
770 1.13145 1.85608 10.26 0.5
771 12.5433 3.44703 7.23127 0.5
772 1.45462 7.28131 0.786194 0.5
773 10.2352 0.773252 12.8428 0.5
774 11.3239 11.7928 7.99907 0.5
775 0.849255 5.36343 3.47042 0.5
776 12.7359 10.937 6.91347 0.5
777 6.74905 2.22804 11.4986 0.5
778 5.6399 5.6586 0.969878 0.5
779 8.95356 7.78278 12.3925 0.5
780 4.60321 1.43348 0.417619 0.5
781 1.12353 3.01641 13.0807 0.5
782 12.4069 10.4681 4.48615 0.5
783 0.391381 5.72848 9.25627 0.5
784 9.08849 8.6408 10.9742 0.5
785 4.58409 1.68943 9.08226 0.5
786 6.06654 1.26569 6.29955 0.5
787 3.30742 8.84936 4.94798 0.5
788 7.56125 0.642075 11.6017 0.5
789 3.61426 7.74817 12.6864 0.5
790 11.5571 3.99214 2.3648 0.5
791 7.93656 10.3179 5.29839 0.5
792 3.70994 6.35495 5.02164 0.5
793 4.1314 1.71013 4.85177 0.5
794 9.46121 1.94913 1.50055 0.5
795 2.76499 8.7178 8.99696 0.5
796 7.31626 3.62205 3.51078 0.5
797 6.28543 10.1889 4.70695 0.5
798 7.31102 4.00392 11.8197 0.5
799 10.6228 2.6291 0.54695 0.5
800 11.791 10.3354 10.1085 0.5
801 11.7212 12.2559 4.61704 0.5
802 6.42383 0.259609 9.81316 0.5
803 5.6219 5.34403 12.1664 0.5
804 2.53795 5.79839 3.85141 0.5
805 7.80603 2.84035 12.0228 0.5
806 0.110037 1.47575 2.33496 0.5
807 9.69948 0.112779 10.915 0.5
808 2.95839 9.40068 3.10118 0.5
809 11.0234 1.3248 10.9971 0.5
810 7.42437 1.87229 13.1427 0.5
811 10.2962 11.1096 10.8773 0.5
812 9.8183 4.32015 4.532 0.5
813 5.09919 9.1704 6.25299 0.5
814 1.0983 13.2262 4.52761 0.5
815 9.59597 8.48624 12.3296 0.5
816 2.87206 9.51787 4.12971 0.5
817 5.67548 10.0446 0.273586 0.5
818 9.20544 12.1583 11.1996 0.5
819 12.1518 12.2465 7.49496 0.5
820 10.2561 12.6383 7.42919 0.5
821 2.68838 2.3092 10.8443 0.5
822 10.6034 11.0795 0.300908 0.5
823 3.31546 4.04628 10.8236 0.5
824 4.2976 9.70427 8.76539 0.5
825 4.81525 0.964585 3.43824 0.5
826 5.49433 7.29497 3.70114 0.5
827 0.599326 10.2104 9.88428 0.5
828 13.4244 2.04098 1.84332 0.5
829 2.20782 10.255 9.23265 0.5
830 11.62 0.306262 13.2596 0.5
831 13.4136 7.84919 1.94279 0.5
832 11.5525 7.90933 5.36007 0.5
833 11.5641 2.62588 5.22202 0.5
834 8.08131 3.09734 1.95313 0.5
835 9.1073 10.1251 6.59442 0.5
836 13.3944 8.44066 5.92153 0.5
837 1.44569 5.48774 11.4034 0.5
838 9.93806 1.2439 1.6075 0.5
839 10.4363 5.00616 5.99004 0.5
840 5.66662 9.91802 10.2168 0.5
841 0.169549 8.94252 3.08589 0.5
842 0.868096 9.714 2.56371 0.5
843 2.9061 6.08129 0.448326 0.5
844 12.2424 10.3098 10.2031 0.5
845 0.97694 8.56759 0.86668 0.5
846 7.14267 9.44386 7.86129 0.5
847 7.75935 11.9843 8.71362 0.5
848 5.50967 13.2591 5.0854 0.5
849 12.1668 9.98089 4.56246 0.5
850 13.5708 2.77025 2.79635 0.5
851 1.43271 2.23315 12.563 0.5
852 2.27767 4.02206 9.69361 0.5
853 5.15155 7.27991 3.41222 0.5
854 9.89905 7.05205 3.16774 0.5
855 13.2036 11.6999 0.595095 0.5
856 2.07953 9.35994 4.7984 0.5
857 1.72738 7.15739 1.99039 0.5
858 10.7401 6.8679 1.56655 0.5
859 10.4186 5.73869 5.21284 0.5
860 13.1179 10.0076 5.1187 0.5
861 2.7061 6.21018 11.8777 0.5
862 9.32866 11.7918 0.781472 0.5
863 8.00611 0.497588 4.91601 0.5
864 0.0329638 5.41847 6.74496 0.5
865 8.16943 5.4859 10.07 0.5
866 12.2501 9.43131 2.98503 0.5
867 8.71737 12.291 0.333251 0.5
868 9.41428 12.4329 12.5107 0.5
869 9.17762 1.11045 9.12164 0.5
870 7.94536 0.212769 0.298893 0.5
871 4.11635 5.44879 5.75328 0.5
872 10.1543 9.66979 0.813778 0.5
873 4.19746 3.21279 11.9959 0.5
874 11.8237 1.68547 12.5888 0.5
875 13.2527 10.5238 5.48757 0.5
876 0.999036 6.19269 11.802 0.5
877 9.35781 6.39503 5.73227 0.5
878 10.54 6.72707 4.45193 0.5
879 7.28283 6.93815 4.94628 0.5
880 2.09564 4.57188 6.33684 0.5
881 3.94714 3.72752 1.51681 0.5
882 8.46799 10.9161 3.75276 0.5
883 7.44552 1.67402 3.79458 0.5
884 3.40942 8.91699 4.9046 0.5
885 9.35456 11.5509 8.46271 0.5
886 10.3409 8.4668 4.50102 0.5
887 1.028 11.1768 1.80147 0.5
888 1.83487 12.5865 12.3557 0.5
889 11.9676 7.52772 8.3524 0.5
890 2.71427 6.19686 12.2299 0.5
891 4.72127 3.12196 3.28151 0.5
892 4.81994 4.07764 8.07789 0.5
893 13.5331 2.81401 4.93845 0.5
894 13.3059 6.75195 9.79983 0.5
895 12.4606 0.538101 8.84184 0.5
896 2.42099 2.49086 9.6515 0.5
897 8.59175 0.742243 9.7846 0.5
898 8.17959 4.99676 10.2932 0.5
899 3.06675 9.0556 11.6728 0.5
900 0.249516 8.726 7.53992 0.5
901 4.69273 4.77458 4.97481 0.5
902 7.66366 6.32098 6.78864 0.5
903 12.0582 0.142862 11.1247 0.5
904 4.6091 1.96079 7.26974 0.5
905 2.12467 8.20759 8.15621 0.5
906 10.2794 6.97192 2.9825 0.5
907 4.91369 3.55211 11.6072 0.5
908 5.55463 7.19991 10.326 0.5
909 12.4269 2.07742 1.38305 0.5
910 4.1152 9.43171 7.90588 0.5
911 6.63512 7.51371 7.61375 0.5
912 4.93355 6.0827 10.2821 0.5
913 0.977256 8.69042 5.72624 0.5
914 7.84224 1.59468 4.49122 0.5
915 9.02575 5.06708 4.22829 0.5
916 1.3874 6.60335 2.13153 0.5
917 3.42271 3.82722 4.59997 0.5
918 4.99929 8.03167 5.27264 0.5
919 12.4348 1.86307 1.46069 0.5
920 11.226 0.742537 4.56666 0.5
921 12.3286 6.40422 3.94919 0.5
922 6.8257 1.88931 11.6834 0.5
923 3.81339 10.0965 2.99232 0.5
924 5.52572 11.8787 4.52354 0.5
925 9.52866 9.473 1.04162 0.5
926 12.0412 12.8367 13.0241 0.5
927 3.67602 7.67047 2.11908 0.5
928 10.3508 10.5599 12.6444 0.5
929 10.7489 9.72309 9.25294 0.5
930 6.76206 9.97409 8.94792 0.5
931 6.27951 13.4166 2.98873 0.5
932 11.9699 8.6557 4.57901 0.5
933 5.19958 4.90261 5.21598 0.5
934 6.27818 4.82631 6.01345 0.5