ITEM: TIMESTEP
950000
ITEM: NUMBER OF ATOMS
1000
ITEM: BOX BOUNDS xy xz yz pp pp pp
0.0000000000000000e+00 1.3572088000000001e+01 0.0000000000000000e+00
0.0000000000000000e+00 1.3572088000000001e+01 0.0000000000000000e+00
0.0000000000000000e+00 1.3572088000000001e+01 0.0000000000000000e+00
ITEM: ATOMS id x y z radius
1 8.27359 4.43522 9.82672 0.5
2 4.99661 9.60787 11.7332 0.5
3 8.20242 7.06082 13.1938 0.5
4 12.1706 3.18177 9.8442 0.5
5 12.5338 11.2069 0.451338 0.5
6 3.32302 5.75035 0.8872 0.5
7 12.0656 9.87343 11.1815 0.5
8 0.872713 8.30959 8.56948 0.5
9 10.3618 10.338 1.38388 0.5
10 3.19863 0.0144156 10.4059 0.5
11 7.00893 0.152843 3.22488 0.5
12 5.1698 13.2091 7.02111 0.5
13 0.150707 12.025 0.471677 0.5
14 0.28939 7.62302 5.86113 0.5
15 0.0610785 10.0235 2.76141 0.5
16 7.16383 7.45992 4.43566 0.5
17 7.48982 0.752313 4.69636 0.5
18 1.64284 4.67948 8.98089 0.5
19 6.14332 4.89851 8.8592 0.5
20 6.41642 0.978284 8.3578 0.5
21 2.65311 1.82464 5.71923 0.5
22 6.06388 5.38066 1.3083 0.5
23 5.96199 4.47511 10.3754 0.5
24 8.36253 0.494947 11.0172 0.5
25 8.89244 9.73394 2.14326 0.5
26 3.76996 4.07225 2.28805 0.5
27 5.83498 0.179751 12.5157 0.5
28 12.4314 5.10771 2.64304 0.5
29 3.89223 13.5754 5.40391 0.5
30 5.96464 12.3137 9.08436 0.5
31 4.14331 12.6674 1.34112 0.5
32 12.6287 0.552181 4.00905 0.5
33 13.4448 0.311237 12.799 0.5
34 10.4446 6.0527 4.8597 0.5
35 1.26066 12.1031 5.96521 0.5
36 7.78834 13.5456 4.93951 0.5
37 9.27818 11.4393 10.1807 0.5
38 1.79942 1.42832 9.11063 0.5
39 5.34701 13.3029 2.11758 0.5
40 8.0076 3.08961 10.5056 0.5
41 10.3368 4.31512 5.91175 0.5
42 9.02826 6.6041 11.0028 0.5
43 1.30512 12.5934 12.8247 0.5
44 7.41093 3.29986 2.62108 0.5
45 12.5588 11.0397 6.59997 0.5
46 9.34915 3.27264 9.56022 0.5
47 10.7873 1.26528 4.7234 0.5
48 4.86664 7.11985 2.36237 0.5
49 3.28664 5.1018 6.09866 0.5
50 8.76133 8.64791 4.03556 0.5
51 8.56908 3.53208 11.813 0.5
52 11.2226 8.51434 6.26278 0.5
53 2.89728 4.76342 12.4053 0.5
54 8.72117 10.2365 0.180592 0.5
55 12.2179 0.42477 3.30122 0.5
56 2.60434 0.514937 7.01846 0.5
57 9.60871 9.50767 7.79657 0.5
58 0.971323 12.8775 -0.0235231 0.5
59 6.13864 8.05211 6.3593 0.5
60 12.6992 3.19017 2.98196 0.5
61 6.17178 12.7401 13.0768 0.5
62 12.8626 13.2782 12.6156 0.5
63 6.14408 11.2753 11.2025 0.5
64 6.5569 7.43949 2.16316 0.5
65 9.71019 3.71894 3.03408 0.5
66 6.49728 9.36347 11.5438 0.5
67 3.32973 4.35717 5.91822 0.5
68 7.24022 9.65822 8.51465 0.5
69 11.3768 11.4677 9.87314 0.5
70 12.2249 7.76774 1.22919 0.5
71 7.47423 12.351 4.36793 0.5
72 7.76222 1.0562 9.52337 0.5
73 7.31434 0.32185 11.0228 0.5
74 11.7204 10.2643 13.0349 0.5
75 1.13279 1.32799 1.10047 0.5
76 6.29559 2.60611 9.61637 0.5
77 0.472642 1.25294 9.84462 0.5
78 10.1259 9.1491 2.36501 0.5
79 10.4795 3.11046 7.66361 0.5
80 5.25474 6.53971 2.17584 0.5
81 8.79914 3.73092 3.74495 0.5
82 9.74787 9.45784 0.685022 0.5
83 1.29869 12.1314 7.70123 0.5
84 4.43331 7.76064 11.1438 0.5
85 4.48881 9.09372 10.5732 0.5
86 9.63244 3.80455 2.21389 0.5
87 6.93499 8.14684 10.3014 0.5
88 8.75882 13.3694 8.71452 0.5
89 9.93471 0.617767 10.5022 0.5
90 10.5287 5.66811 4.90318 0.5
91 8.46523 11.6378 12.3474 0.5
92 12.7793 10.9536 5.6166 0.5
93 13.0496 0.653309 4.94782 0.5
94 11.1241 4.98973 11.5109 0.5
95 10.277 8.96533 11.903 0.5
96 2.05446 11.6499 6.07578 0.5
97 12.9409 10.7902 0.0572182 0.5
98 6.71774 12.3651 13.1087 0.5
99 4.69253 10.6546 4.0857 0.5
100 9.9328 9.51268 4.7434 0.5
101 7.2227 9.36286 9.64203 0.5
102 9.41115 10.7117 3.0584 0.5
103 5.54951 8.9354 9.75626 0.5
104 0.870373 12.2274 11.7303 0.5
105 1.64533 11.2553 0.10242 0.5
106 9.69946 10.0563 4.60568 0.5
107 1.75357 1.75077 12.7482 0.5
108 5.6643 1.76002 6.46953 0.5
109 5.60301 12.5966 8.1838 0.5
110 10.5344 0.631464 3.99223 0.5
111 3.58594 0.420024 1.85824 0.5
112 2.63285 12.7798 7.15588 0.5
113 9.12406 9.97952 9.40811 0.5
114 7.82124 4.49007 12.2353 0.5
115 12.351 6.50799 3.78313 0.5
116 2.41262 12.4984 2.50105 0.5
117 2.02957 7.00198 1.9513 0.5
118 6.63103 6.67583 9.24264 0.5
119 0.741475 3.26073 12.9559 0.5
120 12.256 7.52206 2.96825 0.5
121 11.6253 12.6975 0.568984 0.5
122 10.1665 9.24517 9.64139 0.5
123 7.68041 0.418184 10.1147 0.5
124 8.20741 2.3941 11.3972 0.5
125 7.40455 4.03399 5.30585 0.5
126 7.67493 4.40003 13.4613 0.5
127 10.3239 11.8351 7.25761 0.5
128 11.6523 10.3012 1.97251 0.5
129 4.27336 10.6182 11.7238 0.5
130 10.9455 3.22115 9.84697 0.5
131 10.2383 9.60071 5.50709 0.5
132 12.8589 0.668694 11.9044 0.5
133 10.7654 10.94 6.42773 0.5
134 10.8612 4.82185 4.45925 0.5
135 0.264143 3.02368 7.8803 0.5
136 4.74723 4.1711 10.5225 0.5
137 8.29903 10.8916 7.62086 0.5
138 2.40486 12.3212 2.90969 0.5
139 9.13711 2.22818 4.69348 0.5
140 1.00751 10.6031 9.70293 0.5
141 3.20497 11.2257 2.09288 0.5
142 3.76511 7.68469 1.52204 0.5
143 7.69279 7.44798 8.28368 0.5
144 1.11467 11.7223 10.7711 0.5
145 0.918707 1.13419 5.10817 0.5
146 2.09909 4.79614 8.12301 0.5
147 8.13818 5.19378 8.25695 0.5
148 2.28707 10.4798 2.16002 0.5
149 7.10829 9.2909 3.06278 0.5
150 2.64778 6.22339 9.7541 0.5
151 8.66657 2.24744 4.85059 0.5
152 12.9616 12.4064 5.59591 0.5
153 1.19216 3.81282 4.66823 0.5
154 12.5176 4.13839 12.8546 0.5
155 4.82974 2.70796 3.63332 0.5
156 11.1308 9.01478 5.81739 0.5
157 2.54033 7.61054 12.0736 0.5
158 13.467 7.81137 13.0458 0.5
159 10.7559 0.0340496 13.3656 0.5
160 7.62822 2.12341 13.5472 0.5
161 10.7842 4.54493 4.60225 0.5
162 7.68075 11.3997 2.74922 0.5
163 5.99279 11.9158 7.52632 0.5
164 4.31349 7.52518 11.8922 0.5
165 1.74549 7.95753 3.7068 0.5
166 7.88127 3.45347 2.08574 0.5
167 10.7895 5.82011 10.1939 0.5
168 4.66697 0.740864 7.39404 0.5
169 4.52772 6.59937 4.15746 0.5
170 12.3131 0.328069 1.22611 0.5
171 8.78198 1.95819 7.03063 0.5
172 2.63388 8.86756 13.1509 0.5
173 5.23653 9.22591 12.3468 0.5
174 0.283889 13.266 0.719658 0.5
175 7.92082 11.5711 3.20974 0.5
176 9.79721 6.36692 10.7091 0.5
177 0.343202 0.761291 0.74426 0.5
178 12.2328 6.07008 9.01232 0.5
179 4.24996 10.1879 12.6335 0.5
180 9.68243 9.93428 1.27368 0.5
181 5.5764 5.19416 2.29504 0.5
182 9.04888 9.22273 7.25663 0.5
183 13.5036 10.1605 11.3671 0.5
184 1.42786 1.77057 8.2617 0.5
185 3.58565 8.45507 11.9319 0.5
186 9.9559 6.48317 8.92511 0.5
187 6.90158 5.26155 7.23511 0.5
188 7.95382 5.02007 5.59191 0.5
189 11.2273 1.98645 0.487003 0.5
190 9.28792 3.97168 10.2607 0.5
191 1.0481 12.4883 3.93393 0.5
192 12.1709 1.36751 8.48665 0.5
193 11.777 4.16821 4.12151 0.5
194 12.995 11.0464 3.28174 0.5
195 12.9679 13.3348 4.75448 0.5
196 6.49548 12.8907 2.74047 0.5
197 2.37755 12.0123 12.7363 0.5
198 3.17715 8.7354 5.54679 0.5
199 11.057 6.01474 3.6879 0.5
200 9.43027 0.11439 2.0069 0.5
201 9.80815 3.19668 5.36557 0.5
202 12.4353 0.0814442 5.06748 0.5
203 13.518 13.0868 13.1923 0.5
204 6.62552 0.929308 0.118861 0.5
205 11.8998 0.576114 6.29299 0.5
206 11.5556 10.4325 12.9334 0.5
207 3.97985 0.236227 5.08059 0.5
208 3.95696 11.3744 10.7558 0.5
209 1.5274 12.026 12.99 0.5
210 12.6559 0.247629 12.4995 0.5
211 5.08734 2.04038 8.06659 0.5
212 8.23706 11.7167 9.76752 0.5
213 1.21286 7.23501 0.382792 0.5
214 11.3302 5.14765 12.6243 0.5
215 2.39023 1.32657 7.63444 0.5
216 11.8669 5.80569 1.81793 0.5
217 1.24288 7.16693 0.249944 0.5
218 7.00716 4.97397 13.4647 0.5
219 0.104535 0.745461 10.3681 0.5
220 3.09367 3.64056 4.25223 0.5
221 10.8547 13.4951 10.1076 0.5
222 10.9075 10.5019 9.88123 0.5
223 12.536 1.60645 12.5011 0.5
224 1.20643 7.18377 2.05211 0.5
225 1.75163 2.6406 12.5267 0.5
226 13.3558 6.53173 6.66234 0.5
227 12.9532 1.64627 2.05601 0.5
228 11.2181 6.77405 0.424196 0.5
229 6.90915 8.30851 1.18571 0.5
230 3.954 0.228727 7.50686 0.5
231 0.655519 6.44378 4.94109 0.5
232 9.13066 7.55529 4.69908 0.5
233 2.86488 11.4995 8.93442 0.5
234 1.9665 5.73763 7.90848 0.5
235 8.77976 4.62383 11.9085 0.5
236 2.65291 0.307734 3.96513 0.5
237 1.02725 11.6712 9.80681 0.5
238 5.27956 8.10803 2.65364 0.5
239 9.00363 8.13191 5.79234 0.5
240 12.0068 10.6815 13.4969 0.5
241 4.94792 4.83669 0.0528196 0.5
242 13.2162 12.096 11.0217 0.5
243 5.81047 1.19805 9.19364 0.5
244 7.46164 1.3227 10.8273 0.5
245 6.1171 7.60123 3.00674 0.5
246 0.307061 4.96971 12.2218 0.5
247 0.757522 7.26802 8.45262 0.5
248 8.99268 5.43855 7.96066 0.5
249 9.70945 3.03663 0.89903 0.5
250 5.41527 9.79042 6.29152 0.5
251 2.30877 6.85613 0.776539 0.5
252 2.37595 8.3992 4.99687 0.5
253 11.1908 1.51819 1.94574 0.5
254 4.11293 4.00259 6.06181 0.5
255 6.21633 9.81444 8.82046 0.5
256 5.42089 13.2097 8.14831 0.5
257 10.1918 13.3815 10.8305 0.5
258 0.801101 6.57557 2.50942 0.5
259 11.9097 5.6278 11.1611 0.5
260 9.9351 0.433629 1.75319 0.5
261 0.334385 2.39163 2.93723 0.5
262 2.88569 7.73958 1.26094 0.5
263 4.20752 5.72785 10.0804 0.5
264 7.31927 9.33418 11.56 0.5
265 3.44568 6.28623 1.3904 0.5
266 1.30288 2.47817 10.24 0.5
267 6.70385 1.31182 0.328645 0.5
268 11.3079 2.75384 11.2787 0.5
269 12.5375 9.7429 10.235 0.5
270 11.1544 8.17655 5.57504 0.5
271 6.22307 8.25254 4.88283 0.5
272 13.2912 4.71753 8.79877 0.5
273 11.539 11.7905 0.503678 0.5
274 2.48597 13.577 10.7448 0.5
275 0.139221 3.68477 0.15021 0.5
276 5.07739 8.31045 10.5532 0.5
277 11.7695 10.2564 4.16108 0.5
278 9.19218 0.709529 13.1248 0.5
279 3.45271 5.92305 12.8625 0.5
280 13.5571 7.87144 4.88077 0.5
281 0.357286 5.98366 3.41077 0.5
282 0.23657 4.98048 10.0301 0.5
283 11.3047 11.89 7.57573 0.5
284 4.51307 1.11406 11.1632 0.5
285 5.57835 9.81145 10.4076 0.5
286 9.72421 1.32142 7.91671 0.5
287 1.64338 11.189 1.99986 0.5
288 5.62835 7.82613 5.21853 0.5
289 0.131478 11.0402 3.29571 0.5
290 6.19694 11.043 12.2684 0.5
291 10.2358 6.14867 5.27135 0.5
292 10.1087 10.9504 8.02583 0.5
293 12.9464 12.5004 2.18501 0.5
294 10.6936 5.0484 7.60611 0.5
295 6.80824 11.1701 11.2577 0.5
296 6.94702 10.8619 1.38573 0.5
297 13.4265 2.20041 9.73503 0.5
298 6.53974 2.43715 4.75145 0.5
299 2.08123 9.0501 0.940993 0.5
300 5.85901 13.0209 2.12955 0.5
301 6.1666 12.9481 1.36788 0.5
302 11.228 4.18939 1.42335 0.5
303 11.4439 12.0016 12.5699 0.5
304 11.6351 5.459 6.40482 0.5
305 9.88801 0.989449 9.61437 0.5
306 0.303676 8.5871 9.13235 0.5
307 5.49828 13.4649 9.4294 0.5
308 6.09083 1.7037 5.75479 0.5
309 10.9846 10.1061 11.99 0.5
310 11.0118 6.12136 2.45988 0.5
311 0.856246 2.51654 6.16744 0.5
312 13.2802 4.19984 6.88281 0.5
313 6.89399 3.43901 12.6873 0.5
314 8.00462 3.1673 7.90457 0.5
315 0.739894 8.43395 6.41742 0.5
316 6.94742 7.47489 2.19935 0.5
317 1.71163 0.899777 0.992777 0.5
318 12.2193 10.6694 12.5061 0.5
319 3.71315 2.37873 7.96723 0.5
320 11.4068 1.62729 11.6494 0.5
321 3.82534 7.96011 12.0614 0.5
322 4.6457 3.25669 3.76238 0.5
323 11.3209 2.72291 7.94051 0.5
324 1.76934 13.271 13.4978 0.5
325 2.79727 10.6913 8.47955 0.5
326 12.6569 6.82823 10.0778 0.5
327 10.8052 12.4497 4.44446 0.5
328 4.12647 4.79503 5.5945 0.5
329 11.1155 8.45188 9.88557 0.5
330 6.36486 3.99789 10.6339 0.5
331 4.85269 6.75052 4.38478 0.5
332 7.77206 9.65583 7.40387 0.5
333 1.68328 8.68865 4.10213 0.5
334 0.684232 4.46388 -0.0300124 0.5
335 8.25052 1.29448 12.7814 0.5
336 0.814496 0.0689374 5.43709 0.5
337 11.2921 11.2861 9.60387 0.5
338 3.49834 10.3304 2.01557 0.5
339 9.50484 0.861515 2.76059 0.5
340 0.387993 1.65074 4.49542 0.5
341 5.78023 13.1672 8.10351 0.5
342 13.2837 13.3868 9.4552 0.5
343 8.72479 9.16277 11.6216 0.5
344 9.17482 5.72084 9.46396 0.5
345 1.7452 6.18194 0.916482 0.5
346 5.24822 9.45566 12.0574 0.5
347 3.17395 5.21249 4.64874 0.5
348 3.69064 13.3953 2.28015 0.5
349 1.22805 10.0701 4.85284 0.5
350 12.2693 12.3342 3.38318 0.5
351 0.816808 6.50067 8.5432 0.5
352 13.3451 1.907 7.19534 0.5
353 9.86925 12.5071 5.26742 0.5
354 6.3602 1.71172 8.79119 0.5
355 4.88508 9.98826 10.0018 0.5
356 5.37781 11.4876 7.97577 0.5
357 11.8442 9.56553 5.90031 0.5
358 12.2492 6.58752 4.91562 0.5
359 3.75879 4.41877 7.61165 0.5
360 7.68985 10.6655 10.7461 0.5
361 3.9278 2.33149 11.0686 0.5
362 7.6188 2.01672 13.0806 0.5
363 2.42276 13.4174 7.66782 0.5
364 10.5096 0.568172 10.3006 0.5
365 7.01881 1.8584 9.44458 0.5
366 2.80727 8.79097 5.9649 0.5
367 5.1292 8.86116 1.12643 0.5
368 5.57849 9.56602 7.24105 0.5
369 2.08194 11.1996 1.12608 0.5
370 3.19931 13.347 1.48619 0.5
371 2.54907 3.7446 9.94904 0.5
372 8.46442 1.01154 3.25135 0.5
373 1.98238 0.077567 11.7694 0.5
374 5.31825 11.3728 10.0418 0.5
375 13.0819 12.9075 4.5751 0.5
376 6.03429 13.3144 4.10328 0.5
377 7.88366 6.73364 12.1724 0.5
378 12.5194 4.42784 2.53979 0.5
379 10.5114 6.11088 9.46254 0.5
380 7.42638 0.721322 8.38503 0.5
381 2.42 11.1416 7.735 0.5
382 7.54975 4.55945 2.58812 0.5
383 8.25013 9.6222 12.3502 0.5
384 12.9524 4.75733 6.99439 0.5
385 11.2173 9.57257 13.4829 0.5
386 13.3781 12.9344 6.35734 0.5
387 3.79109 3.26076 10.5649 0.5
388 1.8651 6.9263 7.21655 0.5
389 11.0972 1.22525 9.72056 0.5
390 12.5066 3.11108 6.97691 0.5
391 12.9123 4.43535 5.47096 0.5
392 0.698356 8.72487 6.67599 0.5
393 1.01394 4.40023 8.84737 0.5
394 10.9929 9.91837 9.03937 0.5
395 12.7932 10.8899 8.93331 0.5
396 1.48569 12.6429 9.48688 0.5
397 9.46269 8.77197 2.15701 0.5
398 12.739 4.50496 6.11677 0.5
399 5.54902 12.3605 4.86206 0.5
400 7.61881 3.3867 2.12626 0.5
401 4.22302 2.39628 2.60344 0.5
402 2.97557 4.24343 6.84644 0.5
403 8.64194 3.66802 3.24164 0.5
404 6.53611 5.83259 13.1614 0.5
405 7.56471 1.64385 3.49485 0.5
406 5.32403 8.9469 1.98647 0.5
407 10.9364 2.32722 11.7158 0.5
408 4.2807 6.49607 9.16786 0.5
409 11.5008 6.68346 1.96573 0.5
410 3.38168 1.9868 12.45 0.5
411 4.44836 1.24614 0.303638 0.5
412 0.634053 11.368 3.27392 0.5
413 0.199429 6.77823 4.07787 0.5
414 0.207197 0.665455 11.6046 0.5
415 4.50125 7.07179 2.48118 0.5
416 10.262 5.88934 2.91968 0.5
417 6.04861 7.72191 8.16268 0.5
418 7.45827 8.8056 4.97286 0.5
419 9.64688 1.8031 11.486 0.5
420 2.94623 0.924755 13.179 0.5
421 3.72263 12.6745 1.08804 0.5
422 0.572751 13.3437 8.51432 0.5
423 10.4711 5.32152 7.74214 0.5
424 5.05066 11.8157 6.12573 0.5
425 12.2826 12.4105 6.48526 0.5
426 5.95082 12.2395 8.28253 0.5
427 1.97177 9.13107 12.0869 0.5
428 3.07701 8.10386 1.40574 0.5
429 5.5919 6.63115 13.3603 0.5
430 5.10659 7.09086 3.07096 0.5
431 9.14165 4.45654 12.3634 0.5
432 8.76686 8.4298 5.83263 0.5
433 13.4958 3.9346 3.17914 0.5
434 9.19921 10.1455 11.2601 0.5
435 10.5735 9.598 5.60838 0.5
436 0.27616 9.4386 11.3007 0.5
437 0.11655 12.1024 11.8702 0.5
438 12.1435 0.967714 7.65862 0.5
439 7.61288 7.66301 13.4482 0.5
440 2.66141 2.86108 11.0343 0.5
441 3.80127 8.1166 10.5008 0.5
442 2.41687 7.18023 1.41182 0.5
443 0.226913 0.541493 9.8267 0.5
444 0.213691 11.353 7.20073 0.5
445 5.94865 9.02303 7.23153 0.5
446 13.0554 6.97455 5.9838 0.5
447 13.3856 11.636 7.75623 0.5
448 13.48 10.0673 11.8222 0.5
449 13.0791 3.80513 10.0995 0.5
450 9.70835 7.89254 8.9962 0.5
451 7.56391 4.47036 10.1419 0.5
452 13.0003 9.47349 6.93441 0.5
453 3.04719 3.25747 6.63832 0.5
454 10.1902 9.04387 4.86474 0.5
455 11.1011 2.22465 8.89766 0.5
456 13.3311 0.406769 3.30538 0.5
457 5.32256 12.6579 0.949186 0.5
458 0.0781027 12.3663 8.79123 0.5
459 4.2579 5.91483 12.0563 0.5
460 7.04193 9.01667 9.6348 0.5
461 0.295667 12.3549 11.6494 0.5
462 9.17169 4.98395 2.15017 0.5
463 3.09509 7.94553 3.0397 0.5
464 4.31781 0.773231 7.63913 0.5
465 7.42337 12.9613 6.17641 0.5
466 0.35086 10.0647 6.34156 0.5
467 7.97608 12.9649 10.8987 0.5
468 2.63482 8.92986 2.46611 0.5
469 6.33327 5.6148 8.76751 0.5
470 11.665 5.30432 6.8932 0.5
471 3.50769 0.24871 6.59485 0.5
472 4.27128 5.67034 9.73469 0.5
473 3.35845 8.68281 10.1363 0.5
474 3.70616 1.42013 11.2758 0.5
475 11.1699 12.2712 13.0663 0.5
476 8.85001 3.3519 12.8588 0.5
477 7.59305 1.26038 12.118 0.5
478 11.1194 1.72648 10.6728 0.5
479 9.9651 9.34169 4.7678 0.5
480 7.96141 6.0191 4.18255 0.5
481 12.6195 1.70096 4.08479 0.5
482 4.91483 12.4947 2.59385 0.5
483 6.20485 0.00258422 5.94686 0.5
484 8.42291 3.11159 13.435 0.5
485 6.09503 5.50673 0.400655 0.5
486 5.05123 6.68024 13.2505 0.5
487 9.91952 3.42438 7.40304 0.5
488 1.60502 8.07722 2.69695 0.5
489 1.78968 0.119938 10.4159 0.5
490 8.57131 11.2996 3.54449 0.5
491 12.7667 2.72609 8.81727 0.5
492 4.35076 4.61566 5.80343 0.5
493 6.618 1.07357 7.73703 0.5
494 4.27722 7.01923 9.58528 0.5
495 6.81766 13.5311 10.6507 0.5
496 5.79818 9.88217 3.33065 0.5
497 8.49645 4.46098 10.036 0.5
498 12.4943 2.45092 4.1294 0.5
499 7.69893 4.9608 11.5351 0.5
500 1.85129 3.98262 5.65355 0.5
501 4.78284 8.4428 4.09879 0.5
502 3.15574 3.74552 10.5592 0.5
503 2.89513 10.9346 2.84891 0.5
504 6.19431 5.01679 6.7335 0.5
505 9.54674 11.4188 6.28587 0.5
506 6.44286 11.0929 7.32106 0.5
507 10.7297 6.34786 8.51766 0.5
508 4.8076 2.63448 10.2292 0.5
509 1.20838 5.4804 13.4031 0.5
510 8.60587 1.51654 10.9751 0.5
511 3.96419 8.74402 7.89328 0.5
512 10.3972 8.42245 12.3937 0.5
513 3.78233 2.48733 3.9482 0.5
514 13.5066 0.0770995 4.60953 0.5
515 6.92254 10.7621 5.71135 0.5
516 11.9663 5.49521 0.617515 0.5
517 4.08511 7.1679 13.4828 0.5
518 3.32258 0.338664 12.3335 0.5
519 9.2944 8.61478 7.76038 0.5
520 9.23313 2.39318 12.267 0.5
521 11.7365 0.249474 11.4555 0.5
522 9.44456 8.59058 3.07924 0.5
523 2.02012 8.47572 0.864108 0.5
524 1.39901 1.01012 7.30049 0.5
525 3.02033 9.71608 7.05838 0.5
526 5.77074 10.5869 12.2524 0.5
527 5.94658 4.9708 7.48751 0.5
528 1.38254 1.25776 12.1868 0.5
529 13.4225 9.74453 11.0728 0.5
530 0.153787 12.3746 5.3767 0.5
531 10.521 9.64508 3.12572 0.5
532 2.31472 8.80044 4.41945 0.5
533 2.37516 7.17553 4.74817 0.5
534 2.80144 7.56245 9.66463 0.5
535 5.95614 2.78234 2.71996 0.5
536 3.56726 3.24724 9.18104 0.5
537 5.05065 13.5042 12.1327 0.5
538 4.04537 10.0274 2.87278 0.5
539 11.5006 1.45268 2.768 0.5
540 4.62265 1.5027 12.0435 0.5
541 2.27857 0.970677 3.47074 0.5
542 1.61656 11.5425 10.7149 0.5
543 0.887378 8.55369 2.12064 0.5
544 7.51593 6.52953 7.6579 0.5
545 0.615326 10.8064 11.9311 0.5
546 2.86177 11.5028 8.97683 0.5
547 7.12431 10.2132 5.02516 0.5
548 2.88395 4.60188 0.490275 0.5
549 11.39 13.2762 6.31189 0.5
550 12.6829 6.4228 12.5829 0.5
551 5.15341 0.952244 8.59022 0.5
552 3.70493 6.74948 8.18992 0.5
553 7.05128 4.03913 6.75379 0.5
554 1.24805 4.65129 9.48463 0.5
555 0.671558 10.4441 11.6348 0.5
556 12.2264 7.02582 0.348888 0.5
557 0.189986 1.98029 12.0846 0.5
558 8.90971 13.509 13.0219 0.5
559 5.07605 8.08112 2.61396 0.5
560 7.36886 12.7645 1.09998 0.5
561 7.78829 10.4791 4.36174 0.5
562 9.81137 10.7511 5.48211 0.5
563 3.26044 13.5273 10.7481 0.5
564 4.18424 3.19572 5.66511 0.5
565 2.34339 7.6462 11.6943 0.5
566 13.4965 5.94718 10.0562 0.5
567 5.25381 2.06063 8.85386 0.5
568 0.0735797 10.6023 6.5426 0.5
569 10.5235 3.8439 3.61384 0.5
570 11.0463 0.855046 9.50649 0.5
571 4.94023 1.43178 11.2363 0.5
572 6.53232 8.39215 7.47899 0.5
573 10.9814 9.30277 5.88755 0.5
574 5.36825 3.8098 8.65833 0.5
575 7.81904 4.57402 4.79855 0.5
576 11.7595 9.70187 12.8797 0.5
577 0.0648264 4.83074 8.4348 0.5
578 7.3263 11.5717 7.84877 0.5
579 4.6518 0.26045 5.17647 0.5
580 2.12353 7.13355 8.87866 0.5
581 9.30931 6.09093 8.99648 0.5
582 10.3084 2.21477 2.75374 0.5
583 5.67144 11.9189 3.03616 0.5
584 0.488223 11.8334 1.29672 0.5
585 0.640419 6.23745 6.62482 0.5
586 13.4864 11.413 3.03078 0.5
587 0.541079 11.6897 10.443 0.5
588 12.4789 2.91784 7.5382 0.5
589 4.03573 1.59985 4.22214 0.5
590 8.47967 13.18 8.53095 0.5
591 1.25126 3.70689 5.50984 0.5
592 13.4146 12.7497 5.65334 0.5
593 4.00046 2.49927 8.97788 0.5
594 2.81335 0.324257 12.4073 0.5
595 3.9704 6.35337 6.15743 0.5
596 0.62661 7.52346 11.7118 0.5
597 4.09048 10.3518 1.99053 0.5
598 0.661407 7.58429 5.18611 0.5
599 3.16327 1.27549 4.03169 0.5
600 9.66326 11.0299 3.78502 0.5
601 7.67983 12.1961 4.43269 0.5
602 12.9093 3.09622 6.25089 0.5
603 1.38105 0.734743 0.480356 0.5
604 0.109995 11.1361 10.8204 0.5
605 12.8756 4.34178 10.8461 0.5
606 5.26023 0.929263 4.63835 0.5
607 3.27169 1.43036 5.40818 0.5
608 5.1944 7.83094 0.523211 0.5
609 9.70124 9.52637 0.456221 0.5
610 6.50654 10.2163 11.0682 0.5
611 2.41403 1.52993 0.607884 0.5
612 8.34627 6.12695 1.61025 0.5
613 3.69307 7.10518 10.8563 0.5
614 1.30373 9.49504 13.2007 0.5
615 3.17004 10.8637 0.889856 0.5
616 6.29536 11.1875 5.84037 0.5
617 1.78841 2.12812 9.9191 0.5
618 4.45352 3.15805 13.5478 0.5
619 5.23531 10.7237 5.95487 0.5
620 3.45268 7.46331 2.00417 0.5
621 0.784646 3.49436 9.19664 0.5
622 1.72242 10.5557 9.28038 0.5
623 1.3211 10.8384 6.05832 0.5
624 12.6894 2.5529 8.88192 0.5
625 12.5064 10.573 10.0409 0.5
626 2.02083 2.69873 2.07357 0.5
627 10.0954 5.23288 1.76768 0.5
628 4.73753 13.3054 9.99495 0.5
629 11.139 5.65059 8.97824 0.5
630 4.49842 8.58664 11.8648 0.5
631 9.44219 4.27183 10.4647 0.5
632 6.47539 2.43364 11.5132 0.5
633 9.2006 2.55856 0.490231 0.5
634 11.73 7.36861 3.6352 0.5
635 2.73332 10.3044 9.21534 0.5
636 10.3396 3.12438 3.00149 0.5
637 10.0068 8.51328 4.86242 0.5
638 9.93891 4.58631 3.82499 0.5
639 12.9948 3.79975 4.19768 0.5
640 0.172538 13.0066 7.33029 0.5
641 2.53331 5.30601 4.63488 0.5
642 10.1651 2.1858 2.46191 0.5
643 6.1064 10.9573 11.1071 0.5
644 0.987566 3.90831 11.7111 0.5
645 8.55274 4.70629 8.72801 0.5
646 12.5658 11.0577 13.5275 0.5
647 5.07704 13.5552 3.28956 0.5
648 0.574557 10.3049 1.64131 0.5
649 12.0557 8.82453 9.2131 0.5
650 9.0807 6.91629 2.23092 0.5
651 2.29633 12.147 0.795265 0.5
652 1.93412 1.22252 13.0193 0.5
653 9.69072 9.61347 7.54836 0.5
654 5.37425 9.20285 6.98482 0.5
655 9.60942 7.38645 11.0369 0.5
656 10.3368 3.1736 5.24553 0.5
657 1.49626 0.452712 3.99551 0.5
658 6.58545 13.3317 0.259088 0.5
659 3.62756 10.807 6.57042 0.5
660 6.91784 13.4744 13.454 0.5
661 11.5782 2.07604 8.01324 0.5
662 1.15023 1.13729 1.02112 0.5
663 9.97962 3.19477 4.64674 0.5
664 12.8937 0.474513 5.69956 0.5
665 2.6677 8.43092 5.10638 0.5
666 12.127 3.9342 7.99071 0.5
667 12.3955 13.4843 2.22399 0.5
668 7.5572 12.1567 12.632 0.5
669 5.28692 8.23936 6.14966 0.5
670 0.388558 6.64517 8.86555 0.5
671 5.49561 11.7907 11.1795 0.5
672 5.45243 5.39814 3.52132 0.5
673 2.93031 4.6664 3.51114 0.5
674 8.32081 0.488518 6.99708 0.5
675 9.45784 2.79573 4.05945 0.5
676 0.628069 9.65674 9.94416 0.5
677 12.7168 7.3834 10.1484 0.5
678 9.43812 5.40849 4.29833 0.5
679 11.8623 0.458731 1.56287 0.5
680 10.2896 5.70188 5.2761 0.5
681 5.68503 10.5087 1.72369 0.5
682 11.9092 5.82463 4.72099 0.5
683 5.91736 12.1805 6.68666 0.5
684 5.98278 12.166 0.842866 0.5
685 7.52716 4.26902 10.3954 0.5
686 10.9526 12.6515 6.58526 0.5
687 1.21223 4.58092 12.6145 0.5
688 6.25354 12.9304 9.75448 0.5
689 3.3705 2.87133 0.589206 0.5
690 3.59392 1.38436 6.72948 0.5
691 8.12396 6.92948 11.3046 0.5
692 8.21704 11.8867 3.08357 0.5
693 7.13636 3.19415 1.76549 0.5
694 8.40595 3.4982 1.09698 0.5
695 5.02603 9.76178 3.02173 0.5
696 12.1564 6.07061 2.35416 0.5
697 9.61445 0.0634446 1.21786 0.5
698 4.68629 12.9553 1.67573 0.5
699 3.44495 11.4061 4.39815 0.5
700 6.292 4.36181 2.12968 0.5
701 10.2293 6.57487 3.96591 0.5
702 4.65438 11.369 6.93593 0.5
703 3.45359 8.55943 6.7999 0.5
704 5.82877 7.96117 11.54 0.5
705 12.292 8.85177 0.36657 0.5
706 5.24593 7.09464 2.28252 0.5
707 9.31472 0.449791 9.68051 0.5
708 7.40376 9.35254 1.60684 0.5
709 13.5479 2.00619 8.30772 0.5
710 12.2735 4.40574 3.74321 0.5
711 3.87456 1.17719 5.47423 0.5
712 6.53022 1.49137 1.07549 0.5
713 12.607 11.8446 4.77033 0.5
714 9.9829 7.2615 8.6047 0.5
715 7.80845 0.693592 0.475351 0.5
716 7.37637 12.9117 0.0322739 0.5
717 11.2763 4.83033 5.86945 0.5
718 6.0666 4.21205 6.52848 0.5
719 9.30837 11.8549 4.02426 0.5
720 8.80628 9.94 4.54501 0.5
721 5.3972 3.8972 3.85582 0.5
722 3.95455 9.3594 0.0586509 0.5
723 10.5618 12.9541 7.53376 0.5
724 5.4038 4.8901 1.26744 0.5
725 12.8864 0.79493 13.1204 0.5
726 6.08806 7.17134 8.42784 0.5
727 6.53294 9.5054 4.13257 0.5
728 7.0097 6.81636 6.06251 0.5
729 6.11168 10.2173 8.2065 0.5
730 5.80642 12.3717 11.6538 0.5
731 6.22003 3.95372 10.0019 0.5
732 1.50094 2.79142 7.92239 0.5
733 9.19073 6.8955 5.49296 0.5
734 2.05609 1.88891 10.7957 0.5
735 2.33206 6.64801 1.44617 0.5
736 7.64161 5.20394 6.43861 0.5
737 7.96753 6.72043 6.3963 0.5
738 7.03215 11.5629 9.12871 0.5
739 6.13389 0.2706 11.6282 0.5
740 6.56707 1.91351 6.93715 0.5
741 6.71471 6.95007 12.7116 0.5
742 3.50652 12.2665 3.95733 0.5
743 3.77449 0.857096 9.14109 0.5
744 12.7109 9.7798 2.20747 0.5
745 8.53807 8.84939 1.81858 0.5
746 9.17131 0.554173 3.04089 0.5
747 11.215 1.77827 6.32359 0.5
748 6.25139 11.1293 7.82919 0.5
749 8.72601 5.65201 10.2766 0.5
750 10.4042 3.1594 9.65655 0.5
751 1.38006 8.75313 8.58206 0.5
752 2.52046 12.8148 5.65834 0.5
753 10.6295 1.67 10.9183 0.5
754 10.1175 6.73976 5.29708 0.5
755 9.75971 12.3887 0.046866 0.5
756 11.5977 6.28852 4.21381 0.5
757 6.95359 5.19869 3.54307 0.5
758 12.1599 2.94807 3.10148 0.5
759 2.17149 13.376 8.87614 0.5
760 12.1688 7.61331 10.1911 0.5
761 11.9595 12.5393 10.6247 0.5
762 11.5025 6.1011 12.0464 0.5
763 11.5113 9.14737 8.65231 0.5
764 7.54883 7.62007 6.04073 0.5
765 4.70133 0.202545 6.37245 0.5
766 0.531329 5.4212 7.65484 0.5
767 9.59571 4.18696 3.54536 0.5
768 1.45197 9.60612 1.87686 0.5
769 6.89526 11.503 2.17038 0.5
770 9.32656 5.30505 7.58336 0.5
771 11.2749 8.13159 7.27905 0.5
772 0.34294 6.00363 2.33536 0.5
773 8.9549 9.00159 8.19034 0.5
774 1.78039 3.6108 12.3249 0.5
775 0.0532312 11.93 2.80945 0.5
776 5.38885 0.0145296 7.37767 0.5
777 0.384757 10.5788 4.6918 0.5
778 10.0841 8.16464 0.698387 0.5
779 7.96082 10.7327 11.2989 0.5
780 11.6989 3.72918 9.51071 0.5
781 4.09519 0.812132 1.31354 0.5
782 10.9797 13.2241 11.5858 0.5
783 1.0063 9.91599 3.39859 0.5
784 12.4851 8.38777 6.99111 0.5
785 13.1913 1.22163 4.13198 0.5
786 7.17102 12.0044 0.806138 0.5
787 0.269747 9.77455 8.88981 0.5
788 3.78052 5.20685 1.26118 0.5
789 0.582696 1.20857 0.335222 0.5
790 3.82968 0.228634 8.43214 0.5
791 9.24692 6.2855 7.63704 0.5
792 4.55806 0.893848 12.7721 0.5
793 4.70677 3.7833 12.2179 0.5
794 5.39609 5.12586 10.569 0.5
795 11.5038 6.21409 7.22469 0.5
796 7.50391 6.35082 8.04621 0.5
797 4.06664 1.46035 3.12584 0.5
798 11.5406 12.8419 7.77861 0.5
799 7.28516 1.33631 7.97885 0.5
800 11.091 6.61025 0.652773 0.5
801 5.93945 5.00884 0.957448 0.5
802 10.3005 9.72899 7.84255 0.5
803 1.55352 1.58818 2.87944 0.5
804 7.56317 10.7897 13.3884 0.5
805 0.296316 2.16084 6.35148 0.5
806 9.023 0.488102 12.163 0.5
807 9.61178 9.39941 11.5652 0.5
808 10.95 5.63944 13.2166 0.5
809 6.87215 12.6945 8.31144 0.5
810 5.63535 0.346413 7.10267 0.5
811 5.2616 2.61199 3.5115 0.5
812 5.95388 7.59591 1.05527 0.5
813 9.37481 10.8937 6.13999 0.5
814 11.4023 7.94289 9.38746 0.5
815 11.403 10.4076 2.60303 0.5
816 6.12583 13.5552 8.92311 0.5
817 12.2729 9.69977 1.55206 0.5
818 10.5933 6.20108 1.84567 0.5
819 9.71021 3.89698 11.7482 0.5
820 4.17778 3.47369 5.87238 0.5
821 4.07408 3.06848 1.51545 0.5
822 13.4613 9.37975 13.1859 0.5
823 7.41485 9.5916 8.04345 0.5
824 4.58987 3.11412 2.92832 0.5
825 10.5975 2.88295 5.50671 0.5
826 5.68159 4.66789 11.0726 0.5
827 9.16081 11.7236 1.85875 0.5
828 12.2899 12.8268 3.82486 0.5
829 12.7647 8.47978 11.5952 0.5
830 5.79099 11.0362 0.53541 0.5
831 8.7346 3.72338 5.27435 0.5
832 13.4863 11.0288 8.38362 0.5
833 5.96732 6.38291 7.98706 0.5
834 11.5583 7.02509 2.6919 0.5
835 9.86464 10.7479 2.99784 0.5
836 4.20986 12.6068 11.3286 0.5
837 13.4643 11.7813 13.3774 0.5
838 7.13836 11.109 9.00811 0.5
839 10.8102 12.1412 6.42349 0.5
840 2.5566 7.58943 6.47494 0.5
841 1.3972 9.67823 11.2664 0.5
842 13.5515 9.76594 6.01051 0.5
843 13.3113 6.5334 6.83434 0.5
844 13.5385 4.59416 4.18984 0.5
845 9.64822 12.1534 10.3376 0.5
846 11.1766 10.8649 6.00084 0.5
847 2.20565 11.4177 5.71803 0.5
848 12.5963 4.97999 6.49044 0.5
849 3.61459 3.74247 0.897681 0.5
850 12.2331 7.21804 4.10173 0.5
851 8.77988 9.0466 4.05817 0.5
852 12.7994 8.75169 8.23342 0.5
853 12.7862 3.35769 9.60491 0.5
854 0.0806317 1.43337 11.999 0.5
855 6.52001 6.83986 8.70197 0.5
856 12.2561 4.41639 12.9936 0.5
857 13.1474 5.13066 8.18252 0.5
858 11.7795 3.01922 9.03639 0.5
859 0.96888 13.0429 10.2537 0.5
860 11.3042 2.32748 10.3328 0.5
861 0.903781 1.54485 7.80148 0.5
862 7.28854 9.71971 7.63369 0.5
863 8.42908 9.96789 0.779482 0.5
864 2.78928 3.18878 4.5128 0.5
865 10.7095 3.91504 10.5243 0.5
866 1.12216 2.11447 6.89196 0.5
867 9.71132 2.38711 12.4023 0.5
868 7.24935 10.9327 0.509162 0.5
869 0.997524 6.60266 7.04983 0.5
870 2.64322 12.5128 6.06237 0.5
871 10.7861 8.68153 5.21702 0.5
872 7.25649 4.68009 4.89626 0.5
873 10.2978 0.553984 3.05305 0.5
874 0.201768 5.28443 11.8585 0.5
875 3.00836 4.59762 9.91214 0.5
876 3.05291 13.2891 6.94145 0.5
877 5.9744 4.44426 9.7115 0.5
878 1.57599 12.1779 9.86946 0.5
879 10.3777 1.92053 0.374179 0.5
880 8.00568 5.34254 0.401272 0.5
881 9.57366 6.15662 10.9025 0.5
882 0.470054 11.8974 10.248 0.5
883 4.19675 7.99025 5.95612 0.5
884 0.207298 9.75611 7.24018 0.5
885 7.85926 0.756577 0.89683 0.5
886 11.1634 13.0209 0.483022 0.5
887 6.54912 1.77099 3.33516 0.5
888 3.28208 1.62978 8.07529 0.5
889 8.28764 3.31625 6.7001 0.5
890 5.13179 11.612 0.501525 0.5
891 5.43787 1.8972 1.57424 0.5
892 2.0771 9.00559 3.37697 0.5
893 2.29091 13.3065 8.86207 0.5
894 4.87644 10.8563 7.709 0.5
895 0.639109 6.77549 0.834301 0.5
896 11.3347 0.412165 11.6923 0.5
897 6.58536 5.86995 3.85565 0.5
898 5.15074 1.03006 12.6821 0.5
899 12.8466 10.8859 8.68501 0.5
900 7.08812 12.8593 10.7949 0.5
901 9.96687 8.78019 10.3625 0.5
902 9.74789 7.83082 13.07 0.5
903 2.31018 11.4925 2.96736 0.5
904 3.73766 10.4543 10.2724 0.5
905 5.17561 8.55043 7.80585 0.5
906 4.43727 7.78748 4.31869 0.5
907 1.10103 10.5902 10.1772 0.5
908 6.97268 9.13082 13.159 0.5
909 8.54597 7.89028 12.157 0.5
910 12.6639 9.89408 13.4181 0.5
911 0.138621 1.8878 11.6992 0.5
912 3.25549 2.67217 10.2911 0.5
913 8.61823 8.14991 11.1188 0.5
914 6.2312 3.0132 8.07499 0.5
915 3.40958 10.6708 10.9169 0.5
916 12.4299 6.36184 5.40669 0.5
917 6.87757 7.53054 8.30519 0.5
918 0.610233 11.6086 4.37968 0.5
919 8.25154 7.29153 9.12763 0.5
920 11.1607 10.8169 7.51039 0.5
921 7.67399 5.23622 4.53781 0.5
922 4.76051 1.32372 11.2107 0.5
923 8.25467 4.67169 9.16882 0.5
924 2.70354 0.580622 9.12828 0.5
925 11.8691 5.44258 4.79249 0.5
926 1.00926 2.25252 6.39094 0.5
927 0.249614 10.4871 7.24688 0.5
928 4.86887 9.04489 0.3469 0.5
929 11.6567 9.67073 0.183291 0.5
930 5.20513 10.2828 0.655211 0.5
931 7.85776 5.03499 8.74265 0.5
932 3.31233 1.31804 4.62786 0.5
933 7.99904 3.82057 2.10685 0.5