ITEM: TIMESTEP
510000
ITEM: NUMBER OF ATOMS
1000
ITEM: BOX BOUNDS xy xz yz pp pp pp
0.0000000000000000e+00 1.3572088000000001e+01 0.0000000000000000e+00
0.0000000000000000e+00 1.3572088000000001e+01 0.0000000000000000e+00
0.0000000000000000e+00 1.3572088000000001e+01 0.0000000000000000e+00
ITEM: ATOMS id x y z radius
1 8.65178 5.84585 7.84578 0.5
2 12.1116 12.0522 10.3292 0.5
3 5.56628 12.0343 3.038 0.5
4 3.30327 4.01626 1.46634 0.5
5 5.72234 10.0483 6.64698 0.5
6 3.90922 12.3272 6.85404 0.5
7 2.37698 8.36164 11.124 0.5
8 3.55199 0.9984 10.6647 0.5
9 11.348 3.86186 5.707 0.5
10 9.1627 4.39556 11.0287 0.5
11 8.19875 4.8495 10.3532 0.5
12 0.138586 1.23143 7.63626 0.5
13 3.68194 8.73106 2.01065 0.5
14 10.691 0.28701 8.299 0.5
15 12.0388 2.39594 5.23232 0.5
16 12.7829 7.18711 11.1008 0.5
17 6.36527 4.90604 9.58775 0.5
18 4.74814 6.25241 5.61968 0.5
19 13.442 9.97738 5.08626 0.5
20 3.3034 6.02624 8.01604 0.5
21 12.0956 4.06824 0.710922 0.5
22 11.9818 9.85176 5.36344 0.5
23 10.9804 12.7528 3.35402 0.5
24 5.36679 7.32539 2.6454 0.5
25 9.59118 2.82252 6.60105 0.5
26 3.03372 0.705709 12.6229 0.5
27 2.2337 11.9324 1.75369 0.5
28 9.69018 7.75975 8.31727 0.5
29 5.84128 3.34667 5.62667 0.5
30 4.82543 0.155971 9.9448 0.5
31 8.25321 4.93902 13.1773 0.5
32 8.42083 0.677901 4.3572 0.5
33 5.35306 9.2114 7.19016 0.5
34 12.6509 3.30811 2.08516 0.5
35 12.8237 9.35343 11.0973 0.5
36 12.0809 4.11943 0.691829 0.5
37 12.0538 5.72887 1.97881 0.5
38 13.3651 9.42946 7.169 0.5
39 8.11417 11.6006 8.39388 0.5
40 3.16553 3.71085 9.59234 0.5
41 7.52995 0.153081 3.74057 0.5
42 9.78302 6.20771 12.193 0.5
43 8.54102 6.80219 13.2319 0.5
44 7.29849 12.1488 2.31559 0.5
45 1.37617 3.57935 8.98817 0.5
46 1.98331 6.44084 1.39483 0.5
47 1.64253 8.40572 3.60789 0.5
48 10.4147 5.53313 8.61955 0.5
49 12.7954 3.46956 12.8486 0.5
50 10.5897 10.6711 0.148181 0.5
51 10.2403 11.907 12.0774 0.5
52 1.2986 5.72335 11.2888 0.5
53 6.49162 9.20156 3.35055 0.5
54 7.7743 11.6724 9.39248 0.5
55 1.9916 6.44184 13.4627 0.5
56 11.5997 10.8282 11.1473 0.5
57 11.2459 4.06867 7.35018 0.5
58 12.0044 5.8701 11.9892 0.5
59 8.29784 7.01676 4.44926 0.5
60 1.22254 2.13131 9.25637 0.5
61 2.72299 8.19696 11.8444 0.5
62 12.3092 11.663 2.3448 0.5
63 9.63407 4.87429 2.46756 0.5
64 1.64697 9.12227 5.02452 0.5
65 7.97913 6.62884 0.232661 0.5
66 6.34483 1.01754 9.01347 0.5
67 5.45605 1.85266 7.73665 0.5
68 2.37157 11.2155 0.570216 0.5
69 3.36046 2.28316 3.16759 0.5
70 6.5494 12.0183 0.849654 0.5
71 12.7761 8.23687 9.98777 0.5
72 10.9231 5.42519 11.9403 0.5
73 5.52384 6.74545 7.80439 0.5
74 0.114583 9.2066 2.0923 0.5
75 1.0189 2.24019 9.94325 0.5
76 4.7708 8.13847 1.91009 0.5
77 7.35268 11.4529 0.75938 0.5
78 8.15088 5.29703 13.2718 0.5
79 8.77881 13.4736 0.34032 0.5
80 3.86708 11.8141 4.43727 0.5
81 8.86853 8.15212 10.1401 0.5
82 2.05574 10.0375 1.40215 0.5
83 1.11419 0.52391 4.70787 0.5
84 11.8052 6.89823 12.9837 0.5
85 0.485712 13.3287 6.33167 0.5
86 6.15308 2.60208 13.5727 0.5
87 0.875622 3.09401 5.89324 0.5
88 0.991016 13.4968 12.9716 0.5
89 0.958332 3.08111 3.21152 0.5
90 11.3576 9.29364 13.1404 0.5
91 12.4007 5.92715 7.80328 0.5
92 11.7534 10.3106 5.06437 0.5
93 10.0445 10.0242 6.14209 0.5
94 6.49866 4.05711 3.49377 0.5
95 3.44826 9.70327 1.13599 0.5
96 4.41506 3.43393 10.0397 0.5
97 5.4254 8.7488 5.46305 0.5
98 11.472 7.30392 11.5226 0.5
99 0.548485 5.42402 3.15445 0.5
100 8.66066 10.9237 8.18654 0.5
101 5.07909 11.9709 4.37403 0.5
102 12.4039 12.3495 2.45323 0.5
103 12.5109 7.1853 0.269501 0.5
104 2.03055 8.16164 4.29942 0.5
105 4.31814 5.79036 4.87583 0.5
106 9.1641 1.13552 2.09595 0.5
107 12.5266 12.9341 7.8107 0.5
108 7.20057 8.94801 8.40181 0.5
109 0.246262 9.18374 6.05869 0.5
110 9.11103 11.1136 6.49024 0.5
111 9.57398 11.017 9.18794 0.5
112 1.62974 8.94317 0.410448 0.5
113 8.8948 1.0194 11.1468 0.5
114 10.2644 4.89955 13.2886 0.5
115 4.80549 5.21647 4.6875 0.5
116 0.00773291 10.9806 12.569 0.5
117 12.0067 0.753222 1.4326 0.5
118 1.769 12.3921 9.87483 0.5
119 8.176 1.04633 7.16741 0.5
120 0.237456 7.20866 4.84421 0.5
121 3.1742 7.43168 5.14562 0.5
122 7.939 12.7275 1.74036 0.5
123 9.72245 9.83561 7.58945 0.5
124 6.12416 8.06646 12.8299 0.5
125 2.60517 8.63376 13.2041 0.5
126 5.05539 7.50392 0.677756 0.5
127 11.8894 2.70525 4.00062 0.5
128 11.1405 8.54472 12.406 0.5
129 10.8503 7.67338 5.49566 0.5
130 5.38696 10.0486 8.97535 0.5
131 13.2888 4.87585 12.6624 0.5
132 7.24237 9.69087 0.362921 0.5
133 11.6263 0.460875 1.72434 0.5
134 8.23538 2.16218 4.18498 0.5
135 12.7829 12.4169 5.50381 0.5
136 1.97612 4.42785 1.11677 0.5
137 5.8289 6.33183 2.83794 0.5
138 10.2353 10.4863 12.6539 0.5
139 9.88813 6.2722 1.97365 0.5
140 1.33158 4.2209 3.31542 0.5
141 7.51908 6.88502 11.4433 0.5
142 12.3588 6.59632 11.4453 0.5
143 11.6397 9.50398 3.6925 0.5
144 11.9191 4.97103 6.11501 0.5
145 6.11219 7.0412 8.01837 0.5
146 11.3674 12.9132 1.15178 0.5
147 10.7582 11.1813 10.8362 0.5
148 8.88984 10.1712 9.58169 0.5
149 1.28425 9.69085 5.36246 0.5
150 4.16482 5.20823 1.71622 0.5
151 9.27259 7.45918 1.82821 0.5
152 10.1144 6.69545 3.34003 0.5
153 5.70147 11.7343 1.52684 0.5
154 9.40116 9.33432 3.59769 0.5
155 11.8997 5.77821 8.52918 0.5
156 6.48582 6.34051 12.4414 0.5
157 9.27869 12.266 10.0812 0.5
158 5.48675 0.0826573 5.05105 0.5
159 11.6671 10.1186 6.00261 0.5
160 2.25951 10.0539 2.943 0.5
161 13.0403 9.23601 9.64517 0.5
162 7.57193 10.8907 0.276574 0.5
163 12.8513 10.2824 12.9149 0.5
164 1.69932 12.9101 10.6819 0.5
165 12.9903 2.16956 0.139923 0.5
166 11.2027 10.3332 8.72492 0.5
167 6.38452 10.4984 10.701 0.5
168 9.38642 7.56899 8.51574 0.5
169 10.4436 8.71339 9.16558 0.5
170 8.06246 3.30298 12.1063 0.5
171 12.9288 6.07068 3.93697 0.5
172 5.92323 6.15059 12.4822 0.5
173 9.89078 6.31141 11.8476 0.5
174 10.1724 13.2422 0.784881 0.5
175 11.1761 6.24058 6.4485 0.5
176 0.668242 10.2263 10.1265 0.5
177 1.99384 3.22723 13.2632 0.5
178 12.599 1.47213 2.75364 0.5
179 0.266938 12.2231 3.00649 0.5
180 6.47353 2.31263 5.59486 0.5
181 3.99577 11.7688 1.65145 0.5
182 2.10986 11.6342 12.8916 0.5
183 3.31491 1.55265 11.0049 0.5
184 3.40231 11.2756 0.181782 0.5
185 4.48111 5.01648 0.264296 0.5
186 8.03487 5.21877 3.00886 0.5
187 5.77762 11.4355 5.0206 0.5
188 4.68075 0.308284 4.24584 0.5
189 4.0176 6.85889 5.0661 0.5
190 4.50456 11.5766 13.0018 0.5
191 12.9317 9.06922 2.68003 0.5
192 13.4122 1.48681 1.09541 0.5
193 0.280034 7.37841 11.9463 0.5
194 10.8235 9.87578 2.34288 0.5
195 8.71085 13.3156 10.5651 0.5
196 10.5901 9.96033 9.83908 0.5
197 5.63441 0.741585 12.1491 0.5
198 0.0306506 0.891452 1.28752 0.5
199 6.07486 9.32796 7.76595 0.5
200 3.5099 7.0137 10.3319 0.5
201 2.72873 10.4663 4.66617 0.5
202 8.36241 4.3049 2.72978 0.5
203 9.62298 2.45951 6.87872 0.5
204 11.8876 9.45096 0.537187 0.5
205 9.58142 8.19332 10.6024 0.5
206 3.17977 7.51279 13.3603 0.5
207 3.74073 4.06721 4.78606 0.5
208 12.4146 8.74585 10.124 0.5
209 9.41025 10.3883 0.820135 0.5
210 1.59235 11.9448 0.318347 0.5
211 2.01284 12.7173 6.34605 0.5
212 6.38628 6.96492 5.05184 0.5
213 5.95902 1.8782 6.03572 0.5
214 8.61606 9.49829 7.02301 0.5
215 8.18825 0.417737 11.6945 0.5
216 12.4765 13.2163 7.60008 0.5
217 5.37468 2.00973 0.968267 0.5
218 12.609 3.08837 11.916 0.5
219 9.85648 8.88252 12.6801 0.5
220 0.288043 8.80697 4.46781 0.5
221 7.58195 1.43379 12.9351 0.5
222 3.51929 12.8067 10.4799 0.5
223 0.936028 0.85191 0.197905 0.5
224 6.45761 6.71028 2.74004 0.5
225 4.39009 7.0141 12.7963 0.5
226 4.47071 9.92448 8.53171 0.5
227 6.46417 3.5461 6.01734 0.5
228 12.5975 9.6097 9.81826 0.5
229 13.2173 2.82637 4.77339 0.5
230 10.4096 0.633257 5.32199 0.5
231 4.3157 0.782074 2.54963 0.5
232 5.76659 1.02328 7.29923 0.5
233 0.639508 0.849032 12.5003 0.5
234 11.6453 4.77151 1.0068 0.5
235 2.77557 10.9535 2.93662 0.5
236 11.7322 10.8291 2.2512 0.5
237 12.5925 11.0477 4.63324 0.5
238 10.6384 0.56495 10.2326 0.5
239 1.55083 10.9165 0.953613 0.5
240 6.0406 9.19659 4.04571 0.5
241 2.24879 10.4869 8.52519 0.5
242 8.24787 3.45828 7.83813 0.5
243 8.63255 13.3405 4.66641 0.5
244 6.74602 7.98012 10.5609 0.5
245 8.79837 8.36107 3.4035 0.5
246 8.46257 4.81095 8.41878 0.5
247 0.0855465 6.43338 3.66469 0.5
248 5.06055 10.5979 6.16479 0.5
249 4.52266 0.362878 3.63936 0.5
250 3.04587 0.119252 7.06803 0.5
251 4.45858 0.180115 12.2937 0.5
252 5.22384 1.0169 4.57066 0.5
253 11.8761 13.2683 0.289131 0.5
254 10.4204 5.11428 1.88794 0.5
255 1.51186 6.91155 6.75289 0.5
256 5.20331 3.43576 0.244289 0.5
257 5.90121 5.06698 6.29954 0.5
258 5.79175 10.3587 1.74146 0.5
259 12.4382 13.3669 8.65629 0.5
260 7.20573 9.0026 4.82734 0.5
261 11.6004 9.49116 11.6918 0.5
262 12.881 3.65957 0.13888 0.5
263 1.62247 1.28144 5.953 0.5
264 1.79839 5.31579 12.4977 0.5
265 2.57188 4.21274 7.33931 0.5
266 5.46183 10.9486 12.5568 0.5
267 0.630633 6.97621 11.1151 0.5
268 1.03313 13.2709 0.663084 0.5
269 12.5992 8.75493 8.84 0.5
270 4.95495 9.2563 5.89185 0.5
271 8.15556 3.01469 8.17899 0.5
272 1.07373 5.3538 12.2206 0.5
273 5.58648 11.4798 1.95344 0.5
274 1.80206 6.21815 2.44971 0.5
275 10.7325 7.47375 3.3331 0.5
276 2.07372 7.81526 10.5953 0.5
277 1.65237 4.86681 4.21296 0.5
278 10.8033 6.49051 8.43207 0.5
279 4.56709 5.20864 0.47687 0.5
280 8.8064 0.517833 7.59497 0.5
281 10.2828 10.2302 12.4418 0.5
282 0.841767 8.16763 8.01771 0.5
283 13.1945 10.2285 3.51984 0.5
284 13.0125 5.13825 1.23095 0.5
285 11.7417 6.09169 0.391422 0.5
286 7.71295 8.50313 11.8811 0.5
287 0.917157 12.6033 8.01349 0.5
288 4.916 12.6017 3.95472 0.5
289 10.5432 13.0128 6.21963 0.5
290 4.5497 8.28192 5.0419 0.5
291 2.37742 11.4067 0.945853 0.5
292 7.24094 11.9363 7.88149 0.5
293 11.4326 10.2617 8.49302 0.5
294 0.210339 5.73341 4.32716 0.5
295 9.71129 9.5218 9.03143 0.5
296 10.954 0.278347 10.7634 0.5
297 11.2542 13.0517 5.62404 0.5
298 6.66616 9.51831 2.46121 0.5
299 0.661748 8.31823 5.08009 0.5
300 3.1035 6.82996 0.686065 0.5
301 0.686067 11.526 3.66024 0.5
302 4.12228 1.40418 7.21541 0.5
303 3.37771 3.77229 7.59627 0.5
304 5.97759 4.00305 1.87395 0.5
305 11.0468 5.28037 6.1867 0.5
306 5.03705 3.09496 12.0525 0.5
307 6.61335 0.363942 1.16064 0.5
308 3.94447 12.4591 8.21416 0.5
309 8.80998 11.5808 7.6977 0.5
310 12.9591 4.60846 12.4631 0.5
311 0.511293 7.27705 9.69141 0.5
312 8.45059 8.85728 10.4002 0.5
313 2.40859 9.15071 1.08218 0.5
314 8.32804 11.0216 11.4681 0.5
315 0.217614 6.18231 9.24067 0.5
316 9.25249 4.89641 10.1537 0.5
317 8.29239 9.1962 5.80473 0.5
318 2.4403 2.67888 13.4945 0.5
319 5.51268 2.68046 5.12646 0.5
320 10.0814 13.2896 4.93095 0.5
321 6.7877 1.50494 11.5636 0.5
322 11.883 8.83862 2.60761 0.5
323 2.11079 6.27935 9.86784 0.5
324 1.68928 6.3056 10.339 0.5
325 5.97385 3.30957 7.61473 0.5
326 9.25298 13.4928 5.358 0.5
327 1.52695 2.57964 3.41641 0.5
328 9.44467 13.3515 9.35987 0.5
329 3.32023 3.36416 1.63267 0.5
330 7.96706 8.21946 10.1682 0.5
331 9.61107 10.7719 1.38435 0.5
332 4.28053 3.79966 12.2292 0.5
333 10.2191 3.00772 12.2602 0.5
334 12.5964 2.56432 6.84669 0.5
335 1.01459 9.96588 6.98045 0.5
336 6.56372 9.06294 12.3082 0.5
337 12.2497 11.627 9.80425 0.5
338 7.95282 2.38597 1.23219 0.5
339 12.9668 2.1124 3.52698 0.5
340 11.1971 11.5858 0.77073 0.5
341 3.3728 12.2737 10.8177 0.5
342 10.1697 4.26164 11.1328 0.5
343 7.33137 10.2021 2.4766 0.5
344 8.28433 4.44559 0.639031 0.5
345 3.77626 12.4273 1.9321 0.5
346 13.0376 2.92387 0.232457 0.5
347 1.94165 3.76411 8.36159 0.5
348 5.719 0.941513 5.11888 0.5
349 9.05515 6.69829 1.83279 0.5
350 11.3527 9.69863 2.08007 0.5
351 10.494 8.72429 6.74292 0.5
352 7.2645 9.56751 1.24957 0.5
353 0.262152 11.899 11.4067 0.5
354 4.63068 0.111201 4.03895 0.5
355 9.77888 6.23692 5.58011 0.5
356 5.89698 11.2355 11.5621 0.5
357 4.4262 2.18042 10.7278 0.5
358 3.10698 6.62045 12.1984 0.5
359 1.98489 2.96784 12.3042 0.5
360 3.23988 4.01737 3.86738 0.5
361 3.43633 12.9312 9.38239 0.5
362 11.6556 7.35299 2.2102 0.5
363 8.08332 0.62758 3.8007 0.5
364 10.9524 13.4573 7.45094 0.5
365 5.91266 12.8946 11.1103 0.5
366 13.0943 3.18563 12.6472 0.5
367 6.67831 12.4589 11.3851 0.5
368 4.39271 9.45349 8.99361 0.5
369 6.80878 9.26518 4.25639 0.5
370 12.202 3.9055 9.1454 0.5
371 7.86007 5.92439 13.4245 0.5
372 11.4763 3.41872 10.1693 0.5
373 12.8324 13.4333 9.70393 0.5
374 11.5374 5.43303 7.43984 0.5
375 3.34191 8.10814 4.03454 0.5
376 2.71873 12.6094 1.64338 0.5
377 8.39649 6.72217 12.3578 0.5
378 7.72041 0.831134 4.12492 0.5
379 0.855924 9.97598 4.98175 0.5
380 4.26542 12.1739 0.40447 0.5
381 4.79578 1.59344 10.8853 0.5
382 1.16871 1.98081 3.16949 0.5
383 0.562569 7.44739 8.37783 0.5
384 7.62511 8.13122 10.3003 0.5
385 2.66778 5.02309 3.43281 0.5
386 4.64884 11.9129 4.03863 0.5
387 5.01638 9.50287 3.60476 0.5
388 1.75302 8.91953 1.63527 0.5
389 2.42338 2.17517 10.9007 0.5
390 11.0122 0.550785 5.87165 0.5
391 5.0508 8.91036 4.80949 0.5
392 13.0102 10.144 4.53429 0.5
393 0.505879 8.5934 10.3605 0.5
394 3.65455 7.37085 4.69575 0.5
395 2.97791 8.4092 1.58654 0.5
396 8.6647 4.30468 0.806896 0.5
397 7.38346 3.49991 11.389 0.5
398 9.17947 12.8612 7.53338 0.5
399 7.01017 8.93166 9.04474 0.5
400 3.67149 12.5349 0.951586 0.5
401 1.43136 8.08644 11.8358 0.5
402 8.33346 12.8228 10.8841 0.5
403 10.4325 11.9969 3.33226 0.5
404 2.11669 3.08065 1.80902 0.5
405 13.0905 7.54378 0.845306 0.5
406 3.92333 10.4389 6.98295 0.5
407 9.4004 4.2351 8.50805 0.5
408 6.43851 12.5711 13.1085 0.5
409 5.54471 3.03802 1.24388 0.5
410 6.9385 1.21102 0.337954 0.5
411 5.95369 10.3036 6.39974 0.5
412 7.51311 2.4993 8.0941 0.5
413 8.08386 3.75532 8.18203 0.5
414 0.147812 5.18699 12.534 0.5
415 5.90231 4.60008 12.8687 0.5
416 7.01312 12.9694 12.5519 0.5
417 11.5396 8.40381 12.222 0.5
418 7.49361 0.748099 10.4436 0.5
419 11.3369 8.29152 4.94695 0.5
420 5.10451 2.79446 6.48816 0.5
421 8.47779 7.75903 11.2987 0.5
422 2.45013 5.20153 3.01557 0.5
423 7.76412 10.7326 4.38056 0.5
424 11.5643 9.59064 7.37518 0.5
425 5.94331 5.31086 2.95939 0.5
426 1.96639 7.33752 1.77197 0.5
427 4.08778 12.8342 1.6634 0.5
428 5.40041 4.59848 9.69369 0.5
429 11.3969 1.78343 9.39642 0.5
430 5.45086 4.38639 8.19156 0.5
431 5.44122 7.72343 9.63865 0.5
432 3.20533 12.6778 12.214 0.5
433 5.23926 4.46764 7.14629 0.5
434 13.1976 5.96681 8.46283 0.5
435 7.91527 10.9851 6.81998 0.5
436 5.92521 10.4093 2.93543 0.5
437 1.17743 3.00438 0.973863 0.5
438 2.33987 1.16858 8.50272 0.5
439 10.111 5.49092 5.10613 0.5
440 5.2867 12.1513 1.13047 0.5
441 13.2478 2.07285 0.249701 0.5
442 5.78978 11.8266 11.2012 0.5
443 1.06554 8.79423 2.22843 0.5
444 12.5087 9.44657 0.826467 0.5
445 11.2617 9.06939 6.6658 0.5
446 9.39649 8.83861 2.92354 0.5
447 1.39164 12.7139 13.1034 0.5
448 5.17339 10.9378 1.6144 0.5
449 7.25366 0.243845 4.29441 0.5
450 3.38026 11.7176 3.45558 0.5
451 10.0875 0.889656 3.22011 0.5
452 2.29645 2.188 12.4968 0.5
453 2.20105 6.43144 7.32814 0.5
454 7.33673 5.73257 6.84236 0.5
455 11.6866 8.6115 10.1763 0.5
456 8.4433 5.29359 0.494393 0.5
457 9.73779 3.68413 1.20149 0.5
458 5.28911 12.414 4.47046 0.5
459 3.96174 10.4921 2.66513 0.5
460 8.46089 13.5616 1.44686 0.5
461 7.55617 1.38116 9.05321 0.5
462 2.92848 4.34715 12.0661 0.5
463 3.6561 13.0544 5.47345 0.5
464 12.6125 0.112414 10.4923 0.5
465 2.78101 4.89227 6.28089 0.5
466 9.35455 0.608044 3.42574 0.5
467 3.91549 0.52941 1.26453 0.5
468 12.4168 5.7647 7.34555 0.5
469 10.8607 12.7588 11.9595 0.5
470 5.69385 4.58022 2.67102 0.5
471 11.0955 7.4035 12.9575 0.5
472 5.32917 13.4766 10.0288 0.5
473 11.8538 5.29795 2.33862 0.5
474 9.36115 9.40748 0.250329 0.5
475 4.51922 12.6989 5.11253 0.5
476 6.49619 12.7628 8.66773 0.5
477 7.198 9.90118 5.95103 0.5
478 9.33246 8.4808 7.89072 0.5
479 6.46788 8.85007 4.65226 0.5
480 3.66813 2.53038 0.183022 0.5
481 3.55177 1.39358 8.84144 0.5
482 8.9322 10.3864 2.09324 0.5
483 0.150577 12.9336 5.90317 0.5
484 11.897 13.0221 13.4919 0.5
485 1.46 2.7555 11.4273 0.5
486 3.73584 2.67969 2.92198 0.5
487 11.462 9.91301 9.27687 0.5
488 0.170863 9.21157 1.38162 0.5
489 7.21007 2.26547 9.32036 0.5
490 13.1632 6.18964 13.4895 0.5
491 13.4854 5.90953 1.29939 0.5
492 8.24967 6.39973 4.35369 0.5
493 3.47139 3.82428 8.61057 0.5
494 10.1949 6.53137 6.71807 0.5
495 6.32987 8.16091 13.1786 0.5
496 8.65016 0.595099 0.574756 0.5
497 7.95551 3.83886 3.13403 0.5
498 0.956859 11.5653 0.773531 0.5
499 6.21302 8.11269 12.8416 0.5
500 10.597 11.5758 12.3388 0.5
501 11.6244 1.87868 6.216 0.5
502 1.55935 7.76577 9.53796 0.5
503 7.94739 10.7234 3.16338 0.5
504 1.91288 9.48651 8.33511 0.5
505 11.5865 10.1859 6.66705 0.5
506 11.6589 10.1257 3.84517 0.5
507 5.35386 12.5977 0.286894 0.5
508 9.50348 6.34684 5.69893 0.5
509 12.9969 3.83323 5.24311 0.5
510 5.6664 2.39392 7.88087 0.5
511 9.63929 1.14024 5.65804 0.5
512 0.116961 10.5665 7.09897 0.5
513 11.2075 6.62184 5.39814 0.5
514 3.6495 5.81101 12.1964 0.5
515 0.600498 3.25183 6.8794 0.5
516 10.0236 8.87404 0.19022 0.5
517 4.9656 4.34385 13.2976 0.5
518 10.7975 9.4976 5.94132 0.5
519 4.25366 10.3479 1.9751 0.5
520 8.28849 1.11893 5.27663 0.5
521 11.2998 11.9925 4.03537 0.5
522 11.2666 12.1414 4.78406 0.5
523 10.5264 0.572347 4.98835 0.5
524 2.48945 2.24488 7.36376 0.5
525 8.25171 8.20886 1.77767 0.5
526 12.0946 9.61419 7.67325 0.5
527 11.3787 2.10796 4.05106 0.5
528 10.3719 1.91096 10.6892 0.5
529 10.4567 12.8189 12.5936 0.5
530 2.25582 13.2798 8.68191 0.5
531 0.884345 6.41919 12.2657 0.5
532 5.00675 0.160191 1.46266 0.5
533 1.04179 10.3887 12.4083 0.5
534 3.92548 6.14894 9.60946 0.5
535 0.174593 10.0056 3.21463 0.5
536 7.17736 3.49658 5.38776 0.5
537 11.4092 13.2095 8.82756 0.5
538 12.0588 3.11218 2.61251 0.5
539 1.88105 0.82426 12.2713 0.5
540 10.817 6.75672 9.16846 0.5
541 10.2463 11.3524 9.29573 0.5
542 0.957562 7.49941 5.96063 0.5
543 3.65265 8.95315 6.62363 0.5
544 2.15337 11.5132 13.2982 0.5
545 7.8013 11.1891 3.00654 0.5
546 0.241865 6.51907 1.78481 0.5
547 8.92992 7.83614 4.95066 0.5
548 2.93364 8.02952 0.28362 0.5
549 12.5587 7.7213 5.61859 0.5
550 4.86913 4.66152 2.16989 0.5
551 8.77954 6.2508 12.4728 0.5
552 8.91192 13.5261 6.36761 0.5
553 9.5429 1.00117 11.2338 0.5
554 8.75394 9.44911 13.5251 0.5
555 1.07015 8.89153 8.78385 0.5
556 5.76779 1.67367 9.38238 0.5
557 7.99884 2.15719 1.28274 0.5
558 8.59507 12.7818 10.4016 0.5
559 3.05831 6.67798 3.6119 0.5
560 4.0204 7.26425 8.29173 0.5
561 9.3665 9.57102 8.20523 0.5
562 11.2786 4.36234 13.1994 0.5
563 7.04126 12.1938 8.02441 0.5
564 11.0657 10.41 1.63065 0.5
565 12.3044 3.86168 5.84919 0.5
566 7.03044 10.6214 11.5935 0.5
567 3.32593 6.48159 6.43937 0.5
568 1.95495 0.212369 4.8996 0.5
569 12.046 12.9816 1.65726 0.5
570 3.73268 10.2734 2.47404 0.5
571 7.89528 0.669052 7.25185 0.5
572 7.82421 1.41628 11.8123 0.5
573 5.90472 9.50892 6.44148 0.5
574 9.33719 0.85933 6.16101 0.5
575 13.5692 6.61523 7.02572 0.5
576 3.85766 3.24228 10.4125 0.5
577 5.06262 13.0563 12.5764 0.5
578 11.5994 10.9778 12.7876 0.5
579 2.83363 0.476748 7.81268 0.5
580 1.19604 2.47129 4.39894 0.5
581 11.2567 3.73201 2.29815 0.5
582 5.63878 0.952317 11.082 0.5
583 13.4099 6.46954 9.66253 0.5
584 1.60207 9.91002 6.65861 0.5
585 3.84048 12.5315 13.4146 0.5
586 8.21694 5.83518 6.19815 0.5
587 10.6039 11.3081 10.3096 0.5
588 0.987626 5.02961 10.5031 0.5
589 9.94677 3.43961 8.42621 0.5
590 3.94171 4.81055 0.701756 0.5
591 11.2801 8.69854 11.4643 0.5
592 12.8516 9.68936 12.9217 0.5
593 2.83966 1.06742 13.4044 0.5
594 5.38899 1.33012 5.53824 0.5
595 3.90967 1.21841 7.81566 0.5
596 13.0377 10.1922 1.67628 0.5
597 4.61163 2.92891 1.42225 0.5
598 5.1154 10.5942 13.0004 0.5
599 4.83301 8.52994 11.4515 0.5
600 5.66173 0.251861 10.8336 0.5
601 5.59099 6.87529 5.042 0.5
602 7.01919 5.90536 5.84815 0.5
603 2.67954 2.62179 9.71842 0.5
604 2.81948 0.507952 11.7645 0.5
605 10.1092 9.78489 0.571006 0.5
606 11.448 8.35202 3.23044 0.5
607 1.86129 9.48586 2.10351 0.5
608 12.1656 0.261507 5.33674 0.5
609 9.78636 12.3431 2.79023 0.5
610 12.8261 6.22806 7.55057 0.5
611 13.1994 7.04071 13.3659 0.5
612 8.09072 11.7731 5.8361 0.5
613 13.4175 1.90447 5.80472 0.5
614 0.45312 2.06021 3.96032 0.5
615 1.93194 6.70907 0.0349367 0.5
616 1.49428 10.0368 1.69152 0.5
617 1.26911 12.2343 12.6426 0.5
618 13.2967 3.70752 11.6865 0.5
619 6.86461 10.2802 8.42293 0.5
620 11.908 1.90432 11.673 0.5
621 1.98885 7.47641 6.9419 0.5
622 12.0976 6.33926 6.98542 0.5
623 0.554662 10.5359 10.1654 0.5
624 3.59614 7.0494 8.77587 0.5
625 12.2051 7.89533 12.1828 0.5
626 4.59702 1.73355 1.29253 0.5
627 1.79821 1.73475 3.3232 0.5
628 2.70781 10.6359 11.9216 0.5
629 6.19569 3.54659 6.21717 0.5
630 9.59468 8.15469 10.1066 0.5
631 11.2551 2.31036 8.1609 0.5
632 11.968 10.7787 12.6174 0.5
633 12.1395 5.62263 4.86963 0.5
634 3.51458 10.0852 0.107623 0.5
635 2.27585 6.41038 9.95575 0.5
636 9.97755 3.15139 11.038 0.5
637 2.5676 3.05352 5.53088 0.5
638 2.08548 5.31245 1.2246 0.5
639 6.92928 11.0664 3.61818 0.5
640 6.56052 9.79998 7.65618 0.5
641 8.83224 3.02894 6.2376 0.5
642 11.6577 3.56319 2.18009 0.5
643 10.5211 1.91561 1.88427 0.5
644 13.1644 12.3822 11.1198 0.5
645 11.6992 0.708315 9.83385 0.5
646 1.37344 4.76831 12.0163 0.5
647 5.06871 13.1895 5.6115 0.5
648 12.9949 6.31242 3.0549 0.5
649 12.5067 1.24475 8.12924 0.5
650 6.95563 10.0883 10.937 0.5
651 5.77003 2.21424 1.34989 0.5
652 11.2933 3.83421 0.258962 0.5
653 5.7265 9.93618 8.77325 0.5
654 11.7917 1.10803 3.15591 0.5
655 8.2321 0.667305 2.24948 0.5
656 1.19574 0.565947 8.48337 0.5
657 5.11559 3.76777 6.7624 0.5
658 13.3231 0.244588 9.68426 0.5
659 10.2994 10.8202 5.20371 0.5
660 7.81139 7.62431 5.73499 0.5
661 9.96598 1.89561 11.8573 0.5
662 1.12921 2.5912 6.23828 0.5
663 4.22495 2.59752 2.21533 0.5
664 13.162 7.58415 5.5372 0.5
665 6.11771 7.11895 8.15344 0.5
666 10.1091 10.0553 2.2741 0.5
667 7.2277 12.0651 2.24884 0.5
668 6.73324 11.9129 13.4275 0.5
669 1.04636 7.58603 13.536 0.5
670 7.30542 2.81746 9.06268 0.5
671 4.18053 11.7021 5.14215 0.5
672 7.3647 2.18756 4.40805 0.5
673 11.2168 6.99494 5.64585 0.5
674 2.1344 11.9963 8.49192 0.5
675 0.837904 5.44324 3.86845 0.5
676 11.5147 0.00868291 6.77337 0.5
677 10.7265 3.95894 8.02876 0.5
678 3.58085 0.128512 12.3005 0.5
679 8.54651 4.59391 12.2955 0.5
680 8.23883 1.1434 11.3802 0.5
681 9.63594 12.1626 6.3793 0.5
682 10.5888 6.40992 6.41522 0.5
683 11.0798 2.02816 2.97962 0.5
684 11.7211 3.13287 4.81009 0.5
685 1.3052 13.5043 12.6959 0.5
686 5.79922 5.90762 6.26261 0.5
687 10.8401 6.54795 0.90668 0.5
688 10.0062 3.37227 8.21192 0.5
689 12.5154 12.009 1.3517 0.5
690 5.16392 6.77304 4.78087 0.5
691 9.448 8.84985 2.67292 0.5
692 11.78 7.06741 6.34017 0.5
693 0.865222 11.4104 9.17158 0.5
694 6.71243 4.64989 8.2248 0.5
695 6.25573 11.3066 0.343883 0.5
696 8.79661 9.6904 8.6972 0.5
697 5.3684 2.07891 9.7325 0.5
698 9.08769 0.607157 3.13933 0.5
699 8.11569 0.292037 1.79425 0.5
700 9.64965 1.04907 4.55231 0.5
701 6.41503 2.93064 12.6765 0.5
702 12.5874 11.1685 0.0340287 0.5
703 7.28745 6.56525 12.0266 0.5
704 12.2831 7.82942 1.88155 0.5
705 6.69293 6.25164 11.7253 0.5
706 3.64589 6.54557 6.76781 0.5
707 6.48724 12.6921 11.8154 0.5
708 0.681651 8.00169 11.1702 0.5
709 9.03088 8.41136 4.51014 0.5
710 1.54557 11.6258 5.23438 0.5
711 11.2929 8.36626 11.7819 0.5
712 6.65528 1.4553 10.4509 0.5
713 6.79977 8.02921 1.29517 0.5
714 1.5541 13.0781 3.48422 0.5
715 8.71964 3.70945 13.3206 0.5
716 0.882594 7.48474 7.98119 0.5
717 10.9962 11.6493 2.67244 0.5
718 12.9309 5.51486 6.02721 0.5
719 10.4944 8.575 11.8697 0.5
720 8.49822 2.59911 5.30581 0.5
721 7.91171 0.269099 12.5656 0.5
722 12.7584 1.92292 3.41807 0.5
723 12.038 1.92711 11.9283 0.5
724 1.01736 0.566282 1.43505 0.5
725 7.05954 11.2176 3.6026 0.5
726 5.79831 11.8148 2.07789 0.5
727 11.3584 4.08278 5.93166 0.5
728 9.79914 0.749874 13.1366 0.5
729 4.26135 9.6397 1.96217 0.5
730 8.73012 8.95514 13.2894 0.5
731 11.263 1.05433 9.61931 0.5
732 2.77385 12.9633 1.03149 0.5
733 12.5812 2.04533 1.42509 0.5
734 4.7099 12.9617 10.7726 0.5
735 4.632 11.0557 9.21368 0.5
736 6.26387 4.96335 10.2096 0.5
737 5.12455 11.9955 9.11351 0.5
738 9.98091 8.14216 9.58677 0.5
739 7.20887 4.29629 10.2055 0.5
740 13.354 13.5574 1.58816 0.5
741 6.79566 2.00042 8.44273 0.5
742 10.8362 11.634 1.47073 0.5
743 8.73419 5.59667 2.20571 0.5
744 13.0307 8.15702 4.04745 0.5
745 11.5883 9.93261 3.37794 0.5
746 2.23113 13.0877 10.9386 0.5
747 5.77207 7.5926 9.25165 0.5
748 6.4797 10.3354 12.7968 0.5
749 2.24988 5.65941 5.31493 0.5
750 7.79645 13.4321 7.11525 0.5
751 9.52451 12.185 2.97795 0.5
752 0.644734 8.66604 3.16013 0.5
753 2.80206 7.80789 1.34681 0.5
754 1.60713 10.0839 0.385793 0.5
755 9.86143 9.13682 2.58945 0.5
756 6.77867 13.0717 4.12001 0.5
757 6.59194 11.0756 8.41864 0.5
758 2.06929 6.6325 13.5605 0.5
759 13.0998 5.8859 2.50828 0.5
760 10.6483 6.90155 10.5518 0.5
761 8.96924 10.0397 5.06733 0.5
762 8.24562 1.81061 10.1309 0.5
763 5.56623 7.3207 6.72682 0.5
764 3.86344 5.81425 10.1516 0.5
765 1.39081 11.4454 10.1579 0.5
766 0.5741 4.64259 12.4286 0.5
767 5.35279 7.72072 12.6897 0.5
768 13.5328 12.7803 8.43943 0.5
769 6.53352 3.01474 1.01744 0.5
770 2.2035 3.99117 10.082 0.5
771 7.21598 6.78971 8.38009 0.5
772 11.7318 8.08856 6.60884 0.5
773 6.30106 8.39157 12.399 0.5
774 10.5453 4.86526 7.79831 0.5
775 0.114028 9.63666 2.51965 0.5
776 4.83568 1.89995 0.225387 0.5
777 6.50019 1.37922 7.98736 0.5
778 12.1902 11.4579 7.1166 0.5
779 12.4438 2.19459 9.70897 0.5
780 8.86206 1.36945 11.3314 0.5
781 2.58147 9.92277 10.9968 0.5
782 6.24072 8.08789 5.13137 0.5
783 6.65622 12.7445 7.38735 0.5
784 4.683 10.9951 1.57619 0.5
785 10.9216 1.60806 7.74283 0.5
786 9.4589 13.0062 5.35857 0.5
787 11.5217 7.50052 1.7925 0.5
788 8.37442 6.82184 12.3802 0.5
789 0.508315 2.4864 6.93453 0.5
790 9.5153 7.65548 10.0254 0.5
791 6.93868 2.81757 2.52216 0.5
792 9.39302 1.08221 1.41523 0.5
793 2.61086 3.53134 12.1847 0.5
794 7.18479 3.27626 2.07607 0.5
795 0.265801 2.21435 0.899052 0.5
796 5.59957 10.0985 8.07414 0.5
797 7.80665 8.11045 7.25285 0.5
798 6.70574 5.62006 8.54281 0.5
799 12.0709 11.1172 12.5181 0.5
800 2.38497 0.9762 10.9976 0.5
801 5.39961 5.25309 2.41142 0.5
802 5.24989 11.0374 3.3637 0.5
803 13.3348 12.9303 3.93606 0.5
804 12.7831 8.50956 8.97037 0.5
805 11.0108 12.2645 1.96357 0.5
806 7.73486 13.1171 8.96316 0.5
807 3.66308 0.433754 9.25421 0.5
808 5.71864 10.3325 9.89728 0.5
809 12.3807 8.69167 12.0925 0.5
810 8.70317 6.93948 13.0267 0.5
811 5.29348 8.32518 10.8232 0.5
812 0.211029 1.47896 3.74952 0.5
813 11.4662 3.1513 5.91494 0.5
814 8.36811 9.96144 11.9663 0.5
815 11.4073 3.52227 8.32769 0.5
816 12.872 1.71202 4.01212 0.5
817 3.24852 3.20011 10.9806 0.5
818 10.7127 0.313642 11.609 0.5
819 12.0108 9.89166 2.54119 0.5
820 0.522603 10.136 8.9352 0.5
821 1.47702 2.19111 10.1958 0.5
822 8.38874 9.38778 7.77152 0.5
823 2.4741 10.8342 4.42645 0.5
824 11.0155 12.2455 0.0503785 0.5
825 8.7787 9.78273 12.9054 0.5
826 9.07067 0.311572 6.07625 0.5
827 6.51608 1.52433 12.5433 0.5
828 1.22024 2.12733 8.97228 0.5
829 7.62023 2.71922 8.60883 0.5
830 3.69109 9.35822 1.85412 0.5
831 10.0348 1.12212 7.82744 0.5
832 6.00779 12.2728 4.75366 0.5
833 8.91123 1.10943 12.3789 0.5
834 5.68239 0.0989007 13.5226 0.5
835 9.17864 4.54814 12.4822 0.5
836 11.5888 3.07796 2.2247 0.5
837 10.4483 7.48273 5.92328 0.5
838 7.0599 3.73704 6.79978 0.5
839 10.3996 0.689223 2.57336 0.5
840 13.2525 9.84682 3.89573 0.5
841 5.28641 6.71787 12.2478 0.5
842 4.99586 8.33213 0.931323 0.5
843 6.89324 4.63795 0.357903 0.5
844 11.6048 1.60131 6.55414 0.5
845 12.556 9.43772 1.72958 0.5
846 0.89766 6.65399 11.3509 0.5
847 10.433 1.28746 3.82845 0.5
848 4.93845 0.588731 11.4562 0.5
849 3.71272 1.83342 12.3 0.5
850 1.12613 11.4571 11.3865 0.5
851 2.10367 1.92371 11.6646 0.5
852 7.67105 9.98776 7.59022 0.5
853 7.13104 8.6438 6.62972 0.5
854 3.03969 13.3613 0.719202 0.5
855 2.87312 8.09052 3.11682 0.5
856 3.16391 2.7101 5.84804 0.5
857 9.76903 6.26569 11.7003 0.5
858 10.0582 12.3582 10.0042 0.5
859 12.5953 10.0911 11.4137 0.5
860 4.41116 13.4126 9.35605 0.5
861 8.30547 9.22648 13.1914 0.5
862 10.8808 9.0722 6.09955 0.5
863 6.00792 5.89202 3.20619 0.5
864 11.8684 11.1948 1.83166 0.5
865 9.68831 5.17728 3.63123 0.5
866 13.2327 10.6827 1.38668 0.5
867 3.43214 2.1225 2.09362 0.5
868 3.841 6.56424 2.73302 0.5
869 10.2066 2.47361 9.46015 0.5
870 7.35392 4.41699 3.22188 0.5
871 3.76549 8.8177 10.7347 0.5
872 0.163658 0.0434262 6.5557 0.5
873 11.3802 12.6457 6.63051 0.5
874 2.90727 1.35264 7.36606 0.5
875 10.18 9.9707 2.00697 0.5
876 11.1351 3.03234 6.47959 0.5
877 7.04429 1.01126 6.75319 0.5
878 6.8922 8.68705 12.0448 0.5
879 5.48009 7.40313 2.19811 0.5
880 9.81335 8.12603 6.94918 0.5
881 3.10891 5.53848 1.51681 0.5
882 0.264379 8.6937 11.4809 0.5
883 5.15984 12.9282 4.92424 0.5
884 6.52921 4.75479 0.48021 0.5
885 0.538434 8.38504 5.86642 0.5
886 2.51405 12.8913 9.3761 0.5
887 0.74608 10.7036 4.20925 0.5
888 8.31066 7.98705 1.58198 0.5
889 0.694642 3.00272 13.4189 0.5
890 12.6148 4.29828 3.21548 0.5
891 1.73561 1.69747 7.7978 0.5
892 2.66057 7.54384 1.28677 0.5
893 8.4812 8.76156 2.49927 0.5
894 6.00654 7.90755 3.90292 0.5
895 12.8824 1.24756 1.53755 0.5
896 11.9778 5.46973 10.1036 0.5
897 11.1037 9.32824 11.227 0.5
898 12.9963 12.1961 1.77545 0.5
899 13.2589 2.98564 12.2384 0.5
900 9.70549 11.2876 3.57485 0.5
901 7.34775 12.2155 12.1215 0.5
902 4.33587 11.6697 12.5444 0.5
903 12.6777 6.48264 3.89172 0.5
904 12.8983 6.75909 5.0763 0.5
905 0.803889 8.84512 1.68003 0.5
906 11.7116 11.5439 5.33605 0.5
907 12.1015 8.816 1.92667 0.5
908 10.4472 13.0968 12.4606 0.5
909 9.68287 1.59178 1.89135 0.5
910 1.50547 10.5177 2.03237 0.5
911 6.03686 0.752951 3.28479 0.5
912 3.42575 5.10706 2.24883 0.5
913 11.457 9.24126 1.07954 0.5
914 11.9921 5.93916 5.32499 0.5
915 11.2904 0.579608 10.76 0.5
916 12.8415 2.46472 13.123 0.5
917 11.5493 0.069399 6.75391 0.5
918 0.135198 5.85323 4.7681 0.5
919 4.46344 0.892453 8.01088 0.5
920 8.70914 2.4329 8.80326 0.5
921 8.42868 2.02947 6.1601 0.5
922 9.92741 5.25695 10.6307 0.5
923 7.73702 9.05045 13.2123 0.5
924 7.01196 10.0087 8.54825 0.5
925 12.3817 5.69629 10.7297 0.5
926 6.49654 12.2296 2.53929 0.5
927 7.99258 8.45424 7.86421 0.5
928 13.4602 4.05408 6.77727 0.5
929 7.70439 5.74903 12.8263 0.5
930 6.8572 6.14672 1.03523 0.5
931 2.25328 5.90964 6.70618 0.5
932 9.93053 13.0789 12.77 0.5
933 5.18693 0.365921 8.70833 0.5
934 1.50482 2.10319 0.339405 0.5