ITEM: TIMESTEP
990000
ITEM: NUMBER OF ATOMS
1000
ITEM: BOX BOUNDS xy xz yz pp pp pp
0.0000000000000000e+00 1.3572088000000001e+01 0.0000000000000000e+00
0.0000000000000000e+00 1.3572088000000001e+01 0.0000000000000000e+00
0.0000000000000000e+00 1.3572088000000001e+01 0.0000000000000000e+00
ITEM: ATOMS id x y z radius
1 7.12492 8.18343 9.06062 0.5
2 2.19881 6.44583 5.20965 0.5
3 1.36755 6.57263 13.0187 0.5
4 12.9323 11.67 7.0311 0.5
5 12.7833 7.82036 2.93357 0.5
6 2.86243 6.63067 13.5313 0.5
7 6.8814 9.50934 11.3525 0.5
8 2.5008 8.11017 0.665426 0.5
9 4.92371 2.48823 1.90534 0.5
10 0.733138 10.9321 7.25869 0.5
11 7.47821 11.5204 0.473888 0.5
12 9.74827 5.40417 7.32839 0.5
13 12.2493 10.8489 1.32426 0.5
14 12.8484 1.54396 8.87289 0.5
15 2.47478 13.3499 6.83943 0.5
16 6.32106 13.4545 4.06357 0.5
17 13.2666 9.24104 7.36403 0.5
18 13.1086 9.54195 10.5867 0.5
19 7.35585 1.53456 5.06725 0.5
20 11.0824 0.92205 4.72066 0.5
21 12.0794 1.71688 12.6881 0.5
22 13.6035 4.24944 9.5632 0.5
23 13.5357 10.1613 8.14723 0.5
24 9.50287 9.74562 7.68955 0.5
25 0.0654784 7.98608 5.56597 0.5
26 11.7428 11.6985 13.0177 0.5
27 7.0273 5.81929 4.93996 0.5
28 5.20146 1.68011 11.3263 0.5
29 10.8199 10.3409 12.5173 0.5
30 2.14396 2.85871 6.99445 0.5
31 10.0436 0.501268 7.82218 0.5
32 3.07838 13.4752 8.74064 0.5
33 1.32963 1.14233 6.98744 0.5
34 5.1379 8.42629 8.67131 0.5
35 9.28661 11.0419 10.0717 0.5
36 4.67111 2.58099 3.45565 0.5
37 11.1171 10.1009 10.3707 0.5
38 10.2 4.41217 11.3801 0.5
39 7.86197 11.146 8.9741 0.5
40 3.48723 12.3075 0.567845 0.5
41 12.967 0.848761 12.8395 0.5
42 8.66018 4.84151 4.11222 0.5
43 5.5569 4.46816 8.35678 0.5
44 6.50787 6.28099 7.63609 0.5
45 8.76616 3.88729 9.26484 0.5
46 4.15389 10.4066 6.04975 0.5
47 3.29249 5.2626 3.16223 0.5
48 2.06916 1.94841 0.610466 0.5
49 6.05744 12.5833 4.18984 0.5
50 0.688322 11.6155 3.42577 0.5
51 0.537712 0.733369 2.25712 0.5
52 3.78458 1.43269 5.13141 0.5
53 8.8418 11.9442 9.30164 0.5
54 8.8953 4.17301 3.19204 0.5
55 8.46254 7.183 5.46749 0.5
56 13.3561 13.2696 8.9839 0.5
57 12.1812 11.7013 11.2974 0.5
58 1.57134 0.493942 0.865819 0.5
59 13.19 11.0991 5.71702 0.5
60 7.55929 2.69224 11.2216 0.5
61 8.53931 6.60643 10.5023 0.5
62 13.2516 12.439 5.5837 0.5
63 0.408888 12.5775 9.46446 0.5
64 2.75604 2.49155 8.68101 0.5
65 9.91701 5.64327 2.0373 0.5
66 2.0987 11.6881 1.20226 0.5
67 10.3565 8.96088 3.10302 0.5
68 8.67003 12.2615 10.7595 0.5
69 1.03876 10.4138 4.27193 0.5
70 6.56059 6.36252 0.215139 0.5
71 8.76814 7.65694 9.99797 0.5
72 5.64505 4.02535 5.14799 0.5
73 3.84099 9.48522 2.55578 0.5
74 11.2229 2.46974 12.7942 0.5
75 7.44098 6.63376 11.647 0.5
76 4.72849 11.2823 9.21631 0.5
77 6.52118 12.4818 3.72535 0.5
78 8.73607 0.403852 0.874591 0.5
79 4.33659 8.55653 4.80167 0.5
80 10.3417 7.99668 10.3177 0.5
81 7.83486 2.72998 0.664419 0.5
82 10.7012 4.16639 0.352061 0.5
83 12.8011 0.845145 10.669 0.5
84 12.9067 4.48576 12.0688 0.5
85 1.3383 6.46961 4.03136 0.5
86 4.3172 6.85208 0.733936 0.5
87 0.522078 9.01596 11.9678 0.5
88 11.2791 3.58493 12.7292 0.5
89 7.50516 5.15316 12.2945 0.5
90 6.22517 5.92571 8.0619 0.5
91 5.31724 10.3594 10.7299 0.5
92 4.47384 8.0314 2.53792 0.5
93 13.3237 12.6765 12.6651 0.5
94 10.7864 0.281975 0.094647 0.5
95 2.55885 1.50295 11.2516 0.5
96 0.331784 11.0548 12.935 0.5
97 1.74967 3.41791 9.8945 0.5
98 7.06387 9.32513 2.26726 0.5
99 13.4234 7.19948 5.42684 0.5
100 5.31792 1.37702 8.08784 0.5
101 8.60285 0.830758 6.56665 0.5
102 4.2589 5.76414 1.82475 0.5
103 5.43416 12.1458 10.5207 0.5
104 2.32179 2.81455 10.6826 0.5
105 5.37589 4.35905 11.3067 0.5
106 11.464 4.28183 9.63357 0.5
107 1.57644 3.46453 12.127 0.5
108 7.61558 7.12633 6.82392 0.5
109 6.47216 8.78139 0.0148167 0.5
110 2.98529 13.1445 4.01364 0.5
111 7.45639 11.1826 8.77349 0.5
112 2.78944 13.0606 7.29631 0.5
113 7.803 8.59166 3.8521 0.5
114 1.9349 10.4999 1.97235 0.5
115 10.4095 7.15442 5.41223 0.5
116 7.75749 5.10052 8.60068 0.5
117 0.317155 5.44055 10.6204 0.5
118 11.2688 4.76647 6.75813 0.5
119 9.68456 8.05783 8.68493 0.5
120 6.65278 5.89041 7.53672 0.5
121 2.14101 7.5091 13.3015 0.5
122 6.14661 11.4035 4.57157 0.5
123 10.4944 7.48977 5.14627 0.5
124 9.35311 10.2956 13.1837 0.5
125 9.86714 5.49948 12.4064 0.5
126 6.69699 9.66451 9.91509 0.5
127 8.52366 12.3588 7.65987 0.5
128 12.3584 4.5914 6.49808 0.5
129 6.22322 4.21454 2.60998 0.5
130 4.75025 4.63044 5.05691 0.5
131 1.96924 9.00588 10.653 0.5
132 12.4535 3.26239 8.59484 0.5
133 12.4236 12.4989 8.98882 0.5
134 12.4478 9.91072 3.08621 0.5
135 9.86452 3.70651 12.4262 0.5
136 11.2874 4.45313 8.08825 0.5
137 6.49861 3.07582 13.0861 0.5
138 11.1932 0.650683 2.03726 0.5
139 3.72127 7.69355 2.29209 0.5
140 10.8764 6.09625 12.5386 0.5
141 2.36075 6.70636 11.1079 0.5
142 7.76092 5.37195 3.7091 0.5
143 0.385149 3.7296 1.01393 0.5
144 4.09839 9.04315 7.62733 0.5
145 12.7741 4.29032 9.58328 0.5
146 1.7373 0.598368 3.72379 0.5
147 0.967482 3.17274 8.59721 0.5
148 3.23039 3.6466 3.90994 0.5
149 1.66011 8.2668 4.07721 0.5
150 5.4217 10.49 7.78469 0.5
151 6.17147 2.72171 12.6148 0.5
152 8.5148 9.9089 4.73992 0.5
153 3.0222 7.72468 7.91977 0.5
154 0.741597 3.21283 0.824498 0.5
155 5.50247 11.3807 1.24235 0.5
156 7.30785 0.422785 8.55329 0.5
157 0.700946 0.620362 7.01079 0.5
158 1.14846 6.19764 7.35771 0.5
159 2.0749 3.47453 3.98535 0.5
160 13.2481 12.0932 8.28362 0.5
161 2.31496 6.71546 6.3693 0.5
162 6.14162 3.06746 8.99082 0.5
163 4.36749 12.1032 7.29045 0.5
164 11.2109 9.86422 2.3827 0.5
165 6.93455 2.60347 7.11252 0.5
166 7.87054 10.1381 2.54522 0.5
167 4.57065 1.24256 2.84258 0.5
168 11.9389 9.61512 9.65601 0.5
169 0.834289 4.66421 8.90259 0.5
170 5.32012 2.01723 3.35771 0.5
171 12.7813 7.74251 2.10264 0.5
172 9.13324 4.39746 8.67407 0.5
173 8.43814 3.33111 12.9691 0.5
174 8.13199 12.6495 0.977503 0.5
175 6.96689 3.58469 0.0971282 0.5
176 8.03056 10.8656 5.15238 0.5
177 0.551427 4.39002 9.50312 0.5
178 3.31684 5.75076 9.92076 0.5
179 12.1544 6.36443 7.30779 0.5
180 7.423 9.62705 1.6148 0.5
181 5.86395 5.04842 2.73761 0.5
182 13.1271 4.40407 3.82885 0.5
183 1.98761 9.40727 9.0654 0.5
184 1.60955 8.81176 11.8341 0.5
185 12.3023 5.41863 5.85692 0.5
186 8.01975 6.48835 8.36503 0.5
187 2.94348 0.269442 6.07556 0.5
188 5.30251 2.5992 11.0484 0.5
189 7.2473 1.20107 10.9053 0.5
190 11.7889 10.7125 8.41938 0.5
191 11.9572 11.4285 6.4482 0.5
192 11.0109 4.95084 10.2662 0.5
193 8.77809 0.877654 5.74992 0.5
194 9.51075 4.14283 2.95462 0.5
195 10.6154 1.74364 2.52939 0.5
196 2.40847 9.86626 9.31278 0.5
197 0.547813 6.55477 10.8577 0.5
198 12.6392 7.24485 4.82424 0.5
199 7.45818 12.6092 12.8186 0.5
200 5.04139 11.5745 4.73694 0.5
201 5.47059 4.24461 7.00224 0.5
202 0.274584 12.0023 2.42852 0.5
203 8.63351 8.32024 8.42932 0.5
204 11.4369 2.79164 5.62248 0.5
205 0.58954 2.97647 12.7784 0.5
206 0.465594 4.35409 0.209515 0.5
207 6.98121 12.8327 13.2583 0.5
208 1.87819 4.71306 7.6582 0.5
209 8.07324 9.53771 6.47024 0.5
210 6.94847 1.68309 3.00534 0.5
211 4.31629 8.99138 11.9911 0.5
212 5.66405 11.5652 12.9839 0.5
213 7.12274 9.50308 6.77632 0.5
214 7.85199 5.46545 0.55449 0.5
215 10.8447 5.08325 1.34065 0.5
216 10.1204 8.15604 4.96566 0.5
217 1.90222 1.71807 3.37497 0.5
218 3.45987 7.18258 9.26024 0.5
219 10.5894 4.82902 10.4307 0.5
220 10.4343 12.4783 2.61085 0.5
221 10.0611 2.50583 3.87385 0.5
222 2.55973 9.26051 9.52696 0.5
223 4.09505 7.10117 0.589023 0.5
224 0.579443 6.60379 11.2095 0.5
225 7.59686 12.4025 10.5686 0.5
226 0.636518 9.0552 0.619815 0.5
227 2.16906 9.34118 0.0479438 0.5
228 3.94187 6.2792 12.3408 0.5
229 13.5958 10.3795 3.20214 0.5
230 2.17261 4.84896 8.93916 0.5
231 13.395 2.59903 2.0148 0.5
232 8.59755 5.87184 4.71763 0.5
233 6.14459 12.9376 8.83712 0.5
234 9.75628 3.84832 2.10958 0.5
235 10.3302 3.12453 7.91856 0.5
236 2.32134 7.33011 3.40517 0.5
237 11.0534 0.175478 1.4746 0.5
238 0.833973 7.01428 6.15593 0.5
239 1.28001 3.8418 0.406068 0.5
240 9.68748 5.19966 10.4097 0.5
241 9.94331 4.98978 11.2528 0.5
242 12.6977 8.85393 7.2047 0.5
243 10.1907 3.22011 5.46959 0.5
244 4.17635 1.0235 4.34178 0.5
245 9.3127 3.98126 6.53494 0.5
246 12.8247 3.85869 3.60051 0.5
247 8.66499 1.56105 6.8892 0.5
248 6.22793 2.96356 2.27448 0.5
249 6.17035 2.62327 9.38063 0.5
250 9.82342 3.89771 13.1323 0.5
251 1.56618 9.75049 12.2125 0.5
252 13.3268 8.6575 3.1955 0.5
253 1.07009 4.91797 1.67402 0.5
254 6.58087 2.66949 1.10532 0.5
255 4.51255 6.5014 10.9531 0.5
256 7.60732 5.34808 0.774819 0.5
257 12.5045 8.41984 12.2422 0.5
258 5.10168 2.53925 6.26675 0.5
259 12.2037 7.10859 12.7319 0.5
260 3.37654 0.244639 5.23931 0.5
261 7.25641 7.54203 7.07724 0.5
262 2.25639 5.78316 10.5633 0.5
263 3.53117 8.68216 3.08236 0.5
264 11.6009 13.2681 9.48596 0.5
265 3.95099 5.26317 0.183163 0.5
266 9.82628 3.19695 11.8052 0.5
267 5.75948 13.1014 13.3718 0.5
268 0.84844 4.48988 13.3725 0.5
269 9.94064 6.45137 1.10083 0.5
270 10.5486 2.59768 11.3486 0.5
271 5.47016 10.6369 10.847 0.5
272 12.4186 4.67268 12.2309 0.5
273 13.1848 1.85388 7.70056 0.5
274 12.4831 5.53958 9.78242 0.5
275 6.66703 3.22436 12.8126 0.5
276 2.34891 7.07005 5.55361 0.5
277 1.39531 1.71746 5.2843 0.5
278 12.3817 1.49773 3.25072 0.5
279 1.74289 1.98169 3.75892 0.5
280 4.58831 1.66911 0.0315066 0.5
281 5.36695 8.82396 6.7171 0.5
282 3.5345 7.93715 12.8385 0.5
283 9.72206 1.32743 2.63332 0.5
284 12.98 6.72477 1.1027 0.5
285 3.03126 5.62323 6.43188 0.5
286 1.74624 10.7976 2.34165 0.5
287 0.514541 10.8323 4.20122 0.5
288 2.39682 10.9832 6.6004 0.5
289 9.40031 5.80742 1.95534 0.5
290 4.90316 7.06568 4.72869 0.5
291 9.18795 11.4395 9.40775 0.5
292 6.78659 6.94272 13.3635 0.5
293 0.986032 1.97678 13.0305 0.5
294 4.97203 7.56352 5.35469 0.5
295 2.61589 11.4688 6.40032 0.5
296 5.1691 9.59065 6.32644 0.5
297 11.8378 7.41502 9.08083 0.5
298 10.6186 3.07845 7.51139 0.5
299 8.74414 3.77321 9.85133 0.5
300 5.54243 4.31303 4.86051 0.5
301 5.09804 11.2596 8.51259 0.5
302 12.5507 6.57608 7.11136 0.5
303 9.97541 3.17584 11.9914 0.5
304 13.0177 10.376 13.3519 0.5
305 7.09348 0.688268 13.16 0.5
306 12.142 10.5299 10.7532 0.5
307 4.77914 0.432328 4.54566 0.5
308 4.91694 13.2126 6.04978 0.5
309 12.1956 7.39284 13.1928 0.5
310 7.67801 7.23859 3.88972 0.5
311 2.22243 10.1831 7.84075 0.5
312 1.08483 6.80044 9.36859 0.5
313 5.72791 9.08016 8.46943 0.5
314 13.5778 12.1528 8.20097 0.5
315 1.39665 9.35985 0.711945 0.5
316 8.44613 7.39545 0.353716 0.5
317 1.46294 12.3014 0.108047 0.5
318 10.6231 1.34972 0.729123 0.5
319 5.17402 4.36529 5.92326 0.5
320 8.02535 10.3855 12.2159 0.5
321 1.41501 0.202925 3.76603 0.5
322 3.23053 1.07129 7.09066 0.5
323 6.94605 9.97395 4.00069 0.5
324 7.41904 3.74823 5.68385 0.5
325 0.759257 1.94826 4.35472 0.5
326 2.76699 7.16278 9.4898 0.5
327 9.37828 10.3576 0.614694 0.5
328 7.50807 12.0976 4.39678 0.5
329 13.181 7.83666 6.55359 0.5
330 12.0992 13.1585 2.15285 0.5
331 1.29767 5.68618 2.60817 0.5
332 8.85723 4.70213 4.76905 0.5
333 3.91113 10.7452 4.20728 0.5
334 1.61929 9.53366 1.8228 0.5
335 8.39418 1.96536 13.3278 0.5
336 8.93764 2.245 13.3314 0.5
337 6.98442 3.80558 1.17485 0.5
338 1.83623 5.89833 1.33532 0.5
339 12.0115 7.93624 12.1977 0.5
340 0.785106 5.59707 1.1143 0.5
341 5.23638 9.12307 3.53793 0.5
342 4.22742 11.2556 10.7554 0.5
343 4.17917 6.6653 12.5237 0.5
344 8.35593 5.78263 7.15546 0.5
345 4.92285 0.747987 5.79876 0.5
346 0.614101 5.76076 11.6096 0.5
347 6.02368 3.62902 12.6158 0.5
348 5.82907 1.43669 10.2733 0.5
349 0.577947 10.4025 11.2917 0.5
350 6.7646 1.89218 11.1133 0.5
351 2.70929 5.82571 8.28646 0.5
352 13.2673 0.0528772 10.2034 0.5
353 13.0905 3.50861 0.546569 0.5
354 12.9629 1.17654 5.52236 0.5
355 4.85214 7.81931 12.2832 0.5
356 3.27659 2.24176 5.03706 0.5
357 12.1202 0.380313 4.69218 0.5
358 3.53258 0.411071 2.8817 0.5
359 9.38361 8.98029 4.44711 0.5
360 11.3375 6.06751 2.22975 0.5
361 10.5127 2.11136 6.87765 0.5
362 13.0639 11.0696 10.9547 0.5
363 1.54927 2.7464 4.82177 0.5
364 1.8422 7.4253 7.6997 0.5
365 7.50226 5.60505 8.28806 0.5
366 12.7293 3.34032 7.39118 0.5
367 9.53596 9.44569 3.31779 0.5
368 9.25056 5.07726 5.90328 0.5
369 10.171 6.75649 10.6097 0.5
370 12.5457 1.09786 1.31457 0.5
371 11.7673 6.91879 3.57686 0.5
372 3.80004 5.16099 0.711591 0.5
373 7.15526 2.51642 3.42738 0.5
374 9.92024 8.25643 11.2337 0.5
375 13.5607 10.2183 3.38555 0.5
376 9.64594 4.1772 9.86706 0.5
377 4.16274 7.86248 3.30659 0.5
378 7.12156 11.9079 9.15353 0.5
379 2.84727 8.01375 6.14061 0.5
380 4.09963 7.72786 8.03507 0.5
381 11.1996 0.274439 8.33093 0.5
382 9.7745 7.11983 1.79251 0.5
383 0.101458 4.36687 5.81157 0.5
384 6.04735 6.09289 11.2421 0.5
385 5.7557 9.74903 5.28882 0.5
386 8.4453 4.8465 9.92254 0.5
387 1.97899 0.91398 10.8491 0.5
388 1.78543 6.01436 13.1329 0.5
389 3.1007 3.27273 0.604664 0.5
390 4.14877 6.76504 5.0386 0.5
391 5.3149 12.0858 7.16983 0.5
392 10.8352 1.69001 1.44112 0.5
393 0.70504 5.32293 9.02354 0.5
394 6.67254 12.0929 8.07975 0.5
395 5.54243 2.90995 12.9716 0.5
396 12.2469 6.0158 6.57203 0.5
397 11.7673 4.52793 3.16366 0.5
398 7.40065 6.27398 5.76112 0.5
399 10.9813 11.1601 13.1773 0.5
400 9.52102 0.58467 11.6213 0.5
401 1.3211 2.64747 1.36849 0.5
402 3.59621 9.73697 9.36354 0.5
403 1.86991 2.09746 2.74934 0.5
404 7.1787 3.83114 0.556567 0.5
405 6.64508 1.37047 9.39168 0.5
406 3.92647 7.09716 9.05327 0.5
407 3.92135 5.53749 1.64307 0.5
408 6.96667 8.65263 3.18756 0.5
409 9.62899 11.8126 10.2045 0.5
410 1.31724 5.15605 7.37674 0.5
411 5.51564 0.905342 3.41924 0.5
412 6.13202 9.84246 3.44126 0.5
413 12.698 12.8666 8.35631 0.5
414 1.90921 8.88142 7.72173 0.5
415 1.30804 7.33625 5.22581 0.5
416 9.87102 9.06929 1.48984 0.5
417 11.6802 4.19998 7.73604 0.5
418 3.68524 2.47912 8.48044 0.5
419 11.5402 8.74471 6.26954 0.5
420 2.47276 12.1984 6.88391 0.5
421 4.58327 0.247434 6.96427 0.5
422 6.35367 4.59867 4.88886 0.5
423 4.2198 7.08091 12.55 0.5
424 6.57409 0.91311 3.79365 0.5
425 10.5161 12.1629 8.44836 0.5
426 10.6281 10.4266 7.87719 0.5
427 11.4169 4.68135 8.58858 0.5
428 7.20537 4.9159 10.8359 0.5
429 4.75773 9.10989 7.24199 0.5
430 0.70447 0.471601 3.96409 0.5
431 9.4118 9.14791 4.37216 0.5
432 5.92155 3.79877 2.07565 0.5
433 5.51593 2.44214 5.77814 0.5
434 1.20494 11.2631 11.9276 0.5
435 8.57451 7.73577 3.54428 0.5
436 12.9536 5.74662 9.30875 0.5
437 5.94289 5.40258 5.17299 0.5
438 2.72318 1.42324 6.1998 0.5
439 1.90949 12.8153 10.0327 0.5
440 9.6208 6.37813 3.26158 0.5
441 8.11704 1.21676 3.18118 0.5
442 0.199579 4.41856 5.02372 0.5
443 11.6788 7.40514 13.1653 0.5
444 8.59256 1.68698 11.4267 0.5
445 4.94205 0.570717 2.98527 0.5
446 3.28969 8.77635 11.0659 0.5
447 6.94524 11.1115 1.72394 0.5
448 3.04598 10.3925 4.71319 0.5
449 2.55682 13.4533 4.42657 0.5
450 3.53672 1.73371 0.119876 0.5
451 2.88471 3.64326 9.38883 0.5
452 5.69327 10.2748 11.9466 0.5
453 11.4134 5.66426 8.39537 0.5
454 6.82471 2.1559 5.45941 0.5
455 2.18546 5.506 1.67772 0.5
456 7.70791 8.22514 2.34702 0.5
457 11.9753 8.14102 4.95531 0.5
458 3.31333 0.631681 11.4838 0.5
459 2.36395 3.63679 10.9469 0.5
460 8.64286 11.704 9.33185 0.5
461 12.3173 2.70901 9.65509 0.5
462 7.32852 4.7557 8.78455 0.5
463 10.4631 9.36092 11.3023 0.5
464 4.90198 6.89054 11.1703 0.5
465 4.96427 5.45697 2.83018 0.5
466 3.11719 6.14892 10.8824 0.5
467 5.2936 5.27319 12.6218 0.5
468 4.87398 5.55643 8.62873 0.5
469 8.52059 5.66376 0.142356 0.5
470 9.98386 8.05222 8.78976 0.5
471 1.92708 7.74384 2.62309 0.5
472 12.461 2.78409 9.57984 0.5
473 2.94443 13.383 5.23173 0.5
474 9.06196 1.73012 8.23012 0.5
475 0.519398 8.06251 9.54326 0.5
476 10.9344 6.48545 10.4544 0.5
477 12.3372 4.11468 7.03949 0.5
478 10.0989 0.581286 3.5698 0.5
479 2.073 0.00747228 7.31101 0.5
480 10.9811 4.17044 0.45914 0.5
481 4.06128 8.64005 6.18897 0.5
482 3.51375 2.22134 4.31349 0.5
483 6.96369 12.0548 0.876 0.5
484 7.08983 10.3488 6.99957 0.5
485 7.70112 8.31041 1.6568 0.5
486 10.0446 5.98619 11.3779 0.5
487 13.3934 13.0316 12.1931 0.5
488 7.87443 5.74992 10.0225 0.5
489 0.761025 8.44157 12.1814 0.5
490 0.600224 9.30896 2.87615 0.5
491 1.56085 7.22612 4.08045 0.5
492 1.08563 4.48026 3.08684 0.5
493 13.4901 6.50781 4.57863 0.5
494 5.44196 0.508913 13.3027 0.5
495 0.150568 8.30955 9.57111 0.5
496 12.6383 11.8238 5.34063 0.5
497 8.58817 8.0195 13.5472 0.5
498 7.16147 4.05368 2.12233 0.5
499 5.5506 1.89353 1.05443 0.5
500 11.1767 2.72267 2.54527 0.5
501 2.25925 5.78712 9.33975 0.5
502 6.03553 11.6353 6.01511 0.5
503 12.5348 11.9276 1.52203 0.5
504 1.87867 5.66772 6.94881 0.5
505 0.369941 12.355 7.4815 0.5
506 5.42914 1.8038 7.15746 0.5
507 7.8406 2.89825 7.55168 0.5
508 10.8386 10.4098 10.3813 0.5
509 2.49814 6.10948 3.44872 0.5
510 9.79069 11.7634 1.7938 0.5
511 5.27251 2.94377 12.2688 0.5
512 1.36645 5.85061 11.6325 0.5
513 2.73258 9.2052 1.68443 0.5
514 3.37588 9.06717 5.27338 0.5
515 12.8905 6.71103 4.93327 0.5
516 9.65031 11.8798 3.1935 0.5
517 8.02436 3.60096 6.25142 0.5
518 3.61423 8.94385 9.95258 0.5
519 9.22255 6.7852 11.491 0.5
520 9.00348 3.26985 12.9722 0.5
521 9.84115 12.2551 12.674 0.5
522 2.76202 10.8442 8.06449 0.5
523 12.7876 8.57298 3.02441 0.5
524 9.61707 10.9462 2.24299 0.5
525 2.62837 3.27093 5.39253 0.5
526 8.34023 5.49908 0.633829 0.5
527 4.3644 10.6092 10.8022 0.5
528 2.87506 11.0489 9.76495 0.5
529 3.66341 11.5817 3.18295 0.5
530 12.1812 7.06938 9.95688 0.5
531 6.96285 3.49649 0.624347 0.5
532 12.7908 1.51521 9.50691 0.5
533 7.09111 2.67014 0.185357 0.5
534 4.01527 0.51171 7.15736 0.5
535 9.84225 13.213 5.19473 0.5
536 7.53393 0.4073 8.91249 0.5
537 10.5686 4.28316 2.68704 0.5
538 3.47314 9.358 6.86855 0.5
539 7.20082 10.1971 2.02481 0.5
540 3.731 2.53337 13.0248 0.5
541 4.6742 1.53554 8.14545 0.5
542 1.97005 0.563752 7.11673 0.5
543 3.66268 2.14378 9.11318 0.5
544 3.59654 7.56727 5.27046 0.5
545 6.50701 6.98947 7.96847 0.5
546 10.9328 9.42906 2.64531 0.5
547 9.34316 2.66984 5.24768 0.5
548 11.4367 0.465735 13.0584 0.5
549 6.9489 6.07625 5.00064 0.5
550 8.38347 12.7175 11.8523 0.5
551 11.8854 10.7287 2.24677 0.5
552 5.24904 2.94352 12.888 0.5
553 0.0757416 1.85827 10.6198 0.5
554 4.17983 8.38104 0.203159 0.5
555 1.35202 10.5005 5.95539 0.5
556 10.9191 10.8957 10.0328 0.5
557 13.4379 5.01685 13.4005 0.5
558 1.78108 1.53628 5.79912 0.5
559 6.83738 9.70035 12.9395 0.5
560 8.38125 7.92505 9.81547 0.5
561 10.0214 11.0212 3.55139 0.5
562 5.57217 4.54048 12.2991 0.5
563 5.4128 6.6281 2.16911 0.5
564 3.9335 6.38391 6.22988 0.5
565 7.06646 1.8171 8.28176 0.5
566 2.03784 3.80989 12.9755 0.5
567 1.56068 13.2462 4.85221 0.5
568 0.40447 8.99114 1.44653 0.5
569 10.8398 4.31678 7.22496 0.5
570 4.64172 9.49247 0.590488 0.5
571 6.17476 12.8718 7.5961 0.5
572 12.7825 8.43248 8.26062 0.5
573 9.9449 8.84953 4.56168 0.5
574 2.44492 3.68326 1.30703 0.5
575 7.11898 5.62155 0.491436 0.5
576 12.6403 12.7897 8.02457 0.5
577 6.15856 12.3859 4.26646 0.5
578 1.85723 6.27732 11.149 0.5
579 9.46849 10.5417 0.496569 0.5
580 11.218 0.35878 9.11632 0.5
581 10.7794 2.91292 6.00125 0.5
582 2.21216 11.3903 13.4725 0.5
583 12.5042 3.36523 9.11719 0.5
584 12.0335 5.38677 0.462156 0.5
585 8.86904 3.12196 5.23349 0.5
586 6.28125 13.1512 5.55866 0.5
587 6.50657 9.53834 4.63395 0.5
588 11.0998 12.7087 8.24651 0.5
589 12.5159 12.29 11.5304 0.5
590 9.77857 12.0043 10.6085 0.5
591 11.6124 9.14831 4.8082 0.5
592 6.66772 2.02829 2.11221 0.5
593 9.61519 2.48201 2.08163 0.5
594 11.9205 6.9894 3.07698 0.5
595 11.1821 0.952622 1.89284 0.5
596 0.352103 4.36039 13.3726 0.5
597 0.756431 4.03599 3.89832 0.5
598 7.03998 3.03764 4.59063 0.5
599 9.56077 7.9703 4.55937 0.5
600 10.0368 5.01998 9.92256 0.5
601 2.83568 10.5316 0.43624 0.5
602 11.9688 7.9633 9.08822 0.5
603 0.779027 3.48988 4.74603 0.5
604 0.923052 12.1765 4.43983 0.5
605 2.62948 10.2725 9.73206 0.5
606 0.33157 2.42868 0.255989 0.5
607 10.0549 0.270849 0.682864 0.5
608 4.35968 7.71139 12.5083 0.5
609 12.0446 1.97599 12.1473 0.5
610 7.12544 10.7864 2.46061 0.5
611 9.93951 4.75438 6.23341 0.5
612 12.1838 1.88721 1.9281 0.5
613 5.98189 7.68536 0.913495 0.5
614 6.15967 6.26943 3.89588 0.5
615 2.12383 9.58456 4.30644 0.5
616 10.5669 8.29575 8.37451 0.5
617 0.659716 7.24386 9.54179 0.5
618 5.47283 10.3303 4.32587 0.5
619 11.7794 -0.0100908 12.5636 0.5
620 1.83295 11.7568 0.445582 0.5
621 5.12021 4.60003 11.8442 0.5
622 4.67109 11.6337 4.27722 0.5
623 10.3225 6.0602 1.73851 0.5
624 7.69477 12.3242 11.8757 0.5
625 5.73412 1.0702 8.0048 0.5
626 9.94352 2.64196 13.3686 0.5
627 9.36355 1.88004 10.0783 0.5
628 4.99141 4.50228 10.1657 0.5
629 6.57436 10.2907 1.06577 0.5
630 7.9801 7.03978 10.2036 0.5
631 9.5899 4.90697 0.340037 0.5
632 7.1135 5.17758 2.05091 0.5
633 6.01685 6.96621 6.38683 0.5
634 3.32094 9.53231 6.5618 0.5
635 8.57786 6.17686 6.28759 0.5
636 10.0692 5.20647 3.58949 0.5
637 1.50381 12.8076 5.22062 0.5
638 5.22291 8.32271 5.99823 0.5
639 12.7832 0.0409193 1.32762 0.5
640 4.89683 6.39624 6.23912 0.5
641 7.04579 4.39656 2.2742 0.5
642 10.6472 12.9384 11.7198 0.5
643 3.81497 12.5141 9.43388 0.5
644 10.0779 8.42241 8.91697 0.5
645 3.91579 12.1649 2.24513 0.5
646 10.0892 0.52566 10.7423 0.5
647 11.615 10.4533 13.3834 0.5
648 13.3723 13.3514 2.04263 0.5
649 0.464254 0.873356 9.88348 0.5
650 3.36603 5.58179 9.0018 0.5
651 3.5385 9.80898 5.94954 0.5
652 4.04357 10.8647 3.67276 0.5
653 3.41541 10.7999 10.7211 0.5
654 4.46686 10.9924 12.0606 0.5
655 9.13314 3.12354 6.91222 0.5
656 6.16836 5.42849 1.36121 0.5
657 1.7528 13.0106 11.206 0.5
658 5.77346 4.08864 2.09862 0.5
659 5.59695 11.7711 3.75438 0.5
660 6.03051 8.47793 10.8698 0.5
661 3.91175 0.0232206 9.65636 0.5
662 0.838473 8.36913 0.686201 0.5
663 0.916715 8.78093 4.81308 0.5
664 2.01832 2.4096 9.7247 0.5
665 5.11604 12.8484 1.48564 0.5
666 0.471437 2.10496 9.05803 0.5
667 8.92992 3.8903 7.30417 0.5
668 3.93898 5.99564 2.89472 0.5
669 1.00371 3.62805 11.9908 0.5
670 12.1282 5.51089 0.189448 0.5
671 4.61371 11.0849 10.4535 0.5
672 10.6928 7.80156 1.48011 0.5
673 4.99811 3.90988 1.74708 0.5
674 2.91932 8.41909 8.68399 0.5
675 12.2359 2.47492 11.4856 0.5
676 1.06916 5.86456 6.62497 0.5
677 3.15562 7.72648 4.33044 0.5
678 9.39455 9.54774 3.97948 0.5
679 2.61937 7.69677 8.22572 0.5
680 9.18211 11.3232 11.5273 0.5
681 1.75871 1.90143 13.3257 0.5
682 11.5947 12.8708 7.24606 0.5
683 3.92735 3.56855 12.6541 0.5
684 0.483418 1.26468 6.99897 0.5
685 4.89766 6.16371 1.00688 0.5
686 1.12944 1.77545 4.51744 0.5
687 5.80272 10.3023 0.712981 0.5
688 1.14171 1.22824 4.63099 0.5
689 4.23026 1.58183 7.40249 0.5
690 5.04684 5.66422 5.79427 0.5
691 12.3891 10.146 0.991212 0.5
692 5.94488 1.52629 9.20452 0.5
693 8.4839 1.62092 3.70764 0.5
694 1.19248 12.8364 4.4391 0.5
695 9.75885 5.54298 6.27164 0.5
696 5.18083 12.6947 1.47897 0.5
697 2.18146 1.28739 11.0421 0.5
698 5.50794 7.7432 0.860736 0.5
699 11.2588 5.48441 7.57178 0.5
700 7.21789 10.6004 8.00169 0.5
701 13.5113 10.2247 12.9758 0.5
702 4.85856 0.427568 5.19441 0.5
703 12.2964 2.82723 2.37486 0.5
704 1.69517 0.0825134 9.76768 0.5
705 10.5758 2.01893 4.36844 0.5
706 7.88004 2.01078 9.22188 0.5
707 8.11106 8.23993 0.763501 0.5
708 1.09005 6.27206 4.57386 0.5
709 6.1706 2.19589 13.178 0.5
710 6.76475 11.0221 0.748402 0.5
711 9.27268 7.69969 10.7708 0.5
712 10.5809 6.68724 5.07521 0.5
713 11.6718 5.12785 11.4577 0.5
714 12.6937 12.4488 7.67225 0.5
715 4.94965 4.99901 5.91645 0.5
716 1.21787 4.48511 7.91435 0.5
717 1.36459 1.06257 3.84297 0.5
718 5.5094 10.334 11.2272 0.5
719 5.81982 9.53105 1.24534 0.5
720 4.0659 6.93809 0.4591 0.5
721 12.2486 10.5549 10.3869 0.5
722 12.5589 0.293607 12.1008 0.5
723 7.70639 13.2247 1.23206 0.5
724 11.7975 9.02662 1.86974 0.5
725 5.49535 10.9923 0.868551 0.5
726 1.14389 12.6089 2.12602 0.5
727 1.10348 12.4637 5.01323 0.5
728 10.0758 10.083 2.61055 0.5
729 1.55242 10.9931 1.73406 0.5
730 3.04164 3.56915 7.55177 0.5
731 2.17678 10.3177 6.87213 0.5
732 11.7362 11.6801 11.0258 0.5
733 7.5777 7.00337 5.07006 0.5
734 7.90903 2.23514 9.69179 0.5
735 4.11444 9.61423 6.18084 0.5
736 3.74335 5.27236 10.0881 0.5
737 8.49861 4.27685 7.01746 0.5
738 0.777293 5.37302 4.15195 0.5
739 3.32818 12.9591 3.49349 0.5
740 3.86717 6.26304 3.0139 0.5
741 13.1249 12.0246 5.83127 0.5
742 3.9718 6.82471 10.9633 0.5
743 7.01917 8.43098 9.24948 0.5
744 11.9733 6.22817 12.4861 0.5
745 11.7086 10.272 0.239267 0.5
746 10.4288 8.67087 12.9021 0.5
747 1.36548 2.00523 6.16005 0.5
748 6.87162 6.69627 12.5038 0.5
749 7.87551 11.4914 2.42061 0.5
750 0.978324 9.9124 6.79738 0.5
751 2.23971 6.52574 10.7376 0.5
752 10.6122 6.80268 11.448 0.5
753 7.69719 11.7907 11.322 0.5
754 5.16441 5.44318 7.01152 0.5
755 2.49078 10.7003 12.9788 0.5
756 3.41775 2.26586 1.35944 0.5
757 9.89221 11.3088 0.868865 0.5
758 3.51066 1.55732 7.09385 0.5
759 11.4791 3.69724 3.74578 0.5
760 13.55 3.80734 9.97555 0.5
761 0.419807 4.76917 12.2482 0.5
762 10.8397 6.73231 9.36836 0.5
763 0.228443 5.52326 11.4614 0.5
764 5.55623 13.1667 4.56508 0.5
765 11.0905 13.0558 3.13233 0.5
766 13.565 11.118 6.6888 0.5
767 9.85622 12.1195 2.11759 0.5
768 13.257 7.2184 3.56871 0.5
769 0.949803 2.96046 12.0052 0.5
770 11.4986 2.40179 8.11667 0.5
771 9.68714 8.87542 10.1624 0.5
772 5.92052 3.4351 11.5176 0.5
773 3.44655 13.3091 12.9321 0.5
774 0.626507 10.7383 10.9888 0.5
775 6.29649 11.7768 5.55593 0.5
776 2.176 13.1768 5.41442 0.5
777 0.726161 7.39365 12.6817 0.5
778 1.98717 1.13996 12.1837 0.5
779 4.09763 0.280143 13.5415 0.5
780 1.79607 7.2479 6.65863 0.5
781 1.53311 7.40398 12.2745 0.5
782 11.8537 7.76793 5.97709 0.5
783 9.39863 9.73079 0.678771 0.5
784 11.3298 10.8188 3.59636 0.5
785 12.9229 4.71074 13.4013 0.5
786 8.7742 10.1452 7.22637 0.5
787 10.9162 6.78787 0.101871 0.5
788 12.1414 12.4561 10.1347 0.5
789 10.0792 11.6159 5.85838 0.5
790 4.51374 8.40156 9.81714 0.5
791 12.055 12.0236 12.6519 0.5
792 9.95129 2.02724 11.5636 0.5
793 9.71312 11.308 1.53315 0.5
794 0.858921 7.34613 8.60252 0.5
795 10.7922 0.857013 4.31606 0.5
796 8.08249 7.09311 13.0826 0.5
797 8.28299 11.9508 5.35176 0.5
798 8.65118 8.289 6.69082 0.5
799 8.95889 7.62012 8.64947 0.5
800 8.06051 1.67023 10.2394 0.5
801 13.4403 9.43396 12.6174 0.5
802 3.77387 9.84063 4.26966 0.5
803 4.87017 10.7136 1.28461 0.5
804 4.38854 9.19592 3.10974 0.5
805 12.9143 11.7742 0.408259 0.5
806 13.2802 5.75666 3.31525 0.5
807 10.0049 6.25825 4.37145 0.5
808 11.379 7.98732 9.77253 0.5
809 2.80368 11.2301 8.2703 0.5
810 7.44019 11.1438 3.5185 0.5
811 1.41414 4.60944 4.48358 0.5
812 11.0438 4.26962 10.116 0.5
813 5.00522 8.26324 0.493492 0.5
814 12.1277 7.08442 9.89061 0.5
815 0.158291 13.0454 9.02126 0.5
816 10.0827 11.3395 10.4815 0.5
817 3.27096 2.41137 5.35051 0.5
818 10.3068 4.488 3.68245 0.5
819 2.17473 3.12244 6.58729 0.5
820 10.095 7.38818 6.01179 0.5
821 11.4981 7.58625 11.8675 0.5
822 3.74022 0.106913 3.18745 0.5
823 8.48107 10.6726 8.82403 0.5
824 3.22883 7.08023 8.09156 0.5
825 7.93997 1.93681 8.52865 0.5
826 7.89951 0.136369 4.71132 0.5
827 3.11937 8.75411 4.53159 0.5
828 10.5529 9.78096 4.98657 0.5
829 8.3853 10.6704 7.25948 0.5
830 2.32486 6.44564 1.9879 0.5
831 1.17647 4.98143 9.80698 0.5
832 6.50493 7.95843 10.6792 0.5
833 4.6605 3.21884 12.5296 0.5
834 10.2131 11.811 4.06728 0.5
835 3.7955 12.7686 0.983711 0.5
836 9.52993 9.90883 11.9502 0.5
837 2.02322 13.3834 2.12723 0.5
838 8.94607 5.43631 8.60733 0.5
839 3.57126 2.14372 8.21328 0.5
840 3.54084 8.95745 3.13315 0.5
841 3.10055 7.42214 9.94965 0.5
842 3.39572 8.03367 4.84714 0.5
843 3.04078 6.62158 9.14859 0.5
844 10.4253 10.5507 0.440155 0.5
845 1.24731 2.07466 9.58238 0.5
846 0.916674 12.734 6.26253 0.5
847 1.88786 7.20248 13.0968 0.5
848 3.10728 0.744604 2.23461 0.5
849 9.73956 4.9809 10.4619 0.5
850 3.15909 7.98116 1.97156 0.5
851 1.13127 11.7428 1.0135 0.5
852 12.5706 11.0239 2.11385 0.5
853 6.41364 10.7998 3.34278 0.5
854 11.8059 0.0103924 11.5946 0.5
855 10.0447 12.2701 5.48769 0.5
856 8.87572 2.16338 5.01268 0.5
857 9.54421 7.74473 4.42188 0.5
858 9.50896 12.531 4.88043 0.5
859 6.37466 1.0775 4.67812 0.5
860 12.6893 12.8926 7.22566 0.5
861 5.38357 11.3111 2.61853 0.5
862 10.6511 12.1537 4.59796 0.5
863 7.48587 10.8074 12.3622 0.5
864 3.33026 9.46605 1.17901 0.5
865 9.75118 7.37474 4.56558 0.5
866 2.45229 4.47294 8.76055 0.5
867 9.22368 8.6237 3.61828 0.5
868 7.27434 13.1032 11.4005 0.5
869 8.77304 4.24852 4.46495 0.5
870 1.14683 4.59362 12.7168 0.5
871 12.717 3.16485 1.46614 0.5
872 8.34298 12.9522 2.91113 0.5
873 5.95629 9.92781 6.96336 0.5
874 1.69859 13.1279 3.5497 0.5
875 13.327 4.50177 11.7564 0.5
876 7.0545 10.3417 3.93534 0.5
877 3.78012 5.71197 9.23584 0.5
878 12.6244 2.80815 0.280248 0.5
879 12.4403 0.804785 11.9341 0.5
880 7.40207 1.79146 7.20851 0.5
881 4.03126 8.80028 9.80719 0.5
882 12.0714 9.38045 3.80234 0.5
883 2.80695 6.16987 6.34715 0.5
884 11.6586 5.66196 8.92457 0.5
885 12.4555 3.3325 9.53458 0.5
886 5.69565 5.38893 1.30266 0.5
887 2.84809 9.27529 8.49936 0.5
888 5.58961 3.54522 11.6566 0.5
889 12.2954 10.4187 8.23255 0.5
890 1.52815 11.8331 13.4887 0.5
891 2.98883 -0.008742 11.1523 0.5
892 8.79105 10.1191 4.33716 0.5
893 2.92431 8.60421 12.7091 0.5
894 2.68899 8.16625 7.83291 0.5
895 3.08989 4.21083 0.579477 0.5
896 0.813 4.97712 4.57683 0.5
897 4.00725 13.2298 8.32352 0.5
898 9.26166 10.5109 4.19162 0.5
899 10.645 13.4079 0.898699 0.5
900 6.68333 11.4437 5.1234 0.5
901 3.03822 1.08125 5.58916 0.5
902 8.03693 2.81937 6.85348 0.5
903 3.20436 8.85495 12.8143 0.5
904 1.39696 12.1971 5.80485 0.5
905 4.22477 4.70178 10.1552 0.5
906 5.36338 8.13859 10.666 0.5
907 5.66092 5.94708 6.79431 0.5
908 6.66187 5.16726 0.276724 0.5
909 0.378731 7.75884 8.94397 0.5
910 11.6556 2.16345 11.0465 0.5
911 0.084731 10.6002 3.92282 0.5
912 12.797 7.17186 0.675669 0.5
913 3.25227 4.04282 9.93014 0.5
914 4.20721 6.8333 4.78764 0.5
915 10.4387 10.3503 10.3066 0.5
916 1.02501 10.5899 4.92918 0.5
917 10.6262 1.20044 6.09745 0.5
918 9.39056 4.09678 0.0103598 0.5
919 4.29417 6.46633 12.3538 0.5
920 13.0489 8.73529 5.24165 0.5
921 5.44042 2.98281 12.5655 0.5
922 9.51125 5.12263 3.20277 0.5
923 8.20707 1.89592 0.992116 0.5
924 2.90267 3.89062 5.10138 0.5
925 4.87084 12.8872 2.1195 0.5
926 10.1843 1.71477 4.23453 0.5
927 7.96247 9.33857 1.81426 0.5
928 2.09638 0.27253 10.6957 0.5
929 4.61161 1.20552 12.5146 0.5
930 1.49588 0.943385 7.26658 0.5
931 9.93285 6.78421 13.1297 0.5
932 3.26738 1.01687 2.77272 0.5