ITEM: TIMESTEP
40000
ITEM: NUMBER OF ATOMS
1000
ITEM: BOX BOUNDS xy xz yz pp pp pp
0.0000000000000000e+00 1.3572088000000001e+01 0.0000000000000000e+00
0.0000000000000000e+00 1.3572088000000001e+01 0.0000000000000000e+00
0.0000000000000000e+00 1.3572088000000001e+01 0.0000000000000000e+00
ITEM: ATOMS id x y z radius
1 9.69097 2.4849 7.06569 0.5
2 5.89456 13.1133 3.3915 0.5
3 5.30101 7.14135 0.217127 0.5
4 1.30987 1.1711 8.74914 0.5
5 7.81554 3.94681 4.99648 0.5
6 0.817473 7.90853 4.21907 0.5
7 10.4319 8.91693 4.32234 0.5
8 8.29674 10.9 6.01355 0.5
9 12.7363 6.95016 0.618657 0.5
10 7.00231 11.1852 0.855467 0.5
11 11.9082 3.07978 1.04959 0.5
12 13.3492 7.36433 8.51475 0.5
13 7.77826 2.7034 8.00417 0.5
14 11.5414 12.4232 0.223485 0.5
15 5.7173 9.68758 8.36724 0.5
16 3.83245 3.76922 10.1277 0.5
17 4.49745 5.72504 12.8376 0.5
18 10.4463 5.21432 1.84245 0.5
19 12.8932 9.56843 8.67421 0.5
20 2.14136 8.28068 12.1372 0.5
21 7.45444 7.14288 2.02488 0.5
22 2.92464 2.53807 8.82485 0.5
23 11.4956 4.86476 0.652768 0.5
24 0.119334 7.9662 8.31012 0.5
25 1.01961 0.596212 4.8021 0.5
26 4.96098 3.3646 7.40066 0.5
27 1.14737 9.10278 7.19065 0.5
28 12.4995 2.2739 8.7029 0.5
29 13.3479 11.0907 12.5771 0.5
30 11.6817 7.38621 10.9743 0.5
31 4.01494 11.6346 4.261 0.5
32 3.52734 13.368 11.9454 0.5
33 8.07681 7.76832 4.82617 0.5
34 3.43521 0.37384 10.9596 0.5
35 1.65567 12.352 4.12875 0.5
36 13.3324 5.55855 8.10143 0.5
37 12.9904 10.5756 2.43744 0.5
38 13.4851 5.30716 8.15371 0.5
39 8.93253 6.1616 5.26637 0.5
40 2.95732 5.32778 5.66444 0.5
41 5.87879 0.175072 7.23674 0.5
42 9.27365 0.0449999 10.2119 0.5
43 2.43928 6.50078 5.85119 0.5
44 7.20938 11.9047 7.2357 0.5
45 10.9514 6.94754 7.89499 0.5
46 8.93093 12.0612 8.93665 0.5
47 7.11121 11.7487 2.29455 0.5
48 1.06762 5.35132 11.6187 0.5
49 2.63331 9.58772 0.393495 0.5
50 7.2139 9.09957 5.45009 0.5
51 12.091 6.9296 8.28578 0.5
52 11.0663 13.1038 13.0228 0.5
53 0.826662 9.10171 13.3714 0.5
54 7.55679 5.14129 5.30764 0.5
55 7.72849 10.6923 0.267855 0.5
56 5.35854 3.12024 1.51209 0.5
57 4.9228 13.4498 3.39693 0.5
58 7.85671 6.5315 10.7691 0.5
59 8.93623 6.34553 6.47817 0.5
60 12.4482 13.2673 2.21754 0.5
61 1.20854 3.90719 1.80513 0.5
62 1.91146 10.6171 0.884637 0.5
63 11.6112 8.63316 10.8323 0.5
64 4.68066 10.1259 11.7549 0.5
65 5.35501 9.97169 8.65661 0.5
66 12.6553 12.3159 2.31178 0.5
67 12.7135 11.5153 9.35694 0.5
68 4.51966 12.547 1.05597 0.5
69 13.1094 1.17509 9.0798 0.5
70 11.2606 12.7658 11.4676 0.5
71 8.73454 11.0883 3.42302 0.5
72 7.06593 5.3825 1.77302 0.5
73 5.64778 8.13464 1.80957 0.5
74 4.88315 2.35863 7.80738 0.5
75 9.08401 6.03483 11.3012 0.5
76 6.71588 2.52618 7.3908 0.5
77 1.27194 2.4502 3.60258 0.5
78 0.417092 10.3444 10.2819 0.5
79 7.41679 8.70159 9.09543 0.5
80 4.80847 0.738482 8.63537 0.5
81 8.37219 12.4644 0.89957 0.5
82 10.707 7.94856 12.1614 0.5
83 9.4105 0.423676 0.7371 0.5
84 1.93473 7.77148 3.50329 0.5
85 1.32003 2.66264 12.7667 0.5
86 0.695869 8.3534 7.6754 0.5
87 3.38885 1.67968 7.14467 0.5
88 7.8669 0.487094 2.31555 0.5
89 10.038 5.70572 8.6271 0.5
90 2.67141 1.36283 5.55391 0.5
91 10.8 5.23007 6.79067 0.5
92 0.601975 11.0846 2.25667 0.5
93 4.15673 10.9089 10.2125 0.5
94 0.349723 8.88698 12.696 0.5
95 9.97665 8.479 2.32686 0.5
96 6.5582 8.21653 11.4239 0.5
97 0.323842 3.13157 3.23894 0.5
98 6.48501 6.89358 9.13214 0.5
99 4.97496 8.50838 5.26678 0.5
100 4.58159 5.59065 7.1464 0.5
101 8.21304 9.54347 13.5405 0.5
102 12.1012 12.4425 11.4783 0.5
103 2.0392 4.38861 3.91345 0.5
104 5.90637 8.36637 4.03006 0.5
105 0.734629 11.8817 10.5366 0.5
106 4.86843 13.1439 5.39509 0.5
107 13.2231 12.1717 3.45503 0.5
108 10.263 13.4613 0.554682 0.5
109 10.7182 4.17341 2.16396 0.5
110 8.53137 5.23579 9.97798 0.5
111 0.776705 10.2945 8.6142 0.5
112 0.970273 2.96087 1.06294 0.5
113 7.39056 1.74349 11.13 0.5
114 2.98913 5.60067 6.64724 0.5
115 3.7532 0.0742589 11.963 0.5
116 5.581 2.45016 3.02551 0.5
117 0.694274 5.28479 9.10393 0.5
118 0.751917 6.46857 3.4784 0.5
119 12.9708 7.37577 4.23766 0.5
120 7.66052 3.96753 3.13159 0.5
121 9.31249 3.45408 11.8467 0.5
122 10.3107 6.24864 2.89422 0.5
123 3.14752 12.0793 10.7439 0.5
124 12.2787 3.20658 5.20729 0.5
125 12.391 12.725 11.2383 0.5
126 7.10232 10.0498 7.86975 0.5
127 7.10034 1.86508 0.665014 0.5
128 3.13756 1.28016 2.8391 0.5
129 12.1572 0.460991 3.43984 0.5
130 3.4015 3.63337 7.27585 0.5
131 12.7928 9.19189 8.80773 0.5
132 3.35192 4.32691 2.39487 0.5
133 5.8892 1.39497 10.0222 0.5
134 11.0823 9.19696 4.07682 0.5
135 10.1415 8.04944 1.74462 0.5
136 11.7873 6.00117 12.9836 0.5
137 13.4723 7.84839 5.08281 0.5
138 12.1967 0.644923 1.94788 0.5
139 3.94234 12.1063 0.921786 0.5
140 11.5018 2.60956 5.62882 0.5
141 10.767 10.824 4.79145 0.5
142 12.7915 3.39703 3.2756 0.5
143 1.85311 11.8893 10.1568 0.5
144 1.67474 6.58327 6.03434 0.5
145 5.42044 5.069 9.77896 0.5
146 1.76903 12.4169 13.1558 0.5
147 4.26024 5.35229 10.6848 0.5
148 1.03285 4.98777 11.1242 0.5
149 6.79741 7.72143 1.88548 0.5
150 6.31577 8.47236 0.104467 0.5
151 4.5881 0.292341 10.3753 0.5
152 0.284996 2.70176 5.82537 0.5
153 1.9574 12.9874 2.38926 0.5
154 11.4934 4.79612 6.51238 0.5
155 8.68248 10.9204 12.0649 0.5
156 7.9563 6.93047 2.78483 0.5
157 12.444 12.4441 1.17079 0.5
158 0.191839 0.503905 8.23531 0.5
159 7.53733 2.75759 6.62597 0.5
160 10.1558 5.09053 9.71517 0.5
161 12.5546 11.6161 5.53851 0.5
162 6.47267 4.33957 0.79367 0.5
163 2.4412 9.19128 3.36412 0.5
164 10.8407 5.7541 1.38486 0.5
165 12.7866 6.74994 1.2941 0.5
166 0.29863 4.53154 9.05743 0.5
167 4.95883 5.79617 6.2933 0.5
168 10.6996 1.65105 9.2347 0.5
169 10.5166 11.1316 7.43833 0.5
170 1.26318 8.71796 5.30002 0.5
171 6.30875 6.79085 0.641412 0.5
172 2.00594 9.11718 8.30204 0.5
173 9.06041 1.61246 2.41977 0.5
174 11.9361 8.35392 6.65878 0.5
175 12.5614 8.78621 11.3684 0.5
176 0.890574 11.3292 8.49814 0.5
177 9.40282 2.29995 6.48165 0.5
178 6.83384 7.46765 5.79817 0.5
179 4.87197 12.102 4.68171 0.5
180 1.67881 7.86561 10.8164 0.5
181 7.7891 3.70439 2.4088 0.5
182 8.73984 1.27942 7.24797 0.5
183 2.71315 7.51406 9.27038 0.5
184 11.4159 10.0624 1.45158 0.5
185 9.00957 4.965 8.49114 0.5
186 10.6581 9.31316 1.45142 0.5
187 9.77011 6.58202 11.0962 0.5
188 5.10427 7.73428 2.48541 0.5
189 2.39917 9.45345 6.924 0.5
190 12.8939 5.91834 4.32844 0.5
191 12.2038 7.06301 3.6099 0.5
192 12.2976 4.72053 5.0117 0.5
193 11.963 13.0893 13.2433 0.5
194 5.65345 0.883623 6.85363 0.5
195 6.94272 12.5424 12.8357 0.5
196 2.47546 7.84334 3.42073 0.5
197 4.30771 7.97597 0.557549 0.5
198 8.55095 3.27747 13.3151 0.5
199 13.3039 13.0615 3.35729 0.5
200 1.1299 9.75952 12.1599 0.5
201 13.0037 5.78799 1.99687 0.5
202 5.53733 1.83686 10.978 0.5
203 13.1863 3.44724 7.54306 0.5
204 12.9287 2.74693 5.02382 0.5
205 2.98494 8.58377 6.46003 0.5
206 6.70766 13.0108 2.05947 0.5
207 2.69604 13.4954 0.582137 0.5
208 7.95045 1.80652 6.79803 0.5
209 1.02544 13.5276 11.8068 0.5
210 1.73398 0.0356836 0.972837 0.5
211 11.4724 3.78245 13.332 0.5
212 5.78897 4.25767 12.4978 0.5
213 0.851768 9.0791 3.52712 0.5
214 3.72347 12.4506 7.47059 0.5
215 2.44736 13.4133 7.11314 0.5
216 4.47654 12.7235 0.523075 0.5
217 10.1429 0.626788 11.9992 0.5
218 13.4263 10.0115 0.921461 0.5
219 0.0840594 12.6997 9.40027 0.5
220 5.06036 11.6087 3.43134 0.5
221 3.60828 5.80048 5.77061 0.5
222 0.555269 6.56795 8.63597 0.5
223 5.10049 0.384252 0.426914 0.5
224 13.1697 8.24004 5.84401 0.5
225 12.5904 1.20738 9.00835 0.5
226 7.35787 3.07538 6.9114 0.5
227 13.4118 7.61661 10.4804 0.5
228 8.68144 4.04692 6.45496 0.5
229 12.6712 8.79523 9.77256 0.5
230 6.11113 5.44205 9.4494 0.5
231 1.26704 7.30228 10.3921 0.5
232 11.3986 0.504569 10.409 0.5
233 11.7918 1.75502 3.89286 0.5
234 6.47983 8.01411 5.09849 0.5
235 10.3692 9.11958 11.615 0.5
236 3.62501 8.75267 12.3955 0.5
237 8.36021 12.1163 13.5108 0.5
238 12.4984 12.8656 1.31347 0.5
239 13.4479 7.74039 1.72715 0.5
240 3.57232 5.87372 8.03135 0.5
241 8.83364 12.4387 1.38865 0.5
242 7.42283 9.49031 9.09492 0.5
243 1.32981 5.87032 10.7501 0.5
244 8.80382 1.16472 2.71414 0.5
245 8.81554 10.8416 6.61247 0.5
246 8.28305 8.73895 12.0221 0.5
247 13.5219 9.50025 9.39528 0.5
248 11.0146 8.8867 1.62524 0.5
249 13.5185 1.249 6.53118 0.5
250 6.19428 7.91955 11.6176 0.5
251 10.2225 8.25253 8.64228 0.5
252 9.36818 5.51821 1.74398 0.5
253 0.236876 9.46942 12.4622 0.5
254 10.2345 2.52867 5.68721 0.5
255 3.48751 2.66325 8.48643 0.5
256 4.06821 10.5903 7.30188 0.5
257 13.3441 13.071 1.81165 0.5
258 4.56662 5.83384 5.16114 0.5
259 12.8119 7.77134 9.44072 0.5
260 7.27279 3.78828 12.353 0.5
261 6.94344 7.86677 1.92068 0.5
262 4.52664 12.2827 3.35092 0.5
263 2.87867 11.832 1.55499 0.5
264 4.783 2.98331 10.6102 0.5
265 5.9048 8.85351 2.7692 0.5
266 12.3965 3.31612 10.8438 0.5
267 2.82908 3.02632 10.7196 0.5
268 3.08799 1.16348 7.63956 0.5
269 6.61912 4.8219 1.5818 0.5
270 4.39218 7.27372 5.64612 0.5
271 8.5498 12.5065 0.329866 0.5
272 2.79942 13.3945 10.669 0.5
273 6.93521 1.1398 12.9356 0.5
274 12.2513 0.70622 2.47982 0.5
275 6.99661 2.57633 5.14863 0.5
276 4.3891 3.47817 4.28287 0.5
277 5.48699 8.82344 0.823583 0.5
278 4.26882 7.58314 8.98512 0.5
279 13.4065 4.53966 13.0735 0.5
280 5.51378 9.8451 1.81683 0.5
281 1.27028 13.4074 0.958728 0.5
282 6.31462 8.80724 6.55654 0.5
283 10.9059 4.61649 8.57081 0.5
284 9.62146 13.5694 10.8194 0.5
285 1.79892 6.50186 6.10698 0.5
286 1.60185 6.71543 1.88541 0.5
287 6.12245 0.745574 4.92667 0.5
288 9.24847 2.79856 8.44896 0.5
289 5.21667 4.39862 11.085 0.5
290 10.9521 5.81697 4.3063 0.5
291 3.72161 3.55234 5.1075 0.5
292 5.57846 12.8999 11.1355 0.5
293 4.36832 7.8476 12.623 0.5
294 2.52431 1.00907 10.7725 0.5
295 11.1995 9.59965 6.15221 0.5
296 7.01719 2.59875 3.4029 0.5
297 6.8779 9.89017 13.4938 0.5
298 3.41165 7.56418 10.572 0.5
299 1.31977 13.077 10.8116 0.5
300 11.263 6.38258 8.65907 0.5
301 0.542774 8.86777 4.58373 0.5
302 10.7735 4.36256 8.30622 0.5
303 8.93556 5.67206 10.1273 0.5
304 5.77074 8.87735 4.82429 0.5
305 9.17849 12.7457 4.10727 0.5
306 13.2839 1.89789 5.86196 0.5
307 7.16313 3.77831 10.9508 0.5
308 9.205 8.2372 2.62162 0.5
309 10.436 5.39941 11.2467 0.5
310 8.54253 9.81766 4.56255 0.5
311 2.44535 3.61018 13.1232 0.5
312 3.45552 0.120421 11.5926 0.5
313 8.89433 4.84178 2.73452 0.5
314 2.6844 3.69063 0.433627 0.5
315 9.95801 13.5367 9.8616 0.5
316 7.17768 7.77784 6.00021 0.5
317 2.11922 4.02311 5.45131 0.5
318 8.24502 1.74321 13.0621 0.5
319 10.5844 2.75416 6.0467 0.5
320 2.99861 9.81179 13.5486 0.5
321 13.097 2.51135 8.13828 0.5
322 1.41972 5.37021 1.15919 0.5
323 3.22696 6.93624 11.2618 0.5
324 0.78932 1.35433 0.811882 0.5
325 5.239 4.45619 13.5215 0.5
326 6.4147 9.51311 13.2111 0.5
327 1.20879 3.74153 12.7931 0.5
328 8.21536 0.189848 7.68305 0.5
329 7.70268 2.53937 3.82143 0.5
330 12.5387 13.0318 1.97914 0.5
331 2.52776 6.52488 4.38473 0.5
332 6.955 4.87376 2.76118 0.5
333 2.62915 3.47756 3.41254 0.5
334 1.55901 11.2583 12.2424 0.5
335 9.93047 6.6258 5.13858 0.5
336 2.88622 11.3063 1.28502 0.5
337 5.57654 2.02794 6.16449 0.5
338 8.24831 2.86375 4.7531 0.5
339 10.6526 2.7331 11.6719 0.5
340 12.7553 1.76316 2.98358 0.5
341 1.94304 10.1527 11.7485 0.5
342 8.6649 6.57837 1.33131 0.5
343 3.73831 6.90629 12.4747 0.5
344 11.4595 1.57406 8.22441 0.5
345 9.12262 4.21295 5.35378 0.5
346 11.528 7.28928 7.76518 0.5
347 0.247157 3.35856 10.9091 0.5
348 4.10914 5.38439 10.4989 0.5
349 12.1985 13.3192 5.40195 0.5
350 8.67568 11.528 4.12796 0.5
351 1.22746 4.86739 9.87769 0.5
352 9.10049 6.35352 5.2626 0.5
353 10.2659 13.4945 4.75382 0.5
354 6.17653 5.67413 12.9606 0.5
355 4.75037 5.00242 12.1761 0.5
356 12.9945 4.9517 12.1025 0.5
357 6.05593 0.643767 12.9451 0.5
358 0.8082 3.82541 7.76218 0.5
359 5.20317 7.29002 10.3437 0.5
360 5.71151 3.82884 7.13855 0.5
361 12.5516 4.697 1.93819 0.5
362 4.36397 2.17167 4.93265 0.5
363 0.138871 10.6382 6.37146 0.5
364 8.3686 12.9252 12.0119 0.5
365 2.2838 3.63367 2.44209 0.5
366 10.7496 0.810753 8.38748 0.5
367 12.8331 7.18579 0.484908 0.5
368 13.203 10.0964 5.89508 0.5
369 12.3044 5.91045 1.42103 0.5
370 10.2227 9.91128 5.15383 0.5
371 11.1788 7.14666 11.046 0.5
372 8.57788 4.41033 9.1349 0.5
373 7.17508 9.93895 8.43147 0.5
374 13.2761 7.9682 11.8895 0.5
375 3.97841 0.0923715 5.54456 0.5
376 6.35972 12.6907 4.34173 0.5
377 9.6285 4.14889 4.40173 0.5
378 1.59809 11.4028 12.4717 0.5
379 6.83232 10.1406 5.1252 0.5
380 11.4888 8.6675 7.55549 0.5
381 6.50204 10.86 0.954323 0.5
382 10.6404 10.4268 1.94772 0.5
383 5.72534 7.62372 13.2476 0.5
384 7.71314 6.91196 11.9427 0.5
385 1.17051 5.51871 3.72777 0.5
386 13.1304 8.17107 8.37656 0.5
387 2.10052 11.1061 1.95566 0.5
388 2.27567 11.3134 6.76179 0.5
389 13.5149 3.57991 10.9668 0.5
390 11.0012 9.17176 12.4318 0.5
391 8.32933 2.24836 11.6547 0.5
392 10.5958 3.71406 1.8016 0.5
393 3.65403 12.8688 6.85815 0.5
394 9.51805 9.20595 8.67277 0.5
395 2.68225 3.11615 2.94565 0.5
396 2.70159 9.80258 5.75147 0.5
397 4.35854 5.50684 11.2668 0.5
398 10.8112 0.194668 7.33815 0.5
399 12.2426 8.14138 13.075 0.5
400 6.34346 11.5316 2.96683 0.5
401 11.457 0.89895 9.33354 0.5
402 4.67178 9.09503 13.4622 0.5
403 8.03721 2.87301 11.1274 0.5
404 4.03844 7.2282 2.65482 0.5
405 9.44672 3.6116 9.11146 0.5
406 13.5096 11.7139 9.00539 0.5
407 2.51759 13.0876 3.01095 0.5
408 7.08418 7.65337 3.09573 0.5
409 4.58896 1.20214 6.76494 0.5
410 6.21373 8.78866 12.9688 0.5
411 1.40766 7.73776 10.6051 0.5
412 10.821 10.2682 1.07519 0.5
413 8.77962 4.3924 11.5097 0.5
414 1.0921 8.10967 11.7233 0.5
415 2.81151 9.14561 12.3493 0.5
416 1.57095 13.2457 1.31111 0.5
417 12.9399 0.277401 5.34747 0.5
418 11.9478 7.3036 9.12879 0.5
419 2.41826 12.8899 8.7271 0.5
420 7.55005 11.8406 3.74697 0.5
421 9.58008 3.2115 12.6643 0.5
422 12.1368 3.20558 6.4618 0.5
423 12.6497 11.4158 11.259 0.5
424 5.62435 0.311363 8.82804 0.5
425 9.12986 2.71116 9.86611 0.5
426 11.4415 10.5709 11.2918 0.5
427 4.08929 8.71217 6.96798 0.5
428 2.01614 9.99754 2.56119 0.5
429 2.98754 11.8723 12.1335 0.5
430 11.4669 3.46782 0.423005 0.5
431 3.9825 3.46875 3.65572 0.5
432 6.00054 13.1225 7.4632 0.5
433 11.3159 9.93224 9.0592 0.5
434 4.73248 8.09855 10.5564 0.5
435 12.9014 4.12004 10.2769 0.5
436 12.2074 12.1593 5.33044 0.5
437 2.45879 11.9607 5.08303 0.5
438 3.80768 2.31875 13.1647 0.5
439 8.35531 7.58376 4.91743 0.5
440 0.0843396 7.43797 11.8681 0.5
441 1.10253 2.50378 2.88929 0.5
442 9.04468 1.62577 8.32727 0.5
443 4.0929 9.19088 6.32358 0.5
444 8.50603 12.7953 8.66033 0.5
445 4.05331 7.76694 2.21019 0.5
446 0.521459 0.541569 6.28205 0.5
447 2.99146 2.51453 10.2315 0.5
448 2.43263 12.6533 12.6491 0.5
449 6.61557 9.61858 6.63163 0.5
450 4.66151 12.848 5.2827 0.5
451 2.94439 6.22118 1.01815 0.5
452 4.36821 7.89197 5.38938 0.5
453 5.74319 1.37538 4.52216 0.5
454 3.93919 12.283 4.67487 0.5
455 1.78765 3.85496 4.85394 0.5
456 4.74133 12.9878 2.23822 0.5
457 11.2345 11.2684 1.93316 0.5
458 8.61817 1.10231 8.71899 0.5
459 4.75004 3.74695 2.69292 0.5
460 13.2325 8.25701 12.2401 0.5
461 1.84782 2.27031 12.6516 0.5
462 2.95423 1.04605 12.5434 0.5
463 13.4364 1.38937 7.57543 0.5
464 0.872722 11.8229 4.40574 0.5
465 8.54082 1.16631 0.831845 0.5
466 8.50427 6.70303 7.30527 0.5
467 2.37329 6.06896 5.87992 0.5
468 4.82087 11.2352 10.8319 0.5
469 3.45389 2.11647 12.8344 0.5
470 7.10507 0.919527 2.66253 0.5
471 2.81823 5.78958 3.12573 0.5
472 1.95954 0.55987 9.77618 0.5
473 8.73199 6.95744 10.6674 0.5
474 0.972122 4.64268 7.96512 0.5
475 1.65446 0.958266 8.7861 0.5
476 12.9113 1.05845 7.82854 0.5
477 13.3876 3.88751 4.20101 0.5
478 4.02231 3.51086 1.83316 0.5
479 6.20211 6.50424 13.1575 0.5
480 5.95403 3.84532 12.8165 0.5
481 1.9284 4.46221 3.04484 0.5
482 10.2418 0.607598 13.1624 0.5
483 13.4351 7.91715 5.97492 0.5
484 8.94287 10.1366 12.0247 0.5
485 10.3158 4.84996 12.8675 0.5
486 4.95237 11.3077 1.01564 0.5
487 13.37 11.0393 8.05957 0.5
488 4.35639 7.90204 10.3191 0.5
489 5.82945 0.176953 10.472 0.5
490 7.1552 9.43198 8.92996 0.5
491 5.89701 4.00049 2.89326 0.5
492 0.192227 5.85778 5.1294 0.5
493 10.4497 11.2192 2.18799 0.5
494 7.22218 4.97744 9.2105 0.5
495 2.1168 13.0708 3.83921 0.5
496 2.82718 1.37972 10.8277 0.5
497 5.9772 3.30737 4.30046 0.5
498 13.0628 12.299 10.3466 0.5
499 7.36343 3.99194 7.25737 0.5
500 8.70497 11.1953 12.1254 0.5
501 4.22914 0.49834 2.82058 0.5
502 7.0972 2.90047 13.4063 0.5
503 1.90209 4.7521 1.37511 0.5
504 4.06586 6.16844 1.18537 0.5
505 6.33115 10.0713 10.0972 0.5
506 3.52075 3.80499 0.705166 0.5
507 7.31705 5.10327 11.304 0.5
508 2.09408 12.9859 9.90088 0.5
509 -0.00933498 11.7478 7.32668 0.5
510 1.04 1.62862 7.92239 0.5
511 0.892831 5.1332 4.46366 0.5
512 4.2768 4.81967 5.90525 0.5
513 5.84514 11.4443 6.73495 0.5
514 6.66632 4.03401 0.00755775 0.5
515 2.36282 0.950864 7.72091 0.5
516 6.32291 2.7812 7.61761 0.5
517 2.38516 7.10537 0.273154 0.5
518 6.99013 5.97223 9.45715 0.5
519 0.112191 5.93504 7.17108 0.5
520 0.471072 11.1175 5.8293 0.5
521 10.2283 2.01462 5.61431 0.5
522 1.13201 12.6629 7.88253 0.5
523 9.15101 8.76658 1.55709 0.5
524 9.47375 13.3813 8.82846 0.5
525 6.05446 10.5011 10.4173 0.5
526 5.63031 6.43919 0.194324 0.5
527 5.03804 4.53808 2.02773 0.5
528 4.13963 0.90731 8.15448 0.5
529 8.489 5.17462 7.44891 0.5
530 10.6647 8.23755 11.2303 0.5
531 9.14562 2.78822 10.7268 0.5
532 3.36378 6.22511 13.1155 0.5
533 10.9866 13.1255 1.65745 0.5
534 10.3724 5.18987 11.9603 0.5
535 13.2872 9.58231 2.28578 0.5
536 2.86514 7.09457 7.4835 0.5
537 13.3769 1.20795 10.0227 0.5
538 4.49711 11.9742 2.11759 0.5
539 6.59537 2.30259 3.05627 0.5
540 2.74942 10.753 6.24406 0.5
541 10.3855 3.36734 1.52056 0.5
542 7.83809 2.35769 12.0827 0.5
543 10.5797 7.26049 10.5389 0.5
544 3.89866 9.56161 11.9787 0.5
545 3.04835 12.963 12.037 0.5
546 12.2331 7.23584 0.62283 0.5
547 8.56068 3.15783 3.11522 0.5
548 11.9415 11.9696 10.2398 0.5
549 9.054 6.12248 6.47492 0.5
550 10.6959 6.64327 8.34741 0.5
551 0.179954 10.4834 1.18828 0.5
552 2.13587 2.37272 6.06246 0.5
553 11.6444 4.30688 6.01093 0.5
554 2.45043 12.6436 0.725168 0.5
555 12.7212 11.5613 0.0948296 0.5
556 12.5796 8.3027 0.655556 0.5
557 12.2751 2.44938 5.1179 0.5
558 7.25301 6.69387 13.5293 0.5
559 8.89307 4.87066 9.6111 0.5
560 6.42298 3.64326 2.67421 0.5
561 5.76809 8.01408 13.0853 0.5
562 8.46591 1.39477 1.68351 0.5
563 10.1225 7.42996 9.78856 0.5
564 3.55497 1.87151 3.51883 0.5
565 12.1042 2.35995 11.1249 0.5
566 6.82322 12.5216 12.8094 0.5
567 5.17824 6.93238 10.3984 0.5
568 11.7489 5.69448 8.4785 0.5
569 11.3389 10.989 2.41797 0.5
570 0.193506 10.8018 5.26989 0.5
571 0.323605 5.25777 8.99304 0.5
572 6.07965 4.25959 0.667351 0.5
573 9.30318 4.11306 9.43171 0.5
574 13.2259 3.65539 0.183864 0.5
575 1.26195 13.2145 4.15718 0.5
576 11.0621 6.23409 10.584 0.5
577 2.36225 12.217 12.0466 0.5
578 3.79197 12.2526 7.53671 0.5
579 10.4867 0.160253 12.9673 0.5
580 8.95318 1.76635 8.799 0.5
581 9.28628 3.60792 6.25083 0.5
582 4.38077 10.639 9.8241 0.5
583 7.94451 5.57022 2.32718 0.5
584 4.45915 0.205861 10.7958 0.5
585 2.57282 12.3366 8.1653 0.5
586 12.7356 8.83653 10.4928 0.5
587 5.88448 1.97024 6.85989 0.5
588 11.1152 2.1574 12.5441 0.5
589 -0.0147134 8.70664 7.03911 0.5
590 3.81171 6.30325 2.24573 0.5
591 6.81492 1.81405 0.242288 0.5
592 2.36913 13.1617 4.54098 0.5
593 0.451127 4.82762 3.29436 0.5
594 5.15157 3.27287 1.18921 0.5
595 0.582936 0.568101 10.7311 0.5
596 1.57252 3.8918 9.77633 0.5
597 3.89913 2.52879 6.40253 0.5
598 11.3553 11.1315 0.810255 0.5
599 1.8432 7.66403 7.46394 0.5
600 10.6519 9.37313 12.0338 0.5
601 6.2029 12.0412 0.820181 0.5
602 2.92341 10.0312 3.36073 0.5
603 7.16192 10.8989 12.304 0.5
604 10.2839 7.12988 12.6959 0.5
605 11.9369 5.83237 4.01036 0.5
606 1.35807 10.7768 5.44124 0.5
607 1.26748 7.69527 4.14491 0.5
608 7.37119 4.10909 6.84909 0.5
609 13.1071 8.10993 6.84004 0.5
610 1.75024 12.9367 6.14082 0.5
611 6.04422 8.88362 9.9726 0.5
612 7.88749 5.94254 9.49972 0.5
613 6.4109 12.2314 5.32142 0.5
614 8.46034 8.42829 12.3976 0.5
615 10.4351 13.4777 9.14753 0.5
616 12.8385 13.2489 3.98682 0.5
617 8.0502 5.41444 2.91154 0.5
618 8.23174 9.22148 2.729 0.5
619 10.1794 1.90338 9.95517 0.5
620 9.82981 5.98044 11.9535 0.5
621 12.2591 12.0235 13.5197 0.5
622 2.90013 1.73861 11.0753 0.5
623 11.8745 4.71548 9.99917 0.5
624 0.195586 6.10973 4.49501 0.5
625 10.7533 9.32954 9.63435 0.5
626 11.3186 2.44551 13.5019 0.5
627 8.6994 11.4226 7.20577 0.5
628 4.10197 9.69498 11.3489 0.5
629 7.18532 8.48186 7.62736 0.5
630 10.5693 5.42249 3.73214 0.5
631 7.85573 5.19896 12.9307 0.5
632 6.57924 10.7702 1.62283 0.5
633 2.93947 12.4166 8.19596 0.5
634 6.9741 9.44394 8.08983 0.5
635 1.55126 3.77539 3.89876 0.5
636 7.70949 7.28051 6.48645 0.5
637 3.32361 8.22613 1.0697 0.5
638 13.0246 3.77869 4.52476 0.5
639 6.15039 8.61543 5.50819 0.5
640 9.08453 5.4101 4.22899 0.5
641 13.4251 11.8775 4.66998 0.5
642 8.99942 0.762512 1.65716 0.5
643 8.41785 3.25835 1.34546 0.5
644 3.55863 2.27961 7.3797 0.5
645 7.78652 2.49477 3.43129 0.5
646 1.64183 6.74251 5.62563 0.5
647 7.44084 1.50604 10.1322 0.5
648 7.9909 3.73918 3.19058 0.5
649 1.46681 10.8348 12.279 0.5
650 4.26576 6.68517 11.1224 0.5
651 11.372 1.86119 0.155976 0.5
652 11.2555 2.60845 0.57927 0.5
653 13.5109 6.79555 11.3721 0.5
654 5.65031 11.8472 9.50905 0.5
655 8.70271 13.0174 9.98274 0.5
656 2.49161 9.83532 7.76466 0.5
657 8.03973 3.088 11.1895 0.5
658 2.05192 0.470442 4.85269 0.5
659 9.0299 6.79695 5.51215 0.5
660 7.96181 8.11042 10.1681 0.5
661 4.13939 9.81445 11.6156 0.5
662 10.2137 6.26482 0.0706847 0.5
663 12.6974 13.0092 2.26979 0.5
664 2.07954 4.67934 10.2277 0.5
665 6.90972 8.59598 6.94189 0.5
666 6.31379 11.3843 0.244717 0.5
667 10.9652 10.529 3.41985 0.5
668 6.97719 8.61095 10.8815 0.5
669 9.10455 3.93407 8.0984 0.5
670 12.9002 5.34454 2.01014 0.5
671 4.07338 10.2443 7.54941 0.5
672 8.28937 0.180383 5.54495 0.5
673 12.1585 8.15497 4.68186 0.5
674 9.36271 0.846825 12.8713 0.5
675 8.06263 12.1028 11.7487 0.5
676 11.4511 7.59571 7.88767 0.5
677 5.26448 1.69601 6.63019 0.5
678 10.7909 2.78814 8.3612 0.5
679 1.48969 8.30428 12.1145 0.5
680 5.97864 8.12941 5.36331 0.5
681 5.75126 3.32677 1.34898 0.5
682 0.581848 1.93053 11.8446 0.5
683 4.87232 6.03173 1.72776 0.5
684 12.7782 5.83866 12.6724 0.5
685 7.57416 2.14583 11.4992 0.5
686 9.26659 3.44488 6.60038 0.5
687 7.96458 6.58576 3.82415 0.5
688 2.71571 1.15273 4.15627 0.5
689 9.85113 5.25395 8.31434 0.5
690 10.7966 9.35494 9.26519 0.5
691 1.70113 1.45529 1.06266 0.5
692 7.1107 3.95713 5.9481 0.5
693 1.51204 9.14665 8.543 0.5
694 9.02341 2.64341 5.58107 0.5
695 0.0859554 3.24303 7.44366 0.5
696 3.79108 6.23731 11.7295 0.5
697 7.37952 10.985 3.10167 0.5
698 6.9098 9.62733 9.84402 0.5
699 0.553338 9.80217 13.5101 0.5
700 0.232179 11.7607 9.91243 0.5
701 6.33375 1.45292 5.7338 0.5
702 4.87365 11.0555 10.4642 0.5
703 6.80083 3.07607 4.19318 0.5
704 11.1279 13.0446 1.77729 0.5
705 7.74813 11.718 0.972827 0.5
706 3.79603 12.6162 7.56511 0.5
707 1.96902 13.1024 6.28372 0.5
708 11.6176 7.27807 4.09969 0.5
709 1.98191 3.01796 8.99426 0.5
710 4.36901 8.40705 2.65254 0.5
711 1.24244 1.59839 2.01711 0.5
712 2.37999 1.28332 6.03615 0.5
713 7.23102 9.64843 5.27617 0.5
714 0.793011 1.15519 3.23359 0.5
715 4.59423 8.15534 13.4363 0.5
716 5.85784 8.70488 10.7957 0.5
717 0.593004 10.8188 2.12821 0.5
718 5.20796 3.06697 9.73629 0.5
719 7.29044 11.2399 6.50113 0.5
720 2.71802 10.8196 4.63236 0.5
721 12.7294 10.8251 0.393971 0.5
722 8.89048 12.6921 9.56844 0.5
723 7.45514 6.12518 9.96978 0.5
724 4.42042 10.4928 3.24367 0.5
725 4.47098 2.28448 3.8447 0.5
726 2.90906 5.58673 11.4241 0.5
727 5.48574 1.44618 10.966 0.5
728 4.5292 0.512461 9.08301 0.5
729 4.6731 7.87862 3.37711 0.5
730 2.81624 7.05624 9.76727 0.5
731 9.50947 7.87427 8.48592 0.5
732 4.28876 5.08377 4.74012 0.5
733 4.78685 0.260918 0.961812 0.5
734 0.779729 12.1922 1.93105 0.5
735 12.3132 10.684 3.14988 0.5
736 11.8323 3.25786 9.62132 0.5
737 9.41828 0.690444 11.3159 0.5
738 6.47123 10.1047 10.1256 0.5
739 3.8719 0.226997 12.7331 0.5
740 3.24168 0.84974 9.60835 0.5
741 0.932483 11.1069 2.80262 0.5
742 6.90499 5.54791 4.17311 0.5
743 7.00657 4.55959 0.963897 0.5
744 8.98213 9.89677 12.4285 0.5
745 9.3598 10.3176 13.179 0.5
746 13.4621 5.04748 9.96504 0.5
747 13.5401 2.86892 11.1364 0.5
748 1.12241 9.04008 0.240382 0.5
749 3.41713 8.0638 12.0101 0.5
750 1.35796 12.7476 12.0836 0.5
751 8.29608 13.4737 2.55433 0.5
752 9.99923 11.1359 0.737579 0.5
753 7.0927 0.876343 6.27641 0.5
754 6.6612 3.29848 6.47435 0.5
755 12.3539 10.8106 12.4022 0.5
756 2.19544 2.79741 7.66468 0.5
757 13.3225 12.5025 11.1683 0.5
758 0.608636 11.4703 7.70234 0.5
759 11.231 6.17246 11.9441 0.5
760 4.93807 7.1465 7.13629 0.5
761 0.823752 12.5072 12.7614 0.5
762 12.4491 10.1003 12.2224 0.5
763 1.64287 11.267 5.95893 0.5
764 7.73885 13.3935 3.93737 0.5
765 0.717846 11.8552 1.60033 0.5
766 3.08744 7.13996 4.43066 0.5
767 6.44836 6.79307 0.523617 0.5
768 10.4688 4.34884 12.8692 0.5
769 3.13596 2.86734 12.0137 0.5
770 11.9972 12.1997 3.50547 0.5
771 6.00894 12.399 11.2936 0.5
772 6.20832 3.75551 4.99533 0.5
773 11.8112 0.869614 1.17615 0.5
774 2.66631 1.76777 0.324529 0.5
775 7.39042 7.25409 12.6456 0.5
776 0.700522 7.00862 10.0671 0.5
777 6.81011 7.85722 0.418775 0.5
778 12.4166 3.51695 1.25342 0.5
779 5.45505 5.53999 1.52824 0.5
780 3.70853 5.56163 9.98932 0.5
781 0.973576 9.32043 5.05486 0.5
782 0.787927 3.76245 11.833 0.5
783 6.13464 11.3433 8.87039 0.5
784 11.1431 2.72645 1.99159 0.5
785 10.5574 1.17139 4.82855 0.5
786 12.9078 3.20442 7.10811 0.5
787 12.7819 3.26972 6.41876 0.5
788 8.11674 2.35843 13.1877 0.5
789 6.30295 1.6058 9.51279 0.5
790 4.78006 4.8466 0.894085 0.5
791 8.89752 1.76776 9.62957 0.5
792 4.64053 8.03114 9.8358 0.5
793 5.71258 7.169 6.84177 0.5
794 2.1962 3.67258 5.39964 0.5
795 2.20475 11.739 0.893614 0.5
796 8.38349 3.81991 0.577571 0.5
797 4.37506 3.17046 4.18173 0.5
798 13.0984 2.59726 12.6689 0.5
799 1.7286 6.17366 10.3077 0.5
800 11.105 6.47142 1.04793 0.5
801 6.43994 4.52695 3.86673 0.5
802 12.4718 1.02562 8.58658 0.5
803 4.94453 9.66483 1.91142 0.5
804 5.24879 10.7567 7.28212 0.5
805 10.1764 3.22742 0.811839 0.5
806 2.41097 2.52737 4.90024 0.5
807 6.24314 8.4173 10.9079 0.5
808 5.51024 5.18989 10.2112 0.5
809 8.88395 3.30333 2.70126 0.5
810 2.07586 0.622014 3.58018 0.5
811 12.3278 7.51356 1.29227 0.5
812 1.72091 2.70557 5.29287 0.5
813 5.30106 1.2608 12.294 0.5
814 11.8857 12.6327 4.1545 0.5
815 10.1421 4.06712 12.5021 0.5
816 2.87478 4.6173 7.79108 0.5
817 12.4585 0.932391 2.82726 0.5
818 6.89384 13.0288 7.53056 0.5
819 10.7668 0.821774 3.9154 0.5
820 0.358081 8.21694 6.95877 0.5
821 1.34684 5.95178 12.5083 0.5
822 7.66871 8.06121 7.39565 0.5
823 1.61457 7.20521 7.94156 0.5
824 11.5297 7.39843 4.92224 0.5
825 10.5735 3.10812 0.89373 0.5
826 7.09163 4.16311 1.11542 0.5
827 11.1139 8.98091 0.827183 0.5
828 9.12946 13.473 6.0751 0.5
829 1.49979 5.80904 6.43473 0.5
830 8.23682 10.5481 8.20904 0.5
831 9.42971 11.1274 9.23445 0.5
832 2.75843 2.95757 0.121672 0.5
833 13.4235 11.1157 6.6765 0.5
834 11.733 0.757719 5.49706 0.5
835 10.9956 9.22544 2.25786 0.5
836 7.23897 1.9959 12.1035 0.5
837 8.90586 11.7173 10.5939 0.5
838 6.19535 9.04428 12.3128 0.5
839 1.51475 0.643925 5.78052 0.5
840 2.29746 2.46417 1.93804 0.5
841 8.8779 0.116702 8.04521 0.5
842 4.0993 10.1002 6.58053 0.5
843 11.6442 4.27282 13.1574 0.5
844 8.62354 0.9995 7.1896 0.5
845 11.5358 11.9628 8.38395 0.5
846 2.98134 10.0975 13.1638 0.5
847 1.7783 6.09385 3.27513 0.5
848 3.31676 4.18158 6.7881 0.5
849 5.46571 8.87528 3.71074 0.5
850 1.14961 4.78682 10.6782 0.5
851 11.6619 9.56583 8.53895 0.5
852 5.9389 1.05003 13.4202 0.5
853 1.03663 13.4607 5.08823 0.5
854 9.60388 4.63714 11.973 0.5
855 3.29083 9.16469 2.8549 0.5
856 4.21794 10.9072 12.9029 0.5
857 10.3855 13.2648 11.8735 0.5
858 13.5477 7.11572 1.23819 0.5
859 12.7319 5.11311 4.54922 0.5
860 9.96702 5.37982 9.74731 0.5
861 8.86193 13.0915 8.7967 0.5
862 1.70056 6.22219 8.68027 0.5
863 8.64805 2.01638 2.38821 0.5
864 7.16922 0.618329 7.35166 0.5
865 9.06602 8.82741 7.04639 0.5
866 10.2894 1.45167 4.36708 0.5
867 4.19249 5.63401 10.0705 0.5
868 2.01557 8.6943 4.45999 0.5
869 8.27257 11.8707 0.716483 0.5
870 3.7701 11.4906 7.92854 0.5
871 11.4129 8.60094 5.07788 0.5
872 4.7831 2.00318 12.3786 0.5
873 9.87049 11.0259 12.1336 0.5
874 10.4659 2.55024 0.105141 0.5
875 9.38284 9.09603 9.6599 0.5
876 7.65197 2.53803 10.8706 0.5
877 12.8761 11.9447 8.20254 0.5
878 8.12974 0.776972 6.29909 0.5
879 13.0818 2.73589 12.5705 0.5
880 12.7539 12.9872 2.6518 0.5
881 -0.0114843 4.26547 10.2174 0.5
882 8.64782 8.37811 5.49649 0.5
883 0.340488 0.53094 3.49 0.5
884 11.5738 5.19171 0.94764 0.5
885 11.7475 13.0169 1.29889 0.5
886 12.3575 6.15293 3.92164 0.5
887 5.18931 3.10135 2.57333 0.5
888 8.72218 2.20097 11.6295 0.5
889 12.06 1.99714 9.81964 0.5
890 1.14182 6.23048 8.24097 0.5
891 0.428341 4.00388 8.60344 0.5
892 3.27175 3.99705 7.82741 0.5
893 3.54 0.507568 5.50243 0.5
894 9.29247 11.2933 7.76313 0.5
895 3.29703 10.3749 3.02592 0.5
896 4.44606 12.9095 10.5133 0.5
897 6.13535 0.100888 9.38009 0.5
898 7.15606 10.5813 4.52363 0.5
899 3.51921 5.27859 9.81429 0.5
900 0.650965 5.27966 6.68494 0.5
901 3.24848 4.81895 1.91252 0.5
902 3.79587 5.81995 11.6124 0.5
903 4.19223 12.3438 7.05426 0.5
904 11.7312 0.382978 1.35506 0.5
905 0.123155 12.6513 10.2852 0.5
906 11.5234 11.2382 11.1241 0.5
907 8.91071 10.8174 1.96137 0.5
908 1.12397 5.1669 6.21667 0.5
909 13.2426 1.36948 3.68072 0.5
910 0.030897 5.67154 7.02423 0.5
911 7.96103 8.7496 9.40872 0.5
912 11.4664 10.6196 9.90589 0.5
913 2.60979 6.36433 9.34973 0.5
914 9.80378 9.09605 1.82728 0.5
915 2.35764 3.48102 13.3741 0.5
916 0.57843 5.54078 1.89873 0.5
917 4.31988 9.8156 11.7867 0.5
918 2.54162 9.88155 1.87126 0.5
919 4.95262 4.91368 12.3333 0.5
920 5.4897 5.67141 4.57002 0.5
921 4.93194 9.10107 0.825386 0.5
922 12.3032 4.57814 11.9368 0.5
923 3.95231 4.84573 6.17926 0.5
924 3.79697 4.27598 6.24744 0.5
925 12.556 5.04508 4.67366 0.5
926 7.08191 2.91969 9.38025 0.5
927 1.72564 8.2663 10.5545 0.5
928 3.09167 12.9938 6.35148 0.5
929 12.8444 4.21203 2.19345 0.5
930 11.2099 1.42066 5.59079 0.5
931 4.05648 6.29914 8.30155 0.5
932 3.15642 9.1167 7.58211 0.5
933 0.870158 9.54915 5.4282 0.5
934 8.48508 7.36473 3.22458 0.5