ITEM: TIMESTEP
50000
ITEM: NUMBER OF ATOMS
1000
ITEM: BOX BOUNDS xy xz yz pp pp pp
0.0000000000000000e+00 1.3572088000000001e+01 0.0000000000000000e+00
0.0000000000000000e+00 1.3572088000000001e+01 0.0000000000000000e+00
0.0000000000000000e+00 1.3572088000000001e+01 0.0000000000000000e+00
ITEM: ATOMS id x y z radius
1 11.4406 13.4793 3.99757 0.5
2 3.82892 10.88 0.455984 0.5
3 7.59446 6.70565 11.7483 0.5
4 1.04376 4.6809 8.99512 0.5
5 5.07601 1.52502 6.75178 0.5
6 9.31995 8.92482 5.95461 0.5
7 9.11575 9.9122 4.84583 0.5
8 11.4406 10.3505 7.67253 0.5
9 9.53531 2.15855 11.6426 0.5
10 7.74786 12.1733 3.81323 0.5
11 0.408349 7.35323 0.396337 0.5
12 1.98675 11.0057 8.865 0.5
13 7.77175 3.93478 6.07901 0.5
14 12.1789 11.885 0.316237 0.5
15 4.86289 8.14219 6.58407 0.5
16 7.78623 4.67677 8.78133 0.5
17 6.3712 5.88503 12.1303 0.5
18 10.3157 6.99125 6.62204 0.5
19 8.58219 9.96732 9.75826 0.5
20 0.332149 7.32006 12.4796 0.5
21 11.3168 3.98518 11.0556 0.5
22 1.73553 3.92557 10.1201 0.5
23 11.8768 5.42849 3.6443 0.5
24 10.8879 6.31745 6.55476 0.5
25 3.27578 4.70829 4.42689 0.5
26 5.76203 4.58769 7.18676 0.5
27 5.88799 9.2928 1.74882 0.5
28 2.10936 3.60578 10.8419 0.5
29 9.26988 11.2291 12.8992 0.5
30 11.5169 6.94842 11.9857 0.5
31 1.74195 1.01458 1.88282 0.5
32 4.41131 11.6514 13.4352 0.5
33 9.23811 0.985498 4.0666 0.5
34 5.36401 12.4122 12.8784 0.5
35 2.21395 1.46308 3.40052 0.5
36 12.0512 5.09204 9.43494 0.5
37 1.97767 10.6436 7.65519 0.5
38 3.78947 4.31743 4.53544 0.5
39 8.09398 6.6037 3.34091 0.5
40 1.69616 10.7654 5.62724 0.5
41 2.32793 12.756 11.8245 0.5
42 0.0953918 12.0038 12.2349 0.5
43 1.08792 8.07413 1.77699 0.5
44 3.3509 8.59258 5.82237 0.5
45 13.0689 6.76598 10.3776 0.5
46 11.8521 12.763 7.43224 0.5
47 6.36174 11.4164 3.82632 0.5
48 2.46246 10.1324 11.8288 0.5
49 2.03416 11.2436 0.412559 0.5
50 6.69641 10.1122 5.58118 0.5
51 11.2204 9.8567 10.575 0.5
52 10.5207 13.5533 12.952 0.5
53 2.46451 9.97993 0.29867 0.5
54 7.20145 6.3303 3.50855 0.5
55 8.9143 12.3797 11.7026 0.5
56 1.76996 4.4798 3.32225 0.5
57 2.0272 10.2567 3.3255 0.5
58 9.15944 10.0098 9.18055 0.5
59 8.6451 5.88602 6.73301 0.5
60 1.05788 0.688544 12.5974 0.5
61 10.8876 5.3304 11.5447 0.5
62 2.01804 8.47339 12.9702 0.5
63 10.8571 8.38101 10.5749 0.5
64 2.16133 12.3067 9.0528 0.5
65 5.59773 11.3645 10.8949 0.5
66 11.6483 0.100659 4.44818 0.5
67 1.66448 6.89093 6.51203 0.5
68 6.31586 13.4273 2.445 0.5
69 4.52525 2.04659 8.42785 0.5
70 9.25352 6.90572 10.8129 0.5
71 8.80576 10.7004 5.94774 0.5
72 7.07124 3.22927 0.733031 0.5
73 11.4607 9.71204 2.17496 0.5
74 5.65487 0.00053312 6.93965 0.5
75 10.3994 3.16916 12.4531 0.5
76 5.81984 1.5071 8.61559 0.5
77 1.21509 13.4217 4.51846 0.5
78 2.51966 11.1145 7.74215 0.5
79 6.48718 6.88777 8.32391 0.5
80 6.34083 0.429051 11.3926 0.5
81 8.55328 1.27929 0.294891 0.5
82 9.01122 4.17675 10.5536 0.5
83 11.6983 13.017 0.664228 0.5
84 1.50719 6.21691 4.93319 0.5
85 1.93426 0.401372 0.269465 0.5
86 0.96548 9.06492 8.45557 0.5
87 2.29271 2.9258 8.25958 0.5
88 11.3108 1.39028 2.54768 0.5
89 9.59807 9.23775 7.59102 0.5
90 13.2578 0.926453 8.28072 0.5
91 11.4383 7.33827 3.64417 0.5
92 0.114945 11.8688 2.84908 0.5
93 4.03752 8.91781 8.92633 0.5
94 0.537463 9.9431 13.4894 0.5
95 9.56864 5.98361 3.16789 0.5
96 6.38639 11.6774 2.30267 0.5
97 10.8373 4.64829 4.17486 0.5
98 5.27388 7.91205 8.51358 0.5
99 3.01627 8.45956 7.5306 0.5
100 4.01065 7.32602 5.77218 0.5
101 9.02407 10.4238 2.66691 0.5
102 11.3448 12.3147 11.3403 0.5
103 3.27232 6.91134 1.7911 0.5
104 3.63593 10.9071 2.87805 0.5
105 12.4804 1.99219 0.678139 0.5
106 2.24625 8.865 7.67097 0.5
107 9.86041 12.1725 7.23221 0.5
108 11.0622 12.5943 0.816093 0.5
109 7.58167 1.77215 4.06508 0.5
110 7.72925 5.25228 8.37796 0.5
111 11.0561 9.42445 10.0959 0.5
112 3.35552 4.45801 12.0262 0.5
113 6.96381 1.13095 0.905097 0.5
114 2.55404 8.07498 6.52317 0.5
115 2.57107 3.46732 2.85824 0.5
116 5.75144 9.75892 1.61853 0.5
117 9.70776 2.24482 5.46602 0.5
118 2.26694 4.89411 11.989 0.5
119 2.62648 7.47754 4.30199 0.5
120 1.87294 3.6051 1.49847 0.5
121 13.4362 2.57145 11.795 0.5
122 5.99377 7.94138 3.01632 0.5
123 5.265 9.39653 8.49058 0.5
124 11.9716 4.88362 2.43115 0.5
125 9.47756 -0.00963742 12.3082 0.5
126 10.3817 8.12657 8.5384 0.5
127 4.77822 2.06297 13.5144 0.5
128 12.7625 12.6738 3.72435 0.5
129 8.46168 1.00958 3.14746 0.5
130 2.43933 6.67476 8.32083 0.5
131 10.8804 10.424 0.492043 0.5
132 2.99307 5.11089 12.7563 0.5
133 11.8349 12.1174 9.1276 0.5
134 11.2717 11.243 3.42358 0.5
135 11.2418 9.28422 3.27059 0.5
136 1.8602 4.45972 10.8801 0.5
137 9.97884 9.63296 6.02649 0.5
138 13.0826 4.40198 1.13697 0.5
139 5.54506 0.234726 3.3789 0.5
140 12.9733 4.52211 9.4293 0.5
141 10.9423 10.8663 6.33789 0.5
142 10.4349 4.15249 2.51403 0.5
143 3.13747 12.8378 10.0008 0.5
144 1.49992 6.52137 3.81532 0.5
145 8.3271 6.8384 5.58866 0.5
146 3.40232 9.41439 13.4793 0.5
147 3.4662 6.77009 11.8827 0.5
148 2.63286 8.03959 13.1751 0.5
149 10.9703 3.71903 12.5061 0.5
150 6.42301 5.52603 10.7582 0.5
151 5.99533 13.0169 5.00806 0.5
152 2.29439 4.35624 7.15205 0.5
153 1.68786 10.9643 13.2417 0.5
154 11.027 6.44229 7.17495 0.5
155 8.14731 9.14986 1.93707 0.5
156 6.99993 6.83273 1.09449 0.5
157 11.4104 0.598055 2.46458 0.5
158 2.9509 0.545341 7.6712 0.5
159 5.88369 5.63346 6.36975 0.5
160 8.28236 4.97777 1.78286 0.5
161 0.0584539 11.0442 7.21457 0.5
162 7.13418 5.63156 1.62443 0.5
163 12.8683 8.90476 1.98554 0.5
164 12.1998 5.09868 6.21526 0.5
165 9.8599 8.24868 4.22479 0.5
166 2.12066 5.03012 6.94708 0.5
167 4.11691 3.69003 2.08402 0.5
168 10.6439 13.1048 11.6461 0.5
169 8.91385 9.40502 7.6186 0.5
170 7.90313 8.26114 5.45908 0.5
171 6.30765 5.4294 1.74777 0.5
172 1.02353 3.13451 6.02277 0.5
173 5.80548 0.299985 2.80407 0.5
174 2.59261 0.276629 5.87352 0.5
175 10.7451 7.82751 12.0144 0.5
176 1.85048 1.0968 9.1981 0.5
177 8.60628 6.79341 2.83431 0.5
178 7.13006 8.08242 9.34297 0.5
179 5.51168 12.068 9.41742 0.5
180 3.35359 8.29492 7.17849 0.5
181 4.97027 2.41228 2.16488 0.5
182 5.28351 13.0609 6.47529 0.5
183 3.30355 7.92132 12.794 0.5
184 7.63876 10.9843 1.96429 0.5
185 10.3069 3.86855 10.5962 0.5
186 10.3438 9.0868 2.03124 0.5
187 8.06635 7.40391 13.0181 0.5
188 4.14506 6.36848 2.86082 0.5
189 1.82996 9.57425 9.69032 0.5
190 12.6998 7.18739 0.930199 0.5
191 9.66797 4.43655 6.00018 0.5
192 2.94788 0.809471 3.57208 0.5
193 12.9961 2.22004 1.17101 0.5
194 4.53694 4.76194 7.3473 0.5
195 10.6491 10.2616 12.3233 0.5
196 4.23478 8.71813 2.38527 0.5
197 6.30298 8.52107 1.49416 0.5
198 11.32 3.06043 12.7198 0.5
199 0.834403 8.51543 6.43145 0.5
200 0.170767 2.87344 11.3901 0.5
201 12.3679 8.80911 1.78297 0.5
202 5.11562 2.31589 0.433204 0.5
203 3.14248 1.85895 7.23515 0.5
204 11.6125 2.98138 7.1608 0.5
205 0.346199 7.69594 8.11457 0.5
206 10.3604 1.62137 2.84008 0.5
207 0.96573 10.7959 2.40038 0.5
208 10.4561 1.4833 4.87217 0.5
209 0.432874 2.75718 0.344703 0.5
210 13.3734 2.42386 1.09348 0.5
211 9.58033 3.88899 11.9441 0.5
212 8.18877 3.30986 13.076 0.5
213 10.8053 5.62711 4.37172 0.5
214 1.88392 13.4642 10.0293 0.5
215 1.55712 0.507129 2.38272 0.5
216 5.63042 9.69978 10.5665 0.5
217 8.36355 12.5442 9.69449 0.5
218 5.33199 11.7203 0.320614 0.5
219 13.2408 2.38679 9.25534 0.5
220 5.4992 9.44537 2.72702 0.5
221 3.05372 7.57355 7.58361 0.5
222 12.3751 6.3789 4.79484 0.5
223 5.75941 11.0042 12.2539 0.5
224 0.322975 7.6628 7.86856 0.5
225 0.0748679 2.24117 9.40051 0.5
226 8.58154 9.37906 13.1455 0.5
227 3.89878 7.7706 13.2838 0.5
228 6.13264 7.19794 5.43332 0.5
229 13.2368 9.64547 8.30169 0.5
230 4.64033 4.0683 6.18017 0.5
231 6.31847 5.87357 9.76995 0.5
232 10.9532 0.408855 7.43412 0.5
233 11.4872 2.20516 5.07992 0.5
234 8.91052 10.0559 7.81151 0.5
235 11.6076 8.15698 0.467394 0.5
236 2.17677 9.02226 12.67 0.5
237 6.69422 10.5474 12.0791 0.5
238 12.5657 2.43871 1.69861 0.5
239 12.9487 6.79904 13.3173 0.5
240 4.49306 2.83762 4.35646 0.5
241 3.94053 0.524974 1.32079 0.5
242 11.0615 8.15377 9.18575 0.5
243 0.64429 6.37737 10.7353 0.5
244 10.7475 12.0157 2.66587 0.5
245 10.2372 12.4952 3.83915 0.5
246 0.858224 6.3032 3.07546 0.5
247 1.8753 7.37037 8.99596 0.5
248 9.16516 9.97962 0.992355 0.5
249 1.21745 4.32606 9.07442 0.5
250 6.14923 7.45002 11.5655 0.5
251 13.2735 5.41864 8.5266 0.5
252 6.22876 4.20875 1.7515 0.5
253 3.66621 11.136 12.8173 0.5
254 6.39317 2.58151 5.77971 0.5
255 3.15108 11.2577 9.34494 0.5
256 6.2051 11.0486 12.4295 0.5
257 13.3218 12.2729 3.61034 0.5
258 1.07322 6.71992 5.94458 0.5
259 12.3737 7.98576 3.1331 0.5
260 10.1665 0.846401 11.5704 0.5
261 8.84377 6.16914 2.93929 0.5
262 3.03035 12.0504 4.84237 0.5
263 1.5201 12.0768 2.75703 0.5
264 7.42152 0.481301 12.2249 0.5
265 13.5233 6.13491 6.25883 0.5
266 7.60532 3.0384 7.25999 0.5
267 3.20138 3.29798 11.5462 0.5
268 5.80022 2.706 1.77421 0.5
269 8.49732 5.19579 2.03481 0.5
270 4.08877 5.58484 1.90511 0.5
271 7.05368 13.3383 12.0865 0.5
272 1.48737 10.0016 10.7752 0.5
273 9.11367 12.8241 11.6692 0.5
274 8.03524 12.5754 12.9552 0.5
275 4.46651 1.77039 3.77205 0.5
276 2.67983 2.77479 3.16625 0.5
277 5.48495 10.3155 2.63266 0.5
278 6.85205 3.88434 3.94708 0.5
279 4.3868 4.52125 12.3265 0.5
280 4.8869 9.25912 4.28806 0.5
281 5.93545 12.6687 13.0814 0.5
282 4.38944 10.6659 5.78856 0.5
283 9.69533 6.06513 7.72105 0.5
284 8.52084 9.43575 12.1963 0.5
285 0.386535 9.21388 4.33508 0.5
286 13.388 7.44176 1.48174 0.5
287 2.70718 1.5699 3.81355 0.5
288 4.9167 2.4297 10.7804 0.5
289 7.51313 5.60924 9.95568 0.5
290 9.95086 7.62171 6.60833 0.5
291 1.80505 6.04508 5.90662 0.5
292 4.84706 11.1987 9.78876 0.5
293 2.39352 7.50974 11.2777 0.5
294 4.71965 10.1948 3.31941 0.5
295 11.4511 11.4806 11.6242 0.5
296 7.42378 8.09804 1.86653 0.5
297 11.9894 9.56505 1.59319 0.5
298 3.25132 3.24972 7.37913 0.5
299 3.13896 9.97189 13.0341 0.5
300 12.5325 0.291348 7.96366 0.5
301 12.5898 5.01247 11.8312 0.5
302 10.9737 3.88504 9.00322 0.5
303 9.66029 6.69054 6.93473 0.5
304 10.1444 6.36432 3.77724 0.5
305 11.8624 12.0017 3.51214 0.5
306 1.93765 1.54221 9.64951 0.5
307 11.9965 6.3356 11.5705 0.5
308 9.19733 10.547 1.40905 0.5
309 9.36907 4.62585 12.432 0.5
310 10.0501 8.82328 4.26844 0.5
311 2.43571 3.0857 12.5016 0.5
312 4.07399 13.3973 12.03 0.5
313 8.58656 7.00163 1.89025 0.5
314 12.3234 6.82579 11.267 0.5
315 8.90564 11.9813 8.17585 0.5
316 8.59971 7.70794 4.23578 0.5
317 3.60611 1.81111 5.7826 0.5
318 9.1306 2.63906 2.3368 0.5
319 10.0322 1.70375 8.03891 0.5
320 3.01947 9.76069 0.597263 0.5
321 2.08089 5.53424 5.37049 0.5
322 3.11295 7.94718 0.243807 0.5
323 4.44764 9.25645 11.8664 0.5
324 2.87379 10.4104 11.2044 0.5
325 7.59827 4.3603 1.53954 0.5
326 4.04753 10.5771 3.15875 0.5
327 3.01778 0.763362 10.852 0.5
328 7.06091 1.17933 4.91982 0.5
329 3.85905 1.50101 3.39526 0.5
330 10.3178 12.2777 3.09719 0.5
331 13.2471 7.88837 1.64886 0.5
332 10.4528 6.27554 2.80867 0.5
333 4.61804 3.2381 0.895329 0.5
334 3.77262 9.63054 12.2032 0.5
335 11.0257 8.54517 4.78375 0.5
336 3.09374 12.1854 12.4797 0.5
337 8.54983 6.17771 8.85987 0.5
338 11.4993 0.482741 4.9372 0.5
339 10.9305 2.54514 0.0726323 0.5
340 0.232043 2.97792 12.7325 0.5
341 0.573214 7.61761 1.69486 0.5
342 11.4947 8.48767 0.420277 0.5
343 5.88984 8.75964 12.165 0.5
344 0.325341 0.594939 7.70844 0.5
345 9.62951 5.74012 4.80518 0.5
346 2.08787 9.47749 9.52855 0.5
347 12.0416 1.57491 10.0287 0.5
348 2.53268 2.01119 7.14246 0.5
349 0.573944 4.70787 8.15873 0.5
350 9.69818 10.5684 4.38753 0.5
351 3.52022 7.73472 6.026 0.5
352 11.1665 7.22812 3.64839 0.5
353 3.62639 10.6152 4.81036 0.5
354 5.1777 7.63318 9.99134 0.5
355 6.89242 5.77102 10.9799 0.5
356 12.4303 2.44449 11.4948 0.5
357 4.78342 0.744235 7.92379 0.5
358 12.3788 0.844564 2.97203 0.5
359 8.57709 7.0701 12.393 0.5
360 6.10623 12.2319 8.13715 0.5
361 8.87754 2.49005 8.08776 0.5
362 4.24759 9.29263 6.62455 0.5
363 12.5756 9.01598 7.64087 0.5
364 10.743 9.44815 8.63897 0.5
365 11.1076 7.86625 5.33251 0.5
366 12.1034 1.25179 10.7661 0.5
367 12.2818 12.0733 13.284 0.5
368 13.2421 13.0601 5.87157 0.5
369 0.88361 2.82497 13.3123 0.5
370 10.6538 10.7744 4.87195 0.5
371 12.3332 6.7817 12.5091 0.5
372 8.7352 5.72737 7.93594 0.5
373 8.28828 10.4466 8.31098 0.5
374 0.697294 7.58838 11.8693 0.5
375 1.67203 1.48939 6.24314 0.5
376 4.61765 13.4148 5.9405 0.5
377 6.58771 3.04308 3.70249 0.5
378 4.25912 9.83064 3.42537 0.5
379 6.27255 10.7309 4.25942 0.5
380 13.1644 6.505 13.159 0.5
381 6.73289 11.262 10.1293 0.5
382 12.1356 8.539 0.338653 0.5
383 3.9283 11.8141 12.7188 0.5
384 10.3686 5.03197 10.5952 0.5
385 11.3139 3.69697 3.62049 0.5
386 11.8317 8.28227 5.20374 0.5
387 12.1674 7.05003 13.3018 0.5
388 0.0791239 9.94535 8.30847 0.5
389 9.74888 4.00555 11.5048 0.5
390 9.83414 8.06324 3.55681 0.5
391 10.6641 12.6096 11.9481 0.5
392 11.8653 3.09814 2.30822 0.5
393 2.31265 13.4422 10.6481 0.5
394 9.70285 0.266673 10.9588 0.5
395 1.6883 3.06585 4.22612 0.5
396 2.22592 10.414 7.29371 0.5
397 6.36596 2.76477 12.296 0.5
398 6.13163 1.97713 6.86362 0.5
399 12.7775 11.8867 1.54506 0.5
400 11.0979 0.310684 2.50255 0.5
401 10.5178 1.61263 9.29458 0.5
402 2.67032 10.8284 0.432465 0.5
403 6.06058 1.1694 -0.000524233 0.5
404 7.28711 7.24178 3.36701 0.5
405 10.0429 2.68394 9.62229 0.5
406 0.156676 10.3865 9.01332 0.5
407 2.69656 10.2592 6.21556 0.5
408 8.41478 10.6407 0.00515559 0.5
409 4.50836 9.70389 5.13318 0.5
410 13.3742 8.10932 3.15808 0.5
411 2.67352 5.69335 8.01715 0.5
412 6.17559 10.6446 0.626189 0.5
413 0.292266 4.00006 10.8061 0.5
414 2.199 9.3975 0.169253 0.5
415 2.58114 7.40605 11.713 0.5
416 4.33321 0.230144 13.0835 0.5
417 2.30794 10.7555 5.18667 0.5
418 10.1916 5.79823 7.07829 0.5
419 5.42112 12.7727 9.64017 0.5
420 7.00588 2.3895 5.40775 0.5
421 9.7247 3.55645 2.80455 0.5
422 9.55472 5.11549 9.17476 0.5
423 6.96296 11.8005 3.8778 0.5
424 7.30018 3.09564 10.5169 0.5
425 5.184 3.15501 8.72852 0.5
426 5.59317 10.9326 10.99 0.5
427 5.70419 10.7276 9.29599 0.5
428 3.44219 9.26616 5.31819 0.5
429 1.97268 13.1014 10.6808 0.5
430 8.57891 2.84669 2.30758 0.5
431 1.93983 6.97804 4.20064 0.5
432 3.33201 0.084352 6.51074 0.5
433 9.95224 11.7294 10.0607 0.5
434 3.51638 4.81379 8.38915 0.5
435 1.23984 2.86628 10.9451 0.5
436 12.6216 10.2526 4.79862 0.5
437 3.84041 12.1626 10.3877 0.5
438 4.30132 11.6225 0.638473 0.5
439 10.4405 11.1064 5.092 0.5
440 12.1513 8.98487 10.2839 0.5
441 13.3948 5.2227 1.6795 0.5
442 6.34684 10.8799 7.07025 0.5
443 3.592 11.3291 5.31132 0.5
444 12.4677 12.8792 9.63512 0.5
445 4.76759 6.53799 12.7558 0.5
446 11.7933 4.5909 7.38584 0.5
447 2.16038 6.56238 10.3072 0.5
448 3.05019 12.5156 13.0505 0.5
449 5.11895 10.7425 5.77283 0.5
450 3.41311 1.7195 4.68981 0.5
451 1.32348 7.55361 1.21089 0.5
452 6.47006 2.68516 5.01457 0.5
453 2.95604 2.78118 1.10629 0.5
454 2.40761 10.5487 5.4962 0.5
455 4.48457 1.83813 7.20883 0.5
456 4.75727 0.912277 5.16694 0.5
457 1.42716 9.64727 5.79777 0.5
458 6.71649 2.48739 8.33147 0.5
459 3.08449 1.28476 7.16496 0.5
460 10.1026 8.93219 9.42962 0.5
461 0.706497 0.959659 0.572293 0.5
462 1.6539 2.24976 7.85204 0.5
463 1.13359 0.279048 7.47135 0.5
464 11.7933 1.86242 5.68843 0.5
465 10.737 2.65896 11.5224 0.5
466 4.90614 8.34773 3.23555 0.5
467 11.8179 9.02824 5.40614 0.5
468 7.526 7.12778 8.64286 0.5
469 1.70353 1.90729 0.248874 0.5
470 7.05416 0.224968 1.65043 0.5
471 3.47042 6.43634 0.690539 0.5
472 11.5288 1.82516 9.69633 0.5
473 10.343 7.83124 7.13114 0.5
474 0.437871 1.70036 8.26096 0.5
475 3.51612 0.41522 4.78534 0.5
476 9.83427 2.33786 7.84422 0.5
477 13.1461 4.09976 7.4008 0.5
478 2.87616 12.2573 2.28214 0.5
479 1.34699 5.38916 11.5572 0.5
480 7.68604 7.40405 8.27825 0.5
481 3.06166 3.00355 13.3133 0.5
482 0.321541 13.3055 10.0397 0.5
483 10.3561 9.85616 4.58861 0.5
484 8.77301 11.3886 9.44164 0.5
485 3.13186 6.48626 1.661 0.5
486 4.25153 1.36186 3.08526 0.5
487 4.91465 6.73462 7.47475 0.5
488 2.67888 9.57678 4.71679 0.5
489 4.2275 10.5538 10.2419 0.5
490 9.97607 11.4844 9.60206 0.5
491 5.89794 5.02714 2.60046 0.5
492 12.0576 4.36563 3.8272 0.5
493 8.03011 12.1356 1.99448 0.5
494 7.55116 6.86926 10.6891 0.5
495 0.421673 12.7366 4.07857 0.5
496 0.0563067 5.65788 9.67208 0.5
497 5.59644 2.31825 5.72718 0.5
498 13.0304 9.91156 11.5361 0.5
499 7.50855 6.58829 6.14579 0.5
500 7.47236 8.56025 11.1148 0.5
501 0.878722 0.780869 13.2974 0.5
502 7.95786 5.67268 13.216 0.5
503 4.82725 5.02618 1.77155 0.5
504 2.52769 9.51138 0.887201 0.5
505 6.77421 8.28532 11.131 0.5
506 4.31595 4.27145 12.5409 0.5
507 9.02318 3.37929 12.4167 0.5
508 2.7823 1.3373 9.73708 0.5
509 0.169589 8.79481 6.4384 0.5
510 4.58592 4.55449 10.2407 0.5
511 12.4959 3.833 3.43252 0.5
512 3.45965 7.5381 7.73481 0.5
513 7.80237 8.32059 9.06674 0.5
514 5.11621 3.63788 2.01841 0.5
515 6.26686 1.14165 8.71548 0.5
516 5.35286 1.58953 8.67403 0.5
517 2.71852 5.1703 5.80775 0.5
518 11.1181 7.22698 10.6062 0.5
519 0.0217603 7.31554 7.11684 0.5
520 0.644336 9.32689 3.74991 0.5
521 1.13342 0.257687 6.68811 0.5
522 12.6914 0.303663 5.43972 0.5
523 9.9699 13.1297 2.88941 0.5
524 11.011 1.89987 4.49756 0.5
525 6.63551 9.00586 10.2181 0.5
526 10.4585 7.35424 13.2547 0.5
527 8.69208 1.68956 11.5355 0.5
528 6.39225 10.2443 13.5487 0.5
529 4.09421 9.59635 8.50569 0.5
530 10.8558 7.17184 12.3653 0.5
531 8.82834 1.43512 10.2769 0.5
532 2.9407 7.93603 0.275672 0.5
533 8.6174 7.73868 5.29582 0.5
534 10.8793 1.51125 10.9614 0.5
535 8.57074 8.97083 0.185285 0.5
536 1.52422 8.76218 5.01625 0.5
537 3.58612 5.20118 10.4232 0.5
538 1.89043 12.9936 2.66531 0.5
539 3.33101 9.25411 4.52305 0.5
540 1.92961 7.59347 9.17722 0.5
541 11.1872 0.250225 7.39701 0.5
542 10.7173 1.76471 2.66164 0.5
543 11.3197 6.72686 10.6357 0.5
544 7.42216 8.86793 12.545 0.5
545 3.0199 12.4471 1.70712 0.5
546 10.2098 7.88098 12.4199 0.5
547 5.80387 0.435733 2.42805 0.5
548 10.1681 12.8769 12.9242 0.5
549 9.36504 8.09954 2.09088 0.5
550 10.955 7.62778 7.12906 0.5
551 1.64298 13.0303 3.12351 0.5
552 2.01683 7.30785 5.77462 0.5
553 9.67199 2.5466 4.88687 0.5
554 8.5719 0.495935 5.1477 0.5
555 9.02054 10.5641 0.304814 0.5
556 12.769 10.5239 0.99297 0.5
557 10.4838 4.78625 3.72524 0.5
558 11.4354 8.32073 8.54776 0.5
559 7.29244 2.60523 10.3236 0.5
560 7.94515 2.79083 3.73277 0.5
561 8.75103 7.14411 6.86385 0.5
562 9.8568 1.2795 4.47375 0.5
563 12.2461 4.39018 10.5192 0.5
564 2.27537 0.23958 1.35084 0.5
565 9.72873 4.70888 11.6564 0.5
566 6.79865 1.19113 1.55971 0.5
567 6.07563 7.70664 8.29757 0.5
568 8.73766 9.28908 12.8745 0.5
569 11.4928 12.7884 3.67909 0.5
570 13.1161 8.75208 8.3232 0.5
571 9.15646 3.08918 9.87759 0.5
572 5.76243 2.51759 11.1247 0.5
573 11.0928 3.4382 9.18622 0.5
574 1.61222 5.13116 9.38415 0.5
575 1.94902 1.3578 13.4236 0.5
576 10.2581 4.96691 12.0403 0.5
577 6.37625 0.635574 11.8213 0.5
578 3.82679 0.20119 9.46394 0.5
579 11.8735 2.10348 0.460608 0.5
580 6.69341 13.0023 6.05154 0.5
581 8.62403 1.35423 2.77279 0.5
582 6.14897 10.2089 11.2756 0.5
583 6.50088 2.54332 11.1784 0.5
584 2.47387 0.119826 12.4945 0.5
585 2.40553 1.5614 7.84214 0.5
586 11.9475 9.3331 12.5505 0.5
587 3.78986 12.8844 8.23684 0.5
588 6.99365 3.68104 13.1058 0.5
589 12.7316 3.88316 3.00461 0.5
590 2.32951 6.34637 0.6989 0.5
591 6.32864 3.35188 8.63142 0.5
592 4.84057 9.16075 5.77571 0.5
593 0.686298 7.00582 2.49999 0.5
594 4.03748 5.92775 0.909565 0.5
595 1.95405 10.7494 11.4843 0.5
596 0.249022 2.0815 8.75688 0.5
597 5.62562 9.99125 5.96781 0.5
598 11.6027 13.0844 0.594411 0.5
599 5.42327 5.88137 6.62464 0.5
600 5.3707 9.06161 10.7332 0.5
601 4.34435 1.10457 3.42137 0.5
602 1.66571 8.11249 4.76974 0.5
603 6.83794 11.6904 9.57903 0.5
604 8.90371 5.92974 7.45019 0.5
605 12.4767 3.74228 4.6355 0.5
606 11.3073 8.81667 4.90951 0.5
607 10.4211 6.87471 4.65884 0.5
608 6.12105 4.90828 5.29834 0.5
609 1.49937 7.78474 8.8012 0.5
610 0.219371 13.4079 6.52945 0.5
611 6.31086 7.19014 10.2967 0.5
612 9.81327 6.86133 7.92006 0.5
613 7.39423 2.58494 3.30711 0.5
614 7.80463 5.43997 3.08203 0.5
615 11.1184 13.5361 7.57395 0.5
616 0.868069 12.2828 5.33309 0.5
617 7.9185 3.07849 1.76755 0.5
618 9.06172 12.0853 1.46053 0.5
619 9.93572 4.16594 11.2392 0.5
620 8.86692 3.21329 10.8999 0.5
621 0.482776 13.0021 11.5498 0.5
622 5.90097 10.7224 13.115 0.5
623 2.18004 8.39513 10.9082 0.5
624 1.13369 8.96358 7.02577 0.5
625 10.9027 7.88947 9.11409 0.5
626 10.1369 2.15104 12.6611 0.5
627 6.4599 8.96568 8.85154 0.5
628 5.70807 7.64708 8.57644 0.5
629 5.15279 11.3928 3.70303 0.5
630 9.38758 7.04615 3.55934 0.5
631 5.15087 3.57266 0.282435 0.5
632 10.7475 12.8352 1.18047 0.5
633 0.479209 12.893 7.6116 0.5
634 10.3768 11.6184 9.86248 0.5
635 13.4127 1.9939 3.48585 0.5
636 6.56457 8.1931 5.61837 0.5
637 3.13583 6.87317 0.575698 0.5
638 0.0620067 5.84677 6.55617 0.5
639 3.39598 10.2921 7.52582 0.5
640 9.81194 5.88418 0.558297 0.5
641 2.29642 0.310136 2.33216 0.5
642 11.7741 12.3592 3.52176 0.5
643 7.81422 4.61033 5.28943 0.5
644 5.99246 2.31216 5.47264 0.5
645 8.14319 5.4302 13.2415 0.5
646 12.4598 7.74023 6.1877 0.5
647 6.12319 4.93961 10.6667 0.5
648 7.24989 2.04627 2.53837 0.5
649 4.90286 9.23075 0.962537 0.5
650 5.81479 8.29343 0.466486 0.5
651 10.4867 12.9903 1.98171 0.5
652 13.569 10.824 11.4717 0.5
653 13.177 4.64577 0.217615 0.5
654 6.34271 11.4751 12.0686 0.5
655 5.57759 12.1814 4.17168 0.5
656 12.1146 9.516 6.60521 0.5
657 1.52011 4.3403 13.4838 0.5
658 1.76212 8.92232 0.289943 0.5
659 9.45513 6.80172 6.46349 0.5
660 7.59805 6.22751 8.77872 0.5
661 3.65106 11.3793 9.3783 0.5
662 2.44393 4.74215 0.993936 0.5
663 12.7717 13.1656 2.86484 0.5
664 3.71266 4.69584 12.8935 0.5
665 8.72575 8.09887 1.73009 0.5
666 4.08989 13.4287 12.2405 0.5
667 9.30813 2.7825 5.11237 0.5
668 4.75817 7.71026 12.4458 0.5
669 6.54935 2.10339 12.1504 0.5
670 0.800336 7.26283 13.4739 0.5
671 5.28774 11.498 12.6294 0.5
672 8.49532 1.98055 6.04338 0.5
673 10.0546 10.0427 6.99487 0.5
674 8.32702 1.57865 1.24462 0.5
675 10.738 10.4749 12.6102 0.5
676 0.287989 6.35327 13.2139 0.5
677 5.53499 12.5374 9.69347 0.5
678 13.3807 10.8323 9.87202 0.5
679 2.34366 10.2451 12.9227 0.5
680 2.04585 7.96773 1.48844 0.5
681 12.7624 4.19429 4.70376 0.5
682 11.873 2.04385 8.99108 0.5
683 5.24821 4.07616 1.31721 0.5
684 2.30919 7.79166 11.2392 0.5
685 8.39679 1.65671 0.738284 0.5
686 9.30947 5.14954 6.51931 0.5
687 4.15731 7.37025 5.43305 0.5
688 13.1173 5.82224 1.59722 0.5
689 12.5958 6.08743 8.39347 0.5
690 12.2091 6.44842 8.5963 0.5
691 2.07814 11.2418 12.595 0.5
692 5.60434 4.65384 6.40616 0.5
693 13.4799 6.28857 6.32178 0.5
694 9.44988 2.7891 4.02861 0.5
695 1.61538 4.57465 6.7463 0.5
696 5.9868 5.56774 8.05272 0.5
697 6.03378 9.41542 4.1232 0.5
698 6.86611 9.99217 9.4661 0.5
699 2.62514 6.87666 0.0454543 0.5
700 0.957895 13.1666 8.50144 0.5
701 8.82819 12.3294 4.78994 0.5
702 5.45795 11.8542 12.3207 0.5
703 5.39541 13.4587 3.80713 0.5
704 10.7392 12.9671 2.48016 0.5
705 2.98408 0.542709 5.53262 0.5
706 5.48773 12.3169 7.00747 0.5
707 1.99803 12.0969 10.4116 0.5
708 9.84181 11.0465 6.28427 0.5
709 13.3886 13.3343 0.343213 0.5
710 5.09953 3.78379 3.53927 0.5
711 1.80606 4.04759 0.463098 0.5
712 4.79439 10.9514 7.92583 0.5
713 5.09743 12.3878 2.86294 0.5
714 1.9087 3.04881 1.17531 0.5
715 2.35567 8.25696 2.05826 0.5
716 4.85927 8.46919 8.11765 0.5
717 11.4074 13.4842 2.10378 0.5
718 3.20657 12.7987 0.273388 0.5
719 8.91681 10.2829 6.30621 0.5
720 6.53719 10.4991 3.90979 0.5
721 0.176492 0.52021 0.623422 0.5
722 10.1169 11.5916 11.7081 0.5
723 9.5729 6.44647 11.868 0.5
724 11.4897 9.0281 1.02489 0.5
725 5.79623 0.183364 2.93114 0.5
726 0.137195 6.20429 13.2961 0.5
727 4.3296 5.49023 12.5151 0.5
728 2.85715 3.33688 10.064 0.5
729 4.29703 8.34864 3.31795 0.5
730 2.06139 7.90735 9.40945 0.5
731 11.2245 10.5697 9.24076 0.5
732 2.48426 3.76033 2.40414 0.5
733 4.95721 13.2674 1.57295 0.5
734 0.463376 13.557 2.43008 0.5
735 13.2292 10.252 6.68205 0.5
736 12.0675 1.57475 11.0283 0.5
737 10.8485 12.3079 9.57132 0.5
738 7.84721 10.0725 1.13643 0.5
739 0.231413 11.0831 12.1702 0.5
740 0.455371 12.0497 10.6794 0.5
741 0.0601777 10.6823 12.4016 0.5
742 3.38464 7.83823 0.867488 0.5
743 7.36468 3.84397 13.2114 0.5
744 6.70855 1.42323 10.9587 0.5
745 0.640575 11.725 1.87933 0.5
746 13.0633 9.00815 10.7253 0.5
747 13.0243 0.441114 7.36115 0.5
748 2.12395 11.7181 6.43492 0.5
749 6.3637 10.0018 11.1648 0.5
750 2.40901 11.598 12.0835 0.5
751 7.43138 10.3005 1.31286 0.5
752 8.79869 12.8108 2.3632 0.5
753 8.94435 12.5032 7.70056 0.5
754 1.60177 8.66035 9.44299 0.5
755 10.6383 12.112 13.2939 0.5
756 4.64141 9.18683 11.6303 0.5
757 0.289746 10.9888 1.78363 0.5
758 9.84069 2.06227 9.621 0.5
759 11.9231 5.78173 7.88184 0.5
760 4.1907 5.83602 3.54881 0.5
761 6.32034 8.57204 13.1027 0.5
762 10.506 6.7093 11.7709 0.5
763 12.5604 8.27329 8.47587 0.5
764 12.1998 10.9107 5.89306 0.5
765 2.16789 10.888 0.178208 0.5
766 12.1447 8.77715 3.83222 0.5
767 1.95785 8.21689 1.27925 0.5
768 7.2689 4.06729 12.5776 0.5
769 3.49246 3.76322 8.47194 0.5
770 12.8593 2.15136 4.17358 0.5
771 8.92941 11.0992 11.6141 0.5
772 5.38763 8.38397 1.05437 0.5
773 8.02402 2.71202 0.570333 0.5
774 1.74226 10.8398 3.46465 0.5
775 7.31332 6.50595 10.1102 0.5
776 2.57395 8.2062 9.78855 0.5
777 6.81564 6.88445 11.1054 0.5
778 10.2977 2.57176 13.1479 0.5
779 3.35075 3.24326 13.0331 0.5
780 6.90237 6.45867 8.5947 0.5
781 1.59924 11.7617 8.5179 0.5
782 11.9909 1.59323 11.3574 0.5
783 11.2774 10.7306 9.59631 0.5
784 11.6929 0.569577 1.33726 0.5
785 9.89659 2.72962 4.4639 0.5
786 9.24841 2.80581 6.7137 0.5
787 1.83667 4.79644 9.57905 0.5
788 9.84391 1.32633 12.338 0.5
789 6.69893 1.03755 13.5527 0.5
790 3.74371 1.92171 1.10774 0.5
791 6.00851 3.88692 7.40499 0.5
792 4.71984 7.47515 10.1408 0.5
793 7.50807 7.58823 7.52528 0.5
794 5.14102 12.8477 5.09768 0.5
795 13.4364 11.823 1.42258 0.5
796 6.511 2.51653 13.1087 0.5
797 3.99169 8.61794 2.26101 0.5
798 2.20864 4.77554 10.5337 0.5
799 2.76386 2.66139 11.6526 0.5
800 10.9063 3.90955 7.40518 0.5
801 9.40123 3.64898 13.5398 0.5
802 2.15886 3.70807 9.2311 0.5
803 6.98391 10.0457 3.50221 0.5
804 9.56724 11.6535 6.82553 0.5
805 8.93602 1.77767 1.56999 0.5
806 4.18635 2.49212 5.99945 0.5
807 6.3321 6.91519 10.2522 0.5
808 5.40076 4.4473 9.35624 0.5
809 8.36864 5.81303 11.6993 0.5
810 2.68944 1.99936 5.25305 0.5
811 11.2835 1.78968 0.601589 0.5
812 3.63799 1.54796 6.68857 0.5
813 8.15593 9.96453 11.625 0.5
814 8.78892 0.743327 1.07786 0.5
815 7.87762 4.1723 12.3867 0.5
816 3.56456 8.85967 11.9187 0.5
817 10.8602 13.3336 2.97349 0.5
818 5.90927 10.2169 8.37651 0.5
819 8.1762 13.0997 6.87139 0.5
820 11.4245 5.8395 6.38806 0.5
821 3.01544 6.7143 1.48172 0.5
822 4.3976 4.8036 6.3534 0.5
823 0.18643 8.71212 11.5452 0.5
824 8.39177 3.83368 3.74661 0.5
825 9.44586 0.509559 0.181262 0.5
826 5.51482 8.1165 2.52754 0.5
827 2.87514 4.84421 12.2417 0.5
828 6.1891 8.67442 10.7855 0.5
829 0.463794 5.93097 7.38572 0.5
830 8.00713 10.0756 10.421 0.5
831 1.04469 9.53691 9.904 0.5
832 2.49199 3.17474 12.5574 0.5
833 11.7044 8.91623 5.32607 0.5
834 12.9649 13.1637 6.3901 0.5
835 13.0396 5.78018 12.8183 0.5
836 9.75838 1.04561 1.36056 0.5
837 11.0995 12.9652 10.0396 0.5
838 5.72547 11.0505 1.55609 0.5
839 2.88722 0.19697 2.56423 0.5
840 6.64508 0.907768 5.21737 0.5
841 8.92474 4.36992 6.01797 0.5
842 4.06666 0.486814 2.73386 0.5
843 10.7882 13.1504 0.910982 0.5
844 6.18246 12.8508 8.20674 0.5
845 9.18658 8.97265 8.09997 0.5
846 11.784 8.57992 1.1225 0.5
847 2.76001 6.30932 12.6257 0.5
848 1.97178 4.35264 8.35716 0.5
849 5.75142 10.9469 4.4457 0.5
850 1.55398 3.61884 7.05856 0.5
851 12.7863 12.0686 0.384265 0.5
852 4.49899 1.61078 0.299637 0.5
853 0.0660068 1.03521 4.26322 0.5
854 12.5625 4.00726 10.784 0.5
855 1.41881 8.19733 4.37125 0.5
856 3.9819 11.9597 10.5661 0.5
857 9.3413 11.5492 9.38452 0.5
858 3.17387 5.7735 1.8271 0.5
859 11.9055 8.48741 2.09143 0.5
860 9.64693 4.93249 11.2428 0.5
861 10.8147 9.03911 9.78002 0.5
862 2.8529 6.86904 9.08388 0.5
863 6.49073 5.24739 4.4786 0.5
864 8.74271 0.223996 4.50204 0.5
865 11.5323 11.1166 2.49818 0.5
866 12.9046 1.51091 7.45303 0.5
867 3.91789 5.27434 8.6321 0.5
868 12.4641 10.4026 5.54105 0.5
869 8.41978 13.2568 12.9276 0.5
870 4.92737 9.56844 9.25879 0.5
871 10.2735 6.55477 5.59643 0.5
872 3.35539 3.25295 2.49967 0.5
873 9.1031 10.8608 1.06567 0.5
874 0.452682 12.9613 3.98278 0.5
875 11.4453 9.59568 11.5351 0.5
876 8.4423 12.9807 12.5754 0.5
877 12.191 9.25491 12.3684 0.5
878 7.33182 3.3893 2.37658 0.5
879 2.30937 12.5343 11.8125 0.5
880 10.5758 12.9621 0.657495 0.5
881 11.6006 6.9404 7.09832 0.5
882 6.701 13.3714 3.68021 0.5
883 10.0984 12.8174 6.56538 0.5
884 3.92618 3.65924 12.6501 0.5
885 12.9645 1.4937 0.0473908 0.5
886 12.6601 4.10734 2.95308 0.5
887 4.14112 5.51469 5.73709 0.5
888 10.0488 1.86342 12.2446 0.5
889 0.573615 13.5386 8.04305 0.5
890 0.00202238 6.976 5.73415 0.5
891 12.3054 5.0068 5.32564 0.5
892 1.03951 2.2299 9.51326 0.5
893 5.06303 2.33742 3.87502 0.5
894 9.33771 0.97879 2.50078 0.5
895 11.0488 9.29855 4.52307 0.5
896 3.50279 0.86388 10.3887 0.5
897 5.3394 12.3226 10.4728 0.5
898 0.0543664 7.2846 1.08557 0.5
899 5.59508 1.51289 7.11117 0.5
900 11.9282 2.11203 5.62073 0.5
901 3.00461 1.35845 1.15719 0.5
902 3.66641 1.70264 7.97367 0.5
903 3.49442 13.2695 9.90012 0.5
904 6.69649 5.18482 1.05022 0.5
905 9.4087 8.75032 0.314698 0.5
906 0.00639616 11.5894 7.84197 0.5
907 7.24749 11.4625 2.11606 0.5
908 12.5423 7.18503 4.5407 0.5
909 12.0484 11.8148 6.45217 0.5
910 0.741909 4.68892 4.906 0.5
911 7.15889 10.6618 5.75824 0.5
912 1.05233 12.6952 12.692 0.5
913 5.40391 6.23509 9.84912 0.5
914 11.5192 4.02391 1.09872 0.5
915 0.624259 3.79822 0.52627 0.5
916 10.3631 5.82289 12.5712 0.5
917 0.0111441 10.6517 0.0135788 0.5
918 0.66568 13.3603 2.09239 0.5
919 5.17596 7.52395 9.46287 0.5
920 0.938008 8.74157 2.21237 0.5
921 5.82911 6.92436 0.148673 0.5
922 3.33903 2.42566 10.2557 0.5
923 13.3117 3.1465 5.26469 0.5
924 3.21357 3.91909 5.69102 0.5
925 13.089 4.5693 2.88062 0.5
926 6.90312 4.68588 13.0536 0.5
927 4.69626 9.74612 13.0514 0.5
928 3.52525 0.689006 5.05556 0.5
929 3.37559 4.75013 13.2669 0.5
930 13.2278 1.03585 7.31142 0.5
931 2.57867 7.52466 10.4353 0.5
932 1.38786 6.55014 8.02233 0.5
933 10.7829 12.2185 7.21552 0.5