ITEM: TIMESTEP
870000
ITEM: NUMBER OF ATOMS
1000
ITEM: BOX BOUNDS xy xz yz pp pp pp
0.0000000000000000e+00 1.3572088000000001e+01 0.0000000000000000e+00
0.0000000000000000e+00 1.3572088000000001e+01 0.0000000000000000e+00
0.0000000000000000e+00 1.3572088000000001e+01 0.0000000000000000e+00
ITEM: ATOMS id x y z radius
1 3.86145 8.01821 1.17163 0.5
2 10.5727 5.15536 10.6464 0.5
3 13.5557 11.1175 2.631 0.5
4 2.97869 5.12299 11.4563 0.5
5 11.0075 1.55096 1.44739 0.5
6 4.63357 12.1393 4.2121 0.5
7 8.10733 13.3883 1.70013 0.5
8 12.7012 6.61895 3.30084 0.5
9 0.791004 10.7392 10.0835 0.5
10 0.452515 2.77711 7.96447 0.5
11 5.69674 4.81188 3.81396 0.5
12 3.36844 1.94894 3.71102 0.5
13 5.72166 9.49723 2.82835 0.5
14 9.86905 2.72563 5.66317 0.5
15 8.20926 9.65962 12.6394 0.5
16 8.78218 1.18203 10.1545 0.5
17 3.12405 11.9978 5.81308 0.5
18 2.63852 0.958522 8.86481 0.5
19 0.316633 2.09013 1.20501 0.5
20 7.42632 5.65039 1.89903 0.5
21 6.66903 5.96256 7.22607 0.5
22 9.49627 2.0109 7.3093 0.5
23 3.81864 9.21994 10.9726 0.5
24 11.8447 8.49396 4.08496 0.5
25 1.70825 1.92159 11.0302 0.5
26 7.71102 9.14667 12.5256 0.5
27 13.3654 8.26013 9.61074 0.5
28 8.57458 7.98398 13.3801 0.5
29 11.2858 10.2692 13.2924 0.5
30 8.89888 8.39506 3.99499 0.5
31 7.95961 12.7047 0.16693 0.5
32 12.661 8.39653 0.389827 0.5
33 9.85689 2.29419 12.9658 0.5
34 8.19043 6.48884 11.61 0.5
35 11.9991 1.42976 7.16589 0.5
36 1.92554 10.1014 3.45145 0.5
37 1.92466 3.00823 0.943964 0.5
38 10.2251 3.36627 11.2757 0.5
39 2.60264 10.081 9.94127 0.5
40 10.861 11.2329 13.5205 0.5
41 11.8237 3.80905 13.5333 0.5
42 2.58198 0.767459 10.1987 0.5
43 4.29811 12.5778 1.96832 0.5
44 7.47809 5.54512 4.84653 0.5
45 6.57092 6.09781 2.25352 0.5
46 6.74567 11.4945 10.0168 0.5
47 7.58551 9.74507 6.52611 0.5
48 1.18425 12.4901 0.572439 0.5
49 6.40847 1.49541 3.47584 0.5
50 6.9427 11.3158 7.31166 0.5
51 5.66178 6.09639 5.2747 0.5
52 3.60827 9.48016 2.94667 0.5
53 12.8713 8.69187 3.16925 0.5
54 2.45201 12.0299 8.1283 0.5
55 12.013 5.72386 0.614493 0.5
56 8.64687 9.0692 2.28043 0.5
57 1.44225 11.0459 5.2308 0.5
58 6.87503 9.6271 7.46572 0.5
59 10.4153 9.28524 8.33055 0.5
60 12.3832 2.20235 5.61 0.5
61 3.44035 11.0412 3.92357 0.5
62 4.06196 11.6588 3.86145 0.5
63 8.65552 7.38182 9.20828 0.5
64 11.1106 1.27559 4.26731 0.5
65 11.7118 9.09938 12.8942 0.5
66 3.90562 6.8745 7.9079 0.5
67 13.3398 12.2835 1.29385 0.5
68 3.77713 2.48 5.32012 0.5
69 4.59544 5.36321 5.28226 0.5
70 10.0434 7.423 0.933711 0.5
71 0.929995 9.12273 0.925429 0.5
72 2.58799 10.0896 7.21303 0.5
73 1.15935 11.1816 7.61011 0.5
74 4.95231 12.2765 5.76332 0.5
75 4.14646 8.06093 11.2505 0.5
76 9.67074 8.26663 1.49625 0.5
77 0.522054 3.79857 11.8709 0.5
78 4.94902 13.1477 8.02387 0.5
79 12.8994 3.50698 5.09253 0.5
80 9.80262 3.3865 7.13625 0.5
81 1.83226 10.0345 12.3981 0.5
82 5.56741 9.91275 9.80361 0.5
83 4.28382 7.29557 0.188092 0.5
84 12.7955 7.74583 5.75927 0.5
85 12.4436 10.0467 7.01749 0.5
86 9.24047 1.94664 12.9795 0.5
87 1.50994 10.43 12.1731 0.5
88 3.2724 3.97633 10.8906 0.5
89 4.75578 3.67732 6.47152 0.5
90 10.5141 5.19874 9.80846 0.5
91 4.41512 13.4981 10.6669 0.5
92 11.9683 8.76312 1.33207 0.5
93 2.42405 2.52821 4.37707 0.5
94 0.412569 3.08038 0.941156 0.5
95 6.3262 13.4585 13.0813 0.5
96 2.37338 6.82792 3.53544 0.5
97 11.2658 2.93788 4.96603 0.5
98 8.18108 13.1074 12.5733 0.5
99 12.2508 11.2462 0.38306 0.5
100 6.17902 0.912335 11.1989 0.5
101 10.081 0.241854 10.1935 0.5
102 6.45068 3.41903 0.887092 0.5
103 4.97097 6.06654 5.26943 0.5
104 10.6716 12.3297 11.5773 0.5
105 0.720774 3.79065 10.5167 0.5
106 5.32554 13.1425 0.160423 0.5
107 0.662184 12.0872 7.96603 0.5
108 0.199859 3.83056 10.8858 0.5
109 11.319 13.5437 5.68003 0.5
110 5.36755 7.21743 13.0259 0.5
111 8.50826 10.3605 13.548 0.5
112 6.47389 3.90727 2.76371 0.5
113 12.4802 12.8842 13.2236 0.5
114 3.82833 11.7874 5.47309 0.5
115 9.31503 1.00517 9.1464 0.5
116 10.5173 9.70253 12.0207 0.5
117 6.81928 4.05107 13.3109 0.5
118 9.01249 0.75737 1.49796 0.5
119 11.1878 1.44082 9.27661 0.5
120 4.65236 8.02314 4.52778 0.5
121 1.38767 9.18162 8.46091 0.5
122 11.406 9.46839 7.26303 0.5
123 11.8802 9.93297 1.55834 0.5
124 11.0164 7.28503 4.06852 0.5
125 8.23226 9.80735 7.65954 0.5
126 3.99661 9.29293 7.76579 0.5
127 3.96721 2.51637 5.44433 0.5
128 9.61732 1.05356 6.38738 0.5
129 0.352507 11.7635 3.94154 0.5
130 9.19745 2.50124 0.50318 0.5
131 0.552535 6.51748 9.75132 0.5
132 12.1192 12.2547 6.6249 0.5
133 9.77395 8.95114 11.6834 0.5
134 4.82715 5.59919 3.10412 0.5
135 6.36747 12.2363 0.936743 0.5
136 4.55662 11.2828 8.02635 0.5
137 0.9014 4.63084 3.61485 0.5
138 0.27578 1.20898 4.01958 0.5
139 1.44779 11.2048 0.81907 0.5
140 6.04309 11.7098 9.39883 0.5
141 0.874466 6.24338 7.99868 0.5
142 3.42277 7.92737 11.7684 0.5
143 1.7754 5.54765 5.6325 0.5
144 7.33326 12.9659 5.4458 0.5
145 9.156 6.4317 3.19677 0.5
146 8.93722 2.29391 7.95835 0.5
147 0.268329 7.26032 1.28742 0.5
148 12.3541 9.57499 12.9198 0.5
149 7.54379 10.4456 8.90831 0.5
150 1.06697 6.22544 12.5467 0.5
151 2.13681 3.98431 10.3104 0.5
152 11.3862 7.35067 6.07722 0.5
153 11.553 7.51467 9.19427 0.5
154 2.83733 5.95966 3.05358 0.5
155 9.1102 9.06558 0.145602 0.5
156 5.86007 7.93167 3.93165 0.5
157 5.91855 13.0029 0.991692 0.5
158 2.39823 10.8181 1.65441 0.5
159 10.9735 8.88177 12.0089 0.5
160 2.84252 6.68214 5.95802 0.5
161 6.9806 10.6398 0.980402 0.5
162 9.85204 0.909991 11.6041 0.5
163 2.76645 1.24289 11.5882 0.5
164 5.81047 8.6087 10.637 0.5
165 2.11667 10.4927 12.7882 0.5
166 1.6335 3.16211 8.78224 0.5
167 3.51779 13.3547 2.33477 0.5
168 0.838108 9.85087 4.44495 0.5
169 3.97502 4.67662 6.1963 0.5
170 6.81368 7.58671 8.61157 0.5
171 3.80555 9.64257 7.49614 0.5
172 4.77676 10.6906 8.03312 0.5
173 9.85436 7.55964 7.92511 0.5
174 9.00087 11.723 7.18137 0.5
175 7.45818 7.68344 9.61919 0.5
176 5.4378 3.03599 8.53985 0.5
177 0.86461 12.9274 5.0996 0.5
178 1.91805 11.9086 9.74568 0.5
179 0.116436 2.11379 11.9648 0.5
180 2.78202 0.746044 6.22925 0.5
181 8.44277 1.90397 1.9041 0.5
182 10.5932 4.67527 10.7189 0.5
183 7.11041 9.59085 12.663 0.5
184 10.8676 11.5247 12.9443 0.5
185 3.19067 13.0111 6.86297 0.5
186 8.02938 4.06341 13.0064 0.5
187 4.84821 5.68823 0.691454 0.5
188 12.5144 2.45946 3.21246 0.5
189 9.3199 3.85573 5.94522 0.5
190 6.50706 2.25411 1.68076 0.5
191 6.74426 2.09291 0.52092 0.5
192 10.4535 7.05177 5.81377 0.5
193 5.87196 5.70494 13.2098 0.5
194 3.3925 11.7135 11.2274 0.5
195 1.63683 6.50278 9.13893 0.5
196 2.88455 12.9702 9.23472 0.5
197 2.80108 8.6363 7.90492 0.5
198 13.1098 4.73612 2.65094 0.5
199 9.47146 9.59134 4.51214 0.5
200 2.53729 11.9081 0.793233 0.5
201 9.29213 8.58898 1.78956 0.5
202 1.65687 12.3187 8.03275 0.5
203 13.0938 10.7294 0.979989 0.5
204 5.19075 0.789664 9.09359 0.5
205 12.6471 5.33712 7.12245 0.5
206 5.97254 7.14161 6.60272 0.5
207 13.0704 8.91793 1.27297 0.5
208 6.85996 1.5143 5.65419 0.5
209 2.11678 1.58936 12.3488 0.5
210 4.07615 6.72135 12.7448 0.5
211 0.434087 9.20326 0.324347 0.5
212 1.87162 2.88708 11.0348 0.5
213 12.7021 1.40652 7.45267 0.5
214 2.4544 11.7554 2.74391 0.5
215 5.26453 10.2756 10.3549 0.5
216 1.04744 10.4802 8.22526 0.5
217 3.43365 10.0403 6.40612 0.5
218 11.6778 2.43894 3.25517 0.5
219 4.8228 0.716454 0.0462709 0.5
220 11.6514 9.33216 4.09378 0.5
221 11.1663 2.66173 7.35901 0.5
222 8.65428 6.21024 1.10968 0.5
223 6.6409 5.68726 8.30198 0.5
224 8.18214 5.77009 12.077 0.5
225 12.5124 6.1209 13.4424 0.5
226 13.4148 11.3693 0.703489 0.5
227 11.1098 1.05293 5.4137 0.5
228 0.589167 3.91805 13.3669 0.5
229 1.15348 0.248486 6.27103 0.5
230 13.3638 4.42431 6.90719 0.5
231 9.8547 1.99605 12.9149 0.5
232 3.24321 11.05 5.51501 0.5
233 9.67888 5.36473 8.2687 0.5
234 6.19932 11.7467 7.13945 0.5
235 9.59952 5.39895 3.3862 0.5
236 5.08164 9.30143 0.778418 0.5
237 9.16823 2.88794 7.01673 0.5
238 10.9821 4.78282 1.38614 0.5
239 5.77472 13.4728 9.62255 0.5
240 2.88142 0.958107 3.90805 0.5
241 7.996 4.723 11.8045 0.5
242 4.11391 3.56013 3.94773 0.5
243 3.37002 1.88122 10.0861 0.5
244 8.47528 3.1307 3.38928 0.5
245 2.82518 3.63811 11.6942 0.5
246 4.31686 9.37043 10.47 0.5
247 11.404 5.84757 6.80388 0.5
248 9.23663 12.0687 1.38944 0.5
249 4.34627 6.05365 7.82947 0.5
250 1.69055 10.5857 6.16506 0.5
251 5.73487 3.66862 4.79872 0.5
252 5.60896 0.91947 4.25146 0.5
253 5.49792 4.77998 8.09118 0.5
254 8.15933 1.09706 1.40358 0.5
255 1.42699 11.8989 3.89179 0.5
256 3.70537 9.05092 7.55929 0.5
257 10.1864 4.8957 12.9925 0.5
258 1.97103 13.1734 7.01781 0.5
259 10.5793 9.63779 11.2679 0.5
260 13.3337 4.01022 3.05705 0.5
261 11.7218 3.24705 1.34485 0.5
262 7.62883 11.1696 10.5733 0.5
263 3.96681 1.183 5.78874 0.5
264 4.62704 13.5519 4.43292 0.5
265 12.1616 12.4225 7.34653 0.5
266 8.65876 3.31466 0.201305 0.5
267 1.14044 2.43598 2.21105 0.5
268 2.70394 6.04071 12.9305 0.5
269 9.43924 10.1396 7.17767 0.5
270 2.47095 2.20015 12.2515 0.5
271 8.56761 1.90122 7.34588 0.5
272 2.20436 0.927587 4.07927 0.5
273 2.35347 4.65974 13.1213 0.5
274 1.16447 5.75894 8.87291 0.5
275 12.8552 10.0002 11.683 0.5
276 12.3089 10.4683 5.9242 0.5
277 4.63442 2.73213 10.5167 0.5
278 7.90644 7.99183 12.2114 0.5
279 3.80015 11.4228 11.2782 0.5
280 1.90706 7.06428 1.21774 0.5
281 1.82577 0.105235 5.66212 0.5
282 5.85445 4.87521 1.52229 0.5
283 4.79292 11.2063 1.89491 0.5
284 4.17816 12.7822 1.6927 0.5
285 1.24868 3.84109 2.7802 0.5
286 12.7296 1.63273 2.51803 0.5
287 9.68022 13.4382 4.4343 0.5
288 4.53989 4.21154 9.03001 0.5
289 5.02008 3.7941 9.00855 0.5
290 2.09437 7.14066 5.6963 0.5
291 3.41754 5.31074 3.8118 0.5
292 9.03394 12.3154 1.34927 0.5
293 13.1906 13.5625 11.8058 0.5
294 1.76105 7.6355 0.276395 0.5
295 12.4425 7.40979 6.36423 0.5
296 9.86447 12.2614 7.0553 0.5
297 9.60531 8.73002 10.5254 0.5
298 13.0434 9.44109 1.48264 0.5
299 6.3929 9.40258 1.37098 0.5
300 12.8261 0.961367 2.24468 0.5
301 0.503855 3.20514 10.227 0.5
302 8.8641 0.668543 0.6005 0.5
303 7.23062 2.08134 9.32511 0.5
304 0.47624 6.71688 9.00442 0.5
305 12.5449 11.5742 6.1503 0.5
306 10.4938 7.77041 11.3587 0.5
307 9.06557 3.82626 10.3351 0.5
308 0.866541 8.30387 0.329595 0.5
309 7.29165 4.70096 4.12623 0.5
310 1.28457 10.5612 0.800247 0.5
311 8.26542 13.0513 11.2268 0.5
312 7.83208 6.10717 12.9947 0.5
313 11.8483 2.37223 12.2455 0.5
314 2.77964 4.82702 2.46107 0.5
315 4.75509 0.577495 0.419277 0.5
316 11.283 10.6829 8.61421 0.5
317 9.59939 9.50447 10.9364 0.5
318 12.4552 12.4705 12.1468 0.5
319 0.493119 4.48574 11.2857 0.5
320 6.81366 13.4846 6.74021 0.5
321 1.4614 10.1648 6.71744 0.5
322 8.17301 8.1394 7.41495 0.5
323 7.56947 1.18045 6.30644 0.5
324 12.6699 6.00863 7.83068 0.5
325 5.30656 6.48456 3.40229 0.5
326 11.9186 2.06941 10.2869 0.5
327 12.2509 7.81589 6.6628 0.5
328 12.3088 11.3384 5.30116 0.5
329 5.75101 11.1102 3.96928 0.5
330 11.6886 12.7124 8.77551 0.5
331 5.7067 10.2836 9.53122 0.5
332 9.59034 6.13812 4.54329 0.5
333 7.96263 4.13012 11.3398 0.5
334 10.943 10.8889 13.4717 0.5
335 11.5199 10.9252 6.36764 0.5
336 3.63076 1.10003 6.54581 0.5
337 10.4463 6.21666 2.84058 0.5
338 5.53724 9.6544 12.9891 0.5
339 3.20455 3.86996 1.44763 0.5
340 11.0521 9.22174 4.46909 0.5
341 10.9887 13.0372 11.3141 0.5
342 5.80451 3.29253 3.1654 0.5
343 0.31004 7.20555 9.55767 0.5
344 1.00895 9.47945 9.84731 0.5
345 3.53998 6.55489 7.34391 0.5
346 7.60833 9.94518 7.75239 0.5
347 11.9648 12.7562 1.97703 0.5
348 9.63801 1.2409 5.11889 0.5
349 9.00289 1.15425 9.64022 0.5
350 2.43141 0.597857 13.1438 0.5
351 9.76194 3.81026 11.1584 0.5
352 12.2832 12.669 10.7871 0.5
353 5.08653 3.71922 0.213692 0.5
354 4.05215 4.05678 1.94696 0.5
355 6.97868 4.88185 2.48508 0.5
356 5.59757 1.62901 9.16612 0.5
357 2.97314 2.45701 6.58432 0.5
358 3.63178 3.21491 6.13448 0.5
359 4.16369 7.63928 8.33328 0.5
360 6.30373 9.55551 8.47544 0.5
361 6.08554 6.81175 8.73374 0.5
362 11.871 1.31329 11.4012 0.5
363 5.73876 10.0838 12.9825 0.5
364 8.81575 13.0329 4.12806 0.5
365 2.01709 4.11641 7.4004 0.5
366 2.31368 11.631 11.0664 0.5
367 4.34589 9.9854 2.15966 0.5
368 8.65828 8.04094 7.80605 0.5
369 13.2101 12.3282 2.14958 0.5
370 4.50731 5.2437 7.58561 0.5
371 5.52311 11.7915 6.32246 0.5
372 13.0666 3.80788 5.13362 0.5
373 13.0689 0.307907 12.3669 0.5
374 11.1893 4.11507 12.195 0.5
375 12.5193 5.99252 2.82188 0.5
376 7.93629 12.7937 7.27519 0.5
377 1.74373 4.06534 5.68834 0.5
378 0.744163 11.6631 10.9134 0.5
379 3.39733 10.6502 11.8749 0.5
380 12.93 9.11884 11.1464 0.5
381 5.85553 3.2431 6.67522 0.5
382 12.3151 2.12811 9.60777 0.5
383 9.33565 0.696121 6.85869 0.5
384 12.6382 11.9515 11.6812 0.5
385 11.8393 13.3279 9.16158 0.5
386 2.38613 6.23109 11.3204 0.5
387 10.5177 1.04371 1.83086 0.5
388 2.33174 1.53355 2.13247 0.5
389 10.3633 11.3357 4.4294 0.5
390 4.33193 11.5632 10.501 0.5
391 9.18006 3.19937 0.652546 0.5
392 12.6979 7.87461 3.59503 0.5
393 7.99289 9.94341 6.32034 0.5
394 8.4447 2.58673 6.24219 0.5
395 0.913583 3.30929 4.52437 0.5
396 3.48919 10.3306 11.9221 0.5
397 6.75231 13.4557 6.3265 0.5
398 6.04254 5.74401 11.6041 0.5
399 5.02574 4.90512 8.57566 0.5
400 12.4292 8.82928 11.9425 0.5
401 6.70388 10.8285 11.0392 0.5
402 6.76014 10.2645 10.9342 0.5
403 8.27514 8.54491 0.57634 0.5
404 0.639096 8.77348 0.585491 0.5
405 7.84802 1.46097 12.8827 0.5
406 8.13058 8.71304 2.71257 0.5
407 4.11307 6.81198 11.7402 0.5
408 5.52637 11.5506 9.24069 0.5
409 12.7046 10.4929 4.89959 0.5
410 13.4441 12.1904 0.705618 0.5
411 5.77484 4.76892 8.73931 0.5
412 9.34893 2.33097 4.84355 0.5
413 12.6697 11.2755 9.68277 0.5
414 1.86832 10.9981 12.5898 0.5
415 12.0137 8.48757 12.0062 0.5
416 1.97336 12.2274 6.84514 0.5
417 10.9804 7.55824 11.0778 0.5
418 12.8813 12.1325 8.48341 0.5
419 9.45835 12.8419 9.47315 0.5
420 12.2586 6.87 7.00135 0.5
421 13.384 8.77346 8.45269 0.5
422 1.18232 5.2833 6.05317 0.5
423 0.428969 7.8995 13.0362 0.5
424 4.30255 11.4 11.6215 0.5
425 3.10485 8.53131 2.81433 0.5
426 9.26465 1.32734 10.0349 0.5
427 13.4151 10.0422 7.51699 0.5
428 4.07049 4.6488 7.45396 0.5
429 10.7424 9.19082 10.8815 0.5
430 2.31808 3.46911 2.86558 0.5
431 8.34525 4.11983 11.4494 0.5
432 5.27045 4.1877 0.375418 0.5
433 5.31341 8.31221 1.46794 0.5
434 4.02905 13.1353 12.6016 0.5
435 3.58703 9.20711 11.3294 0.5
436 11.8023 5.58374 13.2351 0.5
437 12.2599 7.34228 2.37303 0.5
438 11.6642 2.79292 3.07717 0.5
439 11.723 1.74867 5.17789 0.5
440 4.21141 7.95035 2.11625 0.5
441 8.90595 6.68766 9.49515 0.5
442 11.1143 4.02853 3.01425 0.5
443 1.04036 3.432 10.8405 0.5
444 10.3724 7.24024 3.47956 0.5
445 12.0461 1.94949 9.64475 0.5
446 5.02154 2.0711 11.0793 0.5
447 3.16967 8.23561 13.3409 0.5
448 1.71792 10.1325 3.37245 0.5
449 1.64421 7.44443 9.35323 0.5
450 3.17237 6.91408 12.5572 0.5
451 8.34372 12.9813 5.73655 0.5
452 4.36547 6.8182 2.87599 0.5
453 12.6085 8.60408 8.67796 0.5
454 10.7504 5.56139 9.48638 0.5
455 1.35668 5.82767 1.83645 0.5
456 4.69243 3.89181 12.2993 0.5
457 9.90061 2.51223 8.92536 0.5
458 1.96949 10.147 5.48793 0.5
459 13.573 7.63788 6.29336 0.5
460 1.99352 8.21886 12.6507 0.5
461 3.33827 4.23668 0.424862 0.5
462 4.28802 5.20566 1.43287 0.5
463 7.90101 0.727779 8.32192 0.5
464 10.1005 6.00376 4.62123 0.5
465 7.00167 5.11925 0.351402 0.5
466 3.59093 12.7254 5.78233 0.5
467 1.52752 8.70561 13.4855 0.5
468 11.972 6.21225 4.34142 0.5
469 4.21727 11.7109 13.1147 0.5
470 4.56506 10.6962 0.375693 0.5
471 3.36308 8.87141 8.76949 0.5
472 0.225512 10.0344 9.8319 0.5
473 12.3333 12.8354 7.07495 0.5
474 10.808 12.7651 4.33522 0.5
475 2.22449 2.13666 3.22468 0.5
476 13.4884 5.85442 2.69793 0.5
477 4.67281 10.9584 0.410607 0.5
478 3.79688 0.840943 13.4126 0.5
479 5.26602 8.53806 1.83802 0.5
480 11.6035 9.54583 0.122254 0.5
481 7.31479 6.27645 7.23639 0.5
482 8.2662 8.28254 4.8761 0.5
483 6.87175 4.71271 3.28881 0.5
484 3.4312 6.50468 7.60693 0.5
485 3.83612 3.33735 3.60151 0.5
486 6.1808 4.55172 9.04476 0.5
487 7.05572 5.26104 3.93685 0.5
488 4.04671 0.325139 8.00077 0.5
489 0.262948 4.55915 11.3018 0.5
490 5.54856 11.1867 7.261 0.5
491 8.62261 5.42971 8.69058 0.5
492 12.9631 12.8131 8.61985 0.5
493 9.83192 1.00407 8.6276 0.5
494 9.94409 12.1505 6.21206 0.5
495 6.65347 7.7506 8.50366 0.5
496 6.70237 11.3325 1.23726 0.5
497 9.91842 9.0461 0.663397 0.5
498 13.4217 0.915784 9.97425 0.5
499 6.75547 13.5079 0.940648 0.5
500 3.00704 7.1438 6.03558 0.5
501 6.07345 9.79066 4.61498 0.5
502 11.0952 2.41229 8.82737 0.5
503 1.00739 6.42803 8.61892 0.5
504 12.9088 10.3957 0.260014 0.5
505 11.9995 3.35456 1.52363 0.5
506 2.52994 5.64206 0.227434 0.5
507 3.60611 2.91721 7.3673 0.5
508 1.98193 9.18399 13.4581 0.5
509 1.41781 11.4346 9.27699 0.5
510 11.1175 3.64237 5.02203 0.5
511 1.45843 0.516721 10.468 0.5
512 4.66992 12.7959 4.22206 0.5
513 4.24056 2.26987 11.3311 0.5
514 13.1191 11.5977 10.1705 0.5
515 13.0416 9.75052 9.32014 0.5
516 6.81118 7.54148 0.540264 0.5
517 3.72209 1.0118 4.94347 0.5
518 6.25154 1.78389 4.79631 0.5
519 5.28242 4.99739 11.8499 0.5
520 12.3956 1.90829 4.34044 0.5
521 5.05639 8.40761 9.97458 0.5
522 9.3037 1.27149 4.96564 0.5
523 0.754349 0.879789 6.37322 0.5
524 6.4476 2.79439 9.74948 0.5
525 7.2676 7.19233 8.25536 0.5
526 10.3228 12.78 12.8113 0.5
527 11.3769 1.47867 8.93976 0.5
528 12.9749 10.047 7.74273 0.5
529 1.46765 8.87535 8.05261 0.5
530 8.24088 6.15094 0.882844 0.5
531 11.3873 0.311588 3.08833 0.5
532 12.2814 5.34774 9.66876 0.5
533 9.30839 1.84995 7.85034 0.5
534 12.2727 11.7065 4.67687 0.5
535 4.65388 12.3364 1.76572 0.5
536 13.2959 6.70501 0.580449 0.5
537 5.785 13.4455 9.78667 0.5
538 12.9854 4.61131 2.89166 0.5
539 11.1577 12.4269 3.58939 0.5
540 0.577409 7.04285 10.5336 0.5
541 0.0447915 13.0515 7.72997 0.5
542 9.80188 4.0504 11.8745 0.5
543 0.424708 13.569 1.29997 0.5
544 0.953252 11.2502 1.9698 0.5
545 12.08 5.06237 2.49399 0.5
546 1.01776 9.90631 4.82954 0.5
547 13.3063 7.96045 2.16381 0.5
548 0.154721 10.6646 12.4612 0.5
549 8.43826 2.46966 6.09859 0.5
550 1.30049 10.6341 13.2915 0.5
551 6.67399 6.76759 6.15518 0.5
552 5.87422 1.30863 12.567 0.5
553 5.06106 1.22714 0.705175 0.5
554 3.98529 7.95732 10.2719 0.5
555 7.75639 2.17835 4.5654 0.5
556 9.84648 4.10769 3.54861 0.5
557 9.09513 7.46497 13.0327 0.5
558 5.29038 11.0067 5.53228 0.5
559 0.263466 5.94192 8.22613 0.5
560 0.125477 7.74793 3.25367 0.5
561 4.79003 10.1988 11.049 0.5
562 1.11904 12.1558 10.525 0.5
563 2.92232 2.27258 3.89848 0.5
564 7.30564 2.98314 9.15109 0.5
565 1.12437 10.0005 9.75109 0.5
566 13.4179 4.56699 12.0669 0.5
567 8.07242 0.778572 12.7317 0.5
568 9.98944 3.83147 10.0075 0.5
569 8.67095 2.00955 11.6978 0.5
570 0.624222 0.796309 8.62036 0.5
571 9.00921 11.3418 4.93689 0.5
572 3.97106 7.66437 3.28066 0.5
573 10.7867 9.02978 11.8382 0.5
574 7.39711 5.8596 8.36166 0.5
575 6.62306 13.5467 2.32638 0.5
576 9.05707 6.18584 1.79906 0.5
577 5.87229 9.8771 8.73999 0.5
578 11.2201 5.37229 11.0227 0.5
579 3.44504 2.57268 4.52888 0.5
580 3.66858 3.14325 4.29612 0.5
581 8.55559 2.33341 13.2252 0.5
582 5.64271 9.45942 11.4769 0.5
583 0.5 5.94871 4.87856 0.5
584 12.3782 11.2096 8.70265 0.5
585 10.4744 13.1146 4.84008 0.5
586 2.37801 4.22068 6.33204 0.5
587 12.8574 4.21954 9.68232 0.5
588 5.0318 3.93953 8.66396 0.5
589 8.94015 11.0713 1.98837 0.5
590 2.36733 6.83858 3.88628 0.5
591 2.71286 2.81621 4.2108 0.5
592 12.2793 10.7084 6.85099 0.5
593 10.273 0.823222 12.3369 0.5
594 8.63452 8.97412 10.4459 0.5
595 12.2566 4.4681 6.74315 0.5
596 0.719535 12.9949 1.47751 0.5
597 3.62516 7.63484 9.21307 0.5
598 8.53801 4.19346 0.717056 0.5
599 9.20447 8.9386 5.46783 0.5
600 6.49557 13.4403 3.43426 0.5
601 2.36304 2.59448 3.3003 0.5
602 4.67213 10.4276 11.4261 0.5
603 4.23529 2.06362 11.8998 0.5
604 3.41347 6.27758 1.4708 0.5
605 6.45789 1.12946 4.28308 0.5
606 2.21283 1.02261 3.94045 0.5
607 0.147157 11.2219 5.04747 0.5
608 12.8356 11.5965 10.0436 0.5
609 5.84424 4.84946 9.69666 0.5
610 13.4662 6.35383 4.63963 0.5
611 6.96387 3.04383 4.01596 0.5
612 10.3931 12.6817 7.57694 0.5
613 10.8877 10.5046 9.70569 0.5
614 9.62681 4.22984 3.45246 0.5
615 3.6737 1.54086 3.03468 0.5
616 8.64434 10.8907 4.6225 0.5
617 5.36584 7.88319 12.8406 0.5
618 12.2593 12.2639 9.03603 0.5
619 0.38249 6.70618 7.65771 0.5
620 6.87266 10.998 6.88887 0.5
621 0.662791 9.89443 4.73638 0.5
622 10.5352 4.29059 5.89756 0.5
623 11.4437 5.47047 2.45185 0.5
624 11.9731 11.4656 13.5063 0.5
625 2.12165 6.44895 13.026 0.5
626 2.80435 13.4554 8.95954 0.5
627 8.4049 4.73569 0.112466 0.5
628 7.66174 2.3064 2.12694 0.5
629 2.47891 8.95862 11.9818 0.5
630 6.26233 12.6696 13.4021 0.5
631 6.43491 8.40482 5.16559 0.5
632 12.3715 3.3759 9.49874 0.5
633 4.98581 7.54167 10.4528 0.5
634 11.0849 6.55462 10.3066 0.5
635 10.1937 12.1784 9.43114 0.5
636 0.904516 9.3783 5.00351 0.5
637 4.59906 5.37399 1.4841 0.5
638 12.7371 13.1377 11.4927 0.5
639 7.11605 11.3483 2.18859 0.5
640 1.39152 12.9166 12.5868 0.5
641 12.7653 0.706785 5.43305 0.5
642 1.82696 5.63232 2.84451 0.5
643 13.2002 3.59676 6.63858 0.5
644 3.07286 11.7552 4.55598 0.5
645 5.077 8.40532 1.28542 0.5
646 11.4954 5.25364 5.57716 0.5
647 7.55917 3.37787 7.94523 0.5
648 6.05924 4.88603 6.87937 0.5
649 5.66362 12.3214 1.76011 0.5
650 11.1601 10.9953 2.84883 0.5
651 1.33271 10.5615 12.5743 0.5
652 11.1077 11.2357 10.1441 0.5
653 6.41851 0.224864 1.50188 0.5
654 0.804904 9.02682 1.0261 0.5
655 13.4826 11.0603 6.61673 0.5
656 8.08369 9.84782 0.578197 0.5
657 12.2193 8.55425 11.4807 0.5
658 2.92223 4.14528 2.15226 0.5
659 10.6118 2.53279 2.03648 0.5
660 2.33526 5.32636 10.4437 0.5
661 4.24256 3.74819 13.5384 0.5
662 10.1692 2.99988 5.17326 0.5
663 12.61 5.59631 8.46296 0.5
664 11.8065 12.4592 3.04388 0.5
665 4.66153 8.00611 6.41556 0.5
666 7.78346 6.22632 7.80433 0.5
667 7.15522 9.82287 9.6206 0.5
668 4.28833 12.2645 12.2012 0.5
669 8.87593 9.10109 8.98616 0.5
670 10.7681 4.83116 5.32953 0.5
671 1.17535 5.66312 3.39364 0.5
672 10.8176 3.3692 8.36782 0.5
673 10.1048 7.44133 2.06279 0.5
674 4.98234 12.5647 12.7629 0.5
675 12.4641 11.9579 2.88098 0.5
676 10.9419 6.56706 2.43613 0.5
677 5.15923 10.0066 10.0867 0.5
678 2.75561 9.38821 5.002 0.5
679 2.95804 3.85965 13.4892 0.5
680 4.14002 11.6858 1.74692 0.5
681 11.8586 4.96223 1.37657 0.5
682 12.8913 7.33118 6.78481 0.5
683 13.1418 12.1618 7.00259 0.5
684 2.90256 7.73053 4.0011 0.5
685 6.35586 13.486 7.59526 0.5
686 5.69068 2.60448 0.612566 0.5
687 4.04258 6.39662 5.23316 0.5
688 7.096 7.89524 2.62096 0.5
689 1.16535 2.77011 13.1172 0.5
690 11.383 12.7282 10.244 0.5
691 6.68238 9.50445 12.9072 0.5
692 7.56656 2.57484 6.26962 0.5
693 7.74775 5.25167 3.4835 0.5
694 5.26252 12.8808 7.72114 0.5
695 8.11372 9.94339 11.2377 0.5
696 4.38341 8.87322 5.10738 0.5
697 10.7398 3.265 0.495613 0.5
698 1.9858 6.85251 4.67211 0.5
699 2.47583 4.4604 5.83236 0.5
700 8.88895 10.0669 7.13591 0.5
701 11.3835 10.1006 8.73756 0.5
702 4.9943 3.99637 7.45365 0.5
703 2.16552 3.85179 0.903216 0.5
704 9.79896 9.18642 12.8419 0.5
705 12.8117 12.3287 0.28792 0.5
706 1.12331 0.191867 10.7849 0.5
707 12.1135 5.11746 5.74405 0.5
708 0.735495 5.30705 8.19863 0.5
709 6.51518 9.66592 9.40221 0.5
710 6.7865 7.18023 0.121165 0.5
711 8.00086 3.02118 10.0398 0.5
712 0.0737415 12.8929 13.4737 0.5
713 12.7467 0.697346 12.5359 0.5
714 4.32913 10.0386 3.12846 0.5
715 6.90267 1.05691 9.30362 0.5
716 4.46883 10.6369 3.69007 0.5
717 8.40665 4.68719 3.83381 0.5
718 4.33285 10.9411 7.23105 0.5
719 13.2959 2.93886 5.9425 0.5
720 3.3618 9.10319 5.58062 0.5
721 11.2881 11.2002 2.63799 0.5
722 5.66705 2.3258 6.02032 0.5
723 12.9914 9.50315 12.8054 0.5
724 6.61154 13.0612 5.63498 0.5
725 1.81032 9.17305 6.7713 0.5
726 6.84224 1.64405 12.0893 0.5
727 12.8977 13.5853 9.90492 0.5
728 1.94396 2.85756 2.50514 0.5
729 7.40468 3.99132 12.6478 0.5
730 1.29453 8.35246 3.59921 0.5
731 0.192187 0.478314 11.6591 0.5
732 5.02504 10.0601 1.93804 0.5
733 9.28997 12.1941 3.00288 0.5
734 12.7189 11.0261 8.59825 0.5
735 6.4211 4.121 2.55082 0.5
736 10.8069 8.64372 9.07168 0.5
737 4.57435 3.36944 7.78966 0.5
738 5.58836 10.1694 12.6292 0.5
739 9.2603 4.4616 11.5116 0.5
740 2.92504 7.0101 10.3904 0.5
741 6.189 0.603086 8.70242 0.5
742 1.48438 0.618286 8.92593 0.5
743 7.96417 8.3974 1.28686 0.5
744 6.6228 10.5639 11.8211 0.5
745 3.45683 6.76389 2.09915 0.5
746 8.9011 8.53666 8.01404 0.5
747 2.11115 2.82896 4.65503 0.5
748 0.540335 2.75873 12.3691 0.5
749 9.48725 10.9982 9.38612 0.5
750 4.4733 5.47209 5.22411 0.5
751 10.3681 9.81682 10.2735 0.5
752 13.544 2.74198 7.61395 0.5
753 11.4584 7.62559 8.24148 0.5
754 4.72175 11.7179 8.62501 0.5
755 7.56855 12.7891 6.78485 0.5
756 8.10529 4.83677 8.986 0.5
757 8.15179 8.95207 9.86498 0.5
758 11.5757 1.97665 11.0624 0.5
759 4.61328 1.08499 2.21784 0.5
760 12.911 1.25597 6.0733 0.5
761 9.22746 9.57758 2.4652 0.5
762 6.16686 13.2879 5.42895 0.5
763 10.5681 3.28547 11.828 0.5
764 7.30055 6.50406 10.5488 0.5
765 8.83905 13.4109 4.86332 0.5
766 11.5595 0.675968 7.38603 0.5
767 12.0943 2.88787 7.87119 0.5
768 6.8292 9.71659 3.30174 0.5
769 0.785944 12.7323 0.189948 0.5
770 5.23166 2.56796 8.12433 0.5
771 5.31172 1.64713 7.30974 0.5
772 7.50628 12.3403 7.51986 0.5
773 5.4525 1.73992 1.6087 0.5
774 13.3658 1.75322 0.476344 0.5
775 3.41647 1.55956 10.8638 0.5
776 3.40428 0.330287 7.15721 0.5
777 7.86636 11.2224 1.78028 0.5
778 4.29828 12.5837 8.91709 0.5
779 8.21009 5.97814 12.8002 0.5
780 7.28472 5.61337 8.53093 0.5
781 12.7645 2.12332 0.415152 0.5
782 5.2858 4.58037 11.6399 0.5
783 11.4977 8.7003 3.93208 0.5
784 2.12812 10.0141 12.4856 0.5
785 3.17653 7.45679 10.2259 0.5
786 5.43906 11.9116 4.38259 0.5
787 6.7237 11.6013 2.07124 0.5
788 6.10467 2.11243 4.88134 0.5
789 13.4 13.2217 4.72317 0.5
790 7.00781 2.03035 5.50413 0.5
791 10.721 7.935 9.66142 0.5
792 9.25673 13.3555 10.6366 0.5
793 8.70013 8.27466 4.62777 0.5
794 8.30273 0.67284 3.48636 0.5
795 0.185753 4.8911 9.98861 0.5
796 6.3313 2.76684 0.438146 0.5
797 2.46492 12.2001 10.0711 0.5
798 3.19528 4.49559 11.6331 0.5
799 0.326522 8.82871 4.50355 0.5
800 6.2653 8.34365 2.38013 0.5
801 2.3857 7.0535 2.20189 0.5
802 2.92406 8.40443 7.93422 0.5
803 11.8116 2.97049 5.79131 0.5
804 8.17398 7.77653 11.9838 0.5
805 7.37602 3.06225 3.64907 0.5
806 1.33047 5.67901 10.3616 0.5
807 3.99198 10.9816 3.80631 0.5
808 13.3948 3.69256 1.57119 0.5
809 1.12616 12.0389 5.55646 0.5
810 0.595178 2.2473 4.973 0.5
811 4.00473 9.35319 13.3722 0.5
812 12.6106 9.49758 6.17636 0.5
813 6.83208 6.75226 9.95325 0.5
814 12.672 13.1405 10.5323 0.5
815 4.63538 1.05573 3.23423 0.5
816 1.73422 10.3092 2.91723 0.5
817 7.88722 1.53709 9.29648 0.5
818 11.0123 1.03444 7.81401 0.5
819 3.55607 6.39948 8.04371 0.5
820 8.32502 0.634022 11.182 0.5
821 9.67027 12.6781 11.0777 0.5
822 6.24597 4.74601 12.3671 0.5
823 11.2679 0.746773 8.12673 0.5
824 13.4137 3.04675 11.2634 0.5
825 4.03271 10.5711 8.4254 0.5
826 3.48522 11.832 8.63314 0.5
827 13.3484 6.0502 13.1028 0.5
828 0.645117 13.2895 2.41673 0.5
829 6.98994 8.13674 10.955 0.5
830 3.33341 4.15448 8.31301 0.5
831 5.38197 5.20275 1.45451 0.5
832 5.51452 8.23803 5.56235 0.5
833 2.72607 10.8113 4.22047 0.5
834 13.5509 0.0110939 8.35556 0.5
835 4.72513 8.42349 11.6254 0.5
836 6.35038 7.91547 9.48921 0.5
837 8.08413 8.01282 0.738318 0.5
838 8.48318 10.868 2.68912 0.5
839 9.38749 5.36148 10.5725 0.5
840 4.75205 4.24042 6.50357 0.5
841 9.28564 13.2805 3.44509 0.5
842 11.0502 4.38049 6.94118 0.5
843 11.9729 11.6895 9.47226 0.5
844 4.88901 6.45768 9.762 0.5
845 6.7125 9.02723 2.63937 0.5
846 7.52339 1.51986 5.8944 0.5
847 11.22 3.18864 11.76 0.5
848 5.53561 8.94401 5.3923 0.5
849 6.6278 13.0205 7.60757 0.5
850 13.466 9.688 12.7778 0.5
851 8.07618 2.73885 3.65229 0.5
852 0.486981 5.73661 0.9693 0.5
853 7.57686 7.9851 5.37824 0.5
854 7.23306 5.60485 13.4105 0.5
855 1.84024 9.04107 7.66968 0.5
856 6.98827 1.09727 8.61861 0.5
857 0.575369 11.8245 5.43714 0.5
858 8.66848 5.39718 4.44478 0.5
859 10.35 6.7799 6.06114 0.5
860 12.9169 10.1495 11.4968 0.5
861 0.926909 6.3936 5.22733 0.5
862 6.30012 10.7107 1.32748 0.5
863 1.62585 6.91112 6.66378 0.5
864 3.11079 7.55706 10.7758 0.5
865 6.76611 12.6198 13.4325 0.5
866 5.25808 5.86257 8.46846 0.5
867 3.13773 12.2704 0.57372 0.5
868 10.5956 9.37601 6.34142 0.5
869 8.62181 9.43191 13.2711 0.5
870 9.74785 10.2942 0.512422 0.5
871 1.59299 8.30183 2.63441 0.5
872 3.48892 2.24873 12.6628 0.5
873 8.44128 8.84173 8.17106 0.5
874 11.0534 2.88905 9.41631 0.5
875 10.0718 4.37119 3.04588 0.5
876 1.98339 0.918664 7.24952 0.5
877 9.20557 9.83097 9.15821 0.5
878 0.361638 7.26807 7.94245 0.5
879 5.70033 1.31393 0.324243 0.5
880 0.888708 6.81442 3.86122 0.5
881 11.2378 13.4694 2.83058 0.5
882 3.16333 9.54925 2.49853 0.5
883 7.27213 1.3329 0.751039 0.5
884 4.33452 6.04961 3.34213 0.5
885 4.30303 9.39557 8.12734 0.5
886 4.7198 12.0863 6.30119 0.5
887 7.8529 9.51245 7.21756 0.5
888 2.93949 8.79953 6.07262 0.5
889 5.94823 1.03533 1.60467 0.5
890 9.1351 1.61178 9.76766 0.5
891 9.30105 10.5682 4.2408 0.5
892 7.30214 4.70561 4.35793 0.5
893 4.96868 2.46902 12.5834 0.5
894 0.820169 7.95686 2.84169 0.5
895 0.91764 3.58447 12.1871 0.5
896 6.13329 1.32707 2.96038 0.5
897 1.53955 10.7047 13.1412 0.5
898 5.85426 5.63788 6.36503 0.5
899 3.78565 3.69508 7.30701 0.5
900 0.69447 9.71173 9.66962 0.5
901 5.23035 13.3003 6.96128 0.5
902 12.4309 11.0432 10.3878 0.5
903 6.90291 5.86163 13.3393 0.5
904 7.19019 12.8702 4.41258 0.5
905 9.03522 12.0118 6.27812 0.5
906 8.14897 4.64187 3.7657 0.5
907 6.94526 12.3085 7.79298 0.5
908 0.452741 1.99736 6.23759 0.5
909 12.4828 4.0989 11.9241 0.5
910 3.78544 0.603143 10.413 0.5
911 6.90143 10.1225 4.41013 0.5
912 10.9059 12.7405 1.80486 0.5
913 9.44491 4.02677 11.6159 0.5
914 1.96448 6.54737 5.27869 0.5
915 2.30569 9.59195 11.3573 0.5
916 13.4852 6.82233 3.16524 0.5
917 7.1144 11.5207 1.24449 0.5
918 1.48057 2.27924 2.8601 0.5
919 7.21507 13.0453 12.9475 0.5
920 13.3506 12.9764 6.91007 0.5
921 2.58259 9.08834 6.51597 0.5
922 8.94232 13.1709 12.3871 0.5
923 13.0311 0.0210623 11.099 0.5
924 7.11743 11.0662 5.32412 0.5
925 0.619756 1.61762 4.73434 0.5
926 0.846993 9.80967 12.1259 0.5
927 10.93 10.0144 1.33146 0.5
928 11.6251 8.68152 6.17191 0.5
929 4.95953 7.29064 11.8616 0.5
930 2.06255 13.3603 2.8175 0.5
931 10.2087 2.0238 8.73155 0.5
932 10.0563 6.68333 13.0814 0.5
933 5.64107 11.9779 12.9189 0.5
934 4.60674 0.361918 1.4137 0.5
935 2.63934 2.64874 12.9404 0.5