ITEM: TIMESTEP
670000
ITEM: NUMBER OF ATOMS
1000
ITEM: BOX BOUNDS xy xz yz pp pp pp
0.0000000000000000e+00 1.3572088000000001e+01 0.0000000000000000e+00
0.0000000000000000e+00 1.3572088000000001e+01 0.0000000000000000e+00
0.0000000000000000e+00 1.3572088000000001e+01 0.0000000000000000e+00
ITEM: ATOMS id x y z radius
1 2.76019 6.55687 3.93436 0.5
2 2.27106 5.51017 4.53651 0.5
3 8.49002 11.6984 6.03983 0.5
4 3.81165 1.93478 8.37276 0.5
5 1.43343 8.74803 6.00606 0.5
6 2.22182 11.9916 4.77859 0.5
7 12.467 0.0561898 1.97601 0.5
8 7.20637 7.04859 4.48958 0.5
9 5.30158 1.71852 10.5697 0.5
10 6.26361 5.98975 0.237306 0.5
11 11.2521 1.30575 8.52074 0.5
12 2.94341 5.96598 8.03526 0.5
13 9.89467 10.8162 0.104034 0.5
14 0.526935 2.11782 12.083 0.5
15 8.23827 13.3486 8.93402 0.5
16 7.46279 4.21475 2.21992 0.5
17 4.73125 11.2815 3.48317 0.5
18 4.59657 12.8661 12.0078 0.5
19 12.5021 11.5284 8.20812 0.5
20 4.00229 7.41119 12.6687 0.5
21 8.56651 8.49026 3.98279 0.5
22 4.18072 8.01766 0.999696 0.5
23 3.25861 11.6983 8.99958 0.5
24 6.79271 0.268982 11.4152 0.5
25 13.1203 3.99158 12.7127 0.5
26 9.64152 4.0995 7.65663 0.5
27 13.2979 3.26676 4.36154 0.5
28 12.1363 4.04183 8.81244 0.5
29 10.9555 6.72526 9.07002 0.5
30 5.344 1.70321 12.1394 0.5
31 1.92678 3.16902 5.77748 0.5
32 3.51553 0.165599 1.54428 0.5
33 8.22979 0.964558 2.98667 0.5
34 3.57657 7.17982 13.4832 0.5
35 12.5585 5.84881 7.3296 0.5
36 12.0964 7.22542 13.3978 0.5
37 5.68319 12.953 9.56354 0.5
38 7.35253 9.05689 5.04285 0.5
39 12.0454 0.0695901 5.30166 0.5
40 13.2998 9.97541 6.82788 0.5
41 7.42492 10.2779 8.6623 0.5
42 12.5116 11.2732 0.622255 0.5
43 11.1861 9.99478 8.19914 0.5
44 10.7641 3.01424 2.1826 0.5
45 1.71405 4.03821 8.00183 0.5
46 3.31498 0.431739 4.38825 0.5
47 5.91174 6.24094 2.17162 0.5
48 9.45286 10.4477 4.38182 0.5
49 3.836 4.24124 13.012 0.5
50 6.06856 7.5771 8.27212 0.5
51 6.03513 5.1734 0.0722234 0.5
52 3.81111 2.66479 10.4718 0.5
53 2.35963 12.503 7.82445 0.5
54 2.73617 13.4207 0.242304 0.5
55 10.312 2.85949 2.08703 0.5
56 12.4124 1.36692 6.24017 0.5
57 11.0132 1.99035 9.53146 0.5
58 13.0266 7.99486 5.69726 0.5
59 1.88993 8.84123 3.4492 0.5
60 3.66615 8.33702 12.2784 0.5
61 4.42836 8.85494 11.5741 0.5
62 12.2711 4.54802 2.85579 0.5
63 4.33041 0.199215 0.926429 0.5
64 7.5441 10.3891 11.2285 0.5
65 13.2243 0.874753 3.57375 0.5
66 11.5319 3.34646 6.77791 0.5
67 2.14812 8.78469 8.76046 0.5
68 5.41445 12.6825 7.67852 0.5
69 4.75031 0.835971 10.4064 0.5
70 11.2025 2.31767 0.997912 0.5
71 3.42773 4.69098 12.3498 0.5
72 8.87544 11.3761 6.69305 0.5
73 13.0068 11.07 10.8452 0.5
74 8.1024 7.15571 9.93217 0.5
75 12.8056 6.78377 0.139724 0.5
76 12.7252 1.22837 2.93795 0.5
77 13.5454 12.7145 2.9044 0.5
78 9.29388 7.9223 6.09868 0.5
79 5.58832 12.1424 0.555542 0.5
80 2.99145 0.0754663 8.22542 0.5
81 1.87001 2.41406 9.21111 0.5
82 1.71312 13.4293 12.5611 0.5
83 2.89093 0.997699 11.0473 0.5
84 1.08319 12.1631 10.8445 0.5
85 9.05281 2.33259 5.81263 0.5
86 12.2312 4.0999 7.34167 0.5
87 2.35393 4.32532 1.05963 0.5
88 2.92066 9.49675 7.77024 0.5
89 7.84366 4.27758 10.6391 0.5
90 10.3304 10.8276 4.06316 0.5
91 12.2753 10.1662 5.24376 0.5
92 4.06271 9.18453 12.4166 0.5
93 12.753 8.02337 1.28538 0.5
94 10.6348 12.824 11.817 0.5
95 9.64092 1.88242 0.255403 0.5
96 4.15158 3.14865 1.00296 0.5
97 8.67723 6.62152 8.43254 0.5
98 12.0533 10.528 4.03631 0.5
99 9.39979 11.9956 3.37559 0.5
100 5.16685 7.75199 1.47344 0.5
101 6.76026 1.0583 2.84756 0.5
102 4.86756 2.43765 9.37727 0.5
103 7.65531 0.498138 11.5225 0.5
104 4.04817 6.34798 12.4163 0.5
105 3.77142 8.41658 12.0795 0.5
106 5.80716 1.04773 10.9716 0.5
107 1.33682 4.09337 1.97231 0.5
108 8.66181 13.1329 8.14312 0.5
109 0.958644 11.2865 3.87638 0.5
110 5.66018 1.85486 1.28153 0.5
111 2.36827 3.44079 7.11828 0.5
112 3.74862 1.08034 5.00753 0.5
113 1.51889 8.42826 11.0202 0.5
114 2.02579 6.09903 5.03652 0.5
115 0.678395 2.24006 0.430976 0.5
116 10.0918 7.87711 9.77897 0.5
117 10.992 11.976 2.14363 0.5
118 6.79588 4.54022 4.20278 0.5
119 4.72626 9.67675 4.52168 0.5
120 11.7287 1.06974 5.8443 0.5
121 5.94943 12.643 9.54081 0.5
122 10.6501 9.28196 12.6623 0.5
123 6.18222 4.01053 2.18173 0.5
124 8.85016 0.697894 13.5256 0.5
125 2.21345 9.90798 1.31607 0.5
126 10.6582 1.04731 4.35009 0.5
127 4.22856 1.91375 11.9574 0.5
128 3.96726 6.21488 8.67421 0.5
129 12.4794 1.13481 2.16858 0.5
130 8.25425 12.2274 3.80652 0.5
131 0.524609 9.00601 4.74653 0.5
132 12.0019 6.08481 7.84435 0.5
133 11.0487 2.10173 4.93226 0.5
134 6.81723 7.14072 2.67997 0.5
135 0.5665 6.13425 9.27151 0.5
136 3.56768 11.0968 12.8635 0.5
137 10.3297 3.02636 12.6982 0.5
138 12.3063 4.44371 8.59258 0.5
139 0.86475 8.00599 2.6269 0.5
140 11.3358 5.074 7.13263 0.5
141 10.8869 8.31827 5.9788 0.5
142 6.84303 3.06314 3.77834 0.5
143 7.2639 5.3911 5.89174 0.5
144 9.92437 9.17047 6.1567 0.5
145 11.3401 5.91874 12.9288 0.5
146 12.4854 10.6578 9.53733 0.5
147 10.0699 2.03067 9.15739 0.5
148 9.37592 3.80691 1.66651 0.5
149 4.61437 10.1575 2.79459 0.5
150 3.88259 1.38916 1.85061 0.5
151 11.2969 0.124327 2.31909 0.5
152 2.25763 10.8811 1.43405 0.5
153 8.08169 6.92639 4.30513 0.5
154 8.36391 11.3483 2.03118 0.5
155 1.90921 13.0823 3.34365 0.5
156 12.5543 1.15056 6.14965 0.5
157 2.69819 5.87636 3.72101 0.5
158 4.88685 8.73526 7.08542 0.5
159 1.25091 10.4991 11.7244 0.5
160 9.5638 6.8106 13.4904 0.5
161 9.31578 1.79824 10.1803 0.5
162 10.1418 8.36483 4.36228 0.5
163 10.8292 3.42627 1.97378 0.5
164 1.00473 0.203044 13.3967 0.5
165 2.19638 2.34412 5.5103 0.5
166 2.54193 6.62204 13.0358 0.5
167 1.68837 2.37165 3.19578 0.5
168 2.19728 1.15248 2.6978 0.5
169 3.07701 4.7003 3.78542 0.5
170 10.2627 3.85933 5.44955 0.5
171 0.480936 6.09161 5.10893 0.5
172 2.51233 9.68644 1.32928 0.5
173 7.18488 7.66138 11.1936 0.5
174 3.78587 3.21997 0.426134 0.5
175 9.44169 9.86547 8.6416 0.5
176 13.4713 1.97886 12.701 0.5
177 13.2774 6.50457 6.64174 0.5
178 2.71363 6.31442 1.76326 0.5
179 0.736683 11.6634 12.3534 0.5
180 9.86515 1.79487 11.492 0.5
181 3.6627 1.77457 5.20964 0.5
182 11.2932 0.161384 6.91286 0.5
183 7.23771 5.50113 7.56279 0.5
184 9.82817 5.20333 2.15197 0.5
185 5.36846 9.88763 9.009 0.5
186 2.3612 7.39244 10.6072 0.5
187 7.62093 1.24818 11.5035 0.5
188 3.96324 8.99039 6.20788 0.5
189 8.33371 7.46793 2.12238 0.5
190 13.2491 0.214119 2.53038 0.5
191 13.1911 9.41858 9.93365 0.5
192 4.6481 9.69316 2.86152 0.5
193 9.02118 8.23238 3.26962 0.5
194 6.47733 5.42287 7.56404 0.5
195 3.45469 2.24607 4.89218 0.5
196 9.14729 3.20621 11.72 0.5
197 11.7981 8.05686 12.5035 0.5
198 4.74772 3.53692 1.58324 0.5
199 12.9228 4.75711 6.3722 0.5
200 3.2925 10.375 5.84566 0.5
201 4.52918 2.71451 6.61973 0.5
202 9.7587 9.5601 7.23607 0.5
203 4.59554 2.28243 4.55274 0.5
204 3.47071 10.5126 10.0043 0.5
205 0.644636 10.5718 2.00833 0.5
206 2.76715 2.03664 4.0394 0.5
207 2.98414 10.9305 8.24267 0.5
208 12.5002 10.5774 1.63959 0.5
209 8.16992 12.9242 12.015 0.5
210 5.9419 13.448 4.71278 0.5
211 7.68986 9.58365 7.76803 0.5
212 13.1635 6.29932 1.17233 0.5
213 3.14647 5.12625 6.33527 0.5
214 10.885 9.07513 9.98994 0.5
215 9.80424 2.03764 8.51097 0.5
216 9.11985 11.9064 6.8863 0.5
217 0.669891 6.81535 10.241 0.5
218 7.22778 8.24533 4.82732 0.5
219 9.82473 8.54694 6.32541 0.5
220 10.9967 13.3779 5.08424 0.5
221 9.12214 0.447636 1.70542 0.5
222 11.8477 7.03159 8.46355 0.5
223 3.55635 3.97784 9.03187 0.5
224 4.18296 6.79421 0.903469 0.5
225 5.91361 3.66818 2.3825 0.5
226 11.4762 12.962 10.8063 0.5
227 4.65157 1.35665 1.10967 0.5
228 6.67011 11.224 10.9991 0.5
229 7.53738 1.39079 4.22941 0.5
230 9.18852 7.09428 8.27847 0.5
231 5.06505 0.827314 12.643 0.5
232 0.206115 6.99731 5.40977 0.5
233 5.35045 0.465222 11.2469 0.5
234 3.73359 6.21961 12.5767 0.5
235 3.84884 9.63503 5.79853 0.5
236 10.5515 1.91681 10.3964 0.5
237 5.03169 5.11728 9.13405 0.5
238 8.50153 2.76914 11.8354 0.5
239 9.01625 3.70679 5.00206 0.5
240 9.03347 5.92206 13.5723 0.5
241 12.2082 9.11589 3.74058 0.5
242 5.91092 1.26564 11.9083 0.5
243 4.02226 8.87932 6.95192 0.5
244 9.20636 3.73825 9.01912 0.5
245 12.3519 4.96305 9.90028 0.5
246 3.9159 2.87912 4.73652 0.5
247 11.3384 10.5621 9.40394 0.5
248 2.77655 1.79485 5.56305 0.5
249 2.80508 8.05042 12.0523 0.5
250 11.9356 0.803609 12.9279 0.5
251 3.49321 11.9961 4.3097 0.5
252 8.17677 1.33506 12.8154 0.5
253 6.55872 7.25364 5.30429 0.5
254 1.75388 2.425 10.9987 0.5
255 10.8594 13.2841 8.52486 0.5
256 11.6863 9.66341 0.86553 0.5
257 1.61157 4.44404 1.68837 0.5
258 3.40259 0.442292 8.99102 0.5
259 3.6543 11.7627 8.7767 0.5
260 9.42637 10.1817 10.6137 0.5
261 2.39068 4.84438 10.7213 0.5
262 6.47297 4.85569 13.3161 0.5
263 3.26857 12.6152 10.6353 0.5
264 8.17562 10.8017 3.63684 0.5
265 10.5128 3.10951 4.49576 0.5
266 3.10247 10.3301 0.581948 0.5
267 0.80197 10.385 9.0593 0.5
268 12.1113 13.3116 5.94159 0.5
269 4.85134 1.07211 2.71949 0.5
270 8.94925 6.59182 9.41375 0.5
271 5.6857 7.07248 0.262523 0.5
272 10.1022 6.46895 5.66306 0.5
273 10.8701 2.13486 9.55169 0.5
274 7.49192 3.12179 9.87909 0.5
275 8.46676 8.29617 8.40445 0.5
276 13.4481 7.6261 6.57545 0.5
277 0.634834 6.83122 9.32766 0.5
278 12.266 8.27282 12.4545 0.5
279 11.4132 10.0872 8.11228 0.5
280 3.32586 10.8585 11.6379 0.5
281 6.90424 0.516888 3.56145 0.5
282 0.05849 11.1723 5.58615 0.5
283 13.0604 3.64617 4.60923 0.5
284 0.621219 4.59625 3.0703 0.5
285 2.03336 11.9043 4.10142 0.5
286 7.75462 6.24641 12.4797 0.5
287 9.76713 8.88477 13.0349 0.5
288 1.95633 3.01032 1.24652 0.5
289 5.0434 7.85903 1.49477 0.5
290 4.32247 2.03161 10.5119 0.5
291 13.2785 12.3802 11.471 0.5
292 3.4127 1.90613 11.2515 0.5
293 10.6669 4.01658 9.17979 0.5
294 10.688 10.5188 0.136878 0.5
295 6.31509 9.76182 11.8848 0.5
296 7.50661 13.5472 8.68327 0.5
297 0.0979214 11.1919 2.53863 0.5
298 5.11346 5.47402 6.62267 0.5
299 0.265573 8.14301 10.6473 0.5
300 11.7936 4.69967 5.14121 0.5
301 4.75101 11.4229 8.25793 0.5
302 11.8485 5.78715 4.03689 0.5
303 12.5818 1.85326 6.10856 0.5
304 2.03796 7.539 5.67333 0.5
305 10.0963 8.88308 4.95101 0.5
306 4.49913 8.753 2.92483 0.5
307 7.13677 12.7668 3.11277 0.5
308 5.77844 2.0715 5.86588 0.5
309 1.15861 12.6753 10.2994 0.5
310 9.71832 4.19483 6.55924 0.5
311 5.93992 9.93828 7.23129 0.5
312 7.71776 8.97235 4.65244 0.5
313 12.1029 6.26007 0.788545 0.5
314 0.594804 12.0799 9.64192 0.5
315 3.18963 1.67903 12.1558 0.5
316 0.732972 12.5884 13.0281 0.5
317 9.55796 7.20832 7.91362 0.5
318 2.2819 10.4472 3.47697 0.5
319 8.02909 0.71961 7.19052 0.5
320 4.23551 13.213 1.96078 0.5
321 5.21345 1.92651 3.81387 0.5
322 8.70008 2.9325 7.58402 0.5
323 8.46801 9.53874 2.56013 0.5
324 10.9525 3.93184 7.92074 0.5
325 2.24805 7.45316 10.3451 0.5
326 9.89552 6.46421 7.2142 0.5
327 7.49154 8.18446 5.0444 0.5
328 11.1261 7.12688 5.49903 0.5
329 4.80983 12.0444 10.0174 0.5
330 1.61623 10.0179 0.571251 0.5
331 11.1091 0.30907 10.2716 0.5
332 12.0372 9.59203 1.66825 0.5
333 2.61359 6.61527 0.75106 0.5
334 4.19928 3.8832 3.95639 0.5
335 8.68301 3.30496 4.55847 0.5
336 10.8327 3.23838 0.375415 0.5
337 2.13368 9.92554 7.52558 0.5
338 7.23585 3.07851 13.5293 0.5
339 13.2811 7.19455 8.35751 0.5
340 1.25918 10.3393 6.83734 0.5
341 0.733264 9.28223 5.4088 0.5
342 4.42711 10.1546 1.67353 0.5
343 12.2152 7.89137 1.15244 0.5
344 1.88219 13.4724 9.15839 0.5
345 11.6303 2.59211 11.8195 0.5
346 11.3869 4.46857 11.2936 0.5
347 7.39626 1.93401 8.55098 0.5
348 5.57417 11.695 11.5151 0.5
349 0.969884 11.8851 2.72923 0.5
350 3.3318 4.68962 2.32146 0.5
351 12.8021 0.72097 7.60133 0.5
352 12.7901 6.80937 3.27211 0.5
353 12.364 2.83453 7.81807 0.5
354 9.47191 9.0618 7.3806 0.5
355 12.5099 6.2652 11.277 0.5
356 0.263884 1.27481 13.3534 0.5
357 7.45322 5.16616 2.655 0.5
358 11.0967 2.53602 11.4355 0.5
359 8.51508 0.53105 1.27737 0.5
360 5.34241 2.92308 10.338 0.5
361 5.1735 10.6476 0.389591 0.5
362 6.883 1.68941 8.95284 0.5
363 10.8139 12.6979 4.17477 0.5
364 7.95246 0.975678 1.28297 0.5
365 7.15102 6.15233 5.57646 0.5
366 6.24534 7.12896 6.98321 0.5
367 11.4913 6.37792 10.5464 0.5
368 10.6612 5.04306 9.41221 0.5
369 13.4114 12.8834 10.3285 0.5
370 12.4654 3.22101 8.5762 0.5
371 6.51574 10.7757 10.8302 0.5
372 6.16946 11.368 4.41031 0.5
373 6.31126 4.16248 5.8525 0.5
374 9.48356 9.75026 10.5762 0.5
375 0.264653 6.95924 5.31903 0.5
376 5.92304 9.36811 10.6519 0.5
377 5.55032 12.673 6.86335 0.5
378 1.19273 8.15729 11.4545 0.5
379 13.4516 11.8187 12.5173 0.5
380 1.40318 12.048 0.82269 0.5
381 4.77118 2.49724 7.04114 0.5
382 0.558707 2.59546 10.9556 0.5
383 8.63281 6.5796 11.0961 0.5
384 11.6869 11.8062 12.0358 0.5
385 12.7129 0.685134 10.6725 0.5
386 3.49027 13.5243 8.94443 0.5
387 12.2889 8.80912 9.97695 0.5
388 0.145767 10.8242 3.422 0.5
389 2.60821 3.28436 5.09812 0.5
390 3.12945 9.80967 5.85761 0.5
391 11.0421 2.11352 1.88597 0.5
392 7.64467 13.5319 7.06143 0.5
393 2.98373 10.5882 11.4333 0.5
394 12.9228 6.73503 6.30623 0.5
395 4.35716 5.7679 11.1718 0.5
396 6.80349 9.85117 11.955 0.5
397 0.516963 4.31822 2.14471 0.5
398 3.85393 11.719 0.183011 0.5
399 8.56238 12.2893 2.22123 0.5
400 2.71699 0.596204 3.69441 0.5
401 9.23564 11.2193 5.08872 0.5
402 2.52923 10.1224 8.51142 0.5
403 2.56705 3.00735 10.2242 0.5
404 12.2538 9.48737 7.11774 0.5
405 7.68736 9.12812 9.3652 0.5
406 11.5497 3.10592 5.88726 0.5
407 7.82446 6.07277 13.1758 0.5
408 2.96391 6.33887 3.73644 0.5
409 7.81511 4.35228 5.67076 0.5
410 3.06816 4.68856 2.99201 0.5
411 5.62572 7.33233 11.3116 0.5
412 4.31782 10.9426 2.5582 0.5
413 3.09337 2.69993 7.88513 0.5
414 1.48973 1.39702 10.5811 0.5
415 6.22416 4.8064 5.83649 0.5
416 8.73442 4.23609 8.26642 0.5
417 9.72342 0.27188 13.22 0.5
418 5.69654 1.04476 8.19027 0.5
419 7.40159 3.40452 9.44405 0.5
420 3.61221 11.1362 6.31999 0.5
421 1.46248 4.64001 2.72352 0.5
422 6.188 12.2397 10.3086 0.5
423 12.815 3.43329 5.86936 0.5
424 12.238 1.1518 8.02103 0.5
425 1.16682 7.72531 9.25933 0.5
426 3.6746 11.5619 0.706094 0.5
427 12.3172 6.09676 1.34337 0.5
428 1.21386 4.48361 5.74135 0.5
429 7.23923 6.13408 0.3802 0.5
430 7.54654 0.38863 2.65406 0.5
431 10.9022 6.8146 11.9905 0.5
432 12.0738 4.79067 1.10732 0.5
433 11.4964 7.07275 7.94817 0.5
434 1.86108 5.00597 8.99699 0.5
435 10.334 3.16956 4.73643 0.5
436 2.35678 6.5916 9.56116 0.5
437 0.967915 9.12243 12.0773 0.5
438 2.02408 2.60614 6.27831 0.5
439 2.9599 7.42378 4.83413 0.5
440 9.82751 5.78134 8.30612 0.5
441 2.46421 12.1209 10.5825 0.5
442 12.6416 8.28871 2.07685 0.5
443 8.74111 0.491232 10.6479 0.5
444 3.74191 8.68954 13.0497 0.5
445 4.05781 12.9056 10.2761 0.5
446 8.236 5.85038 4.05982 0.5
447 11.2837 2.20634 0.166047 0.5
448 10.111 2.69373 13.2989 0.5
449 2.41371 12.1991 4.63153 0.5
450 13.2209 0.463865 7.87948 0.5
451 0.703835 9.16777 9.56857 0.5
452 3.26841 0.734757 3.9593 0.5
453 4.13679 12.4876 11.4754 0.5
454 3.09824 8.90161 6.70116 0.5
455 7.7148 13.1541 12.2401 0.5
456 9.75524 6.14047 1.54118 0.5
457 0.646698 9.81936 8.03822 0.5
458 4.0833 11.0571 5.60646 0.5
459 4.18418 5.95314 6.25057 0.5
460 10.9747 -0.00749278 3.1647 0.5
461 4.37988 10.2161 6.2051 0.5
462 5.08501 2.23763 4.04816 0.5
463 12.7859 2.58989 11.9283 0.5
464 0.969655 6.10381 7.30162 0.5
465 13.2873 11.1023 11.5021 0.5
466 13.0105 7.96536 0.474328 0.5
467 1.19313 0.983438 11.5325 0.5
468 6.09828 7.42044 0.840202 0.5
469 10.7751 11.897 7.65623 0.5
470 10.9198 12.9307 8.86918 0.5
471 3.1015 0.143669 7.74976 0.5
472 6.08859 12.5569 9.98415 0.5
473 4.28256 10.2782 6.71282 0.5
474 7.55038 11.8284 2.38904 0.5
475 1.34504 0.308671 11.5099 0.5
476 3.33902 1.37768 13.1139 0.5
477 12.4794 3.90183 6.26777 0.5
478 3.65353 3.13261 2.40408 0.5
479 13.2256 3.27436 11.9374 0.5
480 12.3142 11.9061 5.19206 0.5
481 2.73284 7.36069 4.48925 0.5
482 0.335927 7.80305 11.3172 0.5
483 12.2259 10.4752 12.7551 0.5
484 1.51324 6.23822 6.75815 0.5
485 5.84904 12.8675 11.9673 0.5
486 6.21586 6.26311 9.50758 0.5
487 9.123 12.1719 6.33242 0.5
488 2.71331 12.4277 9.1809 0.5
489 4.71701 4.45122 8.27973 0.5
490 8.74437 5.51573 11.0057 0.5
491 6.94274 10.1778 9.14485 0.5
492 10.1264 1.66578 6.07693 0.5
493 0.374523 11.7154 9.55554 0.5
494 13.452 12.902 2.05856 0.5
495 8.20284 9.2629 4.50282 0.5
496 10.4742 10.067 0.211229 0.5
497 3.00047 2.00994 2.26983 0.5
498 0.0912017 7.72244 8.50905 0.5
499 8.13176 8.10482 3.00557 0.5
500 11.5814 3.65368 11.4683 0.5
501 7.34677 11.3839 3.99389 0.5
502 11.8162 5.94757 2.33118 0.5
503 0.290281 5.47589 0.604087 0.5
504 13.49 4.37403 4.67567 0.5
505 2.65784 7.81586 6.05653 0.5
506 13.3572 4.78272 7.55538 0.5
507 3.30038 6.37129 12.4166 0.5
508 8.44806 10.1614 4.07734 0.5
509 11.5028 10.4799 0.193738 0.5
510 12.5149 8.66392 4.68368 0.5
511 11.5783 8.35019 6.17853 0.5
512 8.47099 12.9927 3.51419 0.5
513 13.1279 11.1732 7.86334 0.5
514 11.1108 12.4306 8.26579 0.5
515 2.24217 0.699532 10.5017 0.5
516 5.64522 6.12192 1.15901 0.5
517 3.34171 1.78335 7.7324 0.5
518 1.09481 7.90594 5.359 0.5
519 11.0806 11.779 5.47851 0.5
520 13.5298 8.62074 9.94533 0.5
521 10.5617 7.59646 1.32238 0.5
522 1.42795 9.30912 11.8114 0.5
523 12.4984 4.51802 0.0674329 0.5
524 4.36315 12.5264 12.996 0.5
525 3.58751 11.3904 13.4529 0.5
526 7.90798 8.07759 4.6943 0.5
527 7.10652 2.08394 4.27111 0.5
528 10.8153 1.87859 6.26263 0.5
529 10.2356 4.75624 12.0018 0.5
530 4.14336 4.92672 9.82357 0.5
531 4.93306 13.5406 0.908189 0.5
532 9.45986 4.29675 0.21517 0.5
533 8.40358 0.603549 8.76242 0.5
534 11.309 7.28649 5.86036 0.5
535 11.1586 5.338 10.5578 0.5
536 4.89725 3.20349 8.35428 0.5
537 4.49097 0.450177 4.07616 0.5
538 6.86809 0.0694929 9.98014 0.5
539 9.94576 7.56912 2.12563 0.5
540 2.13539 11.2419 10.9828 0.5
541 1.97976 5.63801 5.10104 0.5
542 4.26762 11.0103 0.645505 0.5
543 6.86154 6.053 13.0129 0.5
544 6.84141 11.4746 5.65507 0.5
545 2.03849 8.97442 9.37685 0.5
546 12.4044 4.27513 7.12127 0.5
547 11.7542 4.08287 5.90041 0.5
548 4.39059 2.51698 3.41542 0.5
549 3.54525 4.17534 9.85584 0.5
550 5.03443 11.3625 6.27553 0.5
551 7.43003 0.250567 0.716245 0.5
552 12.8473 5.46057 5.46423 0.5
553 8.80246 3.90444 10.1979 0.5
554 13.2511 4.85415 6.55876 0.5
555 7.02316 11.4104 5.28467 0.5
556 10.2583 9.83013 5.14224 0.5
557 12.3388 7.18468 13.4516 0.5
558 1.38629 13.1912 6.23254 0.5
559 8.21743 10.5423 13.5559 0.5
560 1.2983 8.25197 1.9527 0.5
561 1.61968 6.21743 11.4364 0.5
562 0.710186 9.94297 6.08091 0.5
563 8.89701 7.04512 8.1191 0.5
564 5.37542 11.7465 1.81153 0.5
565 3.43134 7.3387 6.30112 0.5
566 10.149 12.2762 8.10701 0.5
567 10.7747 1.08927 11.9606 0.5
568 3.75849 11.1561 2.06253 0.5
569 3.9763 8.23528 2.20451 0.5
570 6.61416 2.55523 4.72469 0.5
571 4.56375 6.68192 4.37864 0.5
572 4.49205 8.93813 7.45176 0.5
573 0.181186 12.5911 6.59192 0.5
574 12.9772 13.4738 2.32082 0.5
575 5.6143 5.27688 3.69782 0.5
576 12.325 0.75963 4.97314 0.5
577 5.31876 9.42709 10.8808 0.5
578 11.335 2.79217 8.91991 0.5
579 6.34321 5.78681 1.1783 0.5
580 6.73565 1.68925 12.2276 0.5
581 3.15186 11.0161 12.9492 0.5
582 8.9155 9.96172 10.5506 0.5
583 3.36093 3.77603 9.97877 0.5
584 5.55197 3.33494 3.0328 0.5
585 4.36824 2.11369 7.29816 0.5
586 13.4522 0.553169 10.083 0.5
587 4.70554 11.9834 9.58901 0.5
588 7.17626 0.710301 12.0338 0.5
589 5.87044 0.364737 9.86156 0.5
590 12.833 2.70329 5.64399 0.5
591 6.34168 5.94423 4.65503 0.5
592 3.31794 2.6143 0.678499 0.5
593 8.58693 11.9873 7.90511 0.5
594 0.614196 1.61276 8.36941 0.5
595 3.54081 3.97065 1.08138 0.5
596 2.52938 5.35559 5.31624 0.5
597 13.0169 1.7385 7.52529 0.5
598 12.0469 12.9205 4.59804 0.5
599 10.3922 7.87587 7.21659 0.5
600 6.87065 12.5011 9.60232 0.5
601 7.12911 7.79921 6.06272 0.5
602 11.0714 6.25759 12.938 0.5
603 3.20627 12.4367 4.23532 0.5
604 6.68969 3.44125 12.1007 0.5
605 8.85833 5.75271 13.1584 0.5
606 8.78299 10.4241 11.861 0.5
607 7.13523 13.4055 2.13586 0.5
608 6.48603 3.7731 9.0967 0.5
609 12.2608 9.42786 2.68017 0.5
610 3.7928 13.3509 1.25112 0.5
611 8.3133 5.43922 5.89572 0.5
612 8.79852 4.93683 2.54727 0.5
613 5.22342 11.3297 3.813 0.5
614 2.99205 8.35298 13.3526 0.5
615 2.35326 6.7183 8.45246 0.5
616 11.8264 7.77497 11.3169 0.5
617 10.1727 12.7815 10.749 0.5
618 7.62387 4.97812 2.8557 0.5
619 7.27383 7.04036 3.28863 0.5
620 11.5806 1.57842 9.20319 0.5
621 6.33656 8.07595 10.8506 0.5
622 10.1365 10.898 11.4826 0.5
623 7.08176 9.06678 6.65285 0.5
624 10.5142 4.94582 12.098 0.5
625 2.93973 8.21355 5.11717 0.5
626 6.55358 0.818803 1.96614 0.5
627 8.84411 5.71198 1.16838 0.5
628 1.7866 10.0127 5.45344 0.5
629 13.0643 7.07365 10.503 0.5
630 1.83278 1.71671 9.38059 0.5
631 7.79269 7.44074 6.8097 0.5
632 5.6803 0.185206 2.71776 0.5
633 8.22628 10.9213 4.47909 0.5
634 8.58295 3.26422 11.1865 0.5
635 0.877494 6.39897 1.72186 0.5
636 12.884 1.28494 0.327937 0.5
637 8.47645 3.93885 7.1099 0.5
638 3.33106 3.75033 11.9556 0.5
639 4.48609 5.85536 4.49921 0.5
640 11.312 2.05627 6.98278 0.5
641 2.54593 4.52214 3.86462 0.5
642 11.1174 7.68062 10.6875 0.5
643 11.2705 5.35868 0.527955 0.5
644 13.3103 7.36203 7.59133 0.5
645 11.1944 3.36581 10.9204 0.5
646 5.00548 1.61021 1.54016 0.5
647 7.71303 12.0682 13.3694 0.5
648 0.786623 11.5959 8.48189 0.5
649 11.6614 10.7143 8.91153 0.5
650 5.368 1.61951 7.44805 0.5
651 0.973515 5.27234 12.3859 0.5
652 13.095 3.7743 4.17129 0.5
653 11.9 1.18567 9.07064 0.5
654 3.87029 5.14518 4.94572 0.5
655 0.751897 9.1147 1.9489 0.5
656 10.7915 6.66609 9.37566 0.5
657 11.1578 11.4 8.07835 0.5
658 6.3875 10.609 8.4749 0.5
659 5.31192 8.69942 5.46641 0.5
660 10.8146 12.1478 5.23576 0.5
661 0.107661 8.71427 6.73943 0.5
662 0.911272 9.15202 10.7589 0.5
663 5.18639 12.4246 2.55259 0.5
664 9.91586 0.339643 2.04748 0.5
665 13.3314 13.3433 1.30392 0.5
666 8.47746 13.127 9.34722 0.5
667 3.66144 10.5722 12.8674 0.5
668 12.941 11.3358 9.47836 0.5
669 12.4405 1.85337 4.96641 0.5
670 7.53212 7.19457 3.7915 0.5
671 4.8725 9.36854 6.68467 0.5
672 2.63956 0.786206 3.40091 0.5
673 9.87745 11.8546 2.78166 0.5
674 0.173281 4.40706 4.14929 0.5
675 12.3853 13.2008 3.09525 0.5
676 1.95941 8.07514 8.06591 0.5
677 2.78535 12.3951 6.46431 0.5
678 10.6042 3.12182 10.8366 0.5
679 11.1963 1.07248 11.3464 0.5
680 5.32831 4.54272 12.349 0.5
681 0.773788 7.78573 4.68403 0.5
682 7.91636 0.167649 7.43842 0.5
683 13.0014 13.4636 4.51297 0.5
684 2.79351 10.5458 5.99146 0.5
685 11.3935 11.7135 7.5196 0.5
686 11.0135 6.89988 3.42738 0.5
687 7.51396 13.2936 6.09504 0.5
688 0.795773 2.88497 6.99532 0.5
689 7.45231 3.56008 2.42739 0.5
690 4.09114 1.88684 13.442 0.5
691 11.9305 9.4742 1.2792 0.5
692 8.47058 2.24613 8.60135 0.5
693 9.83841 5.05161 11.6263 0.5
694 1.50006 12.9394 6.41182 0.5
695 11.5167 11.164 6.94313 0.5
696 4.60951 6.91732 2.8766 0.5
697 9.26477 12.1488 12.9182 0.5
698 11.2626 1.33958 10.4966 0.5
699 1.59932 13.4888 11.3396 0.5
700 12.336 7.31327 0.88123 0.5
701 7.95199 12.4573 4.49081 0.5
702 5.88211 5.04984 10.4052 0.5
703 12.4289 4.51928 2.02488 0.5
704 6.74275 3.11137 6.69366 0.5
705 0.477171 10.7256 10.1122 0.5
706 1.4006 1.16703 3.40045 0.5
707 12.8831 10.0256 8.90407 0.5
708 2.27426 10.6394 4.74196 0.5
709 8.19983 11.172 7.94355 0.5
710 12.2083 9.73272 9.88009 0.5
711 8.78263 6.09769 8.68954 0.5
712 7.03665 13.0511 7.81392 0.5
713 11.2875 0.684433 8.96793 0.5
714 9.03605 2.87171 9.16733 0.5
715 12.5235 4.20338 8.59429 0.5
716 0.232363 6.11162 5.52913 0.5
717 6.0802 1.84495 5.58646 0.5
718 3.142 2.99335 13.5729 0.5
719 4.70815 8.78098 3.98484 0.5
720 3.15144 2.66269 0.287098 0.5
721 10.3625 11.1187 6.23284 0.5
722 5.49144 1.25606 6.10352 0.5
723 3.83784 6.7846 4.45236 0.5
724 9.49627 8.9783 12.5449 0.5
725 5.05728 12.3937 1.55729 0.5
726 8.78305 4.71344 10.6452 0.5
727 12.2059 12.5872 10.3264 0.5
728 11.2212 7.99462 2.80453 0.5
729 3.52671 2.25464 1.88143 0.5
730 5.51459 1.78976 0.285534 0.5
731 2.50643 2.38526 5.91595 0.5
732 9.13661 6.23141 3.76955 0.5
733 6.17814 3.5772 12.214 0.5
734 11.1324 3.99075 11.7861 0.5
735 3.02754 2.6517 2.20326 0.5
736 0.349397 11.5354 0.927612 0.5
737 11.713 5.05108 9.82499 0.5
738 4.78991 12.6294 3.20439 0.5
739 12.4129 13.023 5.8884 0.5
740 4.55789 2.98429 1.32979 0.5
741 3.69809 12.3558 2.04347 0.5
742 8.26658 8.28447 2.71017 0.5
743 9.32724 4.89409 3.54835 0.5
744 5.36043 0.091793 11.2435 0.5
745 0.274758 13.489 7.96674 0.5
746 9.16111 8.20577 10.1874 0.5
747 0.271661 0.200956 10.9632 0.5
748 0.0632859 13.4749 7.59969 0.5
749 2.47586 9.12139 5.53552 0.5
750 13.5201 2.85188 4.58337 0.5
751 8.18199 9.59556 11.1312 0.5
752 10.0119 6.72634 1.36213 0.5
753 3.58651 3.22517 2.37509 0.5
754 3.22838 2.31707 6.30405 0.5
755 6.4768 13.1341 4.82953 0.5
756 5.43447 8.08596 4.29517 0.5
757 2.94891 0.513975 9.20259 0.5
758 6.70155 9.00288 2.43552 0.5
759 11.9984 10.5785 3.60221 0.5
760 9.87885 8.03377 2.46888 0.5
761 5.84408 6.93712 12.5344 0.5
762 5.58799 4.69648 11.6695 0.5
763 6.86828 12.1779 10.5248 0.5
764 10.491 5.66124 5.84318 0.5
765 3.25694 4.66673 10.4288 0.5
766 3.31043 1.05093 9.91344 0.5
767 9.11078 3.73501 1.9962 0.5
768 11.4443 6.02687 2.045 0.5
769 2.11975 5.12324 10.4201 0.5
770 10.619 8.12145 12.3831 0.5
771 10.7923 4.43545 7.46687 0.5
772 12.7781 10.7418 0.18875 0.5
773 1.72173 5.08762 7.35244 0.5
774 5.61763 1.23431 10.0253 0.5
775 1.64682 4.50101 12.2484 0.5
776 5.28307 12.8624 0.662688 0.5
777 13.1686 3.34663 0.195623 0.5
778 5.33567 0.550278 1.23137 0.5
779 13.1814 1.86499 12.5541 0.5
780 8.26916 8.31217 0.955516 0.5
781 13.3238 8.33927 11.7679 0.5
782 10.0598 5.14133 8.56665 0.5
783 6.80641 0.119657 9.25445 0.5
784 7.55612 11.9465 10.411 0.5
785 8.13804 5.06315 1.38042 0.5
786 6.41992 10.3908 5.51099 0.5
787 3.44105 5.922 7.71014 0.5
788 1.80676 7.74527 5.12997 0.5
789 3.90508 10.2375 11.1015 0.5
790 10.726 11.6389 11.8439 0.5
791 0.21764 13.4372 0.32744 0.5
792 13.2311 13.3019 10.3369 0.5
793 3.46552 6.42828 12.6498 0.5
794 2.1182 7.1491 13.5049 0.5
795 7.84232 11.2328 6.50708 0.5
796 13.289 9.07148 8.62231 0.5
797 13.0401 2.5084 2.62598 0.5
798 4.7563 11.9953 0.802987 0.5
799 1.82648 7.69254 13.0918 0.5
800 1.80065 11.9099 12.9648 0.5
801 6.70462 1.4504 9.39299 0.5
802 4.49228 13.2495 5.61905 0.5
803 8.04063 2.47763 5.06589 0.5
804 7.00483 8.12013 4.28316 0.5
805 9.71498 10.1699 10.1623 0.5
806 7.04238 4.71277 3.53072 0.5
807 9.27075 13.0972 8.18436 0.5
808 5.48242 2.90856 6.34677 0.5
809 10.2477 2.75013 0.720128 0.5
810 7.05618 1.45781 11.4874 0.5
811 2.75584 13.363 9.31786 0.5
812 4.46154 1.75026 7.47868 0.5
813 5.86798 5.87792 8.59892 0.5
814 2.81717 2.23083 10.1011 0.5
815 7.23036 8.84766 2.79611 0.5
816 0.238478 9.76505 13.0811 0.5
817 8.194 9.87383 12.2649 0.5
818 11.0842 9.3957 4.75098 0.5
819 7.0431 4.72346 6.44564 0.5
820 4.5142 6.06743 0.284057 0.5
821 5.79271 2.90017 11.1926 0.5
822 10.5223 11.2411 1.29479 0.5
823 10.1228 0.990224 6.47635 0.5
824 9.04815 8.70526 11.1158 0.5
825 2.63263 13.3507 11.1991 0.5
826 2.25339 10.1234 0.898772 0.5
827 9.43466 3.86672 2.47935 0.5
828 0.526663 4.32662 0.167575 0.5
829 10.3221 9.68405 6.37061 0.5
830 0.436482 0.992261 9.68647 0.5
831 1.07258 5.00252 6.36459 0.5
832 8.0942 5.6824 8.10956 0.5
833 7.09595 2.04389 1.09325 0.5
834 3.35566 12.0191 8.28552 0.5
835 9.07355 12.8719 5.81957 0.5
836 4.93295 9.12634 6.77397 0.5
837 2.04029 10.7724 13.4959 0.5
838 10.1819 12.9764 3.29133 0.5
839 0.674752 5.93084 7.81816 0.5
840 0.585385 7.69423 9.29792 0.5
841 3.20393 3.98944 5.0776 0.5
842 4.40891 7.99694 8.20011 0.5
843 6.98511 2.93476 1.71826 0.5
844 5.68542 8.30821 5.40725 0.5
845 10.4233 1.04956 5.69505 0.5
846 10.1542 5.11811 10.6327 0.5
847 0.590519 8.52545 9.03544 0.5
848 3.7046 11.7497 1.21384 0.5
849 10.4552 11.1123 2.68421 0.5
850 7.25153 3.48656 0.681501 0.5
851 2.58754 7.56598 5.13766 0.5
852 6.87973 2.49155 10.1937 0.5
853 3.4031 6.11084 11.3163 0.5
854 11.1252 4.61759 7.8409 0.5
855 12.9276 3.06115 1.21918 0.5
856 1.61989 11.0599 10.4417 0.5
857 6.88777 0.376289 9.14038 0.5
858 11.8615 4.89661 7.79121 0.5
859 7.70973 4.4851 12.7553 0.5
860 5.70219 6.4794 9.22731 0.5
861 5.1519 2.33042 4.50798 0.5
862 8.62456 0.0398832 4.56428 0.5
863 5.65179 10.4294 9.70156 0.5
864 3.883 4.43465 10.4148 0.5
865 13.1897 4.21027 10.3541 0.5
866 10.0278 4.5741 7.48858 0.5
867 8.32337 8.84185 0.271951 0.5
868 4.286 2.72148 1.6859 0.5
869 9.7773 7.90397 1.08394 0.5
870 1.04281 13.5206 0.303102 0.5
871 10.8751 8.56855 6.18823 0.5
872 7.92321 12.6703 5.77435 0.5
873 1.63115 1.68294 8.31806 0.5
874 13.3021 11.6788 7.52441 0.5
875 7.94772 12.9331 8.00664 0.5
876 9.71453 1.58225 0.290492 0.5
877 6.76541 8.92646 10.4939 0.5
878 1.21977 4.15305 9.91826 0.5
879 6.23843 12.7803 12.7112 0.5
880 7.47905 5.80076 9.44005 0.5
881 7.37749 10.6143 9.69525 0.5
882 8.99715 8.93457 6.02257 0.5
883 3.50611 2.25587 0.590502 0.5
884 2.90071 4.8668 2.96666 0.5
885 1.18887 0.845554 6.86054 0.5
886 12.3994 6.44596 8.90564 0.5
887 4.6181 9.89351 0.557451 0.5
888 4.16118 2.35123 7.40038 0.5
889 4.19178 9.81833 9.93915 0.5
890 1.92586 8.4743 6.8891 0.5
891 8.89678 8.08754 3.23069 0.5
892 7.8317 11.0146 1.40528 0.5
893 3.06296 0.326432 0.411883 0.5
894 5.6813 5.13676 3.02988 0.5
895 11.2417 12.2015 6.42393 0.5
896 6.37939 9.17082 1.05175 0.5
897 1.56402 11.059 3.35335 0.5
898 4.67646 6.09449 6.48955 0.5
899 11.1047 1.06791 11.5024 0.5
900 8.40424 5.68417 13.1315 0.5
901 7.18602 5.4608 8.96329 0.5
902 4.19196 4.85304 7.42166 0.5
903 10.4459 5.4704 8.11533 0.5
904 7.49206 5.22894 5.43189 0.5
905 6.02409 13.5374 11.8809 0.5
906 9.18703 9.60756 11.6274 0.5
907 9.40474 7.72835 4.84714 0.5
908 10.8336 5.58514 8.22539 0.5
909 13.5525 10.6715 3.82357 0.5
910 5.58658 1.61616 7.54479 0.5
911 3.62257 3.12128 1.59151 0.5
912 3.87906 3.04662 11.8018 0.5
913 1.46161 9.51124 4.13688 0.5
914 11.3301 0.294121 1.5137 0.5
915 13.1515 6.08189 3.02359 0.5
916 13.4325 3.57079 9.84482 0.5
917 2.40877 12.979 1.81691 0.5
918 0.999083 5.51533 13.549 0.5
919 0.414078 6.12054 10.5717 0.5
920 1.38375 4.31771 7.58308 0.5
921 4.55616 4.69784 5.73423 0.5
922 3.09428 5.62232 12.6685 0.5
923 9.76501 8.30858 6.1012 0.5
924 7.83099 9.3262 0.904667 0.5
925 9.8752 12.5967 2.11307 0.5
926 10.7907 9.29497 5.92966 0.5
927 2.36785 0.455604 2.95377 0.5
928 7.97696 0.499568 9.54603 0.5
929 12.8292 4.60999 4.05373 0.5
930 10.1583 12.5597 9.40445 0.5
931 1.3812 2.62452 9.56641 0.5
932 8.33958 11.4679 2.33289 0.5
933 3.87887 0.623314 1.81028 0.5
934 4.51105 4.9797 8.37997 0.5