ITEM: TIMESTEP
830000
ITEM: NUMBER OF ATOMS
1000
ITEM: BOX BOUNDS xy xz yz pp pp pp
0.0000000000000000e+00 1.3572088000000001e+01 0.0000000000000000e+00
0.0000000000000000e+00 1.3572088000000001e+01 0.0000000000000000e+00
0.0000000000000000e+00 1.3572088000000001e+01 0.0000000000000000e+00
ITEM: ATOMS id x y z radius
1 4.70205 8.76878 0.123658 0.5
2 3.55736 11.309 1.2997 0.5
3 12.7344 9.34745 10.9195 0.5
4 11.4045 9.35867 1.7784 0.5
5 11.6399 10.1283 4.207 0.5
6 2.32127 8.37051 5.75097 0.5
7 13.2993 1.17505 1.6515 0.5
8 9.35153 3.37647 3.49969 0.5
9 8.66674 12.6365 5.58094 0.5
10 0.639046 1.17731 9.16635 0.5
11 8.28719 12.2679 6.30331 0.5
12 3.39675 9.76569 1.08525 0.5
13 8.62522 9.53611 2.34728 0.5
14 0.0379052 3.42309 5.70793 0.5
15 0.185198 10.3122 1.13849 0.5
16 7.5039 4.1118 8.95433 0.5
17 12.4718 1.31478 12.8053 0.5
18 7.69263 2.70075 9.86698 0.5
19 13.284 6.94382 11.0577 0.5
20 9.7727 1.64549 2.26167 0.5
21 13.156 6.29041 8.0324 0.5
22 9.11858 9.14392 5.62284 0.5
23 3.81918 8.50933 9.96374 0.5
24 11.3072 4.13148 4.05856 0.5
25 7.11637 12.5649 7.86426 0.5
26 13.3941 11.8634 9.38906 0.5
27 3.56334 8.99036 8.62822 0.5
28 5.10779 5.50172 2.02038 0.5
29 9.67924 11.2495 2.53713 0.5
30 11.3337 3.60287 1.76315 0.5
31 3.49951 9.45668 5.82475 0.5
32 6.42656 0.313743 12.5545 0.5
33 13.0298 10.1111 11.1855 0.5
34 6.53241 5.7687 9.59585 0.5
35 4.65178 4.9993 3.03104 0.5
36 8.01301 9.00017 6.46003 0.5
37 6.44801 8.85971 2.19493 0.5
38 12.5149 5.79188 2.98987 0.5
39 6.93662 6.93098 1.05845 0.5
40 12.3761 10.4776 6.70694 0.5
41 12.1175 0.514724 11.42 0.5
42 1.76388 7.3396 9.13472 0.5
43 10.0222 9.29184 12.1146 0.5
44 0.061558 2.74584 8.61171 0.5
45 0.0364647 11.618 7.82124 0.5
46 4.83298 11.9349 6.8398 0.5
47 4.43543 12.9718 8.90258 0.5
48 8.61276 5.62802 0.210009 0.5
49 9.15887 4.97218 2.23061 0.5
50 11.6606 13.0841 6.49992 0.5
51 8.01279 4.62774 12.1523 0.5
52 1.52675 4.22189 1.07273 0.5
53 8.77662 10.0717 7.69393 0.5
54 1.96567 2.51602 8.47973 0.5
55 8.84482 2.86525 13.2369 0.5
56 4.91883 9.5153 11.249 0.5
57 8.38388 8.57927 6.55128 0.5
58 6.41738 10.6044 8.37431 0.5
59 10.0795 8.63737 9.33243 0.5
60 9.31382 0.92947 5.47118 0.5
61 4.05673 11.6414 12.9908 0.5
62 1.15773 2.0356 9.77543 0.5
63 3.27372 1.11418 0.990591 0.5
64 2.25313 10.873 3.36583 0.5
65 0.548985 6.09299 7.48022 0.5
66 6.29239 1.21156 12.2975 0.5
67 10.7451 2.09029 6.5935 0.5
68 2.63778 12.5029 9.00458 0.5
69 11.9065 3.24821 9.12741 0.5
70 5.88934 9.82368 2.10619 0.5
71 2.4733 0.23776 0.862168 0.5
72 2.54163 11.2988 12.03 0.5
73 11.8697 5.68187 9.59113 0.5
74 12.9304 13.0565 5.81959 0.5
75 5.23973 10.8147 11.0508 0.5
76 13.168 10.4776 12.917 0.5
77 1.27939 2.23133 5.36248 0.5
78 9.51512 11.3245 7.53998 0.5
79 9.76475 5.87173 6.41907 0.5
80 11.1181 0.145669 5.37822 0.5
81 7.37716 5.011 10.8062 0.5
82 7.52811 8.25743 13.079 0.5
83 5.45181 2.5863 11.2652 0.5
84 11.3567 3.37768 4.15042 0.5
85 12.0345 11.2571 3.15056 0.5
86 5.46138 9.26116 0.477326 0.5
87 7.81291 0.210276 12.9756 0.5
88 8.26123 8.96914 6.09407 0.5
89 7.2776 2.30262 0.410858 0.5
90 12.9899 6.72535 0.280376 0.5
91 1.84527 2.21464 1.33887 0.5
92 2.19996 10.1725 2.59864 0.5
93 4.96635 11.1707 3.16877 0.5
94 3.72799 4.20066 7.10829 0.5
95 9.60714 3.37326 9.47344 0.5
96 0.113891 11.5554 8.88415 0.5
97 11.6872 3.90968 3.22143 0.5
98 10.1103 7.44733 11.7297 0.5
99 8.13535 12.19 3.40096 0.5
100 4.0244 0.757955 11.6452 0.5
101 8.66726 3.49822 10.9646 0.5
102 7.37596 2.40018 12.5389 0.5
103 13.1408 0.9426 10.9307 0.5
104 4.69736 11.7074 8.71575 0.5
105 1.82814 1.5518 7.85879 0.5
106 5.43631 13.0778 8.72126 0.5
107 11.2545 8.76411 3.50202 0.5
108 5.54252 10.698 12.3556 0.5
109 12.7699 4.96002 12.383 0.5
110 8.76268 7.39235 9.66623 0.5
111 3.67504 10.3245 7.2681 0.5
112 5.50336 3.6265 10.317 0.5
113 6.73534 9.9154 2.23437 0.5
114 4.13544 11.9594 4.055 0.5
115 4.36681 13.0701 12.2058 0.5
116 7.96361 8.50011 3.73702 0.5
117 7.54926 4.91973 10.2808 0.5
118 9.31294 3.40818 2.17822 0.5
119 9.33872 7.37466 9.87041 0.5
120 2.79803 1.77342 8.62585 0.5
121 11.328 10.5127 3.13128 0.5
122 11.1156 3.49697 1.56618 0.5
123 9.36988 1.05322 7.21672 0.5
124 9.73465 5.9211 3.28679 0.5
125 8.86253 6.22271 9.32625 0.5
126 0.384132 12.4473 7.2975 0.5
127 10.7113 10.7926 12.9511 0.5
128 5.24363 4.19401 0.778319 0.5
129 5.14785 10.0843 12.2625 0.5
130 8.90337 4.10838 12.6964 0.5
131 13.0694 2.48659 10.8001 0.5
132 8.5473 12.1281 9.28243 0.5
133 9.04861 0.934672 11.7162 0.5
134 0.0878854 9.2275 5.61167 0.5
135 13.167 11.4009 8.30363 0.5
136 10.9212 1.30746 1.87649 0.5
137 -0.000179458 10.5557 6.58008 0.5
138 7.02974 4.1308 1.12596 0.5
139 4.30182 8.77208 2.90622 0.5
140 12.0979 6.86429 12.4025 0.5
141 6.8666 4.50088 9.9168 0.5
142 4.83783 13.396 0.606475 0.5
143 13.102 9.07851 4.18877 0.5
144 5.31891 3.2794 12.5514 0.5
145 7.93534 9.76755 8.01204 0.5
146 11.328 13.1888 12.098 0.5
147 13.5135 0.887631 11.611 0.5
148 0.467174 12.0468 5.0356 0.5
149 1.7305 1.51894 3.9275 0.5
150 0.796206 3.62652 7.02681 0.5
151 11.2017 7.95879 0.195824 0.5
152 12.6228 12.8324 3.88082 0.5
153 6.48714 10.123 3.36112 0.5
154 5.73908 0.449211 1.51726 0.5
155 10.302 11.3404 13.4697 0.5
156 0.783381 7.44967 3.85554 0.5
157 11.3657 7.7518 1.90863 0.5
158 7.09545 7.10298 5.43741 0.5
159 8.88674 2.81312 0.553697 0.5
160 8.07112 10.5367 10.3337 0.5
161 12.3124 10.1216 1.54754 0.5
162 3.9087 9.25661 7.6678 0.5
163 9.1461 3.35798 11.3318 0.5
164 7.66595 0.0389495 2.13432 0.5
165 9.29114 9.27095 7.32442 0.5
166 5.26474 4.74202 4.01582 0.5
167 7.39132 7.02928 1.65974 0.5
168 10.1803 6.54185 12.5207 0.5
169 5.9659 11.7 0.540919 0.5
170 13.494 0.331385 6.42625 0.5
171 4.56582 13.5411 4.70947 0.5
172 4.0908 12.1789 2.70457 0.5
173 12.3512 8.74987 1.81707 0.5
174 3.87709 10.4856 12.0365 0.5
175 5.18711 4.96025 5.35943 0.5
176 1.44797 5.75355 13.4908 0.5
177 5.14954 6.36837 9.14756 0.5
178 2.03465 11.1444 7.89918 0.5
179 12.7378 4.62287 13.3446 0.5
180 9.55162 12.9493 2.47457 0.5
181 3.06409 1.7576 5.24499 0.5
182 7.71749 6.10954 3.97145 0.5
183 7.30907 7.30141 8.18072 0.5
184 6.36422 13.411 8.05994 0.5
185 11.0725 8.15442 3.03468 0.5
186 9.45757 11.3564 1.42448 0.5
187 5.03221 2.42537 9.82319 0.5
188 13.0756 13.0813 2.05661 0.5
189 5.97973 7.16081 11.2822 0.5
190 9.27506 0.30463 4.0397 0.5
191 11.755 5.28915 1.15454 0.5
192 3.14729 1.6689 1.28369 0.5
193 11.7893 13.2085 10.0465 0.5
194 12.6874 3.5431 3.84518 0.5
195 2.11865 7.28298 5.74861 0.5
196 8.85802 12.568 10.2429 0.5
197 7.54651 6.47374 2.63329 0.5
198 3.68834 12.3515 11.9486 0.5
199 1.14217 5.67085 12.1601 0.5
200 2.88749 13.5031 4.22244 0.5
201 10.8307 1.03692 0.891208 0.5
202 7.93989 7.21382 9.46246 0.5
203 7.88357 4.39321 5.36838 0.5
204 4.20363 2.98371 0.0702982 0.5
205 6.28436 5.8965 8.64842 0.5
206 3.34607 6.23433 7.47696 0.5
207 12.2299 11.8093 1.59118 0.5
208 11.0922 10.3839 11.6897 0.5
209 10.2846 5.14517 2.72305 0.5
210 12.9881 0.442156 8.78293 0.5
211 13.6329 2.51688 12.5334 0.5
212 6.40075 5.22273 6.34823 0.5
213 7.24 3.0963 0.87626 0.5
214 3.84112 1.66558 5.61713 0.5
215 4.51168 2.55002 11.6432 0.5
216 0.416616 10.1465 8.10322 0.5
217 3.07479 2.03134 2.41324 0.5
218 10.5143 8.1939 9.9583 0.5
219 11.3319 7.95866 3.1718 0.5
220 5.79903 8.74702 1.91182 0.5
221 13.1287 13.538 6.98878 0.5
222 8.77495 2.3606 2.8636 0.5
223 3.07979 7.67311 7.32575 0.5
224 1.18892 5.89951 3.41749 0.5
225 8.46296 3.14864 7.36924 0.5
226 12.9884 12.9551 6.47151 0.5
227 3.93336 5.90094 0.878013 0.5
228 0.406485 1.58764 6.66367 0.5
229 5.83154 1.4653 1.66222 0.5
230 7.37061 2.63379 10.432 0.5
231 4.8622 12.7094 7.29236 0.5
232 12.8216 8.58864 7.43733 0.5
233 11.1748 12.8032 2.28287 0.5
234 4.93302 9.13408 3.85304 0.5
235 11.1279 2.41764 5.49269 0.5
236 7.9555 5.07908 12.3817 0.5
237 11.1164 1.75323 4.27466 0.5
238 7.31446 5.19058 1.95835 0.5
239 3.51604 12.1728 -0.0104438 0.5
240 9.69996 0.376764 12.3856 0.5
241 2.44371 13.4733 10.6199 0.5
242 0.0576967 1.57403 4.31317 0.5
243 2.72532 10.6015 0.444501 0.5
244 7.00671 5.65469 2.55469 0.5
245 6.34568 6.87152 1.86514 0.5
246 0.1223 2.22301 2.26154 0.5
247 6.73864 9.89986 8.30124 0.5
248 12.3363 2.56505 13.3535 0.5
249 0.798004 11.3142 9.98247 0.5
250 1.7595 3.61915 9.53024 0.5
251 11.8861 11.4841 2.33703 0.5
252 13.486 12.8521 11.3131 0.5
253 5.44243 4.34386 8.39636 0.5
254 5.72405 7.36649 5.27599 0.5
255 0.673552 9.89866 10.8371 0.5
256 0.954716 10.372 7.02439 0.5
257 12.7993 6.18562 2.22618 0.5
258 6.52348 2.09777 2.49396 0.5
259 12.6361 7.44655 3.18527 0.5
260 0.379683 1.25391 9.79406 0.5
261 1.50645 3.71867 11.7046 0.5
262 8.03834 13.4738 10.0677 0.5
263 10.9623 1.82939 3.60649 0.5
264 5.87339 0.322636 13.1877 0.5
265 1.44545 7.9032 7.44445 0.5
266 6.58964 6.89764 0.737433 0.5
267 0.832835 9.27823 4.56447 0.5
268 3.70035 12.8334 9.29877 0.5
269 9.06509 9.65543 0.202675 0.5
270 1.62229 4.17774 3.14921 0.5
271 11.6726 12.6507 5.27262 0.5
272 1.96024 0.603894 4.50153 0.5
273 11.394 0.640495 12.3124 0.5
274 7.41618 9.45982 12.4249 0.5
275 2.54811 2.84385 10.5837 0.5
276 0.165482 11.8323 3.12209 0.5
277 1.51537 6.00776 7.51449 0.5
278 2.8118 5.77721 6.42803 0.5
279 7.68778 2.39805 0.564597 0.5
280 0.216289 5.6147 10.4506 0.5
281 1.83717 12.8364 7.79578 0.5
282 2.15606 0.918043 3.71111 0.5
283 13.0025 10.1579 4.26623 0.5
284 8.25712 0.869475 0.961989 0.5
285 10.7805 8.95209 2.05401 0.5
286 3.58103 1.13625 13.5068 0.5
287 7.5704 3.87645 13.1595 0.5
288 1.44294 5.60679 1.74557 0.5
289 13.2519 11.7003 0.009385 0.5
290 2.86375 8.69362 9.77325 0.5
291 8.02865 12.8698 1.77592 0.5
292 12.7741 11.5115 11.6873 0.5
293 1.44845 8.95705 10.2904 0.5
294 11.512 5.70791 2.32659 0.5
295 11.7982 6.08495 5.21962 0.5
296 3.85761 8.41731 5.82598 0.5
297 8.19626 7.32309 10.9938 0.5
298 11.9515 8.50556 4.52916 0.5
299 7.09141 2.58119 12.2934 0.5
300 0.415303 13.2477 3.53706 0.5
301 2.62061 7.07483 6.18075 0.5
302 6.50989 7.29459 9.83073 0.5
303 8.03196 1.1388 5.05084 0.5
304 13.2209 11.8045 0.599379 0.5
305 13.0932 0.0366203 11.8517 0.5
306 5.09654 11.791 3.91306 0.5
307 12.2146 6.21376 3.45774 0.5
308 3.20543 11.7272 10.7041 0.5
309 1.84816 12.762 6.27923 0.5
310 11.0782 4.6023 2.70934 0.5
311 7.54884 2.14578 7.78205 0.5
312 6.15413 9.14101 4.0648 0.5
313 2.09786 7.59806 6.54599 0.5
314 2.67248 4.26613 7.24699 0.5
315 12.7892 2.79118 8.67988 0.5
316 8.04181 2.89081 8.92757 0.5
317 13.4233 3.53107 12.9466 0.5
318 1.31569 1.90773 2.04388 0.5
319 8.65732 13.1598 8.73446 0.5
320 9.68838 0.566748 9.67446 0.5
321 10.8305 1.89403 0.485352 0.5
322 12.3694 7.05499 10.3494 0.5
323 0.303953 13.2476 7.7214 0.5
324 1.21656 11.181 8.16561 0.5
325 9.73346 11.7229 12.3932 0.5
326 4.48501 4.86329 4.48831 0.5
327 13.0442 6.6454 13.4763 0.5
328 5.48748 10.9877 3.83364 0.5
329 8.27779 1.32179 5.5631 0.5
330 11.5816 11.5901 2.53374 0.5
331 5.90783 4.52695 12.5094 0.5
332 10.1794 3.20392 8.61061 0.5
333 6.03144 10.236 12.4216 0.5
334 8.6132 10.6998 5.38641 0.5
335 13.0824 13.575 11.4706 0.5
336 3.69935 11.9928 4.40138 0.5
337 3.4326 11.9822 6.26519 0.5
338 0.342131 4.73314 11.0396 0.5
339 11.3597 4.76925 11.0865 0.5
340 4.15108 3.77579 6.48175 0.5
341 5.52491 1.92773 4.07717 0.5
342 8.12871 5.79739 5.39935 0.5
343 2.42444 11.1186 13.3411 0.5
344 11.6559 7.38749 11.4439 0.5
345 9.55034 7.02489 7.95451 0.5
346 11.344 3.41 12.3996 0.5
347 7.39002 13.0255 6.43588 0.5
348 4.33043 0.920997 2.82144 0.5
349 13.5136 8.61487 8.67552 0.5
350 6.97363 7.92393 11.6546 0.5
351 3.37444 11.9506 10.2138 0.5
352 9.92555 1.89967 3.47721 0.5
353 0.387356 3.8404 2.43261 0.5
354 2.25576 10.0798 11.4332 0.5
355 11.1222 2.99376 9.08503 0.5
356 11.8895 0.974724 0.643386 0.5
357 5.2843 8.51067 13.1139 0.5
358 10.0414 4.5833 2.19739 0.5
359 6.19049 7.60551 6.56319 0.5
360 3.99286 1.02617 3.73322 0.5
361 3.15513 9.73354 11.7898 0.5
362 6.53843 8.33338 1.8219 0.5
363 3.70334 12.8329 3.93267 0.5
364 4.94666 9.91923 12.1887 0.5
365 6.37001 8.98701 0.952908 0.5
366 10.1767 9.62455 9.04682 0.5
367 8.04024 0.553082 6.39003 0.5
368 1.87523 13.4196 0.674314 0.5
369 10.2021 11.639 8.4013 0.5
370 12.4833 4.66783 10.21 0.5
371 4.8677 1.15131 9.0319 0.5
372 2.66015 4.77903 4.10764 0.5
373 1.40048 1.70374 1.59949 0.5
374 10.5451 0.0748007 3.77126 0.5
375 0.422137 3.44149 5.95363 0.5
376 8.89711 2.29431 6.39426 0.5
377 12.8204 2.74727 5.83072 0.5
378 2.98378 12.5841 4.63951 0.5
379 11.1552 13.0415 13.4286 0.5
380 5.86387 9.98628 6.60363 0.5
381 0.989528 12.8517 6.67617 0.5
382 0.268714 3.63298 3.66949 0.5
383 7.45109 8.19434 0.019387 0.5
384 1.13735 7.48526 7.82531 0.5
385 9.44078 11.3441 10.6542 0.5
386 10.2258 9.19303 9.57532 0.5
387 4.57625 11.051 5.47193 0.5
388 7.86752 9.95537 11.3196 0.5
389 4.21719 5.84128 11.6894 0.5
390 3.9109 12.3217 7.97753 0.5
391 6.68364 6.60967 2.03429 0.5
392 3.96125 4.13456 0.121245 0.5
393 6.78377 4.86274 12.1286 0.5
394 2.37949 12.1558 4.45158 0.5
395 6.94829 7.64647 3.6653 0.5
396 0.200184 1.817 10.6867 0.5
397 3.09496 10.9066 2.60578 0.5
398 11.8551 6.28039 2.93909 0.5
399 9.37229 12.0692 2.86209 0.5
400 3.08035 6.63333 11.5337 0.5
401 5.34217 10.112 9.80415 0.5
402 0.161273 12.8407 12.4122 0.5
403 1.14597 0.44125 2.37539 0.5
404 0.734441 11.9849 8.95986 0.5
405 1.36581 3.1335 0.563754 0.5
406 4.1649 5.13554 0.872916 0.5
407 5.41281 11.0674 2.06734 0.5
408 0.996758 1.02596 7.00073 0.5
409 4.07037 9.505 12.4952 0.5
410 0.254886 4.75602 6.09457 0.5
411 9.62077 3.37057 5.27445 0.5
412 0.753042 13.2618 5.73902 0.5
413 0.774305 8.03598 8.69952 0.5
414 4.87714 10.5839 0.335115 0.5
415 8.69292 2.93751 7.26376 0.5
416 2.28147 8.55653 9.35322 0.5
417 8.68306 5.98765 9.23837 0.5
418 9.83272 11.954 12.2206 0.5
419 9.29162 1.34599 9.7198 0.5
420 11.9489 10.2457 10.2279 0.5
421 10.6114 2.22442 9.71727 0.5
422 0.334375 10.2283 0.0588694 0.5
423 10.6215 0.548334 11.1743 0.5
424 7.96546 7.45723 6.64604 0.5
425 4.84312 1.30368 1.40462 0.5
426 5.56028 13.5831 10.2131 0.5
427 0.878523 8.06488 6.21865 0.5
428 2.95429 13.3401 5.88604 0.5
429 9.97511 0.141101 1.95785 0.5
430 6.75874 10.5328 10.7831 0.5
431 0.87501 9.90389 10.0054 0.5
432 0.14196 9.79079 9.01992 0.5
433 3.97116 6.75301 3.17448 0.5
434 1.18267 1.04593 7.3275 0.5
435 7.18626 6.38815 6.57403 0.5
436 0.100104 13.4367 4.29192 0.5
437 0.33535 1.71368 12.73 0.5
438 7.05318 12.3869 0.0537836 0.5
439 2.41996 7.20112 5.97558 0.5
440 10.594 12.9161 11.5776 0.5
441 10.982 0.030243 11.5455 0.5
442 2.06226 11.7846 11.3224 0.5
443 0.109059 2.41718 5.91528 0.5
444 7.16318 0.109202 6.08333 0.5
445 12.4827 1.13257 7.60163 0.5
446 11.4692 0.263462 9.93045 0.5
447 11.3154 12.3826 10.52 0.5
448 4.84834 2.69326 6.03101 0.5
449 4.37977 6.84252 13.2944 0.5
450 12.5158 0.763403 6.94203 0.5
451 7.16417 12.973 5.25844 0.5
452 7.59403 3.20896 5.47941 0.5
453 9.7245 9.15302 9.45959 0.5
454 0.537769 13.5277 9.83352 0.5
455 4.76319 12.8618 0.132891 0.5
456 6.17642 3.68109 3.83307 0.5
457 9.58973 6.10682 0.399114 0.5
458 12.5136 9.15943 4.11746 0.5
459 6.04119 0.674463 9.28963 0.5
460 4.46507 7.38004 10.3751 0.5
461 7.4524 4.5593 7.42376 0.5
462 4.48508 12.2517 9.22188 0.5
463 4.62089 1.92558 7.84724 0.5
464 6.46403 0.390947 2.53688 0.5
465 6.84436 10.3105 10.7272 0.5
466 4.50989 0.765434 5.49607 0.5
467 12.5725 11.5835 13.4183 0.5
468 11.9862 7.19953 8.5745 0.5
469 6.26605 12.0764 8.33339 0.5
470 4.47723 10.1031 9.4793 0.5
471 2.53698 4.99153 8.0738 0.5
472 3.21517 1.95729 7.17905 0.5
473 3.20687 4.70146 12.6977 0.5
474 3.12465 9.56448 4.9094 0.5
475 3.53636 12.2572 4.15325 0.5
476 9.88489 8.36465 7.34178 0.5
477 13.39 7.38158 12.2814 0.5
478 3.19215 1.44825 4.44703 0.5
479 2.09953 9.22279 10.1696 0.5
480 2.77543 7.3107 2.37366 0.5
481 8.25934 1.834 12.4696 0.5
482 5.93498 7.17563 1.05336 0.5
483 12.6358 13.1336 2.73976 0.5
484 12.4375 7.99698 6.98066 0.5
485 3.25407 4.98491 10.2528 0.5
486 6.9626 7.5364 8.42135 0.5
487 12.7092 6.27146 4.7994 0.5
488 13.4994 5.88685 1.38425 0.5
489 13.1486 3.95307 12.3227 0.5
490 7.57077 12.9932 9.94254 0.5
491 7.64444 6.49584 6.84892 0.5
492 2.34904 13.5444 8.49306 0.5
493 0.0703012 7.33102 9.57795 0.5
494 2.16615 5.95647 9.37662 0.5
495 2.30422 9.29298 10.352 0.5
496 7.9865 7.01346 9.81488 0.5
497 12.7537 10.4041 3.74682 0.5
498 11.8164 5.3981 7.2781 0.5
499 7.30822 6.87622 13.309 0.5
500 9.95029 10.9681 11.8672 0.5
501 12.9852 11.091 8.40716 0.5
502 3.69923 8.9296 9.37903 0.5
503 2.67119 6.2485 4.67099 0.5
504 3.34868 10.7546 3.61492 0.5
505 12.4635 2.15498 9.55635 0.5
506 4.00533 5.40114 3.25496 0.5
507 13.5241 5.15312 9.03459 0.5
508 3.40053 8.88163 12.5161 0.5
509 9.94453 11.3147 4.69183 0.5
510 1.60555 7.94656 7.02195 0.5
511 3.16216 9.11006 11.2093 0.5
512 10.8256 5.31569 11.9128 0.5
513 13.1128 13.3172 10.5051 0.5
514 6.27072 4.1518 11.0832 0.5
515 1.45213 2.46278 2.62219 0.5
516 4.21011 7.27741 1.68102 0.5
517 6.46979 0.897314 2.94643 0.5
518 5.07678 12.0436 8.51732 0.5
519 8.80026 8.92235 4.85405 0.5
520 12.9151 5.83294 6.86129 0.5
521 8.14065 9.24718 0.165881 0.5
522 12.0359 10.7853 5.48699 0.5
523 5.79145 3.46645 3.4989 0.5
524 3.79603 13.0938 4.96628 0.5
525 10.3267 12.4612 1.38679 0.5
526 12.9014 7.31421 9.70285 0.5
527 4.16869 13.4886 4.93922 0.5
528 6.16782 10.3245 4.62708 0.5
529 4.05059 9.36561 11.6819 0.5
530 1.77715 11.8023 2.64034 0.5
531 4.58389 11.2218 9.91838 0.5
532 5.49718 0.757939 1.42183 0.5
533 2.57079 9.01597 12.7996 0.5
534 7.66279 3.91388 2.59954 0.5
535 3.4329 6.86259 2.06923 0.5
536 0.474316 0.0159268 10.8927 0.5
537 3.02451 2.53248 2.58889 0.5
538 1.40162 6.61312 4.1825 0.5
539 11.4028 1.11222 7.77725 0.5
540 0.104501 6.20098 7.92433 0.5
541 10.9908 12.1494 11.7612 0.5
542 2.54848 7.33892 11.3672 0.5
543 9.77788 13.0039 4.67447 0.5
544 1.50883 0.736216 9.41373 0.5
545 9.2779 3.35047 7.34384 0.5
546 7.98042 13.0929 9.00362 0.5
547 0.49236 12.7253 4.08843 0.5
548 1.75753 8.81261 2.72293 0.5
549 5.97855 2.85606 11.6385 0.5
550 10.7627 7.51457 9.95744 0.5
551 13.0591 3.14276 11.1972 0.5
552 3.47544 13.3331 12.5335 0.5
553 6.85905 12.7091 11.786 0.5
554 0.173455 10.6292 9.91228 0.5
555 4.41947 6.07401 6.53574 0.5
556 8.15306 3.13048 11.0043 0.5
557 9.01009 6.18436 1.61544 0.5
558 1.89114 10.6601 11.6533 0.5
559 5.58035 12.8238 8.67258 0.5
560 13.2298 11.2885 7.00472 0.5
561 3.6486 0.253323 12.2886 0.5
562 2.64134 4.85131 4.44453 0.5
563 5.723 9.9996 10.3218 0.5
564 6.55146 0.557129 9.83315 0.5
565 13.3499 10.448 12.8638 0.5
566 10.9862 3.16523 7.35176 0.5
567 10.198 11.4557 9.95603 0.5
568 7.39576 0.927595 0.248114 0.5
569 0.248128 3.69058 9.60893 0.5
570 0.954263 3.03843 0.0524912 0.5
571 5.94481 6.8641 3.20171 0.5
572 6.97039 6.62583 12.7576 0.5
573 9.53941 4.54642 0.567812 0.5
574 3.50186 5.01961 7.8836 0.5
575 9.29392 12.3985 6.16939 0.5
576 2.27242 12.5954 5.40988 0.5
577 11.8136 13.4038 1.49736 0.5
578 8.77777 12.2968 9.23387 0.5
579 6.10853 1.77749 7.02628 0.5
580 9.71978 7.81921 13.2055 0.5
581 10.8888 11.5784 11.2278 0.5
582 3.29054 12.2703 7.40501 0.5
583 0.559548 1.24192 9.19565 0.5
584 11.6036 4.76979 4.94294 0.5
585 6.54824 3.42604 5.34461 0.5
586 4.93841 -0.00154767 1.75837 0.5
587 3.76351 4.56228 6.12233 0.5
588 3.47956 1.9232 8.35672 0.5
589 1.30266 8.09979 4.41063 0.5
590 0.592227 3.43 5.04468 0.5
591 0.469303 4.37133 4.43278 0.5
592 6.65351 13.5013 2.45934 0.5
593 11.1155 9.48024 10.273 0.5
594 6.011 9.21994 3.94717 0.5
595 4.93887 5.50807 2.74274 0.5
596 8.01635 5.1263 4.55394 0.5
597 5.72889 9.65178 4.50597 0.5
598 7.99498 3.44531 13.1337 0.5
599 12.3499 7.44975 6.65245 0.5
600 1.62994 4.05255 11.0349 0.5
601 5.63248 3.25992 4.37357 0.5
602 6.20337 13.4963 3.71332 0.5
603 7.36298 4.87252 11.9673 0.5
604 3.7757 10.838 12.6462 0.5
605 4.83619 12.4093 0.521096 0.5
606 9.15122 7.52683 2.50458 0.5
607 8.48129 3.48683 11.8448 0.5
608 10.0133 10.5757 3.92455 0.5
609 1.9666 2.45844 10.2601 0.5
610 12.5711 8.38595 7.08289 0.5
611 11.4636 5.76318 5.05186 0.5
612 11.1767 8.99711 11.8068 0.5
613 6.05084 5.73952 1.84959 0.5
614 9.01477 4.79275 0.307948 0.5
615 11.7115 2.54648 9.55456 0.5
616 0.388507 9.90438 8.45693 0.5
617 6.68415 11.0344 1.91067 0.5
618 0.467696 6.16532 0.976556 0.5
619 3.6353 9.46024 8.12372 0.5
620 5.5902 7.97415 3.87013 0.5
621 8.8385 6.86172 6.94492 0.5
622 1.24538 4.55758 9.38218 0.5
623 6.00316 0.404003 0.578663 0.5
624 8.84594 5.19174 2.77961 0.5
625 0.201894 3.93791 12.537 0.5
626 12.6285 4.84481 10.4944 0.5
627 6.28139 11.4074 7.00649 0.5
628 4.29702 0.779737 3.53771 0.5
629 0.41491 1.08588 10.7289 0.5
630 6.3029 0.280986 8.82838 0.5
631 6.15625 6.32505 2.59516 0.5
632 2.12931 12.7562 5.33673 0.5
633 9.69233 4.66837 8.9493 0.5
634 9.24469 11.6063 4.79641 0.5
635 6.98955 0.575711 4.97651 0.5
636 1.64792 6.77239 6.62223 0.5
637 10.8335 3.26236 11.1005 0.5
638 2.37087 13.1937 9.41344 0.5
639 1.71385 12.3583 1.61805 0.5
640 13.0422 7.64311 5.18725 0.5
641 1.81567 12.0048 11.453 0.5
642 5.45672 3.76577 3.85852 0.5
643 5.061 11.0787 8.48124 0.5
644 5.62736 3.09467 9.72518 0.5
645 12.8142 1.20626 12.3229 0.5
646 9.1142 7.65691 9.68689 0.5
647 10.1029 13.3468 0.780892 0.5
648 8.61959 0.624189 13.2421 0.5
649 0.196234 10.6159 3.14242 0.5
650 6.12925 5.48776 6.46047 0.5
651 9.69771 7.06189 5.02069 0.5
652 10.954 9.02173 11.1871 0.5
653 2.88152 12.124 5.4078 0.5
654 0.0259246 2.32281 0.437016 0.5
655 3.49881 13.4573 0.280711 0.5
656 1.27554 11.4136 7.63862 0.5
657 5.87552 6.70876 9.24567 0.5
658 1.01598 1.99685 11.1079 0.5
659 1.29653 1.41624 2.33879 0.5
660 10.0635 4.10975 8.95325 0.5
661 10.8111 11.3165 10.1095 0.5
662 1.08444 1.06611 3.13643 0.5
663 10.8789 12.8922 9.79537 0.5
664 8.81078 5.91611 8.05347 0.5
665 6.61142 12.0912 1.77867 0.5
666 11.6299 4.82417 2.90216 0.5
667 2.08906 10.3278 10.0599 0.5
668 8.16545 8.1272 8.26504 0.5
669 8.65628 11.4999 10.747 0.5
670 3.93321 13.1289 5.28662 0.5
671 12.5256 0.0975802 2.00794 0.5
672 7.99113 1.0363 10.0264 0.5
673 3.27536 5.81411 12.0225 0.5
674 12.0495 9.94589 6.21803 0.5
675 2.55676 12.8477 2.42307 0.5
676 4.38708 8.39414 11.6068 0.5
677 7.15593 0.340461 13.0899 0.5
678 4.24331 7.66391 9.76867 0.5
679 2.46642 6.64237 4.01203 0.5
680 3.97447 8.41818 8.98029 0.5
681 12.3036 7.2043 6.24558 0.5
682 11.5803 12.8928 4.0839 0.5
683 2.86497 12.8112 3.10736 0.5
684 13.0435 12.4926 12.5925 0.5
685 2.38558 9.12795 8.57106 0.5
686 4.68688 11.8424 9.34078 0.5
687 4.75735 7.04169 7.35931 0.5
688 5.46989 5.249 3.46671 0.5
689 9.96063 2.27076 12.0381 0.5
690 8.03197 11.7978 13.6121 0.5
691 5.03017 0.79851 2.1564 0.5
692 12.5059 8.96813 7.99055 0.5
693 1.08506 5.5723 0.0798145 0.5
694 0.469058 10.0439 5.98907 0.5
695 2.71574 0.324775 3.22925 0.5
696 4.17342 11.0406 8.47516 0.5
697 5.86312 12.3805 11.4125 0.5
698 5.0701 4.77463 3.14533 0.5
699 5.17541 13.4338 7.78686 0.5
700 11.4614 7.57128 1.05823 0.5
701 1.52483 11.2486 7.88052 0.5
702 2.21353 5.60845 8.86369 0.5
703 9.25445 0.352279 0.789771 0.5
704 7.62792 1.8404 0.449447 0.5
705 12.0234 12.1102 12.6357 0.5
706 4.21797 1.21198 8.80792 0.5
707 11.9509 5.98608 5.20689 0.5
708 9.18415 10.4825 9.52458 0.5
709 3.58012 8.25669 0.309274 0.5
710 5.87037 2.33539 2.74526 0.5
711 9.29769 2.47977 10.5722 0.5
712 11.8334 0.188188 4.33401 0.5
713 10.3082 10.6931 0.13185 0.5
714 9.85334 12.5515 2.30954 0.5
715 3.57664 0.119416 8.19684 0.5
716 13.138 3.49964 4.60292 0.5
717 9.19333 5.76938 6.55809 0.5
718 6.11044 2.75934 12.2453 0.5
719 9.86371 5.47985 9.01362 0.5
720 4.64005 1.33008 12.451 0.5
721 0.662039 10.2944 9.12423 0.5
722 5.31444 11.2803 8.91328 0.5
723 9.26336 2.77747 11.3221 0.5
724 12.7971 6.8151 3.6114 0.5
725 1.45601 1.9966 3.23142 0.5
726 8.10951 12.7685 10.8405 0.5
727 9.01454 7.70097 9.70214 0.5
728 10.2683 11.3498 5.45483 0.5
729 12.9086 11.2409 10.9286 0.5
730 10.1829 4.67104 2.68505 0.5
731 4.14389 11.0191 10.9798 0.5
732 3.85282 11.5373 4.39719 0.5
733 9.67325 3.58779 4.32007 0.5
734 1.75026 7.99132 9.43366 0.5
735 10.1288 2.86016 0.239216 0.5
736 12.6894 8.40804 11.2799 0.5
737 1.46189 2.2563 7.38054 0.5
738 5.11194 7.34539 9.77567 0.5
739 8.26688 0.475329 10.8116 0.5
740 0.0431904 9.77566 12.5868 0.5
741 8.57328 5.93469 10.3092 0.5
742 6.9913 8.87478 4.63799 0.5
743 12.6483 11.7271 13.1358 0.5
744 10.2001 2.38073 5.37405 0.5
745 0.964334 4.09322 7.61312 0.5
746 11.5865 11.9319 9.1928 0.5
747 1.50841 2.38525 13.104 0.5
748 11.5581 6.86148 9.50056 0.5
749 1.16904 13.1659 2.23996 0.5
750 1.05775 5.90635 7.97173 0.5
751 4.16522 7.19874 -0.00675182 0.5
752 3.74076 1.2371 4.60249 0.5
753 12.832 7.71635 5.67772 0.5
754 12.8555 10.6877 12.7185 0.5
755 1.70396 0.0800929 2.75638 0.5
756 8.1695 11.3584 0.835537 0.5
757 7.55062 12.7693 7.39115 0.5
758 11.6121 1.73005 12.6548 0.5
759 10.3214 11.6442 11.3483 0.5
760 1.90198 3.16371 3.93457 0.5
761 10.1452 0.905609 9.22912 0.5
762 3.86135 9.19346 1.10182 0.5
763 6.47686 4.70855 10.4506 0.5
764 4.03655 13.4161 1.89367 0.5
765 3.63548 10.8684 4.68501 0.5
766 5.32293 9.42564 3.13609 0.5
767 13.3815 11.1833 12.5998 0.5
768 6.29508 6.00348 9.35471 0.5
769 7.64316 8.34886 6.10947 0.5
770 1.85292 11.2945 12.635 0.5
771 2.10203 12.3088 5.6266 0.5
772 13.0091 4.13722 9.36542 0.5
773 8.65882 1.99614 10.1438 0.5
774 2.692 2.53985 2.61347 0.5
775 0.876051 2.32924 12.0897 0.5
776 2.66194 0.836685 2.20404 0.5
777 6.59482 0.137937 5.02771 0.5
778 7.86166 9.81191 9.99512 0.5
779 2.09815 3.70488 4.09191 0.5
780 12.9767 10.8441 8.91562 0.5
781 7.77766 5.4165 0.622196 0.5
782 0.700796 6.11852 6.36377 0.5
783 7.45448 8.58354 11.9289 0.5
784 7.4002 6.56 4.55635 0.5
785 8.82875 6.56512 10.8673 0.5
786 10.3488 8.39612 11.4942 0.5
787 4.86593 10.5596 2.88512 0.5
788 12.271 11.0182 4.27824 0.5
789 13.049 4.84874 10.0212 0.5
790 0.290973 0.912895 1.18824 0.5
791 3.60807 2.44571 10.8482 0.5
792 9.79605 12.2242 9.991 0.5
793 0.7713 11.4889 1.7658 0.5
794 0.260286 10.4818 2.99996 0.5
795 4.87995 4.41559 4.46361 0.5
796 4.11204 10.2319 1.11406 0.5
797 2.08166 12.7457 7.87956 0.5
798 11.3663 9.48998 0.84033 0.5
799 9.13622 12.1832 12.009 0.5
800 0.383687 3.94466 12.7598 0.5
801 6.17454 10.2155 4.98502 0.5
802 1.68222 11.5755 9.99222 0.5
803 6.845 3.88561 3.47524 0.5
804 7.05439 10.2032 4.16495 0.5
805 1.48073 10.0997 12.5032 0.5
806 13.3957 10.0195 1.28124 0.5
807 5.0753 11.1952 8.84618 0.5
808 2.35267 4.67937 10.3346 0.5
809 7.99194 12.8206 7.49193 0.5
810 13.4633 1.62218 1.56613 0.5
811 1.17802 4.66186 8.02369 0.5
812 2.38453 0.734089 6.09954 0.5
813 1.89019 4.71894 2.0823 0.5
814 0.0302022 9.93461 6.00453 0.5
815 13.2364 0.647941 3.44347 0.5
816 6.34355 11.3959 12.558 0.5
817 9.20897 5.69141 4.18037 0.5
818 1.68536 12.912 2.98443 0.5
819 7.14335 8.45289 4.82408 0.5
820 0.773707 10.6188 9.29233 0.5
821 2.283 2.74255 2.37849 0.5
822 13.3573 0.372703 4.83403 0.5
823 6.97355 4.5536 3.12049 0.5
824 2.24683 8.2338 4.34926 0.5
825 8.43247 8.53535 0.53849 0.5
826 7.12124 6.61034 6.63979 0.5
827 12.3603 2.30535 6.72379 0.5
828 5.31541 5.78875 7.8639 0.5
829 9.10184 11.6276 2.73796 0.5
830 1.41269 10.4927 9.1354 0.5
831 2.36338 2.44853 2.4635 0.5
832 4.50668 3.43605 7.36441 0.5
833 10.2169 0.69076 2.89803 0.5
834 6.05686 3.24199 5.75616 0.5
835 3.45738 0.647488 1.22441 0.5
836 4.81359 12.9019 11.6257 0.5
837 7.83665 2.82672 9.94853 0.5
838 10.8273 8.59143 10.9086 0.5
839 10.4299 13.3859 9.56439 0.5
840 2.27947 9.19906 8.62606 0.5
841 7.66595 9.72617 4.43409 0.5
842 4.81205 2.85489 8.64837 0.5
843 11.8686 12.7252 2.51088 0.5
844 12.7634 6.24182 11.7662 0.5
845 6.65087 11.8251 2.71394 0.5
846 1.86999 1.62648 3.48565 0.5
847 12.3522 12.3331 0.781953 0.5
848 6.07763 9.00462 11.2682 0.5
849 0.817149 9.51004 4.41633 0.5
850 7.31292 5.45524 12.1728 0.5
851 12.706 4.2559 7.10911 0.5
852 11.1766 7.3198 3.27675 0.5
853 8.98521 10.1432 4.06479 0.5
854 5.35932 1.38009 4.07446 0.5
855 9.93901 5.86 8.94147 0.5
856 1.06013 10.0958 6.37549 0.5
857 3.65362 7.83623 9.29715 0.5
858 9.91645 5.3932 4.72623 0.5
859 7.28356 7.75058 3.68492 0.5
860 6.21504 7.76544 8.62724 0.5
861 6.61024 4.78057 4.48448 0.5
862 0.887314 8.74991 7.12304 0.5
863 12.7428 7.10905 3.1278 0.5
864 5.30476 5.72023 4.25163 0.5
865 7.57863 12.4566 10.857 0.5
866 10.2049 8.98208 2.48771 0.5
867 12.3336 7.98081 2.058 0.5
868 3.94226 7.90224 9.42747 0.5
869 5.73997 9.22945 1.52001 0.5
870 0.261724 7.97557 1.7531 0.5
871 11.7876 2.86631 9.60307 0.5
872 6.0691 7.1605 0.503659 0.5
873 7.13845 3.63682 2.31386 0.5
874 0.497398 9.37516 8.75028 0.5
875 8.13974 10.2695 12.6721 0.5
876 1.20554 12.0885 0.324707 0.5
877 0.139235 8.7624 12.6347 0.5
878 11.1466 11.9716 11.8834 0.5
879 11.3162 12.5641 11.2416 0.5
880 6.99524 9.17343 4.84902 0.5
881 2.24225 11.7497 3.36238 0.5
882 2.77014 6.01539 1.22543 0.5
883 11.1026 10.9643 3.54477 0.5
884 7.8341 4.06495 13.1465 0.5
885 5.02314 1.83702 11.4356 0.5
886 6.63272 5.77874 5.91706 0.5
887 1.95656 8.19164 10.1241 0.5
888 1.88089 9.98101 2.12246 0.5
889 4.24141 13.5844 0.811705 0.5
890 3.80308 2.00916 7.73581 0.5
891 0.974004 8.81514 9.48166 0.5
892 7.5557 5.56202 3.91634 0.5
893 1.13298 0.131969 12.7115 0.5
894 11.3701 6.37625 8.31392 0.5
895 6.0393 4.99619 2.38063 0.5
896 11.1668 12.1913 0.426981 0.5
897 5.11647 13.287 9.22423 0.5
898 0.130433 1.16576 10.0291 0.5
899 1.99752 7.41155 4.79405 0.5
900 12.9669 2.77318 7.62302 0.5
901 8.7277 3.92417 6.24308 0.5
902 10.5769 11.4693 6.09976 0.5
903 5.74965 6.19919 3.76238 0.5
904 6.18132 7.2412 11.7177 0.5
905 11.9329 10.1257 6.41424 0.5
906 12.9049 6.12337 4.04672 0.5
907 4.99312 1.84133 7.83207 0.5
908 0.291769 7.92319 6.75556 0.5
909 4.76627 2.97354 5.58186 0.5
910 0.903918 11.6542 11.0189 0.5
911 5.82081 4.81947 1.83471 0.5
912 0.803217 11.6837 6.55674 0.5
913 4.24184 3.69381 4.96346 0.5
914 13.4183 3.23001 11.5696 0.5
915 4.02606 12.8634 0.15607 0.5
916 12.5417 4.64882 5.46642 0.5
917 7.34325 9.39048 3.22046 0.5
918 1.26055 8.01978 2.30361 0.5
919 6.80327 12.8405 4.81513 0.5
920 2.65283 11.8845 0.437539 0.5
921 5.37893 4.75657 3.13345 0.5
922 0.574694 6.56244 10.0723 0.5
923 6.90303 8.80255 10.9121 0.5
924 12.1529 9.17238 9.2372 0.5
925 10.6353 1.86325 12.7394 0.5
926 0.610677 3.3013 13.5148 0.5
927 4.39514 7.22487 4.02908 0.5
928 1.75094 10.0519 5.09115 0.5
929 12.8406 11.5067 10.4395 0.5
930 2.93134 8.82615 5.83115 0.5
931 13.1518 2.17698 1.31295 0.5
932 9.70277 6.41679 7.73078 0.5