ITEM: TIMESTEP
430000
ITEM: NUMBER OF ATOMS
1000
ITEM: BOX BOUNDS xy xz yz pp pp pp
0.0000000000000000e+00 1.3572088000000001e+01 0.0000000000000000e+00
0.0000000000000000e+00 1.3572088000000001e+01 0.0000000000000000e+00
0.0000000000000000e+00 1.3572088000000001e+01 0.0000000000000000e+00
ITEM: ATOMS id x y z radius
1 11.9262 9.37287 10.1162 0.5
2 0.335848 4.16908 5.17686 0.5
3 6.26512 2.15568 11.6797 0.5
4 6.59566 7.09615 6.47391 0.5
5 2.28492 5.88386 13.1959 0.5
6 0.450524 4.27075 0.390391 0.5
7 2.30648 12.387 1.39614 0.5
8 4.99846 1.21727 6.6098 0.5
9 2.11268 9.04167 6.56439 0.5
10 7.23486 7.18211 8.61488 0.5
11 8.31358 0.992745 0.308679 0.5
12 0.140246 10.9995 6.13661 0.5
13 12.9336 3.20268 13.2979 0.5
14 4.09536 10.6981 7.85122 0.5
15 13.401 2.89573 10.8486 0.5
16 8.67447 3.50891 5.07826 0.5
17 4.23188 9.0844 12.3651 0.5
18 7.53082 7.43156 0.738575 0.5
19 11.4387 6.27898 10.418 0.5
20 12.7943 8.39563 13.3452 0.5
21 10.3565 6.18103 6.13753 0.5
22 2.31405 7.79719 9.86397 0.5
23 8.91851 11.8484 6.55464 0.5
24 3.14434 7.77571 10.4016 0.5
25 13.5013 5.60235 12.7358 0.5
26 5.53871 1.91852 9.13465 0.5
27 13.4737 7.0007 12.718 0.5
28 6.84538 1.41183 13.3069 0.5
29 11.1856 7.08401 8.46954 0.5
30 7.31362 3.58422 3.82957 0.5
31 11.164 3.22986 6.10621 0.5
32 3.49232 6.71484 0.118532 0.5
33 1.71544 6.97719 6.6063 0.5
34 10.4571 7.96745 0.862526 0.5
35 1.79418 8.68203 5.17182 0.5
36 0.70026 9.73828 5.6938 0.5
37 1.44623 9.75423 4.86949 0.5
38 12.6238 2.03802 9.08909 0.5
39 10.0142 2.48273 2.76955 0.5
40 10.2364 2.06917 12.0557 0.5
41 11.7175 5.38116 13.2115 0.5
42 8.62587 3.52983 0.214295 0.5
43 9.53456 4.81874 4.72167 0.5
44 11.7213 0.884459 1.21251 0.5
45 10.0995 7.53798 1.20354 0.5
46 2.00696 13.4413 6.25578 0.5
47 1.3223 10.5532 4.22435 0.5
48 8.44356 3.89596 12.1742 0.5
49 2.78747 10.7612 1.51023 0.5
50 3.86739 11.2234 7.67795 0.5
51 7.74701 9.99074 3.32055 0.5
52 8.2483 4.70516 5.44174 0.5
53 1.11164 12.1283 12.7362 0.5
54 11.5338 9.25117 10.0168 0.5
55 6.91835 6.07989 1.25782 0.5
56 8.58911 7.65287 6.95161 0.5
57 0.74551 11.6493 9.52657 0.5
58 9.84985 8.05715 6.11846 0.5
59 6.67054 10.2799 11.7726 0.5
60 1.09402 4.69468 7.0017 0.5
61 2.25183 4.04108 2.25564 0.5
62 5.04267 4.45166 10.4728 0.5
63 4.65412 2.59826 11.1528 0.5
64 6.68581 10.7497 6.72019 0.5
65 2.72173 0.222945 13.1258 0.5
66 10.7895 0.853909 8.2684 0.5
67 1.87722 8.58109 10.541 0.5
68 1.73594 7.60586 2.65817 0.5
69 8.05362 6.54432 5.605 0.5
70 6.57052 9.24989 1.85723 0.5
71 8.14422 10.8776 9.80378 0.5
72 13.3406 9.69161 2.49308 0.5
73 1.80032 7.11835 8.09165 0.5
74 4.98714 2.12706 2.99157 0.5
75 13.0779 11.9132 12.154 0.5
76 8.96844 6.43047 9.7319 0.5
77 11.5366 12.4672 2.03289 0.5
78 12.8208 13.1106 8.66029 0.5
79 2.35068 10.7235 12.2077 0.5
80 9.49349 9.44208 5.67635 0.5
81 4.93492 3.79092 11.4745 0.5
82 8.92566 4.90516 10.9952 0.5
83 6.15814 8.32977 9.05043 0.5
84 3.90752 1.54037 2.24176 0.5
85 10.1507 0.766012 12.9402 0.5
86 1.94614 10.3134 8.63889 0.5
87 0.211045 3.40834 2.93409 0.5
88 5.43989 5.81524 8.78338 0.5
89 0.330479 4.23891 11.1106 0.5
90 4.72779 7.71981 7.50037 0.5
91 9.93868 6.44467 3.9624 0.5
92 7.42737 2.98319 6.79023 0.5
93 0.534634 11.0514 1.00546 0.5
94 12.0614 4.64486 0.622826 0.5
95 13.2536 6.95167 3.47609 0.5
96 5.18355 2.97701 2.04682 0.5
97 9.05699 3.60472 7.09602 0.5
98 1.3057 8.3843 7.51211 0.5
99 8.57004 10.2833 3.16497 0.5
100 11.4721 12.5591 9.09988 0.5
101 0.170354 2.54326 12.5545 0.5
102 8.34193 2.15227 7.02477 0.5
103 2.33797 2.23677 4.46912 0.5
104 2.88006 9.68716 0.761801 0.5
105 0.276221 10.5034 8.42226 0.5
106 5.78024 6.22158 7.88118 0.5
107 3.06215 2.16128 0.29804 0.5
108 13.486 2.97539 5.76012 0.5
109 1.33953 5.98203 2.9808 0.5
110 7.46387 6.40646 4.75325 0.5
111 6.46575 11.1339 0.243864 0.5
112 12.6738 4.80063 6.56239 0.5
113 0.860982 4.06312 4.52082 0.5
114 6.07515 11.4995 13.2787 0.5
115 8.79193 5.34602 7.15842 0.5
116 7.75441 4.90519 5.5469 0.5
117 8.92578 4.89162 9.5854 0.5
118 11.8489 4.65232 10.4996 0.5
119 11.7944 11.6011 4.35612 0.5
120 2.6138 1.97683 0.252248 0.5
121 10.5601 6.67279 13.28 0.5
122 10.4251 8.75021 3.84301 0.5
123 4.61027 7.34761 1.44468 0.5
124 3.83154 12.2331 1.52765 0.5
125 2.61663 4.6016 13.0967 0.5
126 2.72535 1.24074 5.64302 0.5
127 4.7043 7.12218 2.45343 0.5
128 12.5592 4.46032 4.27575 0.5
129 7.30994 12.8141 0.249234 0.5
130 8.07409 12.2731 9.29501 0.5
131 13.5513 5.13693 9.97101 0.5
132 8.1285 0.556015 4.82357 0.5
133 7.5305 11.7536 10.1593 0.5
134 7.55828 6.50225 5.79611 0.5
135 6.60013 8.00617 1.69196 0.5
136 12.3224 7.3868 7.77032 0.5
137 8.49563 6.71282 11.7489 0.5
138 12.5767 8.01381 4.53841 0.5
139 6.65523 6.36965 2.33543 0.5
140 3.1217 4.23707 4.7903 0.5
141 7.16341 5.2055 12.3711 0.5
142 6.10347 12.3512 9.36903 0.5
143 12.4309 0.445432 11.2425 0.5
144 3.9726 10.7208 12.8321 0.5
145 3.74434 9.36424 2.94517 0.5
146 12.0901 8.94602 2.49318 0.5
147 8.31469 7.55731 9.2025 0.5
148 10.961 6.23638 0.995586 0.5
149 11.4098 11.0589 6.53918 0.5
150 8.8784 11.6344 5.57316 0.5
151 4.60908 11.536 2.67028 0.5
152 7.8584 3.39444 4.87133 0.5
153 9.80735 6.86268 1.97614 0.5
154 10.5256 10.8113 10.9458 0.5
155 2.98004 4.94282 10.0853 0.5
156 4.37003 11.9729 11.6961 0.5
157 1.54251 2.35479 8.47342 0.5
158 9.31849 0.182057 2.68069 0.5
159 3.4076 10.4237 9.88577 0.5
160 8.60249 0.106087 0.022437 0.5
161 12.2118 8.56225 6.64778 0.5
162 3.12016 8.77819 0.666974 0.5
163 2.20249 0.275771 0.961825 0.5
164 0.830116 0.88836 3.33604 0.5
165 7.87487 1.34554 10.3829 0.5
166 9.04032 9.90461 12.0892 0.5
167 8.88977 8.22786 6.37026 0.5
168 13.0741 7.68185 7.552 0.5
169 12.5768 2.86305 0.370814 0.5
170 9.12068 0.547177 4.4602 0.5
171 6.86256 9.59151 6.14344 0.5
172 1.88136 0.16298 3.26186 0.5
173 6.64262 9.5329 1.3287 0.5
174 11.314 9.41613 4.66382 0.5
175 3.96802 7.94793 7.66458 0.5
176 7.89331 11.038 1.73506 0.5
177 13.0071 13.3249 8.27324 0.5
178 8.47481 6.82572 5.20445 0.5
179 0.334331 0.595006 12.4377 0.5
180 8.86193 2.21889 6.61857 0.5
181 9.55813 12.9464 7.08398 0.5
182 2.84359 4.79965 3.30419 0.5
183 5.41436 5.58268 9.04021 0.5
184 11.4461 10.6766 12.319 0.5
185 4.3298 0.746533 4.84345 0.5
186 5.80548 11.7371 2.57266 0.5
187 3.34384 2.8788 8.71627 0.5
188 4.54349 6.693 11.5349 0.5
189 11.4591 12.9883 1.66533 0.5
190 0.646623 11.7565 5.25862 0.5
191 3.4177 12.0561 12.9751 0.5
192 4.28539 4.41159 5.38513 0.5
193 5.78972 12.6744 2.47308 0.5
194 7.28856 3.24333 9.30007 0.5
195 3.96891 11.5887 11.4603 0.5
196 6.81626 5.01773 4.57164 0.5
197 13.5606 10.2172 4.95523 0.5
198 8.57388 9.69318 2.0975 0.5
199 2.34078 7.15369 4.41183 0.5
200 0.291359 9.80186 12.0268 0.5
201 10.57 6.22507 3.39762 0.5
202 3.53159 11.5743 5.42264 0.5
203 9.33852 12.5412 7.54856 0.5
204 9.24298 13.2746 9.11821 0.5
205 3.72656 12.969 11.1628 0.5
206 4.85488 1.78569 4.04162 0.5
207 1.17857 9.83488 1.89878 0.5
208 5.59417 0.0851026 7.14325 0.5
209 12.0687 7.90823 4.31184 0.5
210 10.4362 4.08904 10.9771 0.5
211 13.1336 5.92907 10.6264 0.5
212 9.64072 10.1993 2.26305 0.5
213 4.58579 12.4294 8.74624 0.5
214 11.943 8.02969 1.50942 0.5
215 12.4514 6.0104 2.20178 0.5
216 8.81664 1.33527 5.01261 0.5
217 3.41094 1.42525 12.0985 0.5
218 5.54653 6.7935 3.13442 0.5
219 9.19759 4.55896 4.35724 0.5
220 4.65794 2.7493 9.32165 0.5
221 8.46102 5.79236 7.29718 0.5
222 9.04529 10.0299 12.5415 0.5
223 2.75049 13.0262 8.22226 0.5
224 4.22101 3.5256 1.19032 0.5
225 12.5159 2.32262 11.0108 0.5
226 1.92912 7.16703 4.74078 0.5
227 0.804622 0.578366 0.492994 0.5
228 0.265294 8.91744 5.55257 0.5
229 11.729 11.8229 9.47905 0.5
230 12.4565 2.94309 2.32352 0.5
231 4.07396 1.34874 8.07254 0.5
232 8.13262 11.7881 2.10505 0.5
233 9.89798 4.45108 4.95979 0.5
234 2.08589 8.0048 6.24282 0.5
235 8.40378 6.70745 12.2176 0.5
236 9.14731 9.63216 12.73 0.5
237 7.08451 11.6535 4.38935 0.5
238 2.66803 3.01675 6.24703 0.5
239 0.709187 13.3956 1.05238 0.5
240 11.3448 3.08046 12.0231 0.5
241 2.39004 4.75823 0.72517 0.5
242 8.13232 8.62445 4.78107 0.5
243 1.06256 5.40066 4.3877 0.5
244 1.24665 12.3739 7.91666 0.5
245 3.75448 2.68409 6.34438 0.5
246 12.29 9.99608 12.1681 0.5
247 10.9318 2.29142 2.73093 0.5
248 6.26518 6.5381 1.17925 0.5
249 8.65554 1.67609 9.6145 0.5
250 9.56822 0.495056 4.58052 0.5
251 6.82497 5.8266 1.9787 0.5
252 8.03627 1.85472 7.47646 0.5
253 2.65214 2.38228 10.5997 0.5
254 9.39755 1.55733 5.26267 0.5
255 10.0916 11.9467 12.3367 0.5
256 10.4726 2.58993 1.73603 0.5
257 0.818254 9.48614 8.80045 0.5
258 10.223 2.2993 13.2948 0.5
259 8.64899 12.9817 12.5725 0.5
260 4.55159 1.36073 4.97244 0.5
261 1.91369 13.513 12.0503 0.5
262 5.13322 12.0013 7.0997 0.5
263 11.5683 4.02708 8.60292 0.5
264 8.86096 3.02486 6.13709 0.5
265 3.40875 0.358257 2.82991 0.5
266 9.69102 3.3423 5.67437 0.5
267 7.9782 1.97103 2.11737 0.5
268 2.8588 11.9226 4.57359 0.5
269 1.86964 11.5638 13.345 0.5
270 9.14193 5.66928 12.6271 0.5
271 12.7763 4.14841 5.87286 0.5
272 2.38094 12.5804 12.4401 0.5
273 9.47868 5.68611 13.3324 0.5
274 7.31057 6.76565 0.298836 0.5
275 5.61378 2.96168 9.2905 0.5
276 7.76883 9.6153 0.160804 0.5
277 4.1686 11.304 9.69226 0.5
278 1.73135 8.54226 3.13246 0.5
279 5.62859 3.71808 3.38842 0.5
280 3.85359 6.23361 4.91125 0.5
281 3.95711 9.46733 9.48519 0.5
282 10.7789 10.0495 5.64596 0.5
283 4.53293 1.64102 4.83107 0.5
284 6.10445 5.00083 8.93814 0.5
285 11.5864 2.95527 5.75908 0.5
286 7.17978 9.52254 11.3241 0.5
287 4.89689 9.93758 7.55052 0.5
288 9.24448 11.4232 13.1423 0.5
289 2.57733 10.8082 4.66864 0.5
290 8.51044 1.79431 5.07143 0.5
291 3.71155 2.38389 13.1302 0.5
292 13.1366 4.62159 7.91239 0.5
293 8.70268 2.63781 2.15262 0.5
294 7.86347 10.988 12.4164 0.5
295 0.603035 6.17543 11.5298 0.5
296 6.0575 12.7775 5.83718 0.5
297 4.95598 1.52724 3.46649 0.5
298 12.7991 3.77253 8.21299 0.5
299 7.32828 11.9808 0.532681 0.5
300 9.22426 9.46478 3.89579 0.5
301 8.31592 8.11586 3.35747 0.5
302 4.75899 7.71296 5.25477 0.5
303 11.1981 0.960018 9.71568 0.5
304 10.7888 0.736765 10.8757 0.5
305 3.7074 2.10971 4.48834 0.5
306 5.03677 12.7646 10.9574 0.5
307 0.125842 10.3618 3.38395 0.5
308 5.88244 2.90102 0.105433 0.5
309 0.351405 12.2969 3.6414 0.5
310 3.11695 7.88874 4.65035 0.5
311 5.87654 4.6786 10.919 0.5
312 0.731257 2.01108 7.80853 0.5
313 13.2901 2.73568 3.40914 0.5
314 6.02862 2.09625 12.4196 0.5
315 6.29196 5.90024 12.5874 0.5
316 4.92605 4.9331 10.3342 0.5
317 13.1961 13.0219 0.0837256 0.5
318 0.625453 8.36515 10.7151 0.5
319 11.196 9.09999 3.15184 0.5
320 11.7219 3.8228 7.22347 0.5
321 3.83275 13.1811 3.2269 0.5
322 0.737829 4.60078 4.74185 0.5
323 6.62504 6.98245 1.52022 0.5
324 3.60618 8.99997 12.2698 0.5
325 12.1683 9.07313 11.1646 0.5
326 11.2443 9.88981 1.70517 0.5
327 6.85628 3.0661 12.5766 0.5
328 12.4727 12.1301 11.7786 0.5
329 6.74941 11.9709 4.3033 0.5
330 4.94689 10.8338 8.22014 0.5
331 4.43278 12.5646 0.108551 0.5
332 1.60512 5.32263 8.89822 0.5
333 10.8124 3.6141 2.57176 0.5
334 7.48151 10.5083 5.98488 0.5
335 12.7485 12.5404 0.0808505 0.5
336 3.21522 5.03747 10.2122 0.5
337 8.09781 7.53528 8.71756 0.5
338 10.5372 2.09079 2.01813 0.5
339 13.0733 2.18218 7.98337 0.5
340 5.67442 9.66614 8.11521 0.5
341 0.439237 0.758431 3.86032 0.5
342 5.468 1.82636 13.1054 0.5
343 13.3965 0.365096 1.95493 0.5
344 0.237222 7.16469 6.36917 0.5
345 1.79913 10.6976 2.61102 0.5
346 9.69819 0.464339 5.61921 0.5
347 10.9194 5.23051 5.94364 0.5
348 10.3951 10.2355 1.50912 0.5
349 6.30541 3.36151 6.46557 0.5
350 1.58667 5.78378 12.0222 0.5
351 10.2661 5.02919 6.35741 0.5
352 5.00192 11.8086 2.43546 0.5
353 13.6048 1.96327 3.97369 0.5
354 9.12162 4.11784 2.8745 0.5
355 7.12588 5.28517 4.08567 0.5
356 13.4712 12.1696 11.4344 0.5
357 1.23855 9.08256 12.2169 0.5
358 0.23783 2.62565 8.4037 0.5
359 9.64811 6.36507 11.4206 0.5
360 1.71229 9.784 8.03607 0.5
361 5.88337 10.1726 5.54668 0.5
362 1.16971 2.61106 0.944393 0.5
363 8.89228 10.6362 2.2053 0.5
364 2.32734 4.05629 2.60133 0.5
365 0.96378 11.5917 9.16936 0.5
366 5.34328 1.85182 1.45899 0.5
367 6.63304 11.658 4.73179 0.5
368 0.305132 4.40748 0.262746 0.5
369 1.72632 1.66566 1.04721 0.5
370 11.527 4.15624 2.33735 0.5
371 4.87758 3.71605 3.88765 0.5
372 7.61846 7.67463 12.0172 0.5
373 2.6068 3.70067 11.9219 0.5
374 13.2175 3.89931 8.67204 0.5
375 9.1 3.727 12.6739 0.5
376 13.3178 8.41476 3.39701 0.5
377 2.62579 3.19907 2.03822 0.5
378 8.76582 2.21878 5.14496 0.5
379 8.96481 1.9444 11.1906 0.5
380 4.52827 7.17794 11.9323 0.5
381 0.20778 10.5342 10.6169 0.5
382 7.71232 8.45025 5.51151 0.5
383 0.269218 11.4976 13.4468 0.5
384 11.8204 2.55355 13.08 0.5
385 0.525665 7.98038 5.96072 0.5
386 2.67051 12.8149 3.68305 0.5
387 3.56386 5.72744 6.18774 0.5
388 8.22136 5.20552 9.441 0.5
389 9.5899 4.92234 2.36464 0.5
390 8.63127 5.73261 5.00545 0.5
391 10.2466 3.38191 6.88793 0.5
392 4.02994 0.982886 1.49316 0.5
393 4.80426 3.87165 8.30576 0.5
394 3.27419 13.4523 1.53427 0.5
395 6.51725 0.76604 9.62315 0.5
396 12.6981 8.99907 1.00919 0.5
397 10.2033 8.84884 8.52616 0.5
398 7.39321 0.572577 9.84861 0.5
399 2.793 12.6858 1.59118 0.5
400 12.0236 6.60088 9.16887 0.5
401 6.3137 5.22921 1.30229 0.5
402 11.75 4.59452 12.8242 0.5
403 8.40929 0.433411 0.741422 0.5
404 5.23898 8.78656 12.0473 0.5
405 7.78471 8.67438 7.03888 0.5
406 10.7292 3.34675 2.77005 0.5
407 4.74974 10.3525 10.9455 0.5
408 0.223962 5.40228 10.8914 0.5
409 5.69979 13.5756 4.88779 0.5
410 3.7864 1.11473 12.8015 0.5
411 12.1323 9.05608 7.22394 0.5
412 5.04869 6.98838 4.56279 0.5
413 9.16503 2.93011 9.24842 0.5
414 12.7429 9.95248 0.126432 0.5
415 4.78757 7.87047 9.26823 0.5
416 5.68547 3.0397 12.949 0.5
417 7.65241 3.36933 12.0028 0.5
418 4.26652 13.3424 2.59279 0.5
419 10.1469 10.3768 4.87653 0.5
420 6.31289 10.4853 10.2393 0.5
421 10.6538 7.28906 5.24376 0.5
422 5.6512 1.29376 12.5819 0.5
423 7.63801 0.552634 0.704227 0.5
424 3.60027 3.11908 8.40463 0.5
425 2.70283 12.3055 8.31381 0.5
426 11.8826 0.0391803 2.2942 0.5
427 8.85307 6.0937 10.9369 0.5
428 0.462477 8.56582 8.02294 0.5
429 4.32646 11.3648 6.00358 0.5
430 11.8555 4.06278 11.5006 0.5
431 7.70868 6.60231 4.34275 0.5
432 10.9551 9.52662 5.15797 0.5
433 6.61487 1.91313 6.6862 0.5
434 6.33474 4.0263 11.741 0.5
435 13.0341 3.28946 8.92269 0.5
436 4.62494 12.9437 2.49141 0.5
437 7.58701 2.72899 10.0122 0.5
438 7.19963 3.5655 5.80258 0.5
439 7.26028 0.220902 8.62642 0.5
440 2.73816 7.13583 6.63916 0.5
441 8.33816 13.0367 11.004 0.5
442 10.3674 10.467 6.17407 0.5
443 10.5357 1.5923 12.5603 0.5
444 13.0856 7.71376 4.21054 0.5
445 10.5014 10.9823 11.5797 0.5
446 0.635018 11.5739 12.6597 0.5
447 9.21798 0.325532 3.66359 0.5
448 11.8896 12.453 10.448 0.5
449 7.26932 7.29032 2.5354 0.5
450 3.36469 6.62428 8.12638 0.5
451 0.283778 9.70324 13.2104 0.5
452 1.27225 11.1186 12.2613 0.5
453 1.74665 11.3626 8.71819 0.5
454 2.66522 10.3614 6.80864 0.5
455 1.26663 11.8766 9.40332 0.5
456 4.12731 2.39354 11.0396 0.5
457 6.27006 7.02148 7.45418 0.5
458 11.9057 2.14378 6.30399 0.5
459 4.99375 9.06665 6.3542 0.5
460 10.3682 0.0826862 8.20851 0.5
461 10.8808 1.48365 2.61856 0.5
462 5.93417 1.58627 11.9648 0.5
463 7.46381 2.92655 8.03015 0.5
464 4.77359 5.73139 5.54135 0.5
465 3.82192 9.78581 5.42981 0.5
466 0.735719 12.1449 5.81107 0.5
467 4.86455 7.57514 7.37982 0.5
468 4.64035 7.32958 6.416 0.5
469 7.70343 12.0094 4.98417 0.5
470 4.90592 1.91252 5.23564 0.5
471 5.41017 8.57391 1.42514 0.5
472 12.5302 12.9929 10.4825 0.5
473 8.97565 8.95221 5.29477 0.5
474 13.3251 12.2259 5.14793 0.5
475 2.71294 5.67885 10.476 0.5
476 8.35174 13.1523 13.4847 0.5
477 11.7211 3.35619 3.45058 0.5
478 5.94017 7.55616 4.95486 0.5
479 13.0027 12.0474 5.31642 0.5
480 0.700925 3.54657 12.2703 0.5
481 2.8352 12.7473 7.90387 0.5
482 9.62812 6.17252 12.8924 0.5
483 2.43664 10.3243 8.50595 0.5
484 3.31632 11.5353 2.47066 0.5
485 13.3885 3.57465 2.08006 0.5
486 7.49359 2.41787 4.66035 0.5
487 2.62861 1.96203 0.172355 0.5
488 4.03793 5.38352 5.44731 0.5
489 9.66216 1.74086 10.4326 0.5
490 13.3674 1.02042 11.275 0.5
491 4.66047 11.668 4.59029 0.5
492 13.3293 12.9673 8.61657 0.5
493 13.5303 3.48569 8.05746 0.5
494 9.64906 0.850294 5.0716 0.5
495 8.15414 10.9598 9.7564 0.5
496 11.0258 13.0463 3.24533 0.5
497 1.35229 7.84785 9.92955 0.5
498 3.51539 12.6277 0.667421 0.5
499 1.9703 3.99901 11.2163 0.5
500 6.3542 5.77285 1.53255 0.5
501 5.56702 7.54197 11.5394 0.5
502 1.08652 9.50295 11.3431 0.5
503 0.571963 -0.0110522 12.3491 0.5
504 7.84385 7.39871 6.49271 0.5
505 4.70424 6.19604 1.40868 0.5
506 5.94262 4.60363 9.98785 0.5
507 0.948469 8.20212 2.52476 0.5
508 5.35972 12.5468 0.339525 0.5
509 10.7416 10.4596 12.3427 0.5
510 12.4993 0.475229 9.16061 0.5
511 -0.0033769 1.11375 11.5859 0.5
512 4.68059 10.0485 5.97518 0.5
513 6.77197 3.03049 11.4052 0.5
514 8.71004 6.10298 3.88439 0.5
515 8.94055 4.45935 11.5748 0.5
516 4.58091 11.2131 13.1521 0.5
517 0.39515 3.35343 1.32217 0.5
518 6.08551 0.575221 7.56235 0.5
519 9.4854 10.7462 8.11772 0.5
520 6.12519 9.96768 1.47285 0.5
521 10.6852 10.3804 6.65556 0.5
522 13.3568 5.30509 8.89964 0.5
523 3.50892 6.5778 7.53069 0.5
524 9.75785 2.48421 2.49089 0.5
525 4.10097 10.0903 8.79901 0.5
526 5.36613 5.46433 8.76982 0.5
527 8.50396 12.0632 12.7316 0.5
528 8.13539 1.57935 1.12727 0.5
529 2.45746 5.20094 1.3315 0.5
530 11.7631 10.9793 4.91687 0.5
531 9.0765 5.18435 11.2116 0.5
532 8.06495 8.89044 4.68641 0.5
533 0.358001 8.04351 3.4001 0.5
534 11.1348 9.1063 6.40445 0.5
535 3.41099 10.0628 7.63875 0.5
536 8.07597 3.92895 11.3891 0.5
537 5.51353 12.0095 3.99136 0.5
538 9.60908 4.79793 5.4484 0.5
539 2.12875 12.5341 9.42485 0.5
540 2.12798 5.45892 8.13879 0.5
541 11.9253 7.26973 8.13138 0.5
542 9.12641 6.31995 10.4025 0.5
543 11.5474 13.086 8.13875 0.5
544 5.73081 3.13217 11.9195 0.5
545 2.2717 12.3151 1.80154 0.5
546 4.66692 10.029 12.8661 0.5
547 0.324467 13.1199 10.4048 0.5
548 1.89092 3.22609 1.94081 0.5
549 7.41671 4.29128 10.1352 0.5
550 3.38496 5.22069 8.5729 0.5
551 5.59713 9.38577 8.74539 0.5
552 7.44545 4.08945 9.2447 0.5
553 4.95289 2.25648 7.97134 0.5
554 3.67949 8.26924 0.418807 0.5
555 12.1682 5.69512 6.08183 0.5
556 2.85159 0.840152 12.1414 0.5
557 12.6709 4.37892 6.85239 0.5
558 12.065 12.2655 6.67047 0.5
559 7.3742 2.99033 3.2952 0.5
560 7.36067 9.81912 3.42834 0.5
561 3.67617 3.7274 4.6121 0.5
562 13.0311 0.500033 8.44889 0.5
563 6.08738 8.61463 8.00858 0.5
564 4.40993 9.94125 7.07739 0.5
565 9.53153 12.9759 3.16002 0.5
566 1.93177 7.08727 11.6171 0.5
567 7.37028 8.92359 12.5555 0.5
568 4.10166 2.92322 2.61489 0.5
569 5.20134 13.1462 11.2225 0.5
570 0.898848 1.12437 12.0305 0.5
571 8.10466 6.11919 3.93733 0.5
572 13.1697 1.78178 1.58893 0.5
573 7.97144 1.55716 2.55519 0.5
574 6.5477 8.23564 5.8916 0.5
575 6.49624 10.5102 11.8218 0.5
576 3.92871 3.79726 8.78316 0.5
577 11.7562 11.84 4.99034 0.5
578 10.7722 8.99999 12.8995 0.5
579 0.508034 12.4909 0.509805 0.5
580 10.62 0.8632 1.73078 0.5
581 10.5373 7.94734 2.48638 0.5
582 1.77765 6.17216 7.85298 0.5
583 11.2255 12.7638 8.17224 0.5
584 5.01733 2.04779 7.23208 0.5
585 3.63134 8.97811 5.25147 0.5
586 5.22206 1.22374 11.5925 0.5
587 6.31306 8.36757 12.9991 0.5
588 11.6882 9.66906 9.25396 0.5
589 8.64068 6.12429 3.39407 0.5
590 0.675011 7.058 13.0344 0.5
591 4.21159 9.63187 0.710588 0.5
592 9.12008 4.03164 3.41626 0.5
593 2.09361 5.05306 6.07928 0.5
594 3.68486 1.38005 5.27753 0.5
595 3.19841 4.51403 6.60029 0.5
596 10.9034 7.39494 3.79356 0.5
597 6.45437 4.1194 1.24195 0.5
598 0.238768 11.5044 2.10881 0.5
599 11.6785 8.20622 9.86706 0.5
600 6.94794 12.9225 2.64781 0.5
601 9.58408 3.2981 0.521036 0.5
602 2.74256 2.92314 4.79563 0.5
603 12.3303 2.67459 1.3487 0.5
604 9.84282 12.7204 6.49933 0.5
605 10.9548 1.43971 8.72811 0.5
606 11.9476 5.45672 0.244757 0.5
607 1.82736 2.04859 10.614 0.5
608 2.76931 10.3305 1.57671 0.5
609 12.9884 9.1942 7.29982 0.5
610 8.67663 4.3426 7.55477 0.5
611 8.7805 4.00305 7.5268 0.5
612 10.3738 5.08913 12.7715 0.5
613 0.434268 10.549 0.584185 0.5
614 2.34776 8.99158 6.13899 0.5
615 12.2309 2.56463 4.80582 0.5
616 7.33082 12.9564 6.05293 0.5
617 9.59348 9.29825 4.14045 0.5
618 4.06694 5.69991 2.43297 0.5
619 3.25027 3.05677 8.58301 0.5
620 12.1899 5.71598 0.561104 0.5
621 9.69195 5.3235 5.54387 0.5
622 8.37352 4.8008 5.46133 0.5
623 6.3425 10.1212 11.9521 0.5
624 8.87105 6.55213 10.6873 0.5
625 0.974946 3.3012 2.42484 0.5
626 1.74215 7.21176 5.75691 0.5
627 5.40894 3.70942 5.32022 0.5
628 7.41058 1.01931 11.8164 0.5
629 3.29312 5.04747 1.73736 0.5
630 4.11869 2.49186 1.16272 0.5
631 6.14848 7.09098 5.75271 0.5
632 12.8147 6.42585 6.34678 0.5
633 2.31638 7.94105 1.83007 0.5
634 10.5427 9.89389 11.4174 0.5
635 4.23678 2.21039 10.7819 0.5
636 8.64503 5.74229 3.65708 0.5
637 0.421218 11.8044 9.77093 0.5
638 4.24565 8.86205 2.17962 0.5
639 1.86611 13.1914 2.83411 0.5
640 0.0324226 9.76547 5.10284 0.5
641 9.76099 8.08807 10.8295 0.5
642 9.99987 9.35271 12.5326 0.5
643 1.73055 1.34093 8.48546 0.5
644 3.64974 2.50469 2.72134 0.5
645 10.5425 5.34399 5.55459 0.5
646 6.23059 13.074 1.70253 0.5
647 10.2985 2.6151 9.763 0.5
648 8.70307 3.42298 0.966494 0.5
649 6.39971 7.70177 2.88608 0.5
650 3.57515 2.3907 0.0774053 0.5
651 11.7667 6.99633 0.597292 0.5
652 6.1088 11.3947 11.9025 0.5
653 2.14786 10.9492 11.675 0.5
654 7.67989 9.21748 0.703714 0.5
655 12.042 3.36197 3.30514 0.5
656 11.5098 8.46676 12.0588 0.5
657 10.7586 12.747 1.5014 0.5
658 2.82663 13.118 9.7643 0.5
659 4.1623 3.04941 0.926683 0.5
660 0.0827278 8.30004 2.74834 0.5
661 4.30949 10.6093 10.7981 0.5
662 2.77194 3.77287 11.5005 0.5
663 11.6605 8.57429 10.8271 0.5
664 12.5441 7.71031 12.7444 0.5
665 2.11109 11.5279 12.7446 0.5
666 9.32934 6.96904 5.90549 0.5
667 7.59564 0.189591 1.54448 0.5
668 1.90209 12.3628 1.78529 0.5
669 2.35237 4.84554 6.27165 0.5
670 6.29248 3.16983 4.18788 0.5
671 7.56036 10.1932 5.01483 0.5
672 1.41947 5.71869 8.15693 0.5
673 13.3961 0.150763 4.14688 0.5
674 11.3587 9.41189 4.98965 0.5
675 12.5044 0.636025 6.33437 0.5
676 12.7855 2.42165 12.7804 0.5
677 1.52312 1.58948 5.01001 0.5
678 10.9212 4.54835 11.2126 0.5
679 5.95489 6.12158 0.303268 0.5
680 6.09388 5.55259 1.55881 0.5
681 2.00573 9.55797 9.46493 0.5
682 1.92811 8.22284 3.56086 0.5
683 10.9942 5.81316 2.10652 0.5
684 2.11071 8.26764 2.13407 0.5
685 4.32834 3.6251 12.9735 0.5
686 8.33395 0.451042 4.85598 0.5
687 2.69957 12.4272 0.713425 0.5
688 11.4362 3.9978 6.50265 0.5
689 10.2886 1.04388 6.42967 0.5
690 9.45217 5.80107 6.98678 0.5
691 7.51297 11.3333 12.7691 0.5
692 11.2893 13.0539 12.4213 0.5
693 5.43624 8.92852 1.96237 0.5
694 3.61451 8.4594 11.0806 0.5
695 13.1263 10.6498 11.177 0.5
696 1.53476 7.97697 3.30676 0.5
697 1.16123 9.0901 10.18 0.5
698 5.34013 6.41713 10.4633 0.5
699 2.5621 3.13929 4.30768 0.5
700 0.79217 8.94776 5.08506 0.5
701 11.5615 4.16585 1.88536 0.5
702 4.0889 5.92451 0.824339 0.5
703 3.14846 3.77436 9.05734 0.5
704 12.0516 7.47047 4.90006 0.5
705 6.03905 8.94843 5.80636 0.5
706 11.8894 4.03626 0.0637542 0.5
707 9.07998 6.79422 3.95867 0.5
708 0.34657 1.42606 5.35374 0.5
709 8.99003 2.90405 5.19841 0.5
710 1.10363 13.2492 9.2127 0.5
711 2.744 13.1192 2.87024 0.5
712 7.3652 8.72062 10.6776 0.5
713 12.1977 0.346202 4.63793 0.5
714 4.17211 10.8272 9.60179 0.5
715 0.866985 3.31999 10.8479 0.5
716 6.07773 1.64505 1.48538 0.5
717 12.1275 7.47065 7.6935 0.5
718 10.3745 2.97162 -0.00929264 0.5
719 1.53241 10.1366 10.7401 0.5
720 12.198 7.25303 8.87327 0.5
721 12.9042 9.71245 9.13859 0.5
722 11.714 13.3708 3.86775 0.5
723 6.95741 2.34533 1.29759 0.5
724 0.0167762 0.211033 2.24901 0.5
725 6.41585 6.01961 4.92775 0.5
726 7.669 10.9612 4.96713 0.5
727 3.50833 3.57094 12.6945 0.5
728 10.358 13.0459 12.3088 0.5
729 11.5849 7.27585 11.7771 0.5
730 6.17668 5.82136 6.83635 0.5
731 12.2549 12.2025 13.1215 0.5
732 4.87335 3.12769 5.68796 0.5
733 11.9745 4.72828 0.704038 0.5
734 3.84284 4.21476 5.26154 0.5
735 13.0269 6.05763 10.4053 0.5
736 0.827024 10.6486 0.334902 0.5
737 13.3364 8.76974 0.0604622 0.5
738 3.30931 3.57175 12.5392 0.5
739 12.421 1.90121 7.27612 0.5
740 8.13271 2.14905 5.86645 0.5
741 12.0595 2.10231 7.42643 0.5
742 13.4047 0.362284 7.48633 0.5
743 6.35726 3.34103 12.4288 0.5
744 7.0198 12.1375 4.70478 0.5
745 0.0503555 11.2791 13.2684 0.5
746 1.98618 0.800842 6.79109 0.5
747 3.73919 4.76248 6.74098 0.5
748 13.0393 12.1865 13.1124 0.5
749 6.23233 6.28391 2.4689 0.5
750 6.09196 6.00685 9.83442 0.5
751 4.67065 3.98889 6.29388 0.5
752 11.7688 5.45428 11.3709 0.5
753 3.97475 13.1147 0.930115 0.5
754 5.91417 5.58314 11.5747 0.5
755 4.95983 4.33602 12.8723 0.5
756 0.208867 10.9294 3.40532 0.5
757 3.43156 6.0881 8.41092 0.5
758 12.1861 12.7129 10.0551 0.5
759 9.08382 1.21303 13.2429 0.5
760 2.77885 11.1857 12.422 0.5
761 8.01894 2.76051 11.9854 0.5
762 9.06205 9.70966 4.39105 0.5
763 12.7206 6.38769 7.08995 0.5
764 2.02792 7.372 11.1994 0.5
765 5.91434 7.69074 8.14964 0.5
766 0.6649 3.21221 11.2138 0.5
767 7.39823 0.611644 0.439035 0.5
768 0.236316 12.0593 7.26296 0.5
769 11.7507 2.49319 2.73249 0.5
770 10.8 0.154889 5.54912 0.5
771 12.6801 2.30641 3.55341 0.5
772 13.2334 1.2124 13.3578 0.5
773 1.01765 11.3825 2.56663 0.5
774 8.48609 4.17677 12.2855 0.5
775 12.088 5.01059 0.273149 0.5
776 4.55498 9.15298 6.01294 0.5
777 5.91947 4.85081 1.26584 0.5
778 11.7447 5.92781 10.4688 0.5
779 4.97368 5.47818 11.103 0.5
780 9.88597 8.19561 5.99583 0.5
781 0.280785 10.5653 10.7567 0.5
782 7.24804 12.2412 7.31955 0.5
783 3.65524 6.48983 12.865 0.5
784 2.6361 7.12814 8.86259 0.5
785 9.73517 1.04054 1.93559 0.5
786 0.123455 13.0984 11.7701 0.5
787 5.8794 5.97581 8.20456 0.5
788 3.15679 0.815604 6.05829 0.5
789 7.40519 12.3316 8.34199 0.5
790 3.9366 6.5379 4.76615 0.5
791 9.24347 12.8828 12.5944 0.5
792 11.5601 6.27057 4.35169 0.5
793 2.9454 0.19031 5.1531 0.5
794 9.48031 8.52885 12.3794 0.5
795 4.15377 7.89181 9.77583 0.5
796 6.74752 2.53508 12.8101 0.5
797 5.28236 6.43464 3.1573 0.5
798 11.9174 0.261475 4.06686 0.5
799 3.96955 6.50807 6.90026 0.5
800 0.261099 9.36704 12.1974 0.5
801 5.91295 12.4938 8.20085 0.5
802 7.9035 8.98814 8.48983 0.5
803 8.20054 1.8476 1.83264 0.5
804 4.07342 11.4866 12.2922 0.5
805 11.9772 8.01056 8.99837 0.5
806 7.5149 0.270085 7.7174 0.5
807 12.9061 1.92181 7.02684 0.5
808 1.96274 9.00734 0.259917 0.5
809 11.4852 13.2175 5.68575 0.5
810 3.04999 5.77845 10.307 0.5
811 4.45905 11.8846 8.05853 0.5
812 0.450426 5.21052 1.60039 0.5
813 3.96647 11.9067 1.52336 0.5
814 7.8319 10.3658 10.2576 0.5
815 2.67093 7.46115 10.375 0.5
816 1.3936 12.3458 4.91674 0.5
817 0.719999 2.22464 13.2957 0.5
818 5.63495 6.70907 11.916 0.5
819 1.52797 8.59261 5.58344 0.5
820 2.36319 9.65591 7.42075 0.5
821 9.68844 0.446824 6.42544 0.5
822 9.92778 3.10778 12.6274 0.5
823 6.54377 12.0802 7.05652 0.5
824 2.35792 5.41732 9.24799 0.5
825 1.02091 10.3752 10.7396 0.5
826 6.23562 9.47849 2.72162 0.5
827 2.70899 4.80913 5.39722 0.5
828 5.66359 2.89103 7.42515 0.5
829 13.4383 2.13984 9.96772 0.5
830 11.609 3.61438 9.54553 0.5
831 7.99115 2.62918 7.66827 0.5
832 9.06132 11.8539 13.5287 0.5
833 0.556875 4.83182 3.80907 0.5
834 6.78713 3.80166 2.53057 0.5
835 11.5897 12.4615 1.63508 0.5
836 6.21057 10.7431 7.19725 0.5
837 9.39252 7.079 8.61589 0.5
838 6.06889 9.49579 1.0024 0.5
839 3.40485 4.04576 13.442 0.5
840 11.2996 7.61259 11.6429 0.5
841 1.82696 4.43144 7.31809 0.5
842 12.0152 1.6875 0.556137 0.5
843 6.80431 6.29036 7.4289 0.5
844 12.6413 8.13926 3.0282 0.5
845 10.3433 8.37575 0.708591 0.5
846 5.5326 7.15029 4.02505 0.5
847 3.2099 6.6064 0.934426 0.5
848 13.2654 7.28879 5.18265 0.5
849 3.57609 4.578 2.53715 0.5
850 1.52762 5.99896 11.521 0.5
851 13.3002 6.13364 11.0098 0.5
852 2.59731 0.449741 8.4438 0.5
853 4.09888 9.44871 8.11228 0.5
854 9.32833 10.6484 8.4724 0.5
855 7.8677 12.3051 5.87037 0.5
856 10.7917 13.1235 1.61088 0.5
857 7.78241 12.5954 9.33241 0.5
858 3.24152 11.579 7.53701 0.5
859 13.3135 3.63396 5.28765 0.5
860 10.7786 8.29174 10.145 0.5
861 5.11525 3.74478 10.8965 0.5
862 0.350674 13.106 1.41145 0.5
863 4.20843 12.7608 9.01213 0.5
864 13.3048 2.53426 11.4976 0.5
865 11.161 11.779 10.3891 0.5
866 7.09374 9.49882 3.23792 0.5
867 11.1619 12.7097 3.00757 0.5
868 4.80284 1.49308 10.6839 0.5
869 1.39818 3.42891 3.9095 0.5
870 3.75125 10.9435 12.7398 0.5
871 8.76047 6.96015 13.205 0.5
872 0.831092 9.00356 3.04539 0.5
873 4.13069 2.50077 9.62565 0.5
874 3.52875 6.17953 8.33533 0.5
875 11.1125 0.671431 0.930252 0.5
876 1.80701 5.23037 8.54081 0.5
877 5.8018 8.13074 6.17579 0.5
878 0.500018 4.26292 8.57585 0.5
879 5.09526 8.40208 9.81179 0.5
880 11.7265 8.00382 12.7555 0.5
881 8.55112 6.51461 8.67961 0.5
882 4.34149 3.13341 5.4928 0.5
883 13.0708 10.6756 7.66289 0.5
884 0.570554 1.14144 11.6345 0.5
885 11.3866 0.928176 13.1957 0.5
886 7.98117 1.44384 5.9043 0.5
887 12.955 0.967459 4.43883 0.5
888 6.84329 2.1329 4.41907 0.5
889 2.40523 2.28208 6.7183 0.5
890 9.29724 11.4037 2.76048 0.5
891 6.46889 10.5583 7.27154 0.5
892 6.40172 11.0761 4.32564 0.5
893 11.7175 4.37101 11.1979 0.5
894 3.8806 2.58543 7.92703 0.5
895 13.4502 11.5316 1.86989 0.5
896 11.4347 9.15559 10.2957 0.5
897 10.0937 0.671964 9.03129 0.5
898 8.20537 4.48688 1.51003 0.5
899 10.2647 4.57453 5.7482 0.5
900 13.007 8.0466 12.5292 0.5
901 4.14351 0.867173 10.9082 0.5
902 2.38446 8.06356 12.2234 0.5
903 6.92982 10.5292 6.19571 0.5
904 11.8221 13.0289 11.1841 0.5
905 3.00394 2.70265 11.7143 0.5
906 0.891888 3.24708 0.0930496 0.5
907 10.7781 11.0413 4.44079 0.5
908 10.5821 7.56093 11.04 0.5
909 2.50456 4.55005 7.15637 0.5
910 3.08624 12.5252 7.9126 0.5
911 1.59094 8.06961 2.98426 0.5
912 5.5817 1.61375 3.75391 0.5
913 4.98869 9.1139 9.15444 0.5
914 0.287946 3.89611 3.76557 0.5
915 2.35826 11.0649 12.308 0.5
916 12.5331 0.234357 11.0918 0.5
917 8.59343 2.33792 10.6926 0.5
918 4.10221 6.24596 5.23585 0.5
919 5.40545 13.4279 2.78688 0.5
920 10.8699 3.75933 1.79894 0.5
921 1.07771 7.04131 4.38515 0.5
922 10.4138 6.30863 8.11402 0.5
923 5.3346 11.6467 12.2146 0.5
924 8.79241 8.63828 12.7291 0.5
925 9.8978 12.4843 12.1288 0.5
926 10.3924 5.77116 3.22208 0.5
927 12.9301 9.23123 10.9453 0.5
928 8.12995 12.9274 5.33803 0.5
929 0.323575 6.30965 5.17354 0.5
930 12.1944 11.3488 9.21356 0.5
931 10.4926 10.4423 4.383 0.5
932 6.74082 2.42926 10.5321 0.5
933 9.69394 2.51149 3.10226 0.5