ITEM: TIMESTEP
620000
ITEM: NUMBER OF ATOMS
1000
ITEM: BOX BOUNDS xy xz yz pp pp pp
0.0000000000000000e+00 1.3572088000000001e+01 0.0000000000000000e+00
0.0000000000000000e+00 1.3572088000000001e+01 0.0000000000000000e+00
0.0000000000000000e+00 1.3572088000000001e+01 0.0000000000000000e+00
ITEM: ATOMS id x y z radius
1 0.566493 3.43568 13.3376 0.5
2 6.41504 4.45433 1.18849 0.5
3 6.77886 12.3974 0.685143 0.5
4 9.71235 2.45496 8.65429 0.5
5 11.0774 10.3285 5.45935 0.5
6 10.6806 10.9705 8.88537 0.5
7 5.10989 0.998201 5.23014 0.5
8 8.33034 6.97545 3.39332 0.5
9 8.14508 3.65648 4.42464 0.5
10 9.12976 6.36577 0.641095 0.5
11 4.90394 2.91255 12.6781 0.5
12 11.8552 13.1823 2.30595 0.5
13 10.1628 11.3048 3.17037 0.5
14 9.35506 10.944 6.70971 0.5
15 0.421048 2.52856 0.121184 0.5
16 8.76613 9.64461 1.86319 0.5
17 13.385 6.72436 2.11076 0.5
18 7.66872 4.00358 0.607689 0.5
19 7.657 13.3081 12.7867 0.5
20 11.6762 12.1761 4.2467 0.5
21 9.19326 8.39836 1.77161 0.5
22 2.69471 9.18408 8.09551 0.5
23 3.66666 10.3182 10.9437 0.5
24 2.71905 2.69526 11.1137 0.5
25 9.55708 6.5997 2.56325 0.5
26 10.8021 12.3056 6.11667 0.5
27 4.13907 4.38006 4.09308 0.5
28 0.637735 1.96638 5.41002 0.5
29 3.76137 13.2834 3.54149 0.5
30 5.14166 12.8997 5.14144 0.5
31 4.22077 10.0381 1.1902 0.5
32 6.37036 4.3509 1.08725 0.5
33 10.7699 10.9 1.03375 0.5
34 2.75735 9.54668 11.2731 0.5
35 7.76586 6.11467 5.82738 0.5
36 12.436 3.95452 9.21421 0.5
37 12.7521 13.4632 4.95462 0.5
38 0.806381 11.0597 12.6116 0.5
39 8.13529 11.116 13.4829 0.5
40 7.58116 3.34709 11.272 0.5
41 1.01525 2.80076 8.78311 0.5
42 7.91378 5.44251 9.35239 0.5
43 13.1613 10.8921 3.28648 0.5
44 12.5597 4.63953 0.873205 0.5
45 1.3211 5.19623 5.37104 0.5
46 11.9784 0.312926 11.6772 0.5
47 1.87149 2.35548 4.77543 0.5
48 2.55841 4.75536 5.57404 0.5
49 10.3339 3.40761 12.6622 0.5
50 10.7997 2.77596 11.2209 0.5
51 1.03664 8.81758 2.85003 0.5
52 6.77105 9.07358 1.74011 0.5
53 1.3208 1.08433 6.49583 0.5
54 12.7428 10.2911 12.4295 0.5
55 10.1785 2.78134 8.12159 0.5
56 1.25399 0.0353429 12.9713 0.5
57 9.51859 1.49744 2.30434 0.5
58 9.76396 7.14026 11.541 0.5
59 8.51387 5.56035 3.83789 0.5
60 9.15956 12.0898 8.57402 0.5
61 4.62383 0.328284 7.58581 0.5
62 8.43153 1.0239 11.3398 0.5
63 10.6928 8.18459 7.63717 0.5
64 9.70795 4.95609 0.728509 0.5
65 2.90889 1.51448 7.35259 0.5
66 8.06605 1.17726 11.2325 0.5
67 5.09512 9.67835 0.0736578 0.5
68 8.5234 2.37561 0.193735 0.5
69 12.6197 1.86684 8.81306 0.5
70 10.1073 13.4707 0.525228 0.5
71 4.55836 2.31974 12.8834 0.5
72 12.1115 11.7422 5.94612 0.5
73 3.29919 2.98192 12.1204 0.5
74 8.21928 0.245665 8.5854 0.5
75 9.49368 3.51716 6.9906 0.5
76 13.3087 12.6211 4.66841 0.5
77 0.0480397 4.67185 11.8455 0.5
78 1.57936 1.51991 9.18139 0.5
79 7.70499 11.4941 3.34011 0.5
80 7.90188 8.233 13.273 0.5
81 6.67284 9.72369 12.9594 0.5
82 7.76983 5.54727 4.35116 0.5
83 10.061 6.45042 11.9001 0.5
84 -0.00568244 9.25685 9.40752 0.5
85 10.548 3.69534 6.93908 0.5
86 11.0489 0.458578 4.06714 0.5
87 12.0892 0.217573 11.5596 0.5
88 7.47462 2.31082 2.95018 0.5
89 10.1445 0.879391 9.89088 0.5
90 2.09464 4.37452 2.37273 0.5
91 4.35937 9.69163 4.50912 0.5
92 11.6606 11.8818 2.08298 0.5
93 4.13244 3.63281 7.11187 0.5
94 5.454 8.31743 0.454503 0.5
95 10.4823 5.75496 1.45603 0.5
96 5.94715 5.83673 2.42045 0.5
97 10.1095 2.02574 9.90267 0.5
98 9.8011 8.45029 11.5438 0.5
99 0.822346 6.21233 11.4812 0.5
100 8.09464 11.646 5.3655 0.5
101 8.06594 9.1838 5.46095 0.5
102 3.61689 7.21537 4.43444 0.5
103 8.03543 5.81544 11.842 0.5
104 5.26863 3.77598 5.36512 0.5
105 3.74607 10.2524 8.3523 0.5
106 10.6033 13.2949 4.99506 0.5
107 3.03081 8.63571 4.91577 0.5
108 7.73435 8.64922 9.26161 0.5
109 8.26274 2.89511 11.676 0.5
110 4.57369 6.56809 6.11793 0.5
111 4.9479 9.4975 1.06756 0.5
112 5.41795 7.41131 8.65308 0.5
113 2.14463 5.04328 7.63465 0.5
114 7.27525 11.3415 12.2185 0.5
115 3.66476 6.48868 0.167905 0.5
116 6.38064 7.39568 1.5971 0.5
117 11.2308 7.91166 10.9555 0.5
118 4.44657 9.49923 9.911 0.5
119 3.15652 4.57293 3.69432 0.5
120 6.30946 11.4524 3.29311 0.5
121 6.08286 6.21409 13.1664 0.5
122 7.91996 3.59305 4.67128 0.5
123 5.89147 12.975 7.18145 0.5
124 1.80906 1.70152 1.39698 0.5
125 0.414023 4.23352 2.20624 0.5
126 10.6551 2.86966 11.5766 0.5
127 5.42074 4.72688 0.43412 0.5
128 1.05779 3.38961 3.16145 0.5
129 2.05667 8.72664 9.84391 0.5
130 1.86149 8.34232 2.05659 0.5
131 1.29028 12.3997 13.258 0.5
132 3.25653 1.74326 0.962356 0.5
133 0.00621975 8.83155 5.79167 0.5
134 12.1731 2.43795 2.94318 0.5
135 7.78276 4.1526 4.27244 0.5
136 4.39717 0.0434111 4.41144 0.5
137 1.73728 6.49604 7.55519 0.5
138 11.332 9.38578 1.09548 0.5
139 12.1831 6.44802 6.31034 0.5
140 3.66495 1.83835 3.53728 0.5
141 10.8658 0.395022 6.67105 0.5
142 5.20875 7.57254 8.46633 0.5
143 5.931 9.23188 3.80722 0.5
144 7.75488 11.5414 10.3872 0.5
145 0.143738 5.26007 12.4321 0.5
146 11.6834 1.51977 12.6804 0.5
147 7.92144 7.88717 6.94075 0.5
148 6.61283 7.51763 11.0198 0.5
149 0.68228 3.13909 4.17658 0.5
150 8.8477 3.51157 6.01696 0.5
151 2.50515 2.60237 13.1482 0.5
152 10.1031 3.90129 0.177992 0.5
153 4.64525 8.29041 3.53556 0.5
154 4.77474 1.75266 10.5309 0.5
155 1.56097 12.5847 0.604393 0.5
156 0.715341 6.62177 2.09805 0.5
157 4.39841 8.72563 4.32908 0.5
158 1.49342 9.08813 6.23691 0.5
159 4.32094 1.38333 10.8765 0.5
160 11.1164 0.0706562 5.31091 0.5
161 9.98222 0.787042 5.15834 0.5
162 2.78282 3.23168 5.87787 0.5
163 7.46368 7.86905 13.1287 0.5
164 5.08378 3.53066 11.5411 0.5
165 9.95992 2.14069 7.43923 0.5
166 8.23598 7.35484 2.7591 0.5
167 2.28731 4.11328 3.73149 0.5
168 6.2803 8.51495 2.10159 0.5
169 6.4915 6.51309 1.88283 0.5
170 5.30367 12.5451 10.9988 0.5
171 1.70677 12.7337 0.499099 0.5
172 12.362 10.8135 11.6174 0.5
173 4.62486 0.285572 9.91675 0.5
174 11.4773 4.63917 7.21287 0.5
175 3.31151 8.8041 1.04368 0.5
176 3.45695 2.2722 1.06883 0.5
177 12.4478 7.5087 3.36434 0.5
178 2.44355 10.3606 6.94211 0.5
179 6.98273 8.71345 7.96014 0.5
180 5.81308 2.54414 12.4497 0.5
181 11.4037 10.5819 6.15662 0.5
182 4.18426 5.13162 12.1977 0.5
183 4.91153 13.1678 8.7949 0.5
184 9.55256 1.98481 0.143921 0.5
185 5.11299 9.82597 8.16835 0.5
186 12.2522 6.18887 5.59021 0.5
187 7.41945 10.6527 5.93677 0.5
188 2.91038 5.51177 8.3215 0.5
189 12.9683 2.94414 0.517716 0.5
190 10.2617 8.25964 11.2099 0.5
191 7.751 1.32042 7.46185 0.5
192 2.16311 4.80365 4.74945 0.5
193 1.90999 8.08826 5.23169 0.5
194 12.4547 6.60939 6.93185 0.5
195 9.81436 13.6048 1.43734 0.5
196 13.299 6.06974 11.7757 0.5
197 13.497 10.5838 3.22356 0.5
198 1.45787 5.80702 10.6031 0.5
199 7.67312 4.60597 9.29518 0.5
200 0.566867 8.55541 7.07468 0.5
201 3.11968 4.40701 2.04806 0.5
202 7.03104 1.61426 6.83756 0.5
203 1.92304 2.45316 0.143983 0.5
204 9.33571 5.54295 3.21744 0.5
205 4.41437 5.39147 9.00649 0.5
206 4.38804 0.30454 13.22 0.5
207 5.6947 7.31628 6.73054 0.5
208 11.795 4.91194 3.82246 0.5
209 7.01225 12.1986 4.70567 0.5
210 6.8004 8.53309 10.5571 0.5
211 4.91662 13.2321 4.69247 0.5
212 4.81815 12.1244 4.6181 0.5
213 7.63853 3.49165 0.80581 0.5
214 5.27802 8.98124 10.5871 0.5
215 2.19435 0.915387 4.27946 0.5
216 11.9227 9.66974 12.3991 0.5
217 3.10367 7.22278 9.50192 0.5
218 4.79534 7.78648 5.3457 0.5
219 11.6961 0.318397 11.5005 0.5
220 6.45055 6.03916 2.73958 0.5
221 12.3734 4.6027 7.01439 0.5
222 3.22561 3.55806 2.85728 0.5
223 5.1645 12.0079 4.4146 0.5
224 12.3846 9.76596 7.66141 0.5
225 2.34691 8.60353 4.71728 0.5
226 3.68923 7.04676 1.45117 0.5
227 2.71372 4.61643 12.1395 0.5
228 4.58023 2.89179 13.0132 0.5
229 0.937227 1.8576 7.29061 0.5
230 4.53303 5.65027 4.23183 0.5
231 5.11671 0.263293 7.55794 0.5
232 6.01325 13.2171 1.6279 0.5
233 11.8104 13.0254 13.5041 0.5
234 5.17171 5.78727 9.70122 0.5
235 2.11232 12.913 3.61346 0.5
236 2.2159 13.0692 1.69373 0.5
237 0.127556 8.50001 10.8454 0.5
238 1.24257 9.88976 7.8735 0.5
239 10.8422 12.256 12.6671 0.5
240 5.50575 1.70808 0.603943 0.5
241 3.97521 5.37449 10.4994 0.5
242 13.3792 4.44405 10.702 0.5
243 9.77633 9.62645 11.4037 0.5
244 9.98619 13.3766 9.00535 0.5
245 6.1163 12.872 2.54345 0.5
246 9.95086 11.2943 8.87434 0.5
247 7.77416 4.65298 3.21809 0.5
248 4.03024 5.37964 11.6332 0.5
249 2.24127 12.4343 6.77951 0.5
250 9.19171 12.9767 3.36087 0.5
251 13.3289 2.43791 12.2376 0.5
252 12.7648 4.30147 5.52902 0.5
253 8.57699 0.249878 11.9172 0.5
254 10.5777 10.0321 12.1642 0.5
255 1.22365 8.9736 13.5696 0.5
256 9.04774 0.473503 11.309 0.5
257 12.2806 5.51171 12.3864 0.5
258 3.96546 2.74835 3.18807 0.5
259 3.3328 13.5234 3.8314 0.5
260 3.52719 10.9692 12.5046 0.5
261 12.5819 6.50364 0.42645 0.5
262 6.88874 9.98406 5.32418 0.5
263 8.2016 2.95091 8.70345 0.5
264 13.4143 9.98571 6.58587 0.5
265 0.329935 9.52469 0.820733 0.5
266 4.12133 10.7878 1.61756 0.5
267 4.59124 1.28886 4.30233 0.5
268 9.33479 11.3996 11.338 0.5
269 0.319116 12.1658 0.430666 0.5
270 7.6666 11.9407 7.17433 0.5
271 9.02543 10.6129 8.46405 0.5
272 11.4828 10.7128 7.98672 0.5
273 2.8738 5.9662 9.81852 0.5
274 4.16438 7.98071 0.177444 0.5
275 10.9909 5.12516 6.70623 0.5
276 0.479858 6.96102 5.89632 0.5
277 9.10952 12.7986 5.76114 0.5
278 4.8986 1.65435 8.34133 0.5
279 8.29477 4.80734 12.1584 0.5
280 8.87797 9.5539 0.668661 0.5
281 8.086 3.43954 6.77908 0.5
282 11.3204 6.42418 3.94893 0.5
283 6.40393 3.41794 0.894231 0.5
284 2.38866 2.11439 3.87045 0.5
285 11.4319 3.07167 13.5422 0.5
286 6.49195 8.1546 9.5257 0.5
287 0.434511 4.74693 12.8346 0.5
288 6.56258 5.15213 0.980563 0.5
289 3.25411 12.6712 9.87538 0.5
290 8.13104 2.2752 10.8225 0.5
291 9.7154 3.69845 0.122134 0.5
292 3.63855 13.0361 2.5516 0.5
293 2.16188 2.84179 0.727165 0.5
294 6.729 10.5995 10.6892 0.5
295 12.4666 9.63169 9.16525 0.5
296 0.0472952 11.247 8.74479 0.5
297 2.62656 8.17083 7.85938 0.5
298 0.391343 1.01216 1.56219 0.5
299 2.53837 4.21638 13.0114 0.5
300 12.2049 5.76034 0.898138 0.5
301 2.15817 5.29903 13.2484 0.5
302 11.9904 8.79825 9.30892 0.5
303 7.86456 6.45279 0.593386 0.5
304 6.99831 10.7577 0.127779 0.5
305 5.86583 12.8561 9.81151 0.5
306 3.68858 0.928876 7.41532 0.5
307 10.8738 8.65126 2.78994 0.5
308 13.2137 0.956429 7.10744 0.5
309 4.14672 0.85644 8.04377 0.5
310 1.24405 11.9877 2.47301 0.5
311 8.70895 0.180292 4.31165 0.5
312 6.93544 6.73687 9.62665 0.5
313 2.53004 7.3706 10.8861 0.5
314 3.54273 3.91052 10.4387 0.5
315 12.6783 5.9937 12.3552 0.5
316 5.81562 3.04601 2.8198 0.5
317 6.87155 9.72985 1.1478 0.5
318 4.65323 4.42911 12.4948 0.5
319 7.58697 6.59671 9.4976 0.5
320 6.20744 8.48973 11.843 0.5
321 8.24207 2.26021 3.01982 0.5
322 2.86348 0.715782 6.50738 0.5
323 12.0432 9.46426 10.4646 0.5
324 3.19174 3.47165 2.14038 0.5
325 8.76432 2.40211 4.7395 0.5
326 2.47261 8.76766 11.3426 0.5
327 12.1212 8.78726 10.4344 0.5
328 13.2683 7.65009 1.70733 0.5
329 10.341 1.68328 2.40095 0.5
330 1.90958 12.6873 9.35143 0.5
331 6.14128 13.3886 8.08123 0.5
332 4.79154 9.44882 6.24162 0.5
333 5.10601 9.13401 8.3068 0.5
334 5.33226 1.35662 13.2001 0.5
335 2.50751 13.4063 3.54947 0.5
336 3.36199 1.37456 5.09275 0.5
337 8.39976 11.4619 10.1931 0.5
338 0.109962 10.9996 6.93335 0.5
339 4.22982 0.676015 9.4108 0.5
340 7.97466 2.16238 12.955 0.5
341 7.44516 5.00543 10.3202 0.5
342 1.95329 2.67854 5.17639 0.5
343 5.09232 2.09107 4.56029 0.5
344 5.57566 4.21108 8.55267 0.5
345 4.82746 8.52857 7.36883 0.5
346 8.3845 10.8666 3.11725 0.5
347 7.10987 1.90052 5.57395 0.5
348 3.77697 11.9343 4.63508 0.5
349 2.63891 6.93085 7.79072 0.5
350 11.8069 0.298631 11.8726 0.5
351 1.69308 4.1835 0.481016 0.5
352 10.5379 3.17362 5.49095 0.5
353 6.97165 6.25373 2.49255 0.5
354 7.82524 12.4641 0.825956 0.5
355 3.49834 11.9232 0.33063 0.5
356 1.86875 6.20363 13.3753 0.5
357 2.48579 8.98714 0.997475 0.5
358 0.525876 10.0108 11.1169 0.5
359 9.03089 2.70567 9.9706 0.5
360 5.23616 1.14406 11.2572 0.5
361 6.54751 2.86119 10.2129 0.5
362 9.68099 2.49073 10.806 0.5
363 1.16987 12.4042 1.73985 0.5
364 5.16722 10.729 0.410175 0.5
365 12.3731 10.7182 13.1242 0.5
366 7.21846 12.6081 11.719 0.5
367 5.68756 0.93518 3.68705 0.5
368 2.80862 1.51779 2.31382 0.5
369 0.847695 6.03621 3.09186 0.5
370 3.73405 5.29605 8.43909 0.5
371 8.5128 9.38328 13.0634 0.5
372 0.717107 11.9028 8.88153 0.5
373 9.60208 4.7207 1.61378 0.5
374 1.8196 9.41196 1.9151 0.5
375 8.86311 10.6683 6.70608 0.5
376 6.67012 5.4036 4.06161 0.5
377 13.4673 7.72866 8.58235 0.5
378 5.51294 12.3355 5.09722 0.5
379 1.26684 5.92099 9.21033 0.5
380 11.6656 12.8094 3.56475 0.5
381 0.198253 6.96404 4.93192 0.5
382 7.30943 2.39552 4.97977 0.5
383 0.484217 10.6678 5.55109 0.5
384 0.578539 1.13864 2.7102 0.5
385 11.4579 13.028 3.47902 0.5
386 3.39356 6.26344 13.1288 0.5
387 9.54285 6.49978 11.4731 0.5
388 12.1132 1.23054 6.29499 0.5
389 6.2536 9.92014 11.5826 0.5
390 4.40548 8.67342 2.49528 0.5
391 8.71407 13.3519 8.43364 0.5
392 9.26971 7.5335 9.21972 0.5
393 4.03303 11.6978 8.51262 0.5
394 11.648 12.4264 6.88132 0.5
395 8.32663 3.19762 6.47154 0.5
396 12.6075 9.36996 7.53119 0.5
397 13.0506 7.93442 9.46632 0.5
398 13.1794 7.01318 1.41137 0.5
399 2.35977 1.68572 6.2992 0.5
400 0.691495 3.60154 3.8946 0.5
401 4.44267 11.7917 11.1818 0.5
402 10.8729 5.54649 8.73412 0.5
403 9.12188 1.16672 2.66403 0.5
404 11.6373 6.48062 1.51211 0.5
405 10.2048 2.52311 9.05102 0.5
406 3.05322 6.99843 7.07104 0.5
407 1.38037 10.7809 10.6785 0.5
408 4.21576 11.7832 10.7285 0.5
409 1.59723 4.55153 8.80759 0.5
410 5.5733 12.6969 0.199231 0.5
411 5.36315 10.7 10.9327 0.5
412 6.241 8.02813 9.65524 0.5
413 6.45058 2.74239 10.8395 0.5
414 10.3442 11.6382 8.3576 0.5
415 5.44242 2.16025 4.5699 0.5
416 5.12029 9.11751 2.47883 0.5
417 0.943943 1.40136 2.57661 0.5
418 11.3107 7.48517 7.73315 0.5
419 8.73294 12.84 12.8482 0.5
420 0.547379 12.8299 11.1777 0.5
421 0.829242 2.67866 2.60385 0.5
422 10.3897 0.50583 13.3778 0.5
423 1.07383 0.921907 0.358057 0.5
424 2.61295 9.135 10.5379 0.5
425 3.30744 10.3117 7.41461 0.5
426 3.86182 9.64156 11.0038 0.5
427 5.04516 6.17147 7.41393 0.5
428 9.87674 8.30807 7.54012 0.5
429 11.5162 12.8377 6.59887 0.5
430 5.35495 2.72869 1.4307 0.5
431 7.99062 9.37856 8.76325 0.5
432 11.9623 1.4453 5.42293 0.5
433 10.8267 2.71211 11.9147 0.5
434 12.7297 0.140536 10.9052 0.5
435 0.430983 0.778015 4.05239 0.5
436 6.12865 3.65327 7.61615 0.5
437 12.541 12.0825 9.86655 0.5
438 1.1162 2.95369 10.2981 0.5
439 1.29951 6.97332 8.756 0.5
440 9.80868 1.43382 5.6105 0.5
441 9.86697 3.74391 11.7682 0.5
442 7.95885 5.71881 8.01102 0.5
443 12.6616 10.25 11.8071 0.5
444 0.669744 11.0105 11.5569 0.5
445 11.0011 12.7222 6.70105 0.5
446 1.96522 13.5563 8.5127 0.5
447 8.53091 6.50917 0.717189 0.5
448 8.79209 12.1358 5.67905 0.5
449 2.13964 9.39432 7.30367 0.5
450 4.65903 11.958 8.39057 0.5
451 6.39185 7.16528 11.155 0.5
452 11.3432 10.5599 9.67532 0.5
453 5.30863 7.17306 9.56571 0.5
454 0.606915 0.187205 10.0722 0.5
455 4.40238 8.80325 4.04603 0.5
456 1.58322 12.7403 6.10733 0.5
457 5.27022 1.25293 8.64003 0.5
458 2.83964 9.44735 11.8026 0.5
459 1.17181 6.12834 7.97797 0.5
460 10.3459 3.78746 6.25565 0.5
461 1.22249 12.0811 6.99129 0.5
462 3.45166 3.05302 7.91667 0.5
463 10.4709 12.8172 1.45866 0.5
464 0.47528 2.35113 5.47119 0.5
465 9.70784 7.24955 7.6555 0.5
466 2.85548 9.69266 11.1687 0.5
467 2.0699 12.2225 4.10197 0.5
468 1.25289 4.31502 8.0047 0.5
469 0.272737 8.60524 11.5303 0.5
470 9.00212 12.1614 0.165661 0.5
471 13.2525 8.7404 7.75342 0.5
472 0.952954 7.4917 4.62149 0.5
473 2.15088 3.11848 1.92566 0.5
474 1.46523 4.16253 11.2891 0.5
475 12.1271 0.553325 12.6798 0.5
476 5.2569 0.80451 1.84811 0.5
477 12.7698 2.02401 1.97253 0.5
478 11.7654 11.2198 0.232027 0.5
479 1.20314 3.54874 0.888042 0.5
480 7.72483 5.77707 3.79217 0.5
481 7.56261 10.5349 6.26449 0.5
482 0.140223 10.5236 8.00837 0.5
483 7.60024 7.13184 6.83368 0.5
484 12.9877 7.8138 11.2902 0.5
485 2.46927 13.1787 5.76063 0.5
486 8.0443 7.4686 9.73964 0.5
487 10.2709 4.12766 0.916428 0.5
488 1.1159 4.93661 6.91385 0.5
489 12.9599 12.7518 5.81378 0.5
490 9.29346 8.17581 8.6596 0.5
491 11.6859 13.1489 2.97016 0.5
492 1.91221 10.0091 10.5375 0.5
493 12.6042 9.85625 0.917389 0.5
494 2.74342 8.86662 3.46755 0.5
495 12.9083 6.7234 3.07869 0.5
496 10.3404 5.10374 3.91588 0.5
497 1.99949 7.08492 10.5176 0.5
498 10.8139 6.22508 5.17137 0.5
499 6.88658 2.89452 4.92873 0.5
500 9.75039 2.06593 11.5489 0.5
501 4.27013 4.19724 13.4711 0.5
502 6.49204 8.14933 11.2671 0.5
503 9.49792 2.17588 6.1638 0.5
504 5.68208 4.35264 1.40967 0.5
505 4.42032 0.478459 11.2957 0.5
506 5.40367 5.00748 7.7218 0.5
507 4.76685 1.77352 5.90975 0.5
508 0.701158 6.60928 12.0042 0.5
509 1.64332 0.00877084 7.84713 0.5
510 1.99615 4.57694 4.01605 0.5
511 7.60244 11.9598 5.61405 0.5
512 3.47406 9.47674 12.6647 0.5
513 0.639928 9.00349 8.7145 0.5
514 9.99976 10.7843 4.61895 0.5
515 8.97236 13.0098 11.7486 0.5
516 6.02766 3.92547 10.6656 0.5
517 8.2678 7.69393 3.99501 0.5
518 1.52933 9.95082 10.7261 0.5
519 4.27048 4.35147 11.706 0.5
520 8.02922 5.59819 5.24891 0.5
521 2.86197 3.13775 13.4826 0.5
522 12.2386 10.1591 5.17616 0.5
523 2.65916 12.8199 10.9017 0.5
524 12.7291 6.41685 11.9866 0.5
525 0.637634 8.88464 0.809363 0.5
526 13.2535 5.61573 3.13494 0.5
527 6.29339 7.45368 8.56704 0.5
528 3.05162 10.3555 7.60314 0.5
529 6.97411 5.19598 11.1623 0.5
530 10.6808 10.284 9.69647 0.5
531 7.77929 2.95161 0.728811 0.5
532 2.96086 7.22121 10.314 0.5
533 1.50423 4.04246 7.30143 0.5
534 13.0704 11.0521 0.968486 0.5
535 3.48188 12.5559 4.08983 0.5
536 8.2349 10.6645 3.53156 0.5
537 7.92914 7.07911 4.31526 0.5
538 6.14546 12.2163 0.721576 0.5
539 6.12586 0.63657 12.795 0.5
540 1.87571 4.10371 0.584372 0.5
541 1.2532 1.84967 10.7311 0.5
542 7.5058 8.12034 0.941744 0.5
543 8.35974 9.30908 4.87789 0.5
544 4.29502 8.10119 4.25224 0.5
545 3.01049 12.5691 5.46009 0.5
546 7.00781 0.0775304 8.0025 0.5
547 12.7879 9.56953 0.271029 0.5
548 1.57225 2.14083 5.70031 0.5
549 12.5907 8.93164 4.3872 0.5
550 10.8119 1.87155 3.33414 0.5
551 1.66312 10.4193 2.39972 0.5
552 5.49726 6.53098 1.8163 0.5
553 7.3952 11.8228 12.0249 0.5
554 8.46473 1.00769 6.62784 0.5
555 2.48191 12.9393 4.1479 0.5
556 9.63732 5.89283 5.11368 0.5
557 9.11534 10.6328 9.43978 0.5
558 2.73716 13.3523 12.2334 0.5
559 12.1709 5.67018 6.77284 0.5
560 12.2206 2.15805 1.11098 0.5
561 5.60364 4.71676 1.46348 0.5
562 3.238 6.39658 4.56898 0.5
563 4.33239 8.10187 8.07765 0.5
564 7.58874 10.5354 3.17649 0.5
565 7.8259 10.3218 6.80498 0.5
566 9.71206 12.079 9.26324 0.5
567 12.4426 10.7913 10.6381 0.5
568 12.8489 3.56762 6.77171 0.5
569 10.1656 6.52036 0.105202 0.5
570 2.50281 6.92287 0.962949 0.5
571 10.7563 3.88015 4.34232 0.5
572 11.3179 7.48579 1.44252 0.5
573 13.1628 9.65759 5.39164 0.5
574 9.45826 8.27478 8.34079 0.5
575 5.43747 11.6244 1.45702 0.5
576 9.49735 9.40345 6.39845 0.5
577 10.7354 12.9983 6.65568 0.5
578 12.4188 1.43242 9.79104 0.5
579 5.85977 11.2114 1.64719 0.5
580 1.02991 1.07131 13.3487 0.5
581 6.24924 0.519556 3.36538 0.5
582 10.8483 3.44129 12.2927 0.5
583 0.910604 9.50934 5.71925 0.5
584 11.4907 4.55605 1.56557 0.5
585 11.155 1.38136 10.7564 0.5
586 10.7414 6.24977 5.36489 0.5
587 4.11338 1.55401 8.1022 0.5
588 1.66725 13.123 12.0447 0.5
589 3.24026 13.0895 6.38845 0.5
590 1.58282 1.44553 7.6381 0.5
591 2.74686 7.91269 3.51594 0.5
592 5.20886 1.8476 6.4288 0.5
593 4.98265 5.4546 7.68987 0.5
594 10.9028 0.501677 12.7533 0.5
595 7.16832 0.595076 3.68732 0.5
596 12.4568 13.2203 5.15762 0.5
597 4.90428 1.18009 5.94038 0.5
598 10.3519 0.325701 5.53637 0.5
599 9.98848 6.92474 6.13327 0.5
600 1.91055 10.3638 5.53824 0.5
601 5.1278 7.27357 12.2301 0.5
602 13.3597 8.87297 7.69447 0.5
603 1.64545 4.17778 4.94501 0.5
604 7.88419 3.40294 2.91923 0.5
605 10.3835 5.39385 4.0876 0.5
606 7.36645 11.7118 9.67861 0.5
607 4.09372 0.496937 3.45252 0.5
608 10.003 5.24632 2.76745 0.5
609 5.80855 7.49614 6.54833 0.5
610 0.288275 9.62649 12.4028 0.5
611 3.08125 4.5528 12.897 0.5
612 5.1962 3.67715 7.32961 0.5
613 4.291 8.1689 8.4501 0.5
614 2.44416 2.44898 5.52647 0.5
615 12.7389 9.28295 7.45043 0.5
616 2.1966 0.042972 10.7586 0.5
617 6.76966 7.04994 7.23226 0.5
618 8.91123 10.6777 2.46477 0.5
619 2.28034 7.36095 10.1768 0.5
620 1.21971 1.33148 12.8147 0.5
621 7.22276 6.92787 13.5319 0.5
622 7.35134 6.11101 13.1231 0.5
623 1.82878 9.4143 8.10489 0.5
624 12.0067 7.12973 5.3579 0.5
625 5.90498 11.5927 10.6715 0.5
626 4.04432 5.55266 8.03008 0.5
627 11.6751 0.191607 13.363 0.5
628 3.0704 3.66265 7.48362 0.5
629 10.9317 10.2373 8.56012 0.5
630 7.69418 4.2811 1.0094 0.5
631 0.752718 1.17005 1.40722 0.5
632 7.92799 7.74004 5.86809 0.5
633 5.92432 3.76556 4.6769 0.5
634 10.529 12.6298 2.97411 0.5
635 4.992 3.3672 5.55134 0.5
636 6.06507 1.71509 8.9805 0.5
637 11.5573 8.05016 7.2969 0.5
638 12.4164 10.1741 4.30154 0.5
639 3.53769 6.8178 9.32391 0.5
640 10.5323 13.08 9.76168 0.5
641 7.21069 0.767115 7.39603 0.5
642 2.62446 2.85233 2.52278 0.5
643 0.312711 5.2484 4.71954 0.5
644 4.89441 7.55479 1.26628 0.5
645 8.46384 2.04214 3.86069 0.5
646 5.37021 2.72434 11.7847 0.5
647 10.4505 12.2491 8.99508 0.5
648 2.52064 5.05504 6.23753 0.5
649 11.6992 5.06102 10.2011 0.5
650 7.45628 11.5771 8.25266 0.5
651 3.62829 0.871068 5.85546 0.5
652 11.3086 5.18504 3.91542 0.5
653 9.55887 9.65575 4.049 0.5
654 2.06763 11.4776 8.05784 0.5
655 -0.0047979 5.84613 2.55365 0.5
656 3.72379 8.94057 0.564899 0.5
657 3.26213 8.06345 5.07244 0.5
658 6.03228 5.88863 4.44023 0.5
659 11.495 8.84945 7.58085 0.5
660 12.1107 8.89178 3.62153 0.5
661 10.8507 3.81115 12.1436 0.5
662 11.4548 11.9581 6.91755 0.5
663 9.29899 6.42228 13.3284 0.5
664 7.46365 0.271137 5.56025 0.5
665 1.4442 5.1917 2.0374 0.5
666 11.3559 11.4954 8.38119 0.5
667 12.2163 13.1415 1.29642 0.5
668 11.9975 4.66514 7.89127 0.5
669 11.4128 11.3415 5.5131 0.5
670 7.90277 10.4355 7.25753 0.5
671 6.5014 2.06272 5.98775 0.5
672 9.75365 1.25734 6.16983 0.5
673 7.9859 6.30297 12.914 0.5
674 8.51596 4.36962 11.6407 0.5
675 10.4225 7.73381 3.8736 0.5
676 7.72306 1.07468 3.3075 0.5
677 1.82469 6.03073 0.987121 0.5
678 0.43316 11.5603 12.8359 0.5
679 10.7852 7.35543 8.47558 0.5
680 6.5246 5.54467 7.3017 0.5
681 11.2065 10.5366 1.96054 0.5
682 6.23086 9.30342 7.38587 0.5
683 9.16219 5.17432 12.6993 0.5
684 1.47171 0.147716 4.03458 0.5
685 12.3064 1.79173 0.951759 0.5
686 6.06147 8.09838 9.57086 0.5
687 7.0593 6.56171 9.70241 0.5
688 1.43572 12.6524 8.46073 0.5
689 3.68799 12.1554 2.60293 0.5
690 11.1833 0.833883 13.2203 0.5
691 4.73626 0.965736 9.61892 0.5
692 8.16832 3.26674 1.2947 0.5
693 6.99907 6.27296 12.6345 0.5
694 11.6983 9.97204 10.5766 0.5
695 3.36233 3.29626 5.8314 0.5
696 10.649 5.25099 10.1204 0.5
697 4.9267 3.03611 9.56539 0.5
698 3.09174 5.91001 0.148622 0.5
699 2.48575 4.11981 3.90121 0.5
700 3.10649 12.9745 5.8253 0.5
701 13.1717 5.47568 5.89319 0.5
702 8.49612 2.45914 6.42598 0.5
703 5.48255 4.02694 1.32423 0.5
704 3.73981 4.70221 2.95233 0.5
705 12.7934 8.58482 12.189 0.5
706 1.11633 2.85506 7.527 0.5
707 12.5697 2.09414 8.55368 0.5
708 12.372 10.2379 0.673153 0.5
709 7.12127 11.0436 3.10861 0.5
710 1.3051 3.48405 6.57774 0.5
711 4.64349 9.56664 3.31898 0.5
712 9.54972 7.95563 11.5316 0.5
713 1.12391 2.46312 12.3258 0.5
714 8.525 1.23267 3.2128 0.5
715 10.3599 13.2604 4.80033 0.5
716 11.7521 2.91135 1.79251 0.5
717 4.17768 7.70876 3.41626 0.5
718 7.11671 11.3555 10.7206 0.5
719 0.785539 9.72493 3.47543 0.5
720 12.7246 8.96344 1.60151 0.5
721 6.91786 2.71518 2.91297 0.5
722 5.81856 9.68202 5.30227 0.5
723 0.158202 8.3712 5.9848 0.5
724 5.2365 12.2829 8.818 0.5
725 6.91043 0.331893 11.4673 0.5
726 8.58438 3.31265 9.13878 0.5
727 3.46734 3.27291 13.2562 0.5
728 8.64619 9.55502 10.6934 0.5
729 11.9474 1.10249 4.78201 0.5
730 1.87804 8.88757 6.93645 0.5
731 7.3356 3.29041 9.48171 0.5
732 11.9024 8.06645 2.75844 0.5
733 11.8563 13.4535 10.0191 0.5
734 9.07391 10.9419 7.93553 0.5
735 5.22107 7.37498 10.9086 0.5
736 2.43095 2.38175 -0.0277913 0.5
737 0.700047 4.77552 3.71235 0.5
738 7.65258 12.0365 7.97287 0.5
739 3.16764 6.7695 8.73867 0.5
740 3.75024 0.0635123 0.522043 0.5
741 10.354 3.85322 11.4178 0.5
742 2.78792 10.0712 5.34263 0.5
743 4.9155 9.6226 7.13437 0.5
744 7.57457 10.6837 9.33569 0.5
745 4.61043 9.21483 4.29312 0.5
746 0.744814 0.940767 2.93011 0.5
747 7.56896 12.0304 4.9939 0.5
748 9.91864 5.38357 10.485 0.5
749 3.94426 13.2798 12.5041 0.5
750 0.866912 1.46182 3.17029 0.5
751 3.83528 13.3671 5.72177 0.5
752 2.04057 10.2352 3.05521 0.5
753 3.83398 0.646997 13.3522 0.5
754 2.67029 10.2045 13.4314 0.5
755 12.0129 11.3976 6.26996 0.5
756 10.5356 9.62131 5.88293 0.5
757 3.34223 3.75704 10.0712 0.5
758 11.5586 7.66067 4.53482 0.5
759 9.13123 1.87388 0.339166 0.5
760 8.12066 7.74489 4.86986 0.5
761 9.52293 4.70284 5.89835 0.5
762 0.546946 7.46778 0.777845 0.5
763 10.5863 1.50187 7.86837 0.5
764 6.02659 10.4921 11.6673 0.5
765 2.66995 3.39215 1.32342 0.5
766 3.60466 5.44902 6.63675 0.5
767 0.91223 3.35615 9.60961 0.5
768 10.277 13.2018 10.2737 0.5
769 0.350215 1.26527 3.19844 0.5
770 11.8888 11.8874 10.6312 0.5
771 3.82312 3.93836 3.3256 0.5
772 12.867 3.62933 11.5261 0.5
773 6.93174 12.0418 0.0563184 0.5
774 0.173176 3.67114 9.90745 0.5
775 12.4325 0.262182 0.135396 0.5
776 7.73172 11.4208 4.829 0.5
777 3.38778 11.2544 3.12435 0.5
778 7.05597 0.510047 4.59804 0.5
779 6.78364 7.28092 8.99788 0.5
780 2.20488 2.06432 7.81443 0.5
781 13.181 5.43957 11.4031 0.5
782 4.99888 0.0770352 10.6849 0.5
783 2.64412 13.3514 8.82845 0.5
784 2.79187 5.97148 6.92086 0.5
785 2.67238 5.15328 12.1673 0.5
786 2.62917 6.26689 4.09011 0.5
787 13.3275 5.86902 12.5221 0.5
788 11.1285 7.88484 12.0135 0.5
789 11.4873 7.05389 1.02447 0.5
790 0.55705 12.846 6.85283 0.5
791 11.8242 6.95258 0.1176 0.5
792 1.40446 8.50208 7.1106 0.5
793 13.4481 1.15839 12.0689 0.5
794 10.2327 13.0607 8.08763 0.5
795 11.0529 13.0255 5.74836 0.5
796 11.9148 3.60851 10.3102 0.5
797 6.80325 0.809571 10.4472 0.5
798 1.90176 10.2735 3.66008 0.5
799 7.48642 2.63132 10.5056 0.5
800 8.96828 7.41468 2.82251 0.5
801 11.8346 9.04014 13.127 0.5
802 7.65792 9.67031 9.48778 0.5
803 9.098 1.778 10.9153 0.5
804 1.29556 8.51528 13.3507 0.5
805 3.03321 10.6993 1.75369 0.5
806 6.57473 10.2565 11.0731 0.5
807 11.499 1.37605 6.88288 0.5
808 5.06512 1.02528 0.606936 0.5
809 1.59247 13.3101 8.38004 0.5
810 8.49955 9.5055 7.36919 0.5
811 2.44366 11.0385 13.2155 0.5
812 0.602329 8.10678 1.12588 0.5
813 8.08717 3.88312 10.1638 0.5
814 7.65423 10.3295 6.16681 0.5
815 1.9749 10.7399 1.18833 0.5
816 4.41098 9.34234 1.44546 0.5
817 11.3431 2.92856 5.56158 0.5
818 11.5122 6.67029 10.8792 0.5
819 1.43908 7.3108 9.43829 0.5
820 8.3794 11.5916 1.82334 0.5
821 10.5179 4.58534 1.25239 0.5
822 13.527 4.45675 11.2687 0.5
823 7.07548 7.33995 6.32616 0.5
824 8.84709 6.74163 6.53514 0.5
825 12.5467 10.422 11.8375 0.5
826 2.62482 5.86468 0.370103 0.5
827 1.63032 8.55624 3.26677 0.5
828 6.29758 9.63869 10.3743 0.5
829 12.3597 1.05211 9.69178 0.5
830 0.55572 0.794457 1.13759 0.5
831 3.30889 9.33743 8.42085 0.5
832 9.48883 4.24566 13.375 0.5
833 10.5713 10.9801 3.23453 0.5
834 3.6612 4.93616 13.2379 0.5
835 12.6781 8.21548 11.4712 0.5
836 0.422922 12.3561 6.60765 0.5
837 4.18738 5.14577 8.33993 0.5
838 12.3713 7.16614 10.8781 0.5
839 12.0823 11.0149 9.21186 0.5
840 1.18607 6.84906 5.6223 0.5
841 7.93798 6.17277 2.70109 0.5
842 4.51993 6.96051 1.46433 0.5
843 8.22852 2.12304 2.27891 0.5
844 9.49332 4.73982 4.58121 0.5
845 2.7305 2.61704 3.5769 0.5
846 8.16371 0.9471 12.401 0.5
847 6.41363 7.58711 10.3371 0.5
848 5.89757 8.3082 6.77191 0.5
849 5.62304 11.7661 11.601 0.5
850 11.5343 5.67434 8.21703 0.5
851 7.57249 9.24634 6.12244 0.5
852 10.4219 11.0265 9.60495 0.5
853 7.91894 5.19666 12.9398 0.5
854 3.66393 0.2995 11.7522 0.5
855 8.74468 11.2384 10.2905 0.5
856 8.46131 10.0159 0.643431 0.5
857 1.77178 12.1701 8.47694 0.5
858 8.34869 12.641 7.72268 0.5
859 9.10669 1.77996 5.02403 0.5
860 9.64336 6.66694 1.91601 0.5
861 5.53615 1.4838 3.70251 0.5
862 9.02204 7.30975 12.9966 0.5
863 6.80268 6.9486 7.66331 0.5
864 6.65757 10.0641 12.471 0.5
865 4.29292 2.44761 7.79894 0.5
866 12.3575 8.69772 13.5804 0.5
867 0.600558 12.2955 6.73898 0.5
868 1.43767 3.49084 0.119909 0.5
869 1.32141 1.19805 0.926219 0.5
870 0.569004 10.6518 4.0063 0.5
871 11.9388 11.424 5.92512 0.5
872 12.3862 6.89739 5.88346 0.5
873 1.47342 6.91848 12.7223 0.5
874 1.00704 7.17215 1.48947 0.5
875 3.87105 10.7944 10.5779 0.5
876 7.16798 12.936 12.4124 0.5
877 3.01113 12.4074 13.3443 0.5
878 10.7327 10.0238 3.81232 0.5
879 10.9669 13.5365 10.1096 0.5
880 11.6762 1.52207 11.3082 0.5
881 1.0679 3.43175 9.10881 0.5
882 7.9206 5.51783 4.77689 0.5
883 12.2579 2.60201 3.54338 0.5
884 10.1016 9.03252 5.25514 0.5
885 3.15753 3.48386 5.16432 0.5
886 13.3617 6.36476 8.27379 0.5
887 1.17687 0.542174 0.499804 0.5
888 3.18938 4.64967 7.0683 0.5
889 6.86386 2.33116 12.5399 0.5
890 6.02549 4.3789 5.33603 0.5
891 10.0877 3.36772 0.148706 0.5
892 1.26942 10.0456 5.64604 0.5
893 0.0388324 12.3573 0.301004 0.5
894 12.0208 2.29871 11.2116 0.5
895 8.52088 11.3613 2.00959 0.5
896 4.42881 13.468 3.02055 0.5
897 0.0130575 0.429718 11.6744 0.5
898 9.77082 0.500909 9.42726 0.5
899 10.0193 6.97902 10.0203 0.5
900 0.202483 5.92902 2.61028 0.5
901 9.6734 0.316605 7.62517 0.5
902 1.33633 7.08132 4.25479 0.5
903 2.43429 11.0076 1.2002 0.5
904 10.1229 4.70463 13.543 0.5
905 7.72584 8.33507 11.0102 0.5
906 0.125872 10.2209 9.5301 0.5
907 12.1106 12.9028 13.5499 0.5
908 4.36431 7.48757 11.8829 0.5
909 13.5027 10.4723 13.0417 0.5
910 3.4948 0.367352 13.1534 0.5
911 6.21835 2.58148 4.44846 0.5
912 1.62203 2.02328 7.27679 0.5
913 12.5891 11.5449 10.6122 0.5
914 2.68466 1.97066 2.60639 0.5
915 6.78871 7.09952 6.92783 0.5
916 5.81273 0.179096 4.13575 0.5
917 8.6586 7.15128 11.922 0.5
918 3.32806 13.4377 7.29489 0.5
919 3.52013 0.0969277 0.401442 0.5
920 7.4084 1.34891 8.70973 0.5
921 3.72607 9.51835 1.99178 0.5
922 3.51919 11.3432 9.6853 0.5
923 7.66796 2.15683 0.469224 0.5
924 4.12872 10.7659 7.89185 0.5
925 8.14975 8.45787 13.2487 0.5
926 1.22285 6.01745 3.95746 0.5
927 11.1178 9.64448 4.01389 0.5
928 4.00359 6.142 4.18649 0.5
929 11.956 3.02848 9.9243 0.5
930 8.43137 10.2585 4.69211 0.5
931 5.67952 0.224705 6.17656 0.5
932 10.3069 4.91073 8.79869 0.5
933 3.27975 13.467 8.67308 0.5
934 8.6907 8.77566 1.42021 0.5