ITEM: TIMESTEP
740000
ITEM: NUMBER OF ATOMS
1000
ITEM: BOX BOUNDS xy xz yz pp pp pp
0.0000000000000000e+00 1.3572088000000001e+01 0.0000000000000000e+00
0.0000000000000000e+00 1.3572088000000001e+01 0.0000000000000000e+00
0.0000000000000000e+00 1.3572088000000001e+01 0.0000000000000000e+00
ITEM: ATOMS id x y z radius
1 10.7342 12.8796 4.20292 0.5
2 1.57694 12.6965 6.10278 0.5
3 12.5287 12.7999 1.53057 0.5
4 6.81659 3.00546 11.3691 0.5
5 8.49757 7.62608 12.8604 0.5
6 10.271 3.06483 2.56918 0.5
7 8.88374 7.96619 0.568962 0.5
8 10.6201 0.666677 5.65266 0.5
9 12.1898 6.28228 7.52673 0.5
10 11.261 2.57388 3.11832 0.5
11 5.9959 5.28068 4.11327 0.5
12 11.5361 5.78671 11.1837 0.5
13 8.29366 5.97784 9.91115 0.5
14 0.0415028 12.0012 11.9093 0.5
15 2.85353 1.65893 0.35897 0.5
16 3.2176 8.25228 5.01296 0.5
17 7.46671 2.68795 0.851826 0.5
18 1.18741 11.558 10.5659 0.5
19 11.4286 8.74498 2.11193 0.5
20 2.40039 4.40691 5.89553 0.5
21 8.28985 1.26393 3.9628 0.5
22 11.2148 4.42453 12.2669 0.5
23 2.72977 5.75825 5.4416 0.5
24 2.54325 0.300717 11.4412 0.5
25 0.441585 8.89797 6.0335 0.5
26 10.1273 4.27982 7.11984 0.5
27 10.4686 7.67004 7.18061 0.5
28 9.67715 1.35343 5.61578 0.5
29 12.6043 3.72781 4.36691 0.5
30 9.75856 2.62825 6.73762 0.5
31 12.7744 12.4607 6.65927 0.5
32 2.57951 9.65966 0.859335 0.5
33 8.35496 9.55293 4.02722 0.5
34 7.20529 0.665735 3.57717 0.5
35 0.244149 11.6717 6.67743 0.5
36 13.1773 11.3823 9.27457 0.5
37 9.4667 1.68607 1.13697 0.5
38 9.60135 2.49948 7.62441 0.5
39 5.63864 0.573452 3.73804 0.5
40 8.96993 4.55749 8.23129 0.5
41 4.43216 9.93935 3.94466 0.5
42 7.03412 7.75628 0.375136 0.5
43 6.67513 13.4242 13.133 0.5
44 7.62417 3.17265 5.41101 0.5
45 2.8128 10.0289 12.1146 0.5
46 3.31343 4.36308 5.8034 0.5
47 11.1849 9.26721 5.12661 0.5
48 11.6992 0.240796 13.0152 0.5
49 3.4168 6.83331 1.20493 0.5
50 5.05072 9.77913 6.84151 0.5
51 13.2621 6.81661 3.81909 0.5
52 2.52104 11.3937 8.94614 0.5
53 6.55734 8.57461 10.277 0.5
54 3.10299 0.167931 1.0164 0.5
55 11.006 4.05374 3.29275 0.5
56 8.12016 2.46703 11.2572 0.5
57 7.69107 10.45 3.05888 0.5
58 9.61844 3.25039 4.64531 0.5
59 10.6479 2.19669 1.68037 0.5
60 12.2183 4.44249 9.3253 0.5
61 0.078682 12.2654 2.30762 0.5
62 9.90649 12.4027 5.9207 0.5
63 8.52692 0.90451 4.45806 0.5
64 0.555125 0.745469 10.725 0.5
65 11.8293 13.1023 9.36149 0.5
66 11.7289 4.08931 5.77749 0.5
67 10.6004 9.24556 11.8023 0.5
68 12.3082 2.84301 5.40094 0.5
69 8.42692 3.40762 10.9942 0.5
70 7.84302 1.90266 1.01076 0.5
71 7.98458 11.948 1.80596 0.5
72 0.806798 6.23978 8.60179 0.5
73 5.28158 1.45386 13.4664 0.5
74 1.73601 0.796396 5.17437 0.5
75 3.11444 2.54584 10.0299 0.5
76 10.8578 4.24293 3.99484 0.5
77 7.2431 3.91217 12.9713 0.5
78 9.71915 6.88886 12.5479 0.5
79 12.1331 6.39864 6.04163 0.5
80 11.5124 2.20332 9.90816 0.5
81 0.528747 4.397 3.21265 0.5
82 9.7201 0.0323976 2.219 0.5
83 6.80814 0.367029 9.75962 0.5
84 12.4433 13.0724 0.247669 0.5
85 2.77839 12.6262 6.60266 0.5
86 1.82114 0.521881 4.8742 0.5
87 13.2871 8.63236 4.4833 0.5
88 4.65397 9.58319 12.5228 0.5
89 10.532 5.54951 5.40598 0.5
90 3.3375 3.36772 10.3337 0.5
91 11.5434 6.36953 5.74564 0.5
92 7.52372 11.6279 8.43978 0.5
93 0.916453 11.4718 4.21217 0.5
94 13.0665 0.0612224 6.77004 0.5
95 10.1974 2.44999 11.3701 0.5
96 9.98076 10.2173 11.6154 0.5
97 9.12216 7.72973 1.68962 0.5
98 6.99779 0.556731 8.37441 0.5
99 6.99451 3.5776 1.1553 0.5
100 0.444885 5.10365 11.958 0.5
101 11.1267 12.8339 10.1807 0.5
102 3.31285 7.57477 8.92286 0.5
103 12.3026 11.2831 5.0757 0.5
104 9.04022 4.57523 3.13299 0.5
105 11.4889 11.494 7.22068 0.5
106 4.8376 5.16778 7.78954 0.5
107 8.77395 9.72769 7.28489 0.5
108 11.3471 9.31997 11.5183 0.5
109 6.02791 13.2069 5.60747 0.5
110 12.3174 7.53102 2.80327 0.5
111 12.7921 1.73212 12.8632 0.5
112 5.44189 10.0352 6.93731 0.5
113 3.5738 4.69301 4.68154 0.5
114 1.03652 8.99477 7.02617 0.5
115 11.7829 1.8674 2.35492 0.5
116 10.1547 11.3025 9.16964 0.5
117 10.3112 12.1859 10.8459 0.5
118 5.43045 9.78583 0.332705 0.5
119 8.9931 9.4059 1.65671 0.5
120 0.9722 7.24917 0.998598 0.5
121 0.824522 9.56141 11.0628 0.5
122 11.8977 5.7963 11.6839 0.5
123 13.518 4.64154 11.1278 0.5
124 13.2798 12.8218 11.75 0.5
125 5.5961 12.8936 5.11292 0.5
126 13.5793 2.09628 4.24436 0.5
127 3.3521 9.17736 1.77295 0.5
128 2.47902 8.21374 13.1351 0.5
129 5.10801 11.5197 1.22785 0.5
130 0.352955 4.84845 0.838731 0.5
131 10.5294 10.2896 5.08662 0.5
132 13.0288 6.95307 7.17479 0.5
133 1.46817 4.64552 13.5617 0.5
134 9.67512 8.91514 9.08434 0.5
135 2.98976 9.95979 5.48621 0.5
136 8.39527 1.20566 1.5597 0.5
137 13.0732 6.97126 5.46141 0.5
138 5.70072 3.13069 6.15267 0.5
139 7.41459 9.0526 4.54657 0.5
140 1.57142 4.47285 13.368 0.5
141 13.5597 4.55971 12.2578 0.5
142 3.59113 10.3512 11.0566 0.5
143 2.08792 6.27606 12.1255 0.5
144 3.7836 6.69205 2.0879 0.5
145 7.01924 0.626235 6.49831 0.5
146 5.62051 5.73776 3.57145 0.5
147 4.44367 6.13783 9.12124 0.5
148 10.0654 2.3758 12.7933 0.5
149 6.48713 5.40484 10.2239 0.5
150 6.48555 0.760387 0.734925 0.5
151 7.7792 12.6283 0.978403 0.5
152 5.93279 6.50867 9.43233 0.5
153 1.11089 3.33715 0.195001 0.5
154 10.04 10.9095 2.20387 0.5
155 10.6649 3.89435 12.2584 0.5
156 0.239083 7.34955 3.00583 0.5
157 9.62293 13.309 6.19367 0.5
158 12.4015 11.0744 12.2734 0.5
159 6.08628 0.891134 11.693 0.5
160 4.61835 6.37433 0.587166 0.5
161 10.9515 5.06754 11.2377 0.5
162 3.49314 11.2263 9.82812 0.5
163 5.51378 0.15459 11.8981 0.5
164 1.00216 4.94913 3.83153 0.5
165 6.56024 8.21931 7.8389 0.5
166 8.88954 10.1152 6.44588 0.5
167 7.46059 3.26974 5.27061 0.5
168 13.4549 5.58743 11.5701 0.5
169 8.40013 11.1735 5.44096 0.5
170 4.17911 11.5109 8.38796 0.5
171 8.61968 6.20344 0.355465 0.5
172 12.5741 4.13097 4.95981 0.5
173 12.029 6.33303 10.6197 0.5
174 13.2219 9.65786 8.65468 0.5
175 1.06867 13.3235 0.0770477 0.5
176 2.89288 10.3834 8.9186 0.5
177 11.7154 11.074 0.991368 0.5
178 0.39373 6.76967 12.4163 0.5
179 10.7919 2.07654 4.12781 0.5
180 8.60597 7.33533 2.05116 0.5
181 11.0652 3.56744 3.30667 0.5
182 3.47393 11.5738 7.5813 0.5
183 7.59649 5.3688 0.834687 0.5
184 9.85768 7.99113 2.42769 0.5
185 13.1804 13.445 13.5815 0.5
186 7.8926 4.26794 10.9684 0.5
187 12.3916 12.4201 4.39333 0.5
188 0.901039 8.23416 3.59883 0.5
189 6.85249 4.59042 6.90377 0.5
190 6.94201 6.75158 0.195247 0.5
191 8.21156 4.07157 2.90517 0.5
192 4.09915 7.94327 6.86117 0.5
193 10.5744 12.9091 1.13012 0.5
194 3.32206 12.9328 4.6601 0.5
195 6.9728 9.15873 6.00654 0.5
196 7.64208 9.79371 8.03265 0.5
197 9.6645 10.5569 11.0049 0.5
198 6.17978 6.5842 0.0356382 0.5
199 9.82476 6.19301 4.48854 0.5
200 11.9622 4.04453 8.31831 0.5
201 8.74018 11.8968 1.97084 0.5
202 5.75737 6.42295 5.24885 0.5
203 10.7501 7.28454 11.165 0.5
204 11.8491 12.1591 2.01075 0.5
205 1.47332 13.0206 11.5998 0.5
206 6.04245 4.66432 6.08298 0.5
207 9.69031 9.58694 9.69127 0.5
208 5.2759 10.1608 11.46 0.5
209 7.5922 10.4438 11.5031 0.5
210 6.56974 12.1477 3.44677 0.5
211 4.98688 0.497241 6.5144 0.5
212 1.36571 8.58349 1.15629 0.5
213 2.10902 3.17589 4.0762 0.5
214 12.1726 5.3403 9.79343 0.5
215 3.45631 10.049 1.57059 0.5
216 4.04013 0.0847455 4.26844 0.5
217 7.48915 7.98524 10.2742 0.5
218 2.77624 0.782222 5.25969 0.5
219 4.75987 6.9597 3.4335 0.5
220 4.10378 13.5101 5.79392 0.5
221 9.31212 6.06959 8.24273 0.5
222 12.5678 2.10668 4.48261 0.5
223 13.1615 12.4482 2.86852 0.5
224 2.43965 1.01412 6.26636 0.5
225 12.4857 3.19926 0.81136 0.5
226 0.632622 2.67489 10.6104 0.5
227 1.36773 11.7778 5.82084 0.5
228 0.236684 8.88354 7.08663 0.5
229 4.12095 2.28814 7.77858 0.5
230 10.7368 4.57093 7.1776 0.5
231 6.45248 9.85116 10.5694 0.5
232 6.73518 5.00528 3.0805 0.5
233 9.07713 5.65955 11.5939 0.5
234 3.8065 13.1571 1.92087 0.5
235 9.59836 7.42721 10.7084 0.5
236 1.45749 4.76208 4.05846 0.5
237 13.3814 9.10298 4.66495 0.5
238 11.3978 4.20249 13.1777 0.5
239 4.68492 7.15644 13.2292 0.5
240 13.1334 2.98926 2.42748 0.5
241 3.94108 1.8853 11.7825 0.5
242 9.67357 8.52982 8.57555 0.5
243 8.25188 11.4722 8.43668 0.5
244 3.65121 0.921246 8.6137 0.5
245 7.45556 11.0515 11.7426 0.5
246 4.30749 11.572 9.96994 0.5
247 5.21441 5.40508 4.54981 0.5
248 10.0552 6.49538 4.32302 0.5
249 13.2083 5.03716 9.93375 0.5
250 13.0482 9.92402 4.0351 0.5
251 11.1296 5.60927 3.82689 0.5
252 8.41212 12.7762 9.84707 0.5
253 3.26314 8.17534 1.12458 0.5
254 3.40376 11.3238 4.91819 0.5
255 10.4402 9.98429 7.52511 0.5
256 13.4109 11.3991 0.194576 0.5
257 4.55609 6.77739 1.56116 0.5
258 2.14047 4.38494 2.40639 0.5
259 13.2796 8.432 0.553573 0.5
260 7.29753 13.0767 8.87201 0.5
261 6.72696 8.41523 13.0441 0.5
262 5.59429 10.6971 10.3811 0.5
263 6.24347 2.32338 12.0973 0.5
264 0.660467 0.929465 4.58284 0.5
265 7.11791 6.38973 0.825564 0.5
266 3.35442 1.04594 12.4234 0.5
267 3.88944 8.46684 3.34295 0.5
268 7.09613 10.2393 1.05018 0.5
269 13.3647 6.55571 10.303 0.5
270 5.61859 7.19673 6.55424 0.5
271 12.8608 13.529 10.4765 0.5
272 8.84704 7.38575 0.134999 0.5
273 4.98345 4.08938 7.58466 0.5
274 10.9773 6.86101 1.57586 0.5
275 4.49322 7.40629 8.13877 0.5
276 10.1754 1.55305 4.28779 0.5
277 8.2614 9.09534 12.0756 0.5
278 4.05128 10.4885 11.7988 0.5
279 4.18336 9.98471 3.77639 0.5
280 12.2989 4.08246 10.02 0.5
281 5.54718 0.206553 12.483 0.5
282 4.2979 7.52653 10.1736 0.5
283 4.96839 7.3837 7.35085 0.5
284 8.41233 3.583 1.60989 0.5
285 9.91909 12.0388 10.1597 0.5
286 5.4128 3.91451 9.03466 0.5
287 10.264 7.41007 2.89919 0.5
288 6.69035 5.42534 13.0265 0.5
289 1.38496 5.40134 8.79245 0.5
290 2.74855 11.1059 8.87751 0.5
291 11.9293 5.83719 6.00707 0.5
292 13.3509 11.7156 6.76793 0.5
293 11.6735 6.55119 13.4712 0.5
294 7.97848 3.06487 13.1974 0.5
295 11.8136 11.3053 10.5475 0.5
296 11.8062 10.2471 9.33908 0.5
297 6.00207 10.2181 3.43869 0.5
298 10.2535 1.95496 8.03556 0.5
299 9.7023 3.7945 8.8108 0.5
300 12.1226 0.509411 8.964 0.5
301 12.5511 9.29525 4.11447 0.5
302 8.53899 5.19799 1.86892 0.5
303 8.51788 11.6 0.795014 0.5
304 4.34047 6.22686 4.75624 0.5
305 6.4746 13.2873 2.77787 0.5
306 2.80425 3.94475 1.09164 0.5
307 2.39508 2.58393 6.41255 0.5
308 7.41119 0.684979 9.95327 0.5
309 12.6087 8.29809 11.5207 0.5
310 9.96104 8.79927 9.60575 0.5
311 2.41016 7.75077 11.8508 0.5
312 11.4578 1.13949 5.37713 0.5
313 6.7837 8.21849 1.05754 0.5
314 12.7732 2.0681 7.53296 0.5
315 13.1944 12.7134 13.3181 0.5
316 0.0842842 4.78176 8.3276 0.5
317 3.37838 5.78649 1.4725 0.5
318 2.76738 5.4278 12.9624 0.5
319 7.60737 9.36379 12.2244 0.5
320 9.63806 7.34749 7.487 0.5
321 9.91404 13.2162 4.13836 0.5
322 11.0164 9.09531 5.05735 0.5
323 4.92668 8.6693 6.30273 0.5
324 1.03695 0.943954 4.35301 0.5
325 2.54889 11.2017 4.11008 0.5
326 4.11768 8.22059 12.1842 0.5
327 7.98234 8.47454 9.62075 0.5
328 11.0142 11.0348 8.81022 0.5
329 3.23018 10.4518 3.37355 0.5
330 2.5372 12.3075 8.28004 0.5
331 2.06848 3.79116 5.17059 0.5
332 9.10352 10.5866 0.674695 0.5
333 3.54059 5.11493 7.37328 0.5
334 4.56622 9.84161 11.8078 0.5
335 6.38983 13.4266 4.31127 0.5
336 9.15977 1.7199 8.72558 0.5
337 4.18986 2.80364 11.047 0.5
338 5.0349 12.649 9.46121 0.5
339 4.4156 6.21202 0.771589 0.5
340 8.3887 1.73754 10.2282 0.5
341 8.27678 12.8835 2.13418 0.5
342 3.34296 12.6532 4.95885 0.5
343 2.00371 11.8543 11.0895 0.5
344 6.44601 10.7728 9.47471 0.5
345 6.63747 13.0347 7.67902 0.5
346 8.20819 8.90868 5.1746 0.5
347 13.265 7.17977 3.71881 0.5
348 13.539 1.43077 1.36635 0.5
349 3.71537 1.30329 6.42845 0.5
350 9.24955 3.74763 2.16241 0.5
351 0.140556 8.95226 3.39847 0.5
352 12.3436 9.83632 11.4275 0.5
353 6.51533 11.2084 12.2887 0.5
354 12.7273 10.6298 11.5951 0.5
355 11.5962 4.69722 6.73274 0.5
356 12.3521 10.9536 7.23923 0.5
357 0.268597 6.27749 10.9649 0.5
358 9.56374 5.74356 11.5588 0.5
359 0.0616935 10.2843 2.10921 0.5
360 6.85372 2.90238 4.63548 0.5
361 13.4323 4.46677 10.0577 0.5
362 6.40682 1.93517 13.2579 0.5
363 5.04231 8.59412 13.336 0.5
364 0.106759 6.34617 13.0209 0.5
365 2.62958 4.93428 4.628 0.5
366 8.98526 12.1721 5.0967 0.5
367 11.7071 8.25015 7.17655 0.5
368 9.31484 11.9146 3.46703 0.5
369 12.3808 3.24512 6.83814 0.5
370 3.98086 10.5076 5.80251 0.5
371 12.098 7.66376 2.69566 0.5
372 3.86389 9.95024 3.0785 0.5
373 7.53058 11.5825 12.1591 0.5
374 2.40671 13.2959 9.73694 0.5
375 4.49464 12.3434 13.4294 0.5
376 7.99432 9.14809 6.6243 0.5
377 3.6628 13.236 1.02896 0.5
378 6.67147 9.22909 13.4397 0.5
379 8.35066 1.46379 13.2164 0.5
380 6.59655 3.1802 6.48759 0.5
381 1.00415 11.1766 9.35233 0.5
382 3.88278 7.08842 10.5619 0.5
383 5.44503 6.64247 4.64918 0.5
384 11.46 2.47444 10.7246 0.5
385 8.32759 4.13423 10.1305 0.5
386 3.2608 12.894 7.19276 0.5
387 7.60558 8.26976 12.391 0.5
388 10.9953 11.7583 3.9321 0.5
389 11.9343 0.246968 10.3503 0.5
390 13.1771 7.72631 12.1567 0.5
391 10.4555 4.20403 4.12885 0.5
392 8.86226 3.58548 3.45432 0.5
393 2.20135 12.0321 7.08155 0.5
394 10.5989 7.34529 0.564629 0.5
395 12.6067 1.3328 10.3733 0.5
396 13.4767 9.21441 6.33226 0.5
397 6.16357 3.4577 2.8352 0.5
398 10.9155 9.98204 13.1715 0.5
399 5.92257 0.262573 0.549286 0.5
400 1.32071 2.88338 10.9519 0.5
401 4.98045 9.5844 13.0036 0.5
402 11.0368 6.84643 10.9892 0.5
403 3.81392 9.67765 8.19904 0.5
404 2.91545 7.98201 5.88231 0.5
405 3.04653 12.3232 2.0075 0.5
406 4.32671 1.42624 11.5685 0.5
407 0.819842 2.72327 3.47122 0.5
408 5.92375 12.7854 1.21396 0.5
409 13.2016 7.10061 9.6889 0.5
410 5.06987 13.2953 4.79319 0.5
411 1.99596 5.56259 6.49529 0.5
412 5.60067 11.6193 8.42062 0.5
413 1.8888 3.30476 13.3893 0.5
414 10.1774 2.66988 9.63988 0.5
415 12.9599 4.74511 8.72981 0.5
416 4.61602 1.05397 11.9311 0.5
417 7.15762 11.539 8.81596 0.5
418 12.5323 1.25893 5.46904 0.5
419 10.7931 9.98042 2.2159 0.5
420 6.38751 9.53798 11.992 0.5
421 4.41246 5.43246 0.41629 0.5
422 12.8866 7.79868 9.73484 0.5
423 7.67389 12.4986 11.1219 0.5
424 6.78249 2.60497 9.61098 0.5
425 4.41467 1.39855 5.70541 0.5
426 0.185892 1.94053 13.0881 0.5
427 7.02596 1.36988 1.23591 0.5
428 6.16218 1.09787 4.48716 0.5
429 9.14499 1.31702 1.49482 0.5
430 12.9762 8.38368 8.90184 0.5
431 8.92217 5.11548 3.67103 0.5
432 2.8452 5.28432 12.6513 0.5
433 4.53269 11.2615 8.01712 0.5
434 7.01621 7.16324 3.92331 0.5
435 9.62917 2.15226 10.0322 0.5
436 11.2285 12.0452 8.22136 0.5
437 13.2059 11.3256 12.3567 0.5
438 2.76561 5.65959 3.34408 0.5
439 13.0144 8.30272 5.51922 0.5
440 9.65916 11.2736 13.2179 0.5
441 8.09916 10.4654 1.06248 0.5
442 10.6792 11.3542 7.11207 0.5
443 12.3703 5.71634 3.64183 0.5
444 2.65665 5.83255 1.14508 0.5
445 11.9774 9.76453 10.068 0.5
446 3.63435 13.5246 0.494358 0.5
447 10.1295 3.96245 13.1026 0.5
448 6.51877 9.49037 8.02497 0.5
449 9.13397 3.9266 10.4328 0.5
450 10.0137 12.3289 0.915575 0.5
451 12.7349 12.6732 11.9687 0.5
452 13.404 5.49568 0.0337005 0.5
453 3.41506 9.87394 13.3555 0.5
454 4.95662 12.8954 4.04164 0.5
455 6.90143 0.614979 13.163 0.5
456 9.0507 4.40817 3.82134 0.5
457 10.0164 10.0231 6.1668 0.5
458 1.80767 8.56261 0.0135519 0.5
459 1.40895 4.1267 1.1867 0.5
460 2.78911 9.44832 7.77924 0.5
461 8.00844 6.77208 9.30523 0.5
462 6.71607 12.368 7.18156 0.5
463 6.891 2.75562 0.615444 0.5
464 5.4617 7.35959 1.769 0.5
465 9.65866 1.61017 10.9575 0.5
466 13.357 4.269 7.92048 0.5
467 8.04909 2.84571 5.98064 0.5
468 3.05173 10.4362 7.10946 0.5
469 13.4183 8.84144 3.11995 0.5
470 1.03253 4.31949 0.781566 0.5
471 5.01842 9.30086 0.873125 0.5
472 6.57473 10.8636 9.07694 0.5
473 1.62053 11.2935 10.0866 0.5
474 2.33231 2.69759 5.48025 0.5
475 4.88851 2.46373 6.28542 0.5
476 9.66028 0.772787 6.11608 0.5
477 12.8682 3.646 7.32662 0.5
478 12.9123 0.823456 12.1608 0.5
479 2.73933 4.97437 4.35912 0.5
480 13.1831 7.89886 3.29487 0.5
481 3.28995 10.0404 5.09446 0.5
482 3.8963 6.73526 5.39198 0.5
483 12.6769 0.672518 5.79334 0.5
484 7.61103 11.8922 12.0553 0.5
485 10.094 0.0843321 7.14981 0.5
486 4.61209 4.76077 9.45214 0.5
487 2.56382 2.67632 8.84817 0.5
488 2.57924 3.31821 8.32878 0.5
489 12.4522 13.4742 12.2863 0.5
490 9.37722 0.624531 3.74002 0.5
491 6.8911 8.28737 11.2363 0.5
492 10.016 13.5441 2.06996 0.5
493 9.88155 1.31319 11.094 0.5
494 12.4893 5.62352 4.02504 0.5
495 5.12107 5.3502 10.0726 0.5
496 8.42457 9.58165 4.7018 0.5
497 8.03959 10.1372 9.99679 0.5
498 1.3478 6.2375 10.5229 0.5
499 1.17754 12.5975 9.9613 0.5
500 8.67533 9.96561 3.27336 0.5
501 5.02203 9.91293 12.4773 0.5
502 3.7717 5.28042 11.1413 0.5
503 5.28396 10.9153 5.16613 0.5
504 8.37714 3.33428 8.42119 0.5
505 2.16107 11.0026 1.4236 0.5
506 1.26885 0.311797 0.647229 0.5
507 0.653525 0.161464 3.45841 0.5
508 7.43909 6.05999 6.76235 0.5
509 12.221 6.08756 3.36631 0.5
510 10.7838 4.59962 0.54596 0.5
511 10.6588 2.55122 6.35686 0.5
512 11.8274 9.73982 1.23733 0.5
513 1.81714 7.91905 1.89004 0.5
514 7.538 8.50434 3.9037 0.5
515 0.242108 3.47299 13.45 0.5
516 8.75377 7.34781 9.59581 0.5
517 5.2475 0.682787 3.1496 0.5
518 1.37668 6.63068 10.5787 0.5
519 11.5754 6.92237 1.19451 0.5
520 11.9257 5.08378 0.753999 0.5
521 6.27888 10.1354 11.92 0.5
522 0.830316 6.47419 9.44631 0.5
523 0.4286 9.04461 9.77672 0.5
524 10.0761 2.67569 11.3407 0.5
525 13.3599 3.40596 12.6916 0.5
526 12.7773 3.51435 12.6784 0.5
527 3.7423 3.4225 1.61701 0.5
528 8.0549 0.0914197 9.50729 0.5
529 3.28145 1.01862 7.63071 0.5
530 13.0556 10.8049 11.9761 0.5
531 5.90217 13.2557 10.6407 0.5
532 6.09068 5.68377 4.02103 0.5
533 0.514376 5.89068 9.64047 0.5
534 5.13406 2.47989 6.49958 0.5
535 13.2699 0.103504 8.05557 0.5
536 3.99466 1.6262 10.8693 0.5
537 5.90512 9.26694 5.51854 0.5
538 12.253 10.477 8.59364 0.5
539 0.828728 13.4184 3.99745 0.5
540 6.69876 9.69932 6.33994 0.5
541 2.57232 3.61943 10.5226 0.5
542 0.644693 2.38779 1.42565 0.5
543 3.40556 4.33326 8.13773 0.5
544 9.47238 13.2523 10.1128 0.5
545 12.8499 1.43752 8.01785 0.5
546 7.46379 4.11315 5.32775 0.5
547 4.97675 11.6323 8.51946 0.5
548 8.89787 7.16441 8.54038 0.5
549 0.642952 7.87117 9.68024 0.5
550 9.61587 12.888 4.38721 0.5
551 11.5989 6.58414 10.6685 0.5
552 2.02488 5.93739 10.4004 0.5
553 3.68868 1.44279 10.8423 0.5
554 12.3334 13.3305 8.16118 0.5
555 8.87148 0.136899 4.75182 0.5
556 1.45247 7.66708 8.53739 0.5
557 10.7439 5.80552 2.5565 0.5
558 1.07426 7.38618 6.50237 0.5
559 3.20969 10.0464 0.232977 0.5
560 7.716 4.56452 11.6235 0.5
561 4.85016 7.94759 2.54529 0.5
562 1.86826 11.0271 9.29982 0.5
563 1.3608 8.62591 12.411 0.5
564 4.62433 12.3748 6.0848 0.5
565 8.58227 6.9331 4.06102 0.5
566 3.65279 2.56983 6.38772 0.5
567 11.0337 9.98479 6.58799 0.5
568 7.37369 10.0364 12.1553 0.5
569 2.47531 11.4626 2.33058 0.5
570 4.93815 5.84574 10.8986 0.5
571 7.40697 13.2819 12.5903 0.5
572 5.22559 8.74238 7.19043 0.5
573 12.6975 10.329 2.8734 0.5
574 3.38291 12.2911 1.87956 0.5
575 2.05314 0.530169 1.32049 0.5
576 13.3554 10.5807 2.97997 0.5
577 5.9868 1.06907 12.9131 0.5
578 12.0692 6.3146 9.41958 0.5
579 3.29589 2.98914 8.90268 0.5
580 9.98705 9.96224 8.47399 0.5
581 11.5903 4.71969 0.0985643 0.5
582 11.8742 6.94688 1.02528 0.5
583 13.1428 0.338505 8.62988 0.5
584 6.13335 11.5859 6.95439 0.5
585 11.6485 13.2675 11.4171 0.5
586 3.383 5.7515 12.8862 0.5
587 1.509 1.38254 6.56652 0.5
588 2.03346 4.54513 1.46736 0.5
589 2.42892 4.69394 5.50411 0.5
590 2.25501 2.9705 10.3842 0.5
591 4.86089 0.929475 5.26993 0.5
592 5.86092 0.0361753 11.1101 0.5
593 0.387492 0.454441 12.8125 0.5
594 5.58867 4.98029 9.00232 0.5
595 1.64398 2.11306 12.9701 0.5
596 12.5211 12.9335 12.7915 0.5
597 4.57062 7.69403 9.00961 0.5
598 3.92106 7.54854 7.97906 0.5
599 4.5214 3.25986 12.9148 0.5
600 3.7218 10.8407 1.88364 0.5
601 12.661 11.8928 4.56463 0.5
602 3.27877 1.66447 4.12111 0.5
603 7.28534 6.1083 12.5311 0.5
604 7.94878 5.96654 8.3095 0.5
605 1.92442 4.82102 2.31766 0.5
606 12.9769 0.239852 9.68911 0.5
607 5.4214 5.575 1.05219 0.5
608 0.373148 0.661339 4.67479 0.5
609 9.43044 13.3238 2.39082 0.5
610 1.20657 5.30003 7.78657 0.5
611 10.0837 12.67 6.60272 0.5
612 8.25566 8.466 6.84602 0.5
613 3.37219 7.90412 4.26234 0.5
614 0.299413 12.5277 6.21745 0.5
615 13.3281 8.98082 7.76767 0.5
616 8.34351 0.0266674 9.67961 0.5
617 7.92146 13.4233 12.1636 0.5
618 4.88571 7.09782 7.56173 0.5
619 5.78652 11.6393 1.9239 0.5
620 5.12635 6.48831 6.48863 0.5
621 0.0332911 8.15787 6.07593 0.5
622 10.2236 13.3166 9.3177 0.5
623 3.11331 11.7535 7.83805 0.5
624 2.95604 13.0846 1.229 0.5
625 1.05897 5.56238 10.1499 0.5
626 12.1522 5.55184 3.13878 0.5
627 2.48335 2.11709 1.87367 0.5
628 7.52417 12.2912 0.823251 0.5
629 4.88564 4.23383 10.2766 0.5
630 1.48533 6.27183 4.70746 0.5
631 6.55692 9.9533 6.85331 0.5
632 3.8367 0.195838 11.1888 0.5
633 12.2109 5.32024 2.63434 0.5
634 4.41073 5.92979 3.38741 0.5
635 4.93226 6.71088 5.55678 0.5
636 6.37167 4.66778 12.3639 0.5
637 5.33623 6.57372 4.84956 0.5
638 9.8739 3.74507 9.87114 0.5
639 1.55432 2.78982 6.18105 0.5
640 10.3517 5.15934 6.24928 0.5
641 5.80072 3.10508 3.28601 0.5
642 9.90197 0.887941 7.77477 0.5
643 2.72689 11.3291 5.3352 0.5
644 8.54413 6.80532 11.3238 0.5
645 2.06097 11.616 6.23868 0.5
646 8.32621 6.64045 11.9159 0.5
647 6.06463 11.3747 6.6615 0.5
648 0.822522 5.76575 3.24573 0.5
649 5.51036 3.90291 6.03115 0.5
650 2.27527 7.2193 11.2441 0.5
651 12.6794 2.93032 4.74414 0.5
652 6.68641 6.15674 13.5273 0.5
653 7.93998 2.37547 11.0988 0.5
654 8.53899 6.65133 12.1989 0.5
655 12.3879 13.2154 7.83975 0.5
656 9.86789 1.29907 10.3239 0.5
657 4.71562 7.60679 0.4343 0.5
658 5.67201 1.02172 13.1698 0.5
659 7.82967 2.27262 5.97842 0.5
660 10.0219 4.58765 11.9708 0.5
661 8.88489 2.63947 13.3853 0.5
662 13.1671 8.81615 3.48079 0.5
663 6.89022 5.04749 11.0944 0.5
664 2.40076 5.64636 13.1773 0.5
665 0.0625897 0.0262087 10.9381 0.5
666 0.516598 7.44548 7.70225 0.5
667 4.57977 3.44661 10.3028 0.5
668 0.111363 11.9241 13.031 0.5
669 10.9871 12.6701 8.20193 0.5
670 11.3286 10.4746 13.3289 0.5
671 3.62342 4.58229 13.4209 0.5
672 6.93142 1.21278 13.2765 0.5
673 4.58533 11.6587 0.652656 0.5
674 11.1388 10.512 4.48599 0.5
675 9.49112 7.08972 6.00572 0.5
676 11.2994 7.36883 9.58402 0.5
677 2.13669 0.299027 7.22178 0.5
678 13.0064 8.10071 6.38249 0.5
679 4.99455 2.91096 10.6679 0.5
680 7.30626 2.03158 2.76795 0.5
681 9.60216 10.5509 0.763441 0.5
682 1.97387 5.38183 2.74084 0.5
683 12.098 6.10586 7.5585 0.5
684 1.56441 0.0514818 9.10825 0.5
685 9.87796 3.42861 11.9335 0.5
686 12.4342 5.45998 1.38862 0.5
687 2.00671 9.57832 1.5812 0.5
688 8.73914 11.3717 1.09483 0.5
689 7.95627 3.83931 7.6267 0.5
690 1.36736 13.4105 2.30386 0.5
691 2.1484 1.5424 7.44287 0.5
692 6.52675 13.2451 10.5965 0.5
693 1.7501 11.5799 11.3035 0.5
694 5.75193 7.64248 7.90577 0.5
695 7.20728 8.54323 2.88033 0.5
696 11.7215 8.48188 9.48801 0.5
697 1.82537 1.01294 2.20072 0.5
698 11.1342 3.8212 10.2846 0.5
699 6.12602 8.43058 4.12701 0.5
700 0.0740171 13.2536 6.5066 0.5
701 1.72772 1.31727 10.0501 0.5
702 13.5335 11.9663 8.13169 0.5
703 10.9492 8.92272 10.0175 0.5
704 2.1968 9.88063 12.9095 0.5
705 3.59938 4.68672 0.563193 0.5
706 7.64229 1.55046 4.53605 0.5
707 0.579857 5.26267 2.36545 0.5
708 3.77058 8.28842 2.67559 0.5
709 9.59797 6.44116 12.0252 0.5
710 9.24522 4.7655 2.31315 0.5
711 5.95173 5.78291 12.2172 0.5
712 10.0022 8.91526 4.10296 0.5
713 8.78027 4.85633 6.48912 0.5
714 8.23147 4.32404 6.9785 0.5
715 3.29627 7.81357 7.03889 0.5
716 0.0622831 10.7082 10.0899 0.5
717 8.17568 6.42598 6.21061 0.5
718 4.38498 10.4761 8.3851 0.5
719 0.856192 6.24206 5.26943 0.5
720 9.93157 6.59295 9.05367 0.5
721 9.0326 9.35178 5.49981 0.5
722 8.84937 11.089 7.76158 0.5
723 5.24066 7.29237 5.57484 0.5
724 9.82198 6.85412 1.8595 0.5
725 7.02009 8.58153 0.514097 0.5
726 1.87554 9.40767 4.33708 0.5
727 11.9662 11.2254 3.32197 0.5
728 9.63532 6.09342 5.19678 0.5
729 12.7528 3.03322 12.5435 0.5
730 7.3304 1.02978 3.10096 0.5
731 5.48768 1.15901 3.59988 0.5
732 11.0661 11.4299 1.16929 0.5
733 4.30961 9.0232 4.29828 0.5
734 6.01864 0.432504 5.48345 0.5
735 10.4493 4.78867 4.30296 0.5
736 6.20163 7.84115 8.30064 0.5
737 7.07293 12.7323 9.73489 0.5
738 11.4881 0.421744 4.59243 0.5
739 10.9374 0.338804 4.24978 0.5
740 7.0986 6.30402 1.18797 0.5
741 3.9701 10.6295 2.54814 0.5
742 3.74158 9.00598 11.1282 0.5
743 4.46924 2.85241 12.7927 0.5
744 2.84963 8.13895 5.55764 0.5
745 7.53085 9.1043 4.42212 0.5
746 12.9635 7.08555 6.64271 0.5
747 11.5349 2.90623 6.03673 0.5
748 12.4359 2.37796 4.13096 0.5
749 5.46473 10.592 0.731468 0.5
750 12.266 3.64076 4.31117 0.5
751 13.429 1.70973 12.3634 0.5
752 0.130611 5.87379 8.83396 0.5
753 7.79817 8.31223 4.21184 0.5
754 1.23952 3.55377 10.7199 0.5
755 3.5454 1.5936 12.4039 0.5
756 10.8173 6.71641 5.38244 0.5
757 5.14546 3.56849 4.80909 0.5
758 12.7498 11.0166 8.78622 0.5
759 12.3466 11.7751 7.26563 0.5
760 2.63088 13.5713 0.491631 0.5
761 1.53261 6.30143 1.54883 0.5
762 1.76407 12.7303 13.1913 0.5
763 9.32831 8.76581 10.2373 0.5
764 8.10301 12.0752 10.7933 0.5
765 6.61779 10.5766 7.9557 0.5
766 2.13339 10.2915 8.19323 0.5
767 2.25452 5.67161 2.58831 0.5
768 10.6151 5.83379 13.0791 0.5
769 7.98027 11.8935 3.47061 0.5
770 0.195992 2.34444 12.9141 0.5
771 4.24061 5.45972 2.83399 0.5
772 10.113 9.6109 0.284437 0.5
773 12.6757 11.5948 11.2718 0.5
774 2.14255 6.81262 8.83475 0.5
775 9.96607 6.32487 4.61143 0.5
776 7.34894 11.4013 7.25663 0.5
777 7.4096 9.39315 7.11499 0.5
778 10.0511 11.0666 12.8109 0.5
779 0.951742 7.68887 4.72534 0.5
780 11.9587 12.9424 9.7406 0.5
781 4.12463 10.3496 9.71796 0.5
782 7.74513 11.7496 9.74254 0.5
783 6.32882 1.38423 13.3796 0.5
784 10.4412 0.146282 8.4903 0.5
785 0.188818 10.2251 0.226488 0.5
786 13.5484 5.08516 12.2343 0.5
787 1.67969 3.11256 11.2569 0.5
788 5.57608 1.35393 2.26947 0.5
789 12.6499 11.5843 12.7324 0.5
790 3.84776 0.726592 2.32676 0.5
791 3.52333 1.55074 10.3421 0.5
792 8.6123 0.148746 11.7737 0.5
793 9.62695 10.5066 2.14317 0.5
794 7.52624 8.45443 0.27948 0.5
795 0.0621862 11.0902 6.29394 0.5
796 2.23281 11.3676 3.906 0.5
797 12.1661 0.311525 5.01193 0.5
798 10.288 8.10732 7.95166 0.5
799 11.6035 6.95362 13.2844 0.5
800 12.3531 9.92544 10.512 0.5
801 4.07964 1.98175 4.54523 0.5
802 3.31645 11.7414 2.2994 0.5
803 0.442908 9.96022 10.801 0.5
804 12.0063 10.7892 12.1258 0.5
805 4.88811 4.38505 10.9502 0.5
806 9.67265 3.18703 9.41964 0.5
807 7.27326 2.4092 4.55766 0.5
808 5.63392 1.21831 6.81621 0.5
809 5.22599 1.20231 9.80951 0.5
810 12.9805 12.8457 3.22627 0.5
811 6.9731 9.69811 11.6081 0.5
812 11.7712 9.2155 9.58695 0.5
813 1.38792 3.92289 10.7784 0.5
814 7.38035 11.1349 0.954578 0.5
815 10.6347 3.25977 6.02172 0.5
816 3.91255 7.11838 5.47782 0.5
817 2.88372 5.26265 1.04011 0.5
818 1.87387 0.656454 10.0979 0.5
819 11.8796 0.839786 9.01928 0.5
820 0.799704 4.82673 5.3331 0.5
821 3.4176 5.48836 6.15533 0.5
822 3.2142 9.33066 10.1219 0.5
823 1.06906 1.27919 9.3557 0.5
824 5.13135 8.26217 10.0615 0.5
825 1.02066 7.57395 10.1527 0.5
826 8.10034 5.59968 3.8934 0.5
827 3.70886 2.7424 4.98897 0.5
828 3.64511 8.2995 3.75461 0.5
829 8.24349 4.6118 9.36563 0.5
830 9.68128 4.45622 3.22889 0.5
831 0.279972 7.48254 7.45226 0.5
832 3.09823 2.42987 8.37954 0.5
833 10.2472 6.0614 12.6948 0.5
834 11.4864 11.8256 11.7472 0.5
835 2.86802 11.4374 7.96166 0.5
836 4.53831 7.34438 10.1033 0.5
837 6.12083 4.7893 7.67495 0.5
838 4.06157 9.88314 9.4422 0.5
839 4.47791 11.5238 3.98644 0.5
840 7.9389 1.67593 4.04997 0.5
841 11.0025 1.6347 4.11744 0.5
842 2.73212 8.89285 5.70399 0.5
843 12.9599 10.3838 3.24313 0.5
844 8.34287 0.572193 10.1084 0.5
845 4.33181 11.4995 5.04926 0.5
846 4.17743 1.09307 4.89035 0.5
847 6.10149 1.88332 6.62332 0.5
848 10.1347 8.35147 12.621 0.5
849 11.9067 9.48779 9.14995 0.5
850 1.2896 0.213065 3.06917 0.5
851 2.57316 10.1149 5.06834 0.5
852 0.0216232 10.4139 0.196279 0.5
853 0.472558 2.16843 7.75268 0.5
854 2.1672 11.3109 9.55629 0.5
855 10.8874 1.73044 11.6068 0.5
856 5.96005 12.117 8.10146 0.5
857 11.1429 9.20545 10.649 0.5
858 11.9718 8.50477 1.60542 0.5
859 12.0968 1.75466 5.97388 0.5
860 0.585744 13.1513 6.02507 0.5
861 3.33062 6.9779 1.54223 0.5
862 13.5284 10.444 7.27675 0.5
863 6.4492 5.40856 0.0413298 0.5
864 9.70993 5.75457 7.13882 0.5
865 8.6093 2.25958 0.254178 0.5
866 4.49007 9.57518 11.8594 0.5
867 2.71223 7.96872 7.70991 0.5
868 6.66125 12.592 5.77382 0.5
869 12.5848 13.4789 13.4382 0.5
870 6.15076 3.41667 10.8975 0.5
871 1.34774 11.0213 6.19048 0.5
872 8.77545 5.3645 7.65946 0.5
873 6.15948 12.776 9.28849 0.5
874 3.11811 12.948 8.98693 0.5
875 0.438748 1.08715 5.81085 0.5
876 10.2544 1.88661 10.0159 0.5
877 2.38721 7.14134 2.11777 0.5
878 10.8188 2.50192 6.15506 0.5
879 10.4901 2.19814 1.47318 0.5
880 1.48727 6.09352 10.2035 0.5
881 5.30282 12.8788 8.19202 0.5
882 9.13972 9.82258 6.93721 0.5
883 3.9832 4.72618 3.71052 0.5
884 2.24097 6.0507 10.181 0.5
885 8.81119 7.0239 4.21894 0.5
886 10.9392 3.1621 2.77464 0.5
887 10.1663 9.81684 6.51151 0.5
888 7.13812 12.5002 9.42921 0.5
889 5.13409 9.8712 6.82924 0.5
890 1.91881 9.75125 1.76995 0.5
891 4.09693 9.47787 6.8524 0.5
892 0.160831 4.31208 6.80091 0.5
893 6.5964 11.6462 1.27953 0.5
894 11.6827 13.2238 2.57722 0.5
895 5.20637 10.3701 2.14925 0.5
896 6.86332 0.728137 8.50613 0.5
897 13.2956 1.9854 12.8986 0.5
898 4.13975 8.18402 6.22762 0.5
899 10.6189 1.19892 10.8844 0.5
900 6.68801 9.44135 6.62535 0.5
901 4.16156 10.4612 5.66617 0.5
902 0.389342 4.22346 12.9672 0.5
903 2.00415 8.05795 4.95492 0.5
904 1.96497 12.3284 0.502913 0.5
905 6.92605 8.32971 2.2821 0.5
906 4.02879 10.672 7.32216 0.5
907 12.9612 5.86654 12.2785 0.5
908 2.47251 11.0456 5.77817 0.5
909 12.678 11.8774 10.2891 0.5
910 12.6826 1.20556 10.8308 0.5
911 11.4796 8.40647 11.6231 0.5
912 9.11926 5.25937 4.44115 0.5
913 11.0354 3.59957 7.80992 0.5
914 12.5424 4.65051 12.5803 0.5
915 9.47185 4.79899 13.1447 0.5
916 2.01701 9.29709 5.29537 0.5
917 5.85706 11.4079 11.0828 0.5
918 11.9598 7.38917 11.6473 0.5
919 6.75947 2.00031 8.44041 0.5
920 7.56358 7.94245 5.44996 0.5
921 10.6286 5.95731 0.2272 0.5
922 11.7282 6.70592 9.79067 0.5
923 4.36036 1.08542 12.5609 0.5
924 0.273569 11.0946 0.882958 0.5
925 12.3865 10.1685 1.35846 0.5
926 6.00938 0.709386 11.6116 0.5
927 4.4605 6.25046 10.0576 0.5
928 3.8096 4.3524 9.37066 0.5
929 11.2521 6.98732 9.71862 0.5
930 11.6725 1.50545 13.5162 0.5
931 7.71574 7.96663 10.7622 0.5
932 7.25539 11.266 11.7853 0.5
933 13.5709 1.46429 13.4491 0.5
934 0.953938 2.50528 5.8102 0.5
935 6.51577 13.4792 1.1902 0.5