ITEM: TIMESTEP
480000
ITEM: NUMBER OF ATOMS
1000
ITEM: BOX BOUNDS xy xz yz pp pp pp
0.0000000000000000e+00 1.3572088000000001e+01 0.0000000000000000e+00
0.0000000000000000e+00 1.3572088000000001e+01 0.0000000000000000e+00
0.0000000000000000e+00 1.3572088000000001e+01 0.0000000000000000e+00
ITEM: ATOMS id x y z radius
1 4.9578 6.72307 10.655 0.5
2 1.53233 5.262 6.01398 0.5
3 11.2291 0.383195 5.21573 0.5
4 1.90434 5.02307 4.59332 0.5
5 12.7874 6.39111 11.1001 0.5
6 7.93361 11.7074 3.99905 0.5
7 3.73556 11.1192 10.206 0.5
8 5.18649 7.34252 7.53542 0.5
9 1.29996 1.61419 7.43734 0.5
10 1.4671 8.78599 9.96362 0.5
11 8.4289 6.37787 12.4095 0.5
12 11.7051 1.4805 5.4958 0.5
13 6.51516 5.9588 1.75652 0.5
14 12.3344 4.21592 6.10433 0.5
15 11.2365 12.5604 0.298658 0.5
16 12.0557 6.3545 1.07332 0.5
17 8.79619 9.07318 4.20446 0.5
18 7.18608 6.86953 9.86081 0.5
19 3.33267 10.9031 0.944829 0.5
20 13.2023 6.76707 5.37431 0.5
21 11.4679 9.36759 11.8997 0.5
22 6.12167 9.92527 6.89633 0.5
23 0.368821 2.41277 10.8826 0.5
24 9.15174 13.3928 4.70998 0.5
25 12.5796 4.35579 5.21611 0.5
26 11.8305 12.752 5.8729 0.5
27 1.0467 12.822 11.7209 0.5
28 8.84731 10.9431 12.6149 0.5
29 1.64634 13.4577 3.14813 0.5
30 4.49497 9.91817 1.69949 0.5
31 9.25305 9.39857 13.4331 0.5
32 11.1421 3.86303 0.127346 0.5
33 4.68384 1.17376 7.77602 0.5
34 6.992 0.139216 1.65976 0.5
35 12.7399 7.86739 8.25685 0.5
36 3.90254 1.51873 10.8748 0.5
37 4.19116 0.97925 1.17953 0.5
38 1.8727 3.03607 0.539398 0.5
39 7.99723 10.9936 0.00295946 0.5
40 4.88049 8.97035 8.52382 0.5
41 9.8325 3.32023 13.4063 0.5
42 11.6321 8.25994 4.49197 0.5
43 8.99199 0.532779 10.1495 0.5
44 8.18124 11.8735 9.59488 0.5
45 6.45192 12.2596 10.0289 0.5
46 11.911 4.78157 7.11909 0.5
47 12.392 0.839996 11.9302 0.5
48 11.9026 13.4307 7.30507 0.5
49 7.08629 3.97105 2.23795 0.5
50 10.7309 7.88921 0.626745 0.5
51 3.05841 0.324424 10.0743 0.5
52 4.8222 2.58315 11.0373 0.5
53 1.12264 13.4719 0.625589 0.5
54 6.25792 12.4796 0.836174 0.5
55 1.53522 12.9986 11.0272 0.5
56 1.4207 8.6738 2.50441 0.5
57 1.32087 1.56106 10.3088 0.5
58 2.74892 6.17549 12.3295 0.5
59 7.3001 3.38278 4.14025 0.5
60 12.9958 7.51833 12.6576 0.5
61 4.77551 7.66884 8.96933 0.5
62 12.1237 1.33087 12.9078 0.5
63 7.64265 2.16103 8.05335 0.5
64 5.29392 4.02609 1.39399 0.5
65 11.4111 1.90577 3.79031 0.5
66 10.2242 0.148482 8.60853 0.5
67 6.958 0.512333 3.71675 0.5
68 1.7298 4.36636 2.41413 0.5
69 7.9798 10.7286 8.66007 0.5
70 3.20576 13.3674 2.05308 0.5
71 8.00403 8.53374 8.6036 0.5
72 9.06322 6.38343 7.93305 0.5
73 5.96588 10.2448 8.95487 0.5
74 5.37016 3.61146 12.1489 0.5
75 6.97248 3.52557 4.0323 0.5
76 7.75655 13.4095 11.1857 0.5
77 0.452883 0.291892 0.601072 0.5
78 6.52436 4.09914 3.5732 0.5
79 10.7699 4.12348 0.430796 0.5
80 4.844 1.98442 13.4221 0.5
81 7.619 4.56051 5.56095 0.5
82 1.56413 3.33041 0.629405 0.5
83 5.64788 4.83893 7.17887 0.5
84 8.72031 8.04323 10.8318 0.5
85 7.93169 3.0848 12.6084 0.5
86 6.05648 7.99152 1.18226 0.5
87 3.87372 1.42663 11.685 0.5
88 0.517646 12.5618 3.70458 0.5
89 4.57406 5.17434 9.77182 0.5
90 7.60743 0.60596 1.74071 0.5
91 10.3101 8.5701 5.30739 0.5
92 9.10685 5.90153 1.07136 0.5
93 12.1345 11.7123 13.2705 0.5
94 2.90241 11.3146 3.23933 0.5
95 4.58707 10.9675 2.74706 0.5
96 11.8265 10.2067 1.79434 0.5
97 7.7067 0.611896 4.59227 0.5
98 11.8867 7.39104 5.79821 0.5
99 10.7053 12.1857 9.04503 0.5
100 4.06067 6.88252 5.26967 0.5
101 2.24064 11.2186 3.81338 0.5
102 10.2423 5.64758 1.76638 0.5
103 12.3702 0.855505 0.915676 0.5
104 7.02473 7.40072 12.6837 0.5
105 13.1594 8.54116 1.53063 0.5
106 4.90689 5.53523 5.5768 0.5
107 11.5084 11.667 0.799355 0.5
108 7.42413 12.6539 10.2256 0.5
109 12.8359 10.1658 2.57618 0.5
110 9.39278 10.6744 6.2646 0.5
111 7.10842 2.67453 9.42022 0.5
112 6.22142 4.71031 12.2013 0.5
113 11.6449 5.75242 0.615823 0.5
114 8.75548 8.80037 12.692 0.5
115 4.98106 0.0895326 7.63694 0.5
116 4.38642 8.90531 10.463 0.5
117 8.4127 3.37315 11.2582 0.5
118 1.44267 5.03883 8.71169 0.5
119 10.4726 4.43697 7.77092 0.5
120 0.739797 9.20634 3.52505 0.5
121 7.86331 8.20617 11.3279 0.5
122 7.72193 0.439542 10.1432 0.5
123 8.08844 5.55426 6.60535 0.5
124 4.77788 9.69381 6.77251 0.5
125 4.61554 5.49771 5.81373 0.5
126 6.62431 6.27737 1.41225 0.5
127 4.98757 5.6634 13.4742 0.5
128 3.92683 2.78016 8.57326 0.5
129 2.45573 5.05543 4.97759 0.5
130 8.01527 10.557 11.5196 0.5
131 12.967 6.10699 9.79914 0.5
132 12.7441 11.9953 0.063722 0.5
133 7.32671 10.8845 3.72606 0.5
134 8.7966 2.3193 8.86411 0.5
135 10.5596 0.259027 5.69746 0.5
136 2.55935 9.8446 4.41288 0.5
137 4.22434 5.98308 2.43838 0.5
138 2.56107 11.7201 2.90354 0.5
139 3.86729 3.82777 4.23249 0.5
140 1.62646 5.37864 11.1075 0.5
141 8.04058 6.55927 0.56843 0.5
142 0.973207 4.03195 10.0914 0.5
143 9.57829 7.50235 12.155 0.5
144 13.2607 6.61244 6.73476 0.5
145 0.682208 3.77695 9.75203 0.5
146 7.89708 1.37546 5.48835 0.5
147 7.15598 12.8162 9.39265 0.5
148 9.50443 8.74614 12.9193 0.5
149 7.87689 6.89777 3.71912 0.5
150 1.39267 7.63637 1.43626 0.5
151 2.31536 8.59191 2.3095 0.5
152 8.74269 6.36023 6.90619 0.5
153 5.08516 4.56411 3.79908 0.5
154 11.0129 10.4113 8.20629 0.5
155 12.6463 9.31543 6.88468 0.5
156 3.07453 1.76645 9.00244 0.5
157 12.9799 3.59329 3.88438 0.5
158 5.35462 11.7086 2.19454 0.5
159 2.40975 8.65852 5.90201 0.5
160 10.1831 8.07538 9.58672 0.5
161 10.213 9.16732 6.99541 0.5
162 12.2184 11.6437 10.165 0.5
163 1.65212 13.5701 1.42303 0.5
164 3.73158 1.05279 1.69178 0.5
165 2.96866 13.2642 13.3446 0.5
166 12.8776 11.3361 4.15694 0.5
167 7.26684 4.11789 1.87441 0.5
168 5.00057 4.98579 9.42966 0.5
169 10.3758 10.3398 1.74677 0.5
170 0.269195 1.11022 11.752 0.5
171 2.04674 10.5569 2.08715 0.5
172 13.0251 6.25041 3.00328 0.5
173 10.354 8.7479 8.80062 0.5
174 3.71762 0.385054 6.54903 0.5
175 11.5586 8.74454 3.48125 0.5
176 5.58914 12.9108 12.0057 0.5
177 10.158 11.3811 7.01456 0.5
178 12.3232 1.63239 7.54083 0.5
179 2.54789 11.0301 13.0448 0.5
180 0.448756 5.37539 3.98015 0.5
181 6.64743 9.85469 6.11343 0.5
182 12.6903 8.16886 10.8554 0.5
183 0.283898 11.882 3.95996 0.5
184 9.25954 1.94138 2.45607 0.5
185 9.96987 3.73744 1.21989 0.5
186 2.04977 4.99406 0.428655 0.5
187 8.38288 6.12319 11.1301 0.5
188 5.59627 4.87709 1.21926 0.5
189 11.863 5.19797 0.0181649 0.5
190 7.49012 9.86119 2.88522 0.5
191 1.99939 7.52066 10.3894 0.5
192 13.4006 6.6976 8.73842 0.5
193 8.00658 8.26307 10.2411 0.5
194 11.6006 13.4541 13.1201 0.5
195 0.920936 2.02454 2.43519 0.5
196 9.21432 3.37385 4.79208 0.5
197 13.269 6.78289 10.458 0.5
198 11.6348 3.29421 5.8115 0.5
199 3.12397 6.39488 5.09894 0.5
200 12.1108 4.6362 3.38673 0.5
201 12.4127 9.66792 6.67336 0.5
202 9.77811 4.64942 9.45255 0.5
203 5.26197 6.84737 5.35224 0.5
204 11.5027 7.55385 0.78799 0.5
205 3.52831 9.96963 12.4538 0.5
206 7.0963 2.7809 8.01958 0.5
207 1.21167 9.15341 5.44983 0.5
208 7.14227 6.12648 11.1906 0.5
209 12.35 6.19926 13.4568 0.5
210 8.02104 12.7375 6.36583 0.5
211 9.97472 9.69282 6.78398 0.5
212 6.23668 10.0095 9.19968 0.5
213 5.79312 12.9278 3.97059 0.5
214 1.0423 13.1626 11.0432 0.5
215 12.0468 13.2271 8.4097 0.5
216 12.3373 4.87649 1.39846 0.5
217 11.32 0.478675 2.10519 0.5
218 7.74344 1.66274 11.7009 0.5
219 2.17674 8.83897 3.24071 0.5
220 1.12054 0.384418 4.29559 0.5
221 12.7528 0.0929842 9.34378 0.5
222 2.13036 6.68887 7.21314 0.5
223 10.0075 10.9394 7.52649 0.5
224 6.17203 5.03905 0.0538417 0.5
225 3.75617 2.79464 7.71993 0.5
226 4.41854 3.41157 5.41858 0.5
227 8.96523 9.74235 11.497 0.5
228 9.643 9.01716 0.724307 0.5
229 9.10019 10.3225 13.2263 0.5
230 10.1115 5.752 0.0479987 0.5
231 2.12861 5.39702 8.77032 0.5
232 9.21605 0.472507 8.60729 0.5
233 3.0726 10.334 5.57873 0.5
234 11.1656 4.43109 3.23115 0.5
235 10.2412 7.05445 1.08133 0.5
236 6.3102 8.69107 0.244722 0.5
237 8.58907 11.091 1.32601 0.5
238 8.99934 11.3568 6.05628 0.5
239 1.26935 9.72624 12.4537 0.5
240 11.4112 8.30631 1.05621 0.5
241 11.9257 8.69504 5.88644 0.5
242 9.02828 2.59521 7.80028 0.5
243 8.88443 1.33441 5.34601 0.5
244 2.90802 11.3223 11.9906 0.5
245 10.4062 5.96682 5.45587 0.5
246 4.24194 2.03851 3.78629 0.5
247 12.48 11.6554 2.51746 0.5
248 7.11066 3.14273 0.72341 0.5
249 2.82157 5.21752 8.26091 0.5
250 3.66884 2.0958 6.53566 0.5
251 2.40657 6.57921 10.0323 0.5
252 7.33336 0.255233 10.9526 0.5
253 0.346286 13.1708 5.04472 0.5
254 12.9387 10.8762 11.167 0.5
255 7.93416 9.91199 13.3517 0.5
256 5.19097 5.60371 12.2542 0.5
257 6.19139 8.60595 12.7664 0.5
258 8.24863 8.15472 0.410272 0.5
259 9.55484 0.665508 12.6277 0.5
260 8.29165 11.1303 11.9663 0.5
261 8.093 0.833789 11.79 0.5
262 7.92567 12.4107 2.39601 0.5
263 2.21277 6.0174 1.15938 0.5
264 0.368607 3.92365 2.47814 0.5
265 3.69002 2.65677 6.77892 0.5
266 6.44778 0.0700328 4.56004 0.5
267 3.61132 3.27215 8.40069 0.5
268 13.5045 7.69208 12.102 0.5
269 3.69545 8.05489 1.57832 0.5
270 11.995 9.88312 6.87648 0.5
271 8.26261 3.33003 8.36485 0.5
272 9.62129 1.04417 1.58049 0.5
273 3.3407 1.78294 7.9775 0.5
274 5.47882 10.4834 11.5486 0.5
275 9.40057 11.1976 10.9812 0.5
276 1.72076 0.270185 8.50783 0.5
277 9.3114 8.6305 0.915284 0.5
278 7.7801 12.5184 9.68202 0.5
279 4.27146 3.5481 11.5126 0.5
280 8.44912 1.66276 4.69896 0.5
281 8.53874 4.87001 9.81518 0.5
282 0.940727 10.8739 5.4904 0.5
283 8.71733 10.8585 0.119307 0.5
284 3.72372 9.50791 7.8402 0.5
285 5.8737 9.7426 10.8618 0.5
286 11.2117 9.22856 11.1311 0.5
287 11.0495 11.9886 4.15107 0.5
288 10.5946 9.51897 10.5512 0.5
289 9.18792 2.69411 5.42344 0.5
290 0.869706 13.3555 5.37032 0.5
291 1.00062 5.76405 1.85756 0.5
292 3.77008 2.27169 7.73703 0.5
293 7.26357 1.59332 11.1766 0.5
294 0.629621 5.03915 10.2885 0.5
295 10.7259 1.96021 13.3926 0.5
296 13.2313 11.6663 10.9476 0.5
297 3.46304 5.87084 8.16435 0.5
298 1.34777 5.41614 6.89899 0.5
299 1.89274 9.74378 8.27579 0.5
300 11.5603 3.88094 2.37467 0.5
301 4.02746 9.27898 4.56727 0.5
302 1.34238 0.598329 12.2514 0.5
303 11.1433 7.39322 3.84709 0.5
304 6.41851 9.71955 8.97822 0.5
305 1.99868 0.63431 6.79193 0.5
306 8.07517 9.14248 12.0965 0.5
307 6.66922 11.8164 0.493045 0.5
308 3.84161 8.99698 2.53013 0.5
309 6.59969 7.57666 11.0538 0.5
310 1.54054 8.67592 10.2079 0.5
311 7.23445 4.02385 0.241803 0.5
312 12.305 6.46804 11.3791 0.5
313 3.49534 7.50906 8.91355 0.5
314 11.1882 11.8449 0.15442 0.5
315 8.31349 11.1746 5.34558 0.5
316 1.16884 8.29195 0.126705 0.5
317 7.76551 7.56503 5.52079 0.5
318 8.91612 6.4187 11.2705 0.5
319 5.04333 3.75701 2.15356 0.5
320 6.21804 0.0832449 1.00917 0.5
321 6.785 1.51037 10.7555 0.5
322 11.2088 3.47282 5.96323 0.5
323 5.86253 0.129656 0.15786 0.5
324 3.57419 1.91591 8.40373 0.5
325 5.22707 7.2628 5.42414 0.5
326 11.0161 10.4029 13.5196 0.5
327 1.08397 13.0905 3.52461 0.5
328 2.53978 9.08291 10.3418 0.5
329 6.74276 7.79001 5.16583 0.5
330 9.03155 3.19698 7.9843 0.5
331 8.65242 1.96267 1.16154 0.5
332 4.02717 0.232803 12.4887 0.5
333 13.0857 13.0535 8.49495 0.5
334 3.02789 10.6074 8.81309 0.5
335 12.4814 6.48259 4.12877 0.5
336 4.1431 5.68199 3.91927 0.5
337 3.00555 3.67129 7.57681 0.5
338 11.4402 3.70961 3.10807 0.5
339 0.72356 1.19572 7.86215 0.5
340 7.02997 12.8796 11.0363 0.5
341 10.4323 2.73513 4.37094 0.5
342 12.8722 0.921063 9.19344 0.5
343 5.71542 8.87267 5.51217 0.5
344 7.27083 2.05624 0.766764 0.5
345 3.88742 11.2665 0.0225993 0.5
346 4.60571 1.02934 4.30121 0.5
347 2.10875 13.5394 8.10605 0.5
348 6.79412 1.62965 6.35291 0.5
349 1.35265 5.4191 0.0665477 0.5
350 6.53419 12.7514 12.9983 0.5
351 7.6169 3.60412 11.7833 0.5
352 2.74237 0.528437 2.74978 0.5
353 9.90496 7.38156 9.9954 0.5
354 8.30468 9.60674 4.70946 0.5
355 8.65167 11.7209 1.89309 0.5
356 3.25774 11.8456 3.63249 0.5
357 2.7122 4.66097 13.3798 0.5
358 6.45586 3.35461 7.28934 0.5
359 0.783954 13.2584 0.644132 0.5
360 0.803183 0.00161179 12.9938 0.5
361 6.91695 0.896092 5.90266 0.5
362 4.9694 8.02375 12.3727 0.5
363 6.52269 1.01906 6.04319 0.5
364 9.78424 11.1518 10.8134 0.5
365 10.2848 6.84795 11.9641 0.5
366 6.63926 10.4229 2.93189 0.5
367 3.30744 13.2446 13.0068 0.5
368 9.98739 4.54505 9.12028 0.5
369 11.284 8.15454 5.61914 0.5
370 8.04953 2.8613 6.97461 0.5
371 5.4596 5.9934 10.8542 0.5
372 13.1541 3.6017 11.3639 0.5
373 1.20391 6.45967 0.0305434 0.5
374 6.24427 8.98889 9.05171 0.5
375 12.811 9.06962 8.20971 0.5
376 9.1742 2.30803 12.6886 0.5
377 9.84466 9.41169 11.3068 0.5
378 4.29747 10.3646 10.3019 0.5
379 9.28048 11.6412 8.57539 0.5
380 7.08539 8.42981 2.75418 0.5
381 12.3762 2.01511 10.8965 0.5
382 0.161975 4.02971 3.62342 0.5
383 0.881393 11.063 11.8782 0.5
384 1.92183 1.83311 5.93403 0.5
385 6.51882 12.0967 8.12128 0.5
386 6.37573 7.59911 5.97116 0.5
387 0.688258 7.59857 5.80049 0.5
388 5.52549 1.47866 3.9752 0.5
389 4.22637 3.63295 0.230699 0.5
390 4.84751 9.01676 2.69991 0.5
391 10.0833 12.5701 8.28156 0.5
392 8.30698 6.01694 4.23305 0.5
393 3.73309 9.63492 7.37599 0.5
394 3.30385 9.01331 1.77631 0.5
395 0.916431 8.18761 2.0108 0.5
396 3.44506 6.89425 10.121 0.5
397 8.95908 4.71497 5.33604 0.5
398 6.25703 1.05002 11.0433 0.5
399 5.64298 5.98792 4.84587 0.5
400 13.3117 6.79773 12.1863 0.5
401 0.39205 9.31435 0.355194 0.5
402 5.11314 10.8697 1.25951 0.5
403 7.39848 5.49107 2.34758 0.5
404 0.818501 2.69008 12.7742 0.5
405 10.9534 7.74732 2.22998 0.5
406 10.8011 6.86122 4.0462 0.5
407 11.7008 6.14011 0.929715 0.5
408 0.503276 11.0657 1.19402 0.5
409 5.64602 4.46872 3.23337 0.5
410 3.42873 0.838618 13.0793 0.5
411 0.59111 6.68415 1.7613 0.5
412 4.40668 9.61678 10.6246 0.5
413 8.62582 6.48377 5.86796 0.5
414 8.9869 7.47001 2.33037 0.5
415 9.59046 5.14818 3.30062 0.5
416 7.75683 11.4725 3.3882 0.5
417 12.8154 8.21511 0.471044 0.5
418 6.36282 10.7898 1.47984 0.5
419 7.46513 6.1458 3.85478 0.5
420 13.2523 7.75478 5.63253 0.5
421 11.1323 7.58984 11.526 0.5
422 11.423 11.6888 12.5222 0.5
423 9.82192 2.00924 5.15575 0.5
424 12.7599 10.0014 11.0094 0.5
425 9.36755 6.36221 7.24858 0.5
426 3.59471 10.8184 1.17672 0.5
427 13.4487 2.38739 1.62096 0.5
428 9.80404 4.71053 4.82801 0.5
429 9.45784 11.8946 9.37401 0.5
430 7.73047 2.63582 11.5997 0.5
431 8.63791 6.16484 7.43046 0.5
432 12.1121 2.99522 7.92501 0.5
433 5.11652 5.12448 1.90552 0.5
434 3.20343 7.72552 10.4254 0.5
435 4.39016 10.5156 9.70171 0.5
436 0.45334 9.92413 2.86045 0.5
437 2.51379 0.461219 8.49756 0.5
438 2.57132 5.57837 6.91872 0.5
439 11.3709 2.14248 9.326 0.5
440 9.99477 2.99677 4.33036 0.5
441 5.50841 7.39361 2.52801 0.5
442 7.88447 7.40081 12.3805 0.5
443 1.64327 5.0991 2.46434 0.5
444 0.238527 12.0997 7.66999 0.5
445 1.83728 7.087 2.22754 0.5
446 9.02152 6.909 2.54715 0.5
447 6.6649 3.66987 9.80685 0.5
448 9.51367 2.46084 12.1352 0.5
449 9.93648 7.58713 11.9066 0.5
450 1.63099 8.03757 5.57344 0.5
451 1.09927 13.2271 4.71758 0.5
452 1.65098 1.27756 7.98249 0.5
453 10.6175 3.07649 6.46355 0.5
454 9.91604 1.84089 4.5322 0.5
455 10.7821 12.0512 0.619779 0.5
456 7.29092 8.4469 7.44234 0.5
457 10.6592 9.71099 4.31527 0.5
458 11.1034 9.9423 4.81568 0.5
459 0.674742 12.8994 7.8368 0.5
460 10.6884 8.62359 4.73557 0.5
461 4.21115 1.05106 2.13624 0.5
462 4.50302 1.07932 1.42171 0.5
463 1.00173 5.60056 3.92507 0.5
464 3.4952 1.85197 4.01411 0.5
465 3.90862 1.70221 7.01776 0.5
466 3.76203 2.38669 7.97401 0.5
467 6.44052 7.35018 2.15038 0.5
468 5.68119 3.78348 8.47024 0.5
469 9.59399 8.50479 2.84241 0.5
470 6.26914 7.52713 2.54036 0.5
471 0.548094 9.05272 3.89308 0.5
472 0.0588469 10.7873 6.87681 0.5
473 10.1079 4.27624 6.81602 0.5
474 10.7533 10.2713 7.85961 0.5
475 5.2152 1.43436 7.96097 0.5
476 11.521 7.06454 11.3004 0.5
477 5.63643 13.4065 6.10788 0.5
478 7.33618 4.1545 6.965 0.5
479 10.5117 11.1104 3.83501 0.5
480 7.50955 3.93293 10.5802 0.5
481 6.9566 7.43175 4.46969 0.5
482 9.42542 8.62808 9.94273 0.5
483 3.22762 4.41501 0.790842 0.5
484 9.1424 10.4649 4.05085 0.5
485 8.154 12.1454 12.3641 0.5
486 5.64553 2.65532 7.83416 0.5
487 9.82534 11.2282 10.4343 0.5
488 1.67823 5.4221 3.27416 0.5
489 4.6849 11.5667 6.14287 0.5
490 2.63423 4.32507 8.97181 0.5
491 8.96366 11.7024 7.5821 0.5
492 7.38795 10.6322 0.748472 0.5
493 1.50344 7.82691 12.742 0.5
494 1.77102 4.63821 0.971837 0.5
495 6.17137 5.692 6.21545 0.5
496 2.1503 5.44593 13.5387 0.5
497 4.40016 2.22872 4.42191 0.5
498 7.31147 11.9882 10.7344 0.5
499 6.84995 4.80702 12.14 0.5
500 3.4891 6.79326 9.93538 0.5
501 5.30727 0.358736 2.33858 0.5
502 6.61389 13.1502 8.54837 0.5
503 4.44507 0.808645 6.70207 0.5
504 7.95954 2.11146 5.80252 0.5
505 3.04935 9.3757 9.03622 0.5
506 9.46462 10.3691 12.6397 0.5
507 3.3777 4.87695 8.99979 0.5
508 11.835 10.0491 8.48951 0.5
509 10.6126 7.47942 8.82897 0.5
510 8.0444 2.64372 5.73904 0.5
511 9.87786 12.189 8.9105 0.5
512 0.0337251 9.39021 4.50187 0.5
513 12.5496 0.215028 8.08758 0.5
514 6.02573 0.503207 6.98961 0.5
515 0.195026 0.268457 4.3895 0.5
516 1.17605 2.19792 9.63162 0.5
517 3.93698 7.97192 7.58327 0.5
518 7.64964 1.79001 9.53557 0.5
519 5.84589 11.44 1.89024 0.5
520 5.95512 0.208836 0.271984 0.5
521 9.83823 12.4973 9.7449 0.5
522 6.01412 10.6275 1.5282 0.5
523 13.3668 12.4638 9.7782 0.5
524 11.3647 0.655536 7.27845 0.5
525 6.58329 11.593 5.75167 0.5
526 12.8596 9.09534 9.14295 0.5
527 9.3778 6.11718 8.68344 0.5
528 8.43479 11.2036 10.6908 0.5
529 13.5609 10.9877 12.6473 0.5
530 11.8544 7.84839 12.2376 0.5
531 0.425493 7.21291 12.5341 0.5
532 8.91145 8.73294 8.65242 0.5
533 4.41862 10.9404 3.19412 0.5
534 5.23182 11.0541 7.18924 0.5
535 5.83131 12.1381 6.31701 0.5
536 11.7045 0.666713 10.8191 0.5
537 3.99885 8.514 3.42423 0.5
538 11.1748 5.23766 13.1604 0.5
539 3.16149 2.99638 12.8165 0.5
540 3.85192 3.17005 11.9674 0.5
541 8.00486 7.10105 1.30966 0.5
542 6.36104 1.17008 5.66158 0.5
543 7.64681 10.4593 10.6059 0.5
544 2.01001 2.96464 2.15755 0.5
545 11.5537 1.79309 4.75997 0.5
546 5.41935 2.58786 13.2521 0.5
547 12.8043 10.2302 3.22989 0.5
548 5.28976 4.57993 2.71713 0.5
549 2.28673 13.2033 13.0272 0.5
550 5.46378 8.39088 10.3425 0.5
551 5.42317 8.67765 6.93962 0.5
552 9.27835 1.21473 0.161213 0.5
553 12.8347 0.755369 3.64647 0.5
554 7.65221 8.33208 5.61799 0.5
555 8.67706 13.1013 8.22859 0.5
556 3.07547 0.633496 12.0639 0.5
557 4.21108 5.34965 3.61126 0.5
558 6.77814 11.5355 12.3345 0.5
559 9.8619 10.5738 4.76631 0.5
560 0.461243 6.40183 1.13849 0.5
561 12.8245 2.44079 8.23965 0.5
562 8.58355 12.3233 4.88632 0.5
563 5.64522 6.53009 4.25112 0.5
564 8.26448 12.2593 1.48463 0.5
565 11.4305 8.5718 11.0157 0.5
566 6.90948 1.14966 9.49438 0.5
567 4.81098 2.87731 8.7303 0.5
568 12.5662 10.846 5.99597 0.5
569 4.80876 1.56902 9.31675 0.5
570 6.60521 7.37545 0.68387 0.5
571 6.64745 2.27645 0.927152 0.5
572 7.80524 11.3194 0.830552 0.5
573 8.9342 0.473177 6.61975 0.5
574 4.64757 11.8133 11.5777 0.5
575 8.40508 3.59074 7.33973 0.5
576 11.6524 12.9629 5.61338 0.5
577 12.7712 4.14253 12.4414 0.5
578 5.68645 12.2428 3.69122 0.5
579 5.6464 11.8115 1.24298 0.5
580 11.773 12.4083 4.10303 0.5
581 3.45526 10.9434 12.0765 0.5
582 7.48941 7.51762 9.58853 0.5
583 11.6166 1.54087 8.08835 0.5
584 2.1859 0.313484 10.2148 0.5
585 9.69076 5.3917 0.576179 0.5
586 8.64427 12.2962 4.38739 0.5
587 10.681 4.39203 2.30922 0.5
588 3.90643 3.97432 9.97224 0.5
589 3.48013 5.95899 11.8475 0.5
590 8.77776 2.58919 8.71932 0.5
591 11.6599 0.385072 10.103 0.5
592 10.6656 7.10706 11.3289 0.5
593 4.3955 3.90934 6.85349 0.5
594 7.55001 2.66789 2.67293 0.5
595 0.394666 5.88533 9.43528 0.5
596 12.4228 7.65216 11.8919 0.5
597 5.54137 5.42346 5.66894 0.5
598 13.3347 13.2912 10.7331 0.5
599 4.55806 3.53304 5.36542 0.5
600 12.2986 10.3909 10.3594 0.5
601 2.83081 1.93328 0.795304 0.5
602 10.0015 6.03702 7.44643 0.5
603 12.6604 7.76587 7.45319 0.5
604 3.25347 3.16201 13.1873 0.5
605 7.15683 7.86003 12.7773 0.5
606 12.7442 4.7478 13.132 0.5
607 1.31206 3.38807 9.9374 0.5
608 9.64092 8.81377 11.0677 0.5
609 11.6673 6.13382 4.8191 0.5
610 0.19373 6.33669 7.01768 0.5
611 0.182243 2.15223 11.1638 0.5
612 2.50362 6.43887 5.88267 0.5
613 11.3703 9.85514 7.34493 0.5
614 7.5239 9.09366 1.93021 0.5
615 0.724819 10.9945 12.0682 0.5
616 0.862295 6.46676 4.1616 0.5
617 3.9156 10.0173 3.65224 0.5
618 10.7681 4.10265 1.96785 0.5
619 4.31719 6.33667 12.245 0.5
620 11.361 8.19409 9.32366 0.5
621 2.18122 6.20545 10.5904 0.5
622 6.14795 3.05022 7.36469 0.5
623 2.96981 1.86141 6.07003 0.5
624 9.19136 6.30306 2.24809 0.5
625 0.296151 8.20465 6.352 0.5
626 3.50362 5.39437 13.1221 0.5
627 4.1069 4.24848 5.39684 0.5
628 8.42969 11.7383 0.967333 0.5
629 4.17634 7.27732 1.15087 0.5
630 2.92104 5.74511 10.5175 0.5
631 6.95787 4.09193 8.95183 0.5
632 6.17844 11.806 2.86581 0.5
633 12.1562 8.54956 0.00969597 0.5
634 6.70511 9.07389 8.03277 0.5
635 3.74362 10.4561 5.86346 0.5
636 5.21927 11.643 12.9753 0.5
637 2.4404 6.86175 10.7684 0.5
638 2.8098 7.18797 12.5279 0.5
639 0.640772 7.85235 9.49236 0.5
640 6.47993 7.56446 11.3545 0.5
641 0.101889 9.98731 10.3296 0.5
642 11.4948 1.38735 0.150417 0.5
643 6.00364 7.64336 13.2027 0.5
644 0.597996 0.289452 12.9918 0.5
645 6.59617 6.73677 8.47371 0.5
646 1.49575 8.57617 9.45153 0.5
647 12.0232 12.0637 11.4429 0.5
648 9.50875 5.89907 0.614874 0.5
649 10.0394 11.7581 7.83461 0.5
650 7.81668 11.864 10.9646 0.5
651 7.71011 7.22993 5.80779 0.5
652 7.59465 10.6314 8.79937 0.5
653 7.17461 9.97267 8.6171 0.5
654 2.42998 1.34458 2.07207 0.5
655 13.0889 13.47 12.7901 0.5
656 5.54583 8.66542 5.34996 0.5
657 9.49548 5.05789 4.81281 0.5
658 12.5294 2.90532 7.98121 0.5
659 11.8564 2.98638 11.8855 0.5
660 12.774 10.1748 10.1157 0.5
661 8.34528 5.46094 0.556342 0.5
662 6.39743 11.7817 5.10317 0.5
663 0.123096 5.66063 6.41098 0.5
664 0.0287443 7.54692 3.79019 0.5
665 12.6522 10.7233 7.9789 0.5
666 7.78689 7.37046 5.74125 0.5
667 7.29757 11.5458 9.45955 0.5
668 11.3672 9.5585 6.64203 0.5
669 1.6278 12.3734 13.1531 0.5
670 10.1725 11.546 10.3593 0.5
671 0.142791 7.70737 3.50045 0.5
672 3.8586 2.92306 1.75001 0.5
673 12.6496 4.89289 4.69433 0.5
674 12.9338 3.09895 5.44675 0.5
675 10.5474 2.91854 6.44765 0.5
676 5.731 5.01602 3.86993 0.5
677 0.183568 10.7846 0.774343 0.5
678 3.08281 0.0677709 10.5693 0.5
679 6.54555 8.17951 0.814126 0.5
680 3.74861 12.5426 3.23529 0.5
681 9.37964 5.1912 8.30417 0.5
682 5.4717 8.58279 6.01057 0.5
683 10.3084 0.327792 9.94113 0.5
684 11.0484 12.3862 3.55745 0.5
685 3.21687 1.42029 3.68564 0.5
686 1.93823 5.49329 2.50692 0.5
687 8.09586 7.90308 3.03701 0.5
688 10.8343 0.534573 9.67689 0.5
689 1.60917 3.74449 6.41397 0.5
690 13.2842 6.86204 9.39214 0.5
691 3.78846 8.72546 4.05085 0.5
692 12.4959 5.95035 9.66623 0.5
693 8.09291 3.55456 4.29977 0.5
694 6.02066 4.9249 8.94941 0.5
695 9.08056 12.0369 12.6829 0.5
696 11.9898 6.49429 5.39761 0.5
697 12.0545 10.2841 10.4915 0.5
698 7.25778 3.11795 12.6198 0.5
699 11.6368 1.81967 1.94685 0.5
700 11.0886 11.7419 10.0953 0.5
701 8.18575 8.20674 11.8184 0.5
702 11.202 3.45529 9.2554 0.5
703 4.82433 12.5262 4.52005 0.5
704 8.77284 8.88287 1.93329 0.5
705 2.28216 6.12268 8.82145 0.5
706 7.07812 10.1874 9.66538 0.5
707 7.10601 10.431 6.22901 0.5
708 10.4795 7.79887 7.26744 0.5
709 4.87706 10.1283 9.88831 0.5
710 12.2711 6.31993 3.19849 0.5
711 9.89373 5.70267 9.05646 0.5
712 5.8833 7.04457 8.59905 0.5
713 5.02164 7.97871 13.1602 0.5
714 0.122692 13.2638 6.09896 0.5
715 1.05351 5.41523 4.87764 0.5
716 13.2868 2.04161 2.33128 0.5
717 3.761 11.512 5.3294 0.5
718 1.22813 12.0602 10.9679 0.5
719 12.5255 8.92449 9.17475 0.5
720 0.278905 2.21067 3.82136 0.5
721 2.57443 1.04294 12.8444 0.5
722 12.9357 1.63659 1.74705 0.5
723 9.55602 12.7123 9.37427 0.5
724 6.32747 12.3469 9.67279 0.5
725 4.89361 11.3589 11.0619 0.5
726 7.67009 7.55719 6.35683 0.5
727 1.12225 11.4265 11.9896 0.5
728 8.23604 0.231451 8.95341 0.5
729 10.4546 8.29225 11.5764 0.5
730 9.32015 1.58892 11.9962 0.5
731 5.73424 0.780883 13.2416 0.5
732 6.96329 9.70133 1.7953 0.5
733 11.1582 7.4226 5.23892 0.5
734 8.27112 7.89786 12.7609 0.5
735 1.90513 12.6042 11.6251 0.5
736 3.04692 0.978072 10.0845 0.5
737 10.1709 12.6905 2.61512 0.5
738 10.3433 9.56982 12.8335 0.5
739 13.3127 0.362989 4.11823 0.5
740 5.46282 12.3985 11.1269 0.5
741 1.21614 3.82494 4.31096 0.5
742 11.8356 4.00321 0.367328 0.5
743 7.2411 13.0674 7.42193 0.5
744 9.82182 10.8367 6.32536 0.5
745 7.5965 5.46168 3.03979 0.5
746 0.823046 4.34584 13.1621 0.5
747 0.543857 11.4298 5.93762 0.5
748 9.97492 6.46338 7.10768 0.5
749 1.09988 5.30343 11.708 0.5
750 7.03954 2.27213 0.215399 0.5
751 8.27775 11.4405 4.89963 0.5
752 13.1383 12.9171 12.8331 0.5
753 10.2207 3.51585 5.62682 0.5
754 11.4992 10.9395 6.26326 0.5
755 1.87044 7.77996 5.26014 0.5
756 9.58234 11.5264 8.41977 0.5
757 7.4383 7.36588 4.14062 0.5
758 4.99666 10.3745 3.45215 0.5
759 9.21803 0.200242 6.32631 0.5
760 4.37354 11.3153 4.61323 0.5
761 9.66231 11.568 7.88415 0.5
762 6.00822 3.83323 9.54857 0.5
763 5.39104 3.39521 5.19429 0.5
764 6.92023 7.10897 7.02408 0.5
765 2.53785 11.0691 7.27453 0.5
766 0.803595 2.35604 3.41411 0.5
767 7.06002 5.15139 8.10685 0.5
768 8.25014 2.86749 2.57651 0.5
769 5.25421 2.67001 2.00727 0.5
770 1.01388 9.09596 5.11538 0.5
771 11.2091 13.3779 6.67489 0.5
772 11.3629 7.07314 8.3381 0.5
773 0.806084 6.20369 7.58686 0.5
774 9.95263 9.27616 10.4873 0.5
775 6.08142 6.62151 13.2863 0.5
776 9.29922 0.782962 2.12462 0.5
777 7.7224 1.16073 6.55665 0.5
778 12.2585 5.41065 7.87496 0.5
779 2.02056 12.4726 12.533 0.5
780 1.05053 12.8715 12.2104 0.5
781 1.69982 4.82666 2.86213 0.5
782 6.99864 9.03725 12.1352 0.5
783 7.1081 1.17547 2.84764 0.5
784 13.2663 3.94505 8.51454 0.5
785 1.27635 1.07412 10.9496 0.5
786 7.78606 2.42638 7.0102 0.5
787 10.4058 3.89286 1.95386 0.5
788 12.2787 0.632573 12.9851 0.5
789 12.8555 0.0712758 3.29987 0.5
790 7.76883 9.78968 1.22371 0.5
791 7.17501 10.4955 0.213069 0.5
792 8.32314 1.26683 2.07781 0.5
793 3.13416 10.8077 4.47385 0.5
794 5.5272 0.821939 8.01454 0.5
795 6.20795 11.1354 6.2631 0.5
796 7.4285 10.2716 11.8238 0.5
797 9.13814 6.02281 4.01735 0.5
798 4.96611 8.61768 5.94206 0.5
799 9.78546 10.4619 12.7339 0.5
800 12.5236 11.9462 2.06447 0.5
801 13.4673 12.0023 5.71762 0.5
802 9.33247 1.79404 4.23347 0.5
803 10.3773 5.61276 2.49314 0.5
804 12.1923 7.78835 3.4858 0.5
805 13.4457 4.46661 3.73988 0.5
806 9.82361 7.80939 8.29392 0.5
807 0.0828594 11.9033 0.168174 0.5
808 4.77315 5.51146 13.056 0.5
809 2.54401 8.48103 10.7685 0.5
810 7.95125 7.92029 9.34179 0.5
811 5.96997 6.99451 10.4765 0.5
812 6.899 1.66191 13.4193 0.5
813 8.05795 3.43804 9.39998 0.5
814 9.22198 9.08442 12.324 0.5
815 5.89416 4.79135 8.4924 0.5
816 1.68763 6.25262 3.72443 0.5
817 10.3829 2.02957 10.2019 0.5
818 7.35295 1.63921 9.93781 0.5
819 5.39037 12.4554 7.14166 0.5
820 13.5221 12.4739 4.9527 0.5
821 7.55903 13.1272 4.49056 0.5
822 2.08315 9.05747 9.04362 0.5
823 10.9736 7.00824 9.71031 0.5
824 10.0773 13.3902 2.82697 0.5
825 1.00333 9.50914 1.20798 0.5
826 4.99989 13.234 9.06881 0.5
827 3.73732 4.73729 0.44668 0.5
828 13.3118 10.2828 11.333 0.5
829 0.150701 6.48667 11.8163 0.5
830 12.5417 5.62625 7.26759 0.5
831 3.65275 0.107959 9.69817 0.5
832 11.0522 12.1547 1.08414 0.5
833 2.51051 10.7782 13.225 0.5
834 6.12005 0.31704 7.70613 0.5
835 8.76004 6.45836 1.59331 0.5
836 5.82753 2.7206 0.266553 0.5
837 6.93235 7.45931 10.3352 0.5
838 2.42653 2.90291 9.29345 0.5
839 10.2417 9.23969 2.61825 0.5
840 6.66169 12.7122 4.74428 0.5
841 12.9778 7.7412 1.4104 0.5
842 2.34606 13.394 7.92107 0.5
843 6.35162 0.103012 7.79425 0.5
844 10.2086 7.65014 13.3491 0.5
845 13.1791 13.3775 12.7701 0.5
846 12.926 7.49992 3.61483 0.5
847 0.472725 9.83273 2.25224 0.5
848 3.25061 5.02547 5.96135 0.5
849 3.14087 9.92858 1.11163 0.5
850 4.08578 5.93398 9.33479 0.5
851 9.25759 11.5698 2.28817 0.5
852 6.48434 13.1031 13.4032 0.5
853 3.85179 11.2622 10.947 0.5
854 3.98331 1.5842 6.8907 0.5
855 12.2594 5.79109 3.69571 0.5
856 1.1263 1.28914 1.56073 0.5
857 10.0294 9.64927 11.5285 0.5
858 6.08858 7.13096 12.8624 0.5
859 8.30455 4.11542 9.97746 0.5
860 13.1525 11.1457 6.71457 0.5
861 11.8416 5.15488 5.99052 0.5
862 6.51854 4.45155 11.6407 0.5
863 6.79885 6.68718 4.25893 0.5
864 6.99631 6.94253 1.10414 0.5
865 9.23501 3.29208 12.481 0.5
866 4.92058 6.90226 13.4391 0.5
867 1.4928 6.23499 1.42409 0.5
868 6.39846 3.8512 13.4749 0.5
869 0.11706 5.84006 13.5402 0.5
870 7.08793 4.10899 13.4235 0.5
871 3.37618 11.2297 3.4794 0.5
872 3.37468 3.71991 5.8729 0.5
873 2.74549 13.3448 5.25746 0.5
874 4.19123 3.55159 4.1373 0.5
875 2.11333 3.25612 7.87768 0.5
876 12.0125 2.14599 8.40764 0.5
877 13.0981 11.2909 11.9792 0.5
878 4.8085 9.47996 4.89623 0.5
879 1.69778 8.658 2.23436 0.5
880 5.86974 5.23953 8.61271 0.5
881 11.802 1.52005 10.7649 0.5
882 12.3284 8.81393 10.6397 0.5
883 4.44507 11.1769 1.85873 0.5
884 0.666439 0.931566 2.01477 0.5
885 10.5047 9.41493 7.51719 0.5
886 3.94343 0.404227 9.26623 0.5
887 8.14956 4.64869 1.20081 0.5
888 11.2037 6.19862 10.7802 0.5
889 0.284644 2.68278 11.5402 0.5
890 2.14012 7.32627 1.44569 0.5
891 0.646836 2.21206 4.05622 0.5
892 7.84476 7.09584 3.74338 0.5
893 8.46875 5.41138 13.0906 0.5
894 6.37085 5.53095 5.19005 0.5
895 10.3524 2.17241 6.74535 0.5
896 11.753 3.6137 5.48193 0.5
897 10.7734 11.1318 5.91154 0.5
898 3.15341 6.76967 12.6011 0.5
899 0.441121 5.28954 0.0699942 0.5
900 9.73811 3.57361 4.50743 0.5
901 7.0218 1.8233 7.76789 0.5
902 5.09885 9.32876 4.69034 0.5
903 9.32093 12.3512 3.55436 0.5
904 0.418693 5.65488 11.5202 0.5
905 1.87102 4.23812 8.89415 0.5
906 0.978226 2.57565 9.78808 0.5
907 5.71155 3.98459 2.34153 0.5
908 3.95487 11.8498 10.8988 0.5
909 1.16168 4.59644 10.5756 0.5
910 5.03659 10.7073 8.52032 0.5
911 8.51401 6.30569 13.2698 0.5
912 9.82754 11.756 4.42836 0.5
913 0.763214 7.82121 5.91921 0.5
914 0.360862 8.60701 7.24588 0.5
915 3.74796 9.74701 8.56215 0.5
916 6.35465 2.87506 10.3616 0.5
917 10.7462 8.76629 3.01737 0.5
918 12.1607 6.13613 4.73855 0.5
919 10.9359 12.8835 13.0818 0.5
920 5.37556 4.55315 5.13337 0.5
921 11.7745 3.51028 3.49819 0.5
922 11.2229 7.5385 8.04013 0.5
923 7.39189 0.43652 12.799 0.5
924 7.61972 4.19193 8.11382 0.5
925 13.5623 1.99085 0.319165 0.5
926 9.79315 2.27361 7.31439 0.5
927 1.80636 2.3766 5.02951 0.5
928 8.58614 10.584 8.42883 0.5
929 2.61393 10.1175 4.98286 0.5
930 3.15416 7.22259 2.66659 0.5
931 4.8776 5.67764 5.60769 0.5
932 6.63613 4.632 4.04461 0.5
933 2.89501 6.12348 6.76654 0.5