ITEM: TIMESTEP
500000
ITEM: NUMBER OF ATOMS
1000
ITEM: BOX BOUNDS xy xz yz pp pp pp
0.0000000000000000e+00 1.3572088000000001e+01 0.0000000000000000e+00
0.0000000000000000e+00 1.3572088000000001e+01 0.0000000000000000e+00
0.0000000000000000e+00 1.3572088000000001e+01 0.0000000000000000e+00
ITEM: ATOMS id x y z radius
1 6.62794 7.29465 10.3817 0.5
2 2.24732 7.19938 11.2951 0.5
3 3.61938 0.0444807 2.51641 0.5
4 10.9246 1.04606 1.24392 0.5
5 3.36047 10.7167 9.16134 0.5
6 5.40052 11.1736 6.80792 0.5
7 2.34043 5.02278 9.8533 0.5
8 5.20549 2.14625 8.57558 0.5
9 11.5733 1.80349 7.52775 0.5
10 12.0173 6.89521 11.5289 0.5
11 7.84618 7.78415 12.5093 0.5
12 12.3361 1.40367 9.49589 0.5
13 4.2673 8.83562 0.922509 0.5
14 11.2659 11.7562 8.51962 0.5
15 0.501519 2.65889 6.73354 0.5
16 0.751517 7.30677 9.24389 0.5
17 2.04346 4.89492 6.25398 0.5
18 5.30368 5.76106 9.08729 0.5
19 0.483308 8.89852 7.16646 0.5
20 2.79905 5.06975 8.19846 0.5
21 7.68388 7.80791 0.520726 0.5
22 2.22886 3.26007 8.51417 0.5
23 13.3266 1.88759 1.17967 0.5
24 12.1942 3.18808 4.50679 0.5
25 7.47393 5.17215 6.60085 0.5
26 0.767297 0.489822 6.0298 0.5
27 1.97662 9.41805 10.9292 0.5
28 11.2581 9.09107 11.6624 0.5
29 3.97664 8.1154 5.47457 0.5
30 2.71805 1.1424 5.18686 0.5
31 7.80119 7.81172 1.957 0.5
32 5.33345 11.8175 6.93044 0.5
33 5.5815 11.6203 10.0613 0.5
34 9.86592 1.14744 3.35688 0.5
35 0.856692 8.62893 9.60201 0.5
36 9.56081 1.97449 1.3239 0.5
37 0.40173 2.03834 11.8203 0.5
38 5.80179 5.76666 7.73931 0.5
39 7.96055 0.0430808 10.6925 0.5
40 5.14206 6.90015 9.33387 0.5
41 8.82661 1.82759 3.20361 0.5
42 10.1654 7.32351 10.8825 0.5
43 2.84504 11.0171 2.24261 0.5
44 6.62378 10.2084 0.468276 0.5
45 5.29279 4.31869 9.47902 0.5
46 5.22097 5.0478 3.92354 0.5
47 0.627686 4.14282 3.36623 0.5
48 8.83925 6.21566 8.94644 0.5
49 11.8605 3.23977 0.42014 0.5
50 11.5042 13.1495 13.3407 0.5
51 1.02834 0.990726 11.9419 0.5
52 3.77954 7.59573 1.88475 0.5
53 4.06265 9.80975 8.98085 0.5
54 6.0215 1.10907 2.61855 0.5
55 2.18597 7.80848 12.4041 0.5
56 9.90593 9.24852 10.9975 0.5
57 10.628 3.40553 9.81503 0.5
58 9.37772 5.51673 12.3007 0.5
59 8.41805 3.22165 2.73396 0.5
60 12.2358 1.78216 12.3074 0.5
61 2.92227 8.23306 11.9916 0.5
62 1.9091 0.286589 12.4136 0.5
63 9.55892 4.4478 12.0064 0.5
64 1.99291 8.39447 1.88634 0.5
65 8.53788 7.59681 2.93224 0.5
66 1.58988 1.45005 9.86961 0.5
67 3.58993 1.54301 7.68435 0.5
68 0.119415 9.0374 2.66265 0.5
69 13.1467 2.57801 4.8629 0.5
70 5.08506 1.35221 12.8517 0.5
71 9.85841 8.84111 7.80435 0.5
72 9.48467 6.40186 0.578711 0.5
73 12.7354 6.15799 4.73887 0.5
74 3.45632 7.90529 1.20891 0.5
75 0.489396 3.16497 11.5812 0.5
76 2.54672 9.18181 4.77093 0.5
77 9.11623 11.1624 0.435219 0.5
78 6.83816 3.66795 0.478948 0.5
79 6.3169 2.70759 2.77968 0.5
80 4.10044 1.42975 5.74782 0.5
81 6.51822 9.82837 10.1904 0.5
82 1.31958 9.59018 0.795326 0.5
83 6.10548 8.59984 8.90823 0.5
84 0.609989 7.12056 10.6949 0.5
85 0.0568738 8.5962 9.83591 0.5
86 6.55818 4.96911 0.617187 0.5
87 1.97585 12.6323 4.83029 0.5
88 2.30175 4.4041 1.1484 0.5
89 0.563568 8.65572 11.2073 0.5
90 12.2708 12.1239 0.57013 0.5
91 7.90985 6.10956 6.82882 0.5
92 12.4097 12.937 10.7096 0.5
93 11.1564 10.4558 5.86959 0.5
94 4.62452 5.51319 3.18234 0.5
95 3.67092 10.058 13.365 0.5
96 3.9107 0.83581 0.530945 0.5
97 6.16222 12.8578 5.4263 0.5
98 11.3259 6.39718 9.55677 0.5
99 13.104 2.3165 13.4118 0.5
100 5.72242 12.0711 5.83836 0.5
101 3.38273 13.2886 2.59845 0.5
102 12.0053 0.488414 3.21274 0.5
103 10.5223 8.90611 0.245787 0.5
104 6.20967 7.32607 1.63561 0.5
105 4.39954 8.06721 7.08311 0.5
106 13.0761 4.14396 7.45565 0.5
107 0.5861 12.5949 6.93937 0.5
108 6.11266 11.0389 9.13492 0.5
109 13.5565 5.93262 6.5166 0.5
110 11.3538 11.9251 4.41029 0.5
111 8.05202 13.1983 11.6524 0.5
112 4.55714 5.55829 0.435031 0.5
113 10.0255 3.23793 12.6915 0.5
114 10.5358 6.61248 11.9686 0.5
115 6.20409 3.81076 6.65434 0.5
116 2.92858 9.8925 12.2554 0.5
117 10.3388 1.375 1.21058 0.5
118 5.82732 9.25277 8.44706 0.5
119 5.54992 2.147 7.49238 0.5
120 0.165593 4.6048 5.76308 0.5
121 5.66981 3.76216 11.8947 0.5
122 6.86836 0.616092 3.9144 0.5
123 10.8889 8.37633 4.65152 0.5
124 5.01304 5.57176 12.2723 0.5
125 4.95675 7.19316 10.6503 0.5
126 4.36265 9.24585 0.0369652 0.5
127 9.59521 13.3454 4.32093 0.5
128 13.4443 7.02104 12.624 0.5
129 6.29444 9.05098 9.82779 0.5
130 8.16293 12.7439 12.3292 0.5
131 2.01632 7.19868 10.5692 0.5
132 9.75264 11.9928 12.5268 0.5
133 5.97701 0.778951 4.39655 0.5
134 8.94506 4.09546 2.28841 0.5
135 12.7544 12.7506 8.02741 0.5
136 4.5679 8.55597 1.58075 0.5
137 9.12714 5.29571 3.69225 0.5
138 13.3767 13.1785 12.9074 0.5
139 11.9347 6.22625 1.45823 0.5
140 1.43101 5.29667 12.3167 0.5
141 11.5213 9.0037 12.1543 0.5
142 0.311225 7.63724 13.1005 0.5
143 2.60388 6.87233 1.50454 0.5
144 10.9955 4.51536 9.39851 0.5
145 4.38526 5.89577 7.99962 0.5
146 6.83384 13.4083 4.72431 0.5
147 9.66717 12.0119 8.59764 0.5
148 7.88776 5.61188 11.6476 0.5
149 11.364 7.53474 3.54076 0.5
150 3.93568 3.61972 3.44796 0.5
151 7.23745 8.77157 13.2625 0.5
152 9.75804 9.3353 3.85446 0.5
153 3.98227 0.528663 4.2446 0.5
154 7.41978 11.2208 4.09819 0.5
155 3.91629 6.34431 8.95904 0.5
156 6.53494 1.38103 13.5146 0.5
157 5.73482 8.1421 10.0373 0.5
158 2.94535 13.1766 3.21851 0.5
159 12.6652 11.0099 6.90126 0.5
160 13.4256 7.11647 1.29541 0.5
161 2.85736 8.79296 7.73781 0.5
162 7.92981 7.92529 10.5783 0.5
163 0.758481 11.8058 0.0423682 0.5
164 1.30958 0.367195 6.06902 0.5
165 13.2443 1.2878 9.78948 0.5
166 12.7497 9.90168 6.31028 0.5
167 7.9147 13.3694 12.3381 0.5
168 7.38453 9.80075 10.7099 0.5
169 13.2131 9.87623 7.4737 0.5
170 8.34474 4.26254 9.58082 0.5
171 12.3741 8.93902 2.89482 0.5
172 3.90372 7.14164 1.07672 0.5
173 9.27511 6.0008 8.61356 0.5
174 12.8602 13.2996 7.01096 0.5
175 9.99194 7.03082 5.24311 0.5
176 6.19953 13.1101 11.9162 0.5
177 11.2967 2.34991 3.01628 0.5
178 11.8308 1.46531 1.40393 0.5
179 2.69175 10.2747 3.68431 0.5
180 4.58277 5.20331 5.96107 0.5
181 9.59053 12.1298 4.00526 0.5
182 1.33399 8.94422 13.0164 0.5
183 0.490644 12.4513 4.47715 0.5
184 3.82667 0.815842 3.96059 0.5
185 4.19758 2.01577 12.6925 0.5
186 9.41939 7.6036 2.05479 0.5
187 3.80442 10.8854 5.92309 0.5
188 13.0909 1.70807 3.57051 0.5
189 5.59686 3.21193 3.08723 0.5
190 2.25196 8.9858 0.658969 0.5
191 2.96429 8.00662 1.71172 0.5
192 12.8498 4.87823 9.43638 0.5
193 4.46688 6.72592 9.8541 0.5
194 11.6092 11.6755 2.59786 0.5
195 0.456171 12.4053 11.8558 0.5
196 10.6376 12.6294 5.21412 0.5
197 5.30735 1.47979 9.45311 0.5
198 9.0998 1.6035 4.89363 0.5
199 5.64021 8.51712 7.44722 0.5
200 2.50563 5.61382 10.0117 0.5
201 0.433756 9.43381 6.21385 0.5
202 12.4016 1.43422 1.05503 0.5
203 6.58566 5.1115 7.54538 0.5
204 11.6024 11.2415 1.53653 0.5
205 1.61376 7.23897 9.61498 0.5
206 1.96852 2.70898 10.7417 0.5
207 4.59049 7.71576 4.83471 0.5
208 3.56133 9.12937 10.4124 0.5
209 8.32608 10.6783 3.61804 0.5
210 12.5268 0.291461 8.61903 0.5
211 0.138936 11.7388 6.64584 0.5
212 11.5036 5.92946 3.29079 0.5
213 2.19322 0.509162 6.70903 0.5
214 11.352 7.93536 5.62239 0.5
215 8.59736 9.96536 8.67768 0.5
216 9.37894 0.754022 10.0482 0.5
217 13.0772 3.70919 4.2754 0.5
218 13.549 13.258 0.345926 0.5
219 13.5023 10.2507 3.75853 0.5
220 2.17757 11.8865 4.813 0.5
221 6.06333 1.76783 12.3049 0.5
222 2.53598 11.5393 7.66177 0.5
223 1.89061 11.8209 10.1642 0.5
224 2.60571 8.65834 0.422467 0.5
225 5.84451 4.22016 8.69774 0.5
226 3.56072 12.2834 6.32594 0.5
227 5.17866 0.47895 6.52946 0.5
228 0.781225 9.78394 7.12515 0.5
229 12.8978 8.52512 8.06512 0.5
230 11.864 0.712389 1.94674 0.5
231 3.20412 3.16243 6.2989 0.5
232 10.5334 2.01791 7.79235 0.5
233 3.07913 12.4627 9.23298 0.5
234 9.82798 6.39837 11.678 0.5
235 2.77975 7.64459 3.40353 0.5
236 0.697874 0.764811 3.51356 0.5
237 10.539 11.9159 4.12745 0.5
238 11.5593 9.2332 4.41995 0.5
239 1.66185 7.09654 1.30134 0.5
240 10.3046 10.0875 3.26343 0.5
241 0.99312 9.73773 7.3458 0.5
242 6.13052 1.67861 6.91782 0.5
243 5.06941 13.4009 4.83834 0.5
244 5.52175 11.1041 9.47957 0.5
245 5.74355 8.32169 1.76996 0.5
246 8.76319 2.03593 5.26816 0.5
247 13.5688 8.15196 4.01662 0.5
248 1.27607 1.49839 5.76382 0.5
249 3.75136 3.20008 2.39442 0.5
250 5.57559 1.17672 7.07311 0.5
251 3.47479 13.2589 11.3691 0.5
252 4.03195 1.31941 3.16325 0.5
253 7.08771 0.499292 10.7414 0.5
254 11.6353 5.81998 2.0618 0.5
255 2.92458 1.30128 3.86871 0.5
256 1.29948 4.55711 2.64803 0.5
257 4.03206 4.25575 6.17271 0.5
258 5.99303 11.0198 4.33417 0.5
259 12.2172 11.9828 8.32585 0.5
260 7.06514 5.96304 5.37028 0.5
261 11.4435 10.0514 10.4714 0.5
262 10.6875 2.26467 2.94865 0.5
263 13.5138 2.92365 5.4238 0.5
264 12.708 6.34378 13.5496 0.5
265 12.9708 7.55695 9.02933 0.5
266 6.77098 11.27 0.825705 0.5
267 3.39741 9.24558 11.3479 0.5
268 0.475685 9.54627 12.1438 0.5
269 0.820358 8.92416 7.78443 0.5
270 1.82658 8.0297 4.15741 0.5
271 7.21372 1.39715 9.8338 0.5
272 6.99011 1.40902 12.2391 0.5
273 4.75853 2.00527 2.87221 0.5
274 4.71827 5.05802 2.18358 0.5
275 10.9526 3.50657 8.82488 0.5
276 2.24573 6.78321 9.54971 0.5
277 13.2206 0.319135 7.29942 0.5
278 12.9324 9.83168 7.99485 0.5
279 8.42769 3.51587 9.07551 0.5
280 8.97195 2.1672 4.30403 0.5
281 9.6125 11.6906 0.995144 0.5
282 0.874395 10.3423 7.33605 0.5
283 12.9025 11.8957 6.61773 0.5
284 13.4805 6.72123 0.433258 0.5
285 12.2816 4.70484 13.0921 0.5
286 5.09523 6.11235 10.4242 0.5
287 13.0317 0.764613 11.6005 0.5
288 6.03852 6.8744 4.22424 0.5
289 9.52218 1.47852 8.71107 0.5
290 3.59786 9.30769 5.09699 0.5
291 2.02951 7.36237 2.26877 0.5
292 5.93635 12.8921 12.5767 0.5
293 8.48556 12.9859 9.39687 0.5
294 11.9172 2.84934 5.31254 0.5
295 0.103592 10.311 3.85124 0.5
296 12.8671 11.7326 9.37375 0.5
297 8.66839 2.63168 5.81564 0.5
298 5.58297 11.3653 3.17931 0.5
299 12.3715 10.427 4.80081 0.5
300 3.24882 5.79561 0.614334 0.5
301 2.06864 9.31798 11.9333 0.5
302 1.94768 0.3393 6.06796 0.5
303 12.0265 5.93085 5.45515 0.5
304 6.96882 3.10613 11.238 0.5
305 12.8708 8.39172 8.52589 0.5
306 6.5327 7.46032 4.09584 0.5
307 5.95935 1.55455 3.00827 0.5
308 1.6057 9.45017 9.33151 0.5
309 6.62415 7.7267 8.60675 0.5
310 10.6803 3.38412 7.68009 0.5
311 0.480733 6.13368 10.3455 0.5
312 9.85491 6.05567 12.7733 0.5
313 1.51268 8.02544 12.7071 0.5
314 11.4275 10.2651 9.14214 0.5
315 0.920968 9.71176 8.56829 0.5
316 9.47781 2.64199 13.3224 0.5
317 8.27829 8.81812 8.05633 0.5
318 0.940372 2.1854 2.11139 0.5
319 2.75546 2.56335 1.36652 0.5
320 7.66835 2.18179 1.6898 0.5
321 7.34974 13.2506 12.2146 0.5
322 8.87949 9.55162 2.51229 0.5
323 3.84925 4.71815 9.61985 0.5
324 0.121683 6.57307 12.8175 0.5
325 4.34965 4.93479 4.75955 0.5
326 12.2266 13.2669 11.1868 0.5
327 1.44874 11.9778 6.12963 0.5
328 9.36248 11.3335 10.1999 0.5
329 3.83119 1.82703 2.08734 0.5
330 10.1259 6.45236 9.4064 0.5
331 9.80338 1.09219 13.0195 0.5
332 0.767329 3.87948 1.25005 0.5
333 4.72827 1.84416 0.479857 0.5
334 9.8031 1.5381 5.70848 0.5
335 4.16075 11.4531 5.4452 0.5
336 6.68137 6.23702 1.01264 0.5
337 9.33363 0.127499 8.33488 0.5
338 10.8197 2.04474 1.50468 0.5
339 0.710423 3.27128 3.52002 0.5
340 3.00572 13.0014 11.68 0.5
341 3.19936 10.6729 9.11025 0.5
342 10.0705 0.858217 10.5965 0.5
343 4.92067 9.49034 1.94352 0.5
344 6.57258 8.59903 1.00061 0.5
345 3.8593 12.7074 11.799 0.5
346 1.30859 1.67039 13.5186 0.5
347 4.62776 6.03462 8.9724 0.5
348 5.07325 2.82118 7.74784 0.5
349 7.08242 9.02057 0.0126707 0.5
350 10.9843 11.4084 1.91976 0.5
351 11.9681 11.9473 8.74905 0.5
352 8.72318 9.17966 0.790902 0.5
353 2.63541 11.343 9.09144 0.5
354 3.61355 13.2434 3.29168 0.5
355 11.3133 8.91735 2.43128 0.5
356 3.02465 0.703414 9.50705 0.5
357 0.715847 3.71937 10.9783 0.5
358 2.22278 1.81746 11.0768 0.5
359 1.62627 0.299208 8.30127 0.5
360 13.065 1.57807 2.4443 0.5
361 8.55829 3.85843 8.96789 0.5
362 0.508519 9.74913 0.816921 0.5
363 7.62634 0.618448 3.45969 0.5
364 7.93876 11.9333 7.10033 0.5
365 4.68691 12.7978 11.1769 0.5
366 9.97821 7.92809 13.191 0.5
367 4.45159 10.7104 13.1575 0.5
368 6.08667 5.76223 10.1025 0.5
369 5.6044 7.41165 1.82746 0.5
370 2.67521 12.6049 10.3928 0.5
371 6.65152 8.00527 11.2862 0.5
372 11.6806 7.15629 9.28013 0.5
373 0.843117 9.39308 0.0297916 0.5
374 12.1694 5.2779 8.91743 0.5
375 13.177 5.92939 3.06963 0.5
376 9.42689 2.9253 0.538692 0.5
377 9.33986 4.53269 1.28174 0.5
378 5.34808 1.12049 6.02152 0.5
379 12.1819 7.59453 6.19059 0.5
380 3.98991 9.89736 12.0859 0.5
381 3.40935 0.98679 11.282 0.5
382 13.4624 13.4715 4.80918 0.5
383 2.3884 5.14991 10.1694 0.5
384 11.2328 9.54075 0.665061 0.5
385 2.38779 3.64709 6.2372 0.5
386 4.19862 13.1679 3.38234 0.5
387 5.31992 6.71957 6.83568 0.5
388 3.14603 6.09836 1.36865 0.5
389 0.200188 3.77196 10.5342 0.5
390 13.1672 13.2747 4.76678 0.5
391 5.74529 10.7943 7.10155 0.5
392 12.3023 9.59594 0.258917 0.5
393 2.94839 5.55324 9.10825 0.5
394 2.74831 5.69637 4.42025 0.5
395 0.769585 6.67007 13.0973 0.5
396 5.69072 5.62534 5.49281 0.5
397 12.7028 3.6296 10.5732 0.5
398 6.0786 8.46514 9.77081 0.5
399 5.44505 7.04969 6.47907 0.5
400 3.42743 2.49359 0.254542 0.5
401 0.989164 11.4401 7.34476 0.5
402 7.57983 0.213461 9.99464 0.5
403 7.66146 13.2084 0.833409 0.5
404 3.60465 3.08751 7.84434 0.5
405 0.147264 6.44451 3.17611 0.5
406 2.43795 7.47281 7.47116 0.5
407 7.49291 3.60848 10.3259 0.5
408 5.52185 11.8595 12.6314 0.5
409 1.51283 4.68268 1.70454 0.5
410 5.26343 0.658096 3.46238 0.5
411 4.2642 10.2903 10.9096 0.5
412 5.87141 4.43735 7.19157 0.5
413 7.62296 4.23784 10.3206 0.5
414 3.47366 6.26265 10.8786 0.5
415 8.91058 6.2405 1.57125 0.5
416 9.05774 12.4496 13.3606 0.5
417 13.0023 11.043 11.1139 0.5
418 1.97444 0.56107 11.7573 0.5
419 8.26696 8.00374 7.72563 0.5
420 7.72349 3.21335 3.78814 0.5
421 11.1633 7.08773 9.70146 0.5
422 0.87863 6.26953 8.08012 0.5
423 7.41664 0.784007 3.85083 0.5
424 9.63216 9.33654 9.78825 0.5
425 6.92047 8.25383 5.14118 0.5
426 3.13316 8.20338 3.98016 0.5
427 2.72427 13.5433 2.34445 0.5
428 10.3551 0.310187 10.7649 0.5
429 0.713848 0.216868 11.2524 0.5
430 5.32046 2.48858 10.6998 0.5
431 5.12037 4.46259 9.8526 0.5
432 2.91119 12.4877 8.80479 0.5
433 5.63776 5.69564 7.0007 0.5
434 10.3515 6.3978 12.1883 0.5
435 6.1499 13.2536 9.93432 0.5
436 0.731666 11.2284 3.40818 0.5
437 3.09756 1.07851 10.8719 0.5
438 2.22695 4.52361 3.49648 0.5
439 12.2715 4.72673 1.67598 0.5
440 9.68959 1.59349 2.49173 0.5
441 8.20196 13.016 10.8188 0.5
442 2.79765 11.3049 11.2952 0.5
443 0.163587 9.8136 4.38087 0.5
444 13.4314 7.37346 10.8571 0.5
445 9.54563 9.97443 4.99926 0.5
446 8.33554 8.73588 3.25906 0.5
447 5.99462 9.8915 12.2918 0.5
448 5.59896 13.1684 2.90338 0.5
449 6.6533 0.470965 12.5172 0.5
450 2.74738 10.7046 4.47538 0.5
451 8.66061 3.98359 3.82606 0.5
452 4.14128 0.738756 12.6145 0.5
453 3.11214 3.917 5.3177 0.5
454 7.25367 4.17003 4.04305 0.5
455 11.2654 10.3199 10.3918 0.5
456 8.33477 7.24295 0.727534 0.5
457 10.4473 4.59923 3.33314 0.5
458 1.20652 7.82732 3.98859 0.5
459 3.46373 12.0782 5.30297 0.5
460 9.06207 3.50731 13.4954 0.5
461 5.82555 0.629678 12.7603 0.5
462 4.89529 5.88646 2.44896 0.5
463 2.99755 12.4071 4.0589 0.5
464 0.669091 0.00310722 9.36202 0.5
465 3.97742 1.09711 9.12519 0.5
466 8.07522 3.0491 5.05433 0.5
467 1.55154 13.1952 1.14983 0.5
468 6.35751 2.84564 6.85625 0.5
469 1.82961 1.26443 13.1892 0.5
470 8.72781 5.4461 1.81879 0.5
471 13.2408 9.55029 0.929497 0.5
472 3.33693 13.3581 10.6016 0.5
473 13.2881 7.4991 5.40126 0.5
474 8.46186 7.55264 3.15119 0.5
475 6.94335 0.485421 4.26825 0.5
476 7.70816 12.9731 7.38538 0.5
477 6.45725 13.3641 7.68513 0.5
478 9.7451 7.82939 5.8785 0.5
479 5.23459 8.85433 4.24038 0.5
480 3.30309 1.73726 0.447883 0.5
481 3.0549 3.62593 8.3399 0.5
482 10.6272 8.60256 12.7496 0.5
483 0.612585 1.83929 5.60542 0.5
484 0.490785 1.03233 0.774248 0.5
485 5.06248 2.75618 10.7722 0.5
486 4.94449 1.32626 2.71321 0.5
487 8.36732 9.71666 9.20591 0.5
488 3.19944 10.2679 3.52897 0.5
489 4.72296 2.7099 9.61243 0.5
490 12.7565 2.88454 11.0812 0.5
491 13.5556 7.27634 0.167304 0.5
492 8.69297 0.123016 5.43791 0.5
493 0.0435877 2.89529 12.8678 0.5
494 11.0295 6.91063 9.22083 0.5
495 6.75082 5.45325 11.751 0.5
496 12.9414 2.74396 4.2814 0.5
497 7.91148 2.62243 4.51669 0.5
498 1.38287 8.38623 9.82181 0.5
499 4.1748 3.75723 13.2164 0.5
500 12.2893 0.598507 12.5662 0.5
501 12.865 2.44864 6.14235 0.5
502 0.679811 1.55241 7.43476 0.5
503 8.90028 2.70704 4.03776 0.5
504 7.32008 13.4855 7.16716 0.5
505 4.34128 8.15288 10.2641 0.5
506 6.63381 8.463 7.65134 0.5
507 4.62803 11.6465 7.95053 0.5
508 12.0544 7.85639 5.44804 0.5
509 12.4604 5.79695 3.8488 0.5
510 7.58251 5.60394 4.49534 0.5
511 9.34224 1.61087 7.00258 0.5
512 12.8163 5.14381 5.66475 0.5
513 1.56563 7.77352 7.55968 0.5
514 1.98874 3.8079 9.7605 0.5
515 0.822122 9.76379 8.21052 0.5
516 0.0709015 9.05278 12.0699 0.5
517 6.02736 2.8956 0.468468 0.5
518 2.68087 10.4771 4.12676 0.5
519 6.39517 10.5828 2.56429 0.5
520 6.50601 3.0149 2.84159 0.5
521 10.8454 11.1851 0.510287 0.5
522 1.87194 11.9547 0.829682 0.5
523 12.6153 1.11869 6.92746 0.5
524 11.7319 0.783742 4.22918 0.5
525 6.88397 10.1846 5.02189 0.5
526 12.4979 9.64411 6.37855 0.5
527 13.4763 5.92131 0.513074 0.5
528 13.2583 11.6527 8.55396 0.5
529 11.5834 9.95514 11.7256 0.5
530 11.7367 12.4286 10.0883 0.5
531 3.55544 6.10636 12.0875 0.5
532 8.27965 1.80166 2.44694 0.5
533 3.79469 11.8456 9.11397 0.5
534 6.64534 7.85321 6.94615 0.5
535 2.51092 11.7964 2.09009 0.5
536 1.31195 5.76079 3.74006 0.5
537 12.3385 12.7067 8.49547 0.5
538 0.117863 4.53338 0.818782 0.5
539 2.46656 3.55968 1.69147 0.5
540 1.96228 3.96189 1.50807 0.5
541 10.5699 12.0031 5.47367 0.5
542 3.67764 5.53629 8.00756 0.5
543 3.10943 10.2832 6.84085 0.5
544 3.37336 7.43129 0.793463 0.5
545 7.01545 12.7893 6.13519 0.5
546 1.54334 4.37926 12.5445 0.5
547 7.16979 9.18075 2.30501 0.5
548 5.93289 7.63115 12.5022 0.5
549 2.3545 8.95532 5.9234 0.5
550 3.14104 8.18816 2.4964 0.5
551 7.83224 7.0402 1.69083 0.5
552 9.88305 13.3724 7.12434 0.5
553 11.9453 13.1279 12.2402 0.5
554 8.19766 9.48766 13.0519 0.5
555 11.0819 9.92219 7.5373 0.5
556 4.3822 1.51147 10.9875 0.5
557 10.1214 4.24426 3.07231 0.5
558 6.84395 13.1055 10.8655 0.5
559 12.3354 4.68055 6.6464 0.5
560 0.292934 2.44354 5.60674 0.5
561 11.4135 12.737 10.0858 0.5
562 10.8391 9.41389 2.79626 0.5
563 5.6234 2.29701 7.81117 0.5
564 10.6013 12.4481 2.17241 0.5
565 11.5157 7.5449 5.66577 0.5
566 8.4261 13.2926 11.8301 0.5
567 5.64877 1.77391 11.0962 0.5
568 10.9937 1.01891 5.09814 0.5
569 10.6245 2.74938 2.16517 0.5
570 5.00876 11.5655 1.38005 0.5
571 1.67567 3.40933 2.72848 0.5
572 4.22405 4.34587 9.47279 0.5
573 7.39213 0.572936 6.9054 0.5
574 5.78 3.79323 4.9069 0.5
575 10.3914 7.56604 10.6864 0.5
576 5.64959 5.57335 9.3417 0.5
577 7.637 0.680175 11.632 0.5
578 2.88012 9.73973 12.539 0.5
579 5.88167 1.16464 8.738 0.5
580 3.22831 2.04957 4.94016 0.5
581 9.67757 2.44845 5.70774 0.5
582 6.11579 12.827 11.1995 0.5
583 1.7142 3.09999 8.00053 0.5
584 3.51434 12.5307 3.96716 0.5
585 3.85373 4.74188 0.359582 0.5
586 10.3694 5.18554 6.74643 0.5
587 10.8421 10.0012 5.01834 0.5
588 2.35271 8.20124 11.0223 0.5
589 11.3068 7.12679 7.58433 0.5
590 1.9689 2.21428 9.2936 0.5
591 12.1876 5.74795 9.76522 0.5
592 13.5451 8.67331 8.12382 0.5
593 3.26503 11.3357 10.6213 0.5
594 5.73648 0.829235 6.80592 0.5
595 3.5551 2.55854 7.80086 0.5
596 11.5862 10.8982 4.32593 0.5
597 7.08086 1.28921 3.68862 0.5
598 1.40647 5.48317 9.9302 0.5
599 7.24082 7.69401 10.6792 0.5
600 3.52487 11.7693 7.81038 0.5
601 7.72922 6.19614 6.41787 0.5
602 7.2319 5.77618 8.27988 0.5
603 2.6992 3.28128 11.1124 0.5
604 2.75148 2.42508 0.550859 0.5
605 10.4482 11.2723 2.40621 0.5
606 8.33306 12.0856 13.3738 0.5
607 1.8945 7.52943 3.21625 0.5
608 13.2359 12.4822 7.31407 0.5
609 9.358 10.9503 0.906777 0.5
610 11.4659 7.66889 8.66261 0.5
611 11.1307 4.63554 0.868261 0.5
612 6.52137 2.16199 3.23148 0.5
613 12.0767 10.0624 6.90641 0.5
614 4.27354 11.4978 2.92765 0.5
615 8.02681 5.99743 0.447203 0.5
616 5.29616 9.18709 6.05302 0.5
617 3.39676 9.23699 0.226362 0.5
618 11.5678 3.1146 10.6347 0.5
619 4.88246 12.212 11.205 0.5
620 11.5278 5.80231 1.73028 0.5
621 3.71537 8.27038 9.95098 0.5
622 12.6935 6.95198 11.0216 0.5
623 2.88357 11.6483 8.94319 0.5
624 7.20289 7.97493 5.03326 0.5
625 12.1959 3.84184 8.51567 0.5
626 6.59496 3.48301 0.232933 0.5
627 10.8836 0.480586 4.93141 0.5
628 4.73031 8.52179 13.1594 0.5
629 4.59342 2.42721 5.71537 0.5
630 8.99136 5.58974 12.3134 0.5
631 1.60296 1.49333 1.14403 0.5
632 11.9985 8.82343 0.42341 0.5
633 10.7741 3.97119 6.67867 0.5
634 5.08125 10.8615 13.1783 0.5
635 1.69701 7.30559 7.26304 0.5
636 0.505085 9.0658 10.3343 0.5
637 6.05915 2.37532 3.03418 0.5
638 0.11181 3.16829 12.5856 0.5
639 7.07339 0.872004 3.60006 0.5
640 5.96577 7.30566 7.11163 0.5
641 8.05002 5.74341 6.024 0.5
642 0.975145 0.782269 4.34222 0.5
643 9.21376 4.3854 2.40246 0.5
644 12.4119 12.1581 9.42192 0.5
645 8.8841 11.6081 5.10847 0.5
646 0.104854 8.94915 10.9779 0.5
647 7.2023 1.52175 5.69045 0.5
648 3.37957 4.79185 1.27453 0.5
649 12.9114 13.2465 8.66296 0.5
650 9.30601 11.8986 11.7053 0.5
651 1.75764 12.9558 2.42279 0.5
652 9.31969 4.14307 9.08793 0.5
653 8.55014 12.1994 9.564 0.5
654 13.2192 6.04896 0.406862 0.5
655 12.1488 0.218844 13.0424 0.5
656 1.2151 9.35413 5.69429 0.5
657 4.69349 3.28196 9.95832 0.5
658 12.206 4.44858 8.98421 0.5
659 7.42154 12.4243 2.48958 0.5
660 9.6621 7.15906 5.07962 0.5
661 6.81256 13.4632 11.6487 0.5
662 4.85692 3.37078 4.16632 0.5
663 2.5503 3.83236 3.36597 0.5
664 0.415566 4.13642 3.98435 0.5
665 2.95556 8.32231 7.92346 0.5
666 8.32728 8.79412 3.15804 0.5
667 8.56098 10.5238 6.34722 0.5
668 7.89099 12.3243 0.267132 0.5
669 12.8887 11.663 0.490799 0.5
670 8.13946 8.60338 7.4016 0.5
671 2.21857 7.75195 5.06897 0.5
672 6.01418 2.84046 2.10748 0.5
673 13.1797 4.50782 3.0345 0.5
674 12.3258 9.71029 7.17521 0.5
675 12.2051 4.13949 6.08683 0.5
676 8.85173 1.70481 8.33703 0.5
677 1.06068 2.35097 0.565428 0.5
678 5.61763 13.1568 12.7455 0.5
679 4.99623 6.74002 13.06 0.5
680 4.86953 1.81899 10.3201 0.5
681 8.5432 1.81359 11.8873 0.5
682 12.0182 7.08868 6.97638 0.5
683 0.334969 3.79933 2.43628 0.5
684 0.0797687 1.99573 1.93076 0.5
685 0.661907 1.88455 0.716563 0.5
686 1.15166 0.737846 6.39268 0.5
687 12.6395 7.72537 1.35127 0.5
688 11.6186 6.28292 6.16279 0.5
689 0.765154 1.82458 11.886 0.5
690 4.08926 6.82381 6.72281 0.5
691 6.62458 11.6997 4.63404 0.5
692 12.7672 7.39399 6.79975 0.5
693 7.05372 10.5782 6.98579 0.5
694 10.0979 7.57754 9.96407 0.5
695 9.90775 12.0761 12.01 0.5
696 7.75947 9.16962 6.00136 0.5
697 9.58717 4.12558 12.422 0.5
698 7.92004 1.78517 0.8543 0.5
699 10.0677 1.97563 3.08872 0.5
700 10.2768 10.6258 6.23968 0.5
701 7.23951 2.96594 11.9402 0.5
702 10.6577 9.70244 0.650881 0.5
703 0.509305 4.68322 12.8299 0.5
704 11.4012 9.47215 0.0981417 0.5
705 10.6292 2.94054 9.29124 0.5
706 4.45451 0.328014 6.48636 0.5
707 5.67793 13.5366 1.59631 0.5
708 0.180802 4.92457 10.6575 0.5
709 8.00828 8.13603 3.69293 0.5
710 13.5251 11.6751 7.56098 0.5
711 11.4007 7.78927 0.227639 0.5
712 5.69522 1.50864 8.87152 0.5
713 6.37171 6.52294 1.04765 0.5
714 0.090588 0.699249 4.59405 0.5
715 9.37955 7.72876 1.03412 0.5
716 1.18321 4.65141 8.07372 0.5
717 1.59471 10.0527 3.36348 0.5
718 4.0995 4.80141 7.7823 0.5
719 11.4519 9.30306 11.6724 0.5
720 0.0502153 0.678668 6.72559 0.5
721 3.17895 1.16331 13.1738 0.5
722 10.1275 0.268231 1.12695 0.5
723 13.1639 3.20443 12.8376 0.5
724 2.9344 0.944709 3.86947 0.5
725 5.26599 10.7845 5.10851 0.5
726 6.42196 10.781 5.54063 0.5
727 12.3533 5.35632 4.96593 0.5
728 9.54957 3.95177 10.9781 0.5
729 3.86351 7.71427 1.18418 0.5
730 7.87625 11.078 13.4164 0.5
731 8.72136 13.3866 9.19256 0.5
732 5.04353 11.142 0.296182 0.5
733 11.8369 5.54655 12.4408 0.5
734 5.08191 11.0921 9.75352 0.5
735 0.871127 12.7515 12.3137 0.5
736 3.52478 3.67692 10.7778 0.5
737 0.771177 12.7702 6.07419 0.5
738 11.8341 6.6389 9.65855 0.5
739 7.91067 4.84529 10.4527 0.5
740 2.92805 8.83287 11.1759 0.5
741 2.22781 2.30859 9.23261 0.5
742 7.38775 1.7156 1.94084 0.5
743 8.34817 6.01855 7.16668 0.5
744 7.93857 12.2151 1.93746 0.5
745 7.29935 1.56097 6.07335 0.5
746 3.14219 2.10314 9.09905 0.5
747 5.13874 7.72823 6.57829 0.5
748 5.89201 9.28639 10.1971 0.5
749 12.8497 4.10134 1.13771 0.5
750 10.3079 0.915146 8.77623 0.5
751 7.46841 10.8488 1.65892 0.5
752 12.0927 8.90449 1.15538 0.5
753 1.13346 7.02842 5.95637 0.5
754 3.4528 11.1206 4.3633 0.5
755 7.71423 8.88365 5.80382 0.5
756 9.25555 12.5629 6.82306 0.5
757 4.93544 10.6213 11.2638 0.5
758 5.75357 6.10587 3.1921 0.5
759 1.03871 5.19602 11.781 0.5
760 9.09247 10.1596 10.3358 0.5
761 11.8681 7.29599 4.68401 0.5
762 5.79648 2.60439 1.19439 0.5
763 7.76221 2.5645 5.8259 0.5
764 5.95192 6.2498 11.5305 0.5
765 0.922278 12.6725 6.90769 0.5
766 0.723482 0.810719 13.5516 0.5
767 6.91227 7.2297 10.9556 0.5
768 4.70977 9.03583 9.41438 0.5
769 3.6672 5.26462 1.54205 0.5
770 2.22298 1.68405 8.78236 0.5
771 8.34913 4.10058 9.16339 0.5
772 9.86564 8.97084 8.48504 0.5
773 6.01943 6.61713 11.0459 0.5
774 10.1071 7.68369 9.75451 0.5
775 2.67103 7.14031 0.525989 0.5
776 3.49552 3.70465 12.8415 0.5
777 3.15538 1.18443 3.74554 0.5
778 9.18375 2.11285 3.4731 0.5
779 2.80608 12.2292 9.99684 0.5
780 12.3623 11.0066 6.75174 0.5
781 4.07594 6.83577 13.1791 0.5
782 8.10023 7.85458 2.26888 0.5
783 8.68433 12.9852 7.88614 0.5
784 8.97016 1.74062 12.127 0.5
785 8.85617 1.88934 7.3493 0.5
786 9.19762 2.88329 5.91657 0.5
787 10.9932 1.89603 1.94731 0.5
788 4.96249 3.94756 12.5724 0.5
789 0.783695 0.980192 10.3155 0.5
790 10.7629 8.07683 10.107 0.5
791 8.26974 11.3667 2.50299 0.5
792 9.89925 1.87585 1.02786 0.5
793 4.0663 1.76132 8.95809 0.5
794 5.87061 1.47439 3.16955 0.5
795 0.0593011 2.53799 2.51478 0.5
796 7.44128 13.2239 8.22657 0.5
797 7.15799 7.68728 4.30735 0.5
798 6.05551 7.86471 8.47417 0.5
799 12.6099 9.24442 0.970684 0.5
800 2.56882 1.39855 11.7379 0.5
801 6.21308 9.62663 5.43029 0.5
802 5.87621 11.6768 7.7624 0.5
803 0.166061 10.9921 5.61859 0.5
804 0.794687 6.47337 10.1265 0.5
805 10.8638 9.05857 1.19517 0.5
806 9.64125 12.6798 6.83617 0.5
807 2.76893 0.170951 0.890552 0.5
808 2.48491 5.44775 0.859295 0.5
809 1.14975 13.1089 13.2823 0.5
810 8.53811 4.83602 11.4769 0.5
811 4.32909 8.35207 9.86599 0.5
812 0.169115 0.702493 2.48873 0.5
813 11.197 3.75178 8.9206 0.5
814 7.00117 6.84668 11.087 0.5
815 10.8672 5.57247 11.6685 0.5
816 9.77379 13.0056 3.485 0.5
817 1.84401 1.42568 10.762 0.5
818 10.7403 13.1383 6.76687 0.5
819 6.76426 11.3272 6.26071 0.5
820 7.61237 13.184 5.10676 0.5
821 0.764653 0.487109 11.9807 0.5
822 6.50306 9.15434 12.5502 0.5
823 12.7305 12.2394 0.609822 0.5
824 2.17729 12.7926 0.179616 0.5
825 12.9987 10.7232 0.371187 0.5
826 9.37121 12.5735 8.6634 0.5
827 4.81339 2.30485 11.608 0.5
828 10.9109 8.09198 12.0832 0.5
829 8.08975 4.47491 11.029 0.5
830 7.73259 1.08674 6.11465 0.5
831 7.23844 0.478884 8.14177 0.5
832 12.7047 12.645 2.82026 0.5
833 11.9598 12.5675 8.46577 0.5
834 9.99096 11.5043 12.722 0.5
835 8.6961 7.2945 0.82443 0.5
836 0.399442 0.727295 2.64564 0.5
837 4.36392 7.06408 7.03195 0.5
838 6.55671 1.11578 7.91567 0.5
839 8.54509 1.25575 2.62235 0.5
840 0.138529 10.2303 6.47488 0.5
841 3.59487 5.90577 3.27922 0.5
842 5.08012 3.59401 13.5334 0.5
843 4.23865 3.69193 4.40961 0.5
844 11.3292 10.5932 8.48831 0.5
845 11.5898 10.5314 12.2227 0.5
846 11.6088 6.20765 12.4926 0.5
847 10.5828 10.9494 4.24577 0.5
848 1.69681 1.27225 5.39682 0.5
849 1.64703 1.41616 12.1109 0.5
850 2.37927 4.59269 11.6428 0.5
851 3.50435 11.5474 10.668 0.5
852 5.32375 2.57183 9.83385 0.5
853 5.00378 11.4448 5.89005 0.5
854 3.83808 2.52346 0.992608 0.5
855 2.12257 6.00208 3.87958 0.5
856 12.6427 0.0575678 2.95269 0.5
857 9.62373 6.86693 13.1809 0.5
858 7.29702 0.10721 10.7224 0.5
859 10.3538 10.4672 10.075 0.5
860 4.3302 0.263767 9.51415 0.5
861 7.35827 11.8904 0.486727 0.5
862 7.90522 8.08241 8.24486 0.5
863 4.41241 7.5324 4.88789 0.5
864 6.36983 13.4925 1.12144 0.5
865 9.12884 4.64949 1.06166 0.5
866 11.4932 6.60572 1.76463 0.5
867 1.12425 3.55221 13.2837 0.5
868 2.41789 3.20578 0.970789 0.5
869 5.83565 4.52643 7.11814 0.5
870 8.89327 3.84223 3.57287 0.5
871 3.84478 7.61972 5.41324 0.5
872 1.82371 10.7876 9.12207 0.5
873 12.6957 4.1578 11.7924 0.5
874 2.83117 1.21458 4.24979 0.5
875 11.1277 12.0034 2.17038 0.5
876 13.5142 7.7045 5.7215 0.5
877 4.99735 1.60122 5.60692 0.5
878 7.50122 7.0035 10.9013 0.5
879 4.34779 5.117 2.67117 0.5
880 5.43922 6.54405 9.05239 0.5
881 0.650789 7.89433 0.870016 0.5
882 12.5941 7.68543 3.01114 0.5
883 1.75835 13.2657 3.79482 0.5
884 3.37585 2.89393 10.4043 0.5
885 12.2569 3.56826 4.67118 0.5
886 1.75457 10.1711 12.0995 0.5
887 0.395767 8.00141 5.30773 0.5
888 6.74621 7.65434 11.129 0.5
889 1.49154 1.80985 8.40975 0.5
890 13.1043 6.94907 1.50567 0.5
891 2.79966 0.675436 4.49197 0.5
892 7.35346 4.82016 4.11039 0.5
893 8.43069 8.40327 13.1412 0.5
894 5.30982 10.8933 4.24628 0.5
895 0.593252 12.5857 8.41455 0.5
896 11.5725 3.30158 7.24545 0.5
897 11.5441 7.08764 10.0602 0.5
898 1.01247 13.3996 12.8179 0.5
899 0.407039 2.70582 10.9016 0.5
900 9.12848 11.2177 1.45088 0.5
901 5.34541 11.4932 1.04519 0.5
902 6.78629 10.1557 9.70736 0.5
903 12.255 7.92584 3.8434 0.5
904 11.6278 8.00833 2.45036 0.5
905 1.07588 4.7633 11.3447 0.5
906 9.75759 10.064 5.52563 0.5
907 0.615336 11.3849 8.53872 0.5
908 2.68122 10.7902 0.0735202 0.5
909 11.2579 1.45852 0.423021 0.5
910 3.39267 8.83653 1.03065 0.5
911 7.81421 3.14843 2.26815 0.5
912 2.88263 7.44095 3.45036 0.5
913 2.01211 8.63578 4.37286 0.5
914 13.5591 6.27228 5.4071 0.5
915 12.5626 12.4167 9.28946 0.5
916 8.85007 0.956948 11.942 0.5
917 12.5134 1.46757 8.65512 0.5
918 0.942232 6.40429 5.42226 0.5
919 0.755724 1.88632 8.55335 0.5
920 8.09928 2.91106 7.71757 0.5
921 9.52043 2.74501 4.95684 0.5
922 10.4375 5.27366 7.11062 0.5
923 8.10679 3.06888 11.0319 0.5
924 6.80548 8.24777 12.4506 0.5
925 2.25252 3.40896 10.1413 0.5
926 7.03859 1.03135 4.66823 0.5
927 9.85982 8.99635 9.30778 0.5
928 0.127126 7.44893 7.8779 0.5
929 8.23257 10.1117 2.49324 0.5
930 7.82063 6.4224 0.609681 0.5
931 4.03603 10.4938 6.38443 0.5