ITEM: TIMESTEP
110000
ITEM: NUMBER OF ATOMS
1000
ITEM: BOX BOUNDS xy xz yz pp pp pp
0.0000000000000000e+00 1.3572088000000001e+01 0.0000000000000000e+00
0.0000000000000000e+00 1.3572088000000001e+01 0.0000000000000000e+00
0.0000000000000000e+00 1.3572088000000001e+01 0.0000000000000000e+00
ITEM: ATOMS id x y z radius
1 11.9031 0.436541 12.9807 0.5
2 8.16827 7.72423 12.404 0.5
3 3.5802 10.7077 3.287 0.5
4 10.9615 4.83283 10.3935 0.5
5 4.48047 6.8691 4.97674 0.5
6 9.60418 12.5032 13.5109 0.5
7 12.5692 3.6136 0.0461367 0.5
8 7.5302 5.75468 5.06874 0.5
9 1.99924 1.70033 8.17812 0.5
10 12.0831 1.11817 9.49602 0.5
11 7.71529 7.903 8.29799 0.5
12 10.7863 4.27202 10.568 0.5
13 10.9193 5.43079 2.31745 0.5
14 11.106 13.1047 12.7932 0.5
15 8.19783 6.44504 9.95339 0.5
16 1.77855 2.92117 5.75643 0.5
17 0.696883 4.27861 3.3924 0.5
18 1.09622 11.7906 11.6591 0.5
19 6.93888 6.30976 2.08493 0.5
20 0.355241 5.13683 2.57756 0.5
21 9.68938 11.8276 9.18888 0.5
22 3.6774 4.12439 2.6597 0.5
23 12.903 3.59404 4.26758 0.5
24 3.83975 2.83183 7.8946 0.5
25 0.311905 0.77009 10.2533 0.5
26 0.148859 3.44799 5.10654 0.5
27 7.22533 7.88541 6.05093 0.5
28 1.18598 2.38105 11.2264 0.5
29 8.50524 3.82952 13.0553 0.5
30 13.0617 0.557813 13.5035 0.5
31 9.23289 13.3281 7.02685 0.5
32 13.1476 13.3795 3.40256 0.5
33 11.2133 7.96446 12.18 0.5
34 8.92038 13.1111 9.85243 0.5
35 11.4502 0.747648 8.59733 0.5
36 11.9096 6.73331 2.56833 0.5
37 1.80725 1.46153 9.44436 0.5
38 9.42245 1.50712 1.75358 0.5
39 12.9776 6.94762 0.769743 0.5
40 2.41594 9.735 7.79348 0.5
41 3.7293 0.0416796 4.08527 0.5
42 12.0454 5.93489 8.66086 0.5
43 7.0158 2.24384 8.19512 0.5
44 6.52135 4.32281 8.68734 0.5
45 3.26452 1.8592 1.07237 0.5
46 3.31819 5.55827 4.16052 0.5
47 7.66762 11.5784 11.3715 0.5
48 8.47015 6.95359 10.4365 0.5
49 10.4072 9.17392 3.80621 0.5
50 1.03822 1.5781 5.11317 0.5
51 10.9206 11.9713 7.33991 0.5
52 9.16549 8.05211 2.39795 0.5
53 12.631 5.2872 13.4184 0.5
54 5.45771 11.2952 5.69677 0.5
55 3.84487 5.43327 10.1369 0.5
56 0.193875 2.87666 6.22397 0.5
57 11.0014 3.23832 9.87531 0.5
58 9.81544 11.8964 12.9916 0.5
59 9.68184 3.04977 12.1803 0.5
60 4.9795 7.53204 10.3335 0.5
61 13.1616 0.640021 2.32101 0.5
62 12.192 1.65413 1.022 0.5
63 9.29767 7.70799 2.78887 0.5
64 1.545 5.82301 9.88291 0.5
65 5.90669 1.46026 13.0598 0.5
66 13.4654 5.98569 0.933897 0.5
67 5.9337 2.21668 1.21223 0.5
68 6.74451 5.60414 7.53837 0.5
69 1.83911 0.70975 13.1999 0.5
70 10.4553 7.33107 9.4047 0.5
71 12.0859 2.67973 0.517053 0.5
72 5.88749 5.51847 8.17635 0.5
73 4.85282 12.0753 3.03758 0.5
74 1.80564 12.8422 10.214 0.5
75 3.34276 13.4082 1.91651 0.5
76 5.10156 0.0687973 3.40583 0.5
77 12.4409 3.36731 0.248604 0.5
78 11.6779 10.4827 9.23685 0.5
79 7.61516 6.97591 10.0407 0.5
80 10.6505 5.5479 6.13242 0.5
81 12.0102 4.57399 1.40228 0.5
82 5.3465 5.49 11.8922 0.5
83 5.81153 4.1116 9.50396 0.5
84 12.8273 13.3833 6.07698 0.5
85 5.02802 11.7345 11.0453 0.5
86 6.4754 11.1528 0.34859 0.5
87 13.4093 8.76709 12.5463 0.5
88 3.81742 6.48913 1.26845 0.5
89 1.79205 2.31973 9.88482 0.5
90 9.85293 13.0623 7.01957 0.5
91 9.72409 11.9581 0.259905 0.5
92 3.51126 7.16705 13.4854 0.5
93 7.61158 13.1042 0.402478 0.5
94 11.4105 3.31782 9.26873 0.5
95 11.5307 3.57995 13.2257 0.5
96 12.7942 6.24647 9.09167 0.5
97 1.36249 6.02733 3.41611 0.5
98 9.07524 7.23553 10.7625 0.5
99 8.87961 3.57089 1.77216 0.5
100 6.75985 3.78646 12.3303 0.5
101 12.1745 10.4589 6.31986 0.5
102 12.5562 1.13207 8.86828 0.5
103 6.08279 1.68974 3.60505 0.5
104 7.21508 1.59783 11.4247 0.5
105 6.27438 12.1867 7.89602 0.5
106 12.9962 2.96276 10.5367 0.5
107 0.352102 13.3111 5.45151 0.5
108 13.4774 0.27461 8.27527 0.5
109 2.17952 13.209 5.8543 0.5
110 13.2775 5.27284 11.819 0.5
111 0.476242 7.09295 5.79615 0.5
112 0.0510969 7.34062 12.6706 0.5
113 9.60376 12.6456 3.35866 0.5
114 2.4257 7.51195 9.53152 0.5
115 13.1766 0.682507 5.19312 0.5
116 11.9726 0.604071 11.4517 0.5
117 4.88511 13.3306 5.44592 0.5
118 2.55775 0.0213173 2.75034 0.5
119 2.81334 10.0006 12.3333 0.5
120 7.78718 3.80448 2.50588 0.5
121 1.70784 4.80703 11.9951 0.5
122 6.16333 7.81198 5.30003 0.5
123 3.10546 6.56191 12.4254 0.5
124 11.8871 12.1719 10.8588 0.5
125 3.50842 11.2781 2.7497 0.5
126 8.37309 1.47092 3.81381 0.5
127 3.86228 2.77235 12.8771 0.5
128 11.4515 6.97154 8.02195 0.5
129 5.70386 2.88597 9.81501 0.5
130 3.85647 11.2004 0.72723 0.5
131 5.38351 0.666026 6.843 0.5
132 9.03959 7.44266 9.62247 0.5
133 9.49669 1.15428 12.8272 0.5
134 8.42734 5.19857 7.51396 0.5
135 3.04771 2.22915 0.912101 0.5
136 2.71757 1.91453 0.313702 0.5
137 4.03244 1.80076 9.69062 0.5
138 13.2848 5.1139 7.32244 0.5
139 11.6841 6.71351 1.75666 0.5
140 9.80223 11.1174 4.2699 0.5
141 0.237133 5.78823 12.7198 0.5
142 4.44059 10.7976 11.0092 0.5
143 3.48755 13.2793 3.93465 0.5
144 4.93189 9.87818 11.6373 0.5
145 4.87614 10.2544 4.22278 0.5
146 4.89296 3.06302 9.7016 0.5
147 8.54667 10.406 12.6759 0.5
148 12.8618 9.44567 8.32321 0.5
149 10.0344 11.4374 8.15736 0.5
150 10.4562 7.61702 0.537307 0.5
151 13.3176 7.23192 11.4872 0.5
152 12.4015 3.56099 3.74862 0.5
153 12.4386 1.22859 3.97277 0.5
154 9.46715 8.34374 3.94612 0.5
155 9.65729 2.28649 7.64252 0.5
156 13.1208 12.0402 3.60234 0.5
157 0.46866 9.18211 3.13707 0.5
158 8.33979 2.12734 5.71894 0.5
159 7.60525 12.8258 1.20004 0.5
160 10.0814 10.5668 9.03326 0.5
161 0.488202 9.94886 6.5117 0.5
162 7.35216 12.0432 13.1356 0.5
163 11.2895 7.4084 9.45921 0.5
164 0.963017 2.32455 6.25086 0.5
165 13.4924 10.5833 13.2923 0.5
166 10.9427 3.53353 0.350929 0.5
167 9.24063 2.74814 7.29237 0.5
168 8.62967 7.91825 0.038049 0.5
169 0.338367 6.85897 4.93695 0.5
170 8.87826 3.57754 4.85847 0.5
171 3.28668 7.47723 12.9945 0.5
172 1.51545 3.68598 4.57475 0.5
173 7.38268 5.98029 7.23177 0.5
174 9.85663 1.60756 11.5581 0.5
175 6.47297 9.80593 6.32322 0.5
176 13.0078 1.03313 12.7585 0.5
177 9.0797 10.5658 10.7497 0.5
178 3.17611 4.73743 1.11907 0.5
179 8.60416 7.67089 6.3621 0.5
180 1.33563 11.4103 10.5428 0.5
181 11.0581 3.52259 9.30957 0.5
182 3.90321 4.89611 7.94066 0.5
183 2.11577 10.6603 11.5235 0.5
184 5.49953 10.2431 7.31008 0.5
185 7.45675 10.7724 9.209 0.5
186 12.0134 2.29632 4.29386 0.5
187 12.4811 11.2434 9.31963 0.5
188 1.82488 7.41599 3.88116 0.5
189 8.4143 11.9449 1.19932 0.5
190 13.3024 2.58119 0.563127 0.5
191 6.02154 5.64459 2.52521 0.5
192 11.6482 2.52191 13.071 0.5
193 9.09758 2.71741 11.795 0.5
194 0.696958 6.86322 10.6958 0.5
195 4.57126 13.0248 3.7277 0.5
196 2.99893 8.47299 3.79011 0.5
197 4.56257 11.7511 13.3835 0.5
198 3.78351 5.55388 3.95978 0.5
199 1.85932 13.5321 1.18519 0.5
200 7.35066 10.4582 13.0295 0.5
201 10.9398 7.86468 0.090925 0.5
202 2.20049 4.65416 3.49817 0.5
203 3.77405 2.0753 2.78256 0.5
204 8.2234 5.2823 5.57908 0.5
205 8.6132 6.04908 12.6376 0.5
206 6.95116 11.4551 12.3336 0.5
207 10.9393 0.513423 13.4105 0.5
208 4.61124 7.54492 5.486 0.5
209 3.3965 12.0594 12.8135 0.5
210 9.33958 6.27935 10.4653 0.5
211 8.81763 3.88621 13.1563 0.5
212 4.27569 3.66188 0.779977 0.5
213 12.619 6.10523 7.91344 0.5
214 3.29016 12.6207 9.25146 0.5
215 5.60857 5.52852 0.770972 0.5
216 6.98388 8.48188 4.53406 0.5
217 12.9903 11.0985 10.516 0.5
218 3.82761 5.19277 12.4092 0.5
219 6.96867 1.81661 10.2266 0.5
220 9.66901 10.5076 10.266 0.5
221 6.94295 13.4689 12.0515 0.5
222 2.55077 1.31788 8.37627 0.5
223 6.1821 7.74358 9.39499 0.5
224 13.3211 12.8818 7.43111 0.5
225 3.85356 2.96319 5.83436 0.5
226 10.6187 13.0507 6.66912 0.5
227 1.53989 11.6087 3.50626 0.5
228 3.39531 10.8998 4.75741 0.5
229 4.86726 8.40768 10.1361 0.5
230 13.2439 7.80008 0.0885587 0.5
231 7.97743 8.05891 5.40229 0.5
232 9.52727 11.6997 4.09779 0.5
233 1.35488 8.41359 10.1378 0.5
234 11.9377 8.98765 6.23327 0.5
235 1.49998 10.6398 9.99563 0.5
236 6.89733 2.01575 3.53393 0.5
237 9.25387 4.59897 3.07001 0.5
238 2.636 6.40312 11.2408 0.5
239 3.2258 3.1403 6.72719 0.5
240 7.46543 11.0001 9.68806 0.5
241 7.63719 6.55316 8.09077 0.5
242 3.49194 0.384856 1.5869 0.5
243 7.29359 5.58387 7.53887 0.5
244 2.59443 9.29843 9.6319 0.5
245 8.95248 8.72147 12.0855 0.5
246 4.22375 12.9545 3.26719 0.5
247 0.650339 8.29737 8.97287 0.5
248 0.533563 10.2616 5.52318 0.5
249 6.21589 13.0396 12.272 0.5
250 3.76808 11.9927 10.1832 0.5
251 6.67414 10.7968 6.99225 0.5
252 6.55691 3.11983 11.3913 0.5
253 3.31138 6.4748 12.6135 0.5
254 1.38505 3.15154 2.65658 0.5
255 8.28044 8.06746 7.81802 0.5
256 6.56063 5.82406 2.18594 0.5
257 13.2992 7.21794 8.70237 0.5
258 5.35146 6.07299 6.15865 0.5
259 6.22048 6.21443 2.28223 0.5
260 12.6857 8.27108 8.27561 0.5
261 11.4509 4.16572 7.70074 0.5
262 6.56427 7.87936 11.448 0.5
263 12.5601 10.7726 1.87988 0.5
264 8.21759 5.07958 0.0716502 0.5
265 8.29047 2.91856 9.9098 0.5
266 4.13873 11.7303 6.1825 0.5
267 3.38758 8.48128 10.7618 0.5
268 6.12711 9.89716 11.6118 0.5
269 0.661088 5.09024 6.8543 0.5
270 0.8927 7.5796 5.12238 0.5
271 3.01055 3.12154 2.39835 0.5
272 5.12844 5.21595 11.3969 0.5
273 11.9045 11.6678 1.54792 0.5
274 9.93256 12.834 0.378671 0.5
275 3.52289 8.35842 7.1589 0.5
276 4.53994 1.55779 13.0254 0.5
277 10.2547 8.02464 9.93427 0.5
278 1.59 7.29511 5.58351 0.5
279 4.39587 10.2693 6.2517 0.5
280 8.55426 8.27096 11.0366 0.5
281 8.82733 1.00741 2.05806 0.5
282 4.3101 8.09188 0.946137 0.5
283 11.4469 12.1562 0.045198 0.5
284 8.31419 7.92186 0.133221 0.5
285 13.4373 11.196 11.7828 0.5
286 8.27097 8.47022 4.26415 0.5
287 6.99089 2.22912 2.92752 0.5
288 9.84206 4.13482 7.32797 0.5
289 8.77754 8.16715 10.3105 0.5
290 1.97227 6.66815 4.8961 0.5
291 5.89405 6.30883 2.06223 0.5
292 6.85703 12.7301 0.118101 0.5
293 6.814 5.3887 8.8095 0.5
294 0.501386 6.81597 1.35134 0.5
295 9.20347 10.6504 1.34345 0.5
296 7.03964 7.09068 11.6853 0.5
297 8.73028 7.25398 12.4282 0.5
298 2.87737 7.25136 12.4988 0.5
299 7.40611 6.08412 5.60111 0.5
300 8.65808 8.48972 1.40926 0.5
301 7.99493 7.20299 0.177374 0.5
302 10.1531 1.95359 5.40704 0.5
303 2.16747 9.51915 1.5115 0.5
304 8.08393 13.0038 6.23927 0.5
305 0.93076 7.59822 4.61878 0.5
306 6.98215 11.7337 11.4783 0.5
307 5.18822 2.45528 6.61704 0.5
308 12.302 0.333803 0.662963 0.5
309 8.85444 3.82271 10.4509 0.5
310 1.85538 1.73809 6.05757 0.5
311 12.704 7.21589 0.397492 0.5
312 1.9348 5.80431 7.81786 0.5
313 9.20449 2.30806 4.24622 0.5
314 8.15943 13.2519 7.54511 0.5
315 11.8126 2.72919 11.8076 0.5
316 6.4106 5.69099 8.76225 0.5
317 1.42132 7.18957 6.40088 0.5
318 12.0441 3.17652 3.32663 0.5
319 9.79921 12.3142 1.55498 0.5
320 12.46 6.83726 9.83563 0.5
321 7.12275 7.18187 4.32088 0.5
322 4.40054 0.74802 1.98225 0.5
323 12.6297 6.60181 4.05293 0.5
324 12.654 9.56772 10.8949 0.5
325 13.3082 7.69802 5.79033 0.5
326 2.938 4.53804 13.5741 0.5
327 8.03075 5.77394 1.53515 0.5
328 7.31238 1.38378 12.8187 0.5
329 4.91945 4.0169 6.39442 0.5
330 5.96022 10.0758 4.93276 0.5
331 9.3018 8.44236 0.500547 0.5
332 3.06483 4.82409 13.1317 0.5
333 0.434476 5.88737 10.275 0.5
334 0.705855 6.46917 11.2248 0.5
335 6.67617 10.0769 2.83981 0.5
336 2.8942 3.139 1.4408 0.5
337 9.98172 11.7322 6.44729 0.5
338 8.63758 10.0247 8.00658 0.5
339 10.3564 10.4919 0.516616 0.5
340 10.8472 6.28529 10.1942 0.5
341 9.63299 11.9985 0.718861 0.5
342 10.9723 9.04779 8.62987 0.5
343 13.4274 12.1187 10.4326 0.5
344 5.25605 11.0283 2.32416 0.5
345 9.82567 12.3252 8.25292 0.5
346 1.56652 1.22345 6.42975 0.5
347 1.55545 12.1794 8.39844 0.5
348 4.5628 7.79224 10.9377 0.5
349 9.9517 12.7019 10.1736 0.5
350 8.44103 6.50392 9.16445 0.5
351 12.9558 11.9193 12.87 0.5
352 6.67918 6.91557 8.20755 0.5
353 12.7189 2.17859 3.97774 0.5
354 6.54539 10.7789 10.6972 0.5
355 10.2407 10.155 10.5834 0.5
356 13.3019 4.39979 8.8019 0.5
357 2.06037 12.0256 9.32137 0.5
358 8.68206 0.114079 11.4351 0.5
359 9.64549 10.2213 8.13463 0.5
360 12.4706 2.69936 6.34813 0.5
361 6.99941 1.19402 0.49921 0.5
362 6.00398 11.0966 4.99607 0.5
363 6.78731 9.30767 0.427147 0.5
364 8.962 0.558127 5.43421 0.5
365 8.8206 1.5284 12.954 0.5
366 9.09897 11.3612 0.377418 0.5
367 12.5852 3.13434 5.82305 0.5
368 7.56061 7.08654 13.0766 0.5
369 4.01059 11.4553 1.84052 0.5
370 8.62567 6.09653 7.96402 0.5
371 10.0706 3.00579 2.77202 0.5
372 8.28411 7.56119 9.47803 0.5
373 4.14143 9.53691 5.9572 0.5
374 4.8482 5.68085 3.35426 0.5
375 9.52746 5.56283 12.5636 0.5
376 2.02264 11.7733 1.88844 0.5
377 10.7624 6.98843 2.15802 0.5
378 4.83758 9.72135 8.51905 0.5
379 9.06966 6.90897 7.97594 0.5
380 8.33357 10.4517 13.4339 0.5
381 9.63216 8.76579 0.235186 0.5
382 5.92415 10.2767 1.64837 0.5
383 2.36832 10.9261 2.42926 0.5
384 11.6123 5.88697 3.11377 0.5
385 7.65297 7.66817 3.45216 0.5
386 12.1393 3.74826 13.2779 0.5
387 7.29754 11.1027 1.42741 0.5
388 12.3009 2.69664 6.8398 0.5
389 5.00951 1.5512 12.7715 0.5
390 5.86314 12.1066 0.553752 0.5
391 7.14373 4.64807 11.6357 0.5
392 8.28187 8.8743 3.56566 0.5
393 4.14501 8.89841 2.65696 0.5
394 3.95894 7.36632 6.83174 0.5
395 2.35748 4.775 2.40641 0.5
396 7.54192 8.10304 10.6108 0.5
397 7.77992 6.27025 5.70764 0.5
398 0.648696 9.13102 12.3388 0.5
399 2.31392 10.6198 11.9152 0.5
400 6.03716 11.5955 5.73998 0.5
401 11.0279 10.3024 3.31313 0.5
402 11.9177 1.11295 9.26261 0.5
403 7.64105 6.83309 7.59007 0.5
404 0.628586 12.6036 11.8691 0.5
405 4.24235 7.47642 0.871176 0.5
406 8.10253 10.718 9.49346 0.5
407 3.1754 3.70098 10.9305 0.5
408 9.40488 9.57973 8.32714 0.5
409 1.94312 12.5049 12.8158 0.5
410 1.96128 10.5445 5.15935 0.5
411 8.49419 10.8492 0.235516 0.5
412 10.0592 9.0076 3.04328 0.5
413 6.72275 9.20227 4.44995 0.5
414 9.31975 11.0862 7.68064 0.5
415 3.19872 0.41785 5.97945 0.5
416 4.67946 8.82112 11.5196 0.5
417 6.04382 6.97065 4.20732 0.5
418 5.23009 3.85427 6.3288 0.5
419 2.34653 6.1777 12.9928 0.5
420 8.32447 10.0866 10.0086 0.5
421 9.04417 13.2297 4.57535 0.5
422 0.814744 13.5516 6.21774 0.5
423 9.1025 1.71813 4.02159 0.5
424 10.0726 0.0819938 9.686 0.5
425 10.8457 5.51286 3.12435 0.5
426 9.0887 13.4202 13.0708 0.5
427 11.7889 11.19 7.09166 0.5
428 8.22671 7.93159 1.76794 0.5
429 5.99121 11.5987 1.43822 0.5
430 8.02746 5.60848 1.58473 0.5
431 6.08884 13.2562 8.45804 0.5
432 8.50275 12.2917 5.72309 0.5
433 8.11476 2.69131 6.01005 0.5
434 1.77509 10.0029 6.1325 0.5
435 8.90115 7.82238 11.5664 0.5
436 7.68443 9.47114 2.16411 0.5
437 9.43817 4.05913 1.66448 0.5
438 12.0628 1.95772 10.9717 0.5
439 1.0915 4.92269 6.70085 0.5
440 3.04512 4.32189 8.91071 0.5
441 8.34823 3.45094 2.66901 0.5
442 13.476 8.60239 5.29172 0.5
443 1.13236 8.26057 12.12 0.5
444 11.7678 1.23161 0.875199 0.5
445 0.626874 3.04097 7.83562 0.5
446 9.23468 11.0369 5.17845 0.5
447 5.32857 1.75374 3.0511 0.5
448 1.66516 11.4768 10.6462 0.5
449 7.12725 4.55801 5.17117 0.5
450 6.77895 11.7154 11.2318 0.5
451 6.11223 0.726027 13.2219 0.5
452 2.91291 3.38134 3.84493 0.5
453 0.593048 1.54452 7.97823 0.5
454 6.93837 12.484 13.4611 0.5
455 3.47749 2.93759 1.43739 0.5
456 9.67361 7.94894 3.7769 0.5
457 11.8137 0.0962388 7.74434 0.5
458 1.417 5.81354 3.54256 0.5
459 5.10008 10.4279 1.00822 0.5
460 12.8472 0.522895 11.148 0.5
461 7.21029 9.0411 10.8874 0.5
462 10.9644 4.6813 3.5418 0.5
463 2.05039 1.38167 0.787704 0.5
464 9.81397 4.78787 5.02443 0.5
465 8.33011 6.20171 5.82479 0.5
466 8.53042 10.7886 4.2949 0.5
467 3.93624 4.3328 12.7322 0.5
468 0.968403 8.81466 12.29 0.5
469 6.75716 9.7075 7.58456 0.5
470 12.5986 10.7007 1.22807 0.5
471 2.53545 3.41595 9.87847 0.5
472 7.07211 0.384273 6.74113 0.5
473 2.76912 3.52969 3.70057 0.5
474 1.78257 5.50407 9.95834 0.5
475 2.02154 12.0002 4.87469 0.5
476 4.41493 0.0671705 10.5927 0.5
477 12.8778 11.4897 12.5247 0.5
478 3.33936 0.620599 0.580064 0.5
479 13.0574 12.476 8.67224 0.5
480 7.18572 4.26574 5.52071 0.5
481 0.636861 2.27769 4.23471 0.5
482 4.05337 12.8813 7.3698 0.5
483 10.4849 8.08263 4.03744 0.5
484 7.73507 8.25779 1.7982 0.5
485 2.61197 11.3886 3.08814 0.5
486 2.5834 2.18304 8.96948 0.5
487 6.81605 3.39341 4.26547 0.5
488 13.3335 5.44815 2.61681 0.5
489 12.7562 5.25948 13.3208 0.5
490 0.84063 1.03213 3.93214 0.5
491 8.19983 11.9072 9.79024 0.5
492 9.60628 6.31754 12.2111 0.5
493 11.7588 6.65031 6.23579 0.5
494 12.5205 11.7866 3.88226 0.5
495 7.3855 8.48713 4.77942 0.5
496 8.80043 9.18142 0.363621 0.5
497 8.987 4.70876 0.172318 0.5
498 8.24352 3.34795 6.62896 0.5
499 5.61595 3.72894 3.43075 0.5
500 12.204 6.86841 12.753 0.5
501 7.63117 2.77544 13.1105 0.5
502 8.58786 8.65876 2.68061 0.5
503 5.13358 12.1203 9.11305 0.5
504 8.7872 4.58609 11.4123 0.5
505 1.19249 7.49135 2.27601 0.5
506 0.491772 13.4841 12.4111 0.5
507 8.85823 10.4245 0.956919 0.5
508 2.43536 9.43351 11.8721 0.5
509 0.015287 9.25948 0.7522 0.5
510 11.7567 1.83074 3.17505 0.5
511 1.62965 5.00839 5.37734 0.5
512 1.25429 8.56141 5.09443 0.5
513 12.0056 3.06645 9.40012 0.5
514 10.6705 8.42809 10.9023 0.5
515 2.62112 5.54828 7.81932 0.5
516 11.0688 13.5475 6.95662 0.5
517 10.3995 9.15641 0.921889 0.5
518 4.66605 12.5383 10.4627 0.5
519 2.06325 10.2376 9.88177 0.5
520 1.17207 1.37886 3.79722 0.5
521 12.4357 11.6731 4.72464 0.5
522 12.4252 4.60908 11.9395 0.5
523 6.18022 1.05172 13.218 0.5
524 7.6435 9.59294 1.067 0.5
525 6.41021 2.92963 10.5119 0.5
526 12.0105 12.273 11.8017 0.5
527 8.33936 12.7053 2.49128 0.5
528 3.80294 10.733 7.2909 0.5
529 11.3863 0.18196 1.47601 0.5
530 5.14937 2.01383 10.4487 0.5
531 11.7375 3.20863 1.87943 0.5
532 12.2544 12.6705 8.68891 0.5
533 5.07289 6.97181 0.990769 0.5
534 1.85308 1.68633 1.62887 0.5
535 3.18877 6.14859 7.50439 0.5
536 13.0999 1.33888 9.08653 0.5
537 11.0886 9.2891 4.15636 0.5
538 5.1289 11.1955 3.77266 0.5
539 13.3905 7.1708 9.99803 0.5
540 1.5424 11.2379 4.48749 0.5
541 4.58689 11.7819 4.86929 0.5
542 7.36873 8.00277 8.638 0.5
543 2.12267 8.74262 8.49509 0.5
544 9.8511 5.39679 7.78713 0.5
545 5.85569 5.93463 4.8996 0.5
546 9.60229 12.8759 0.448157 0.5
547 5.33878 2.7249 11.4245 0.5
548 11.1271 10.7402 2.59004 0.5
549 3.63915 10.2515 6.02556 0.5
550 2.75665 8.27212 2.51195 0.5
551 13.4518 11.0909 12.7516 0.5
552 9.20816 1.89178 0.685223 0.5
553 1.18055 13.086 5.14311 0.5
554 10.7216 1.70067 1.67755 0.5
555 7.08888 4.4027 4.94803 0.5
556 4.22986 9.36394 6.91282 0.5
557 4.90819 8.24593 13.0904 0.5
558 7.86005 12.9582 0.434727 0.5
559 12.9601 13.5243 2.1544 0.5
560 0.343315 12.1159 6.33605 0.5
561 2.67552 2.61462 0.834794 0.5
562 7.69786 3.31549 2.71736 0.5
563 7.29747 8.79409 0.579444 0.5
564 4.92573 4.03396 4.84557 0.5
565 11.0474 1.50889 9.58872 0.5
566 12.0348 4.2978 13.429 0.5
567 0.270034 5.68214 8.08989 0.5
568 7.60809 0.792735 10.1247 0.5
569 8.15598 1.83999 2.16498 0.5
570 12.7059 7.2663 3.29859 0.5
571 2.41332 6.473 2.55258 0.5
572 2.5387 9.17318 3.54228 0.5
573 9.5091 2.94866 7.77242 0.5
574 10.7318 3.33143 1.86008 0.5
575 3.23429 0.432152 1.83652 0.5
576 8.19951 6.92843 2.88471 0.5
577 11.9018 3.2018 1.96507 0.5
578 6.18223 8.31324 6.18547 0.5
579 7.93866 8.56372 12.6852 0.5
580 1.20069 10.8041 6.13292 0.5
581 10.6583 12.4291 0.601826 0.5
582 5.57247 13.5362 2.30501 0.5
583 1.39082 11.3221 5.62307 0.5
584 9.50461 6.17413 1.66058 0.5
585 11.6379 6.96975 0.94777 0.5
586 12.657 1.02573 4.6337 0.5
587 5.69312 1.23613 7.28362 0.5
588 5.71377 5.28252 8.6487 0.5
589 4.33038 11.4342 11.6547 0.5
590 10.9194 8.44558 12.8306 0.5
591 10.5632 9.95711 11.4959 0.5
592 3.15063 7.75315 8.26225 0.5
593 3.22694 5.59747 6.06935 0.5
594 13.4147 6.85755 13.5724 0.5
595 12.9527 0.873793 12.6378 0.5
596 3.9245 13.3443 12.9838 0.5
597 13.4896 12.2423 4.99558 0.5
598 0.797877 2.03565 3.6343 0.5
599 1.28234 7.51489 7.40374 0.5
600 13.0431 9.4046 4.39292 0.5
601 9.14322 1.88844 1.248 0.5
602 13.4603 13.5384 2.71966 0.5
603 10.6653 8.33023 6.99974 0.5
604 11.5299 6.44755 6.10212 0.5
605 7.01949 7.31643 6.78703 0.5
606 7.3238 8.46758 0.31542 0.5
607 1.70224 9.54917 8.39615 0.5
608 6.01957 1.68428 10.1745 0.5
609 1.58982 2.83638 3.56287 0.5
610 1.62416 10.6647 3.86624 0.5
611 1.60062 0.84211 9.86942 0.5
612 4.86178 5.79978 11.234 0.5
613 6.84404 5.193 6.25911 0.5
614 5.59718 4.10121 1.04166 0.5
615 9.2122 0.622254 8.56599 0.5
616 10.3008 11.0377 0.069914 0.5
617 11.2241 3.51618 12.9598 0.5
618 7.44786 11.1305 8.92112 0.5
619 0.579214 3.50922 9.18929 0.5
620 6.63652 3.07676 10.6833 0.5
621 5.12354 4.707 2.66375 0.5
622 4.71329 10.0084 9.77729 0.5
623 7.09488 8.7847 1.13472 0.5
624 10.2325 1.40817 6.85559 0.5
625 2.91541 0.586797 3.43557 0.5
626 5.53547 6.99426 5.67497 0.5
627 7.97263 5.87271 13.234 0.5
628 4.93005 12.5949 12.8481 0.5
629 13.393 9.33618 10.7724 0.5
630 12.3029 1.54097 2.69683 0.5
631 6.89578 12.818 9.18542 0.5
632 3.87271 3.87236 4.38225 0.5
633 6.61185 13.4526 9.6391 0.5
634 7.02563 6.33665 12.3396 0.5
635 6.17375 10.5733 0.662179 0.5
636 8.37572 3.99324 9.40493 0.5
637 12.26 0.193074 2.84601 0.5
638 4.71015 11.839 11.3239 0.5
639 7.95402 0.987985 6.35778 0.5
640 11.46 12.0381 7.02209 0.5
641 5.27767 11.532 8.49059 0.5
642 3.35926 11.5096 2.09968 0.5
643 4.79409 5.5759 7.29727 0.5
644 6.46187 10.7117 5.28385 0.5
645 0.40836 5.04298 8.73407 0.5
646 11.7932 8.57144 13.0209 0.5
647 8.54413 9.87988 1.03451 0.5
648 10.2943 0.00355328 6.31326 0.5
649 8.90253 5.20406 11.8931 0.5
650 5.1133 12.4172 2.8553 0.5
651 12.1447 2.46755 12.7076 0.5
652 4.67751 5.50354 3.51065 0.5
653 8.20449 2.05813 2.26599 0.5
654 4.23803 13.0023 6.23875 0.5
655 3.10368 8.3974 3.96916 0.5
656 6.07476 10.3314 9.86766 0.5
657 3.3242 8.27203 10.8074 0.5
658 0.770225 3.15006 11.1563 0.5
659 4.74576 9.75495 6.35462 0.5
660 6.22208 6.68496 9.1966 0.5
661 4.00241 6.48704 3.36944 0.5
662 3.19313 12.8946 9.56521 0.5
663 1.98147 4.89076 1.73751 0.5
664 13.2019 10.8494 11.5022 0.5
665 13.2863 8.35764 6.73565 0.5
666 8.40738 3.8308 9.20304 0.5
667 2.77041 3.67333 3.70134 0.5
668 0.368977 5.90337 9.33723 0.5
669 3.45854 12.0578 11.6139 0.5
670 0.225132 6.56194 11.5675 0.5
671 9.6696 5.23343 12.2499 0.5
672 11.1524 13.2884 2.26587 0.5
673 6.26904 6.8739 2.66989 0.5
674 10.0476 1.54164 9.63841 0.5
675 6.06148 7.98578 10.0421 0.5
676 4.3383 3.553 13.1764 0.5
677 9.6882 10.9937 8.00338 0.5
678 12.8156 7.79544 12.1464 0.5
679 3.89613 3.70961 6.71068 0.5
680 2.64634 0.00740703 7.82035 0.5
681 5.53261 0.635947 9.68807 0.5
682 10.4416 1.42704 1.32709 0.5
683 2.55864 5.61138 9.40748 0.5
684 4.92809 8.36361 0.429096 0.5
685 4.52704 6.58716 13.1378 0.5
686 9.81214 12.5895 5.79387 0.5
687 9.25499 1.6529 3.01516 0.5
688 13.4391 10.2433 3.26934 0.5
689 2.70354 7.88541 4.49807 0.5
690 11.4237 5.42503 5.3748 0.5
691 4.49902 12.8818 8.88229 0.5
692 6.22025 10.9944 1.12355 0.5
693 6.20945 1.84207 3.60884 0.5
694 1.52278 2.17961 11.0185 0.5
695 5.52917 3.9862 2.08772 0.5
696 13.2491 8.44783 4.79078 0.5
697 10.7214 3.3299 12.8039 0.5
698 3.10739 3.47165 1.73311 0.5
699 7.48916 11.736 1.0445 0.5
700 10.6608 6.8245 3.61312 0.5
701 8.70398 1.00161 11.5897 0.5
702 9.69632 8.48221 2.08519 0.5
703 3.66987 2.71472 6.03023 0.5
704 10.3219 10.1692 3.37369 0.5
705 5.48785 13.2219 5.41226 0.5
706 10.2704 5.37498 11.5423 0.5
707 10.6217 10.2583 12.6696 0.5
708 8.79538 8.02718 3.77005 0.5
709 12.0514 6.80155 2.10098 0.5
710 7.89989 10.357 7.67636 0.5
711 12.8205 4.14805 1.36866 0.5
712 10.4497 5.77386 2.87042 0.5
713 7.88712 7.79905 11.8048 0.5
714 6.99816 6.25778 6.16576 0.5
715 4.22009 12.2098 8.9168 0.5
716 2.00787 7.62196 7.85482 0.5
717 5.35525 9.96927 1.67309 0.5
718 8.97781 10.9336 9.95127 0.5
719 3.38233 2.61179 11.0145 0.5
720 3.84175 4.03866 12.229 0.5
721 12.5721 0.664081 10.7181 0.5
722 10.4521 4.55465 13.3324 0.5
723 10.9335 12.0225 6.18047 0.5
724 11.9581 10.1088 7.51953 0.5
725 7.73342 5.01561 5.71674 0.5
726 0.719539 4.56609 2.87479 0.5
727 1.47765 11.7373 0.990735 0.5
728 5.26989 0.299813 1.66114 0.5
729 6.95177 7.71392 6.98453 0.5
730 10.9994 7.77524 3.65585 0.5
731 4.98594 2.13665 10.9328 0.5
732 3.42609 6.06825 3.9531 0.5
733 5.48634 7.27751 0.417401 0.5
734 11.5316 9.1836 4.53973 0.5
735 4.28147 1.0365 9.92699 0.5
736 6.9246 1.98511 4.41503 0.5
737 10.1922 6.20929 9.17738 0.5
738 7.60786 6.82915 0.784026 0.5
739 1.81757 4.71503 0.206844 0.5
740 6.56954 7.27635 4.7267 0.5
741 8.3307 11.4383 7.5197 0.5
742 11.8452 4.90533 4.21479 0.5
743 8.18387 0.831162 1.93182 0.5
744 7.24949 9.81592 3.32709 0.5
745 5.60824 13.3983 5.01127 0.5
746 5.50173 5.07398 1.00337 0.5
747 10.0387 4.00507 5.04034 0.5
748 1.50116 0.775071 3.8025 0.5
749 2.34751 11.3514 7.84509 0.5
750 5.55695 1.76814 6.14921 0.5
751 1.24445 13.1286 7.80063 0.5
752 11.5861 9.25359 4.91104 0.5
753 1.66287 9.37746 11.1379 0.5
754 1.05506 4.69465 9.85461 0.5
755 1.4485 1.64409 0.805336 0.5
756 0.190293 7.7003 5.99463 0.5
757 10.413 5.67149 11.4649 0.5
758 3.05914 0.472366 8.40602 0.5
759 8.98048 7.30872 3.76291 0.5
760 1.89454 0.716519 11.0009 0.5
761 2.80047 5.67303 6.73956 0.5
762 1.28695 7.6662 8.40532 0.5
763 4.72289 4.77672 9.07645 0.5
764 5.74601 2.48633 6.18288 0.5
765 8.60915 5.03307 11.0643 0.5
766 10.4144 5.25993 9.24684 0.5
767 0.548304 3.20985 6.90461 0.5
768 9.31741 12.4135 3.78299 0.5
769 12.1437 5.44908 1.04671 0.5
770 4.46622 1.67216 13.3221 0.5
771 3.57785 9.08325 10.5522 0.5
772 11.0353 1.94853 5.72848 0.5
773 5.56787 7.75564 7.36553 0.5
774 11.2673 1.93151 9.19046 0.5
775 13.4893 6.502 13.147 0.5
776 6.64625 6.13486 5.34974 0.5
777 3.46544 13.4264 13.2323 0.5
778 10.3806 7.42429 12.607 0.5
779 12.3768 8.01518 1.44717 0.5
780 13.213 12.1465 6.26671 0.5
781 6.87935 8.05232 0.202802 0.5
782 9.32015 4.35948 8.94138 0.5
783 2.44131 1.37176 10.7505 0.5
784 9.27662 0.868224 12.6058 0.5
785 3.50355 8.00953 8.91599 0.5
786 8.62176 3.70456 4.97128 0.5
787 11.2457 7.85644 10.0366 0.5
788 1.36489 11.847 3.39907 0.5
789 0.161725 7.11632 5.20519 0.5
790 0.204308 5.62581 8.46965 0.5
791 0.516276 5.35244 0.0825907 0.5
792 2.38049 1.23918 0.284151 0.5
793 3.64741 3.62675 7.80981 0.5
794 12.9011 10.0242 12.1991 0.5
795 4.88518 3.5398 10.8101 0.5
796 5.61405 4.19177 10.1682 0.5
797 8.51028 12.0852 11.2415 0.5
798 10.7275 10.9253 11.6341 0.5
799 8.57906 3.01313 7.99454 0.5
800 10.7364 12.0288 5.15959 0.5
801 5.86022 12.7561 8.67959 0.5
802 10.3688 8.38513 0.945495 0.5
803 2.36436 5.78726 8.66502 0.5
804 9.5137 1.49742 3.47174 0.5
805 12.4746 4.4978 6.84952 0.5
806 2.44787 5.50277 6.20456 0.5
807 2.47397 3.42303 8.93282 0.5
808 11.4805 10.6404 10.4893 0.5
809 10.3457 1.68694 4.45442 0.5
810 13.0268 10.6328 0.249982 0.5
811 11.9781 5.83148 5.26145 0.5
812 10.9255 8.15668 6.36544 0.5
813 3.85534 11.6865 8.28381 0.5
814 3.67454 4.5391 10.8205 0.5
815 1.96866 4.1718 13.2248 0.5
816 11.7052 2.04825 3.86754 0.5
817 9.22172 12.2945 10.8575 0.5
818 6.20792 0.623021 10.4105 0.5
819 4.86604 3.06714 5.94212 0.5
820 2.18856 1.40736 6.02929 0.5
821 9.98098 12.7974 9.55351 0.5
822 1.8079 8.26353 1.98559 0.5
823 4.25803 11.105 0.871601 0.5
824 12.1427 2.1065 2.03437 0.5
825 0.6512 12.362 11.4647 0.5
826 7.34352 7.19691 7.8459 0.5
827 5.16367 12.2657 0.0341245 0.5
828 6.63782 13.1413 0.705343 0.5
829 3.91487 12.3342 7.73834 0.5
830 11.7043 13.1939 12.6328 0.5
831 0.668887 3.96156 5.4534 0.5
832 7.51366 12.9057 11.0375 0.5
833 0.130916 12.5202 3.0432 0.5
834 11.7443 12.0275 13.5525 0.5
835 6.21867 12.4741 10.376 0.5
836 9.34546 1.91107 10.7526 0.5
837 0.737669 11.5266 9.58912 0.5
838 1.42575 1.42226 12.7377 0.5
839 7.93384 0.135786 2.92539 0.5
840 11.4448 11.3023 12.458 0.5
841 12.501 10.446 13.4245 0.5
842 9.97896 8.24731 8.59032 0.5
843 3.44919 8.03437 0.230979 0.5
844 7.61759 8.36304 4.62372 0.5
845 6.16945 5.95783 6.28977 0.5
846 7.55301 6.42306 5.05395 0.5
847 0.378765 2.07662 2.92062 0.5
848 12.5827 5.51058 1.22296 0.5
849 7.87494 3.29172 3.5621 0.5
850 0.842954 8.49294 3.60896 0.5
851 2.71172 6.30548 12.4046 0.5
852 6.16675 7.0297 12.7522 0.5
853 5.95802 3.89172 3.54228 0.5
854 8.72917 2.80146 8.44466 0.5
855 0.457231 12.8583 8.48394 0.5
856 1.69709 3.0213 3.95548 0.5
857 8.36964 10.0609 5.49642 0.5
858 8.48577 6.88981 4.51735 0.5
859 3.50509 8.50812 2.17342 0.5
860 4.62011 6.25306 7.5091 0.5
861 10.5775 13.1148 4.93254 0.5
862 1.31103 3.95088 8.46125 0.5
863 4.94883 7.06552 4.42071 0.5
864 9.44796 3.58106 8.27264 0.5
865 9.07739 7.84738 5.99103 0.5
866 6.72395 4.55751 0.517446 0.5
867 11.5597 11.831 8.62603 0.5
868 3.58258 6.86037 2.45886 0.5
869 3.97968 3.21064 6.15346 0.5
870 5.60582 5.85371 5.6945 0.5
871 5.89199 13.4169 10.7868 0.5
872 0.486127 12.0614 11.65 0.5
873 6.46822 0.842571 0.781507 0.5
874 6.75929 7.57877 2.25074 0.5
875 11.0082 5.11446 1.33456 0.5
876 7.42569 3.19868 7.10934 0.5
877 11.2618 0.394062 0.99806 0.5
878 0.872527 3.50383 12.4996 0.5
879 2.9023 5.45822 0.128073 0.5
880 6.02456 8.22127 3.74108 0.5
881 1.12479 6.25947 6.37332 0.5
882 7.23065 3.29426 1.08154 0.5
883 3.94961 10.5757 6.17754 0.5
884 2.98972 8.13107 7.9854 0.5
885 11.7006 8.63078 1.11068 0.5
886 7.926 1.93259 5.07574 0.5
887 0.77145 2.18113 4.81902 0.5
888 4.52506 11.9982 7.90232 0.5
889 1.71688 1.76217 0.147315 0.5
890 2.03633 8.86956 10.5557 0.5
891 11.9158 7.35716 9.58022 0.5
892 1.56012 12.8899 4.37614 0.5
893 10.1958 12.0499 7.86287 0.5
894 0.364911 9.62764 6.06887 0.5
895 1.1161 12.6433 5.55747 0.5
896 0.743177 11.6594 8.21255 0.5
897 2.99165 1.71118 3.76213 0.5
898 1.11194 5.36849 8.28999 0.5
899 2.78184 5.88225 7.54124 0.5
900 13.5143 11.8665 13.4316 0.5
901 9.57909 6.53925 8.72987 0.5
902 8.43494 9.9921 4.19901 0.5
903 8.73918 7.31047 4.35891 0.5
904 7.88675 11.6412 11.6462 0.5
905 8.77062 8.74999 2.60687 0.5
906 6.58474 8.3747 4.3533 0.5
907 1.7044 5.92772 9.12488 0.5
908 8.79743 1.78522 2.44979 0.5
909 11.1608 0.283689 10.6725 0.5
910 2.56239 11.6453 11.159 0.5
911 11.3842 10.2947 6.00789 0.5
912 10.5991 7.21727 1.53228 0.5
913 10.7422 0.921967 7.92809 0.5
914 11.7918 4.89852 3.87405 0.5
915 7.00167 0.588218 4.78137 0.5
916 11.8821 3.13025 3.8202 0.5
917 6.17101 1.26928 1.71468 0.5
918 8.39773 0.25367 8.323 0.5
919 7.16426 8.68862 12.8293 0.5
920 4.89255 8.69653 7.54548 0.5
921 0.160563 3.78742 4.51223 0.5
922 7.47827 11.807 6.45787 0.5
923 11.1298 0.900478 10.7582 0.5
924 6.57169 11.0638 2.39388 0.5
925 12.6885 10.7403 6.28387 0.5
926 10.8343 5.19108 12.4521 0.5
927 2.13554 9.52248 2.1951 0.5
928 4.3456 9.10057 3.1941 0.5
929 8.91551 7.2704 6.87992 0.5
930 7.13009 6.99248 0.296391 0.5
931 4.83958 8.23237 6.28399 0.5
932 0.0342471 0.709889 4.43905 0.5
933 6.22358 8.29894 8.32269 0.5
934 6.30241 8.31085 8.28068 0.5