ITEM: TIMESTEP
550000
ITEM: NUMBER OF ATOMS
1000
ITEM: BOX BOUNDS xy xz yz pp pp pp
0.0000000000000000e+00 1.3572088000000001e+01 0.0000000000000000e+00
0.0000000000000000e+00 1.3572088000000001e+01 0.0000000000000000e+00
0.0000000000000000e+00 1.3572088000000001e+01 0.0000000000000000e+00
ITEM: ATOMS id x y z radius
1 2.36322 6.65293 10.1709 0.5
2 3.67519 4.14676 3.19121 0.5
3 8.09021 1.12903 3.77892 0.5
4 4.18286 4.92602 1.43775 0.5
5 10.6775 2.10024 2.3149 0.5
6 2.22931 7.20613 13.5491 0.5
7 2.68842 10.7521 6.14206 0.5
8 2.22652 5.39544 0.344893 0.5
9 11.4984 4.22354 6.73069 0.5
10 3.25635 7.51949 11.4977 0.5
11 13.0014 3.92426 3.89979 0.5
12 6.02638 13.1573 7.81933 0.5
13 13.0104 4.99836 9.37785 0.5
14 4.65524 12.2253 0.906962 0.5
15 0.141497 3.45239 2.171 0.5
16 12.3757 2.10187 0.244454 0.5
17 12.0856 2.86636 3.92456 0.5
18 1.11563 2.36778 9.48874 0.5
19 0.127364 10.3102 3.6362 0.5
20 12.8607 5.87056 3.04757 0.5
21 2.29366 12.6202 2.68952 0.5
22 2.33851 10.9796 3.76889 0.5
23 10.5393 9.66145 7.11884 0.5
24 4.29801 1.21237 4.0821 0.5
25 4.13523 7.47414 11.8442 0.5
26 6.056 13.2362 5.7072 0.5
27 10.5101 8.27266 12.4945 0.5
28 4.02024 11.811 6.58439 0.5
29 5.57864 13.1008 5.47225 0.5
30 8.06965 1.64537 8.70273 0.5
31 2.75134 4.85031 8.18137 0.5
32 6.3061 1.7046 10.3509 0.5
33 3.86675 12.4465 12.1428 0.5
34 8.56079 10.8985 2.84728 0.5
35 2.27908 11.4416 10.9396 0.5
36 1.38501 11.4481 3.72161 0.5
37 9.29909 10.7417 8.82086 0.5
38 3.33507 8.22093 3.41225 0.5
39 11.2791 1.75548 13.1414 0.5
40 1.45697 10.1265 9.44336 0.5
41 4.76987 1.08507 13.2241 0.5
42 8.98223 0.755374 9.24369 0.5
43 2.32476 10.537 9.67158 0.5
44 9.20758 3.17944 1.2567 0.5
45 11.6127 13.2045 7.76099 0.5
46 11.675 1.70254 13.0889 0.5
47 8.45525 10.8757 6.42385 0.5
48 7.361 8.58199 9.92609 0.5
49 12.2955 8.53375 7.26018 0.5
50 5.88227 9.13622 10.7481 0.5
51 4.58162 13.076 1.04323 0.5
52 3.41997 3.67478 1.2615 0.5
53 0.331285 5.35431 6.75005 0.5
54 13.2665 3.28488 3.99631 0.5
55 2.61777 2.5343 9.89807 0.5
56 0.244122 1.38322 2.2265 0.5
57 9.85819 9.43781 3.82551 0.5
58 9.5886 6.04063 11.6344 0.5
59 12.9957 12.7895 8.75285 0.5
60 0.563704 2.09676 13.1736 0.5
61 0.797122 9.98572 4.11875 0.5
62 7.80818 11.8288 7.56265 0.5
63 2.67818 10.2162 13.3169 0.5
64 7.53807 2.57391 4.26747 0.5
65 10.5772 12.5585 1.97762 0.5
66 2.69143 1.11579 6.9234 0.5
67 3.37545 5.61339 4.35981 0.5
68 8.30318 9.09546 10.7743 0.5
69 4.78413 5.79984 7.29893 0.5
70 6.7163 0.508308 10.9966 0.5
71 13.0543 11.7547 9.55658 0.5
72 0.12852 5.10855 6.85035 0.5
73 2.78417 2.8703 8.50089 0.5
74 3.62188 6.0345 11.6153 0.5
75 13.1449 13.2571 9.18755 0.5
76 2.72092 10.5619 4.60665 0.5
77 10.54 0.145338 10.1755 0.5
78 4.28234 2.07645 5.8528 0.5
79 5.64783 5.55631 1.60378 0.5
80 5.39724 3.01629 4.89145 0.5
81 7.35083 8.18394 8.40911 0.5
82 4.71046 5.26009 0.111126 0.5
83 5.81135 12.176 7.04867 0.5
84 4.31437 4.19015 10.3623 0.5
85 6.84338 1.85492 3.76128 0.5
86 4.26734 2.88377 11.6729 0.5
87 0.043976 1.47261 4.44532 0.5
88 2.32878 2.1773 8.98514 0.5
89 2.70072 9.01982 0.415309 0.5
90 4.26606 8.78151 13.539 0.5
91 13.5709 12.3769 2.10382 0.5
92 6.15009 8.40311 5.54794 0.5
93 2.68845 10.7708 9.94332 0.5
94 1.22269 6.65003 4.36565 0.5
95 8.80225 4.11417 8.32462 0.5
96 9.89489 3.07376 8.19731 0.5
97 7.43105 8.34784 8.60367 0.5
98 2.19646 1.6337 1.63796 0.5
99 7.71096 4.11522 2.63183 0.5
100 10.5372 10.0721 9.92444 0.5
101 0.467938 0.37693 5.20919 0.5
102 5.41061 5.58888 4.34053 0.5
103 6.77751 11.6697 5.89514 0.5
104 10.5974 7.63857 0.540895 0.5
105 12.372 4.91528 5.61065 0.5
106 8.98608 0.869314 12.7017 0.5
107 12.1913 2.1949 3.07247 0.5
108 2.36456 13.121 12.1481 0.5
109 8.8764 10.8437 4.41615 0.5
110 10.6829 12.2989 10.7014 0.5
111 9.22456 11.8866 10.0538 0.5
112 10.8574 9.69459 10.3849 0.5
113 8.88992 8.94963 12.5716 0.5
114 3.06846 10.4393 2.25217 0.5
115 6.56345 4.8462 3.99424 0.5
116 2.31207 6.12644 13.5058 0.5
117 11.7714 11.1536 10.9186 0.5
118 3.57791 12.0539 13.4299 0.5
119 2.42703 12.2254 9.2029 0.5
120 12.9019 10.3885 3.55162 0.5
121 7.14109 1.60494 3.05989 0.5
122 11.7929 9.08817 1.19392 0.5
123 12.7798 10.5515 12.8165 0.5
124 0.164889 10.9815 0.289142 0.5
125 13.1976 12.2036 11.1566 0.5
126 11.9586 5.8937 13.3216 0.5
127 9.62973 10.122 5.60832 0.5
128 9.23917 11.4411 3.54874 0.5
129 3.49164 12.8983 2.16434 0.5
130 8.76701 2.93654 13.01 0.5
131 2.84463 4.36005 4.85035 0.5
132 6.26532 11.8112 4.85063 0.5
133 3.7229 12.2193 6.45599 0.5
134 6.92764 0.923634 5.10678 0.5
135 8.74726 11.0982 5.98832 0.5
136 0.4638 5.80698 8.32292 0.5
137 5.36466 4.77023 7.11588 0.5
138 5.55541 8.19646 0.967451 0.5
139 5.79269 11.2461 4.36867 0.5
140 2.3564 7.27407 12.7124 0.5
141 2.59415 4.55439 4.92638 0.5
142 2.54166 1.92082 8.70598 0.5
143 3.34257 0.373312 2.40902 0.5
144 0.737296 3.93015 3.02441 0.5
145 7.46887 0.46011 2.26192 0.5
146 4.31728 12.1646 5.61973 0.5
147 3.37538 9.25741 10.7901 0.5
148 2.6951 4.03153 1.33449 0.5
149 10.445 0.468739 7.87778 0.5
150 3.65302 5.59127 11.0969 0.5
151 10.1692 3.78368 7.58044 0.5
152 12.0291 11.6334 2.42185 0.5
153 1.79187 10.3265 2.44483 0.5
154 5.6136 1.175 4.02857 0.5
155 11.2705 10.1229 9.18383 0.5
156 12.2867 13.4717 2.09973 0.5
157 1.30591 11.5986 12.29 0.5
158 5.3062 6.57283 5.26817 0.5
159 10.1747 6.64315 4.12401 0.5
160 6.84234 4.70688 2.25093 0.5
161 0.89409 9.00294 5.54728 0.5
162 13.2288 0.418908 6.311 0.5
163 1.51267 8.19505 8.06036 0.5
164 5.13744 0.869254 12.6192 0.5
165 9.10151 12.9902 10.7386 0.5
166 9.98884 7.97947 10.761 0.5
167 3.88079 5.1085 0.123143 0.5
168 4.9846 4.14582 7.80398 0.5
169 8.41154 0.342083 8.89239 0.5
170 7.71686 4.6627 11.6611 0.5
171 0.875472 3.32003 9.04482 0.5
172 13.0211 9.4717 8.64795 0.5
173 2.00789 1.11476 5.89268 0.5
174 10.5711 6.09508 6.96558 0.5
175 12.8013 2.0235 8.35816 0.5
176 10.4386 1.2366 12.9555 0.5
177 5.83969 3.84325 11.7303 0.5
178 0.215251 10.5904 8.60606 0.5
179 6.9607 12.5152 0.363362 0.5
180 6.35609 8.75855 0.00843502 0.5
181 11.8207 10.786 4.84891 0.5
182 4.94014 0.0671339 9.05026 0.5
183 3.50716 6.28216 7.07631 0.5
184 3.19983 8.38148 10.1816 0.5
185 10.5469 5.38706 9.26498 0.5
186 1.58199 3.23463 1.58503 0.5
187 7.26382 9.16347 8.82502 0.5
188 6.31671 7.5076 3.97834 0.5
189 0.584809 9.79854 5.82307 0.5
190 9.02809 0.610039 8.17473 0.5
191 6.74135 7.65192 6.97902 0.5
192 6.53914 9.04448 0.829215 0.5
193 0.130412 3.08652 13.2512 0.5
194 3.41873 2.9182 11.2019 0.5
195 11.1763 6.04966 1.91893 0.5
196 7.06708 8.33624 10.2804 0.5
197 11.5375 9.14845 6.96162 0.5
198 10.6328 9.15323 10.4979 0.5
199 11.2328 2.57473 7.915 0.5
200 0.437623 13.4658 11.5193 0.5
201 3.3743 10.218 10.8878 0.5
202 11.0448 13.0156 13.4187 0.5
203 7.89697 12.5149 6.41702 0.5
204 3.9903 8.01751 4.14563 0.5
205 8.35851 6.84543 0.91232 0.5
206 10.4309 13.1136 13.522 0.5
207 4.27068 1.75524 5.31406 0.5
208 0.130247 6.21803 8.10253 0.5
209 0.485864 9.72722 12.6861 0.5
210 11.8257 11.9052 1.70238 0.5
211 12.8578 8.72388 7.42256 0.5
212 0.1545 3.84566 4.14514 0.5
213 4.98201 13.2691 6.97135 0.5
214 12.3171 8.88696 11.2291 0.5
215 0.678255 12.4402 13.3842 0.5
216 6.32648 9.40163 7.15232 0.5
217 9.05197 4.07817 8.55257 0.5
218 3.11406 4.26339 4.35659 0.5
219 1.16466 8.86777 9.80311 0.5
220 0.418973 6.4875 10.4774 0.5
221 10.2435 9.65902 10.8471 0.5
222 9.1799 5.24813 11.962 0.5
223 4.82973 3.69396 11.7783 0.5
224 12.3446 12.9483 0.330946 0.5
225 0.94355 5.29343 8.17121 0.5
226 6.92345 4.03768 13.2605 0.5
227 9.22561 2.49837 11.3536 0.5
228 12.5991 7.23927 5.11578 0.5
229 5.25991 7.04475 6.86 0.5
230 8.59885 9.17797 10.1464 0.5
231 4.02668 7.51686 7.24937 0.5
232 2.5262 5.70057 7.50275 0.5
233 11.2689 9.0145 12.6729 0.5
234 1.90537 12.8067 3.99458 0.5
235 2.57411 12.2668 9.09695 0.5
236 1.4197 8.84695 6.15316 0.5
237 8.26078 11.0412 2.68722 0.5
238 6.54129 10.2619 9.25369 0.5
239 4.75697 8.70559 12.5487 0.5
240 9.10594 3.57261 6.92707 0.5
241 4.52199 2.08073 5.82595 0.5
242 6.11737 1.65853 6.59094 0.5
243 3.08731 3.39129 9.05385 0.5
244 2.87164 5.09625 6.0643 0.5
245 10.9117 11.3872 9.45549 0.5
246 6.56338 9.44843 0.124205 0.5
247 10.9481 4.18192 4.3161 0.5
248 3.05712 11.6347 8.44501 0.5
249 4.37954 0.955338 2.64527 0.5
250 3.5632 11.4502 10.6479 0.5
251 3.87712 10.5469 10.2088 0.5
252 7.55317 1.23029 10.1446 0.5
253 5.38118 11.4056 9.6771 0.5
254 10.3995 13.211 13.0549 0.5
255 11.7503 2.82434 4.40751 0.5
256 9.62714 5.43999 11.6783 0.5
257 3.10448 12.2991 1.62284 0.5
258 0.567571 8.84474 9.61346 0.5
259 9.5108 6.60502 11.7586 0.5
260 3.05629 12.7702 9.91602 0.5
261 7.70893 0.105251 13.1896 0.5
262 0.733615 9.06365 0.0736413 0.5
263 3.63737 0.660584 6.45957 0.5
264 4.60168 12.0852 3.77733 0.5
265 8.1746 12.3185 0.677372 0.5
266 7.8419 3.57983 10.9153 0.5
267 8.23758 1.11687 2.68505 0.5
268 4.46222 11.4697 6.69906 0.5
269 11.574 9.53645 9.00873 0.5
270 1.59415 2.46735 2.64482 0.5
271 3.36199 3.19456 9.22391 0.5
272 4.36198 9.79073 11.02 0.5
273 5.29578 0.736951 4.0471 0.5
274 0.495585 9.72803 5.97074 0.5
275 13.0172 10.6024 3.32475 0.5
276 9.68268 8.56189 9.08481 0.5
277 9.23588 8.21654 3.21662 0.5
278 12.4982 12.0393 0.245573 0.5
279 6.74916 5.72224 13.0967 0.5
280 3.27958 8.9971 13.4837 0.5
281 9.44941 1.86297 12.797 0.5
282 8.47107 10.4564 6.16709 0.5
283 9.07953 0.226733 12.1963 0.5
284 2.12139 3.05382 0.668999 0.5
285 2.82731 8.18533 6.18347 0.5
286 6.59848 2.7648 2.77289 0.5
287 10.0925 5.65629 1.39074 0.5
288 8.64251 7.55928 8.21358 0.5
289 10.1917 4.3373 3.41152 0.5
290 5.22069 12.6875 1.11201 0.5
291 11.8698 5.08899 13.2274 0.5
292 8.15729 5.91777 0.556261 0.5
293 12.3474 9.15682 0.978482 0.5
294 2.60669 9.89438 11.3331 0.5
295 1.00807 6.33782 7.16264 0.5
296 9.01082 1.31788 9.50365 0.5
297 2.5301 4.67226 1.1832 0.5
298 5.16721 6.97739 1.82569 0.5
299 8.42348 9.53205 6.78922 0.5
300 9.19332 3.64915 4.85094 0.5
301 2.70001 4.31934 7.51428 0.5
302 2.89647 0.885248 6.53346 0.5
303 5.69935 1.73859 12.5757 0.5
304 11.7078 8.18401 9.83793 0.5
305 0.370178 8.64929 1.51566 0.5
306 3.92105 1.98912 2.29651 0.5
307 2.2813 2.94158 2.73497 0.5
308 2.64261 10.1257 6.45537 0.5
309 12.3602 5.84798 1.16068 0.5
310 11.8631 10.4652 10.9359 0.5
311 12.2912 3.92164 13.5318 0.5
312 3.04175 9.98335 8.28975 0.5
313 0.738995 5.11462 8.76883 0.5
314 11.9513 3.95457 8.94529 0.5
315 11.4218 3.01858 9.80657 0.5
316 3.9524 13.4977 11.7528 0.5
317 9.4176 13.2877 7.42772 0.5
318 9.84729 6.04217 11.4021 0.5
319 7.68083 2.4589 7.91967 0.5
320 4.10952 4.93693 3.55191 0.5
321 0.220008 4.00817 7.98348 0.5
322 7.80703 12.5689 12.201 0.5
323 0.0381482 4.41021 11.8909 0.5
324 1.98796 2.8051 1.98757 0.5
325 12.8252 13.1837 6.33562 0.5
326 2.60941 3.9267 3.327 0.5
327 5.41246 13.3318 2.71553 0.5
328 7.0498 7.30103 12.3609 0.5
329 6.25834 6.18378 1.04462 0.5
330 12.5288 10.3922 9.3663 0.5
331 5.10579 9.69045 0.138087 0.5
332 2.91122 12.5504 2.98256 0.5
333 11.854 3.89078 5.32744 0.5
334 5.8738 10.9519 1.30185 0.5
335 3.68753 0.574987 0.859731 0.5
336 7.46625 8.84 2.90092 0.5
337 11.0864 9.41327 2.57198 0.5
338 13.4949 3.51347 12.7278 0.5
339 2.69133 13.1135 6.80719 0.5
340 4.6224 2.26766 13.2335 0.5
341 12.4336 7.30218 3.97766 0.5
342 0.155846 5.71953 4.69738 0.5
343 9.29656 12.337 0.455176 0.5
344 12.093 2.49867 11.2321 0.5
345 11.4333 7.75351 2.48533 0.5
346 10.3618 2.12004 6.3979 0.5
347 1.69025 4.09535 3.81187 0.5
348 0.660425 6.25265 3.18176 0.5
349 7.64963 9.46858 7.31621 0.5
350 9.30279 2.83567 10.8229 0.5
351 11.4859 0.0813602 4.56398 0.5
352 5.66557 11.1932 0.434676 0.5
353 2.46248 1.63636 12.3687 0.5
354 2.71315 4.11308 11.8898 0.5
355 13.3145 0.393053 5.98833 0.5
356 7.77407 10.4845 8.37188 0.5
357 6.54117 9.28911 1.96981 0.5
358 12.9551 6.17146 10.7339 0.5
359 12.4439 3.72638 8.03768 0.5
360 10.456 3.31843 3.33689 0.5
361 2.234 9.31336 7.38432 0.5
362 0.885264 11.9183 7.43209 0.5
363 11.9182 6.39708 7.83578 0.5
364 0.512719 6.66962 1.02401 0.5
365 6.29532 0.659368 10.6652 0.5
366 7.49767 5.15064 10.4334 0.5
367 7.27336 7.1637 9.35645 0.5
368 1.01019 9.19497 0.686158 0.5
369 8.80954 1.38381 4.9067 0.5
370 10.7081 2.98341 5.71424 0.5
371 9.72156 10.615 2.54457 0.5
372 10.9366 7.40328 1.2389 0.5
373 8.59027 0.150254 10.3428 0.5
374 6.22142 3.01323 2.98081 0.5
375 0.0612765 11.8202 8.37042 0.5
376 8.10728 6.72337 3.39773 0.5
377 2.15072 9.47043 2.19605 0.5
378 6.68459 3.98618 2.63036 0.5
379 10.0211 12.8788 12.7217 0.5
380 11.4175 4.84724 6.45772 0.5
381 0.765998 12.4494 1.7031 0.5
382 5.56481 0.713489 6.69859 0.5
383 12.6891 6.97239 0.0404152 0.5
384 4.80438 6.27138 6.21197 0.5
385 13.3033 0.324032 9.12591 0.5
386 11.6206 0.165243 7.71356 0.5
387 11.944 7.46244 4.47612 0.5
388 1.83648 2.34975 1.0344 0.5
389 4.81238 6.08944 12.5153 0.5
390 3.99206 5.1608 8.33401 0.5
391 12.4581 10.7601 13.3162 0.5
392 10.2645 11.807 7.53366 0.5
393 7.65581 9.83195 10.1069 0.5
394 1.09841 1.25728 12.7819 0.5
395 1.83677 13.0196 8.60979 0.5
396 11.4024 8.95978 5.82168 0.5
397 7.10624 1.4713 12.1435 0.5
398 4.96411 9.99816 6.04881 0.5
399 4.91534 7.99409 7.4733 0.5
400 0.30333 0.806068 4.37444 0.5
401 13.208 3.25763 6.69541 0.5
402 2.59581 0.686502 2.75077 0.5
403 11.1995 1.62586 4.57388 0.5
404 8.29182 9.0833 2.43939 0.5
405 9.12655 1.9811 9.98052 0.5
406 4.38767 12.0498 7.89216 0.5
407 8.31809 9.7802 5.61256 0.5
408 10.2773 2.31957 1.67686 0.5
409 10.59 6.33428 9.13924 0.5
410 8.98688 10.7525 13.3069 0.5
411 1.05797 10.4811 9.49523 0.5
412 2.94029 0.319975 2.02017 0.5
413 7.00074 9.05126 1.04682 0.5
414 4.79687 8.40157 2.36167 0.5
415 3.91726 12.3024 12.091 0.5
416 9.80472 12.6034 8.63171 0.5
417 2.57942 0.571832 6.64444 0.5
418 1.51552 12.7204 1.35309 0.5
419 7.14776 12.9238 9.49237 0.5
420 2.98453 11.7372 11.4552 0.5
421 0.724306 1.89059 2.9709 0.5
422 10.5432 7.07538 8.94418 0.5
423 7.79215 12.5571 1.74735 0.5
424 8.00183 2.63145 0.296416 0.5
425 0.827188 4.24127 6.69071 0.5
426 3.01524 0.983315 9.38958 0.5
427 8.9426 8.91151 7.41782 0.5
428 12.495 6.39534 6.47178 0.5
429 1.00716 8.40026 10.0354 0.5
430 3.46452 2.85517 3.89507 0.5
431 7.4567 3.55632 12.2973 0.5
432 3.11777 3.8835 3.94927 0.5
433 5.16416 11.0218 6.18327 0.5
434 5.9352 1.49645 4.46578 0.5
435 12.5917 2.92097 7.44318 0.5
436 10.3171 6.27805 12.4008 0.5
437 5.07863 3.28978 11.7586 0.5
438 11.1941 1.98618 11.7253 0.5
439 6.6257 0.987067 3.33751 0.5
440 11.4502 7.19493 2.28216 0.5
441 8.05593 0.434916 5.43209 0.5
442 1.96383 7.90925 3.92342 0.5
443 4.81408 2.72204 4.1398 0.5
444 1.62693 10.6156 2.17772 0.5
445 11.2955 7.21006 10.6528 0.5
446 12.4146 10.3401 8.4807 0.5
447 6.07118 10.9729 7.51709 0.5
448 5.3876 4.52655 0.488475 0.5
449 6.13681 9.53323 5.54929 0.5
450 1.45945 1.10507 5.41728 0.5
451 7.48013 1.7796 7.94951 0.5
452 12.4121 11.6838 6.28415 0.5
453 5.56438 9.42032 11.8072 0.5
454 7.07113 6.27192 8.99481 0.5
455 2.08309 7.80019 12.5144 0.5
456 1.95 11.5166 10.2 0.5
457 6.36842 13.5557 3.58445 0.5
458 3.80408 13.4358 4.83277 0.5
459 6.24723 1.71586 13.2135 0.5
460 12.7567 4.62887 4.44398 0.5
461 9.00901 0.844565 1.82133 0.5
462 11.6978 12.3371 1.25576 0.5
463 6.8228 9.72458 8.18767 0.5
464 13.5076 12.3673 12.2898 0.5
465 9.55949 9.03446 1.7928 0.5
466 2.6573 1.43941 5.04365 0.5
467 2.51465 3.7209 0.736684 0.5
468 3.75326 10.0696 13.4771 0.5
469 13.1006 0.187609 7.72627 0.5
470 4.58354 6.64772 3.2229 0.5
471 8.78804 5.37544 6.45483 0.5
472 3.61819 0.444243 1.72513 0.5
473 2.37509 7.96818 10.5995 0.5
474 3.65947 5.79253 2.18603 0.5
475 4.47437 2.29207 12.7472 0.5
476 6.40439 6.51751 11.0691 0.5
477 5.52793 7.27679 1.39626 0.5
478 1.26789 3.79421 13.1449 0.5
479 2.84373 12.9029 5.52591 0.5
480 3.40159 13.1245 10.2019 0.5
481 7.19695 5.25527 7.39378 0.5
482 7.1324 12.5738 6.71589 0.5
483 3.84823 2.53491 12.8738 0.5
484 11.9661 5.20312 11.7866 0.5
485 2.53017 1.07139 11.2664 0.5
486 2.57767 4.81644 0.857435 0.5
487 3.26628 5.20319 0.499128 0.5
488 2.14255 5.23904 5.33464 0.5
489 0.951013 0.533836 2.77133 0.5
490 11.5528 7.62772 5.95885 0.5
491 12.4272 13.0286 7.64875 0.5
492 2.08318 12.8575 6.26491 0.5
493 12.4059 5.81209 1.52982 0.5
494 4.32017 11.5168 12.4671 0.5
495 9.54705 10.9987 5.63872 0.5
496 7.43606 5.28456 2.52529 0.5
497 1.58475 1.27354 8.57007 0.5
498 7.01915 9.51765 12.4863 0.5
499 3.20573 9.07223 12.9507 0.5
500 4.97346 0.701703 2.65605 0.5
501 11.7848 11.7856 0.956703 0.5
502 9.96081 1.92298 1.2829 0.5
503 10.3857 10.3809 6.62921 0.5
504 11.655 10.2596 4.08456 0.5
505 12.448 2.04209 8.62994 0.5
506 11.5307 4.54542 3.17288 0.5
507 7.29765 10.7454 11.9045 0.5
508 6.99313 5.43206 10.5264 0.5
509 6.90976 2.4028 12.5836 0.5
510 3.6834 7.51759 4.70544 0.5
511 10.7292 11.8805 3.22893 0.5
512 13.2753 0.870401 0.0386285 0.5
513 9.58177 5.95611 8.36697 0.5
514 6.58541 4.69093 0.708496 0.5
515 4.32684 1.01756 6.2708 0.5
516 4.04813 4.32439 6.95705 0.5
517 13.5251 8.12135 3.02293 0.5
518 1.94839 8.50533 10.3261 0.5
519 5.83837 8.83501 11.521 0.5
520 2.54514 8.39493 6.74993 0.5
521 11.3749 8.33696 5.61879 0.5
522 3.5322 10.3353 2.70113 0.5
523 8.70327 10.8824 -0.00158453 0.5
524 10.2918 7.10307 7.13391 0.5
525 9.93378 2.68853 7.30763 0.5
526 9.22199 7.42263 1.30081 0.5
527 3.99403 12.0744 12.7924 0.5
528 9.21132 5.82176 9.3853 0.5
529 11.9771 1.30737 7.17743 0.5
530 6.47761 3.36775 10.421 0.5
531 4.45155 8.98544 5.96076 0.5
532 12.2186 6.66599 9.65496 0.5
533 12.3791 12.0912 13.0184 0.5
534 8.96777 4.55455 3.31488 0.5
535 5.43641 12.1336 1.74557 0.5
536 1.266 10.3939 11.5629 0.5
537 12.6015 2.33253 7.24933 0.5
538 9.99729 9.44128 7.535 0.5
539 8.81021 10.8757 6.34725 0.5
540 12.1779 3.16981 12.4485 0.5
541 12.9306 2.08133 5.06799 0.5
542 3.75463 4.33742 8.69531 0.5
543 7.92204 13.1431 8.95078 0.5
544 6.58355 10.1128 1.83975 0.5
545 2.93467 1.88813 9.03373 0.5
546 2.77942 0.343568 6.92211 0.5
547 7.31506 0.727958 13 0.5
548 2.7315 11.3934 4.00691 0.5
549 11.1796 9.34621 4.94374 0.5
550 12.3407 6.26324 6.10453 0.5
551 6.91998 11.2286 12.7226 0.5
552 2.5181 11.7349 9.28993 0.5
553 12.5697 1.69766 12.3908 0.5
554 1.8013 3.51833 4.25155 0.5
555 10.3866 6.88441 8.63583 0.5
556 1.9142 11.3857 5.17088 0.5
557 3.69205 1.10422 4.11114 0.5
558 11.522 10.0044 6.59262 0.5
559 8.35572 3.95681 5.30253 0.5
560 5.63758 3.83324 0.840583 0.5
561 4.459 0.449578 10.8992 0.5
562 9.20189 0.539078 12.6762 0.5
563 9.45847 0.538592 13.1955 0.5
564 12.5125 1.95488 4.75744 0.5
565 0.971616 7.58325 5.90337 0.5
566 11.8861 2.51325 0.787745 0.5
567 13.2648 13.3202 4.70403 0.5
568 4.39343 1.42535 5.67633 0.5
569 10.9253 10.5566 13.124 0.5
570 4.68759 1.08091 2.98598 0.5
571 10.0194 8.01267 0.894517 0.5
572 3.24712 0.0623769 6.85631 0.5
573 7.68121 11.1229 7.3328 0.5
574 5.35096 10.3985 8.53979 0.5
575 2.04892 1.09266 7.38317 0.5
576 6.54319 9.91645 8.52884 0.5
577 3.58129 13.2751 12.4568 0.5
578 11.61 7.73141 10.9517 0.5
579 5.35268 5.09354 5.19821 0.5
580 2.4374 12.5575 10.9454 0.5
581 11.4048 2.12025 10.6144 0.5
582 10.1643 13.4176 7.97293 0.5
583 11.0939 8.44007 5.00223 0.5
584 1.95971 10.115 12.3255 0.5
585 7.60619 11.7758 9.35521 0.5
586 9.31319 10.1992 6.84645 0.5
587 5.24655 2.6594 6.90639 0.5
588 9.40408 3.47151 11.5458 0.5
589 9.49734 1.72295 3.03067 0.5
590 9.85311 8.31104 12.762 0.5
591 8.68217 5.25965 11.6351 0.5
592 9.19395 9.717 11.3874 0.5
593 11.6756 3.14873 13.0318 0.5
594 13.3669 3.69367 9.97327 0.5
595 11.6379 3.94117 6.38964 0.5
596 0.280261 0.0364069 13.4456 0.5
597 12.1893 9.63296 10.2126 0.5
598 7.1287 10.4436 1.241 0.5
599 3.91987 9.63888 2.181 0.5
600 9.38095 4.85723 10.8795 0.5
601 7.26279 5.27318 8.56923 0.5
602 7.44309 9.82864 1.92866 0.5
603 9.52164 5.01576 7.75494 0.5
604 4.40513 5.21634 4.68016 0.5
605 7.25736 11.3025 2.40755 0.5
606 10.1111 0.184683 12.6664 0.5
607 3.20788 9.28611 6.38513 0.5
608 12.4248 0.187091 4.55939 0.5
609 9.9091 13.3079 8.50023 0.5
610 3.69486 3.56617 4.54463 0.5
611 1.88653 4.94809 9.34793 0.5
612 6.2069 8.84837 0.547129 0.5
613 10.2998 8.83772 7.07315 0.5
614 5.59626 0.83917 2.9989 0.5
615 4.53486 4.455 7.07443 0.5
616 9.38732 7.11808 12.7018 0.5
617 2.67775 6.1011 6.341 0.5
618 11.7909 10.6453 7.71337 0.5
619 7.6677 7.00418 4.32492 0.5
620 7.57296 10.7027 6.7458 0.5
621 3.05092 7.25334 2.63355 0.5
622 4.00869 11.7522 6.12842 0.5
623 7.37928 10.58 13.4016 0.5
624 10.7976 10.2038 12.7703 0.5
625 2.60472 11.0976 1.54188 0.5
626 4.26151 12.3058 3.27149 0.5
627 1.07702 3.21523 8.65301 0.5
628 7.58926 8.64161 6.40013 0.5
629 1.36079 0.277051 0.0465054 0.5
630 3.20711 2.58746 1.0951 0.5
631 8.20293 7.9089 1.39773 0.5
632 10.1673 13.538 12.4728 0.5
633 12.0048 11.8222 3.21369 0.5
634 10.2409 4.22812 2.9582 0.5
635 5.07085 12.3901 8.73425 0.5
636 9.5484 8.39464 6.3825 0.5
637 11.6323 8.35346 5.54742 0.5
638 11.2801 12.8617 0.231351 0.5
639 7.74621 7.57227 10.3344 0.5
640 8.10948 1.62431 5.21023 0.5
641 13.0348 8.69146 10.9361 0.5
642 3.97408 8.81719 1.99117 0.5
643 13.5316 9.20159 12.6702 0.5
644 1.0312 12.5209 10.878 0.5
645 3.47204 10.9945 8.81171 0.5
646 12.4525 0.0632283 9.92394 0.5
647 9.3577 5.46257 9.33457 0.5
648 7.79221 6.95333 12.1288 0.5
649 1.43453 1.51419 5.87145 0.5
650 4.47983 11.5421 13.0896 0.5
651 2.24067 5.74095 12.9351 0.5
652 1.77653 3.67811 10.213 0.5
653 12.3378 12.5021 12.7099 0.5
654 11.3475 4.18971 10.7837 0.5
655 7.47577 1.09269 2.88985 0.5
656 8.2068 8.91557 7.26266 0.5
657 3.47684 13.3978 7.05023 0.5
658 4.92167 12.2667 6.31256 0.5
659 8.77542 2.36621 2.78102 0.5
660 6.26796 1.05862 5.79465 0.5
661 13.2079 4.45129 3.64585 0.5
662 0.707094 0.919347 4.467 0.5
663 6.76347 0.905465 6.33486 0.5
664 12.1809 9.2141 8.30249 0.5
665 11.3082 7.65429 7.4078 0.5
666 10.1684 9.05655 4.00889 0.5
667 13.1859 1.0648 0.860096 0.5
668 9.44612 5.55508 5.60165 0.5
669 0.319753 4.51838 6.31535 0.5
670 5.7293 1.78418 12.9204 0.5
671 8.27474 12.7126 2.16853 0.5
672 10.1442 9.02572 12.4814 0.5
673 1.88577 9.3625 2.9491 0.5
674 10.6749 2.58414 7.62572 0.5
675 12.204 6.93727 3.40275 0.5
676 7.45795 9.78018 8.07294 0.5
677 4.07726 12.7381 3.49694 0.5
678 2.65177 8.02535 13.2981 0.5
679 8.71386 5.95822 12.0249 0.5
680 5.72389 7.71258 10.2337 0.5
681 6.31848 2.6575 11.8762 0.5
682 8.9312 3.94842 4.41464 0.5
683 9.39354 1.1763 1.38321 0.5
684 13.2707 11.0789 6.11845 0.5
685 12.3147 5.34192 3.68385 0.5
686 2.75697 6.50039 9.17886 0.5
687 7.67978 8.98365 2.48095 0.5
688 3.23919 3.01113 11.303 0.5
689 2.20882 3.65338 9.79262 0.5
690 7.44709 1.34601 1.50718 0.5
691 13.2711 11.0281 4.51782 0.5
692 11.9607 1.30406 5.3711 0.5
693 10.5398 9.85734 13.5599 0.5
694 4.16911 6.22139 6.01373 0.5
695 8.04069 8.33604 5.86827 0.5
696 0.65936 4.01862 8.42427 0.5
697 3.31802 7.08747 5.59991 0.5
698 2.31225 10.2158 1.07435 0.5
699 12.2552 7.2735 7.53202 0.5
700 11.2363 2.35049 5.88145 0.5
701 7.01514 6.4394 10.2903 0.5
702 0.589002 1.95839 10.4532 0.5
703 3.37277 10.2594 3.99594 0.5
704 4.98128 3.76988 1.30109 0.5
705 6.97512 4.45892 5.62968 0.5
706 10.7749 8.96266 6.41214 0.5
707 6.53555 3.58298 7.29405 0.5
708 6.1915 10.0791 13.493 0.5
709 1.44678 10.1061 11.4027 0.5
710 2.69296 12.7208 6.66002 0.5
711 12.975 2.54625 5.61972 0.5
712 4.7392 5.43173 8.46845 0.5
713 5.28286 13.2518 1.52326 0.5
714 11.734 4.21067 8.65282 0.5
715 0.0325115 1.58921 4.60331 0.5
716 7.02065 4.72337 6.71389 0.5
717 7.24692 5.27631 1.77732 0.5
718 10.1682 1.93372 0.876815 0.5
719 5.18153 8.26127 3.6034 0.5
720 4.60369 5.74084 6.72447 0.5
721 2.67312 2.346 4.17242 0.5
722 11.6142 1.27167 0.865276 0.5
723 1.35494 0.295189 0.0596168 0.5
724 4.36588 11.6849 7.47139 0.5
725 6.95585 6.78572 4.48147 0.5
726 12.9002 7.66054 11.4611 0.5
727 3.9052 9.57446 2.3756 0.5
728 7.4763 5.07491 13.4611 0.5
729 13.372 7.03442 2.31142 0.5
730 8.01051 11.4768 5.10521 0.5
731 12.5265 1.24569 10.9763 0.5
732 11.7867 12.5096 0.779171 0.5
733 5.8778 3.76371 8.61081 0.5
734 13.4888 9.45243 12.357 0.5
735 1.96427 8.92216 6.04081 0.5
736 1.48302 5.7123 9.71263 0.5
737 13.3433 12.3673 6.36066 0.5
738 6.25665 9.91015 1.67599 0.5
739 8.89801 3.7701 1.28032 0.5
740 9.15121 2.45401 3.36041 0.5
741 11.8946 5.816 10.5605 0.5
742 8.25997 7.35661 4.91561 0.5
743 4.81125 2.83281 7.72175 0.5
744 0.342893 5.67301 2.94882 0.5
745 10.9674 7.21497 6.18065 0.5
746 7.40077 10.7014 1.62995 0.5
747 12.2135 3.16024 12.9692 0.5
748 12.3371 9.18004 5.43999 0.5
749 5.05659 4.24067 3.77791 0.5
750 4.59915 5.95471 11.4893 0.5
751 2.11755 2.4469 6.8082 0.5
752 7.85707 5.27496 6.30552 0.5
753 5.18902 11.4427 1.68502 0.5
754 12.3383 8.50398 6.64447 0.5
755 3.09654 10.9688 0.768274 0.5
756 0.633387 10.2241 0.840779 0.5
757 11.2477 0.926647 12.5332 0.5
758 3.21261 12.4221 13.2463 0.5
759 2.94136 5.33789 6.60561 0.5
760 2.53089 4.4252 4.59741 0.5
761 12.379 9.0612 5.91952 0.5
762 12.4594 6.85558 1.23204 0.5
763 6.12461 7.28747 3.29489 0.5
764 0.145601 9.65338 9.82413 0.5
765 5.18228 0.464321 5.94807 0.5
766 8.5944 5.56893 9.74735 0.5
767 2.93385 9.62318 11.4412 0.5
768 10.6336 3.54188 6.99546 0.5
769 11.6768 9.40456 11.5274 0.5
770 12.5708 8.58602 6.83219 0.5
771 6.72461 6.26184 6.42805 0.5
772 8.0111 5.6726 1.93889 0.5
773 1.19206 4.90174 0.90218 0.5
774 12.5913 0.525604 1.32686 0.5
775 1.16472 10.8069 11.828 0.5
776 5.51475 9.92732 3.55027 0.5
777 6.88555 10.0731 4.40088 0.5
778 10.8881 2.03641 7.7136 0.5
779 1.15122 7.06408 8.19443 0.5
780 4.17576 4.65394 0.113808 0.5
781 3.71625 1.21839 1.15668 0.5
782 3.64007 13.2654 12.4976 0.5
783 3.33848 6.4076 13.127 0.5
784 0.601396 10.7635 6.56357 0.5
785 0.502003 6.27698 9.16117 0.5
786 10.1273 1.45083 5.15976 0.5
787 2.35321 3.42344 10.244 0.5
788 9.08419 0.200732 2.52555 0.5
789 12.3728 7.35214 4.82246 0.5
790 7.50172 3.57256 10.7424 0.5
791 12.0137 3.52882 11.7038 0.5
792 10.4233 5.35778 4.26939 0.5
793 12.0297 11.1631 6.40914 0.5
794 2.67524 7.64092 13.1668 0.5
795 0.6708 0.902641 5.11027 0.5
796 2.3701 7.11023 10.6242 0.5
797 1.60197 11.8784 2.25866 0.5
798 5.6656 4.30782 4.86514 0.5
799 4.14718 8.19304 10.9544 0.5
800 13.3119 13.4637 12.8101 0.5
801 9.58673 7.7064 11.2117 0.5
802 12.3864 9.1441 6.15394 0.5
803 2.79982 12.6828 11.7689 0.5
804 7.76567 8.29541 0.901209 0.5
805 0.970277 5.07181 9.33911 0.5
806 11.2425 5.67264 1.54111 0.5
807 1.7663 7.69892 11.5722 0.5
808 5.9023 7.17708 13.5536 0.5
809 1.83952 9.93019 11.3961 0.5
810 7.41804 7.45392 8.3869 0.5
811 10.0394 0.485797 0.989576 0.5
812 4.60817 8.83217 3.97109 0.5
813 3.93679 11.0709 11.08 0.5
814 0.497063 12.6966 13.5003 0.5
815 9.11141 7.08117 1.86954 0.5
816 8.80268 3.79487 2.01959 0.5
817 1.75018 8.11283 11.0373 0.5
818 10.4547 2.69975 11.8292 0.5
819 7.52215 8.71223 0.506792 0.5
820 1.78461 9.92363 5.17996 0.5
821 12.1345 11.5282 0.684743 0.5
822 3.91849 11.2308 1.28641 0.5
823 9.5118 9.24805 3.45586 0.5
824 0.0145373 9.58241 3.27656 0.5
825 2.49668 9.58599 1.52627 0.5
826 1.55326 6.39838 12.4789 0.5
827 6.82883 7.89824 13.4758 0.5
828 6.84996 9.28308 6.31198 0.5
829 2.72617 6.96186 1.38432 0.5
830 8.20993 6.95261 2.94988 0.5
831 11.3503 3.14069 0.0725461 0.5
832 5.75788 2.66286 8.76514 0.5
833 2.58491 10.8027 7.69414 0.5
834 2.79381 2.88965 5.1931 0.5
835 5.17641 0.38789 4.48728 0.5
836 2.50982 8.05777 7.31829 0.5
837 10.8691 0.167408 2.28261 0.5
838 3.80653 8.37414 7.54382 0.5
839 1.64774 8.74173 4.65805 0.5
840 3.36622 10.0448 11.8781 0.5
841 7.33137 9.65253 2.49427 0.5
842 6.58979 8.35339 12.8051 0.5
843 12.9295 10.7052 1.02524 0.5
844 0.945485 11.9854 9.06351 0.5
845 12.4322 9.84302 10.6978 0.5
846 4.983 8.67616 13.0388 0.5
847 1.19453 10.9967 7.49757 0.5
848 2.25625 13.269 11.4772 0.5
849 5.17414 11.6625 9.62449 0.5
850 11.3917 5.67888 12.7591 0.5
851 11.5774 5.05762 2.64671 0.5
852 11.071 4.33195 6.20112 0.5
853 8.46356 8.55955 12.8691 0.5
854 0.975029 4.85114 7.04035 0.5
855 8.74283 8.12306 2.29988 0.5
856 1.97459 12.571 7.68042 0.5
857 4.37984 1.61209 4.49877 0.5
858 12.0713 12.4763 9.19563 0.5
859 2.97716 11.0123 11.0698 0.5
860 6.42851 2.91595 4.3229 0.5
861 10.9436 9.44056 7.94138 0.5
862 5.35395 5.50091 5.17772 0.5
863 10.2516 5.52611 6.82079 0.5
864 1.74543 2.25333 7.0751 0.5
865 7.45663 4.18807 1.19188 0.5
866 7.85741 11.8418 10.5136 0.5
867 2.49412 10.2608 2.69764 0.5
868 12.0362 13.0943 9.54394 0.5
869 9.43353 3.33005 0.184045 0.5
870 3.45241 2.437 0.876386 0.5
871 8.04668 8.09095 1.25236 0.5
872 1.84606 0.994921 0.23463 0.5
873 8.36604 3.02348 0.876051 0.5
874 12.5283 10.7076 4.69275 0.5
875 8.42146 8.87599 5.09607 0.5
876 7.95654 11.2864 4.77607 0.5
877 13.2094 0.611215 2.69324 0.5
878 3.84756 7.51671 8.65578 0.5
879 13.2789 6.00915 0.750678 0.5
880 0.0695104 8.6599 10.8303 0.5
881 7.31254 2.93339 11.454 0.5
882 1.31516 8.07143 11.2167 0.5
883 5.72537 2.01578 5.76319 0.5
884 4.22008 0.291853 10.1665 0.5
885 12.6083 11.7198 10.955 0.5
886 5.24617 10.1356 10.793 0.5
887 13.5449 5.21636 11.8133 0.5
888 9.05286 12.4252 7.28206 0.5
889 12.4519 7.23289 7.67362 0.5
890 6.73441 0.16875 1.07269 0.5
891 12.3723 7.46569 10.5751 0.5
892 2.83762 3.96664 5.41193 0.5
893 3.79208 11.1286 12.0948 0.5
894 3.18571 0.212917 6.98989 0.5
895 0.515115 5.17007 7.71768 0.5
896 1.84506 3.26663 13.2022 0.5
897 4.02281 4.5421 4.46929 0.5
898 2.21555 0.122352 2.10105 0.5
899 11.7191 12.8431 6.26433 0.5
900 1.69108 1.26169 10.2612 0.5
901 2.96795 11.9859 4.39539 0.5
902 4.99112 12.6093 1.30738 0.5
903 5.24746 12.2162 5.39112 0.5
904 1.61568 9.8327 2.36469 0.5
905 12.4292 10.4463 11.7418 0.5
906 12.3692 8.19415 1.70158 0.5
907 12.9335 5.44991 1.85678 0.5
908 7.25653 8.78642 12.7142 0.5
909 1.5957 11.1531 10.4696 0.5
910 13.0747 10.4604 6.89376 0.5
911 3.08881 6.69544 12.2908 0.5
912 12.3593 9.69638 0.468968 0.5
913 9.12912 1.63906 11.5907 0.5
914 9.38317 2.07021 11.9615 0.5
915 10.5048 10.8165 1.84693 0.5
916 9.07287 2.61622 7.17828 0.5
917 2.65486 6.10308 1.84725 0.5
918 8.09401 9.39908 4.96571 0.5
919 11.8899 1.04879 8.7031 0.5
920 3.13365 5.97517 2.41255 0.5
921 5.14608 11.585 11.697 0.5
922 11.1898 8.46375 4.97313 0.5
923 8.66845 8.50983 11.3278 0.5
924 4.17028 8.51314 1.1595 0.5
925 11.9562 13.1638 8.52476 0.5
926 8.78092 2.71606 11.1932 0.5
927 8.84222 8.61335 5.36955 0.5
928 6.10553 13.528 6.92988 0.5
929 4.97245 0.539688 7.97368 0.5
930 0.750327 6.27361 9.66048 0.5
931 4.31296 4.80435 7.78687 0.5
932 9.29293 9.545 1.8942 0.5
933 6.68397 4.18242 0.897462 0.5
934 13.0568 12.771 1.59687 0.5