ITEM: TIMESTEP
1
ITEM: NUMBER OF ATOMS
1000
ITEM: BOX BOUNDS xy xz yz pp pp pp
0.0000000000000000e+00 1.3572088000000001e+01 0.0000000000000000e+00
0.0000000000000000e+00 1.3572088000000001e+01 0.0000000000000000e+00
0.0000000000000000e+00 1.3572088000000001e+01 0.0000000000000000e+00
ITEM: ATOMS id x y z radius
1 4.2715 4.07786 11.7619 0.5
2 4.59339 11.248 4.15718 0.5
3 7.49761 10.7229 1.81434 0.5
4 10.4405 6.43879 1.35524 0.5
5 7.22718 8.26097 11.6279 0.5
6 4.43508 10.8195 6.35863 0.5
7 4.18546 7.51369 0.0921261 0.5
8 1.09871 11.4327 1.30126 0.5
9 2.37307 7.24295 4.88268 0.5
10 2.97758 13.1559 10.9263 0.5
11 0.633868 10.2529 8.80047 0.5
12 11.1559 6.62788 1.24636 0.5
13 9.05911 10.7117 6.19624 0.5
14 11.1677 2.22494 3.86767 0.5
15 5.05537 1.40103 4.54116 0.5
16 6.20776 6.63486 9.13978 0.5
17 7.3907 11.543 10.5079 0.5
18 1.68021 8.44359 6.41808 0.5
19 8.19057 5.60267 1.51697 0.5
20 9.6206 11.8278 3.9896 0.5
21 0.519077 4.50956 0.415074 0.5
22 1.79911 6.72983 11.6963 0.5
23 13.4296 1.03906 9.52356 0.5
24 5.26781 6.73884 3.22908 0.5
25 1.26535 6.72153 1.13585 0.5
26 9.79243 8.66832 6.15049 0.5
27 12.2978 6.30732 13.2647 0.5
28 4.85555 10.1575 11.4521 0.5
29 0.895536 5.78769 0.789919 0.5
30 9.56002 9.41217 2.26213 0.5
31 1.33308 0.241665 7.19386 0.5
32 9.89446 2.41824 1.45656 0.5
33 13.5576 7.22455 10.125 0.5
34 2.34155 9.40882 6.95967 0.5
35 12.4879 6.13055 0.770995 0.5
36 12.7807 0.00653192 6.73383 0.5
37 12.6669 0.553847 2.6795 0.5
38 4.92696 3.36938 0.798192 0.5
39 8.85911 5.66695 1.64931 0.5
40 5.47194 5.39454 6.77618 0.5
41 9.44317 11.4911 6.93749 0.5
42 5.91762 4.93189 4.15752 0.5
43 4.85798 3.7629 9.51533 0.5
44 3.54686 9.91008 7.83912 0.5
45 5.29027 8.10956 2.6627 0.5
46 12.2095 11.8082 13.3901 0.5
47 1.49486 9.54324 5.73704 0.5
48 9.2993 9.76463 1.72159 0.5
49 4.89574 11.0681 11.5683 0.5
50 4.78876 2.80363 11.6325 0.5
51 12.9374 10.6399 7.40132 0.5
52 5.07064 9.71154 7.04444 0.5
53 7.66003 4.56014 2.63324 0.5
54 12.368 9.82719 1.80431 0.5
55 0.58464 0.886473 5.77719 0.5
56 11.3277 4.45886 3.50091 0.5
57 12.5501 10.3241 9.63697 0.5
58 5.38604 7.68237 10.7042 0.5
59 3.03765 10.8674 11.4175 0.5
60 5.81619 4.8715 9.70527 0.5
61 3.18671 12.3496 11.6593 0.5
62 0.848064 8.84733 0.373323 0.5
63 11.7536 8.43458 1.20483 0.5
64 11.1841 2.31465 10.44 0.5
65 13.2022 3.74431 5.41493 0.5
66 1.02881 2.67062 1.83385 0.5
67 8.99832 2.75311 7.34363 0.5
68 4.86242 1.33144 3.27913 0.5
69 12.4725 0.193414 11.28 0.5
70 10.9794 4.47796 12.1558 0.5
71 2.26764 5.82377 9.26846 0.5
72 8.06591 4.08 9.513 0.5
73 6.66596 7.14407 10.3667 0.5
74 5.47076 4.0901 8.34487 0.5
75 8.22555 1.95724 10.9932 0.5
76 12.4097 4.29905 1.78585 0.5
77 9.33036 1.58987 3.76264 0.5
78 9.68428 2.19585 6.27455 0.5
79 3.76956 11.1943 5.79522 0.5
80 4.85077 4.14059 7.58348 0.5
81 2.30947 3.4899 10.1017 0.5
82 1.46777 9.15641 13.2406 0.5
83 2.02864 1.80763 7.15867 0.5
84 11.9798 9.24618 7.47325 0.5
85 1.3415 3.69363 9.37379 0.5
86 3.18654 1.13345 11.8017 0.5
87 4.69598 6.37471 6.38054 0.5
88 5.4026 4.67558 4.39052 0.5
89 11.5857 0.630302 7.83637 0.5
90 3.57322 5.12839 4.60122 0.5
91 11.4896 8.18615 11.2383 0.5
92 1.16678 1.67269 1.90766 0.5
93 1.65825 1.93833 0.874928 0.5
94 4.30927 9.53305 12.3801 0.5
95 12.1003 3.49376 9.54469 0.5
96 10.3613 3.10841 3.55765 0.5
97 11.3105 3.63594 4.61706 0.5
98 12.9126 10.7036 12.2648 0.5
99 5.84345 7.49098 7.75529 0.5
100 1.82407 5.32925 5.31334 0.5
101 5.57197 10.9083 2.03978 0.5
102 7.94833 7.71178 12.6631 0.5
103 3.67625 4.62565 9.72569 0.5
104 6.13046 10.0948 6.03056 0.5
105 10.6139 1.685 7.39284 0.5
106 8.02136 1.93425 10.6244 0.5
107 0.274289 5.77635 8.88473 0.5
108 0.323197 10.9415 4.38314 0.5
109 1.20701 10.2451 10.0476 0.5
110 7.85248 8.62111 6.75966 0.5
111 7.4344 13.4619 3.81764 0.5
112 5.70672 1.28928 5.89104 0.5
113 0.733234 2.75942 5.33946 0.5
114 5.5765 5.82848 3.31881 0.5
115 5.75003 6.03386 13.0142 0.5
116 0.718571 5.74594 1.37257 0.5
117 1.08085 13.3622 4.9124 0.5
118 12.3734 7.55753 4.52742 0.5
119 12.0627 8.30923 2.4125 0.5
120 4.08027 10.7675 4.92094 0.5
121 13.4555 13.0284 12.3533 0.5
122 1.48689 4.92258 2.91497 0.5
123 11.246 1.18505 11.23 0.5
124 11.4307 13.0984 12.0048 0.5
125 3.92744 11.879 2.78596 0.5
126 12.1922 11.2259 12.2378 0.5
127 7.57759 9.887 12.1903 0.5
128 4.58988 3.49076 7.06823 0.5
129 2.52961 7.5093 12.9605 0.5
130 1.78739 10.5511 7.6986 0.5
131 7.74273 1.53258 0.336831 0.5
132 5.41802 11.946 2.43051 0.5
133 0.345098 11.1448 8.34179 0.5
134 12.0881 10.922 3.17762 0.5
135 12.6053 3.79526 5.5459 0.5
136 8.58862 1.75277 3.49583 0.5
137 2.39939 0.117222 5.93584 0.5
138 8.96177 13.2553 12.086 0.5
139 5.38062 12.3789 12.9935 0.5
140 4.85572 2.93655 3.33333 0.5
141 1.01295 3.66872 4.06 0.5
142 8.89093 2.18744 1.69524 0.5
143 0.841717 0.0493291 11.4669 0.5
144 8.56342 12.0466 7.16829 0.5
145 6.0274 7.60626 4.16919 0.5
146 10.3632 10.7065 8.65467 0.5
147 5.13556 6.23303 13.5556 0.5
148 12.5648 13.4535 11.0986 0.5
149 5.71011 6.79212 8.26022 0.5
150 0.351659 9.97197 1.21859 0.5
151 5.12363 10.9797 10.6966 0.5
152 3.50358 3.32475 10.1948 0.5
153 11.3378 6.5527 8.01161 0.5
154 3.51719 4.08724 1.55041 0.5
155 2.93673 8.04831 10.312 0.5
156 8.3626 12.5789 0.292718 0.5
157 3.22507 12.6537 2.96804 0.5
158 1.64863 8.59246 8.16018 0.5
159 3.49117 1.64354 10.0603 0.5
160 8.83197 2.33806 12.1295 0.5
161 0.0231146 2.88014 11.9277 0.5
162 7.50213 3.39523 7.68283 0.5
163 13.1647 8.39847 12.5735 0.5
164 8.25359 2.49804 1.50709 0.5
165 7.81905 11.2453 9.94837 0.5
166 12.7674 13.4702 5.89822 0.5
167 12.2245 7.09109 8.46765 0.5
168 2.29697 4.59309 7.89726 0.5
169 13.4551 12.2695 12.2263 0.5
170 4.79057 6.21883 0.552975 0.5
171 10.7936 5.45604 1.04537 0.5
172 9.69648 7.5726 8.82915 0.5
173 8.85318 10.454 3.71865 0.5
174 3.72745 0.220567 0.651253 0.5
175 3.25282 6.17724 1.96549 0.5
176 4.03817 5.01317 2.28271 0.5
177 9.49071 4.22294 7.59006 0.5
178 6.02672 2.78997 3.72699 0.5
179 12.6829 6.85452 2.55417 0.5
180 9.05576 2.25995 0.967545 0.5
181 9.89665 12.7616 9.43494 0.5
182 4.03694 10.483 0.194019 0.5
183 8.57944 7.79205 5.83086 0.5
184 9.95729 3.94304 10.5063 0.5
185 7.72697 3.20504 11.7138 0.5
186 4.22693 8.89989 2.38708 0.5
187 5.32005 12.2805 12.2379 0.5
188 5.6054 5.81078 7.10888 0.5
189 1.18549 10.1555 6.60937 0.5
190 8.92511 0.150846 3.00191 0.5
191 9.19267 5.91309 4.41952 0.5
192 10.9468 2.04333 0.916066 0.5
193 11.082 0.466011 10.1804 0.5
194 9.50212 2.79865 11.9636 0.5
195 12.3916 9.47032 10.803 0.5
196 8.97037 0.567521 4.69184 0.5
197 3.26986 7.08955 8.74304 0.5
198 7.32189 5.51741 13.0729 0.5
199 11.341 4.00405 9.30542 0.5
200 5.40379 6.91008 3.22561 0.5
201 0.374709 4.29968 9.30329 0.5
202 7.23089 0.453596 9.05943 0.5
203 2.157 3.45505 1.59543 0.5
204 1.026 8.01272 9.91421 0.5
205 0.0158248 11.5626 3.09968 0.5
206 13.464 2.16242 8.82379 0.5
207 6.41055 2.03772 10.7835 0.5
208 8.10458 5.27652 8.89314 0.5
209 3.70845 3.05694 4.39198 0.5
210 4.4407 7.11285 4.18975 0.5
211 4.77832 3.67767 9.96568 0.5
212 4.02572 5.80196 3.69035 0.5
213 2.16832 1.48692 4.85966 0.5
214 8.86364 4.11683 12.4863 0.5
215 6.43954 6.73959 2.44999 0.5
216 6.64297 8.81488 13.5294 0.5
217 3.86836 10.8105 5.03817 0.5
218 6.19613 8.09395 4.29412 0.5
219 7.69122 2.02402 2.89123 0.5
220 7.16555 0.0639682 9.42876 0.5
221 2.81097 3.49823 7.71359 0.5
222 7.83708 11.9757 5.0672 0.5
223 4.31934 10.0516 2.09688 0.5
224 11.5159 6.2244 2.89038 0.5
225 9.6582 11.2281 10.6751 0.5
226 11.2471 6.32078 0.449877 0.5
227 11.7621 8.69655 8.88239 0.5
228 3.53022 11.0718 5.44031 0.5
229 5.36969 5.14001 6.10725 0.5
230 5.70049 8.1493 9.16872 0.5
231 6.76727 5.66985 10.5385 0.5
232 6.85165 5.69379 0.362866 0.5
233 13.3762 0.666903 8.99319 0.5
234 12.1192 2.89691 4.64589 0.5
235 0.710274 9.96491 3.08061 0.5
236 10.5686 5.47235 0.68494 0.5
237 4.70048 9.68671 5.33225 0.5
238 0.155945 11.7526 6.11567 0.5
239 9.59188 7.22467 4.37711 0.5
240 3.17658 4.14147 10.5865 0.5
241 4.41505 5.49433 13.4439 0.5
242 4.09965 1.14584 2.15195 0.5
243 0.895272 9.44677 3.13511 0.5
244 2.93306 13.1989 5.60284 0.5
245 2.271 11.5047 11.4006 0.5
246 9.48466 11.1033 8.71497 0.5
247 3.35884 13.1925 9.72647 0.5
248 7.25065 2.10621 0.500702 0.5
249 10.2725 1.61349 1.75872 0.5
250 9.6703 1.53985 0.860128 0.5
251 3.74085 9.21608 9.9302 0.5
252 9.04326 7.83598 3.27091 0.5
253 1.28886 9.17918 0.49123 0.5
254 10.3821 4.67927 3.04321 0.5
255 8.39447 9.65052 1.33104 0.5
256 0.808925 11.9922 3.5713 0.5
257 1.34517 4.05746 8.1668 0.5
258 2.19162 6.48203 7.1451 0.5
259 3.70866 4.27871 9.52022 0.5
260 6.11683 11.2246 10.0341 0.5
261 11.3291 5.00713 6.20021 0.5
262 7.13573 11.2357 5.52237 0.5
263 4.28041 4.89975 7.15469 0.5
264 11.3001 11.023 8.19853 0.5
265 0.521495 5.20843 3.76723 0.5
266 3.2082 12.7716 7.97415 0.5
267 4.20485 7.04811 9.53076 0.5
268 6.94403 1.13448 0.592046 0.5
269 8.32711 0.845117 6.96088 0.5
270 5.86897 11.0602 8.17705 0.5
271 12.2744 12.8952 3.56113 0.5
272 5.61824 9.82131 13.5646 0.5
273 8.40433 3.28938 3.26898 0.5
274 10.124 3.45044 9.82359 0.5
275 2.50798 11.979 1.11667 0.5
276 5.41597 0.213672 12.2724 0.5
277 7.89463 4.919 0.807335 0.5
278 11.3795 10.5833 13.1709 0.5
279 9.97809 11.2578 6.51834 0.5
280 5.5065 10.862 1.03534 0.5
281 8.51155 2.42743 9.99576 0.5
282 1.29234 11.332 0.294805 0.5
283 4.2378 4.9529 2.06204 0.5
284 1.95589 10.5397 0.243931 0.5
285 1.85419 9.78685 6.63706 0.5
286 2.29922 1.74042 12.9236 0.5
287 7.82357 7.34798 7.20406 0.5
288 6.64789 0.224689 6.67487 0.5
289 1.45225 10.1989 2.46974 0.5
290 0.710757 12.4713 5.81482 0.5
291 4.17367 0.381014 4.94019 0.5
292 4.90691 3.98273 13.207 0.5
293 10.681 5.53997 4.60005 0.5
294 1.07842 10.2495 7.37535 0.5
295 2.79621 2.02784 6.86482 0.5
296 0.785349 3.45621 8.37968 0.5
297 12.4201 12.667 12.9736 0.5
298 10.1571 5.27178 0.534189 0.5
299 1.93117 1.30598 12.478 0.5
300 6.87462 5.62237 2.31226 0.5
301 6.38502 6.7654 12.9035 0.5
302 4.07676 7.46356 3.21714 0.5
303 11.2899 6.87027 2.85489 0.5
304 1.42461 5.50889 6.0546 0.5
305 7.40316 13.2761 6.31744 0.5
306 10.9755 9.50295 12.355 0.5
307 2.92169 6.90937 2.35535 0.5
308 1.50296 9.93089 11.0305 0.5
309 0.223977 0.286611 12.3304 0.5
310 8.19382 0.0169877 4.08925 0.5
311 0.241369 5.52758 7.27733 0.5
312 7.56439 11.1615 9.99979 0.5
313 12.1941 11.0116 4.73494 0.5
314 5.23754 9.88636 11.4123 0.5
315 13.2004 5.92843 3.44193 0.5
316 9.28404 4.214 8.38498 0.5
317 12.1023 7.54751 4.02031 0.5
318 13.2037 5.76625 7.52927 0.5
319 10.9078 10.5416 0.0387053 0.5
320 4.77591 3.71974 6.32665 0.5
321 1.98182 12.437 2.63776 0.5
322 10.6325 12.7075 1.64561 0.5
323 4.79456 1.94815 2.17406 0.5
324 9.72961 2.74576 3.42981 0.5
325 2.90883 3.6776 12.4831 0.5
326 12.0824 13.1064 1.01491 0.5
327 9.08491 1.61762 7.16552 0.5
328 13.2531 7.01732 0.173292 0.5
329 10.1449 2.59195 8.48985 0.5
330 9.59589 0.549495 6.00554 0.5
331 3.98979 3.76824 4.7511 0.5
332 11.883 2.90876 9.49826 0.5
333 12.2092 1.17556 5.28215 0.5
334 5.57638 5.45057 13.1699 0.5
335 8.84553 13.3242 4.59626 0.5
336 2.22659 1.13026 9.29434 0.5
337 11.5244 2.05484 9.4285 0.5
338 8.75451 3.35335 9.77869 0.5
339 7.98207 5.00814 1.2646 0.5
340 12.8458 2.04415 0.365087 0.5
341 9.69133 0.722602 10.0648 0.5
342 5.92548 0.0533435 4.81696 0.5
343 6.81262 4.09133 9.79714 0.5
344 4.26805 8.7013 5.21886 0.5
345 8.61377 8.26261 5.17517 0.5
346 2.10728 5.7966 4.78813 0.5
347 0.837567 11.8106 12.352 0.5
348 1.99679 3.75095 0.0890914 0.5
349 8.80051 6.86728 6.28365 0.5
350 7.67295 7.10446 12.912 0.5
351 1.67705 8.78305 11.4488 0.5
352 7.2813 12.4187 8.02205 0.5
353 6.86218 6.40326 2.44021 0.5
354 1.87589 2.94026 4.81451 0.5
355 0.826828 6.53913 2.41469 0.5
356 12.5751 12.3827 2.95449 0.5
357 4.80518 12.5369 3.6489 0.5
358 4.29408 12.938 10.6223 0.5
359 6.10141 10.1264 9.20324 0.5
360 0.494826 4.31675 7.1144 0.5
361 4.73063 2.35714 8.59559 0.5
362 0.358751 2.18028 9.95756 0.5
363 11.6002 12.9641 1.39682 0.5
364 4.57902 7.36712 1.41839 0.5
365 2.96998 9.25186 13.5254 0.5
366 5.09365 10.0085 8.42391 0.5
367 12.1652 12.0525 0.214837 0.5
368 4.74599 4.70908 8.27327 0.5
369 1.08762 3.63005 3.99676 0.5
370 12.2725 10.7222 6.1614 0.5
371 9.2633 1.07519 3.80742 0.5
372 0.598442 5.4608 4.51624 0.5
373 5.14842 2.84229 11.7034 0.5
374 0.136191 8.3192 12.1155 0.5
375 0.612366 9.34624 8.71907 0.5
376 2.1673 9.95759 2.245 0.5
377 6.80973 5.87995 4.60339 0.5
378 5.84742 8.93845 12.6973 0.5
379 6.02772 5.3282 0.41979 0.5
380 6.57489 4.41916 0.884606 0.5
381 10.6861 3.62037 8.34567 0.5
382 9.2759 0.411126 6.75685 0.5
383 0.885616 5.1134 1.23403 0.5
384 5.75392 10.508 12.0711 0.5
385 0.599518 10.5389 0.202171 0.5
386 0.515113 5.10355 4.25055 0.5
387 1.46983 5.27211 11.5997 0.5
388 13.5207 1.46941 10.585 0.5
389 2.55092 9.16742 9.8843 0.5
390 4.87931 3.98114 8.29071 0.5
391 7.51953 13.4472 1.91171 0.5
392 1.22809 6.64863 3.49989 0.5
393 4.49337 5.39492 7.70171 0.5
394 9.87083 9.88492 7.46282 0.5
395 1.31038 0.811855 7.20628 0.5
396 13.2184 1.73038 3.36845 0.5
397 6.84742 13.5497 1.43926 0.5
398 7.23762 10.6337 3.96462 0.5
399 13.3955 5.36438 3.79517 0.5
400 6.68549 8.25847 5.44256 0.5
401 10.1742 1.71362 1.78715 0.5
402 4.30576 7.52518 5.37981 0.5
403 5.44642 12.5587 6.08963 0.5
404 10.8877 11.2837 11.5761 0.5
405 13.2254 5.52864 1.49151 0.5
406 7.41359 0.467706 0.0317269 0.5
407 1.64151 10.9339 2.47402 0.5
408 1.31422 4.63599 3.81219 0.5
409 2.99584 4.29128 10.3729 0.5
410 9.97569 1.37597 3.81593 0.5
411 4.00021 5.61644 12.8632 0.5
412 4.38815 12.0299 12.7868 0.5
413 2.53045 6.73475 9.19936 0.5
414 2.70112 8.83859 10.5196 0.5
415 7.30289 9.89947 11.4386 0.5
416 9.09514 10.3659 6.09729 0.5
417 1.45527 13.4061 7.53881 0.5
418 8.02728 1.71049 10.6472 0.5
419 2.3982 13.1828 11.5541 0.5
420 3.98842 2.19485 7.79397 0.5
421 0.720636 6.42185 10.7494 0.5
422 8.55781 4.01879 7.00016 0.5
423 13.1408 12.5888 1.90414 0.5
424 1.98941 3.76665 4.8537 0.5
425 6.89732 7.4614 12.915 0.5
426 2.49725 11.1173 6.21616 0.5
427 6.95471 2.04047 0.0552186 0.5
428 0.0136247 8.57167 8.73253 0.5
429 8.29781 4.02648 9.07338 0.5
430 7.84999 2.5233 12.3612 0.5
431 3.73019 5.29871 7.89024 0.5
432 1.00917 2.16157 2.68058 0.5
433 8.75087 11.7694 12.8694 0.5
434 12.5676 2.54922 1.15417 0.5
435 10.7347 8.86366 13.4368 0.5
436 6.5731 3.88787 9.43303 0.5
437 3.67055 9.00176 7.31997 0.5
438 5.22873 3.42019 7.21498 0.5
439 11.0888 11.8072 10.6477 0.5
440 9.17624 10.9395 5.83403 0.5
441 5.87788 12.8933 3.87331 0.5
442 1.49957 6.58542 4.34363 0.5
443 1.51755 12.7574 0.545493 0.5
444 8.88226 7.47112 0.934657 0.5
445 4.54166 9.21107 3.32189 0.5
446 3.3536 6.16052 4.55606 0.5
447 0.767755 8.79355 6.40499 0.5
448 5.2768 10.8453 13.2605 0.5
449 3.53051 13.5588 11.4259 0.5
450 3.31564 3.42248 1.79191 0.5
451 7.57295 3.87859 1.08148 0.5
452 2.86474 9.05306 0.263463 0.5
453 4.88472 10.1068 4.80964 0.5
454 3.5893 0.529072 3.10614 0.5
455 1.87203 2.37454 10.593 0.5
456 8.09468 0.57035 6.22138 0.5
457 10.3685 12.1641 7.97107 0.5
458 4.00796 0.771854 10.2923 0.5
459 12.4857 4.87944 6.03111 0.5
460 2.16686 6.97637 0.133314 0.5
461 10.1109 8.19592 9.91639 0.5
462 10.6935 4.43132 7.79892 0.5
463 6.35701 3.69646 6.58056 0.5
464 10.002 8.33489 11.7738 0.5
465 4.78194 10.0381 11.645 0.5
466 3.16858 1.58339 6.65105 0.5
467 1.54545 8.62358 13.2718 0.5
468 11.579 10.1252 10.3617 0.5
469 2.68134 2.83923 10.8855 0.5
470 3.34489 4.90965 10.4304 0.5
471 3.93935 12.9349 9.20077 0.5
472 11.0787 5.77966 4.6375 0.5
473 10.4662 8.13559 7.42501 0.5
474 1.44998 8.02883 9.47318 0.5
475 5.58528 3.92796 5.01252 0.5
476 6.90468 2.32926 11.8566 0.5
477 4.95827 7.11688 8.4552 0.5
478 3.52078 10.3829 1.38153 0.5
479 7.54072 7.6527 3.20431 0.5
480 3.23249 11.5419 7.82569 0.5
481 1.87258 4.56872 1.70218 0.5
482 13.2261 0.455511 0.886058 0.5
483 7.23921 9.86881 3.86107 0.5
484 9.90952 5.90085 4.61268 0.5
485 3.43659 4.90112 1.01994 0.5
486 3.92685 10.7268 8.13791 0.5
487 4.80381 2.73011 10.0333 0.5
488 6.05779 4.77341 6.35423 0.5
489 4.06488 0.659336 2.92584 0.5
490 1.77272 11.3628 6.35461 0.5
491 3.22062 8.4728 12.5007 0.5
492 2.70789 4.19346 11.7363 0.5
493 9.97742 8.1208 9.85771 0.5
494 7.64969 4.12677 1.03983 0.5
495 6.60102 8.80895 0.261939 0.5
496 6.52462 12.1066 0.0531988 0.5
497 6.10685 6.98524 7.82013 0.5
498 3.81207 12.5438 4.46842 0.5
499 7.32538 3.04799 10.2604 0.5
500 12.5573 8.00989 5.55826 0.5
501 4.73615 2.38913 4.58553 0.5
502 9.04664 9.09166 8.77108 0.5
503 7.73093 5.9506 0.737347 0.5
504 2.88986 0.96638 12.505 0.5
505 4.55205 3.50071 11.8463 0.5
506 4.93388 11.0857 0.935638 0.5
507 7.53194 2.43943 3.14945 0.5
508 0.47973 1.82602 5.97595 0.5
509 5.1514 5.4899 6.57244 0.5
510 9.98195 10.002 10.0995 0.5
511 4.9499 0.0144962 5.25869 0.5
512 7.39655 10.0089 4.14107 0.5
513 7.19894 2.9648 2.82174 0.5
514 5.51883 9.26025 1.0122 0.5
515 0.201826 9.92095 3.03525 0.5
516 4.11323 9.57872 2.90439 0.5
517 12.8279 4.24086 4.11853 0.5
518 2.55846 7.97064 8.22332 0.5
519 3.50319 6.81292 9.13049 0.5
520 1.64977 1.46754 0.68891 0.5
521 10.789 5.59901 5.42675 0.5
522 3.39601 11.1204 11.6591 0.5
523 12.8897 8.91495 4.72782 0.5
524 13.4001 2.39835 5.76617 0.5
525 11.7866 9.28742 13.0665 0.5
526 8.66753 12.7873 8.50899 0.5
527 10.4783 11.2866 1.57867 0.5
528 1.17331 0.970843 13.3957 0.5
529 12.8229 0.398119 0.364502 0.5
530 11.4069 5.07004 11.1771 0.5
531 9.39697 9.04637 11.16 0.5
532 5.32586 8.71489 4.32469 0.5
533 5.8223 6.58681 11.3862 0.5
534 2.35606 11.2601 9.94687 0.5
535 9.89316 12.8639 12.4203 0.5
536 1.75718 12.2302 3.43001 0.5
537 2.14335 10.7241 7.49827 0.5
538 7.76321 9.19459 2.13479 0.5
539 2.57283 7.65382 2.67885 0.5
540 2.49285 5.6538 8.6428 0.5
541 3.54256 11.0186 12.04 0.5
542 10.5122 13.2177 11.768 0.5
543 0.402883 5.69776 8.22952 0.5
544 9.91292 1.71389 9.07981 0.5
545 1.99617 6.04923 1.83988 0.5
546 1.47586 0.558963 11.8643 0.5
547 9.25213 5.70025 7.08871 0.5
548 10.5694 1.07274 7.47675 0.5
549 12.3644 12.6029 7.93769 0.5
550 13.2188 11.1803 1.5385 0.5
551 6.35647 2.35713 1.1727 0.5
552 3.80516 5.48478 13.3475 0.5
553 10.5783 4.52274 11.4198 0.5
554 2.67838 13.3777 4.13624 0.5
555 12.8848 4.70675 4.68837 0.5
556 8.91127 13.1106 11.4369 0.5
557 9.60244 10.6607 0.663711 0.5
558 3.71237 2.24933 9.88518 0.5
559 3.57405 12.1832 7.80856 0.5
560 6.30383 2.94471 9.01256 0.5
561 8.3243 9.56857 12.0911 0.5
562 11.8787 3.61163 0.809115 0.5
563 9.19535 5.22293 8.34926 0.5
564 7.77585 4.39962 0.198835 0.5
565 8.96199 5.08222 7.13288 0.5
566 6.78281 1.61847 11.0479 0.5
567 11.0566 4.6601 4.80055 0.5
568 7.08453 2.79404 10.6073 0.5
569 10.697 6.77119 11.9408 0.5
570 11.5853 8.16963 3.06835 0.5
571 3.8831 1.07878 3.50263 0.5
572 4.21756 3.57738 1.163 0.5
573 0.488159 0.845488 5.23082 0.5
574 9.06299 8.37102 3.80871 0.5
575 8.89552 0.854655 1.78681 0.5
576 4.2084 10.8522 7.5146 0.5
577 3.96474 8.10417 2.35134 0.5
578 2.3745 12.0041 0.319022 0.5
579 1.03828 8.93891 11.8057 0.5
580 3.23229 6.22735 7.99284 0.5
581 2.25194 0.19748 7.26561 0.5
582 2.23689 12.1375 10.8669 0.5
583 3.29788 11.5485 1.938 0.5
584 10.6541 5.78103 5.39653 0.5
585 0.434213 4.71377 8.63704 0.5
586 13.3695 5.59498 10.7487 0.5
587 2.0519 2.94177 1.33691 0.5
588 0.287983 0.591596 12.0165 0.5
589 1.31255 9.70878 8.9569 0.5
590 3.28475 10.0421 8.65987 0.5
591 4.49491 3.09996 10.3105 0.5
592 11.401 11.8562 10.0787 0.5
593 6.87372 7.97403 6.62536 0.5
594 0.130098 10.2064 5.87804 0.5
595 10.3947 10.6287 4.64339 0.5
596 9.80253 10.4336 3.31269 0.5
597 4.48036 11.0784 7.24334 0.5
598 8.04002 12.3605 3.82517 0.5
599 10.823 12.7936 8.98436 0.5
600 13.3792 6.14148 13.4785 0.5
601 3.9308 5.91834 2.70765 0.5
602 13.2563 5.64227 9.59948 0.5
603 2.95313 8.29509 11.3201 0.5
604 4.38725 1.87248 11.6413 0.5
605 7.59047 3.24407 10.6665 0.5
606 13.4136 7.11903 4.23257 0.5
607 9.25214 9.14592 8.6376 0.5
608 7.06542 11.7654 11.6648 0.5
609 2.53726 12.3679 13.3762 0.5
610 1.58524 6.91099 9.43974 0.5
611 0.402471 9.00544 9.8963 0.5
612 6.96764 12.4323 2.45125 0.5
613 3.23636 6.06871 4.8156 0.5
614 3.55615 12.1265 10.0223 0.5
615 2.91431 10.8466 8.85327 0.5
616 1.42786 7.57625 1.25858 0.5
617 5.84991 4.26289 3.1231 0.5
618 11.581 7.51957 8.39612 0.5
619 10.8242 4.64278 3.06261 0.5
620 1.83249 10.2865 11.2097 0.5
621 1.48984 4.59662 3.35826 0.5
622 4.24709 9.33757 8.75707 0.5
623 13.2189 7.82847 4.31621 0.5
624 0.507732 6.93932 1.39883 0.5
625 2.46082 2.15733 10.1091 0.5
626 2.24892 4.38302 1.04748 0.5
627 11.3527 5.21111 0.964058 0.5
628 11.7177 4.56421 11.0377 0.5
629 6.7802 3.39343 3.19141 0.5
630 2.10702 3.3222 1.1254 0.5
631 10.3926 1.98693 13.5055 0.5
632 7.35891 12.2903 12.4324 0.5
633 10.7167 0.887027 1.19632 0.5
634 9.82685 11.8135 10.1565 0.5
635 9.42837 1.91804 0.371335 0.5
636 9.53644 2.641 1.43974 0.5
637 11.3978 11.9125 8.16561 0.5
638 6.52043 13.2509 5.22258 0.5
639 7.62363 7.3843 12.1752 0.5
640 3.59951 4.83794 6.68757 0.5
641 8.55413 8.90534 5.10629 0.5
642 11.8263 5.20089 0.931056 0.5
643 11.93 4.33611 9.23021 0.5
644 6.77925 3.71853 9.39215 0.5
645 0.337814 10.3907 5.98446 0.5
646 9.43547 9.68173 13.0441 0.5
647 7.89697 6.27888 12.6537 0.5
648 7.10603 8.71066 13.0078 0.5
649 6.02079 6.57138 12.0516 0.5
650 2.064 1.79541 8.93461 0.5
651 13.3515 6.5545 7.43768 0.5
652 4.77339 4.18461 6.8367 0.5
653 3.53828 5.46756 12.7939 0.5
654 2.54653 9.88354 9.53745 0.5
655 10.1424 13.0616 9.28759 0.5
656 1.94298 12.0043 13.3772 0.5
657 9.46645 1.52004 8.11339 0.5
658 9.73791 9.8135 7.00156 0.5
659 0.362749 10.4423 3.84561 0.5
660 0.590185 0.856509 7.69053 0.5
661 2.33364 5.86225 9.0907 0.5
662 3.71556 10.1708 4.42878 0.5
663 6.27927 12.9225 3.03163 0.5
664 5.356 5.43957 6.30538 0.5
665 9.5611 10.4928 3.16014 0.5
666 6.18458 11.275 10.2097 0.5
667 8.43419 4.95921 9.3755 0.5
668 6.23382 2.99728 3.52664 0.5
669 7.28234 10.5732 2.22691 0.5
670 6.48676 12.2444 8.09556 0.5
671 6.27319 9.51925 1.46709 0.5
672 2.15821 2.77092 4.64528 0.5
673 5.4907 8.93784 13.0844 0.5
674 3.95857 9.09279 12.844 0.5
675 3.03242 3.6026 11.4405 0.5
676 2.26299 0.687283 3.40469 0.5
677 3.06672 7.81858 3.58221 0.5
678 11.8774 8.49317 10.1196 0.5
679 13.2795 12.6576 3.95742 0.5
680 4.91595 12.6207 1.23643 0.5
681 3.40725 1.49076 9.93748 0.5
682 0.0965692 2.46529 11.1879 0.5
683 2.89046 7.01488 0.441196 0.5
684 13.2183 11.196 2.12774 0.5
685 13.1042 9.85838 2.13722 0.5
686 10.9365 7.87843 10.4324 0.5
687 4.84396 9.65128 12.1688 0.5
688 1.21776 6.08573 5.4171 0.5
689 3.56079 3.93603 0.635698 0.5
690 4.3177 8.5423 7.01859 0.5
691 0.409165 10.451 11.277 0.5
692 4.29243 12.423 0.265065 0.5
693 11.902 6.63354 13.1899 0.5
694 5.42865 8.39219 9.02035 0.5
695 11.0467 7.50626 1.53518 0.5
696 11.1418 4.05939 9.31547 0.5
697 0.237467 9.47078 7.71924 0.5
698 6.41094 9.2879 6.08133 0.5
699 3.50097 9.60898 0.529129 0.5
700 11.7592 8.15459 3.73529 0.5
701 9.53456 7.82086 2.00586 0.5
702 3.76631 1.79873 9.28922 0.5
703 3.74867 4.00452 12.9793 0.5
704 9.54503 2.50632 8.01757 0.5
705 11.2223 9.25033 7.48004 0.5
706 6.71442 10.8018 5.75779 0.5
707 4.65632 6.1404 7.03015 0.5
708 1.46736 2.04185 1.92285 0.5
709 10.4279 0.849351 0.395926 0.5
710 5.64028 5.71011 3.83773 0.5
711 0.635503 0.15753 12.6298 0.5
712 12.9145 2.20669 9.66715 0.5
713 8.23519 10.1974 8.19734 0.5
714 13.4517 3.66805 8.35344 0.5
715 10.295 8.56773 2.93856 0.5
716 1.2048 2.53062 10.7294 0.5
717 4.33303 8.91945 1.87703 0.5
718 12.4413 3.89457 8.81532 0.5
719 3.93661 9.92119 10.5907 0.5
720 0.168488 11.0225 0.728524 0.5
721 9.20039 4.79561 10.8586 0.5
722 5.55271 13.0249 12.1601 0.5
723 4.02922 9.11117 9.62705 0.5
724 8.79537 0.580423 9.76451 0.5
725 2.95854 2.85694 3.32095 0.5
726 7.17454 2.59187 7.24638 0.5
727 6.10257 3.29037 12.921 0.5
728 12.4557 3.27927 5.05223 0.5
729 9.88101 5.55637 1.8747 0.5
730 8.35864 4.54112 8.1103 0.5
731 12.1231 0.493469 13.3514 0.5
732 2.1234 4.34114 6.68218 0.5
733 9.38444 11.8623 0.425082 0.5
734 10.3198 10.8596 5.87256 0.5
735 1.86405 5.11353 9.09709 0.5
736 4.11336 4.19019 11.5443 0.5
737 6.38725 2.29901 2.51451 0.5
738 3.19706 6.68665 11.9451 0.5
739 5.80124 1.0159 8.17615 0.5
740 11.7881 2.94031 9.30516 0.5
741 9.63479 2.57711 3.4302 0.5
742 4.87916 8.71408 0.193463 0.5
743 8.62343 7.06651 4.71808 0.5
744 6.17075 3.86596 12.0243 0.5
745 8.71693 6.50312 13.3074 0.5
746 4.33992 8.66444 9.53264 0.5
747 0.399524 0.346264 10.5672 0.5
748 6.10018 11.2971 8.95262 0.5
749 3.83222 10.0443 4.11215 0.5
750 1.94236 1.34925 13.1431 0.5
751 0.939497 7.70186 12.3626 0.5
752 2.42696 1.26463 0.186512 0.5
753 6.54053 1.96098 12.6322 0.5
754 1.8556 0.725777 11.4234 0.5
755 7.21965 2.64194 13.1856 0.5
756 7.43146 7.87517 0.825699 0.5
757 13.4621 6.58936 13.2581 0.5
758 4.50275 12.3599 5.11355 0.5
759 11.0626 6.78996 1.37427 0.5
760 7.2014 4.61958 4.056 0.5
761 3.56504 11.5389 1.8661 0.5
762 12.7879 1.42567 1.11525 0.5
763 12.8961 13.0177 3.31239 0.5
764 9.95375 9.08704 3.17573 0.5
765 12.9418 2.09729 1.72115 0.5
766 9.58294 4.41846 6.16412 0.5
767 5.38428 7.12659 0.3386 0.5
768 13.206 13.4327 10.3024 0.5
769 10.2123 3.31154 4.91785 0.5
770 11.6606 8.81297 6.2865 0.5
771 7.91253 6.67291 6.64109 0.5
772 1.0137 2.7091 10.1422 0.5
773 10.5711 3.66007 8.45906 0.5
774 7.97269 1.5407 3.29667 0.5
775 10.318 1.50975 11.8375 0.5
776 1.52943 8.55544 6.64344 0.5
777 12.2226 10.6738 2.13593 0.5
778 12.9927 10.5842 1.41459 0.5
779 7.49909 8.23625 5.19228 0.5
780 3.43747 11.4313 8.60142 0.5
781 0.596394 2.36759 6.67618 0.5
782 9.8523 2.17008 3.61254 0.5
783 0.785218 9.61419 11.9844 0.5
784 2.02684 3.32197 3.72673 0.5
785 10.9076 10.0407 6.53339 0.5
786 8.0114 4.73768 6.16762 0.5
787 5.42308 11.9536 2.48847 0.5
788 10.3553 7.16746 10.7668 0.5
789 10.9163 2.26546 1.85778 0.5
790 7.87127 1.12314 2.33653 0.5
791 6.54245 6.19463 12.2895 0.5
792 6.8862 2.79338 6.28805 0.5
793 6.69771 8.72223 4.80952 0.5
794 13.2389 0.0714091 2.01977 0.5
795 10.1212 9.21471 5.36472 0.5
796 2.37894 9.39216 7.08359 0.5
797 3.69722 3.77358 11.0449 0.5
798 1.98609 5.33762 3.35692 0.5
799 13.4679 2.64112 6.58822 0.5
800 1.54676 8.45476 12.9657 0.5
801 6.235 5.36871 2.88241 0.5
802 4.09758 10.9158 11.8547 0.5
803 11.4746 12.298 10.9053 0.5
804 0.142266 7.75199 9.97662 0.5
805 8.5469 6.50649 3.30568 0.5
806 2.51746 7.15813 8.64901 0.5
807 3.97747 5.6352 7.32695 0.5
808 2.07685 8.24362 3.89976 0.5
809 9.66409 4.42232 13.414 0.5
810 2.26738 13.2765 10.8117 0.5
811 8.87745 6.15005 3.81365 0.5
812 2.30992 8.63155 11.3631 0.5
813 8.49016 5.65976 13.2833 0.5
814 9.86622 13.0512 4.15464 0.5
815 9.9669 0.495531 9.47205 0.5
816 7.49025 6.17874 2.61268 0.5
817 9.58761 11.4062 5.16959 0.5
818 3.57661 11.5458 2.1366 0.5
819 4.44367 1.53931 6.24461 0.5
820 0.758414 13.0962 8.32 0.5
821 10.4886 2.92044 4.76015 0.5
822 9.73238 0.267121 5.203 0.5
823 9.70277 1.2016 11.404 0.5
824 0.833115 8.94065 5.71859 0.5
825 9.19568 13.0605 1.15382 0.5
826 4.76462 0.624519 7.30714 0.5
827 11.0818 0.776769 2.05112 0.5
828 5.34039 3.61729 2.945 0.5
829 5.25785 2.89686 8.18299 0.5
830 4.94078 11.7376 9.17632 0.5
831 10.507 1.17459 7.67881 0.5
832 0.579397 5.13472 9.85969 0.5
833 1.67325 10.9457 10.6406 0.5
834 8.85732 1.74824 1.68557 0.5
835 2.95667 4.35578 12.5654 0.5
836 7.55533 9.75316 12.893 0.5
837 6.55202 3.2236 13.4736 0.5
838 0.0999324 13.2164 11.5743 0.5
839 5.64053 5.17816 0.685063 0.5
840 7.81694 13.0077 12.183 0.5
841 5.92804 9.2206 6.10325 0.5
842 12.106 5.03197 11.2461 0.5
843 12.3273 4.26064 1.25467 0.5
844 4.39359 4.40779 12.855 0.5
845 11.4017 5.28061 7.51253 0.5
846 5.25431 11.5154 9.69674 0.5
847 4.93066 6.98409 5.90191 0.5
848 5.14756 7.14949 12.5773 0.5
849 0.691083 12.1668 6.2508 0.5
850 10.7144 12.1377 11.2171 0.5
851 5.83813 9.90665 6.59964 0.5
852 5.87754 10.0005 7.81541 0.5
853 3.92912 6.56411 10.2507 0.5
854 10.7229 5.54764 4.39575 0.5
855 9.36157 11.867 3.08454 0.5
856 2.83746 0.0213604 3.66874 0.5
857 8.50278 4.50243 10.6791 0.5
858 6.6326 7.99261 8.74499 0.5
859 11.0723 5.29097 5.83238 0.5
860 10.1841 5.10576 6.52458 0.5
861 11.0263 13.0836 5.95644 0.5
862 9.44564 6.28279 12.1299 0.5
863 6.74724 6.33219 5.20605 0.5
864 7.85824 6.65235 7.67618 0.5
865 13.2857 5.00286 2.18109 0.5
866 5.99728 11.8262 1.75419 0.5
867 11.7129 4.75697 2.79173 0.5
868 10.0577 8.20625 8.74585 0.5
869 2.91929 1.61255 0.723906 0.5
870 5.24141 7.88492 7.07543 0.5
871 12.418 6.72729 5.25115 0.5
872 1.66379 4.72776 12.4551 0.5
873 12.3575 1.51179 2.39773 0.5
874 9.38915 7.25128 0.201189 0.5
875 6.69591 11.2553 5.59799 0.5
876 2.51255 7.35217 8.20623 0.5
877 11.701 8.92077 6.44062 0.5
878 2.79182 11.0899 0.925995 0.5
879 3.38922 4.21815 6.5084 0.5
880 12.5932 1.34981 1.46481 0.5
881 10.9487 11.1156 12.0044 0.5
882 12.4544 9.66105 4.09435 0.5
883 10.4941 0.798703 3.39863 0.5
884 11.8402 2.83479 1.61565 0.5
885 6.97831 10.553 11.3941 0.5
886 2.65701 4.42546 8.56696 0.5
887 1.01209 1.67358 12.0884 0.5
888 4.97928 4.70594 3.02038 0.5
889 9.93355 4.52393 9.97753 0.5
890 11.9002 6.55051 5.95124 0.5
891 2.65159 5.47258 3.05383 0.5
892 8.4245 1.53419 10.8988 0.5
893 9.00219 3.88065 9.5532 0.5
894 6.95806 7.12045 2.76859 0.5
895 13.3045 9.54605 0.0659339 0.5
896 7.18447 11.7723 12.9383 0.5
897 6.6342 11.8579 3.54404 0.5
898 5.69747 12.7966 2.2005 0.5
899 9.24715 3.96687 11.1094 0.5
900 11.2429 0.181803 9.4772 0.5
901 13.553 4.62434 10.884 0.5
902 11.7978 6.02295 8.59284 0.5
903 7.24778 5.78984 4.43891 0.5
904 8.87717 1.89857 4.7486 0.5
905 0.982769 6.42281 7.71172 0.5
906 13.3567 6.16783 3.42668 0.5
907 7.01048 3.63606 8.58676 0.5
908 9.51441 12.7346 5.42624 0.5
909 9.74321 2.47041 3.347 0.5
910 9.47963 2.637 6.94651 0.5
911 6.11388 6.01391 12.9779 0.5
912 6.8126 8.71752 12.8027 0.5
913 12.8741 5.54459 0.0965073 0.5
914 4.81556 1.39125 1.3885 0.5
915 7.59511 4.26813 5.80813 0.5
916 12.3899 8.38525 5.96529 0.5
917 13.1705 13.2723 11.7026 0.5
918 8.20994 6.47709 9.00238 0.5
919 0.637722 11.3466 12.3334 0.5
920 0.380744 11.9268 8.7616 0.5
921 6.58306 5.97374 7.13408 0.5
922 0.496172 3.67873 12.3141 0.5
923 0.305947 3.90606 10.1202 0.5
924 9.97734 0.00347697 9.5235 0.5
925 8.82027 3.15943 2.01679 0.5
926 4.56929 10.7054 11.8296 0.5
927 2.38032 7.38479 3.60602 0.5
928 0.979314 7.46208 7.10568 0.5
929 0.955936 2.24827 10.4703 0.5
930 9.90016 11.4289 9.20204 0.5
931 5.42877 9.60456 11.4725 0.5
932 3.50089 8.56539 3.39954 0.5
933 0.530681 12.4167 13.4505 0.5