ITEM: TIMESTEP
250000
ITEM: NUMBER OF ATOMS
1000
ITEM: BOX BOUNDS xy xz yz pp pp pp
0.0000000000000000e+00 1.3572088000000001e+01 0.0000000000000000e+00
0.0000000000000000e+00 1.3572088000000001e+01 0.0000000000000000e+00
0.0000000000000000e+00 1.3572088000000001e+01 0.0000000000000000e+00
ITEM: ATOMS id x y z radius
1 12.0379 2.35943 7.89029 0.5
2 1.04924 12.6195 1.34367 0.5
3 7.67329 12.3829 9.23562 0.5
4 11.5273 5.49408 13.4715 0.5
5 3.5711 0.628615 12.0966 0.5
6 2.78267 3.88443 10.1562 0.5
7 12.9518 13.5803 9.94303 0.5
8 9.4928 7.76246 1.47871 0.5
9 7.83704 7.7187 9.93154 0.5
10 9.5117 12.8871 7.2346 0.5
11 8.24271 2.89425 9.26621 0.5
12 2.11733 4.41959 7.08885 0.5
13 11.3173 3.6263 8.30585 0.5
14 6.72024 10.7946 9.9333 0.5
15 11.471 1.64374 10.0686 0.5
16 3.51617 1.92476 8.02299 0.5
17 3.78131 3.10698 11.2285 0.5
18 10.7658 7.31696 0.426394 0.5
19 4.37622 8.56584 5.23937 0.5
20 10.9725 4.95197 9.01737 0.5
21 1.7881 2.78938 0.563841 0.5
22 5.27851 12.0885 7.34112 0.5
23 4.26324 12.2792 6.79812 0.5
24 6.93958 6.42232 3.67866 0.5
25 -0.0469094 10.5728 7.57522 0.5
26 9.16886 4.56227 3.34609 0.5
27 13.2984 10.2071 5.39653 0.5
28 2.25294 7.54101 3.66137 0.5
29 11.7244 0.404533 11.9935 0.5
30 1.96024 6.77839 5.60458 0.5
31 6.14148 0.140547 7.65967 0.5
32 2.78523 4.60951 7.58435 0.5
33 11.104 10.4186 12.1711 0.5
34 2.55004 7.52649 1.38505 0.5
35 10.1543 10.1375 12.9309 0.5
36 6.06961 0.861046 0.41488 0.5
37 10.8094 11.2758 7.82211 0.5
38 7.23832 13.3493 3.63938 0.5
39 6.96536 8.88814 12.5741 0.5
40 13.2412 4.76707 3.18297 0.5
41 9.7439 2.3309 10.3211 0.5
42 5.51675 0.255613 11.3508 0.5
43 12.9568 10.3976 4.97819 0.5
44 0.0979885 8.36811 3.21164 0.5
45 7.5819 1.52006 1.41403 0.5
46 11.9942 7.9851 5.41544 0.5
47 4.05929 5.52999 12.7477 0.5
48 11.5219 8.9647 6.57826 0.5
49 3.08801 8.89847 11.887 0.5
50 4.38161 10.0761 11.5543 0.5
51 0.253085 2.5036 0.560708 0.5
52 2.1168 12.7511 9.71032 0.5
53 5.52716 2.08566 5.32728 0.5
54 7.81535 0.799479 6.94571 0.5
55 6.80107 3.40307 8.58218 0.5
56 2.67878 9.75305 12.0869 0.5
57 2.8491 1.42939 9.04308 0.5
58 2.43876 0.438704 3.99162 0.5
59 9.87274 7.96029 4.90255 0.5
60 3.3383 8.35507 12.7627 0.5
61 2.68844 0.50177 6.70763 0.5
62 4.36538 9.52188 6.38737 0.5
63 10.0041 5.86483 3.42013 0.5
64 10.3361 3.10077 2.36164 0.5
65 2.2797 0.983521 9.83153 0.5
66 6.4872 12.5173 0.556309 0.5
67 5.138 9.18787 11.5765 0.5
68 9.09894 2.10594 11.948 0.5
69 1.77983 2.63318 13.4862 0.5
70 10.7998 1.97788 1.20781 0.5
71 7.1016 11.9457 0.391054 0.5
72 4.72594 0.860909 11.523 0.5
73 7.96884 6.89471 0.448141 0.5
74 4.80108 8.91233 0.172584 0.5
75 6.16093 0.384367 6.72087 0.5
76 11.6126 1.1952 9.40255 0.5
77 11.2122 8.03429 3.82543 0.5
78 4.39064 3.30553 7.0384 0.5
79 5.49637 11.5347 11.2942 0.5
80 6.54252 6.06044 1.21527 0.5
81 8.27806 11.1009 12.4903 0.5
82 13.0674 8.81111 1.40602 0.5
83 6.4341 2.83285 9.33523 0.5
84 10.1706 9.46104 8.45815 0.5
85 1.05305 11.58 11.5682 0.5
86 13.1884 6.63658 1.43954 0.5
87 11.1287 6.73881 3.21541 0.5
88 12.4049 3.65833 9.14817 0.5
89 8.38174 6.165 6.99691 0.5
90 3.64951 9.6548 8.56078 0.5
91 1.02837 6.44566 9.32741 0.5
92 6.71418 12.7756 11.7636 0.5
93 10.3746 7.11716 3.38704 0.5
94 12.3128 11.0026 9.19846 0.5
95 12.2088 4.47212 10.1867 0.5
96 6.2576 11.67 11.1611 0.5
97 7.73561 5.30225 13.2023 0.5
98 7.84873 12.0033 6.93491 0.5
99 5.02098 0.747681 9.69732 0.5
100 7.48222 9.54077 11.0961 0.5
101 9.98138 0.23401 1.27338 0.5
102 1.18259 0.327489 11.9331 0.5
103 10.6264 13.5274 9.27263 0.5
104 5.07949 7.68818 5.07227 0.5
105 1.84701 2.90826 8.46092 0.5
106 3.907 12.3646 2.28195 0.5
107 12.7303 7.8929 2.34034 0.5
108 9.79261 11.6953 9.19579 0.5
109 2.23808 9.44598 8.51675 0.5
110 8.35178 12.1929 12.4979 0.5
111 6.94051 7.95357 4.13458 0.5
112 6.58233 2.85231 10.2188 0.5
113 7.40301 3.7755 4.90206 0.5
114 5.16936 7.35964 6.41541 0.5
115 2.20259 9.21306 3.55558 0.5
116 9.56548 0.832101 0.514225 0.5
117 3.4426 2.81325 4.29513 0.5
118 6.95996 1.38549 1.21397 0.5
119 11.726 5.13119 1.80919 0.5
120 11.926 3.68916 13.3612 0.5
121 4.29945 2.19739 10.0569 0.5
122 11.6049 7.95041 0.927195 0.5
123 11.9543 5.51207 3.72791 0.5
124 0.616782 8.73102 6.19035 0.5
125 2.70097 12.3155 12.9077 0.5
126 3.55617 2.42476 8.40891 0.5
127 11.1567 3.57382 4.75616 0.5
128 7.41621 3.94331 8.47516 0.5
129 7.26086 1.29355 10.8983 0.5
130 4.1915 9.05215 2.82392 0.5
131 4.34762 0.337813 4.9206 0.5
132 2.78201 8.01293 2.9438 0.5
133 9.39405 4.18568 8.23085 0.5
134 7.64413 4.95576 0.927767 0.5
135 4.35192 0.288053 3.41442 0.5
136 8.28067 9.34185 4.91935 0.5
137 8.33907 5.27968 10.8661 0.5
138 9.90378 5.72952 4.41579 0.5
139 10.5144 10.7102 5.9475 0.5
140 2.45519 8.74773 2.26131 0.5
141 4.92106 11.4225 1.61551 0.5
142 10.8163 4.48053 9.16542 0.5
143 2.21435 11.8553 11.8126 0.5
144 9.28901 1.27536 1.13623 0.5
145 0.108197 5.7493 4.0641 0.5
146 7.72534 1.28987 7.81599 0.5
147 11.5489 3.46551 6.48345 0.5
148 2.58011 7.38013 8.88857 0.5
149 6.03592 10.2591 8.04595 0.5
150 13.4341 7.62817 10.8438 0.5
151 12.8311 2.43917 3.5674 0.5
152 4.57511 13.4497 1.45088 0.5
153 6.72396 13.0148 8.45143 0.5
154 5.14882 6.94728 4.56822 0.5
155 11.6762 6.28209 11.7806 0.5
156 1.51827 11.299 8.4992 0.5
157 3.24945 12.3696 9.80591 0.5
158 10.2319 11.4453 8.27935 0.5
159 6.37665 11.406 1.81002 0.5
160 5.4391 7.90816 13.5587 0.5
161 8.18783 2.57493 0.778394 0.5
162 8.56936 8.4673 2.53161 0.5
163 0.999073 1.09428 2.39494 0.5
164 6.54005 5.88857 8.55273 0.5
165 5.85978 12.9249 1.77128 0.5
166 8.58567 10.6307 7.74165 0.5
167 7.86152 9.17423 1.50541 0.5
168 12.8946 7.84729 1.01631 0.5
169 2.59536 5.70411 11.7759 0.5
170 9.67924 3.14963 12.6223 0.5
171 4.55158 6.53541 10.759 0.5
172 3.68546 6.2478 6.49827 0.5
173 3.37613 10.0379 2.41256 0.5
174 12.8191 8.88517 9.5169 0.5
175 9.3702 8.47361 3.52758 0.5
176 1.17116 12.4826 1.34939 0.5
177 5.40241 9.82495 3.20733 0.5
178 8.47571 0.0532276 9.16824 0.5
179 5.4011 12.4795 11.5214 0.5
180 6.12557 1.48172 11.6638 0.5
181 12.5142 13.4413 2.06299 0.5
182 5.20031 0.249157 9.51143 0.5
183 6.05251 8.16362 10.333 0.5
184 0.211013 12.5512 10.1015 0.5
185 4.41714 2.342 5.57948 0.5
186 6.87116 12.2004 8.33757 0.5
187 9.32759 13.1658 4.47687 0.5
188 10.1496 2.12237 8.51853 0.5
189 11.4292 0.589008 8.13385 0.5
190 11.8468 4.04623 6.85201 0.5
191 6.04131 2.84666 12.1848 0.5
192 10.2533 12.468 0.303168 0.5
193 1.37439 2.1162 8.727 0.5
194 5.4836 6.55153 7.09067 0.5
195 11.7058 13.003 4.56929 0.5
196 13.3677 3.15778 9.19655 0.5
197 5.9867 5.51092 12.906 0.5
198 11.9024 3.19747 4.08338 0.5
199 10.3375 12.9411 3.5719 0.5
200 1.63637 12.771 12.3559 0.5
201 11.6 2.32186 3.6328 0.5
202 8.40962 8.67068 1.14134 0.5
203 8.07193 6.43742 10.9067 0.5
204 1.82413 9.80514 12.3282 0.5
205 13.1483 5.93478 13.4411 0.5
206 6.75922 13.3732 3.15869 0.5
207 7.14024 10.9721 1.57083 0.5
208 8.73501 12.6749 4.74485 0.5
209 1.25571 2.25529 12.3789 0.5
210 12.1358 3.06628 4.89259 0.5
211 8.91713 2.36002 5.34855 0.5
212 0.245187 9.05351 3.72388 0.5
213 12.7864 9.51242 2.14324 0.5
214 0.968321 2.77672 10.5616 0.5
215 11.907 6.90653 8.09845 0.5
216 1.51986 12.3916 6.60875 0.5
217 0.724591 4.04521 6.77919 0.5
218 13.368 5.55854 5.2139 0.5
219 6.7742 0.341739 7.73159 0.5
220 0.550126 7.24626 2.95378 0.5
221 3.17524 2.78668 12.6877 0.5
222 4.97874 8.00769 3.58693 0.5
223 12.1373 3.37327 5.12821 0.5
224 1.64794 4.83543 2.72116 0.5
225 8.66357 2.44679 1.36615 0.5
226 5.8414 2.62534 12.5868 0.5
227 12.4408 4.81141 5.04106 0.5
228 4.86813 6.49416 3.07157 0.5
229 1.54642 0.619654 13.1833 0.5
230 10.7801 10.6847 10.2885 0.5
231 6.49248 2.93114 4.00847 0.5
232 4.17882 8.64902 9.19323 0.5
233 10.8786 9.83102 3.53593 0.5
234 7.43992 6.47826 10.5811 0.5
235 8.90722 1.74215 0.174709 0.5
236 8.41559 5.51386 1.65554 0.5
237 11.0077 11.5558 9.81869 0.5
238 9.47967 7.28702 8.5262 0.5
239 0.358361 5.41289 7.65552 0.5
240 0.957474 9.73612 4.90607 0.5
241 5.75065 3.56383 8.00585 0.5
242 7.69039 9.75045 6.17238 0.5
243 11.0532 8.87542 12.5646 0.5
244 11.5906 2.76147 8.784 0.5
245 11.1076 10.3701 6.99994 0.5
246 5.42154 6.23901 9.80635 0.5
247 12.1047 2.09498 13.2585 0.5
248 9.51264 12.3482 0.450684 0.5
249 8.71897 2.04534 6.00368 0.5
250 5.02891 4.80837 8.8325 0.5
251 3.58403 6.50395 2.77092 0.5
252 2.72822 13.2491 5.64837 0.5
253 12.5207 1.1318 7.41695 0.5
254 13.203 7.83434 1.17125 0.5
255 8.72561 0.944616 13.3414 0.5
256 10.891 12.9251 0.0544945 0.5
257 0.326526 4.86974 0.807125 0.5
258 10.9692 7.93606 9.80833 0.5
259 5.6571 5.03903 7.34661 0.5
260 10.7184 1.48755 11.2676 0.5
261 11.3996 9.07558 11.0853 0.5
262 6.58127 1.84926 11.4895 0.5
263 2.71453 6.11143 2.38417 0.5
264 0.625199 3.0922 10.0123 0.5
265 11.9876 7.62085 11.3385 0.5
266 0.681332 3.30703 6.892 0.5
267 7.44265 3.96395 7.59439 0.5
268 12.7762 11.176 1.90788 0.5
269 13.2983 11.2815 9.77672 0.5
270 6.12357 0.395807 8.5374 0.5
271 10.2474 12.3578 3.45173 0.5
272 11.399 11.5521 1.46804 0.5
273 7.07568 7.96736 7.90682 0.5
274 13.0713 0.196209 10.5785 0.5
275 7.02231 10.4682 3.01624 0.5
276 1.48149 9.15566 5.25693 0.5
277 2.87113 0.285185 10.0658 0.5
278 13.4257 5.60447 3.109 0.5
279 1.61564 6.37865 4.1259 0.5
280 13.5015 4.90728 6.33773 0.5
281 12.9235 2.54508 8.14126 0.5
282 11.4175 0.136906 4.6389 0.5
283 3.07186 4.03158 0.249835 0.5
284 10.4656 6.73803 0.172803 0.5
285 4.14656 2.16641 1.65526 0.5
286 4.3984 13.2722 4.71853 0.5
287 5.16213 2.92292 11.2387 0.5
288 9.69201 4.8318 9.76848 0.5
289 9.74497 12.0107 3.89881 0.5
290 2.80139 12.6203 2.73586 0.5
291 7.98244 8.00201 4.63645 0.5
292 6.46324 4.72009 3.41093 0.5
293 6.08152 6.47966 3.79219 0.5
294 3.26285 8.00402 3.80275 0.5
295 1.38472 6.31837 11.9368 0.5
296 0.559472 11.7866 3.29953 0.5
297 3.63344 0.932006 13.3369 0.5
298 0.160146 11.6881 5.1063 0.5
299 11.6026 8.90833 7.19093 0.5
300 4.761 10.1068 3.37288 0.5
301 5.10802 11.3683 7.89308 0.5
302 4.96289 7.32028 1.26259 0.5
303 8.04289 9.56586 0.136256 0.5
304 2.72775 7.00262 6.667 0.5
305 3.20313 2.09837 13.3186 0.5
306 0.139269 10.7085 7.57069 0.5
307 3.2824 5.39311 7.00037 0.5
308 11.6345 11.6141 12.5928 0.5
309 3.10445 10.0955 9.49694 0.5
310 7.00924 1.53045 6.46207 0.5
311 0.38938 7.74168 7.01613 0.5
312 1.65442 6.78983 2.96802 0.5
313 3.53663 3.99222 7.54147 0.5
314 8.52086 1.93445 7.65547 0.5
315 10.4898 8.86789 7.90238 0.5
316 2.52002 4.85573 6.56867 0.5
317 5.8314 4.54573 5.16533 0.5
318 1.3184 0.00214353 0.732153 0.5
319 0.617988 5.31953 2.62235 0.5
320 12.2813 1.36785 1.3912 0.5
321 1.91195 8.39809 7.25506 0.5
322 7.68385 5.08604 10.0099 0.5
323 4.92232 4.60569 7.52273 0.5
324 3.14371 8.40555 3.12834 0.5
325 11.4216 9.81734 10.0444 0.5
326 7.63917 8.63255 2.53692 0.5
327 1.56746 7.67213 1.0783 0.5
328 0.215055 5.11481 2.77472 0.5
329 1.97701 8.50718 8.37914 0.5
330 2.22976 11.1038 1.84247 0.5
331 9.27189 4.92213 4.46653 0.5
332 0.329812 11.2787 7.46987 0.5
333 11.5647 7.61942 1.51472 0.5
334 4.63621 13.0807 4.98882 0.5
335 5.87044 11.0248 2.56044 0.5
336 9.86484 10.7864 7.15857 0.5
337 3.4302 12.301 8.56921 0.5
338 9.97736 9.8868 8.00022 0.5
339 7.88616 4.32904 5.81485 0.5
340 3.55203 5.16083 7.74871 0.5
341 5.54054 12.6052 1.17099 0.5
342 10.4762 3.78133 2.13923 0.5
343 6.73279 3.85464 0.819046 0.5
344 0.484536 12.5837 10.1269 0.5
345 13.2926 10.6957 8.16649 0.5
346 3.48819 10.1309 0.897164 0.5
347 3.77858 0.744107 13.2481 0.5
348 7.57272 2.33896 7.60783 0.5
349 5.14025 8.16627 4.74822 0.5
350 4.49361 9.66576 5.08598 0.5
351 5.70058 11.0429 4.03984 0.5
352 12.8393 13.4928 1.28076 0.5
353 5.58974 12.6637 10.2149 0.5
354 7.92425 13.5605 13.0834 0.5
355 5.13514 7.95064 12.147 0.5
356 7.07631 12.7405 6.97279 0.5
357 3.85111 6.79064 10.9597 0.5
358 13.1677 0.261401 11.3795 0.5
359 11.0772 3.78961 6.78195 0.5
360 5.43655 5.66023 3.71901 0.5
361 0.173526 1.80731 5.6942 0.5
362 11.9439 12.6264 1.64399 0.5
363 10.5876 10.2312 8.41353 0.5
364 0.934586 7.38433 7.10715 0.5
365 4.93028 10.1538 4.77244 0.5
366 6.49415 8.53829 6.35903 0.5
367 8.10064 12.1643 9.71333 0.5
368 0.192163 12.9503 12.6625 0.5
369 3.78795 4.71396 12.1624 0.5
370 1.19186 11.6768 12.1074 0.5
371 11.2636 11.99 1.51661 0.5
372 5.90886 5.43792 2.01608 0.5
373 5.90754 11.6433 2.70694 0.5
374 11.6221 2.96223 8.30924 0.5
375 12.5199 6.09997 9.47963 0.5
376 5.86685 10.8027 8.30844 0.5
377 3.10542 2.93178 11.9811 0.5
378 4.75053 3.97596 10.6508 0.5
379 10.8864 1.34024 2.76649 0.5
380 6.43477 12.3572 8.90251 0.5
381 11.5239 9.8691 10.7294 0.5
382 10.278 11.4128 10.8097 0.5
383 4.87234 0.807821 2.8563 0.5
384 9.90188 0.676173 5.41694 0.5
385 3.68537 8.15733 0.474875 0.5
386 3.42988 6.75812 12.723 0.5
387 11.3049 7.48884 12.3006 0.5
388 5.89173 2.31193 2.36257 0.5
389 9.61185 1.2943 2.29767 0.5
390 6.89913 6.95612 10.3314 0.5
391 7.2509 7.41675 2.19211 0.5
392 3.55536 6.74627 8.63661 0.5
393 2.89773 11.2336 2.09068 0.5
394 4.86575 1.9148 2.36064 0.5
395 8.94522 6.5572 4.78588 0.5
396 1.76874 3.93177 5.50728 0.5
397 4.64684 7.35467 9.65351 0.5
398 7.38758 6.70933 12.5797 0.5
399 11.5351 12.1352 7.6316 0.5
400 2.49729 2.84738 9.38066 0.5
401 4.15846 2.53417 6.95967 0.5
402 7.85041 4.01964 5.92548 0.5
403 10.6042 0.424055 5.32456 0.5
404 2.86992 12.695 8.1352 0.5
405 12.9954 9.20548 10.7526 0.5
406 0.165138 5.83167 11.0748 0.5
407 7.54671 7.07389 11.3384 0.5
408 11.6525 5.54585 7.1336 0.5
409 8.36187 12.9479 9.61309 0.5
410 0.742606 12.1804 6.13816 0.5
411 7.20397 2.93138 0.100366 0.5
412 3.68342 7.18492 0.590245 0.5
413 4.801 0.812998 2.43638 0.5
414 3.77143 12.9041 0.270644 0.5
415 10.799 2.39848 9.58175 0.5
416 6.95965 10.7566 9.77026 0.5
417 9.82359 9.59312 0.150502 0.5
418 3.91115 4.12353 12.6777 0.5
419 3.11713 9.98355 3.33421 0.5
420 12.6984 4.55615 13.271 0.5
421 7.17256 2.55572 1.83832 0.5
422 5.73865 2.27335 3.63694 0.5
423 6.4778 4.96416 13.2452 0.5
424 0.270316 0.449217 3.68173 0.5
425 6.00733 10.6019 1.17598 0.5
426 5.70435 7.8588 9.75441 0.5
427 6.95648 3.20344 7.92058 0.5
428 0.101126 8.02223 9.35749 0.5
429 12.3796 11.3322 2.17285 0.5
430 12.4546 9.78672 2.56143 0.5
431 13.1195 9.4688 8.08996 0.5
432 9.35527 3.13291 13.0391 0.5
433 7.44947 7.09668 8.23999 0.5
434 5.30458 4.44609 12.6381 0.5
435 12.9872 0.731727 11.3811 0.5
436 1.61252 12.1287 1.727 0.5
437 10.0902 6.07409 7.81344 0.5
438 3.66844 6.16952 0.0242181 0.5
439 10.1257 8.76506 7.2149 0.5
440 8.38891 2.51708 9.63373 0.5
441 0.239566 9.89519 6.76994 0.5
442 0.271439 4.34317 5.11311 0.5
443 12.5234 9.20455 0.516528 0.5
444 1.29258 10.2701 12.3182 0.5
445 10.0016 4.19535 1.55737 0.5
446 10.6879 0.420042 12.8414 0.5
447 6.92417 5.54543 4.00101 0.5
448 3.94862 2.1738 9.11911 0.5
449 9.06046 8.23609 9.63181 0.5
450 1.39331 0.215303 4.13823 0.5
451 4.28067 10.2375 3.15488 0.5
452 4.67013 3.00495 1.40958 0.5
453 2.68114 5.7363 1.42954 0.5
454 1.73102 7.41955 9.94869 0.5
455 2.90514 10.9754 1.74367 0.5
456 11.9676 3.6083 5.51006 0.5
457 8.58932 3.92882 7.17362 0.5
458 6.33564 5.1658 2.30767 0.5
459 5.49273 13.1068 6.23016 0.5
460 10.1391 2.63326 2.82983 0.5
461 4.40697 8.51999 7.06493 0.5
462 3.20701 5.2538 7.64936 0.5
463 1.47084 9.88977 10.2835 0.5
464 1.62626 12.9592 9.42616 0.5
465 6.19256 13.4184 10.1509 0.5
466 10.5712 12.9911 4.26102 0.5
467 1.65301 3.31268 3.35062 0.5
468 9.02261 1.5327 11.1284 0.5
469 10.8195 5.0512 12.9379 0.5
470 4.39439 1.78696 7.68451 0.5
471 11.9136 8.97597 9.39592 0.5
472 13.0449 8.27977 0.409233 0.5
473 1.14457 10.2346 4.20613 0.5
474 5.87854 0.115672 5.29277 0.5
475 4.00878 7.98738 7.97968 0.5
476 5.80765 1.37489 8.65369 0.5
477 3.19317 8.33287 8.80662 0.5
478 4.89264 9.92679 12.4293 0.5
479 1.74482 10.8662 10.8109 0.5
480 4.23271 9.41094 2.55457 0.5
481 1.04367 6.22752 11.2669 0.5
482 2.57475 6.74799 8.57502 0.5
483 5.64023 1.34514 12.3729 0.5
484 6.75591 5.23999 11.9703 0.5
485 9.33639 3.94846 11.6181 0.5
486 8.22623 0.0714833 10.1309 0.5
487 9.23544 3.04272 13.0659 0.5
488 11.3718 13.45 0.36795 0.5
489 10.0748 9.45685 0.555028 0.5
490 11.6538 8.84578 5.56978 0.5
491 6.59751 1.63143 9.57081 0.5
492 7.1969 6.94384 4.16825 0.5
493 3.41529 3.02805 13.2388 0.5
494 1.57189 2.28971 11.2702 0.5
495 3.64184 11.7338 7.51773 0.5
496 7.56183 1.09438 9.25863 0.5
497 6.87403 7.42339 7.69968 0.5
498 10.9901 12.1743 10.9363 0.5
499 12.4665 9.38044 11.3138 0.5
500 12.6112 11.7704 11.061 0.5
501 6.52432 2.37266 10.194 0.5
502 8.60329 0.889596 4.6023 0.5
503 1.05546 6.15738 5.46773 0.5
504 6.38417 11.9205 3.94133 0.5
505 5.93896 12.0013 9.00741 0.5
506 10.1541 9.51563 0.844794 0.5
507 0.468513 3.3936 12.578 0.5
508 12.4242 6.92395 1.86145 0.5
509 11.3834 8.61739 13.2622 0.5
510 8.23829 13.1439 3.87999 0.5
511 1.05527 0.278796 6.59977 0.5
512 11.6895 0.562335 8.95246 0.5
513 5.66126 7.55983 7.54103 0.5
514 5.6363 11.3888 6.01211 0.5
515 5.4645 4.39232 11.7703 0.5
516 5.31437 2.66899 4.26481 0.5
517 9.86865 13.1056 2.77557 0.5
518 0.65444 6.50718 4.36471 0.5
519 0.578975 4.91624 9.16243 0.5
520 12.7362 4.00995 1.81639 0.5
521 3.26743 12.1767 12.8151 0.5
522 1.05257 11.4387 6.47597 0.5
523 0.513261 7.8799 1.99601 0.5
524 6.49639 1.98862 10.6116 0.5
525 0.614456 3.15607 9.34261 0.5
526 11.9903 9.77977 4.10499 0.5
527 11.5832 10.6629 12.8231 0.5
528 3.74169 2.78038 11.0549 0.5
529 8.0671 2.3593 1.57917 0.5
530 9.25613 7.97743 1.27399 0.5
531 8.09628 12.5398 1.00329 0.5
532 1.25797 7.47469 9.80013 0.5
533 6.92165 10.0219 4.25624 0.5
534 5.21774 6.71882 13.2373 0.5
535 3.44392 11.7344 6.04762 0.5
536 2.36659 13.4678 13.012 0.5
537 0.551257 13.2681 2.96031 0.5
538 9.76456 1.36604 13.1281 0.5
539 11.0273 9.0802 3.82748 0.5
540 13.3621 9.78496 12.9835 0.5
541 5.48808 7.62722 11.5405 0.5
542 3.32271 8.05643 11.7038 0.5
543 4.07305 2.42624 8.33065 0.5
544 6.09797 12.5762 8.03927 0.5
545 9.44687 0.89741 4.46826 0.5
546 3.31368 3.75257 6.90722 0.5
547 4.94737 3.78374 10.8131 0.5
548 9.56976 1.25775 6.58324 0.5
549 9.31364 0.230404 2.13711 0.5
550 12.2561 9.65887 0.944224 0.5
551 7.86867 13.2811 0.573079 0.5
552 2.69398 0.731756 1.47417 0.5
553 5.76922 11.404 13.1715 0.5
554 4.85321 4.6126 12.5592 0.5
555 4.4776 0.476238 2.58742 0.5
556 9.7376 1.12306 7.15907 0.5
557 13.4027 9.24032 0.0195776 0.5
558 3.61977 6.32422 4.63951 0.5
559 0.147518 0.939519 11.7901 0.5
560 2.94293 11.5098 2.74026 0.5
561 6.78405 6.11126 11.1773 0.5
562 12.6205 12.2966 7.77757 0.5
563 12.266 6.65491 12.2004 0.5
564 12.6653 0.611541 1.34702 0.5
565 4.27187 12.6165 1.9358 0.5
566 5.65828 7.10908 3.37562 0.5
567 8.5558 6.26249 5.83961 0.5
568 6.48237 8.264 5.35668 0.5
569 4.58148 4.42925 5.0669 0.5
570 0.236389 1.59953 1.55643 0.5
571 5.37722 4.5666 2.88061 0.5
572 0.17549 4.41213 8.25924 0.5
573 5.16948 11.5902 11.3198 0.5
574 10.5806 10.2717 6.37673 0.5
575 4.03468 5.65503 11.5981 0.5
576 1.55701 12.8736 1.78602 0.5
577 13.2599 9.57186 1.81853 0.5
578 6.10738 11.1721 11.8098 0.5
579 2.27388 0.778733 8.77507 0.5
580 8.95753 8.77657 7.61414 0.5
581 8.70458 5.33479 12.4717 0.5
582 10.0757 8.68377 6.797 0.5
583 7.34373 7.85396 6.14034 0.5
584 13.2538 13.1086 4.46816 0.5
585 9.29193 6.36574 10.7161 0.5
586 2.73104 3.22298 1.59309 0.5
587 6.87833 8.89106 1.64286 0.5
588 12.8649 4.30109 9.44123 0.5
589 2.84524 4.68346 11.5294 0.5
590 4.43373 8.17413 10.386 0.5
591 8.32048 11.4956 2.98077 0.5
592 12.0747 1.18905 2.4842 0.5
593 13.0429 3.66943 3.51088 0.5
594 1.77962 8.16385 13.3585 0.5
595 2.91081 3.3973 9.7112 0.5
596 10.1877 7.7283 7.371 0.5
597 12.475 0.869675 8.70412 0.5
598 6.24909 5.03733 3.86935 0.5
599 6.21056 0.295356 11.4253 0.5
600 8.92993 7.93692 6.85569 0.5
601 3.04167 12.2688 5.47574 0.5
602 9.04044 11.4235 10.8032 0.5
603 1.55345 11.6643 1.6918 0.5
604 9.62797 6.74017 11.8548 0.5
605 13.5075 5.16478 2.61446 0.5
606 6.4481 6.57777 9.36113 0.5
607 4.95122 1.58814 10.1081 0.5
608 5.49728 6.45434 5.8966 0.5
609 12.5846 9.44246 7.19189 0.5
610 3.95584 10.2328 1.00632 0.5
611 11.3321 3.86476 0.29834 0.5
612 5.28006 3.38423 6.17855 0.5
613 10.3939 0.224633 9.63139 0.5
614 5.60645 10.0095 3.1572 0.5
615 10.5902 11.5286 2.00795 0.5
616 12.7034 6.19392 8.93396 0.5
617 10.312 3.52742 13.291 0.5
618 12.2573 7.50067 7.68406 0.5
619 7.81758 8.61258 1.51071 0.5
620 2.82091 9.91992 10.6039 0.5
621 2.38374 2.88249 9.34182 0.5
622 5.47277 1.30919 8.54691 0.5
623 7.40378 4.30253 12.4367 0.5
624 4.93886 6.37762 12.6604 0.5
625 6.69372 12.898 13.4699 0.5
626 7.48826 12.8954 10.127 0.5
627 13.1569 12.3575 7.76976 0.5
628 6.04504 0.347153 7.4118 0.5
629 11.7008 9.28115 11.7405 0.5
630 2.40055 0.570666 7.49747 0.5
631 8.05211 4.87118 2.52624 0.5
632 8.68328 8.80761 5.86981 0.5
633 3.03329 13.4713 4.03898 0.5
634 6.6886 4.1385 11.691 0.5
635 9.35607 11.0809 2.60111 0.5
636 4.28401 1.71628 6.81356 0.5
637 10.1253 7.87465 2.86255 0.5
638 2.85502 13.2743 7.76356 0.5
639 3.74331 0.464677 0.0324644 0.5
640 11.6286 12.246 13.2408 0.5
641 11.3763 1.93051 11.1472 0.5
642 9.92651 5.69989 10.151 0.5
643 0.760935 11.225 9.87304 0.5
644 2.42037 3.00784 5.26369 0.5
645 1.51909 11.6267 12.1833 0.5
646 7.93252 8.48908 9.70784 0.5
647 4.84751 5.22967 8.66994 0.5
648 5.03148 4.99464 10.2609 0.5
649 4.9048 13.2084 3.71162 0.5
650 11.1363 5.47674 12.6466 0.5
651 7.68668 0.835564 10.8836 0.5
652 1.92415 9.93893 2.39526 0.5
653 9.28381 8.85728 11.46 0.5
654 9.02894 2.90539 12.5256 0.5
655 0.439836 11.7847 5.77643 0.5
656 12.8818 0.451244 13.4015 0.5
657 10.0444 0.670782 7.4471 0.5
658 8.41289 2.20462 12.8478 0.5
659 3.2139 0.460558 10.2445 0.5
660 0.390513 5.79202 1.50536 0.5
661 7.14678 6.18743 4.77537 0.5
662 10.1664 6.26703 4.00991 0.5
663 8.18085 6.18922 2.21151 0.5
664 10.7297 11.8707 4.90441 0.5
665 11.2678 13.2961 11.7835 0.5
666 5.6724 7.41708 12.1517 0.5
667 1.18145 1.26848 12.763 0.5
668 10.7302 5.20524 12.8895 0.5
669 3.1759 10.6118 5.73584 0.5
670 6.0032 6.98005 -0.00978602 0.5
671 8.68234 6.22907 0.265894 0.5
672 4.8086 1.80816 0.424365 0.5
673 4.37136 9.08536 12.0744 0.5
674 6.43718 11.5453 11.593 0.5
675 4.78221 11.9463 11.0412 0.5
676 13.3007 0.513287 8.77642 0.5
677 10.6155 3.85681 0.0679134 0.5
678 9.44013 0.35163 11.8813 0.5
679 2.48576 11.8757 12.754 0.5
680 4.02151 2.71361 3.66835 0.5
681 4.9436 11.2999 8.36234 0.5
682 1.38139 2.58378 9.56084 0.5
683 6.33324 9.02523 7.93452 0.5
684 7.56566 4.4404 6.15533 0.5
685 0.349453 1.53743 11.4491 0.5
686 3.96013 3.77904 11.7519 0.5
687 6.9504 2.55424 0.988576 0.5
688 8.73781 12.1329 12.7379 0.5
689 4.45783 0.149248 2.57458 0.5
690 6.73589 0.278624 9.4483 0.5
691 3.62488 4.47022 1.09286 0.5
692 12.0252 9.77718 8.9212 0.5
693 6.47171 7.90021 11.6028 0.5
694 0.513922 5.05234 10.3367 0.5
695 2.3833 12.8342 2.6829 0.5
696 7.15443 6.37399 9.14651 0.5
697 9.79244 2.60603 9.42521 0.5
698 1.825 4.34716 1.19157 0.5
699 11.2262 8.20244 10.5247 0.5
700 4.05555 0.797629 9.17751 0.5
701 10.4302 0.949728 3.35278 0.5
702 9.2797 2.86897 9.76065 0.5
703 1.09765 2.88426 2.48004 0.5
704 5.43706 1.26433 7.03177 0.5
705 7.86124 1.06106 13.0712 0.5
706 9.38073 8.28696 2.72505 0.5
707 1.75083 4.32603 0.287868 0.5
708 2.67387 10.2752 3.05017 0.5
709 9.12472 5.10303 1.91445 0.5
710 8.37101 11.8699 11.6239 0.5
711 9.14194 9.24591 12.4739 0.5
712 3.24167 7.72799 1.02852 0.5
713 12.5296 1.16062 1.19499 0.5
714 5.76082 11.6151 7.37788 0.5
715 4.50324 8.25538 7.57655 0.5
716 5.99072 4.637 1.66202 0.5
717 3.81009 0.314457 0.70762 0.5
718 -0.0196631 7.98841 3.12647 0.5
719 2.96534 1.563 0.998888 0.5
720 3.74124 12.8329 12.8797 0.5
721 10.81 11.1014 0.969451 0.5
722 0.718045 3.79575 8.15463 0.5
723 2.96198 1.77856 4.36413 0.5
724 3.96893 0.835747 6.63364 0.5
725 12.1221 0.360271 10.215 0.5
726 0.402445 6.38695 11.1712 0.5
727 3.0318 1.20527 2.49636 0.5
728 6.55646 6.7816 0.623024 0.5
729 2.84247 5.30285 1.24382 0.5
730 2.472 7.14394 6.09444 0.5
731 10.2212 10.5586 0.789608 0.5
732 6.64922 8.77908 3.32452 0.5
733 2.64387 6.73646 7.40627 0.5
734 2.35037 4.30031 7.00469 0.5
735 11.2338 3.73965 6.60507 0.5
736 1.65894 2.1374 9.29963 0.5
737 2.92904 2.44155 13.2556 0.5
738 1.79652 1.65958 13.211 0.5
739 10.3288 10.7219 2.56351 0.5
740 6.95665 8.7879 4.92673 0.5
741 4.94001 2.21195 7.71553 0.5
742 3.97394 2.31746 11.1037 0.5
743 0.535008 13.1059 8.26779 0.5
744 2.41346 13.4174 3.68962 0.5
745 9.82581 6.13998 2.69931 0.5
746 7.73157 1.87569 7.23702 0.5
747 2.31764 8.20864 2.7914 0.5
748 12.1519 8.82712 6.32159 0.5
749 10.5043 3.00801 5.1614 0.5
750 13.0869 5.23747 6.94191 0.5
751 8.54513 1.10028 13.1406 0.5
752 5.97463 10.7513 1.62427 0.5
753 3.01589 9.948 6.65915 0.5
754 3.784 2.60371 11.4943 0.5
755 7.16848 1.18972 12.4348 0.5
756 2.66213 1.33053 11.0295 0.5
757 9.48218 4.86443 7.34687 0.5
758 1.91775 0.708147 12.9987 0.5
759 7.91902 0.345693 4.76901 0.5
760 3.56073 2.24997 4.57542 0.5
761 4.03168 3.21925 5.20914 0.5
762 0.893894 0.750848 11.1084 0.5
763 11.5124 10.943 2.48636 0.5
764 2.4997 10.4032 10.1114 0.5
765 7.01248 4.64783 12.8315 0.5
766 5.20026 13.237 6.7807 0.5
767 9.2659 5.4163 13.4949 0.5
768 10.5857 5.70928 0.275834 0.5
769 3.91296 4.09004 4.83154 0.5
770 2.97324 1.08885 2.13871 0.5
771 8.17112 8.30148 0.694382 0.5
772 0.291348 11.7258 8.84092 0.5
773 7.93705 0.336539 11.7244 0.5
774 4.35537 2.8754 11.2062 0.5
775 12.4512 0.641107 11.5268 0.5
776 7.81803 5.70843 1.58183 0.5
777 9.63366 0.729405 10.9608 0.5
778 12.4545 0.477596 1.02174 0.5
779 12.9867 6.27368 4.28424 0.5
780 10.8091 1.93185 2.70141 0.5
781 4.93157 0.206901 1.70557 0.5
782 1.8576 6.40791 7.8122 0.5
783 9.75877 6.70216 9.63244 0.5
784 5.18331 10.5322 12.124 0.5
785 4.67724 0.78451 5.95489 0.5
786 9.90433 4.901 9.75186 0.5
787 10.9254 8.5895 1.96588 0.5
788 4.07947 1.40441 12.4682 0.5
789 8.87332 0.23347 11.9526 0.5
790 9.31269 1.48299 13.0736 0.5
791 2.28257 2.97022 10.3349 0.5
792 6.8357 0.546749 6.75179 0.5
793 3.63576 12.9807 2.21366 0.5
794 9.53422 7.42878 8.28104 0.5
795 8.44433 6.28363 8.1052 0.5
796 0.962796 11.6869 3.99179 0.5
797 5.34559 4.9246 9.93178 0.5
798 9.27318 0.109298 8.90272 0.5
799 9.61949 6.41394 7.65371 0.5
800 6.75969 11.7725 10.4737 0.5
801 0.230821 5.99045 4.02803 0.5
802 8.05681 8.92416 10.4998 0.5
803 12.4713 11.1739 10.3145 0.5
804 2.65043 7.94851 0.438579 0.5
805 11.97 8.99889 2.15548 0.5
806 10.7981 7.39233 8.23689 0.5
807 8.65993 4.37607 6.30632 0.5
808 0.415035 2.25295 3.35051 0.5
809 8.55232 9.33488 8.77388 0.5
810 3.77592 12.6116 0.958203 0.5
811 0.21974 0.335963 9.39993 0.5
812 6.92992 8.60572 5.38519 0.5
813 12.2112 3.42984 7.59621 0.5
814 4.52129 6.96302 7.66584 0.5
815 7.95111 3.92866 11.8831 0.5
816 0.497618 6.74117 11.3633 0.5
817 9.70418 7.9647 5.44718 0.5
818 1.24681 10.9388 12.3555 0.5
819 5.70483 5.39903 3.7983 0.5
820 2.25727 4.00389 7.00847 0.5
821 12.143 3.30745 1.1805 0.5
822 5.86577 11.6167 1.02701 0.5
823 3.97214 9.23017 10.8923 0.5
824 8.55262 6.63211 2.66489 0.5
825 6.90241 6.07484 0.414421 0.5
826 10.3468 7.54089 11.1185 0.5
827 3.6039 10.5964 8.08311 0.5
828 8.95255 6.49805 0.442225 0.5
829 5.95522 9.17049 9.53566 0.5
830 9.61787 4.21176 2.89543 0.5
831 6.15158 2.50854 11.9362 0.5
832 7.80128 10.3859 1.75592 0.5
833 12.7691 0.736243 11.9557 0.5
834 1.72954 13.4342 4.92631 0.5
835 7.40203 9.18094 1.30014 0.5
836 7.86538 10.0949 9.53835 0.5
837 2.34023 10.2605 11.9044 0.5
838 9.67089 12.8138 3.41625 0.5
839 5.42431 11.754 4.95998 0.5
840 0.305721 4.39978 6.13306 0.5
841 7.87455 8.17032 9.9015 0.5
842 6.87827 2.43249 5.16259 0.5
843 5.76669 9.58817 0.124176 0.5
844 7.0142 3.66859 1.74891 0.5
845 11.3653 12.3661 7.00046 0.5
846 13.1474 9.0595 9.4574 0.5
847 10.2289 6.76716 8.91583 0.5
848 1.967 6.69078 10.9786 0.5
849 11.9879 2.44595 11.9416 0.5
850 9.53592 6.7698 12.2677 0.5
851 2.09868 8.41996 9.5346 0.5
852 3.27478 0.552007 9.06836 0.5
853 0.974818 5.22169 12.5021 0.5
854 7.14526 1.60993 6.25803 0.5
855 10.7616 11.6602 0.286842 0.5
856 8.94719 13.5221 10.7441 0.5
857 3.65783 2.51889 9.96541 0.5
858 8.48562 6.51955 3.33067 0.5
859 12.2615 1.22275 8.89582 0.5
860 8.05638 5.54986 4.00697 0.5
861 2.30294 2.32356 2.1615 0.5
862 3.87093 3.47408 12.8113 0.5
863 2.94023 7.76893 12.0069 0.5
864 0.429026 12.5399 7.05524 0.5
865 4.28345 5.18121 3.43173 0.5
866 8.19087 9.09085 10.0074 0.5
867 4.9721 0.550301 11.7546 0.5
868 9.82605 5.92068 9.19805 0.5
869 12.1022 3.48636 10.3553 0.5
870 0.235849 11.776 3.37151 0.5
871 9.27938 12.4197 1.24301 0.5
872 7.13445 0.296656 0.771476 0.5
873 1.02392 11.6495 0.394603 0.5
874 6.56254 5.80729 12.094 0.5
875 3.66183 3.29009 11.2218 0.5
876 4.19663 7.14578 6.97117 0.5
877 6.41788 8.87642 10.8031 0.5
878 1.96261 2.41833 7.83328 0.5
879 10.4637 1.03581 12.1693 0.5
880 8.81408 7.01381 6.40585 0.5
881 5.80846 6.34583 7.43793 0.5
882 4.84475 7.05761 7.28818 0.5
883 9.69984 10.7665 0.810879 0.5
884 10.518 6.24475 0.0183326 0.5
885 0.819611 13.4769 6.04674 0.5
886 6.15173 7.93787 8.69229 0.5
887 12.0496 5.95019 9.41407 0.5
888 4.64451 10.3697 5.45653 0.5
889 4.26511 4.0624 9.78424 0.5
890 7.53396 2.39882 5.44558 0.5
891 2.63218 8.60932 12.5548 0.5
892 7.9651 11.7491 6.74954 0.5
893 12.8215 10.1363 5.51667 0.5
894 1.16576 6.05391 0.71493 0.5
895 13.4894 4.77985 5.87091 0.5
896 4.53435 3.04648 5.19595 0.5
897 12.0782 11.0737 1.73147 0.5
898 6.67363 4.00102 1.38434 0.5
899 13.5144 11.9736 10.452 0.5
900 5.68965 8.75598 13.59 0.5
901 5.00162 11.2703 0.0174205 0.5
902 3.41134 5.91422 0.377114 0.5
903 0.0348191 2.84878 10.69 0.5
904 2.40839 5.61727 5.69772 0.5
905 4.49812 6.37422 11.1563 0.5
906 0.390745 6.96548 8.57678 0.5
907 8.49192 8.01803 10.8151 0.5
908 4.50572 10.4114 1.29798 0.5
909 2.17625 10.6337 7.42353 0.5
910 2.0177 4.48049 7.45505 0.5
911 11.4171 6.57363 11.5107 0.5
912 1.34192 0.187942 9.54417 0.5
913 8.22065 3.07879 10.1644 0.5
914 9.80946 8.74754 3.91742 0.5
915 4.08795 10.933 8.80703 0.5
916 5.80189 7.72025 12.6036 0.5
917 13.1335 13.4421 12.9648 0.5
918 7.16725 13.5468 11.4718 0.5
919 8.71099 5.97491 3.13186 0.5
920 12.9782 1.81647 6.68828 0.5
921 1.5778 12.0325 7.2856 0.5
922 5.3423 0.425465 4.08678 0.5
923 2.38733 8.77002 4.97152 0.5
924 4.64487 3.56295 4.03598 0.5
925 5.56596 0.812761 11.5223 0.5
926 7.26487 5.34441 9.03658 0.5
927 1.01552 4.41123 1.39229 0.5
928 2.03431 13.3761 13.3067 0.5
929 1.88657 3.21251 6.09499 0.5
930 9.99047 9.29877 11.1772 0.5
931 11.756 1.3088 2.43538 0.5
932 12.7617 13.05 2.0192 0.5
933 10.1346 8.96398 3.03535 0.5