ITEM: TIMESTEP
200000
ITEM: NUMBER OF ATOMS
1000
ITEM: BOX BOUNDS xy xz yz pp pp pp
0.0000000000000000e+00 1.3572088000000001e+01 0.0000000000000000e+00
0.0000000000000000e+00 1.3572088000000001e+01 0.0000000000000000e+00
0.0000000000000000e+00 1.3572088000000001e+01 0.0000000000000000e+00
ITEM: ATOMS id x y z radius
1 4.93992 0.931705 4.24192 0.5
2 7.08565 9.3206 11.7923 0.5
3 8.04248 7.97784 3.40328 0.5
4 2.26303 4.86232 0.132996 0.5
5 11.9182 2.14659 5.63108 0.5
6 7.53605 12.7648 11.4038 0.5
7 6.23049 2.97558 2.52774 0.5
8 9.53628 4.76484 2.65345 0.5
9 3.1971 6.90238 0.902183 0.5
10 9.61088 6.61641 7.08549 0.5
11 1.7528 11.8081 11.018 0.5
12 6.69935 7.0536 1.61213 0.5
13 6.47246 8.3756 11.0075 0.5
14 10.562 10.9299 6.02604 0.5
15 3.4256 12.4762 10.3087 0.5
16 4.76435 9.9713 2.42182 0.5
17 11.7502 0.444271 5.63713 0.5
18 7.40956 7.37142 1.72219 0.5
19 5.98147 3.54567 7.70243 0.5
20 1.29284 11.4703 11.8554 0.5
21 0.971545 5.0037 9.47906 0.5
22 4.23762 2.86952 1.59036 0.5
23 10.879 12.2542 4.38021 0.5
24 1.04737 5.24105 1.68301 0.5
25 0.393673 3.13833 13.3582 0.5
26 11.0058 2.75505 1.40362 0.5
27 1.69377 13.4256 12.3439 0.5
28 1.10911 3.82077 0.0340168 0.5
29 7.04632 1.20322 5.66068 0.5
30 6.29551 10.0594 10.5771 0.5
31 10.1895 6.83841 7.0729 0.5
32 3.92677 4.98364 2.74185 0.5
33 1.92865 9.70455 9.69929 0.5
34 3.81743 11.9174 0.220608 0.5
35 8.64599 6.63656 3.46467 0.5
36 2.89186 6.92316 10.0189 0.5
37 6.40932 0.160364 1.40194 0.5
38 8.64257 8.40928 9.28731 0.5
39 5.63972 1.52586 8.16714 0.5
40 4.97504 1.19094 9.5582 0.5
41 10.6395 0.755409 11.9146 0.5
42 12.8237 1.53383 11.7448 0.5
43 6.19414 11.9048 8.36012 0.5
44 4.88453 5.99316 8.65023 0.5
45 1.67905 12.4682 6.16994 0.5
46 9.94776 1.23776 0.205581 0.5
47 10.5259 1.14297 10.284 0.5
48 12.6872 13.3201 4.4865 0.5
49 5.86357 11.7571 12.7684 0.5
50 0.696781 4.35887 2.4895 0.5
51 12.4035 13.0377 0.932253 0.5
52 6.82145 13.2737 6.13129 0.5
53 2.02112 11.3843 12.8336 0.5
54 0.877212 12.5271 1.30475 0.5
55 0.961502 1.97413 5.21524 0.5
56 4.34219 2.67358 4.73875 0.5
57 5.33477 3.16356 7.64321 0.5
58 0.0144979 9.90793 1.78827 0.5
59 11.0534 7.85619 4.27713 0.5
60 4.38115 0.582502 11.9494 0.5
61 4.62271 2.34483 9.95643 0.5
62 1.52877 12.2418 6.67886 0.5
63 2.43977 4.47845 0.530695 0.5
64 0.40777 1.96761 7.0401 0.5
65 9.44099 1.61807 12.7696 0.5
66 7.76312 9.35057 0.98768 0.5
67 12.6887 1.68032 10.9636 0.5
68 12.6105 13.2381 13.2786 0.5
69 9.74372 4.63259 1.73937 0.5
70 8.68273 11.2229 11.8321 0.5
71 7.09723 7.1789 4.27947 0.5
72 12.4236 6.77539 2.76297 0.5
73 6.68135 9.94121 10.5753 0.5
74 5.26093 3.54152 12.3131 0.5
75 3.31984 5.36857 13.3698 0.5
76 4.78632 8.596 10.1087 0.5
77 8.09183 13.5822 8.10436 0.5
78 13.4178 9.31177 11.9436 0.5
79 8.08609 1.29836 11.9422 0.5
80 10.9507 4.59768 1.46426 0.5
81 0.476616 3.96826 5.0107 0.5
82 2.7535 10.1409 10.4189 0.5
83 6.02133 7.78135 2.57493 0.5
84 5.4315 13.0818 8.81663 0.5
85 0.418749 6.15979 1.85223 0.5
86 12.8567 11.8402 2.9458 0.5
87 5.99031 0.448753 4.61561 0.5
88 12.2222 4.07616 6.51554 0.5
89 12.7917 1.19628 8.36534 0.5
90 10.4388 12.9681 2.51181 0.5
91 2.84177 5.42404 4.56342 0.5
92 9.53596 6.25886 13.5052 0.5
93 6.45806 9.6504 2.63813 0.5
94 6.27866 12.427 5.48174 0.5
95 4.23661 0.784486 6.81347 0.5
96 12.3926 2.16912 5.13397 0.5
97 0.310925 4.06966 8.89443 0.5
98 1.69491 12.9202 4.8833 0.5
99 11.5019 2.09378 3.65032 0.5
100 5.98877 7.54269 7.20022 0.5
101 8.50534 9.99967 11.4538 0.5
102 3.28527 10.2993 11.5812 0.5
103 10.7669 8.37651 0.212823 0.5
104 5.05149 12.0645 5.64552 0.5
105 12.9636 12.4644 2.98965 0.5
106 2.44515 8.70728 7.29821 0.5
107 5.18447 11.1818 4.38875 0.5
108 0.467511 8.73328 11.5167 0.5
109 7.36316 7.52218 5.5197 0.5
110 3.76731 9.72901 0.634744 0.5
111 12.7721 7.85133 0.0789032 0.5
112 13.309 6.34073 10.1062 0.5
113 8.40928 3.03886 10.8713 0.5
114 5.18377 3.86033 12.9939 0.5
115 10.3636 5.0578 5.46547 0.5
116 10.3945 12.7093 6.06727 0.5
117 6.06347 7.11654 8.36079 0.5
118 4.99498 0.729418 7.60308 0.5
119 13.1714 12.8306 7.37657 0.5
120 8.6812 10.1008 11.9858 0.5
121 5.95145 13.262 4.07945 0.5
122 1.56365 8.30621 12.4926 0.5
123 2.5977 11.6567 4.24208 0.5
124 0.137221 5.31689 6.39063 0.5
125 6.82126 0.622439 4.61994 0.5
126 2.87007 11.6472 4.20323 0.5
127 2.6906 1.70728 1.61189 0.5
128 3.64134 2.95235 12.4947 0.5
129 0.184279 4.24865 6.61109 0.5
130 0.253399 1.73588 5.44727 0.5
131 13.5367 4.12873 2.50359 0.5
132 8.83955 6.34736 10.3606 0.5
133 3.35823 6.71944 0.0470422 0.5
134 6.82063 0.493254 0.992621 0.5
135 12.4164 5.80781 0.807862 0.5
136 5.36481 1.77509 9.54511 0.5
137 2.73876 5.41559 9.21684 0.5
138 13.3964 3.92418 2.59737 0.5
139 2.36557 11.095 5.44812 0.5
140 8.13222 0.648701 3.44269 0.5
141 6.84035 13.58 5.21065 0.5
142 12.6917 0.084341 10.0218 0.5
143 2.11403 2.09731 9.53416 0.5
144 9.70068 7.66768 5.56012 0.5
145 9.24036 13.4522 8.91081 0.5
146 2.0519 13.1053 10.4011 0.5
147 6.52494 9.81726 12.3921 0.5
148 7.92164 0.70856 13.5556 0.5
149 13.4492 2.81646 7.5353 0.5
150 12.3516 6.91663 2.0957 0.5
151 10.026 9.56267 0.133316 0.5
152 11.2514 0.817432 0.314315 0.5
153 8.40823 12.4296 8.12634 0.5
154 4.94999 0.161781 5.33823 0.5
155 13.3258 8.25459 6.74637 0.5
156 5.95566 2.7357 2.10271 0.5
157 8.09928 10.9909 3.69379 0.5
158 4.53929 12.2167 0.50367 0.5
159 7.28152 7.74487 6.73401 0.5
160 8.12228 0.139093 8.86149 0.5
161 1.41488 6.52853 9.94451 0.5
162 5.63448 7.702 11.5096 0.5
163 6.58551 9.8603 12.7668 0.5
164 5.18484 0.295262 0.191863 0.5
165 9.31998 3.44988 8.97875 0.5
166 12.6248 1.14283 0.145778 0.5
167 4.36924 10.3845 10.816 0.5
168 9.91477 3.91751 11.6732 0.5
169 10.5577 6.57191 8.77714 0.5
170 6.65443 8.60295 8.70974 0.5
171 12.7267 9.99764 5.04937 0.5
172 9.40129 7.80793 6.14402 0.5
173 7.93219 0.809338 2.6958 0.5
174 12.3868 1.80567 6.04534 0.5
175 7.62123 3.54648 6.45001 0.5
176 0.412022 10.3838 9.57336 0.5
177 5.30237 7.36467 11.6684 0.5
178 9.76756 0.421481 11.9277 0.5
179 4.21533 1.1018 11.9071 0.5
180 11.6445 9.88152 0.861835 0.5
181 11.6977 3.53325 7.21632 0.5
182 1.22112 2.58102 6.07328 0.5
183 6.53145 9.15313 3.84893 0.5
184 12.0502 11.3322 7.15764 0.5
185 13.1215 12.537 5.04874 0.5
186 9.74961 9.47863 4.87464 0.5
187 10.8111 9.4327 9.29319 0.5
188 2.1733 1.71005 6.03418 0.5
189 13.4754 12.7514 2.32025 0.5
190 12.376 7.67285 2.90423 0.5
191 6.3263 12.5862 8.75524 0.5
192 7.5452 1.03585 9.96226 0.5
193 4.91391 4.73286 4.5387 0.5
194 1.68619 6.83944 8.06295 0.5
195 0.725191 2.2087 7.60799 0.5
196 12.5086 0.493238 2.66287 0.5
197 4.54918 1.43358 2.8597 0.5
198 0.019468 11.5555 0.197032 0.5
199 12.8838 9.79452 4.80024 0.5
200 8.3672 5.90669 9.74643 0.5
201 10.1137 8.87197 6.89585 0.5
202 11.0974 2.36312 6.60022 0.5
203 3.15776 1.41846 9.56512 0.5
204 1.00185 13.2801 5.72027 0.5
205 10.1932 13.3183 10.8419 0.5
206 4.15167 11.1332 3.23785 0.5
207 3.24009 11.6217 1.83672 0.5
208 8.99136 11.4895 1.10253 0.5
209 13.3874 2.35052 10.3736 0.5
210 7.88421 11.464 3.21039 0.5
211 5.38064 11.4606 12.2311 0.5
212 0.596781 3.97233 5.85151 0.5
213 2.1609 9.59136 7.01879 0.5
214 7.18317 13.0755 4.96378 0.5
215 12.9856 9.28812 6.15103 0.5
216 6.54529 2.44733 10.9899 0.5
217 6.71653 6.14379 12.3677 0.5
218 10.9773 7.98643 7.1386 0.5
219 10.2869 10.4533 5.00802 0.5
220 8.1099 5.30053 6.21622 0.5
221 8.55075 8.0157 11.4461 0.5
222 10.5676 3.82915 2.0669 0.5
223 1.60187 9.3164 1.92773 0.5
224 5.88613 5.07675 8.41518 0.5
225 13.0112 9.51855 1.13302 0.5
226 11.0566 7.90539 7.24174 0.5
227 10.703 13.3168 6.805 0.5
228 4.53312 8.39666 10.4999 0.5
229 5.54161 10.1881 5.87132 0.5
230 8.85609 10.4397 2.5418 0.5
231 5.63474 5.37552 11.4201 0.5
232 3.36308 4.71526 5.89039 0.5
233 3.02677 3.42583 12.5593 0.5
234 5.66977 1.88794 6.05071 0.5
235 3.91283 9.34189 3.48411 0.5
236 8.55709 5.72898 10.351 0.5
237 7.63571 2.3549 1.79637 0.5
238 5.69428 9.75721 9.75148 0.5
239 0.465513 4.68244 2.23119 0.5
240 10.8745 13.2274 3.51169 0.5
241 3.87436 7.67005 10.4 0.5
242 1.3794 4.92556 6.94034 0.5
243 1.13046 4.38395 11.2319 0.5
244 0.930605 7.41745 2.54538 0.5
245 13.2161 11.6801 6.44674 0.5
246 7.33721 1.77785 11.2487 0.5
247 5.04628 4.49281 11.9571 0.5
248 8.11855 4.53844 8.83042 0.5
249 5.29442 0.219158 9.69934 0.5
250 4.2858 11.3717 7.46676 0.5
251 13.4852 12.8753 8.71917 0.5
252 1.15067 2.23156 4.76249 0.5
253 11.4214 10.302 13.4907 0.5
254 10.7943 5.66655 12.8699 0.5
255 5.38641 11.5884 0.0909282 0.5
256 2.56575 8.41948 13.4194 0.5
257 5.03827 9.94572 4.15965 0.5
258 0.846536 8.89126 1.12046 0.5
259 5.37101 5.86659 4.67093 0.5
260 11.6975 8.69005 2.2979 0.5
261 2.80601 6.82322 3.37268 0.5
262 8.25725 0.582313 6.90726 0.5
263 9.84329 2.25372 8.51226 0.5
264 0.773714 0.834956 2.34792 0.5
265 11.1291 10.7337 3.04805 0.5
266 11.6222 1.63372 6.91804 0.5
267 7.61616 0.673717 8.73923 0.5
268 2.06516 9.04821 0.203199 0.5
269 11.3305 4.39119 7.81072 0.5
270 11.5617 0.154206 6.86486 0.5
271 11.5099 9.57996 8.26348 0.5
272 11.3327 11.2937 8.94094 0.5
273 8.21428 1.5417 11.0123 0.5
274 2.15765 8.45751 6.14084 0.5
275 12.147 8.84673 4.29478 0.5
276 5.79989 6.27133 4.4039 0.5
277 3.13643 4.2132 12.5444 0.5
278 1.6967 2.80648 11.0057 0.5
279 2.2196 10.0594 10.2194 0.5
280 6.09585 5.23847 0.334319 0.5
281 9.45308 2.56313 2.36059 0.5
282 5.73766 1.87506 9.46302 0.5
283 10.4509 6.68372 9.01646 0.5
284 8.52065 1.60224 6.27186 0.5
285 8.83198 7.40767 5.49022 0.5
286 4.5663 9.58771 11.4649 0.5
287 1.13096 13.0703 4.21639 0.5
288 13.2758 10.2739 3.59594 0.5
289 11.3915 0.63377 4.09542 0.5
290 9.95935 4.59276 2.64745 0.5
291 1.50992 8.89939 6.32917 0.5
292 11.2912 10.1456 3.01243 0.5
293 7.49352 1.82118 8.98222 0.5
294 9.01764 6.14154 10.2311 0.5
295 11.4179 4.91391 6.13276 0.5
296 0.759824 5.11329 4.32944 0.5
297 12.611 8.6909 1.26397 0.5
298 11.8788 6.60185 13.383 0.5
299 2.46804 4.35427 7.58221 0.5
300 8.59418 12.5341 8.2911 0.5
301 11.4625 5.48674 6.4635 0.5
302 9.92477 10.4145 3.35826 0.5
303 5.58156 10.8578 7.3572 0.5
304 10.9553 13.2065 0.998693 0.5
305 9.53384 1.49358 11.2636 0.5
306 12.529 6.50172 10.4572 0.5
307 12.8613 7.2952 9.95226 0.5
308 13.0862 9.27002 5.06262 0.5
309 8.62331 6.3217 12.7379 0.5
310 5.46628 5.45213 7.44952 0.5
311 3.01999 4.73187 0.118745 0.5
312 7.16127 4.05777 2.42112 0.5
313 1.93777 6.10299 12.4507 0.5
314 0.775945 6.44938 4.11295 0.5
315 12.6629 10.9759 0.292852 0.5
316 4.25291 10.9054 9.37869 0.5
317 10.4416 1.10754 0.690942 0.5
318 12.0277 7.58501 7.54592 0.5
319 0.866403 5.34224 7.84411 0.5
320 8.83468 3.75665 11.5819 0.5
321 9.56732 0.350134 7.41584 0.5
322 6.6012 10.3574 3.45334 0.5
323 7.54714 7.01671 7.5222 0.5
324 2.44539 1.18829 4.40772 0.5
325 8.11286 12.1329 9.3782 0.5
326 1.41017 0.975692 13.5443 0.5
327 8.45248 6.88965 2.09474 0.5
328 10.7546 6.72886 6.17163 0.5
329 3.081 11.2892 9.49683 0.5
330 12.2193 2.01515 2.10457 0.5
331 0.51324 10.9259 5.7952 0.5
332 2.42385 1.88819 1.74233 0.5
333 5.54307 5.66707 8.02285 0.5
334 6.17912 12.8952 10.9998 0.5
335 6.31069 11.2246 2.95062 0.5
336 8.54279 10.2698 8.09126 0.5
337 12.5011 4.23375 3.25049 0.5
338 8.37447 8.00032 7.43193 0.5
339 4.41459 7.83096 8.3217 0.5
340 5.58507 11.686 5.8815 0.5
341 1.34151 12.8596 11.4364 0.5
342 4.14588 2.73541 6.43324 0.5
343 3.28933 1.23495 4.42118 0.5
344 9.5244 4.69781 12.8531 0.5
345 12.1841 4.57543 4.197 0.5
346 6.78376 12.8131 10.0555 0.5
347 11.4353 9.04613 11.3891 0.5
348 4.29305 13.4303 9.11633 0.5
349 6.58375 7.48366 1.47468 0.5
350 11.7269 5.68203 5.22144 0.5
351 0.65107 11.3269 3.70909 0.5
352 6.58474 1.04038 6.14224 0.5
353 7.7211 13.306 4.81511 0.5
354 6.35846 13.4309 6.97485 0.5
355 6.94622 9.99399 2.98623 0.5
356 12.1338 10.8807 11.459 0.5
357 3.58466 7.83089 9.93536 0.5
358 12.396 6.31037 7.56159 0.5
359 7.34386 9.96909 1.16206 0.5
360 2.16498 3.90883 9.21149 0.5
361 9.4936 11.9931 8.20414 0.5
362 0.215619 7.60921 6.03353 0.5
363 3.58252 9.6343 6.90519 0.5
364 2.85116 4.60109 9.8278 0.5
365 10.0121 7.70722 0.809923 0.5
366 1.38135 2.95009 3.05542 0.5
367 4.45624 7.76461 0.358277 0.5
368 8.13553 13.1098 12.5827 0.5
369 2.8716 10.1937 8.11644 0.5
370 4.85579 1.8385 11.1582 0.5
371 10.0117 3.4295 7.02406 0.5
372 7.05255 11.4628 11.366 0.5
373 9.08581 3.78694 13.4857 0.5
374 10.9319 12.9806 2.93668 0.5
375 11.7599 9.0373 10.3156 0.5
376 2.72678 6.5147 12.6893 0.5
377 2.24994 7.18243 6.70471 0.5
378 0.825771 1.11938 0.170775 0.5
379 9.88195 12.716 3.94274 0.5
380 9.36379 2.70081 0.522503 0.5
381 8.27081 9.81151 11.1304 0.5
382 12.9137 12.0809 12.1378 0.5
383 6.93953 9.39465 4.99887 0.5
384 8.71758 3.82661 10.6918 0.5
385 6.97664 6.3269 3.89592 0.5
386 6.01932 12.0281 2.79114 0.5
387 3.28626 3.75906 5.87369 0.5
388 13.3708 7.96497 12.9339 0.5
389 5.28045 6.19432 5.30941 0.5
390 9.08979 0.764141 3.94701 0.5
391 10.7501 1.92664 7.51008 0.5
392 7.37899 4.18116 1.45077 0.5
393 9.5009 3.97571 4.03227 0.5
394 12.6544 6.93181 12.4994 0.5
395 7.93771 7.23081 11.7794 0.5
396 4.46856 1.92918 13.4488 0.5
397 3.07924 8.24752 0.14259 0.5
398 1.03769 6.36809 7.43237 0.5
399 4.12604 10.657 3.58308 0.5
400 12.5833 6.19835 1.44744 0.5
401 8.2007 7.99052 0.437865 0.5
402 0.527501 4.18949 3.00434 0.5
403 3.67813 4.90568 5.66935 0.5
404 6.63954 8.88611 12.3942 0.5
405 11.5049 2.85652 12.3147 0.5
406 10.157 5.79168 12.8537 0.5
407 2.53763 7.21445 4.57651 0.5
408 0.968441 1.73452 10.7861 0.5
409 10.2339 10.9356 10.5706 0.5
410 5.34342 8.99197 11.935 0.5
411 11.0439 6.23011 6.05874 0.5
412 1.22822 12.1554 6.80549 0.5
413 5.00987 11.663 0.884026 0.5
414 4.87677 7.2663 3.06026 0.5
415 7.5139 7.64167 8.44197 0.5
416 0.374235 5.7128 0.681303 0.5
417 2.2196 1.52632 10.1413 0.5
418 1.96941 3.88428 11.704 0.5
419 5.20694 2.14334 9.49032 0.5
420 3.74203 7.40235 11.2695 0.5
421 13.3771 2.24029 11.1963 0.5
422 10.4749 4.76109 0.756018 0.5
423 10.1607 11.1051 0.271467 0.5
424 1.24972 0.629376 0.628742 0.5
425 10.8595 12.8432 0.522626 0.5
426 4.76277 5.28047 4.23601 0.5
427 10.9043 4.38507 5.30574 0.5
428 12.7304 6.2465 8.25578 0.5
429 2.87493 2.19702 11.2795 0.5
430 7.54285 8.75342 11.7836 0.5
431 12.9806 12.9853 8.66801 0.5
432 1.75494 7.28839 8.78256 0.5
433 2.38564 11.7731 7.17291 0.5
434 1.46811 2.28063 1.60975 0.5
435 12.5415 3.79285 9.43188 0.5
436 7.1488 5.98956 7.64381 0.5
437 0.809484 5.25417 12.2779 0.5
438 8.38624 1.97007 3.05914 0.5
439 8.24734 10.7359 11.8493 0.5
440 6.26426 12.8806 3.76535 0.5
441 2.40913 11.784 3.27684 0.5
442 3.36053 6.77259 0.510967 0.5
443 6.52601 12.8646 9.86976 0.5
444 9.33775 1.33784 7.59963 0.5
445 13.2179 7.21777 12.4649 0.5
446 6.80059 3.51642 13.2758 0.5
447 7.82056 0.569924 0.310621 0.5
448 3.59398 5.11573 12.6338 0.5
449 12.5845 3.16952 7.37871 0.5
450 9.96215 2.71272 12.9349 0.5
451 6.92299 6.25851 13.0491 0.5
452 11.3069 13.3502 5.60341 0.5
453 7.45022 4.74714 13.3409 0.5
454 2.528 10.0597 2.47461 0.5
455 1.63038 8.01316 13.1067 0.5
456 0.783096 6.09051 9.17596 0.5
457 11.6037 7.15186 5.50112 0.5
458 5.39965 13.0651 1.70668 0.5
459 11.532 10.7152 6.8705 0.5
460 11.4687 11.7384 11.0704 0.5
461 5.90243 3.56332 7.03346 0.5
462 7.04252 5.12168 6.57227 0.5
463 4.41648 3.40418 5.70649 0.5
464 1.77276 5.99539 1.01484 0.5
465 12.8679 11.5347 4.43777 0.5
466 7.89227 5.799 1.56284 0.5
467 5.08779 2.01598 7.19877 0.5
468 9.11409 12.8584 4.72419 0.5
469 6.00585 9.82038 4.23289 0.5
470 3.45602 10.1084 4.74864 0.5
471 3.16129 5.45608 10.9105 0.5
472 11.9998 3.98591 5.52631 0.5
473 0.653878 2.5856 5.31203 0.5
474 10.4925 11.3305 5.23146 0.5
475 13.2966 5.5279 8.15474 0.5
476 12.3208 12.0773 9.21615 0.5
477 13.3404 11.3945 6.36603 0.5
478 0.11259 5.06619 3.75054 0.5
479 5.29419 11.9714 10.0993 0.5
480 5.27789 4.0739 1.68656 0.5
481 12.7167 3.67603 8.45005 0.5
482 11.1854 6.48979 9.76824 0.5
483 0.607831 5.9876 2.16829 0.5
484 12.4864 6.53979 3.65497 0.5
485 4.49517 5.55806 6.21279 0.5
486 9.74102 7.94736 3.91101 0.5
487 4.10803 13.4107 12.7827 0.5
488 8.5188 10.067 11.4228 0.5
489 3.56278 2.94423 13.3293 0.5
490 8.91992 5.97945 3.07771 0.5
491 4.46949 6.85452 4.00007 0.5
492 11.5869 0.0861226 3.0945 0.5
493 12.1324 0.138995 0.62392 0.5
494 10.2974 4.28023 7.83299 0.5
495 11.9349 9.34931 10.5457 0.5
496 8.98783 12.8309 4.62377 0.5
497 2.67971 11.3057 0.500475 0.5
498 8.62147 0.663061 3.28601 0.5
499 7.61692 5.45706 2.3303 0.5
500 5.7055 10.9516 6.99396 0.5
501 0.253856 7.57122 3.94182 0.5
502 11.9083 3.63434 1.44811 0.5
503 0.739577 0.397889 6.96031 0.5
504 2.1494 12.7437 12.9812 0.5
505 4.0958 12.1217 1.03727 0.5
506 1.01704 5.52976 2.34485 0.5
507 0.79088 4.78083 9.54366 0.5
508 8.80912 6.51515 6.42528 0.5
509 8.19115 13.4687 10.0969 0.5
510 2.09476 4.90481 8.63278 0.5
511 8.25459 2.03102 4.92403 0.5
512 10.0614 0.812082 11.8655 0.5
513 11.1545 3.71611 5.56183 0.5
514 2.78299 2.12459 0.617728 0.5
515 11.8387 6.50758 4.48506 0.5
516 3.28896 6.37974 11.1805 0.5
517 11.808 0.948093 0.859119 0.5
518 3.80028 2.365 10.0783 0.5
519 10.3699 12.0564 0.587906 0.5
520 4.3338 0.738085 6.86696 0.5
521 10.8767 3.9435 1.713 0.5
522 12.2856 2.30536 3.11216 0.5
523 13.2764 8.14396 0.290502 0.5
524 13.4999 2.78812 0.489105 0.5
525 0.0989902 8.52001 2.92251 0.5
526 1.26983 10.0252 8.33908 0.5
527 1.17727 4.40506 12.485 0.5
528 13.162 13.2216 9.57442 0.5
529 4.68357 9.07163 9.4694 0.5
530 9.50897 10.4455 12.6811 0.5
531 11.1909 12.1051 11.8484 0.5
532 2.45162 7.33503 2.26635 0.5
533 1.27654 0.892908 0.250727 0.5
534 3.40025 6.13371 5.04971 0.5
535 5.20153 0.852534 7.22349 0.5
536 6.1304 6.6771 7.20563 0.5
537 7.79582 11.8832 12.6495 0.5
538 8.78843 1.48734 11.1719 0.5
539 2.17796 8.65788 8.45582 0.5
540 12.2142 1.56157 8.19882 0.5
541 8.24533 5.08523 3.51708 0.5
542 11.9401 11.9038 7.055 0.5
543 10.0689 6.2173 10.9428 0.5
544 8.98773 4.7309 10.0755 0.5
545 10.6845 6.73722 5.57576 0.5
546 0.767449 12.8592 0.51172 0.5
547 4.02446 13.5317 5.87523 0.5
548 6.71045 11.4081 10.4697 0.5
549 8.81526 7.7929 8.99814 0.5
550 3.87151 0.133175 4.95092 0.5
551 7.66306 8.37607 11.2136 0.5
552 6.98734 0.423113 13.4009 0.5
553 3.96757 1.68182 0.761105 0.5
554 10.5662 1.66482 13.04 0.5
555 8.01553 4.19319 4.57839 0.5
556 12.6907 10.2913 10.3255 0.5
557 12.8429 2.48405 8.10089 0.5
558 6.5284 7.35694 10.6022 0.5
559 11.7911 3.82529 11.8324 0.5
560 4.17201 2.51886 2.00104 0.5
561 2.15621 1.88495 5.44499 0.5
562 6.256 8.26756 11.179 0.5
563 8.81501 11.4592 11.5757 0.5
564 3.85058 1.21849 5.99045 0.5
565 0.797889 2.32269 7.74991 0.5
566 12.3077 11.7459 10.7646 0.5
567 11.2712 9.39704 1.78606 0.5
568 2.54172 10.5672 7.64194 0.5
569 12.3042 7.97226 0.540426 0.5
570 7.47274 3.42465 0.114183 0.5
571 4.46504 10.7995 12.8614 0.5
572 11.1818 3.92651 10.9379 0.5
573 7.36155 11.1969 0.219879 0.5
574 3.48913 7.1213 2.9043 0.5
575 2.54189 2.67181 0.150575 0.5
576 2.14836 11.9709 12.8252 0.5
577 8.9409 1.70298 10.0497 0.5
578 6.19902 9.2231 2.65081 0.5
579 4.76918 5.73659 8.46054 0.5
580 5.13017 1.4637 6.81355 0.5
581 6.95374 6.38635 10.1853 0.5
582 12.9966 7.26128 0.590055 0.5
583 11.2222 0.142319 4.25413 0.5
584 2.18518 11.214 12.3697 0.5
585 3.03837 9.04481 9.04123 0.5
586 5.5865 1.09517 0.295114 0.5
587 1.35231 12.9584 1.26976 0.5
588 3.61339 9.31582 5.37151 0.5
589 7.33363 0.206214 11.6571 0.5
590 7.07036 4.25688 1.08726 0.5
591 4.51287 12.4577 8.26268 0.5
592 2.92439 4.93757 4.74711 0.5
593 11.3525 10.9492 9.48638 0.5
594 11.0076 0.349346 9.00564 0.5
595 4.49617 6.21968 13.2679 0.5
596 3.332 12.0438 9.63974 0.5
597 13.2735 10.816 5.21865 0.5
598 3.8571 8.46294 8.01844 0.5
599 8.20855 9.95583 7.07307 0.5
600 2.0634 12.7883 8.14914 0.5
601 13.3734 11.1755 9.17959 0.5
602 12.4953 10.0923 12.2108 0.5
603 5.70041 11.6442 5.26484 0.5
604 11.5396 10.095 9.46909 0.5
605 4.29281 0.320842 1.67425 0.5
606 4.17473 9.98887 6.53875 0.5
607 9.07951 4.71296 2.74466 0.5
608 3.17207 6.2965 2.52616 0.5
609 0.935735 1.09119 9.0641 0.5
610 1.41341 9.23278 12.6728 0.5
611 11.2232 13.052 5.75584 0.5
612 3.69585 5.75635 11.2064 0.5
613 12.2595 1.93248 6.65504 0.5
614 4.93037 10.3253 4.25468 0.5
615 3.93183 11.693 7.74497 0.5
616 12.4944 2.14699 6.6291 0.5
617 4.9195 0.456537 12.1203 0.5
618 11.3468 11.5936 0.69468 0.5
619 2.81269 2.05262 12.513 0.5
620 2.40709 4.16272 11.5842 0.5
621 12.049 1.92259 9.13574 0.5
622 1.66769 1.06658 9.53392 0.5
623 0.120517 2.01 5.57529 0.5
624 8.59974 9.42607 8.78153 0.5
625 4.47677 1.44866 9.25812 0.5
626 9.70561 0.812791 0.654628 0.5
627 9.65981 2.47013 10.7661 0.5
628 5.85905 6.96568 11.712 0.5
629 9.78239 1.7431 10.1419 0.5
630 9.08464 2.68333 4.20415 0.5
631 7.97048 9.16201 2.94542 0.5
632 6.57802 4.38688 12.5447 0.5
633 3.21469 2.23868 8.20004 0.5
634 12.438 8.41946 0.141288 0.5
635 9.21992 9.98748 6.32051 0.5
636 9.92464 13.2719 8.28981 0.5
637 12.9185 2.55557 0.806664 0.5
638 4.72831 5.78737 5.18871 0.5
639 13.513 0.674762 0.537282 0.5
640 3.05456 2.90654 5.54893 0.5
641 11.0103 13.0272 3.44824 0.5
642 10.401 5.14173 9.3868 0.5
643 1.90547 8.18312 12.013 0.5
644 4.37558 9.85865 1.71564 0.5
645 9.99869 2.93492 0.919047 0.5
646 2.99759 6.90266 5.78712 0.5
647 0.32351 7.58492 7.82948 0.5
648 2.25051 4.75774 1.54296 0.5
649 7.92903 6.30094 4.06092 0.5
650 10.931 7.05888 9.44859 0.5
651 3.85402 6.1442 0.446756 0.5
652 2.28483 10.1496 2.36711 0.5
653 13.5399 8.93014 11.3244 0.5
654 7.48988 1.11122 8.78861 0.5
655 0.706392 2.35314 5.9368 0.5
656 10.4389 6.49447 8.5586 0.5
657 12.019 2.65024 9.08475 0.5
658 0.160229 12.212 3.11535 0.5
659 10.2443 9.90835 7.4487 0.5
660 3.45876 13.0181 9.3605 0.5
661 10.8773 11.4669 5.72459 0.5
662 3.8208 12.9036 1.8464 0.5
663 11.8022 1.45569 0.294478 0.5
664 11.2129 2.5357 7.97895 0.5
665 0.488007 7.30837 7.36574 0.5
666 4.88845 9.96563 2.40548 0.5
667 4.73225 0.199768 2.25456 0.5
668 12.4347 7.06157 7.87469 0.5
669 0.453964 1.33557 9.41291 0.5
670 7.19251 0.321936 4.80731 0.5
671 2.37379 2.93215 5.03408 0.5
672 0.354835 10.4044 3.56684 0.5
673 7.29566 12.1625 2.7774 0.5
674 5.17647 12.014 2.023 0.5
675 12.483 9.95489 10.3889 0.5
676 5.84299 0.242449 1.21329 0.5
677 12.4627 0.412012 2.76195 0.5
678 9.34683 5.13577 1.20193 0.5
679 0.246276 1.29771 4.34288 0.5
680 3.27873 3.83424 1.52475 0.5
681 5.56279 3.89086 12.9493 0.5
682 7.77062 12.6227 8.66635 0.5
683 10.1092 12.5907 12.4187 0.5
684 4.87582 2.21696 13.0859 0.5
685 0.490139 0.413344 7.12936 0.5
686 8.91557 12.0296 6.45086 0.5
687 0.41975 5.77714 7.8193 0.5
688 10.5049 0.135288 9.00381 0.5
689 1.4892 3.63946 0.608229 0.5
690 12.7098 4.11307 6.74344 0.5
691 4.60704 13.0935 8.35801 0.5
692 0.417146 8.47365 5.24438 0.5
693 11.0873 1.28289 10.0604 0.5
694 9.31489 0.972307 10.033 0.5
695 9.65105 3.60928 10.4663 0.5
696 6.68695 1.08901 12.0064 0.5
697 10.2143 8.42067 5.94922 0.5
698 11.346 13.3425 6.50738 0.5
699 3.51935 5.88025 8.68201 0.5
700 5.52046 9.86188 9.53954 0.5
701 0.663483 5.27685 8.00549 0.5
702 12.225 10.263 3.23009 0.5
703 8.91064 2.73893 0.163664 0.5
704 8.97163 8.00436 11.61 0.5
705 8.45819 5.1447 2.32834 0.5
706 10.0394 8.02859 0.706376 0.5
707 11.4589 11.3214 12.4713 0.5
708 11.8026 9.10223 6.55243 0.5
709 12.1713 10.9628 6.83557 0.5
710 4.48864 7.8826 8.67619 0.5
711 3.48142 8.40282 5.53966 0.5
712 6.43659 4.39665 7.19193 0.5
713 0.217921 3.94606 3.29196 0.5
714 8.7351 13.1668 1.70076 0.5
715 1.62308 5.2883 5.88875 0.5
716 10.404 7.02416 9.3583 0.5
717 0.332636 11.9108 12.9664 0.5
718 12.3777 0.169162 0.780644 0.5
719 5.60832 3.21184 1.66474 0.5
720 0.291811 12.4239 12.4311 0.5
721 9.52777 13.2857 13.3546 0.5
722 11.2899 4.19459 12.0422 0.5
723 12.9732 5.84046 6.08001 0.5
724 0.851651 4.10177 7.39627 0.5
725 4.22939 4.27392 7.69477 0.5
726 2.57717 6.88806 8.18066 0.5
727 5.5884 5.6165 2.8003 0.5
728 9.62971 7.81047 12.2525 0.5
729 10.8763 7.06045 4.24857 0.5
730 10.8339 1.21652 5.39701 0.5
731 13.0936 13.055 7.26194 0.5
732 10.7249 4.4442 8.26391 0.5
733 0.0283549 0.574959 4.6874 0.5
734 6.3039 7.46644 12.0767 0.5
735 3.52788 10.7987 2.78392 0.5
736 2.28917 6.04172 7.57354 0.5
737 3.34608 11.5537 8.71196 0.5
738 6.8962 2.44026 10.9245 0.5
739 7.72971 9.67092 2.17304 0.5
740 2.4139 10.8955 10.9898 0.5
741 12.9837 8.83657 8.48684 0.5
742 12.182 6.07869 8.95493 0.5
743 12.7316 13.0715 6.10644 0.5
744 6.70968 4.12778 0.930182 0.5
745 11.4674 0.323264 12.3029 0.5
746 6.68305 0.272622 11.1282 0.5
747 5.56821 2.37932 12.6338 0.5
748 4.63142 6.53942 9.91374 0.5
749 9.02597 0.623997 12.1356 0.5
750 2.0759 5.00445 8.84895 0.5
751 1.28437 10.2623 2.52979 0.5
752 0.655003 12.117 3.03866 0.5
753 11.7748 4.85928 7.47806 0.5
754 7.78536 1.30012 6.16847 0.5
755 6.50402 12.4999 1.40024 0.5
756 1.43196 3.34886 5.74868 0.5
757 2.24337 3.95871 1.16286 0.5
758 3.20184 9.93782 9.03443 0.5
759 11.2885 10.2472 10.6249 0.5
760 7.91541 13.2443 7.6303 0.5
761 2.08094 6.24382 4.41597 0.5
762 0.690485 2.6131 10.3483 0.5
763 2.72258 4.53327 4.72333 0.5
764 10.8272 12.7377 0.213335 0.5
765 7.50898 7.13693 4.17286 0.5
766 2.18902 10.9224 4.00452 0.5
767 2.1928 8.19323 5.21462 0.5
768 13.0587 0.556549 13.2472 0.5
769 0.418794 6.23712 10.8631 0.5
770 8.88581 2.50263 0.895455 0.5
771 10.2139 4.92255 4.65159 0.5
772 13.4414 1.37105 5.43703 0.5
773 1.22471 10.8448 13.2778 0.5
774 5.75202 6.41309 3.61365 0.5
775 7.22967 7.31525 8.20688 0.5
776 6.8185 4.89206 11.6801 0.5
777 7.57443 11.1654 2.75916 0.5
778 12.1696 11.3784 2.8414 0.5
779 12.8903 3.91345 0.657613 0.5
780 0.16103 8.20334 11.2489 0.5
781 1.64564 11.9583 10.4222 0.5
782 11.5636 8.37643 11.8281 0.5
783 9.26631 11.5694 12.3539 0.5
784 9.00233 3.62319 2.24753 0.5
785 13.5812 1.47338 5.54544 0.5
786 3.26568 8.83147 8.27746 0.5
787 6.56813 6.15794 11.0148 0.5
788 8.04736 0.735549 0.769868 0.5
789 6.10448 6.52671 3.42561 0.5
790 5.43995 7.73561 1.59631 0.5
791 7.42827 11.7572 5.2331 0.5
792 12.8783 13.4001 0.415591 0.5
793 10.7238 1.85069 1.32189 0.5
794 2.46859 9.4076 12.8067 0.5
795 5.15571 3.20327 4.07207 0.5
796 8.85188 3.44773 9.79214 0.5
797 2.29695 6.24733 10.3966 0.5
798 8.62833 2.86057 5.07385 0.5
799 6.34647 1.36011 11.5571 0.5
800 0.43058 8.25611 4.46564 0.5
801 1.20393 10.8746 11.4682 0.5
802 1.23784 11.7785 2.60056 0.5
803 3.17215 7.38707 13.418 0.5
804 5.69121 4.15793 0.474054 0.5
805 3.81925 6.76826 3.95426 0.5
806 9.32357 9.13927 8.70973 0.5
807 11.6375 12.2058 9.62149 0.5
808 7.58756 10.4881 2.86321 0.5
809 12.3661 9.46572 0.906251 0.5
810 11.7557 1.01266 5.31411 0.5
811 5.80886 13.3415 2.62362 0.5
812 0.481634 6.21127 7.66574 0.5
813 13.516 6.49065 10.5623 0.5
814 11.4336 8.23979 7.37647 0.5
815 4.12711 13.1142 4.15102 0.5
816 8.20994 7.55171 12.3504 0.5
817 3.74815 2.1073 2.55501 0.5
818 6.58035 8.79511 0.638737 0.5
819 8.87997 10.6437 0.966566 0.5
820 4.16846 12.3559 0.930429 0.5
821 4.68647 13.3224 3.67942 0.5
822 3.88472 3.62031 12.7981 0.5
823 12.7636 5.31099 3.86998 0.5
824 0.597501 12.8823 11.1937 0.5
825 11.2509 5.16478 -0.00331629 0.5
826 3.88723 11.1134 11.6731 0.5
827 8.86606 6.48132 0.0389767 0.5
828 7.9583 12.7456 8.08928 0.5
829 1.10136 0.411701 6.71284 0.5
830 6.30845 0.684735 10.3102 0.5
831 2.64913 13.2368 6.34672 0.5
832 7.8206 2.58026 12.2779 0.5
833 0.500618 6.92591 7.07501 0.5
834 0.197706 1.39265 9.09108 0.5
835 11.0992 12.3951 11.038 0.5
836 4.02044 9.61501 12.3941 0.5
837 5.4331 13.1902 13.4312 0.5
838 2.19925 0.995093 6.8871 0.5
839 10.5982 10.1674 8.4028 0.5
840 9.55648 11.1803 1.68681 0.5
841 9.82011 10.5186 0.696037 0.5
842 2.84461 2.15347 6.9121 0.5
843 5.37223 12.2405 11.5486 0.5
844 7.85253 8.60026 11.8092 0.5
845 3.22392 11.055 7.96189 0.5
846 8.64128 12.7752 8.34401 0.5
847 3.29371 1.36899 2.05652 0.5
848 7.65697 0.14908 4.66587 0.5
849 1.50988 7.85227 9.27031 0.5
850 10.8929 7.84487 2.90548 0.5
851 7.4308 13.4223 6.725 0.5
852 2.51517 8.24523 8.36011 0.5
853 2.78786 6.49578 9.60453 0.5
854 11.1443 3.36079 12.4173 0.5
855 1.19465 3.37833 7.14869 0.5
856 13.0851 9.05404 2.61352 0.5
857 9.4418 2.90246 3.17692 0.5
858 11.481 8.61458 13.1359 0.5
859 0.256988 6.92012 5.55157 0.5
860 12.1464 10.2553 3.28666 0.5
861 7.43607 10.9186 8.10465 0.5
862 13.5304 10.0616 11.6437 0.5
863 11.9646 4.77874 7.2383 0.5
864 2.51013 13.3352 11.055 0.5
865 9.17406 1.72244 10.8411 0.5
866 12.2317 3.04144 12.4336 0.5
867 2.37611 8.33639 13.0846 0.5
868 5.77076 5.47986 8.14966 0.5
869 8.29345 6.51384 7.68498 0.5
870 0.404282 1.98196 8.89707 0.5
871 2.9655 4.52589 7.25937 0.5
872 9.33881 7.79178 6.73864 0.5
873 0.339901 12.9202 5.02659 0.5
874 12.9141 6.98851 5.74263 0.5
875 1.90459 5.60527 1.40238 0.5
876 11.4755 10.9391 6.29236 0.5
877 3.13576 11.8 9.71083 0.5
878 1.7233 4.8011 2.24762 0.5
879 12.0952 9.68028 3.05906 0.5
880 8.82212 0.738671 0.439078 0.5
881 4.54446 11.611 1.75721 0.5
882 4.79397 1.06107 10.6448 0.5
883 13.4966 7.39592 11.6636 0.5
884 8.02333 5.26412 7.18057 0.5
885 12.3654 3.59015 12.8183 0.5
886 0.858871 13.4006 13.1292 0.5
887 8.69612 1.00641 13.0243 0.5
888 11.3193 10.2197 6.012 0.5
889 12.9871 6.66972 6.9028 0.5
890 4.0504 7.29588 4.28958 0.5
891 2.17199 11.8004 8.26081 0.5
892 3.06874 11.6587 11.1237 0.5
893 4.2593 1.12764 3.68621 0.5
894 0.613615 9.91802 10.8613 0.5
895 7.9536 4.39954 4.88407 0.5
896 6.89573 0.0516224 1.0374 0.5
897 9.22843 13.382 10.0449 0.5
898 3.81761 5.44462 1.93541 0.5
899 11.0407 1.99148 8.31334 0.5
900 11.7847 1.64538 6.06843 0.5
901 10.4172 2.78662 5.39729 0.5
902 2.74626 10.8568 6.80599 0.5
903 1.55298 6.63261 12.7136 0.5
904 3.16982 3.35981 12.1506 0.5
905 5.07404 2.19726 11.0276 0.5
906 0.0483561 10.0131 9.02235 0.5
907 9.39161 2.00968 7.82602 0.5
908 8.43454 9.4012 6.98691 0.5
909 12.6101 10.6707 4.45649 0.5
910 5.20056 9.47915 5.51256 0.5
911 1.02791 9.18781 8.79551 0.5
912 10.9305 0.939686 1.44361 0.5
913 2.0074 1.80811 3.68281 0.5
914 3.27748 11.6387 8.71129 0.5
915 9.31113 12.3957 1.21983 0.5
916 10.0373 9.19507 9.45603 0.5
917 13.1371 0.537923 4.83352 0.5
918 4.47653 12.038 2.80149 0.5
919 5.34413 10.9946 1.61682 0.5
920 6.95573 9.86684 8.06347 0.5
921 12.7795 10.1437 7.05445 0.5
922 7.06068 7.44905 7.69722 0.5
923 4.897 11.5511 8.42049 0.5
924 9.75282 6.43175 2.65583 0.5
925 4.43401 0.282436 6.20416 0.5
926 6.72215 1.97668 9.27302 0.5
927 10.249 11.5069 11.2285 0.5
928 4.68072 8.62586 1.13446 0.5
929 7.84813 11.2364 3.84935 0.5
930 9.46054 2.02963 8.09878 0.5
931 12.2737 11.2579 3.26159 0.5
932 11.3952 3.45626 4.66626 0.5