ITEM: TIMESTEP
930000
ITEM: NUMBER OF ATOMS
1000
ITEM: BOX BOUNDS xy xz yz pp pp pp
0.0000000000000000e+00 1.3572088000000001e+01 0.0000000000000000e+00
0.0000000000000000e+00 1.3572088000000001e+01 0.0000000000000000e+00
0.0000000000000000e+00 1.3572088000000001e+01 0.0000000000000000e+00
ITEM: ATOMS id x y z radius
1 2.55635 6.40717 10.4008 0.5
2 8.12642 2.58658 11.0545 0.5
3 0.193107 1.46466 10.2526 0.5
4 11.3066 12.7532 13.1883 0.5
5 11.5568 7.56097 4.40286 0.5
6 5.86089 5.85679 11.3953 0.5
7 8.95944 5.68509 8.30002 0.5
8 11.2253 6.71998 11.5395 0.5
9 7.39258 10.7387 0.608566 0.5
10 0.384994 4.71937 8.98221 0.5
11 9.90064 3.58158 3.21164 0.5
12 2.90854 2.64379 6.03219 0.5
13 2.6015 1.04626 4.28618 0.5
14 11.0071 0.0629765 9.81509 0.5
15 12.1028 11.384 8.74263 0.5
16 6.13109 1.39661 13.2351 0.5
17 5.72262 0.259222 0.628138 0.5
18 12.8378 7.50137 3.37301 0.5
19 6.26645 3.55006 13.1637 0.5
20 5.828 2.00891 6.65872 0.5
21 3.94015 4.01881 7.78944 0.5
22 5.05869 4.89975 12.0916 0.5
23 9.74638 9.80725 7.68471 0.5
24 3.67684 13.1528 3.06915 0.5
25 8.39238 8.90804 12.579 0.5
26 2.97671 5.28415 0.888827 0.5
27 1.23914 10.048 6.59782 0.5
28 9.04298 7.62901 4.99596 0.5
29 5.40688 12.2151 8.20073 0.5
30 13.3652 1.52523 9.2886 0.5
31 3.45992 3.82871 3.16416 0.5
32 3.93991 3.14055 3.39069 0.5
33 9.85406 7.8138 7.63147 0.5
34 7.37611 5.06399 7.00109 0.5
35 0.489181 11.9024 6.9786 0.5
36 12.5253 12.8629 1.84465 0.5
37 0.317196 1.95582 0.655288 0.5
38 3.50753 1.88939 1.03145 0.5
39 6.24547 5.36517 6.00505 0.5
40 7.68383 11.6437 13.3332 0.5
41 7.77371 2.14687 3.24003 0.5
42 8.08923 3.08483 1.09973 0.5
43 1.77934 4.16952 5.24126 0.5
44 7.85829 2.6064 8.62402 0.5
45 7.06807 5.76304 8.87234 0.5
46 12.7919 3.25368 6.2818 0.5
47 10.677 13.5245 5.56939 0.5
48 5.81562 8.787 5.12637 0.5
49 4.17418 6.44763 5.55594 0.5
50 9.57292 3.96573 8.5316 0.5
51 11.0925 8.84367 0.473825 0.5
52 6.51702 8.71719 7.37569 0.5
53 10.9644 12.3692 0.487197 0.5
54 10.95 10.0369 3.77049 0.5
55 1.44654 8.26158 7.48847 0.5
56 4.36738 4.60751 9.55804 0.5
57 6.96623 11.1184 11.2492 0.5
58 10.6442 2.8382 4.63874 0.5
59 2.10149 9.73211 7.95138 0.5
60 9.43518 12.352 0.264206 0.5
61 13.3438 1.2757 0.682916 0.5
62 9.46184 4.42406 11.8165 0.5
63 4.82545 5.88666 10.9029 0.5
64 10.1423 9.81122 13.1809 0.5
65 9.64444 3.67893 3.04536 0.5
66 6.07194 11.1871 1.21508 0.5
67 10.612 5.16287 1.63388 0.5
68 5.17708 11.5026 8.57067 0.5
69 11.5214 2.71533 0.972392 0.5
70 1.63717 10.1219 12.28 0.5
71 3.91509 0.787647 5.24449 0.5
72 1.18964 4.32366 6.33212 0.5
73 11.4831 12.4495 12.2551 0.5
74 12.7446 11.8922 0.250481 0.5
75 4.19086 2.31858 12.713 0.5
76 5.82518 8.80381 5.69834 0.5
77 9.13283 1.62785 8.04461 0.5
78 10.0333 7.07478 12.5098 0.5
79 12.5468 1.94875 7.12041 0.5
80 2.76958 8.35402 13.5213 0.5
81 9.25255 1.34042 9.10546 0.5
82 9.05911 8.96994 3.98359 0.5
83 9.4652 8.158 9.90816 0.5
84 0.497445 8.81685 10.1143 0.5
85 10.2401 0.287277 10.5898 0.5
86 11.6648 2.38705 5.9839 0.5
87 12.6287 4.72169 7.39977 0.5
88 10.5212 1.16226 12.7133 0.5
89 6.00933 2.27952 2.16539 0.5
90 8.23407 8.76727 3.59847 0.5
91 8.43758 3.90289 2.15933 0.5
92 12.7127 1.36761 12.4861 0.5
93 4.56507 2.81442 4.75238 0.5
94 10.8849 0.564068 0.877508 0.5
95 5.71602 1.31069 10.1079 0.5
96 0.956146 2.44358 6.67788 0.5
97 6.36089 8.50635 12.6254 0.5
98 10.0333 6.84226 10.008 0.5
99 7.82134 11.7082 9.69079 0.5
100 3.54282 4.59429 3.86626 0.5
101 4.36092 7.88782 10.3518 0.5
102 11.5178 8.53721 1.2381 0.5
103 4.48432 8.88532 9.4795 0.5
104 6.30762 4.03775 13.1279 0.5
105 6.49034 0.516691 2.48351 0.5
106 7.03438 6.43737 1.09815 0.5
107 7.37089 0.930778 0.770481 0.5
108 6.66969 0.627804 11.3198 0.5
109 0.556441 13.3504 9.25722 0.5
110 4.77861 12.7246 1.16447 0.5
111 1.67266 3.24914 10.7781 0.5
112 4.99221 13.4142 2.34774 0.5
113 13.1197 10.9047 1.84308 0.5
114 13.4626 2.90509 12.8848 0.5
115 8.87815 12.9306 2.92541 0.5
116 0.410249 12.2115 12.7932 0.5
117 1.01445 8.87853 2.07799 0.5
118 4.83767 2.42381 8.63133 0.5
119 11.5493 2.2787 13.0983 0.5
120 6.32345 10.3508 3.29483 0.5
121 0.483229 9.99238 2.37083 0.5
122 0.787757 13.1793 3.11076 0.5
123 5.82768 6.19662 8.86289 0.5
124 12.616 1.07389 7.65934 0.5
125 11.7512 5.60537 8.43321 0.5
126 8.27388 13.0386 10.1429 0.5
127 7.89046 2.64074 10.9897 0.5
128 8.02499 8.01498 12.4455 0.5
129 5.48224 4.1598 10.8296 0.5
130 9.53532 2.06269 6.34056 0.5
131 3.34407 8.70555 9.72537 0.5
132 10.7742 1.34716 6.21887 0.5
133 9.11459 3.05696 8.08674 0.5
134 11.1009 7.41667 7.96934 0.5
135 0.43697 6.46476 3.23785 0.5
136 0.527764 9.17484 7.26319 0.5
137 10.9364 10.3712 3.87486 0.5
138 6.47134 6.06748 3.71905 0.5
139 4.29379 8.82363 10.9905 0.5
140 11.4993 12.6792 9.28923 0.5
141 2.23452 10.2051 13.0081 0.5
142 4.24922 3.44532 11.875 0.5
143 8.63479 4.39258 6.83829 0.5
144 2.62252 12.9984 2.19131 0.5
145 2.17828 2.77326 7.7916 0.5
146 6.65331 4.53384 6.56563 0.5
147 10.9079 11.1329 6.21315 0.5
148 4.62544 12.4478 5.28858 0.5
149 5.22059 8.7403 7.38412 0.5
150 8.11065 2.91196 10.6212 0.5
151 12.4309 11.8346 5.68609 0.5
152 9.99155 10.3809 12.4086 0.5
153 5.4271 8.85468 3.09485 0.5
154 8.63206 2.22659 0.93782 0.5
155 4.21727 9.27189 13.3484 0.5
156 1.21908 4.97802 7.5315 0.5
157 1.44021 9.98818 9.66742 0.5
158 10.5601 8.86086 8.24294 0.5
159 4.21443 0.603865 4.51507 0.5
160 12.4814 11.6363 0.0480641 0.5
161 7.49449 8.06184 6.46972 0.5
162 12.5946 5.06605 1.68462 0.5
163 6.98704 11.6433 9.12363 0.5
164 5.80206 3.22525 12.5805 0.5
165 1.90004 4.27794 1.56207 0.5
166 11.1407 13.4613 9.98709 0.5
167 10.6555 9.64756 9.06609 0.5
168 1.62164 0.746719 9.89159 0.5
169 5.86693 4.57622 0.807847 0.5
170 12.0005 0.412645 4.85674 0.5
171 10.1862 6.50854 5.2294 0.5
172 0.539325 13.3913 0.361784 0.5
173 11.1075 7.58772 12.8017 0.5
174 11.6215 2.87199 11.8999 0.5
175 10.4834 11.7038 2.47227 0.5
176 8.48264 11.781 2.09888 0.5
177 9.21904 12.8304 4.78141 0.5
178 2.42141 6.56615 10.9164 0.5
179 2.51422 0.749332 9.88697 0.5
180 1.68536 1.7426 13.3242 0.5
181 4.3716 6.94977 2.23869 0.5
182 9.96125 6.17969 7.25503 0.5
183 2.52155 9.87197 11.4616 0.5
184 6.46726 2.50385 10.8027 0.5
185 3.64649 3.6468 6.1387 0.5
186 6.24766 3.88709 8.91072 0.5
187 7.2299 5.06162 5.43661 0.5
188 4.99716 5.02164 9.24246 0.5
189 11.7963 7.91731 4.65628 0.5
190 6.88233 1.19696 10.2735 0.5
191 1.46551 1.45987 5.15106 0.5
192 0.775935 1.45752 12.1839 0.5
193 2.28484 3.6376 6.30573 0.5
194 8.82492 12.1559 0.894095 0.5
195 6.75711 2.59858 9.58155 0.5
196 4.88601 13.4771 6.28744 0.5
197 3.78085 13.5816 3.34379 0.5
198 4.80381 8.12227 10.837 0.5
199 9.102 1.87927 -0.00807185 0.5
200 6.42325 10.5353 2.63266 0.5
201 10.4206 4.75837 5.92017 0.5
202 4.50319 12.9957 1.15682 0.5
203 1.11002 10.4399 1.27174 0.5
204 6.83559 7.82558 1.51767 0.5
205 13.0638 10.7898 2.73204 0.5
206 9.02678 4.52552 13.5144 0.5
207 7.4609 10.0217 8.09487 0.5
208 2.57376 9.96307 10.9171 0.5
209 12.1247 11.4994 2.35716 0.5
210 1.14255 1.57203 3.03275 0.5
211 9.78345 3.86759 4.09245 0.5
212 5.06954 11.1373 8.22082 0.5
213 0.107115 11.1126 9.19129 0.5
214 0.346085 0.17482 6.90703 0.5
215 12.4317 3.66501 8.72175 0.5
216 7.53157 10.1159 8.97351 0.5
217 2.19668 12.0224 0.1899 0.5
218 6.29057 0.404387 9.57859 0.5
219 1.09821 9.73066 12.1751 0.5
220 4.22974 1.7241 7.51954 0.5
221 9.35467 4.04464 0.599272 0.5
222 9.34379 0.193965 0.818534 0.5
223 2.97307 5.27595 1.22098 0.5
224 13.3236 5.14252 0.0175712 0.5
225 9.77855 13.0158 7.13048 0.5
226 12.3203 4.86245 0.702437 0.5
227 12.1863 4.54295 0.629871 0.5
228 1.48026 5.99132 11.8224 0.5
229 4.73018 8.07977 11.9967 0.5
230 2.8544 1.60557 9.79638 0.5
231 2.42967 4.9098 5.41505 0.5
232 11.0375 8.76247 6.49956 0.5
233 0.895206 7.00299 7.62397 0.5
234 4.45543 4.31858 13.1148 0.5
235 10.9909 4.57684 7.90732 0.5
236 4.94636 0.0837829 3.58635 0.5
237 2.76828 13.1294 13.1116 0.5
238 5.93813 3.47058 9.4811 0.5
239 4.43155 5.65737 4.62135 0.5
240 13.0303 11.9036 2.55748 0.5
241 7.88578 7.29324 0.378921 0.5
242 0.682004 11.0969 8.79555 0.5
243 3.05192 9.31227 10.7134 0.5
244 4.64367 11.5833 9.58048 0.5
245 4.85415 3.11618 8.67733 0.5
246 5.31222 6.21433 8.76867 0.5
247 4.55817 7.61637 2.11628 0.5
248 0.63419 4.37924 12.8422 0.5
249 5.76563 5.90601 2.59106 0.5
250 3.02283 10.3908 3.94363 0.5
251 0.779597 9.43279 0.537013 0.5
252 1.22781 13.0262 1.57379 0.5
253 10.4255 5.28301 13.4674 0.5
254 6.19416 5.66755 6.79766 0.5
255 9.18159 11.0118 12.5151 0.5
256 8.70577 0.48208 9.59817 0.5
257 5.92985 10.2167 11.4018 0.5
258 9.70399 3.0401 10.4851 0.5
259 12.87 6.31443 5.85181 0.5
260 12.0782 12.0812 6.29741 0.5
261 0.567721 13.2051 1.16638 0.5
262 5.57249 11.1525 11.1813 0.5
263 5.55895 3.93935 13.1227 0.5
264 10.9538 12.0406 12.4809 0.5
265 3.31277 8.22249 3.05474 0.5
266 8.33222 4.75443 11.6816 0.5
267 7.46079 13.0678 10.789 0.5
268 5.46568 12.7554 8.97952 0.5
269 0.724184 1.25919 9.97181 0.5
270 11.0705 7.93282 9.37685 0.5
271 8.30736 8.45332 1.31734 0.5
272 6.18777 3.50277 8.23523 0.5
273 10.3719 11.6304 2.2143 0.5
274 12.5921 2.37647 2.71212 0.5
275 12.9332 1.85848 2.25457 0.5
276 5.76856 4.06794 8.10516 0.5
277 9.24161 10.1694 6.01857 0.5
278 8.57233 3.14927 0.49146 0.5
279 5.15944 0.948128 2.5425 0.5
280 4.22364 11.9848 2.12688 0.5
281 3.1448 8.89295 2.3571 0.5
282 4.81397 12.549 9.77556 0.5
283 8.86124 6.30874 2.70839 0.5
284 7.19449 13.5357 12.0142 0.5
285 5.99382 5.16509 11.1063 0.5
286 8.21477 3.58247 10.2755 0.5
287 9.64804 9.99441 5.68342 0.5
288 7.37074 10.715 3.95235 0.5
289 2.19931 11.1438 8.96895 0.5
290 7.02287 8.67481 9.9798 0.5
291 9.73011 7.30095 2.16266 0.5
292 7.18261 10.3829 10.6675 0.5
293 3.83989 11.6307 12.1248 0.5
294 11.6258 3.35634 11.573 0.5
295 8.57803 11.4524 4.71725 0.5
296 11.7293 13.415 13.3502 0.5
297 11.601 5.67127 8.16158 0.5
298 8.98277 12.4997 6.27776 0.5
299 6.19788 6.68893 0.291658 0.5
300 4.51316 1.75956 9.88329 0.5
301 7.71393 3.31452 2.36476 0.5
302 8.04776 2.17183 3.04193 0.5
303 1.40866 12.6018 3.50614 0.5
304 12.2514 2.80695 6.90607 0.5
305 13.1316 10.8504 0.487794 0.5
306 13.091 7.90541 8.22308 0.5
307 2.08534 0.585293 12.6024 0.5
308 7.8376 12.1263 10.8604 0.5
309 11.8842 9.24387 10.4558 0.5
310 4.99082 3.93755 12.3841 0.5
311 8.13843 3.6392 3.83817 0.5
312 12.3375 13.1627 4.68298 0.5
313 5.89597 3.62345 13.4102 0.5
314 10.6865 2.4218 9.41662 0.5
315 3.53261 1.61233 0.708933 0.5
316 6.56384 9.75038 11.226 0.5
317 10.6475 7.54427 12.6005 0.5
318 12.3179 9.02864 11.1111 0.5
319 8.10081 12.2074 8.84409 0.5
320 1.19679 3.97145 12.0274 0.5
321 9.99619 11.1766 5.62157 0.5
322 1.89226 10.0745 6.61199 0.5
323 13.4669 2.29501 2.98641 0.5
324 1.54101 0.832086 12.559 0.5
325 10.2874 9.24534 8.56361 0.5
326 11.7678 8.62235 10.7772 0.5
327 11.5153 8.97441 6.41993 0.5
328 4.00435 10.4759 9.93316 0.5
329 12.4231 8.72427 0.0264696 0.5
330 5.21988 11.0543 9.26939 0.5
331 6.42359 6.25748 12.9759 0.5
332 3.53508 7.17149 7.09896 0.5
333 3.62953 10.3632 5.64696 0.5
334 7.01872 3.99035 4.95224 0.5
335 9.44168 12.9684 12.1774 0.5
336 0.204012 12.5249 5.61397 0.5
337 3.73191 8.35849 1.81593 0.5
338 2.27034 11.0561 3.42705 0.5
339 10.0004 8.8723 5.90132 0.5
340 8.71752 1.04861 3.43392 0.5
341 5.49569 1.91053 6.56733 0.5
342 2.56456 0.609572 8.29536 0.5
343 2.406 8.03613 7.5789 0.5
344 9.10332 9.51887 12.2862 0.5
345 2.34889 5.28603 1.95398 0.5
346 5.57369 4.51931 12.0514 0.5
347 3.25505 4.2278 2.21191 0.5
348 2.87324 3.61615 4.88127 0.5
349 12.5872 10.0261 8.89829 0.5
350 2.95905 2.08966 11.9847 0.5
351 11.4665 4.19284 10.1341 0.5
352 11.0258 8.1249 3.26551 0.5
353 11.8481 9.14719 4.1907 0.5
354 7.3163 12.2883 4.95987 0.5
355 4.81772 3.08691 9.35907 0.5
356 6.94138 9.41531 7.69546 0.5
357 12.614 5.59812 4.40405 0.5
358 11.5312 6.24617 5.04846 0.5
359 11.814 6.02578 13.4495 0.5
360 7.48898 13.0689 11.3457 0.5
361 1.67864 13.2276 8.31932 0.5
362 8.23813 0.730305 0.615075 0.5
363 0.744824 1.09729 4.40696 0.5
364 11.8148 10.4867 0.353896 0.5
365 7.47109 8.71104 11.5514 0.5
366 1.20962 8.38602 11.196 0.5
367 5.80664 6.91972 1.54444 0.5
368 4.52014 10.3261 5.76152 0.5
369 2.97308 9.17625 1.26953 0.5
370 0.880303 0.0568903 2.19564 0.5
371 6.84998 13.2474 8.60685 0.5
372 9.8461 4.44893 2.57666 0.5
373 4.43054 1.28949 11.3762 0.5
374 9.37945 2.24717 8.35712 0.5
375 12.8553 6.5702 0.508333 0.5
376 7.85968 10.9186 4.15745 0.5
377 2.40198 4.29747 10.9684 0.5
378 11.2675 3.38079 6.13135 0.5
379 10.8022 0.729695 5.76844 0.5
380 1.37877 6.19338 10.4746 0.5
381 3.83028 10.2982 9.6061 0.5
382 6.83258 7.78367 4.84087 0.5
383 10.5366 6.49916 0.827516 0.5
384 10.0839 7.00208 13.1999 0.5
385 2.65444 10.4525 0.244275 0.5
386 0.546322 1.10289 10.3038 0.5
387 1.63156 1.36915 10.0183 0.5
388 2.68022 10.6344 1.50307 0.5
389 12.3841 2.14248 1.66463 0.5
390 2.87439 13.4486 5.79127 0.5
391 4.58315 6.24546 7.43505 0.5
392 0.890414 9.09946 10.9077 0.5
393 11.9455 5.59227 8.58649 0.5
394 8.93721 7.28367 8.90345 0.5
395 7.66822 10.1198 6.99401 0.5
396 10.3016 11.0353 5.66878 0.5
397 12.9058 0.832499 3.16314 0.5
398 0.0546637 6.25359 0.541769 0.5
399 4.51968 5.94288 4.64748 0.5
400 3.97964 7.43402 11.7925 0.5
401 5.3191 10.0515 13.0415 0.5
402 8.66255 10.5293 4.22282 0.5
403 12.3301 2.89647 2.41429 0.5
404 9.41145 1.88462 1.64782 0.5
405 9.3071 12.5508 1.15741 0.5
406 7.29073 8.8893 1.64613 0.5
407 10.3494 3.81647 10.5901 0.5
408 3.1965 12.6324 1.33928 0.5
409 6.26111 10.7574 2.65017 0.5
410 8.85813 1.53398 12.9994 0.5
411 3.76781 5.17749 1.15812 0.5
412 10.5998 13.0071 0.0881711 0.5
413 11.5985 9.0274 5.78353 0.5
414 4.85923 4.49973 8.13776 0.5
415 3.8974 5.0401 1.54126 0.5
416 7.46749 9.8729 11.5393 0.5
417 3.0195 7.97072 7.95317 0.5
418 7.33639 12.6865 9.80897 0.5
419 12.208 1.25347 0.90228 0.5
420 0.909022 12.0193 6.67826 0.5
421 2.44468 0.392358 12.8441 0.5
422 2.50051 2.95457 10.4499 0.5
423 6.4922 7.85672 3.78904 0.5
424 5.62546 8.47104 12.1906 0.5
425 2.17291 12.1278 8.22414 0.5
426 2.31801 12.064 5.88825 0.5
427 9.22858 9.67035 10.6106 0.5
428 7.13608 5.78934 4.7043 0.5
429 1.36824 2.45237 12.4011 0.5
430 0.786782 5.76747 8.77535 0.5
431 1.07861 4.65924 12.5205 0.5
432 7.89188 10.1822 6.29589 0.5
433 10.1211 6.63846 8.59162 0.5
434 3.44167 7.32089 8.46184 0.5
435 7.17867 11.2164 10.5696 0.5
436 13.0368 10.8602 12.3839 0.5
437 2.76113 7.13129 1.6221 0.5
438 10.2544 1.49108 6.51611 0.5
439 12.281 6.11555 10.071 0.5
440 4.83389 4.0454 9.06166 0.5
441 3.06496 5.08346 11.6978 0.5
442 0.31076 6.94354 12.9371 0.5
443 0.443012 6.20636 3.4295 0.5
444 12.1021 11.5576 6.00061 0.5
445 0.0771874 6.85737 7.75716 0.5
446 12.9947 6.54389 9.01876 0.5
447 11.9937 10.8643 9.47353 0.5
448 0.338261 4.11342 7.45117 0.5
449 12.0271 6.42691 2.69057 0.5
450 9.56997 8.9664 12.5342 0.5
451 9.51393 8.75421 11.1608 0.5
452 12.3737 1.08765 6.236 0.5
453 3.50202 8.70943 2.82019 0.5
454 12.0887 9.82394 3.28085 0.5
455 7.09315 11.7885 6.15442 0.5
456 0.241546 1.42763 7.30335 0.5
457 4.23864 2.2232 1.98749 0.5
458 2.08524 11.1435 5.56714 0.5
459 8.95989 8.87582 1.23744 0.5
460 5.08193 2.70211 9.02321 0.5
461 2.67957 2.83995 12.1309 0.5
462 7.82278 4.09684 11.091 0.5
463 3.00939 10.6138 3.2493 0.5
464 8.60358 9.87667 8.28394 0.5
465 12.1667 11.0554 6.72318 0.5
466 12.5272 10.1298 8.76426 0.5
467 12.4002 0.600002 12.6282 0.5
468 10.9211 1.34289 11.4479 0.5
469 5.002 3.92886 8.16112 0.5
470 1.76848 9.83185 5.6821 0.5
471 6.26239 12.33 6.97994 0.5
472 2.70564 4.01947 8.7053 0.5
473 0.135655 4.71293 10.5907 0.5
474 6.57069 10.5026 12.9727 0.5
475 0.740757 2.67643 4.85497 0.5
476 8.62317 0.910146 0.0900419 0.5
477 10.6831 4.67939 3.69059 0.5
478 0.0805505 7.36264 9.65211 0.5
479 9.76293 2.51154 3.70282 0.5
480 10.1122 6.18181 9.09532 0.5
481 5.94549 1.80031 7.11021 0.5
482 0.663823 11.1768 5.40107 0.5
483 0.289111 0.740823 5.00937 0.5
484 5.19519 7.54157 2.14179 0.5
485 6.47238 3.28962 0.430244 0.5
486 3.91647 4.4612 4.35549 0.5
487 6.84694 3.75326 8.00227 0.5
488 1.14425 9.06547 2.95736 0.5
489 1.07579 3.9317 11.9617 0.5
490 7.81148 9.9363 10.8618 0.5
491 7.75552 12.1676 8.52382 0.5
492 2.65136 4.9856 4.89027 0.5
493 5.14737 11.318 6.13455 0.5
494 5.06117 2.42938 11.918 0.5
495 0.547727 11.8947 9.46406 0.5
496 5.54473 9.62653 1.09885 0.5
497 12.745 12.9127 3.25198 0.5
498 9.32736 7.69414 7.13259 0.5
499 9.22108 0.863262 1.12271 0.5
500 2.31985 4.42038 5.17629 0.5
501 4.94475 6.42233 12.0748 0.5
502 1.9041 4.78499 10.9333 0.5
503 2.24845 11.2865 9.63034 0.5
504 9.18374 0.691472 11.3914 0.5
505 5.62502 12.3918 3.02019 0.5
506 6.86545 12.7248 8.84422 0.5
507 0.129822 2.13612 3.23376 0.5
508 1.69901 2.04773 9.51256 0.5
509 3.51631 8.28312 12.1586 0.5
510 12.1815 11.4972 1.18862 0.5
511 0.608048 9.83678 4.30852 0.5
512 10.0955 7.7455 5.94051 0.5
513 7.53243 5.62939 7.59171 0.5
514 4.02815 1.13157 7.66387 0.5
515 7.30951 8.75686 1.38993 0.5
516 12.8072 5.89556 6.29922 0.5
517 2.21362 9.12925 13.5776 0.5
518 13.3162 2.36008 10.7209 0.5
519 7.71861 6.9439 13.3315 0.5
520 3.62485 0.97271 0.624594 0.5
521 12.9237 1.32029 10.2723 0.5
522 8.63944 9.06913 9.77128 0.5
523 0.879668 10.3401 12.865 0.5
524 0.508907 3.57883 2.70381 0.5
525 2.66637 10.4058 10.3129 0.5
526 9.82595 10.7922 8.12587 0.5
527 5.8368 8.7253 3.06248 0.5
528 5.29096 1.05376 7.78819 0.5
529 10.9491 8.6079 9.78732 0.5
530 2.8727 3.23684 2.16677 0.5
531 0.201358 11.5585 1.30352 0.5
532 12.3047 9.08653 10.0611 0.5
533 5.48551 9.39365 0.299373 0.5
534 2.70199 4.77268 0.938729 0.5
535 6.61465 13.0163 12.319 0.5
536 1.99209 3.87837 11.4513 0.5
537 6.52992 3.27741 10.4434 0.5
538 1.28832 5.15754 12.9564 0.5
539 7.73119 11.4276 0.175975 0.5
540 10.5793 10.5693 5.03653 0.5
541 5.09389 3.66596 10.2158 0.5
542 13.2802 13.4479 4.91868 0.5
543 13.458 7.64035 13.2549 0.5
544 7.99807 5.22438 11.9958 0.5
545 13.476 6.47641 0.0460682 0.5
546 1.06824 1.09738 5.30579 0.5
547 8.14437 8.19967 1.76256 0.5
548 12.5829 5.28628 0.862442 0.5
549 3.5432 5.67442 9.19502 0.5
550 12.8626 6.15908 12.8714 0.5
551 7.32001 12.4218 7.93818 0.5
552 10.8336 9.80527 10.0561 0.5
553 6.19503 7.41842 2.84354 0.5
554 3.75081 4.90697 11.589 0.5
555 13.4198 4.59773 6.45474 0.5
556 7.60154 6.20271 12.9996 0.5
557 4.82904 3.05855 5.70501 0.5
558 11.2726 0.0925544 13.1975 0.5
559 6.36924 4.63296 12.5557 0.5
560 4.20715 11.8222 6.0603 0.5
561 4.04271 8.62717 2.78486 0.5
562 1.96584 6.62256 9.44106 0.5
563 0.966334 5.74157 12.9137 0.5
564 3.78045 6.86016 4.62427 0.5
565 5.79907 7.39291 1.28107 0.5
566 0.143128 5.79452 7.82533 0.5
567 4.74339 6.21481 6.63248 0.5
568 9.80398 11.9719 0.344706 0.5
569 3.9671 5.31831 2.39699 0.5
570 11.5213 12.9641 8.74174 0.5
571 -0.014146 0.274391 12.4275 0.5
572 3.91774 5.56638 8.89069 0.5
573 8.08513 7.80448 11.7825 0.5
574 4.94923 12.0245 6.0765 0.5
575 4.63993 8.54836 5.00539 0.5
576 3.59141 9.88758 12.5768 0.5
577 9.56582 3.19211 3.16971 0.5
578 0.871672 2.25452 9.83036 0.5
579 8.33486 5.19765 7.04393 0.5
580 1.98157 8.04851 9.22076 0.5
581 10.8776 8.83938 4.04098 0.5
582 0.978066 8.29303 1.19705 0.5
583 3.95942 8.46136 2.54353 0.5
584 0.824354 9.34336 0.372393 0.5
585 3.56118 10.9659 3.30244 0.5
586 7.97433 4.48834 0.0358116 0.5
587 0.865714 9.22722 11.1972 0.5
588 4.85878 5.11544 4.92321 0.5
589 4.88185 7.74985 5.07859 0.5
590 0.701262 12.9488 10.1393 0.5
591 1.75407 12.2771 7.49427 0.5
592 10.2735 10.8917 3.28147 0.5
593 8.09304 3.86949 8.86453 0.5
594 1.69424 0.230587 0.116858 0.5
595 5.26321 5.89734 10.4238 0.5
596 11.6073 8.70503 3.45643 0.5
597 0.532002 11.4227 11.9998 0.5
598 13.4354 8.66057 8.64991 0.5
599 5.57361 12.0112 10.4673 0.5
600 13.1396 9.58971 9.53486 0.5
601 11.6234 0.582571 11.1517 0.5
602 0.346399 2.69312 11.0753 0.5
603 10.3229 11.0602 2.36993 0.5
604 10.1718 6.51548 9.57746 0.5
605 9.89019 7.54203 8.31719 0.5
606 10.1152 3.5115 5.82609 0.5
607 6.24316 6.78336 7.50513 0.5
608 6.32564 5.94527 11.5757 0.5
609 6.97604 7.59695 7.65683 0.5
610 10.1855 9.76345 7.94802 0.5
611 10.6088 12.9752 12.116 0.5
612 4.90847 4.44086 3.40625 0.5
613 11.9645 3.43353 11.7322 0.5
614 3.04788 0.0143237 1.01584 0.5
615 5.37341 1.98959 8.94255 0.5
616 4.30643 12.5558 0.148239 0.5
617 2.27657 3.72668 1.16291 0.5
618 5.39509 5.18032 12.104 0.5
619 6.09089 0.865439 4.05606 0.5
620 4.58416 12.2524 12.843 0.5
621 2.06342 7.01006 0.514935 0.5
622 3.57796 13.4683 6.14006 0.5
623 9.81641 7.77138 4.08418 0.5
624 0.54161 0.985982 9.45084 0.5
625 1.32007 6.55688 7.02662 0.5
626 13.4777 7.09441 4.70945 0.5
627 5.49875 4.94301 5.14327 0.5
628 3.80755 11.6044 0.0711385 0.5
629 9.27307 3.05969 0.881743 0.5
630 7.09994 8.97985 7.11077 0.5
631 8.68739 11.9138 7.64607 0.5
632 4.23092 10.1582 12.0603 0.5
633 9.46409 6.48763 3.32423 0.5
634 10.0472 4.58812 4.89121 0.5
635 6.64348 10.1065 0.953878 0.5
636 1.93096 6.45489 13.3848 0.5
637 9.00439 4.55007 3.23847 0.5
638 1.00674 9.01943 5.67666 0.5
639 1.61867 5.99803 4.08346 0.5
640 2.25849 0.168924 7.03489 0.5
641 7.04676 5.65475 5.02819 0.5
642 11.0201 3.09738 12.6165 0.5
643 10.1207 6.66192 9.98574 0.5
644 1.39993 2.10206 0.267411 0.5
645 11.725 7.35117 9.04431 0.5
646 11.9922 13.0814 1.11174 0.5
647 0.439252 8.40508 9.28534 0.5
648 3.8938 10.383 5.68512 0.5
649 3.30383 10.8353 6.01833 0.5
650 6.5618 7.5436 3.89006 0.5
651 10.3436 6.04687 10.142 0.5
652 2.52468 4.65232 13.1039 0.5
653 12.5919 8.20694 12.0777 0.5
654 10.2141 6.59504 7.22281 0.5
655 11.3004 9.43097 0.761019 0.5
656 8.37518 10.2784 3.32456 0.5
657 7.0805 9.53723 13.3983 0.5
658 9.88243 11.4494 12.1131 0.5
659 0.30953 10.3119 6.5281 0.5
660 11.2264 3.39921 7.82879 0.5
661 2.26976 5.89922 7.21617 0.5
662 12.6051 0.173679 1.67277 0.5
663 12.4117 9.98667 6.04965 0.5
664 5.56316 0.288916 7.31583 0.5
665 7.92459 8.42642 1.07568 0.5
666 4.3209 5.13073 4.84492 0.5
667 12.1641 6.8988 1.0122 0.5
668 8.00357 10.1747 2.02927 0.5
669 2.54916 6.10754 9.49211 0.5
670 1.24756 2.10294 7.2839 0.5
671 1.64865 10.0243 13.529 0.5
672 8.04057 6.71444 4.25551 0.5
673 1.92272 8.20007 9.22282 0.5
674 7.46983 12.6305 9.43411 0.5
675 6.18138 13.4475 0.239736 0.5
676 10.4123 8.03455 8.52345 0.5
677 11.2899 1.85231 1.83907 0.5
678 9.63146 9.09545 5.45187 0.5
679 1.46049 5.2291 12.7248 0.5
680 2.16425 6.44105 10.8518 0.5
681 5.42535 10.5664 10.5166 0.5
682 13.0503 5.05415 5.67353 0.5
683 7.36751 8.60247 9.58996 0.5
684 8.26679 13.3798 12.2561 0.5
685 4.67616 5.72559 8.53498 0.5
686 5.58706 13.1588 3.88177 0.5
687 6.85922 5.87173 1.89687 0.5
688 0.447463 11.8761 6.54686 0.5
689 8.05483 3.40716 11.9088 0.5
690 1.53237 11.9108 3.23184 0.5
691 8.83678 2.40036 9.25751 0.5
692 12.1865 3.70622 3.08838 0.5
693 6.67989 1.88407 4.43148 0.5
694 8.43845 1.02562 1.28308 0.5
695 12.603 5.5613 1.90564 0.5
696 13.0939 4.67015 12.7134 0.5
697 11.745 11.0276 9.65833 0.5
698 1.96592 12.4745 3.67115 0.5
699 4.25168 4.10958 1.81605 0.5
700 9.32059 5.37125 0.141153 0.5
701 0.220524 4.75186 4.28974 0.5
702 3.22752 0.332919 11.4385 0.5
703 4.13542 6.93372 8.653 0.5
704 5.02667 8.14266 11.2407 0.5
705 1.08367 9.56947 10.9236 0.5
706 3.51812 8.20055 1.16833 0.5
707 5.26511 2.57964 8.23448 0.5
708 7.57878 0.571179 2.38989 0.5
709 1.03511 2.83883 7.11963 0.5
710 1.57689 1.33668 4.24045 0.5
711 5.01095 2.4632 2.82093 0.5
712 7.0647 12.6088 12.0389 0.5
713 13.3594 11.7329 4.00754 0.5
714 9.2947 8.29036 12.3892 0.5
715 7.27494 12.2488 4.62336 0.5
716 3.56246 10.372 10.8248 0.5
717 13.286 3.31996 3.5911 0.5
718 9.12124 3.07435 8.74532 0.5
719 11.8186 11.0571 13.489 0.5
720 6.0598 1.84465 7.79843 0.5
721 5.67475 6.75164 5.76824 0.5
722 0.424496 8.29416 12.7276 0.5
723 11.0617 13.2084 9.78697 0.5
724 3.36278 5.5854 13.4714 0.5
725 10.8321 13.1903 10.3205 0.5
726 8.21861 10.0278 11.1468 0.5
727 8.81902 0.303488 12.9247 0.5
728 4.06345 3.70279 5.14725 0.5
729 13.304 10.9442 7.56958 0.5
730 3.26492 10.1838 11.8821 0.5
731 6.89462 3.01034 0.264225 0.5
732 7.99076 3.11582 6.7849 0.5
733 1.62471 3.53661 2.17811 0.5
734 4.27018 10.6536 11.021 0.5
735 3.24749 10.4205 0.882792 0.5
736 8.09349 7.6714 9.12912 0.5
737 12.5866 7.64268 5.31231 0.5
738 0.320771 0.26477 8.41209 0.5
739 3.89498 9.35946 10.8879 0.5
740 2.05929 4.63898 10.7088 0.5
741 5.10682 0.874147 11.5954 0.5
742 3.05499 4.12842 4.10288 0.5
743 9.30694 10.4849 12.856 0.5
744 12.742 6.15289 12.7791 0.5
745 8.21804 5.15611 8.669 0.5
746 12.2048 1.15521 4.93937 0.5
747 4.4505 6.64957 11.5041 0.5
748 8.78377 12.3006 9.4232 0.5
749 8.29252 0.977208 10.2077 0.5
750 8.92394 0.479117 12.1881 0.5
751 0.588412 11.5641 2.14825 0.5
752 3.14301 1.1647 7.39005 0.5
753 9.07398 0.317797 7.22574 0.5
754 7.25161 4.93355 6.28888 0.5
755 12.1748 0.909326 5.11771 0.5
756 10.5994 6.68826 5.20237 0.5
757 7.86087 6.49487 9.21735 0.5
758 8.61678 0.639996 3.45672 0.5
759 4.78884 9.35146 12.6739 0.5
760 10.1088 7.21046 5.83189 0.5
761 13.2673 12.3961 11.2682 0.5
762 8.64108 9.70606 9.42702 0.5
763 12.5524 10.7333 6.74502 0.5
764 10.406 7.79295 11.6137 0.5
765 1.10828 2.71085 11.3308 0.5
766 13.1272 1.55656 3.60362 0.5
767 4.72123 3.26045 3.85006 0.5
768 0.646268 6.6756 1.87058 0.5
769 2.98948 7.10307 4.13636 0.5
770 12.1208 3.17841 9.94266 0.5
771 7.36977 9.67198 8.06528 0.5
772 13.4195 6.03102 5.67291 0.5
773 10.3639 6.00806 5.2134 0.5
774 1.69907 7.21835 0.0247313 0.5
775 1.37098 0.379402 6.18318 0.5
776 1.69323 12.6097 5.03314 0.5
777 4.24433 8.61533 3.59044 0.5
778 7.92515 11.4797 9.99568 0.5
779 4.46934 5.33255 6.88075 0.5
780 11.1149 6.64708 6.94226 0.5
781 13.3354 13.2097 0.900848 0.5
782 9.39918 12.772 3.05462 0.5
783 1.24067 4.17296 5.87488 0.5
784 13.4634 8.8678 7.63329 0.5
785 1.44753 3.07253 4.51152 0.5
786 6.17089 12.9505 11.9165 0.5
787 12.6729 10.1628 9.54647 0.5
788 5.98025 7.56056 3.83952 0.5
789 0.280753 12.6548 5.04587 0.5
790 1.4924 10.1271 5.87472 0.5
791 1.84266 11.4258 0.309583 0.5
792 1.88681 2.75409 0.133531 0.5
793 13.3235 0.0154088 3.23187 0.5
794 0.814161 3.31718 12.3162 0.5
795 3.08568 5.62847 1.17824 0.5
796 6.75678 3.33361 7.41616 0.5
797 7.05549 6.90982 3.23975 0.5
798 10.7367 2.79543 8.94901 0.5
799 3.68422 1.13602 10.1715 0.5
800 11.0823 10.2004 2.35923 0.5
801 5.93696 4.53324 10.9884 0.5
802 6.11498 9.54087 3.29772 0.5
803 1.10797 0.56183 0.314815 0.5
804 5.4556 6.30518 10.0705 0.5
805 12.0183 1.40606 2.63765 0.5
806 8.02456 9.76672 10.2279 0.5
807 3.73196 8.15516 11.3365 0.5
808 12.1672 10.6966 4.13761 0.5
809 5.61854 2.28013 10.5624 0.5
810 4.09975 4.27632 5.66835 0.5
811 13.38 6.34576 3.12989 0.5
812 7.60236 10.3603 7.6029 0.5
813 7.62427 3.44877 3.06327 0.5
814 0.0336352 9.08596 6.36827 0.5
815 -0.0185878 7.82576 5.1893 0.5
816 12.5677 0.244228 8.84429 0.5
817 5.79029 7.32289 13.0172 0.5
818 0.671603 6.54341 2.09005 0.5
819 7.76098 12.632 2.87995 0.5
820 3.39473 13.3383 6.81398 0.5
821 5.28829 4.14279 1.19718 0.5
822 12.1779 12.4509 10.8453 0.5
823 8.84969 5.10749 10.7022 0.5
824 7.47111 7.6439 5.98671 0.5
825 0.10692 6.93469 0.565081 0.5
826 4.29903 0.866117 11.4885 0.5
827 9.88241 12.5371 2.32544 0.5
828 2.24443 1.95902 1.7286 0.5
829 7.59663 12.135 11.6788 0.5
830 0.755385 7.87342 9.19238 0.5
831 12.8135 0.855013 3.4611 0.5
832 7.44551 3.85159 6.87963 0.5
833 8.95952 0.523143 3.83144 0.5
834 5.25632 9.88645 3.43388 0.5
835 11.7127 9.40075 12.2754 0.5
836 5.36108 8.5654 11.8587 0.5
837 0.482629 5.22559 0.662863 0.5
838 6.78842 0.0798976 13.388 0.5
839 12.8874 1.72677 9.93016 0.5
840 4.92844 6.40257 11.7826 0.5
841 1.20759 9.76088 11.2663 0.5
842 3.97208 1.01564 6.5332 0.5
843 0.990266 0.395561 11.8892 0.5
844 2.47618 1.33213 3.4983 0.5
845 7.73014 12.1847 0.169687 0.5
846 12.6928 3.56597 2.82526 0.5
847 9.28309 6.41035 -0.0140826 0.5
848 9.54693 2.92213 5.7299 0.5
849 2.03058 1.40656 1.77454 0.5
850 2.39283 7.11935 12.8452 0.5
851 9.20396 11.0112 3.11021 0.5
852 8.59483 1.71181 7.62416 0.5
853 10.0166 4.18214 12.4884 0.5
854 2.42375 12.7541 9.43486 0.5
855 3.75784 4.12458 6.97651 0.5
856 11.5536 8.05247 12.515 0.5
857 6.49881 5.47466 4.90823 0.5
858 0.115256 4.33252 10.8697 0.5
859 3.51844 3.01679 0.913289 0.5
860 2.67057 5.48371 6.19232 0.5
861 9.28379 10.4027 10.7086 0.5
862 1.34619 11.8676 7.26983 0.5
863 5.68111 7.20211 9.03438 0.5
864 4.6456 0.0715621 12.4 0.5
865 10.9122 2.36858 11.0915 0.5
866 7.47627 0.145139 6.36212 0.5
867 3.35745 11.7714 9.25678 0.5
868 8.5294 10.3624 3.16968 0.5
869 9.75655 6.65669 2.68892 0.5
870 5.17333 12.2539 2.1602 0.5
871 9.20428 6.33822 8.21592 0.5
872 7.54657 11.2276 4.96641 0.5
873 2.29968 12.8812 8.45766 0.5
874 13.1779 5.55049 8.8993 0.5
875 6.45373 11.4457 4.43288 0.5
876 1.99143 10.6159 2.3674 0.5
877 11.611 4.11634 4.26228 0.5
878 1.85163 12.3258 11.8257 0.5
879 12.4802 7.2678 6.37704 0.5
880 1.55015 2.0969 1.27241 0.5
881 12.3451 6.71503 12.6805 0.5
882 2.75229 10.8526 8.58329 0.5
883 6.12633 4.86923 8.92987 0.5
884 0.74161 11.6888 7.23095 0.5
885 5.39003 13.2892 13.1342 0.5
886 12.2025 2.04887 6.47081 0.5
887 7.33771 1.24292 1.47411 0.5
888 2.89016 3.7345 10.0628 0.5
889 7.45891 5.9216 2.49403 0.5
890 7.94654 11.6198 0.996785 0.5
891 5.62699 0.700654 1.09071 0.5
892 3.46892 6.76221 0.725589 0.5
893 1.41096 12.7189 5.77705 0.5
894 3.81781 2.67898 9.04265 0.5
895 3.9926 11.3563 3.46302 0.5
896 5.66148 9.98225 8.82767 0.5
897 4.57791 7.59989 7.02157 0.5
898 6.49519 0.977594 5.28789 0.5
899 2.62988 0.0475248 9.96539 0.5
900 11.1492 0.560749 10.2187 0.5
901 7.41489 6.76 8.13557 0.5
902 9.5128 3.66897 7.33726 0.5
903 2.30847 12.6123 4.86016 0.5
904 3.5757 1.87069 10.7186 0.5
905 6.99133 13.3476 4.53303 0.5
906 11.5578 12.7335 1.81137 0.5
907 11.5607 2.76628 8.67166 0.5
908 12.1671 2.34938 3.54884 0.5
909 5.9136 6.93091 0.688474 0.5
910 1.79624 11.5381 0.196139 0.5
911 12.2311 4.8803 6.10828 0.5
912 1.28413 12.2497 9.62203 0.5
913 7.32979 4.98828 10.6647 0.5
914 5.88784 1.2927 5.38955 0.5
915 11.4041 8.68276 7.70053 0.5
916 0.251651 11.5801 6.81001 0.5
917 11.8933 4.79829 11.5119 0.5
918 10.4824 9.54705 6.46838 0.5
919 12.7225 3.58907 3.34123 0.5
920 1.65738 5.02353 0.154997 0.5
921 6.9018 6.05789 6.78416 0.5
922 3.68167 0.0627412 9.04176 0.5
923 9.51038 6.60278 6.94266 0.5
924 4.37621 13.3751 6.96267 0.5
925 12.5592 4.53134 3.28288 0.5
926 3.72485 2.10171 2.60619 0.5
927 11.3086 11.6941 7.96579 0.5
928 0.725346 10.4724 3.372 0.5
929 10.7011 5.99593 2.63115 0.5
930 1.2365 8.25476 7.36276 0.5