ITEM: TIMESTEP
810000
ITEM: NUMBER OF ATOMS
1000
ITEM: BOX BOUNDS xy xz yz pp pp pp
0.0000000000000000e+00 1.3572088000000001e+01 0.0000000000000000e+00
0.0000000000000000e+00 1.3572088000000001e+01 0.0000000000000000e+00
0.0000000000000000e+00 1.3572088000000001e+01 0.0000000000000000e+00
ITEM: ATOMS id x y z radius
1 6.40334 12.1575 1.29724 0.5
2 5.09149 5.58999 10.384 0.5
3 4.61896 13.3088 12.4156 0.5
4 7.20786 10.3191 3.63131 0.5
5 1.9577 5.86352 1.68296 0.5
6 12.3767 4.95487 6.71971 0.5
7 9.77617 11.887 3.35212 0.5
8 4.56464 1.17754 13.3718 0.5
9 9.64943 12.0224 6.27587 0.5
10 4.29767 2.77102 1.90659 0.5
11 8.18607 9.18165 13.3507 0.5
12 7.46429 10.6476 0.718656 0.5
13 3.32682 8.25214 10.7652 0.5
14 0.861822 5.14109 1.56382 0.5
15 6.5747 8.63549 2.62069 0.5
16 9.42606 0.280159 7.98033 0.5
17 7.28522 1.96253 0.960326 0.5
18 1.7667 4.92034 8.16042 0.5
19 0.106217 6.53864 11.1847 0.5
20 9.09642 3.262 3.44552 0.5
21 7.83633 3.40446 11.5537 0.5
22 10.0511 10.2309 8.29165 0.5
23 4.45125 10.7681 11.3314 0.5
24 12.9952 6.0776 3.40671 0.5
25 6.34655 7.80934 3.1933 0.5
26 1.02584 10.7929 12.3989 0.5
27 2.72444 9.50578 7.69273 0.5
28 2.99971 6.20857 4.65843 0.5
29 7.52289 4.42472 0.557642 0.5
30 8.80781 10.6561 11.3334 0.5
31 7.79389 7.79539 0.0591806 0.5
32 5.14041 1.70191 12.8224 0.5
33 1.80322 8.26396 3.47614 0.5
34 8.44337 6.4263 13.2955 0.5
35 4.34005 3.31147 4.80002 0.5
36 13.0958 6.04068 11.0372 0.5
37 10.116 4.79631 11.9672 0.5
38 12.7219 7.74421 3.40601 0.5
39 10.3191 6.44919 2.77435 0.5
40 1.22455 4.91098 5.68186 0.5
41 0.663008 0.187078 10.5775 0.5
42 4.17543 3.27725 6.54573 0.5
43 9.03466 0.163732 5.89922 0.5
44 13.1875 8.36152 1.70222 0.5
45 8.55737 9.96776 6.7427 0.5
46 9.4607 12.2954 4.73833 0.5
47 6.27282 10.1945 6.66232 0.5
48 3.82893 5.06878 1.42186 0.5
49 7.15233 2.0533 12.4524 0.5
50 0.504118 0.588713 6.66197 0.5
51 0.120105 12.9193 8.25436 0.5
52 11.1127 1.55847 8.36644 0.5
53 8.3816 0.00631194 13.1962 0.5
54 11.8245 1.8416 2.8418 0.5
55 7.66611 2.90382 5.72263 0.5
56 7.07667 8.37201 5.75985 0.5
57 5.97194 10.3503 6.77606 0.5
58 4.3321 3.48943 11.0425 0.5
59 12.2111 7.46799 6.31518 0.5
60 7.13541 13.2328 1.29108 0.5
61 3.02471 11.1145 4.53759 0.5
62 4.31463 5.70916 11.186 0.5
63 6.61151 10.7147 11.1953 0.5
64 1.40899 11.5256 4.6758 0.5
65 11.1171 7.8782 6.33838 0.5
66 8.17276 11.7406 12.6325 0.5
67 1.10765 9.16419 7.52898 0.5
68 4.24357 10.3927 7.26673 0.5
69 9.32557 1.45819 8.99078 0.5
70 3.56072 4.27758 13.1387 0.5
71 10.7735 11.1142 3.50795 0.5
72 4.6505 1.13753 12.2725 0.5
73 1.19827 13.0134 0.0867286 0.5
74 10.6012 7.41594 3.79011 0.5
75 0.494722 4.03694 2.43374 0.5
76 12.7859 9.65741 11.8866 0.5
77 9.99536 9.82812 8.55574 0.5
78 10.3183 8.99584 12.1157 0.5
79 10.2079 8.98776 4.18422 0.5
80 9.85052 4.9619 1.36099 0.5
81 5.48392 13.323 11.0794 0.5
82 10.5192 12.4169 0.91094 0.5
83 5.00892 1.29037 12.3165 0.5
84 5.14621 0.602186 13.0601 0.5
85 4.09136 9.76747 5.89269 0.5
86 3.07062 6.34173 11.3289 0.5
87 12.0486 12.6107 11.7467 0.5
88 12.2675 11.9453 8.25 0.5
89 8.16042 2.67679 11.7178 0.5
90 12.0081 1.44747 6.4601 0.5
91 1.88447 1.06595 13.1423 0.5
92 12.4365 10.9441 3.73872 0.5
93 6.28979 2.55926 8.67471 0.5
94 8.55596 6.04755 7.1836 0.5
95 12.3252 4.18139 0.543144 0.5
96 2.80148 13.528 4.14008 0.5
97 7.23466 1.80473 13.3932 0.5
98 0.0377506 7.60204 9.48792 0.5
99 11.3414 12.125 7.83736 0.5
100 12.6433 9.72121 9.0464 0.5
101 10.16 1.20767 9.49419 0.5
102 8.13605 9.87943 9.2189 0.5
103 1.62258 4.34565 11.2431 0.5
104 7.65274 13.2492 8.7708 0.5
105 6.468 8.2657 8.85061 0.5
106 4.10512 9.41865 9.85773 0.5
107 7.28126 5.05694 7.03722 0.5
108 7.65728 0.31576 7.90484 0.5
109 4.89446 9.76994 4.23888 0.5
110 8.62826 12.3964 11.85 0.5
111 6.48904 11.2128 0.818014 0.5
112 11.2778 9.57988 7.56798 0.5
113 0.661857 9.95661 4.54505 0.5
114 11.526 10.6406 0.244924 0.5
115 1.8751 11.3499 9.69658 0.5
116 8.84397 6.66852 3.95112 0.5
117 12.133 4.24179 5.3244 0.5
118 11.7808 5.13513 2.37519 0.5
119 2.86109 12.2424 11.9162 0.5
120 1.36634 1.91264 5.67077 0.5
121 6.89476 13.2023 11.7224 0.5
122 3.00997 9.81948 8.30968 0.5
123 9.89314 0.345708 4.41626 0.5
124 6.90457 2.34766 2.03053 0.5
125 4.34907 11.1196 8.43435 0.5
126 10.017 6.96786 9.83006 0.5
127 10.7605 8.08982 1.69274 0.5
128 7.72264 12.5588 4.38413 0.5
129 7.52096 1.29142 13.1164 0.5
130 10.376 13.4478 1.24569 0.5
131 1.44392 6.21284 3.99168 0.5
132 9.71099 6.52684 13.3061 0.5
133 7.60189 2.57248 12.8436 0.5
134 13.1407 9.39574 2.45674 0.5
135 1.50378 12.6737 10.056 0.5
136 1.49087 2.25245 12.1776 0.5
137 12.6992 10.7356 7.46883 0.5
138 10.5696 8.47317 11.4542 0.5
139 8.56286 11.5476 12.7522 0.5
140 0.453915 12.6269 1.44705 0.5
141 6.752 5.33634 4.46797 0.5
142 6.02143 1.67547 3.15542 0.5
143 12.0888 2.55644 11.6544 0.5
144 4.09557 2.70077 0.991798 0.5
145 2.6883 2.5222 9.89656 0.5
146 12.5879 1.96533 13.4228 0.5
147 1.4241 1.01829 8.37059 0.5
148 9.41957 0.245154 13.3331 0.5
149 10.8056 2.56135 7.77878 0.5
150 7.64263 4.42413 2.75098 0.5
151 11.3803 3.75212 1.2026 0.5
152 8.93444 1.08627 12.6876 0.5
153 6.32179 13.4855 9.00066 0.5
154 0.0329535 7.86479 7.52455 0.5
155 12.803 12.7871 9.8855 0.5
156 4.8721 5.16378 5.9228 0.5
157 1.14856 9.14328 7.08874 0.5
158 4.77339 4.45892 2.82973 0.5
159 8.19337 4.34813 2.18125 0.5
160 4.04905 4.32688 8.85727 0.5
161 10.8501 11.0589 1.96714 0.5
162 3.4234 5.57649 13.079 0.5
163 12.6699 6.34453 12.4021 0.5
164 2.13606 11.3379 10.7251 0.5
165 3.17974 8.75961 1.32755 0.5
166 8.20136 6.04511 3.63448 0.5
167 9.85763 5.83282 2.69191 0.5
168 2.42847 7.16678 0.474692 0.5
169 12.7851 4.19678 9.94877 0.5
170 10.9687 11.8014 8.6129 0.5
171 10.4932 0.149762 6.82153 0.5
172 8.01861 11.3979 12.4483 0.5
173 0.50005 2.13399 13.1625 0.5
174 6.97088 6.84426 9.71569 0.5
175 9.61603 7.16175 10.6805 0.5
176 3.31492 7.94434 12.2474 0.5
177 9.37126 2.25948 6.75925 0.5
178 6.39385 1.74826 7.02395 0.5
179 7.56786 6.33207 1.62805 0.5
180 9.40407 10.1907 2.38498 0.5
181 5.09426 4.14666 10.9379 0.5
182 11.7208 4.69705 9.6707 0.5
183 12.0898 2.65169 9.64817 0.5
184 6.05494 0.734432 5.37734 0.5
185 7.74163 11.7841 5.42902 0.5
186 12.0596 11.8708 11.9414 0.5
187 0.414292 10.43 11.6971 0.5
188 2.50841 3.72589 0.0475637 0.5
189 3.21633 10.1013 8.80258 0.5
190 9.60521 5.22487 1.95007 0.5
191 2.74703 1.52831 11.5106 0.5
192 1.94272 3.82731 13.3271 0.5
193 11.3237 0.406856 7.83894 0.5
194 4.73911 6.23587 1.31456 0.5
195 13.3131 4.00688 3.93034 0.5
196 3.71687 2.90819 10.8863 0.5
197 5.85346 5.86579 0.751068 0.5
198 4.40171 7.24377 8.73152 0.5
199 1.4496 12.16 11.462 0.5
200 4.30725 0.935758 3.36667 0.5
201 9.76252 6.62285 1.90199 0.5
202 6.97545 10.1286 7.60939 0.5
203 5.84595 8.55024 10.8942 0.5
204 5.57404 3.17495 10.7188 0.5
205 8.06781 4.97429 10.3658 0.5
206 4.69806 2.69786 0.229287 0.5
207 2.62124 13.0753 3.97068 0.5
208 0.754085 10.3219 4.89199 0.5
209 11.3964 2.29842 11.5191 0.5
210 0.401913 1.76211 3.08186 0.5
211 11.3699 6.39267 8.24961 0.5
212 3.10052 2.38198 5.48869 0.5
213 11.3217 0.559936 0.656165 0.5
214 0.669326 13.0878 10.1625 0.5
215 3.91066 4.70194 3.14019 0.5
216 0.373659 10.5618 8.05142 0.5
217 0.309172 1.68219 10.3437 0.5
218 1.73197 9.48247 2.7412 0.5
219 0.697259 12.9036 1.54416 0.5
220 6.67797 7.24923 8.26797 0.5
221 10.2721 10.029 12.6491 0.5
222 8.72654 10.0729 12.387 0.5
223 10.1357 5.65559 1.65575 0.5
224 7.76427 2.705 7.48543 0.5
225 2.02537 1.19761 6.61227 0.5
226 11.3063 12.0194 3.61607 0.5
227 12.2207 6.98212 5.29209 0.5
228 9.09128 9.97601 6.88938 0.5
229 9.88821 3.60613 12.3515 0.5
230 6.16333 4.78814 11.2707 0.5
231 11.253 2.58787 10.7882 0.5
232 13.4868 3.83787 5.32805 0.5
233 8.65003 10.1206 9.58687 0.5
234 0.486248 12.554 7.48311 0.5
235 10.6164 3.87372 5.082 0.5
236 1.19509 4.21116 7.15808 0.5
237 12.944 2.68545 4.35674 0.5
238 9.1031 5.41418 12.6946 0.5
239 10.811 10.6182 10.5753 0.5
240 8.95315 10.4754 4.85175 0.5
241 4.24587 0.98537 13.3493 0.5
242 12.7182 2.6268 5.69195 0.5
243 1.08466 8.45981 10.4895 0.5
244 10.291 0.719803 1.73504 0.5
245 3.0504 5.49323 6.20891 0.5
246 0.489632 3.81377 0.314865 0.5
247 5.59368 8.54504 6.84107 0.5
248 10.3545 8.61181 5.9206 0.5
249 11.2308 12.8459 12.95 0.5
250 12.5593 12.4734 5.77078 0.5
251 8.55276 10.0169 1.6698 0.5
252 2.96069 0.722347 2.76179 0.5
253 1.30041 7.71681 9.19265 0.5
254 11.5477 6.32437 7.52918 0.5
255 10.7082 9.06723 1.1114 0.5
256 7.91712 5.32571 9.13364 0.5
257 9.41645 0.166128 1.13287 0.5
258 7.83596 2.83308 1.67226 0.5
259 1.90785 7.72727 10.856 0.5
260 13.3072 11.2357 12.036 0.5
261 12.2759 12.5854 11.1525 0.5
262 0.339551 6.43058 3.74431 0.5
263 1.40467 6.0266 6.70662 0.5
264 4.25662 1.80756 3.41154 0.5
265 13.5133 3.65311 5.58502 0.5
266 5.96581 7.25872 1.50974 0.5
267 4.4341 8.60318 12.8921 0.5
268 4.0787 13.23 12.5234 0.5
269 12.6967 10.9756 2.9186 0.5
270 13.0677 1.65413 3.20252 0.5
271 9.99615 13.2342 3.79526 0.5
272 2.17261 9.21636 9.7081 0.5
273 11.2532 9.64125 13.5137 0.5
274 5.24109 8.61471 0.240374 0.5
275 1.87935 4.17736 12.532 0.5
276 1.46669 13.0539 3.02262 0.5
277 11.146 5.39379 9.67056 0.5
278 0.234224 8.51093 4.56346 0.5
279 3.55861 2.57755 8.98104 0.5
280 11.7219 7.3434 13.1785 0.5
281 4.50245 2.05216 7.57945 0.5
282 11.8607 3.69499 5.66382 0.5
283 3.5865 3.88222 4.26349 0.5
284 5.94068 5.62392 2.94734 0.5
285 8.26353 1.46433 13.3981 0.5
286 3.85783 3.17712 12.1437 0.5
287 4.29153 5.46307 11.2377 0.5
288 2.81263 5.5093 6.12472 0.5
289 2.08391 2.57232 12.2271 0.5
290 2.88854 9.37911 6.05837 0.5
291 5.36519 12.772 3.01803 0.5
292 4.24575 8.49599 5.26333 0.5
293 8.09906 7.20168 10.2453 0.5
294 12.0201 2.05937 3.66047 0.5
295 13.2361 5.40177 3.9619 0.5
296 5.39497 12.0779 2.78251 0.5
297 7.75562 6.49289 2.04914 0.5
298 0.18865 7.59643 0.472083 0.5
299 9.99391 4.49959 11.6833 0.5
300 0.116734 1.78451 6.05636 0.5
301 8.6416 10.9281 13.4448 0.5
302 6.13577 9.28775 11.4873 0.5
303 6.5309 1.39069 13.0617 0.5
304 10.3117 3.12924 13.3781 0.5
305 1.7213 2.53846 10.5055 0.5
306 5.40024 6.4608 1.34678 0.5
307 5.41461 5.3928 7.44271 0.5
308 4.3838 10.2152 9.75136 0.5
309 1.29936 12.7955 9.86526 0.5
310 8.67476 5.25661 7.29228 0.5
311 4.25353 2.47818 2.89104 0.5
312 1.10282 7.85 2.93779 0.5
313 4.67129 9.48678 8.0165 0.5
314 1.28629 3.24379 12.3399 0.5
315 0.449242 0.276556 10.744 0.5
316 9.94397 5.25675 6.15302 0.5
317 13.2254 9.38105 0.381466 0.5
318 5.15124 12.3847 1.61042 0.5
319 1.01757 12.5902 9.07269 0.5
320 9.64293 7.41204 10.4002 0.5
321 10.0933 9.70875 11.1787 0.5
322 1.6684 12.4168 1.02429 0.5
323 12.6389 4.18933 5.45249 0.5
324 9.09434 0.164156 8.52154 0.5
325 11.3313 10.3711 12.1781 0.5
326 3.74749 5.18621 2.24056 0.5
327 12.3523 5.7626 6.52942 0.5
328 6.80644 5.72241 3.34143 0.5
329 7.90171 3.33257 2.14936 0.5
330 12.3681 13.4063 6.29498 0.5
331 6.79522 9.85694 11.8661 0.5
332 4.82815 8.3259 11.4838 0.5
333 3.88421 10.5572 0.526829 0.5
334 3.40078 12.312 12.3241 0.5
335 2.45636 4.37904 10.0363 0.5
336 6.16268 1.29378 2.72873 0.5
337 2.359 2.42831 9.37633 0.5
338 3.41811 4.20514 7.44842 0.5
339 6.5966 8.39879 10.7501 0.5
340 7.98749 5.37636 10.465 0.5
341 12.6883 5.61156 10.1189 0.5
342 10.5458 4.23483 6.86318 0.5
343 4.93697 13.5354 2.02299 0.5
344 4.86007 9.73071 7.86317 0.5
345 7.70699 9.75577 6.69619 0.5
346 10.0197 11.8663 2.20638 0.5
347 8.34183 0.151469 2.83407 0.5
348 2.91827 0.622397 6.84325 0.5
349 6.8497 4.00623 9.113 0.5
350 7.27643 8.9447 11.6295 0.5
351 3.22195 11.8504 5.47432 0.5
352 9.7632 5.15251 0.930954 0.5
353 9.50582 1.50525 2.60001 0.5
354 5.62314 1.53834 12.5536 0.5
355 9.38541 13.3562 3.29533 0.5
356 13.4513 2.95538 0.776979 0.5
357 7.50088 12.6484 0.139107 0.5
358 10.0001 9.18616 12.1477 0.5
359 3.50558 3.21906 4.21282 0.5
360 3.47179 0.835415 3.81088 0.5
361 6.30903 10.5574 0.107849 0.5
362 2.82809 11.6753 11.5024 0.5
363 7.58771 1.34258 4.81473 0.5
364 6.93783 9.28205 5.58624 0.5
365 9.63543 5.20203 3.94995 0.5
366 10.3451 2.84273 5.94961 0.5
367 9.27912 13.194 7.90706 0.5
368 4.48245 10.0702 2.43352 0.5
369 7.27921 11.9624 12.9119 0.5
370 9.85998 3.56057 7.85775 0.5
371 3.29513 3.72526 10.5884 0.5
372 0.061086 8.09282 7.51611 0.5
373 4.08474 12.5195 2.71536 0.5
374 8.38935 1.10928 0.455492 0.5
375 13.4457 5.0891 5.67192 0.5
376 5.76069 12.3037 13.5636 0.5
377 8.5977 7.54189 10.3827 0.5
378 6.85268 8.17702 3.80064 0.5
379 5.25852 8.2479 3.415 0.5
380 13.3108 13.196 3.13102 0.5
381 9.29977 6.20055 11.3202 0.5
382 1.75573 0.254968 3.71527 0.5
383 10.6208 7.5082 5.31591 0.5
384 12.6793 9.52434 9.93512 0.5
385 8.69191 7.81336 7.60189 0.5
386 6.06009 10.0392 9.04969 0.5
387 7.61216 11.443 3.71147 0.5
388 1.73241 10.3592 0.31442 0.5
389 8.40183 4.19078 0.801062 0.5
390 6.93682 10.3952 10.64 0.5
391 6.78798 6.0651 4.57442 0.5
392 3.32768 2.48573 10.1754 0.5
393 4.49851 1.18457 10.136 0.5
394 0.243259 10.1466 8.81638 0.5
395 9.05006 5.57727 2.71883 0.5
396 2.78705 8.67602 2.28402 0.5
397 5.56981 6.94219 10.7382 0.5
398 0.621723 8.75255 0.812679 0.5
399 8.10345 8.26799 0.329366 0.5
400 6.66347 4.98993 10.6362 0.5
401 8.31694 2.35951 6.13559 0.5
402 5.03065 3.34534 12.8456 0.5
403 9.40423 8.54695 1.10997 0.5
404 11.6762 12.0821 12.1983 0.5
405 7.03952 2.27128 1.66871 0.5
406 0.378641 6.8943 0.163203 0.5
407 3.36678 8.79126 13.0437 0.5
408 12.8196 3.78954 8.0355 0.5
409 7.43836 10.1307 7.70436 0.5
410 0.0852699 7.2477 7.99082 0.5
411 6.98195 4.75702 12.0598 0.5
412 0.939931 4.25643 3.8208 0.5
413 4.38334 7.27228 9.2715 0.5
414 4.8338 11.6693 3.46645 0.5
415 12.0111 8.01633 12.7943 0.5
416 12.8674 9.61959 9.56263 0.5
417 1.97629 2.59688 8.02267 0.5
418 0.158781 12.9383 2.88059 0.5
419 6.57574 13.3042 5.06496 0.5
420 7.66502 5.64576 9.14619 0.5
421 11.3294 2.64038 12.1676 0.5
422 12.567 12.0777 2.12092 0.5
423 0.610935 1.54757 1.22985 0.5
424 6.45782 5.30383 1.34825 0.5
425 9.48412 11.0647 13.4378 0.5
426 7.99946 6.04643 8.63955 0.5
427 2.31193 10.6253 7.68977 0.5
428 0.993016 0.165127 3.70536 0.5
429 8.9213 1.8474 1.03894 0.5
430 5.2478 8.50179 2.50662 0.5
431 0.831987 12.2187 5.05972 0.5
432 12.165 12.5779 11.6559 0.5
433 9.47252 10.4985 0.133146 0.5
434 9.18869 5.86006 11.7828 0.5
435 6.94613 1.92993 1.50358 0.5
436 2.19568 12.7111 6.26663 0.5
437 2.20747 5.23705 4.86669 0.5
438 9.68233 12.7151 10.3459 0.5
439 1.69576 8.98664 7.45504 0.5
440 12.0631 12.7831 8.41607 0.5
441 8.21176 12.9029 11.21 0.5
442 7.80455 12.8711 8.85353 0.5
443 7.36786 3.8786 1.28948 0.5
444 3.12675 3.03952 4.45428 0.5
445 1.74758 12.4422 10.5255 0.5
446 10.1828 11.697 12.7035 0.5
447 1.04791 8.81203 4.73479 0.5
448 5.36503 12.6549 0.506332 0.5
449 1.42183 3.21105 12.07 0.5
450 11.6803 10.1967 6.85846 0.5
451 9.18926 11.5707 4.66053 0.5
452 11.4604 2.80771 1.55193 0.5
453 9.22219 9.91638 9.74499 0.5
454 6.97053 11.4852 9.14626 0.5
455 3.93913 9.93666 2.39337 0.5
456 1.98595 3.52024 5.47274 0.5
457 11.0508 7.43765 3.98331 0.5
458 1.84163 2.73543 0.453766 0.5
459 3.20401 12.4013 8.98668 0.5
460 2.07769 9.59203 10.055 0.5
461 6.15739 2.48158 4.02252 0.5
462 7.04006 7.77943 1.26784 0.5
463 5.33172 13.3426 4.63304 0.5
464 9.31251 11.595 3.60096 0.5
465 7.29871 7.90798 10.9038 0.5
466 6.14701 1.25055 3.94189 0.5
467 1.8719 13.5284 4.36616 0.5
468 10.4503 9.06408 0.268707 0.5
469 7.92819 1.97835 6.04233 0.5
470 5.12124 4.16237 8.29709 0.5
471 7.01592 2.34645 7.2814 0.5
472 3.47113 4.07707 3.69539 0.5
473 4.31096 8.63388 4.64797 0.5
474 8.43249 12.7122 5.02336 0.5
475 3.6492 11.3962 4.80527 0.5
476 2.83157 7.43794 0.309618 0.5
477 2.41408 13.2816 3.24534 0.5
478 4.35848 8.01627 2.22563 0.5
479 1.6057 9.43609 10.5492 0.5
480 1.86813 7.46301 5.74419 0.5
481 10.979 7.25891 9.50494 0.5
482 3.19154 10.1457 11.0379 0.5
483 2.64205 13.2255 6.98704 0.5
484 2.54953 1.18895 1.98265 0.5
485 7.18152 6.46209 3.12039 0.5
486 6.29019 2.30408 3.77781 0.5
487 10.521 0.063083 7.18525 0.5
488 3.67618 9.74594 2.83204 0.5
489 13.0681 5.33878 0.435617 0.5
490 8.62124 9.23129 11.9459 0.5
491 5.71279 3.77997 5.25762 0.5
492 10.505 13.133 4.67509 0.5
493 12.6748 8.69347 8.04837 0.5
494 4.45297 4.40815 10.2449 0.5
495 3.31288 8.78167 1.74658 0.5
496 5.76639 3.86728 9.52614 0.5
497 11.282 10.3787 6.39377 0.5
498 8.8121 4.79981 3.41047 0.5
499 9.7462 9.54763 12.7684 0.5
500 9.33171 7.44885 8.09101 0.5
501 9.70578 11.5662 8.28062 0.5
502 12.6614 5.40349 6.50306 0.5
503 3.29337 2.81255 4.12185 0.5
504 9.73679 9.81458 6.73175 0.5
505 9.9381 7.55115 9.60906 0.5
506 1.00583 7.45196 9.20938 0.5
507 3.46517 9.26661 11.8291 0.5
508 12.9991 5.91792 9.91808 0.5
509 0.833843 10.6415 7.58435 0.5
510 10.1202 8.51172 10.3676 0.5
511 9.25241 9.29485 12.376 0.5
512 12.5128 5.68635 0.942095 0.5
513 0.320745 0.870254 11.9433 0.5
514 8.86052 11.1445 8.54751 0.5
515 1.58558 10.7536 7.2356 0.5
516 4.70085 9.36032 10.3159 0.5
517 3.37302 2.48811 1.46135 0.5
518 5.69452 12.0501 9.47145 0.5
519 3.85058 1.66139 4.65628 0.5
520 2.67541 8.93406 1.6149 0.5
521 11.2143 7.46752 10.9174 0.5
522 10.5961 10.3221 6.30369 0.5
523 12.1669 2.89868 2.99236 0.5
524 6.53933 10.9395 4.31253 0.5
525 8.17089 2.22013 12.8093 0.5
526 2.88422 10.2224 8.46752 0.5
527 7.69358 10.8654 7.70223 0.5
528 6.29428 10.8248 2.36415 0.5
529 5.36006 5.61205 3.40633 0.5
530 3.08694 0.3189 0.27525 0.5
531 3.69518 2.93752 11.4221 0.5
532 3.07592 0.686143 9.21134 0.5
533 13.4237 12.4935 3.56619 0.5
534 4.27265 3.96154 4.79275 0.5
535 3.82328 0.172652 4.70443 0.5
536 4.58603 0.157986 9.34648 0.5
537 0.140269 12.8688 4.00882 0.5
538 11.6143 4.64909 4.72013 0.5
539 10.8558 1.54206 2.04115 0.5
540 6.33108 1.77041 9.55793 0.5
541 12.5786 8.3477 11.9455 0.5
542 1.9537 12.5118 12.027 0.5
543 9.95953 9.78802 13.1919 0.5
544 6.96351 9.8763 3.44788 0.5
545 10.9142 11.4627 6.85084 0.5
546 0.951777 2.01058 0.434611 0.5
547 12.9387 0.437578 2.42798 0.5
548 13.1458 7.07681 1.0402 0.5
549 0.854372 9.34603 5.57421 0.5
550 8.44324 10.1076 7.86344 0.5
551 0.721093 1.42011 10.9298 0.5
552 2.80052 12.5714 7.3698 0.5
553 7.25223 2.49674 11.0633 0.5
554 1.64335 10.6912 8.55164 0.5
555 2.56953 10.1207 3.06919 0.5
556 13.3869 8.48902 1.3693 0.5
557 6.71966 5.40174 13.1504 0.5
558 4.29032 9.38823 12.0604 0.5
559 3.58736 6.35491 1.27776 0.5
560 2.04324 4.62793 4.94414 0.5
561 9.36472 8.73428 11.6978 0.5
562 12.0785 5.2613 11.463 0.5
563 3.57883 4.91181 8.63702 0.5
564 9.7032 12.5163 3.87171 0.5
565 1.40658 1.94926 1.79391 0.5
566 1.91695 2.59179 6.49539 0.5
567 11.5163 1.80762 1.31952 0.5
568 9.46026 2.52932 0.646376 0.5
569 12.3666 1.34686 11.7747 0.5
570 10.1884 6.55936 6.0724 0.5
571 3.29596 7.37512 0.553135 0.5
572 2.42019 4.11416 7.78535 0.5
573 6.39957 2.96162 13.1459 0.5
574 3.29299 1.15219 8.8275 0.5
575 7.42668 13.2952 2.4007 0.5
576 3.85087 11.8682 12.4652 0.5
577 3.61042 12.8913 3.39521 0.5
578 8.72684 5.84353 6.99929 0.5
579 9.64583 5.29705 5.51161 0.5
580 6.31747 6.44301 13.0289 0.5
581 8.19683 5.91466 2.35465 0.5
582 12.0577 7.36041 0.453549 0.5
583 0.769384 10.8595 8.4846 0.5
584 3.7942 9.6043 12.3477 0.5
585 8.27497 5.98899 3.5279 0.5
586 4.77041 8.93775 1.54681 0.5
587 11.8932 1.34644 4.34304 0.5
588 12.1243 12.7276 8.48865 0.5
589 13.0186 9.44837 2.20627 0.5
590 7.47479 3.04042 1.58867 0.5
591 6.09106 9.59584 1.85948 0.5
592 3.49038 13.2556 1.31778 0.5
593 8.34464 9.42077 9.23668 0.5
594 8.45322 10.408 1.04407 0.5
595 5.42271 3.07152 4.51846 0.5
596 7.3573 6.84322 7.08501 0.5
597 2.0548 5.18065 6.30201 0.5
598 5.14082 3.25865 8.58211 0.5
599 10.9779 6.27083 2.41128 0.5
600 1.9009 3.68317 0.254149 0.5
601 7.28732 4.49781 3.95603 0.5
602 3.25996 13.2747 4.6398 0.5
603 9.45578 6.11361 8.114 0.5
604 2.94039 11.2571 10.8208 0.5
605 0.631335 13.3506 7.91829 0.5
606 5.83737 12.6255 0.542655 0.5
607 6.95536 7.74152 10.4672 0.5
608 12.8018 12.6957 4.28203 0.5
609 3.62827 2.52121 3.96882 0.5
610 6.78671 0.657341 7.4013 0.5
611 4.31033 0.413434 11.7805 0.5
612 3.08337 7.42023 12.7265 0.5
613 5.61262 9.69861 4.74466 0.5
614 11.6382 8.52515 1.79781 0.5
615 11.0063 10.3711 2.81761 0.5
616 2.2527 10.5281 6.43225 0.5
617 6.29088 12.8648 13.1452 0.5
618 3.3416 7.11804 12.1017 0.5
619 1.90318 8.09536 2.78845 0.5
620 11.5648 10.5281 7.18936 0.5
621 9.44078 5.01561 6.45722 0.5
622 10.9445 0.204675 3.39927 0.5
623 12.776 10.895 1.2801 0.5
624 7.87981 3.19294 2.15019 0.5
625 12.624 2.92786 0.823489 0.5
626 1.14056 4.57064 10.3516 0.5
627 6.95025 7.91217 5.88572 0.5
628 7.22455 7.23887 3.7201 0.5
629 3.51119 2.65239 11.5027 0.5
630 8.10809 11.9965 8.66363 0.5
631 4.38177 7.82695 1.67847 0.5
632 12.9675 11.0727 4.17293 0.5
633 11.542 6.12275 9.3394 0.5
634 12.9604 13.3846 7.10661 0.5
635 4.92919 12.668 0.314135 0.5
636 12.3844 7.96049 11.9995 0.5
637 10.6422 6.84712 1.39889 0.5
638 3.05533 10.0493 0.0747867 0.5
639 7.94189 0.403921 11.9327 0.5
640 1.32914 0.693193 6.09877 0.5
641 0.823459 0.833873 10.0807 0.5
642 5.0604 6.63378 6.26363 0.5
643 8.9709 3.77691 7.90661 0.5
644 9.30751 3.32792 2.82839 0.5
645 12.9165 1.63637 11.6207 0.5
646 7.41848 7.19529 10.0836 0.5
647 11.6046 10.5698 8.504 0.5
648 1.86594 12.5078 11.1565 0.5
649 8.24441 5.03322 9.14693 0.5
650 9.24934 3.84872 6.79634 0.5
651 5.31816 9.69819 7.97658 0.5
652 1.00096 7.50911 1.17129 0.5
653 2.31804 11.8045 4.22503 0.5
654 8.1406 8.56329 13.4677 0.5
655 13.3206 4.42808 5.27967 0.5
656 10.9761 8.24321 12.6726 0.5
657 9.73707 7.7504 9.92175 0.5
658 10.7492 5.16807 9.8857 0.5
659 2.86455 9.79506 2.71493 0.5
660 9.13702 13.2809 6.55233 0.5
661 11.2983 9.55242 8.2387 0.5
662 7.9945 12.2176 12.321 0.5
663 8.75417 8.7741 8.66994 0.5
664 7.8623 2.66098 12.3386 0.5
665 11.1293 4.71014 2.09501 0.5
666 3.97989 7.02327 11.6591 0.5
667 12.209 9.71704 6.36591 0.5
668 3.76433 11.3758 11.9618 0.5
669 4.36892 2.80656 7.42201 0.5
670 5.61291 2.40895 5.8485 0.5
671 8.27563 0.866041 1.36237 0.5
672 4.50509 0.580994 7.79882 0.5
673 0.869455 10.141 10.504 0.5
674 10.2965 9.09736 2.6066 0.5
675 7.7111 10.9214 8.56335 0.5
676 8.66724 6.11012 13.1937 0.5
677 11.4954 2.73763 2.16765 0.5
678 12.8823 7.53492 11.242 0.5
679 1.61759 3.74956 10.074 0.5
680 12.5684 12.9578 8.8337 0.5
681 3.49726 4.44605 6.49301 0.5
682 12.7933 12.7245 1.19629 0.5
683 7.18818 10.6542 2.61301 0.5
684 4.59139 13.3634 11.2872 0.5
685 3.6138 10.443 8.16704 0.5
686 3.63301 10.4178 11.1402 0.5
687 7.10091 6.82862 5.77562 0.5
688 5.19975 3.94132 0.080113 0.5
689 8.43576 0.270345 11.9501 0.5
690 4.94589 2.73906 10.3756 0.5
691 8.26413 1.4009 1.11048 0.5
692 10.3711 9.74458 1.18535 0.5
693 13.0424 8.47511 2.05097 0.5
694 1.1891 11.9196 6.87339 0.5
695 5.41021 2.12367 3.33093 0.5
696 8.3777 10.5625 5.77711 0.5
697 11.2461 4.50906 3.3815 0.5
698 9.60079 3.24022 0.102387 0.5
699 5.29392 0.580729 8.40556 0.5
700 9.96957 3.12357 11.3903 0.5
701 6.00084 1.0239 4.81345 0.5
702 5.91553 12.1252 11.2587 0.5
703 3.49581 0.165032 1.2932 0.5
704 3.73847 1.7743 6.26527 0.5
705 12.6788 0.177102 10.116 0.5
706 10.2952 12.3693 4.90989 0.5
707 3.5995 2.54482 10.482 0.5
708 11.2911 9.18372 7.65828 0.5
709 2.59426 1.06343 6.95269 0.5
710 12.3739 13.127 9.24536 0.5
711 5.11579 3.87357 11.6139 0.5
712 11.4683 5.92316 4.19175 0.5
713 9.09386 9.49632 11.8342 0.5
714 12.5507 12.4287 11.242 0.5
715 13.5023 11.2822 9.9949 0.5
716 7.43436 10.5669 8.43167 0.5
717 5.80563 7.26392 13.015 0.5
718 7.19946 0.742044 6.91016 0.5
719 9.91549 9.90078 8.17349 0.5
720 5.58904 5.41978 0.497975 0.5
721 11.7618 12.5569 1.26454 0.5
722 8.4509 7.13763 0.889317 0.5
723 0.254382 5.40189 9.64033 0.5
724 12.8977 8.97059 4.38725 0.5
725 13.1168 11.7878 4.90016 0.5
726 11.9889 8.49068 7.90305 0.5
727 7.41764 11.2523 11.2279 0.5
728 6.09017 11.9387 10.8675 0.5
729 4.69375 7.6751 1.20771 0.5
730 4.74202 6.53053 2.44849 0.5
731 4.38579 9.4737 2.62571 0.5
732 1.02223 1.31656 2.09623 0.5
733 11.7145 6.75421 5.67283 0.5
734 9.72857 4.57236 11.9042 0.5
735 9.10874 2.69818 0.269014 0.5
736 1.70661 13.1432 4.79235 0.5
737 3.75273 0.217543 10.2395 0.5
738 1.02428 12.1812 7.07845 0.5
739 2.29346 13.1518 8.53225 0.5
740 1.15059 2.92934 0.290912 0.5
741 8.19264 0.959126 11.6754 0.5
742 8.12665 6.01143 12.811 0.5
743 11.8217 9.52349 4.38983 0.5
744 0.412592 0.0775875 12.8507 0.5
745 5.46566 1.24866 0.694669 0.5
746 7.98472 12.3591 7.61839 0.5
747 1.6236 7.06591 2.62702 0.5
748 2.11673 5.45238 11.9922 0.5
749 3.70401 2.78091 1.94581 0.5
750 3.98877 10.3607 5.54003 0.5
751 6.46961 6.55429 3.71777 0.5
752 7.22264 8.54218 4.0859 0.5
753 11.1167 3.78906 12.3077 0.5
754 12.6725 12.9571 4.21861 0.5
755 4.36662 12.9166 9.63086 0.5
756 8.6991 12.8026 12.0963 0.5
757 7.98362 3.0574 3.116 0.5
758 0.787993 1.54518 10.7674 0.5
759 11.7773 12.2416 8.71824 0.5
760 8.98638 3.21145 10.1343 0.5
761 7.4688 11.6601 6.221 0.5
762 4.95968 10.3238 9.62079 0.5
763 0.14552 4.34747 11.4376 0.5
764 6.52613 11.7918 5.31471 0.5
765 5.42148 12.2669 4.74225 0.5
766 8.11843 12.3106 0.911215 0.5
767 1.06029 12.6906 1.96511 0.5
768 10.9009 7.43582 7.70773 0.5
769 8.63959 6.80987 3.81775 0.5
770 5.66778 0.0531793 12.1203 0.5
771 12.5885 1.69737 2.86506 0.5
772 13.5219 10.5859 10.1285 0.5
773 9.5497 8.02861 8.97942 0.5
774 1.3253 12.9963 4.50288 0.5
775 3.22146 2.65664 11.3149 0.5
776 13.0831 11.8789 13.5716 0.5
777 6.0559 3.73559 4.82343 0.5
778 7.45772 6.30949 7.47833 0.5
779 12.5683 3.448 9.03223 0.5
780 9.31176 11.1621 7.9009 0.5
781 8.0772 1.22145 0.791791 0.5
782 5.73854 6.75544 1.86582 0.5
783 3.51701 12.3747 9.04233 0.5
784 10.3091 2.87344 5.5545 0.5
785 10.1966 10.6355 1.28803 0.5
786 10.2456 4.7083 6.84199 0.5
787 4.43959 4.85454 7.23238 0.5
788 12.939 12.4789 3.40288 0.5
789 9.17391 3.50085 4.14875 0.5
790 1.58339 1.93982 11.8016 0.5
791 11.5803 7.94945 9.06331 0.5
792 7.70957 9.66673 0.134466 0.5
793 11.5982 8.75082 11.7401 0.5
794 11.1695 11.2262 7.67889 0.5
795 12.9971 3.00134 10.266 0.5
796 4.86288 8.92141 2.86004 0.5
797 13.2208 13.0598 12.3552 0.5
798 10.4173 7.53098 3.35744 0.5
799 3.66893 9.78476 11.0223 0.5
800 1.93051 2.93028 11.1267 0.5
801 13.1191 12.0551 12.6581 0.5
802 4.75166 13.0726 12.0969 0.5
803 6.74779 6.60007 4.55037 0.5
804 8.16861 7.59187 5.51404 0.5
805 1.18367 5.84909 4.10679 0.5
806 13.191 12.5996 11.7149 0.5
807 7.21099 11.605 6.87603 0.5
808 7.45774 2.91098 1.49864 0.5
809 11.7185 10.3647 3.61103 0.5
810 12.341 12.0902 13.0196 0.5
811 12.5349 7.47748 4.65023 0.5
812 10.3453 4.88919 4.69711 0.5
813 2.44834 4.51344 5.47702 0.5
814 0.384873 10.0509 4.58832 0.5
815 1.37958 1.7164 3.04498 0.5
816 11.5694 0.0870571 1.78967 0.5
817 13.583 2.49115 11.6785 0.5
818 13.0151 6.06732 1.51486 0.5
819 2.87301 0.130955 13.2391 0.5
820 10.2698 9.67999 12.6755 0.5
821 12.2319 4.61741 3.46496 0.5
822 12.2143 0.860335 2.41234 0.5
823 4.31546 4.17951 12.0474 0.5
824 11.9756 10.3887 3.65653 0.5
825 12.5391 7.45156 2.31646 0.5
826 12.9435 8.79158 7.38634 0.5
827 8.14427 4.3373 9.23702 0.5
828 6.45013 6.70025 2.84101 0.5
829 11.8969 11.6844 13.0506 0.5
830 8.15719 9.31751 7.69929 0.5
831 3.08283 1.817 2.0357 0.5
832 0.823443 6.56371 1.50116 0.5
833 12.8055 1.79087 2.53313 0.5
834 3.81684 5.81125 8.19979 0.5
835 10.9826 13.2042 8.88452 0.5
836 0.326806 12.1874 9.78376 0.5
837 10.3344 11.4692 8.33928 0.5
838 6.69398 1.99346 7.77464 0.5
839 11.576 11.3245 8.9656 0.5
840 1.45573 9.9672 0.339642 0.5
841 2.11967 10.985 2.40807 0.5
842 0.0976034 1.35271 5.74698 0.5
843 3.75754 2.34238 2.95127 0.5
844 2.99173 12.9249 6.06042 0.5
845 5.20997 10.1136 2.99781 0.5
846 10.4524 2.57116 7.75945 0.5
847 2.57665 13.4035 3.26583 0.5
848 3.87054 10.8136 8.44306 0.5
849 0.00771933 12.4698 6.02548 0.5
850 3.42837 6.18559 3.77299 0.5
851 11.5924 9.10965 10.3785 0.5
852 3.10513 9.7598 7.70518 0.5
853 9.07622 1.81044 3.0304 0.5
854 6.64171 2.19961 1.3362 0.5
855 7.47762 9.45028 10.6727 0.5
856 10.8128 4.24852 10.8618 0.5
857 2.8041 7.73554 7.55674 0.5
858 13.0644 9.93314 1.04445 0.5
859 8.23995 12.6728 3.69826 0.5
860 4.7174 6.423 10.901 0.5
861 5.52805 6.06004 3.83084 0.5
862 4.38514 4.65864 5.6967 0.5
863 10.9341 10.976 8.08197 0.5
864 5.83109 6.70666 1.97599 0.5
865 5.53444 0.750459 8.85487 0.5
866 3.10534 5.02101 12.3139 0.5
867 10.9517 13.4039 0.157005 0.5
868 0.512461 7.35546 7.87254 0.5
869 1.39278 3.60744 6.29986 0.5
870 0.642523 6.54754 2.445 0.5
871 2.34419 2.94541 13.2176 0.5
872 6.72941 7.42512 1.51088 0.5
873 2.80211 0.128017 2.69884 0.5
874 11.3543 11.5274 12.0536 0.5
875 5.16176 12.5535 2.5564 0.5
876 2.44901 1.74445 1.74486 0.5
877 5.1615 7.02088 5.26465 0.5
878 11.1411 13.1763 13.4054 0.5
879 0.165195 1.03869 0.419788 0.5
880 10.1325 13.5356 7.20723 0.5
881 6.42688 5.41638 2.71768 0.5
882 3.25825 8.97066 11.4206 0.5
883 10.7855 9.16725 2.58995 0.5
884 5.01939 3.57706 9.10929 0.5
885 2.20329 9.76616 5.63685 0.5
886 3.49303 13.081 11.7452 0.5
887 1.40835 6.11339 13.0802 0.5
888 0.170106 5.67995 12.4163 0.5
889 3.7493 6.11597 3.50664 0.5
890 10.8461 10.7335 9.34733 0.5
891 13.243 2.28418 10.7473 0.5
892 4.47732 7.36267 12.3249 0.5
893 10.9097 2.01719 4.79043 0.5
894 11.7542 4.938 9.79589 0.5
895 5.13452 5.39732 6.71535 0.5
896 7.29293 10.6325 3.41283 0.5
897 2.25277 3.07363 8.96049 0.5
898 2.9809 2.33991 12.42 0.5
899 9.01793 4.07808 8.75809 0.5
900 9.87066 3.41817 7.54718 0.5
901 5.61661 0.730233 4.31123 0.5
902 12.2606 12.2707 1.65137 0.5
903 4.57969 9.62742 2.57173 0.5
904 4.9989 6.96405 0.588576 0.5
905 11.2896 4.69088 3.86452 0.5
906 5.14963 3.34442 3.11265 0.5
907 6.10351 5.54446 8.99278 0.5
908 13.0994 6.05988 2.90327 0.5
909 2.80471 10.5494 0.629615 0.5
910 2.0005 1.58434 4.25791 0.5
911 6.42947 3.40395 4.56548 0.5
912 13.1136 13.1084 3.43362 0.5
913 6.41992 2.45245 13.2796 0.5
914 8.79884 2.32795 13.3114 0.5
915 11.7088 2.96842 8.03741 0.5
916 13.3769 3.73536 1.30053 0.5
917 10.7683 11.7133 6.62579 0.5
918 3.6161 5.53838 11.3659 0.5
919 3.93884 1.8548 12.2574 0.5
920 5.52073 9.93409 8.98987 0.5
921 3.24717 0.75233 1.81985 0.5
922 11.8419 7.72888 9.53683 0.5
923 9.68921 9.49677 10.3957 0.5
924 10.8964 4.60833 4.39766 0.5
925 12.4957 4.97928 1.60588 0.5
926 1.85993 11.3089 12.0654 0.5
927 6.89812 9.26752 2.98502 0.5
928 6.08663 8.01774 3.49309 0.5
929 1.62896 8.58302 12.5978 0.5
930 3.64077 9.60788 7.2132 0.5
931 13.4633 13.5398 6.46575 0.5
932 4.66924 2.85448 6.186 0.5
933 5.31947 0.138076 7.94688 0.5
934 11.7857 5.27536 11.5617 0.5
935 12.3168 8.12038 10.5273 0.5