ITEM: TIMESTEP
900000
ITEM: NUMBER OF ATOMS
1000
ITEM: BOX BOUNDS xy xz yz pp pp pp
0.0000000000000000e+00 1.3572088000000001e+01 0.0000000000000000e+00
0.0000000000000000e+00 1.3572088000000001e+01 0.0000000000000000e+00
0.0000000000000000e+00 1.3572088000000001e+01 0.0000000000000000e+00
ITEM: ATOMS id x y z radius
1 3.96993 7.95751 7.01731 0.5
2 8.05778 8.56192 2.16292 0.5
3 13.1078 4.0727 8.58632 0.5
4 0.737566 9.62718 11.0238 0.5
5 9.17708 3.39731 4.32454 0.5
6 8.60335 12.6069 7.80887 0.5
7 4.24556 9.37387 2.6699 0.5
8 1.22046 7.04265 1.29199 0.5
9 11.3825 13.0612 10.8651 0.5
10 5.03181 7.58041 10.4232 0.5
11 11.1854 4.45353 9.01212 0.5
12 13.229 11.3414 12.9155 0.5
13 6.49216 5.13432 1.07245 0.5
14 10.6754 2.95862 10.7164 0.5
15 11.607 12.7675 10.6423 0.5
16 7.72457 3.70011 8.10629 0.5
17 12.7857 4.85331 12.2635 0.5
18 2.27398 9.83596 7.2118 0.5
19 11.439 13.3825 3.52133 0.5
20 11.0707 1.66912 11.5255 0.5
21 9.24812 2.47517 9.08822 0.5
22 5.88613 3.26427 2.74628 0.5
23 5.45498 9.754 10.9561 0.5
24 10.4868 1.91033 6.16502 0.5
25 3.1115 10.8085 2.76933 0.5
26 6.48785 11.3013 3.28132 0.5
27 2.62239 12.4756 2.73974 0.5
28 0.0474149 1.08982 3.96334 0.5
29 11.2457 12.527 9.7134 0.5
30 2.57787 4.90659 6.45535 0.5
31 12.3364 5.79431 5.35904 0.5
32 13.5232 8.38603 2.99518 0.5
33 10.6913 13.2001 11.4154 0.5
34 12.2556 13.0939 8.71995 0.5
35 6.73767 6.58797 2.46046 0.5
36 2.74483 0.125411 12.6317 0.5
37 3.55858 3.07069 3.20803 0.5
38 0.612038 4.8802 0.418394 0.5
39 6.82187 5.09854 8.3093 0.5
40 11.6896 8.07724 12.7117 0.5
41 7.78949 8.89225 5.46548 0.5
42 4.07267 5.06514 12.678 0.5
43 3.74485 6.54131 3.61318 0.5
44 0.068553 8.42844 4.50086 0.5
45 8.48406 8.01214 4.21626 0.5
46 10.5947 1.02278 1.7506 0.5
47 4.10264 7.94522 6.66503 0.5
48 9.58707 11.9318 3.28778 0.5
49 1.18155 1.5078 13.13 0.5
50 9.31308 11.1672 0.686477 0.5
51 9.82938 6.56339 3.79422 0.5
52 12.3737 9.0681 10.1512 0.5
53 11.5678 9.37755 6.81678 0.5
54 11.4248 6.12403 7.55759 0.5
55 13.4836 8.27078 7.39495 0.5
56 2.6637 10.3554 12.4299 0.5
57 5.04645 13.372 4.47404 0.5
58 4.39096 9.79039 12.1374 0.5
59 6.6757 6.9733 9.66108 0.5
60 13.4652 13.5309 7.41113 0.5
61 1.36282 9.81097 7.90576 0.5
62 13.5548 2.29307 3.31246 0.5
63 1.31626 9.38457 9.72602 0.5
64 0.700829 8.88281 11.817 0.5
65 5.10148 1.72075 1.35289 0.5
66 5.52184 8.55419 8.38124 0.5
67 4.13731 6.55607 1.96377 0.5
68 2.50543 3.47584 13.2374 0.5
69 11.7763 4.6394 7.24467 0.5
70 9.13332 11.934 6.87554 0.5
71 4.09414 12.8135 1.54416 0.5
72 1.0652 8.73531 6.22502 0.5
73 4.3682 6.8389 11.0205 0.5
74 12.3643 6.17846 5.32086 0.5
75 12.5139 2.56676 12.407 0.5
76 4.18624 6.06094 11.3361 0.5
77 2.2208 4.8312 1.56003 0.5
78 1.81928 3.14971 10.7101 0.5
79 10.4219 1.20039 11.3975 0.5
80 1.17068 0.386371 4.78941 0.5
81 9.90891 3.59978 7.15537 0.5
82 8.70625 3.57698 6.3283 0.5
83 6.11936 6.50978 11.8334 0.5
84 11.0945 11.9838 1.81702 0.5
85 7.93198 12.8271 10.7958 0.5
86 5.66445 3.43022 1.45264 0.5
87 0.540149 2.47172 1.62846 0.5
88 9.92601 3.48089 8.30682 0.5
89 4.58938 5.58324 4.09992 0.5
90 11.1177 1.51858 0.89964 0.5
91 6.75029 2.49619 13.2958 0.5
92 13.4006 5.7667 1.91442 0.5
93 6.15085 3.18678 12.0301 0.5
94 10.734 2.59383 1.15979 0.5
95 3.87038 12.8852 2.79709 0.5
96 12.0331 2.88843 1.3217 0.5
97 3.78876 3.83747 10.1824 0.5
98 6.70186 10.5928 9.60862 0.5
99 8.46442 1.20335 13.0081 0.5
100 4.83399 10.526 9.81177 0.5
101 1.25605 12.784 10.4602 0.5
102 9.74761 9.87807 3.61245 0.5
103 2.56012 8.94845 7.51162 0.5
104 0.953124 13.4613 11.6004 0.5
105 9.06938 3.02239 6.31435 0.5
106 11.7911 2.64268 12.8212 0.5
107 1.54207 0.49334 2.58067 0.5
108 4.72523 5.83672 1.82749 0.5
109 13.4468 9.3376 9.51886 0.5
110 9.08428 1.52576 0.349867 0.5
111 12.0766 4.72686 10.4099 0.5
112 2.97702 2.04877 1.4961 0.5
113 1.48503 10.3487 10.4414 0.5
114 4.17865 1.60166 9.77643 0.5
115 2.82057 12.6136 6.61036 0.5
116 0.166143 5.07281 10.6249 0.5
117 13.1302 6.65695 13.4882 0.5
118 2.29791 6.21094 7.77477 0.5
119 13.4152 10.5202 0.481572 0.5
120 6.7669 9.11955 6.54066 0.5
121 7.75112 10.1284 6.87794 0.5
122 13.431 13.0529 4.89734 0.5
123 13.3241 7.45214 12.5231 0.5
124 11.069 9.42816 5.51986 0.5
125 13.1327 6.57618 8.7722 0.5
126 9.88245 12.1236 9.32481 0.5
127 1.35675 9.41141 13.1536 0.5
128 4.07514 0.448108 5.95025 0.5
129 0.547757 2.62888 7.72979 0.5
130 5.93087 3.396 11.017 0.5
131 3.91502 4.39725 8.65688 0.5
132 10.9739 2.96686 5.67248 0.5
133 11.4106 5.81789 4.21399 0.5
134 13.4728 6.22369 1.04744 0.5
135 5.94907 6.5454 3.00356 0.5
136 10.8926 9.7797 3.80185 0.5
137 8.63117 9.60208 5.14548 0.5
138 12.8526 6.40461 5.88001 0.5
139 0.266157 9.08552 10.6627 0.5
140 5.85626 1.32639 4.00872 0.5
141 0.923486 13.3183 5.28213 0.5
142 7.98858 6.07055 9.24148 0.5
143 0.247421 2.1908 5.58184 0.5
144 5.85659 6.99146 6.82241 0.5
145 12.5013 6.69135 1.82537 0.5
146 3.49381 1.97869 11.1081 0.5
147 7.25845 12.9882 8.96042 0.5
148 5.72349 2.47027 2.20323 0.5
149 4.72088 0.68551 5.80902 0.5
150 0.418693 0.987748 12.465 0.5
151 9.2938 10.5866 8.95933 0.5
152 13.0559 0.942076 8.88428 0.5
153 1.0143 6.57978 6.88921 0.5
154 2.5668 9.50415 3.09031 0.5
155 9.96469 11.9361 1.0087 0.5
156 11.5383 1.14892 4.13885 0.5
157 1.65728 12.0657 3.01869 0.5
158 0.365961 7.06011 5.08606 0.5
159 1.60319 13.4583 12.9519 0.5
160 13.4765 8.77083 10.3066 0.5
161 10.1924 12.253 4.57832 0.5
162 5.03867 12.1279 12.8803 0.5
163 11.9138 11.8298 2.19385 0.5
164 9.90371 9.9559 10.2156 0.5
165 11.1988 8.19797 3.40765 0.5
166 4.20016 9.96684 10.6817 0.5
167 0.535646 11.1944 10.4047 0.5
168 1.76153 9.41968 9.13188 0.5
169 4.9412 13.2048 0.998637 0.5
170 1.93977 1.25921 9.92252 0.5
171 11.3046 2.26619 6.38156 0.5
172 6.29867 5.55597 6.94629 0.5
173 10.0077 1.50379 6.47931 0.5
174 0.251283 5.52033 10.7043 0.5
175 9.63728 6.58139 9.27945 0.5
176 4.69497 13.0415 13.4798 0.5
177 4.04537 1.31953 6.22016 0.5
178 5.53458 5.1384 8.11971 0.5
179 5.21455 3.25484 2.00402 0.5
180 11.2665 3.04795 1.75185 0.5
181 11.5134 9.78663 10.5354 0.5
182 12.0147 3.19905 3.92883 0.5
183 10.0256 3.40358 2.76031 0.5
184 5.25715 2.86097 8.52433 0.5
185 6.71365 1.96928 7.35885 0.5
186 9.81407 5.48775 13.1411 0.5
187 5.53888 3.53317 12.8317 0.5
188 4.49449 3.95238 1.27125 0.5
189 12.5519 2.4566 3.7108 0.5
190 8.18435 1.83745 0.553991 0.5
191 8.45518 8.55035 2.9748 0.5
192 1.14402 13.1369 0.703157 0.5
193 4.94575 4.71886 8.85892 0.5
194 11.0898 13.0483 10.597 0.5
195 6.21462 6.18351 7.26429 0.5
196 2.51058 11.0212 6.59333 0.5
197 0.00461026 10.4138 5.36842 0.5
198 5.55742 10.2016 0.872156 0.5
199 10.9474 3.44909 8.9537 0.5
200 6.33811 4.96228 1.68663 0.5
201 0.746568 12.5839 8.77128 0.5
202 3.8312 13.3049 9.33361 0.5
203 3.59344 4.86999 3.3536 0.5
204 10.6774 8.61172 5.62348 0.5
205 1.35987 9.89055 12.3723 0.5
206 11.4707 9.4645 3.06577 0.5
207 11.2718 8.17258 5.87525 0.5
208 7.77553 3.11329 12.9118 0.5
209 0.521805 6.35205 7.75502 0.5
210 8.64942 8.12982 12.7795 0.5
211 0.866803 5.99313 7.69895 0.5
212 10.5542 0.822812 10.3119 0.5
213 1.36411 6.50936 9.71961 0.5
214 5.2755 9.27955 2.49129 0.5
215 3.94773 6.89973 11.5286 0.5
216 1.77157 5.55882 9.03945 0.5
217 8.77723 9.1104 13.1233 0.5
218 8.63372 11.2887 5.94585 0.5
219 0.949139 3.40561 9.20313 0.5
220 7.94669 13.0172 10.0731 0.5
221 6.39787 4.64615 10.6734 0.5
222 11.7855 6.77641 7.07757 0.5
223 4.76881 1.44933 8.08385 0.5
224 5.52161 2.76486 11.578 0.5
225 5.82997 10.4685 5.38409 0.5
226 10.0296 4.95114 2.34126 0.5
227 13.3366 3.41478 1.73441 0.5
228 2.37461 8.54107 10.9796 0.5
229 4.50328 9.20131 6.46141 0.5
230 12.9007 0.510089 11.4163 0.5
231 10.6151 7.98784 13.0326 0.5
232 7.95 6.36602 4.56039 0.5
233 11.9605 6.66164 6.43787 0.5
234 3.64951 4.3675 7.01558 0.5
235 12.5964 0.350115 4.48671 0.5
236 4.2324 13.3723 4.97523 0.5
237 13.4224 10.965 8.34192 0.5
238 10.956 0.179889 0.340737 0.5
239 5.89054 8.46677 10.9227 0.5
240 7.00758 7.60073 9.4471 0.5
241 8.52803 11.3727 0.546896 0.5
242 13.1694 2.81589 9.99591 0.5
243 5.43902 5.53713 11.7097 0.5
244 7.35853 12.567 11.8711 0.5
245 3.89163 12.087 6.83716 0.5
246 12.0941 7.24385 3.77545 0.5
247 8.05983 4.883 13.3943 0.5
248 4.94181 12.427 13.0428 0.5
249 1.70254 6.32624 10.8493 0.5
250 0.824901 10.8171 12.5394 0.5
251 9.1643 2.61374 2.44293 0.5
252 12.1828 13.3219 9.28858 0.5
253 1.94043 5.27659 6.87033 0.5
254 4.45267 11.7202 11.5226 0.5
255 8.4613 5.45876 9.89297 0.5
256 9.22614 13.057 13.2184 0.5
257 3.10627 13.0085 7.35768 0.5
258 4.0751 0.0556851 11.5997 0.5
259 13.1597 10.9569 6.68494 0.5
260 6.4841 1.48456 2.58348 0.5
261 12.8373 9.57351 10.39 0.5
262 8.96112 3.76664 4.5194 0.5
263 2.11787 2.79779 13.4562 0.5
264 11.1102 0.735797 8.03496 0.5
265 0.719757 12.8554 10.1524 0.5
266 11.4153 11.3572 4.22592 0.5
267 11.3454 1.03583 0.40559 0.5
268 4.06117 8.05313 8.21581 0.5
269 10.7631 10.136 0.105461 0.5
270 10.8367 9.38506 1.87717 0.5
271 9.96987 4.28538 10.8759 0.5
272 3.9533 2.96054 3.74423 0.5
273 12.8681 6.37081 6.63551 0.5
274 1.02491 5.84468 4.69113 0.5
275 5.18816 10.9974 7.14803 0.5
276 10.2185 2.52553 5.28556 0.5
277 2.01843 9.39567 11.3734 0.5
278 5.63894 4.80867 2.86096 0.5
279 1.89754 7.30514 12.1552 0.5
280 5.71306 10.0464 2.72985 0.5
281 1.21671 3.78898 3.5804 0.5
282 0.0114247 13.0485 0.817891 0.5
283 10.4762 5.37957 8.79495 0.5
284 0.999616 7.77146 11.9204 0.5
285 1.86194 3.50064 4.73484 0.5
286 2.67394 4.89356 13.0683 0.5
287 8.50134 11.9409 5.51827 0.5
288 7.4694 6.58087 3.41117 0.5
289 4.80151 12.4855 6.00371 0.5
290 5.59498 10.8382 11.2017 0.5
291 4.90614 9.17177 4.4579 0.5
292 11.3122 9.23355 10.2421 0.5
293 7.66579 0.415347 12.4684 0.5
294 0.107318 11.1419 0.0136116 0.5
295 6.50225 0.0605046 13.3533 0.5
296 6.52592 8.30493 13.3777 0.5
297 8.78431 3.92633 8.49324 0.5
298 10.1464 6.61426 10.6542 0.5
299 4.96971 0.120849 0.0042345 0.5
300 2.06536 12.7944 13.0772 0.5
301 1.63562 11.7248 0.294352 0.5
302 8.38149 6.58295 12.6958 0.5
303 2.52769 8.91212 5.41822 0.5
304 2.72953 5.56328 8.5893 0.5
305 2.13795 7.40844 11.6062 0.5
306 1.50276 2.58829 7.30888 0.5
307 1.07278 12.9446 10.9009 0.5
308 12.0043 8.63141 11.6122 0.5
309 12.68 3.25642 0.00259619 0.5
310 2.94249 11.6574 7.39639 0.5
311 6.23164 0.104982 13.1284 0.5
312 11.7088 5.26069 8.83023 0.5
313 0.0920079 1.81816 8.30672 0.5
314 1.706 3.97385 2.27295 0.5
315 1.56177 0.807736 13.0343 0.5
316 7.44083 13.138 0.0472926 0.5
317 6.65188 11.7927 12.6343 0.5
318 11.7361 8.82386 6.06478 0.5
319 2.20121 11.5426 9.4535 0.5
320 0.996523 13.0047 12.4983 0.5
321 8.53149 11.6921 11.8636 0.5
322 4.4686 9.74727 7.88031 0.5
323 3.38256 2.53467 0.921822 0.5
324 0.538904 4.20917 1.45062 0.5
325 10.5723 4.87581 13.0806 0.5
326 10.9742 0.0350975 10.4199 0.5
327 6.50535 8.32198 11.9425 0.5
328 1.75608 3.58665 10.5272 0.5
329 6.09107 2.22007 5.21287 0.5
330 12.0471 12.334 3.54196 0.5
331 2.23496 13.437 8.41001 0.5
332 4.50864 10.587 4.58635 0.5
333 4.92867 7.98981 10.2317 0.5
334 3.57498 12.2788 7.49561 0.5
335 12.2641 7.86703 2.23984 0.5
336 7.08073 12.199 7.39745 0.5
337 1.40816 5.80475 11.8703 0.5
338 11.4331 13.0275 12.5162 0.5
339 7.104 2.57797 3.7974 0.5
340 13.0784 11.7598 4.45974 0.5
341 5.66509 3.84845 9.25719 0.5
342 4.63246 3.78348 9.43212 0.5
343 0.141804 12.659 4.38026 0.5
344 11.8607 12.4237 0.317341 0.5
345 4.95441 6.53277 6.63167 0.5
346 1.12672 6.96465 8.21612 0.5
347 6.67431 4.5962 4.97855 0.5
348 4.31036 2.86213 10.5347 0.5
349 2.38376 12.7471 7.55262 0.5
350 1.21009 12.0731 7.7891 0.5
351 7.4328 5.40434 9.03373 0.5
352 13.1259 5.40536 7.61401 0.5
353 9.2562 7.80872 11.4713 0.5
354 9.53975 2.15349 9.57669 0.5
355 5.78874 3.55451 10.515 0.5
356 1.00723 7.24328 10.3048 0.5
357 5.37282 2.5071 5.92041 0.5
358 0.877986 7.84302 5.93479 0.5
359 5.92342 4.01039 7.1852 0.5
360 7.7048 2.66401 10.1347 0.5
361 7.17612 8.18177 9.04306 0.5
362 0.930167 0.569662 1.16353 0.5
363 2.19018 11.7467 0.856099 0.5
364 12.0461 1.297 10.3048 0.5
365 8.64455 5.13022 13.0342 0.5
366 5.53287 0.444047 13.4152 0.5
367 0.638244 11.7004 6.20392 0.5
368 1.4445 5.91681 9.1796 0.5
369 11.9818 1.05114 4.84781 0.5
370 13.0877 5.40181 0.928376 0.5
371 13.0514 1.40655 8.30217 0.5
372 8.22876 3.75414 8.67224 0.5
373 10.2484 12.1992 7.77505 0.5
374 9.15724 3.03763 8.74696 0.5
375 12.5636 3.68502 10.1626 0.5
376 1.51257 12.6382 13.2021 0.5
377 3.13129 2.83427 5.20584 0.5
378 1.54282 5.07874 1.95794 0.5
379 3.62604 1.37233 6.36319 0.5
380 0.241847 7.64275 11.6795 0.5
381 0.337449 6.22152 11.6946 0.5
382 10.0161 6.87342 3.38223 0.5
383 5.96446 8.52182 5.18092 0.5
384 11.8909 8.5602 12.519 0.5
385 12.732 3.30537 12.842 0.5
386 13.3912 4.12168 8.15965 0.5
387 8.95175 11.8684 7.90126 0.5
388 12.1233 10.2532 11.6586 0.5
389 7.03709 12.7792 6.93433 0.5
390 5.20315 7.32513 0.203211 0.5
391 1.92373 0.651679 1.65802 0.5
392 0.642054 5.80813 3.58464 0.5
393 13.2027 11.5154 11.4348 0.5
394 11.6506 3.08707 3.97668 0.5
395 4.80022 6.54385 8.68151 0.5
396 6.27858 9.73523 6.95198 0.5
397 11.4649 12.3971 7.67418 0.5
398 10.4827 5.77461 13.1407 0.5
399 10.121 3.85668 3.54244 0.5
400 8.48431 10.3139 0.314587 0.5
401 6.72162 12.3554 1.94411 0.5
402 11.0347 10.9927 4.64768 0.5
403 0.587127 10.7497 0.339156 0.5
404 3.5347 4.56308 0.706112 0.5
405 3.87747 13.1042 3.21327 0.5
406 13.4207 1.76224 11.1009 0.5
407 0.471448 3.08417 1.87864 0.5
408 8.49179 0.112423 12.3983 0.5
409 11.7537 12.472 4.48455 0.5
410 1.83397 1.45509 0.604921 0.5
411 3.29037 6.53962 2.62352 0.5
412 1.64626 11.0663 2.39142 0.5
413 12.4972 10.6166 9.61352 0.5
414 3.32757 13.4569 5.68199 0.5
415 11.1142 11.7585 10.7043 0.5
416 1.33331 10.2437 8.78825 0.5
417 3.83108 8.57704 11.4513 0.5
418 6.69925 6.07619 10.9643 0.5
419 6.58661 10.867 6.47854 0.5
420 11.0465 12.8652 5.97169 0.5
421 7.63211 2.03924 9.84872 0.5
422 1.08088 1.42108 8.82307 0.5
423 12.7486 4.81913 8.63467 0.5
424 12.5802 4.29986 4.63075 0.5
425 3.6201 12.9133 3.56965 0.5
426 6.92055 9.02582 0.355279 0.5
427 1.99668 0.226713 10.6703 0.5
428 11.6464 6.85373 4.00246 0.5
429 1.76991 6.3587 12.0236 0.5
430 0.774111 3.23416 10.6596 0.5
431 2.57955 3.82325 8.5808 0.5
432 5.8272 5.24472 4.70025 0.5
433 2.73152 7.1319 12.6083 0.5
434 0.982278 13.3745 1.45872 0.5
435 1.80066 7.79954 10.7393 0.5
436 1.37107 13.0149 10.5918 0.5
437 2.97704 4.63796 6.97513 0.5
438 1.62297 8.04418 9.17347 0.5
439 7.64229 3.64647 10.3956 0.5
440 13.1005 11.0316 3.36707 0.5
441 6.27558 3.89567 6.24869 0.5
442 3.98186 2.21271 9.93962 0.5
443 4.10922 5.00161 1.27295 0.5
444 7.18426 7.83782 3.77405 0.5
445 1.30247 12.5576 0.174293 0.5
446 5.02621 10.2571 8.85277 0.5
447 7.36728 4.98589 2.00199 0.5
448 7.91778 10.3493 9.50434 0.5
449 4.36491 3.3693 0.339 0.5
450 11.4255 8.67001 3.55953 0.5
451 10.6295 3.87655 11.1673 0.5
452 4.66713 11.8887 4.54276 0.5
453 2.39251 11.7097 0.100541 0.5
454 10.4801 7.11197 3.30471 0.5
455 3.74248 3.77993 0.967904 0.5
456 13.3268 3.49436 10.7586 0.5
457 5.21413 4.16134 4.8419 0.5
458 0.486176 11.6604 3.85277 0.5
459 8.22799 7.06745 9.34872 0.5
460 7.25102 8.78802 6.19935 0.5
461 2.92627 3.09945 10.6942 0.5
462 6.73957 2.37173 3.92142 0.5
463 3.65987 4.24712 9.98379 0.5
464 12.9202 10.6073 12.6864 0.5
465 3.03498 3.98546 12.4751 0.5
466 0.805691 11.7517 2.05242 0.5
467 2.98519 3.62127 6.88922 0.5
468 1.86365 13.2977 5.88405 0.5
469 13.5713 2.18269 8.7334 0.5
470 0.745696 7.16766 3.54508 0.5
471 13.312 10.4264 1.50989 0.5
472 2.62099 10.1764 9.86526 0.5
473 1.92946 9.7605 9.78722 0.5
474 7.41202 10.4835 1.19471 0.5
475 11.1825 8.50726 7.8969 0.5
476 11.6207 12.396 12.3671 0.5
477 7.31857 3.06795 3.11474 0.5
478 10.1939 5.05852 11.0167 0.5
479 8.34647 7.50189 1.78175 0.5
480 8.86354 7.50113 11.2369 0.5
481 4.04524 2.21909 10.9067 0.5
482 4.59923 6.03561 5.22304 0.5
483 7.4359 11.1133 8.93671 0.5
484 5.29173 8.83234 13.4748 0.5
485 3.77193 11.7927 8.3871 0.5
486 1.91613 4.29647 1.41554 0.5
487 5.92723 8.96023 10.7064 0.5
488 13.2173 9.81119 2.30072 0.5
489 3.6875 13.571 11.2141 0.5
490 11.874 8.61537 9.97329 0.5
491 10.5496 3.58271 10.4909 0.5
492 4.38525 0.868376 7.29655 0.5
493 4.41033 6.3081 6.13334 0.5
494 4.5755 3.24725 8.55672 0.5
495 10.2628 10.421 11.706 0.5
496 4.23253 8.14665 10.3118 0.5
497 5.88515 10.7222 7.72553 0.5
498 12.7594 3.54832 3.0179 0.5
499 13.4536 4.24851 2.28123 0.5
500 9.46018 8.4391 4.8373 0.5
501 7.00001 3.9795 10.0481 0.5
502 13.2024 5.42263 9.5021 0.5
503 3.10663 9.21027 8.19312 0.5
504 12.212 2.29092 1.62856 0.5
505 4.80959 11.8521 1.28075 0.5
506 13.4093 13.4793 10.3112 0.5
507 3.06596 11.8125 3.85456 0.5
508 11.5345 4.32867 13.1099 0.5
509 2.55214 11.3215 5.90256 0.5
510 0.506742 3.45404 0.731643 0.5
511 1.3993 12.1532 2.47213 0.5
512 10.1154 5.47562 6.33583 0.5
513 2.4744 1.90664 9.25732 0.5
514 2.56986 13.4005 11.287 0.5
515 12.7391 0.152494 10.8262 0.5
516 1.10209 2.17445 0.840395 0.5
517 8.41035 3.1923 12.8875 0.5
518 10.9472 9.18316 1.32948 0.5
519 12.3293 1.8061 11.4569 0.5
520 3.49813 3.08114 2.0644 0.5
521 2.36526 2.8207 0.622355 0.5
522 1.74254 11.6861 9.40084 0.5
523 3.54246 6.9397 4.30668 0.5
524 9.5636 1.64721 4.84556 0.5
525 1.18643 13.2812 1.67757 0.5
526 13.0037 13.0636 9.295 0.5
527 9.75324 10.8211 13.233 0.5
528 8.22964 5.49727 7.93301 0.5
529 12.3828 7.63741 7.42002 0.5
530 7.46638 8.47974 11.3524 0.5
531 8.24279 9.5748 0.581386 0.5
532 13.3298 5.34065 9.50536 0.5
533 3.99044 5.61505 9.44578 0.5
534 3.10896 10.5416 1.6925 0.5
535 0.869159 11.2038 11.675 0.5
536 13.194 1.63665 0.211592 0.5
537 6.55225 5.39543 10.3976 0.5
538 9.28423 3.83819 2.77215 0.5
539 12.4877 0.240219 12.1921 0.5
540 1.67013 6.8173 13.2216 0.5
541 5.93521 0.135446 11.798 0.5
542 0.855373 4.95576 2.22841 0.5
543 12.8441 6.51528 2.63223 0.5
544 6.38452 9.01273 5.56876 0.5
545 0.912086 11.6967 6.90472 0.5
546 12.312 10.3183 1.97192 0.5
547 4.0142 8.42522 8.57303 0.5
548 0.0142206 4.30439 2.06367 0.5
549 6.49449 7.45536 7.01499 0.5
550 3.24768 9.57993 0.295193 0.5
551 7.25738 9.06225 0.39791 0.5
552 7.51135 9.16918 5.60426 0.5
553 8.3638 7.83704 1.75963 0.5
554 0.371379 3.23477 13.5685 0.5
555 11.695 6.83616 3.27387 0.5
556 7.08021 12.1094 11.3254 0.5
557 9.57495 12.5057 6.89133 0.5
558 8.36599 11.9985 7.9509 0.5
559 9.06492 1.68531 12.245 0.5
560 5.69827 4.25799 0.529216 0.5
561 5.3921 1.14072 2.07217 0.5
562 5.94498 2.01272 8.95367 0.5
563 3.1361 6.24438 11.6821 0.5
564 0.327663 6.50365 4.97156 0.5
565 13.0448 4.7019 6.4906 0.5
566 3.79467 7.16309 6.94521 0.5
567 7.30546 4.31124 1.34196 0.5
568 2.85915 12.7199 8.51192 0.5
569 4.83628 12.2263 1.35511 0.5
570 12.8957 11.4701 12.7501 0.5
571 11.7334 10.1577 2.9888 0.5
572 1.474 5.81772 5.13571 0.5
573 6.33667 1.37422 13.307 0.5
574 3.65056 10.3779 10.8723 0.5
575 9.46722 3.39384 7.6078 0.5
576 7.61404 9.28958 1.84591 0.5
577 2.83454 8.22647 12.9998 0.5
578 2.08735 6.12018 12.4565 0.5
579 0.150581 9.77709 12.0003 0.5
580 1.89903 11.4642 8.71036 0.5
581 7.66363 10.3176 11.2767 0.5
582 1.77113 9.19969 1.26694 0.5
583 6.15059 11.7219 13.3926 0.5
584 5.06369 7.26493 12.4853 0.5
585 10.8193 2.11561 4.11757 0.5
586 13.4283 12.3541 9.66938 0.5
587 11.9346 6.0684 8.41551 0.5
588 3.59023 8.6635 0.340738 0.5
589 5.25175 11.3422 3.43998 0.5
590 4.79686 5.22769 1.14606 0.5
591 2.21341 11.6236 2.36982 0.5
592 9.93081 6.53504 3.40418 0.5
593 7.1853 1.24277 9.1062 0.5
594 1.2318 6.24986 5.61698 0.5
595 2.70238 9.53924 8.25112 0.5
596 1.55798 12.2574 6.88941 0.5
597 8.35907 11.6667 11.6753 0.5
598 1.26768 11.2076 10.7862 0.5
599 12.5686 8.67551 8.62446 0.5
600 3.56067 3.57226 6.94789 0.5
601 12.4638 1.34929 0.346209 0.5
602 2.15526 5.43834 8.87995 0.5
603 0.65801 11.0771 9.83868 0.5
604 1.75316 8.38949 7.39225 0.5
605 4.23322 8.17353 4.97626 0.5
606 7.54284 5.36821 8.40975 0.5
607 3.01689 8.61015 6.02562 0.5
608 13.3017 0.160306 12.333 0.5
609 3.34926 1.15537 9.24245 0.5
610 8.55085 5.26278 3.75835 0.5
611 10.0197 1.85928 2.07632 0.5
612 8.51051 9.91012 9.91452 0.5
613 4.61734 2.60498 12.5517 0.5
614 1.62356 3.62011 13.433 0.5
615 6.47745 3.20108 6.39669 0.5
616 7.22836 5.03614 1.11291 0.5
617 3.02422 4.86856 0.665379 0.5
618 0.646026 1.90409 4.36708 0.5
619 5.94517 12.7333 4.29213 0.5
620 9.27559 2.17024 4.6111 0.5
621 13.4758 2.7508 11.3431 0.5
622 4.44093 9.73074 5.74303 0.5
623 9.5997 9.44732 3.521 0.5
624 11.3429 12.9607 12.8475 0.5
625 0.539795 3.9033 9.1012 0.5
626 13.1104 5.79113 4.85508 0.5
627 6.2942 5.21292 0.499448 0.5
628 13.0189 1.0682 12.9006 0.5
629 4.58938 10.0956 0.923419 0.5
630 6.1208 10.8087 1.65007 0.5
631 3.38239 8.9923 10.9794 0.5
632 6.90167 1.33539 8.89091 0.5
633 1.9009 9.00487 12.354 0.5
634 8.92577 3.15655 8.28159 0.5
635 6.40722 4.80486 12.0056 0.5
636 4.39403 6.47129 8.29801 0.5
637 9.92615 7.73574 4.36093 0.5
638 11.4362 10.2875 6.88828 0.5
639 12.179 12.5428 0.983656 0.5
640 10.2773 2.20259 2.17894 0.5
641 12.385 1.86957 5.83773 0.5
642 7.00793 10.5293 13.126 0.5
643 12.1841 1.11047 10.3354 0.5
644 6.08069 3.06822 0.541351 0.5
645 10.2816 0.820514 6.38646 0.5
646 0.183601 1.18057 3.21869 0.5
647 12.5798 6.756 8.7594 0.5
648 2.50374 6.79009 10.7063 0.5
649 3.37398 10.0295 1.80052 0.5
650 8.78738 6.65348 1.60375 0.5
651 3.51505 9.81807 6.2165 0.5
652 2.42802 2.87598 7.66512 0.5
653 4.39385 8.28619 3.52675 0.5
654 5.96978 5.15731 5.23074 0.5
655 12.594 5.98246 13.5692 0.5
656 8.77042 5.77395 12.7246 0.5
657 8.96682 5.72364 7.92479 0.5
658 5.44877 13.0015 1.82002 0.5
659 2.12582 0.660196 0.720961 0.5
660 6.74279 4.95526 3.63175 0.5
661 12.989 5.77169 2.93571 0.5
662 12.6321 8.19824 1.48254 0.5
663 1.82117 9.87754 6.34645 0.5
664 10.0354 2.94393 5.32047 0.5
665 12.2904 0.0490232 3.79069 0.5
666 3.21727 7.03569 11.5519 0.5
667 10.259 1.16673 4.97992 0.5
668 8.22341 13.3438 0.0824918 0.5
669 6.33421 0.797207 5.54861 0.5
670 3.08982 1.39087 12.5519 0.5
671 0.0330353 4.953 0.683545 0.5
672 9.25226 5.15061 9.56085 0.5
673 5.89257 9.54593 9.65806 0.5
674 10.4227 1.41228 13.4866 0.5
675 9.60412 9.65098 9.6374 0.5
676 12.6915 4.35832 4.73578 0.5
677 7.4368 0.974044 10.4531 0.5
678 9.44838 6.46537 6.58351 0.5
679 3.79299 9.63493 11.7008 0.5
680 12.6395 10.5292 8.42777 0.5
681 12.6076 12.9103 4.2284 0.5
682 0.236469 5.35544 2.85805 0.5
683 11.7874 13.2211 9.07272 0.5
684 10.8747 5.60233 3.12603 0.5
685 1.42778 3.77724 11.4726 0.5
686 1.5057 6.46381 1.56635 0.5
687 10.2689 3.55771 4.34982 0.5
688 4.07706 11.2161 10.771 0.5
689 10.2055 4.6868 8.87538 0.5
690 0.896643 3.0666 6.6685 0.5
691 1.48449 0.84301 11.6442 0.5
692 12.3292 4.1527 2.52259 0.5
693 12.8701 3.65637 2.2173 0.5
694 9.7104 12.7821 2.44238 0.5
695 12.7247 13.4305 5.71632 0.5
696 1.14368 5.33695 2.50869 0.5
697 11.1021 2.10624 4.39235 0.5
698 4.22403 4.36441 6.38376 0.5
699 2.42093 8.48554 3.74636 0.5
700 11.1924 5.64336 0.401633 0.5
701 5.31132 1.40837 7.43888 0.5
702 3.50892 1.59316 10.5821 0.5
703 1.7133 0.857777 8.35646 0.5
704 5.64298 8.22378 0.886085 0.5
705 11.6593 12.5613 12.9572 0.5
706 12.1019 0.953407 1.68736 0.5
707 13.2686 12.7726 5.78488 0.5
708 2.42593 2.93398 6.65866 0.5
709 7.77693 7.8293 7.70034 0.5
710 3.64209 5.6772 0.948379 0.5
711 8.26247 11.8312 5.0025 0.5
712 10.869 1.72504 12.2047 0.5
713 13.099 3.74861 8.80167 0.5
714 10.7505 6.38012 3.90897 0.5
715 11.9209 1.02881 10.9628 0.5
716 7.71955 7.27867 3.03842 0.5
717 4.76333 5.28981 1.85825 0.5
718 8.90039 6.82456 11.4476 0.5
719 9.33135 7.31589 0.685678 0.5
720 1.97878 1.97934 2.40839 0.5
721 0.933655 7.12048 2.26465 0.5
722 2.90335 6.45015 5.28018 0.5
723 11.1975 3.93621 13.4631 0.5
724 2.34561 5.46682 6.54604 0.5
725 2.62417 11.4385 12.3471 0.5
726 1.34226 2.87886 1.73307 0.5
727 8.65857 13.3807 10.6256 0.5
728 12.9 3.46205 1.27115 0.5
729 7.72608 7.90672 10.5089 0.5
730 12.4689 7.46918 11.3174 0.5
731 6.4301 12.4913 11.3525 0.5
732 3.69989 10.0992 12.4068 0.5
733 7.54699 0.323791 12.8853 0.5
734 11.6611 11.4071 4.26608 0.5
735 3.11144 10.9746 4.18997 0.5
736 6.95793 9.36552 8.36963 0.5
737 1.51781 9.22049 1.29069 0.5
738 7.19212 10.9972 12.4992 0.5
739 13.0888 7.48274 11.4279 0.5
740 1.33409 9.4229 11.9354 0.5
741 4.05719 2.7815 10.7363 0.5
742 4.80582 0.889336 2.17324 0.5
743 1.03214 2.7488 1.87942 0.5
744 4.12858 0.379008 12.6903 0.5
745 5.18087 6.33323 4.59184 0.5
746 7.5578 3.56551 5.80643 0.5
747 11.6811 7.62724 2.63799 0.5
748 0.321589 13.3289 13.1418 0.5
749 9.76068 8.29652 13.0824 0.5
750 10.0754 9.41979 3.2954 0.5
751 4.09744 0.940562 10.8509 0.5
752 9.24559 0.949809 5.1149 0.5
753 10.9953 3.27406 3.38065 0.5
754 12.9773 10.5068 4.93283 0.5
755 8.47423 13.072 2.53189 0.5
756 3.22382 12.4453 11.7254 0.5
757 11.4115 11.5923 11.0816 0.5
758 2.84243 3.24136 5.41627 0.5
759 3.89721 9.708 6.2712 0.5
760 2.19481 3.09548 5.82212 0.5
761 11.6422 12.001 5.70026 0.5
762 12.8981 0.670013 12.4703 0.5
763 11.5254 4.63773 8.16611 0.5
764 10.9829 7.26774 10.9766 0.5
765 6.45622 1.68751 1.77417 0.5
766 13.0767 12.4793 3.76047 0.5
767 2.25314 11.8904 7.22712 0.5
768 9.99483 12.4886 4.04779 0.5
769 1.31611 11.9441 1.31704 0.5
770 3.68208 10.9699 6.75701 0.5
771 8.78822 12.8858 8.66654 0.5
772 3.7683 2.96306 7.69999 0.5
773 2.16655 9.81668 3.69858 0.5
774 4.03526 6.1146 12.6124 0.5
775 4.13189 12.2523 6.08495 0.5
776 3.03827 12.4083 9.73658 0.5
777 13.2947 0.743991 11.2608 0.5
778 7.06932 2.73134 1.98254 0.5
779 8.35032 2.46154 9.34302 0.5
780 9.53132 6.98254 3.35233 0.5
781 1.5235 3.85758 0.832242 0.5
782 1.49915 1.03451 10.9573 0.5
783 11.906 9.51198 0.0387401 0.5
784 12.2587 7.35969 11.2023 0.5
785 1.04025 0.793118 5.93587 0.5
786 7.54923 8.92687 7.85498 0.5
787 1.4416 11.4888 4.12011 0.5
788 3.02807 9.14022 0.109571 0.5
789 10.8826 12.8062 4.29843 0.5
790 0.961246 11.3343 6.34427 0.5
791 4.20407 3.20019 1.47549 0.5
792 2.83131 7.35431 4.0076 0.5
793 5.45047 10.0775 6.29884 0.5
794 11.0882 12.2393 13.184 0.5
795 11.6312 4.73948 6.73849 0.5
796 10.2587 2.05185 4.12606 0.5
797 7.83579 6.76208 2.08981 0.5
798 8.54985 4.00722 9.01998 0.5
799 7.82806 12.5294 12.9309 0.5
800 7.10551 7.51405 4.6134 0.5
801 5.36122 8.87277 6.73861 0.5
802 8.92137 10.5754 11.1972 0.5
803 1.82058 11.4907 1.75265 0.5
804 11.3669 11.8434 11.2558 0.5
805 9.51719 11.9291 1.12512 0.5
806 3.13268 2.74313 7.46309 0.5
807 1.66881 0.170097 5.86905 0.5
808 5.19027 2.92072 0.806063 0.5
809 12.3004 2.39215 12.9838 0.5
810 9.38849 11.1355 1.07012 0.5
811 13.1528 6.58355 0.291541 0.5
812 10.1729 0.589517 6.01562 0.5
813 11.6821 10.6341 0.734273 0.5
814 2.70564 6.10462 10.6164 0.5
815 10.5068 5.79887 2.04947 0.5
816 5.68514 11.119 10.7936 0.5
817 7.05033 4.9005 2.29123 0.5
818 11.8737 6.15395 12.3252 0.5
819 10.9802 10.3879 5.8854 0.5
820 3.52322 12.9217 9.03626 0.5
821 9.40641 12.4032 9.60646 0.5
822 0.942041 9.31972 8.6331 0.5
823 11.2849 4.18468 9.03793 0.5
824 1.76048 10.2142 11.7687 0.5
825 0.596989 9.1489 5.64103 0.5
826 13.3463 8.67985 0.758581 0.5
827 2.45902 4.78147 4.05471 0.5
828 9.01583 0.32736 8.24677 0.5
829 9.81256 5.48052 1.88448 0.5
830 11.1846 4.09804 5.89284 0.5
831 3.80319 9.19154 2.77304 0.5
832 1.52 9.52766 2.70773 0.5
833 0.704066 7.2485 5.52373 0.5
834 3.37074 12.3666 2.0018 0.5
835 8.11171 2.71542 5.45388 0.5
836 1.93028 6.10021 9.17943 0.5
837 1.96509 6.75784 0.723674 0.5
838 8.75003 12.5776 0.939045 0.5
839 8.59245 2.0894 4.87373 0.5
840 0.0247788 12.5129 2.31355 0.5
841 9.3369 9.80916 5.3086 0.5
842 5.32555 6.13632 12.6055 0.5
843 4.31352 11.863 0.340093 0.5
844 5.85717 0.998452 12.3908 0.5
845 9.35375 7.7008 10.6556 0.5
846 12.0526 2.49355 1.2562 0.5
847 2.30755 12.8931 1.91372 0.5
848 0.709609 5.21252 13.4862 0.5
849 7.62011 1.17839 4.74459 0.5
850 13.0674 6.56587 12.146 0.5
851 2.19559 12.9057 1.88031 0.5
852 11.4387 1.92267 11.9116 0.5
853 7.02611 0.155889 2.92866 0.5
854 6.07459 6.49404 12.9419 0.5
855 4.72533 7.7066 10.7708 0.5
856 6.89177 3.83537 2.76247 0.5
857 0.267468 11.8877 2.48133 0.5
858 9.46473 1.2636 8.07067 0.5
859 5.57636 6.81745 4.31323 0.5
860 11.1284 0.95214 9.91353 0.5
861 8.42921 3.66715 9.44705 0.5
862 7.2427 7.19837 8.09868 0.5
863 1.61207 7.99413 8.42989 0.5
864 7.73046 0.0194222 3.6502 0.5
865 8.14541 3.37732 3.93981 0.5
866 6.64862 0.711979 10.7814 0.5
867 6.17225 7.95472 0.611068 0.5
868 1.34431 8.48331 5.79424 0.5
869 11.0231 11.7596 13.0372 0.5
870 5.64701 8.17988 0.237304 0.5
871 6.68277 8.94136 9.72612 0.5
872 5.97448 11.6278 11.0105 0.5
873 7.54811 10.4022 6.9833 0.5
874 0.612856 1.4792 6.03614 0.5
875 10.9013 11.5012 1.66437 0.5
876 0.0885756 0.277252 9.42935 0.5
877 9.79269 6.30524 3.42035 0.5
878 0.780162 10.7141 3.59392 0.5
879 0.658535 5.46928 1.2353 0.5
880 8.81149 5.44886 1.53404 0.5
881 13.1436 9.05118 12.8856 0.5
882 6.57627 12.778 7.15627 0.5
883 5.88051 1.88992 12.4794 0.5
884 2.08307 0.78541 4.87187 0.5
885 13.2454 4.94383 10.1349 0.5
886 7.57036 0.705628 7.98283 0.5
887 5.52916 12.548 8.92186 0.5
888 8.11948 13.2095 5.44402 0.5
889 10.722 8.69248 3.21622 0.5
890 5.11559 0.11979 12.4369 0.5
891 11.3466 2.73702 2.10695 0.5
892 9.64072 7.07655 3.96959 0.5
893 5.18867 11.7317 1.3877 0.5
894 3.78377 1.74336 10.8905 0.5
895 1.01866 11.1057 13.5134 0.5
896 9.8619 3.4043 9.94673 0.5
897 6.92067 9.87924 12.3188 0.5
898 8.13383 5.75681 4.63001 0.5
899 7.40484 8.45353 9.74272 0.5
900 9.46106 8.38291 9.37333 0.5
901 1.66076 10.7082 8.55479 0.5
902 11.6438 6.81654 3.74482 0.5
903 7.31112 3.3221 0.432114 0.5
904 8.8416 6.71394 2.54769 0.5
905 10.5973 3.68567 10.8225 0.5
906 12.2156 8.36049 7.50433 0.5
907 4.97908 3.17552 12.468 0.5
908 12.7454 1.71439 1.08125 0.5
909 4.49915 6.98396 11.058 0.5
910 0.771224 3.55734 12.3537 0.5
911 8.93154 12.1921 7.73421 0.5
912 1.12967 0.36362 13.088 0.5
913 12.2685 1.35322 8.52649 0.5
914 12.5821 6.01377 3.90499 0.5
915 13.3183 6.19411 9.98263 0.5
916 11.0189 7.41902 8.86811 0.5
917 0.865301 7.0082 6.03476 0.5
918 8.31221 1.67113 5.41928 0.5
919 12.1184 1.58852 6.02796 0.5
920 4.98761 1.3072 2.61352 0.5
921 0.651288 12.0399 9.9271 0.5
922 1.91017 7.81936 0.308872 0.5
923 0.324938 11.131 9.88792 0.5
924 11.0286 10.5406 0.365289 0.5
925 13.3932 4.89604 2.25834 0.5
926 5.41381 9.51679 0.409221 0.5
927 10.4513 8.1057 2.13435 0.5
928 1.98867 11.1012 8.1141 0.5
929 7.12899 2.80611 2.01644 0.5
930 6.68727 12.3339 5.55238 0.5
931 1.32483 6.03239 7.545 0.5
932 3.58827 6.30034 11.4532 0.5
933 0.946869 3.25386 9.03948 0.5