ITEM: TIMESTEP
230000
ITEM: NUMBER OF ATOMS
1000
ITEM: BOX BOUNDS xy xz yz pp pp pp
0.0000000000000000e+00 1.3572088000000001e+01 0.0000000000000000e+00
0.0000000000000000e+00 1.3572088000000001e+01 0.0000000000000000e+00
0.0000000000000000e+00 1.3572088000000001e+01 0.0000000000000000e+00
ITEM: ATOMS id x y z radius
1 9.52665 2.17031 1.24701 0.5
2 6.6477 8.0474 2.63635 0.5
3 3.406 10.7463 0.803579 0.5
4 0.278604 10.0868 12.5025 0.5
5 2.74482 4.70645 10.9226 0.5
6 3.2568 0.851107 13.0991 0.5
7 3.12614 6.12103 9.54169 0.5
8 10.9693 4.13033 2.79109 0.5
9 9.39757 9.75097 10.2963 0.5
10 7.05181 7.16878 7.08359 0.5
11 13.0916 11.3737 9.07335 0.5
12 4.31004 6.01478 9.31603 0.5
13 9.79113 0.141122 11.19 0.5
14 9.11251 12.6932 11.1589 0.5
15 2.19706 0.264272 10.086 0.5
16 2.72096 3.89117 8.21557 0.5
17 9.93705 13.5109 8.55874 0.5
18 8.82789 8.61384 11.9776 0.5
19 12.8696 7.28717 1.73624 0.5
20 10.3295 10.3352 8.44209 0.5
21 0.517693 1.54242 12.05 0.5
22 4.76459 1.90918 11.3254 0.5
23 7.93322 0.905167 6.17468 0.5
24 3.13074 3.58039 4.59974 0.5
25 11.3113 9.69135 4.2676 0.5
26 8.87198 3.83916 0.0171879 0.5
27 12.1956 8.29695 7.32421 0.5
28 2.93676 8.74618 13.1934 0.5
29 8.68479 9.83757 10.7134 0.5
30 10.2915 6.31625 4.7076 0.5
31 11.3774 5.45207 11.7843 0.5
32 3.71715 3.97486 7.01446 0.5
33 3.87834 7.78903 0.480098 0.5
34 5.37931 1.76833 2.53725 0.5
35 3.61189 10.4543 7.11813 0.5
36 11.0126 10.7334 0.514056 0.5
37 11.9469 11.628 6.44043 0.5
38 6.05791 0.267132 6.07508 0.5
39 6.36158 6.42481 8.62764 0.5
40 0.619413 0.7659 6.03212 0.5
41 12.4394 7.18997 7.77192 0.5
42 9.74262 9.828 11.9754 0.5
43 3.25467 7.18353 6.03767 0.5
44 1.54607 5.15836 8.91306 0.5
45 4.97298 4.1913 11.1888 0.5
46 8.53235 3.2397 13.4861 0.5
47 12.5484 2.38459 9.96699 0.5
48 11.2304 6.04034 3.83655 0.5
49 9.03176 8.04848 1.60865 0.5
50 3.49933 12.136 9.6367 0.5
51 13.3623 2.86993 13.3071 0.5
52 5.65561 0.948625 7.13387 0.5
53 8.53578 11.2159 8.44845 0.5
54 7.00027 3.29842 8.97227 0.5
55 7.54238 0.882667 9.96737 0.5
56 12.2298 6.47711 3.02442 0.5
57 7.61451 5.80394 2.77252 0.5
58 3.86179 6.07238 2.16993 0.5
59 8.06571 7.69022 7.29342 0.5
60 2.98195 12.0108 1.63685 0.5
61 0.237299 3.88502 5.25745 0.5
62 3.7274 11.3515 9.8717 0.5
63 7.74869 4.24201 7.36878 0.5
64 2.62741 0.543478 13.2165 0.5
65 6.96414 12.954 8.75143 0.5
66 7.51105 12.5546 13.1529 0.5
67 6.56448 12.8226 6.28577 0.5
68 11.3326 8.65057 8.84034 0.5
69 4.20491 0.55128 12.7231 0.5
70 5.3571 4.05067 11.4275 0.5
71 8.06908 7.7433 6.15191 0.5
72 2.49741 10.2824 1.81654 0.5
73 13.2101 9.83683 9.62205 0.5
74 8.84252 7.86255 12.2367 0.5
75 7.18725 11.8496 7.06417 0.5
76 10.7352 9.94857 1.66315 0.5
77 7.54491 4.94513 2.58234 0.5
78 8.73944 10.0391 9.8999 0.5
79 2.96316 9.58063 1.76194 0.5
80 9.27784 1.67286 11.8494 0.5
81 8.98957 0.877866 8.86262 0.5
82 6.08155 9.68601 10.9258 0.5
83 6.12872 2.11434 1.26721 0.5
84 9.85034 1.43717 0.693386 0.5
85 0.152869 5.68185 11.751 0.5
86 12.6342 8.49775 1.99605 0.5
87 7.8718 12.1379 6.10451 0.5
88 0.256994 1.3028 12.5577 0.5
89 5.22914 4.75289 8.4301 0.5
90 4.35652 8.69389 8.2543 0.5
91 1.50145 2.7325 3.37204 0.5
92 9.15002 8.95591 11.6073 0.5
93 7.61123 6.264 5.64869 0.5
94 11.0851 10.8633 5.15299 0.5
95 5.24763 2.69276 8.2864 0.5
96 8.42927 12.3203 7.3864 0.5
97 8.83006 1.44247 1.39525 0.5
98 5.91331 9.68154 7.61827 0.5
99 8.14168 2.21476 8.73043 0.5
100 9.41211 7.6986 5.96491 0.5
101 10.1058 0.0764268 1.28778 0.5
102 6.02061 0.835725 12.6018 0.5
103 10.8664 11.9149 7.44623 0.5
104 1.43046 3.20039 2.55601 0.5
105 3.55961 11.1918 7.87333 0.5
106 1.54643 13.0471 4.33542 0.5
107 4.29527 5.24576 11.3547 0.5
108 12.3964 4.0524 7.55859 0.5
109 6.11214 6.60682 5.86178 0.5
110 6.39841 10.7653 2.01874 0.5
111 10.3455 5.58534 8.93152 0.5
112 8.97166 12.7278 7.5905 0.5
113 10.982 3.83145 12.289 0.5
114 0.799527 9.81834 6.80433 0.5
115 1.30233 9.77706 2.27397 0.5
116 11.9753 12.986 0.41739 0.5
117 4.12438 0.391863 9.19488 0.5
118 7.86313 0.147592 0.960395 0.5
119 7.99708 4.53933 3.72985 0.5
120 10.9451 4.61976 5.79178 0.5
121 9.49256 6.86497 6.41823 0.5
122 1.23841 4.64597 12.3847 0.5
123 12.7504 10.7794 12.1281 0.5
124 12.979 6.08882 7.72726 0.5
125 3.02419 5.45597 3.88276 0.5
126 1.29471 0.0221521 5.25096 0.5
127 11.0019 6.7728 3.01152 0.5
128 5.7078 3.64673 1.47772 0.5
129 13.2065 2.46429 10.7478 0.5
130 2.10319 2.01836 6.5307 0.5
131 6.56446 8.75851 3.86122 0.5
132 10.0133 6.8667 9.00126 0.5
133 10.959 11.7754 11.6073 0.5
134 4.61395 2.91415 0.222012 0.5
135 10.1922 6.13541 7.19467 0.5
136 5.81003 8.22065 4.26639 0.5
137 4.37363 2.34684 8.28407 0.5
138 9.71949 3.24154 7.27981 0.5
139 3.29181 8.1842 4.0524 0.5
140 12.4961 1.74791 5.04228 0.5
141 1.56185 6.03011 4.15686 0.5
142 1.54165 2.95017 10.7874 0.5
143 2.00834 11.0192 8.21013 0.5
144 12.5111 11.0736 1.30492 0.5
145 7.03837 9.97365 3.64423 0.5
146 5.78573 2.60917 7.28744 0.5
147 6.77046 1.71444 5.19217 0.5
148 2.10259 4.51694 13.1208 0.5
149 9.42779 10.5371 12.7995 0.5
150 11.1038 5.65375 3.10305 0.5
151 10.6883 9.6457 4.20865 0.5
152 0.412115 12.8066 1.57909 0.5
153 13.1007 0.350822 10.8385 0.5
154 1.95685 1.92031 2.0217 0.5
155 11.0961 8.57019 11.327 0.5
156 1.69254 7.2529 5.84378 0.5
157 12.3721 7.83722 5.8509 0.5
158 5.60419 0.66549 4.49247 0.5
159 7.35595 8.7509 10.7191 0.5
160 8.17325 13.5377 9.11442 0.5
161 3.46443 4.27545 2.81321 0.5
162 9.71195 9.73549 1.93872 0.5
163 11.0282 12.7649 1.47862 0.5
164 7.55602 7.29678 8.68638 0.5
165 8.58564 11.1075 12.4413 0.5
166 10.6196 11.9007 4.77576 0.5
167 9.63301 9.84464 0.541784 0.5
168 0.183111 7.13258 9.54632 0.5
169 1.06125 8.62851 4.00007 0.5
170 6.29373 6.31201 11.1748 0.5
171 11.8163 8.31551 0.843905 0.5
172 9.75146 6.74612 6.13746 0.5
173 12.3666 0.147172 8.91979 0.5
174 -0.0126436 7.85378 9.98349 0.5
175 8.83748 8.0194 2.91338 0.5
176 1.84291 10.1957 7.52389 0.5
177 2.20645 7.39322 5.05566 0.5
178 11.7798 9.86235 7.00715 0.5
179 10.4648 12.6705 9.58446 0.5
180 9.54378 4.39976 8.28417 0.5
181 9.07669 12.3865 1.98002 0.5
182 3.44987 12.1042 9.63086 0.5
183 0.123673 10.5163 13.5646 0.5
184 3.12397 9.17404 7.68333 0.5
185 5.50825 1.69666 3.15918 0.5
186 2.13806 6.20696 6.61339 0.5
187 13.4832 3.55538 2.01604 0.5
188 7.10159 12.1801 11.8368 0.5
189 10.1894 1.32853 6.75459 0.5
190 8.58481 0.172076 8.12522 0.5
191 5.44109 3.62211 6.19424 0.5
192 0.483005 2.44982 0.373016 0.5
193 4.02005 1.3622 6.3479 0.5
194 6.37265 0.175106 7.35209 0.5
195 2.92577 3.30738 6.28505 0.5
196 11.2883 1.39602 8.95158 0.5
197 7.96538 6.52843 13.0772 0.5
198 12.0161 9.06725 1.27716 0.5
199 12.4672 9.44355 2.19088 0.5
200 1.06764 7.14415 1.243 0.5
201 8.43345 2.2073 5.68034 0.5
202 4.91215 2.21583 2.17715 0.5
203 4.38713 7.27524 8.67813 0.5
204 12.921 9.88403 2.03994 0.5
205 3.16793 0.424937 12.1542 0.5
206 5.03018 10.9662 3.92102 0.5
207 5.62026 4.32171 4.3567 0.5
208 5.74065 12.5461 11.1003 0.5
209 6.1225 6.01874 0.85404 0.5
210 12.2553 3.14876 7.52946 0.5
211 5.77768 0.814243 6.19142 0.5
212 4.868 9.2848 0.0771327 0.5
213 1.14534 3.15355 4.69556 0.5
214 1.05854 5.90692 12.4902 0.5
215 11.6319 7.02319 6.41304 0.5
216 6.95866 12.7198 4.0901 0.5
217 12.0626 5.05246 5.08546 0.5
218 11.11 2.32062 6.62981 0.5
219 3.68903 10.103 1.7543 0.5
220 1.59423 7.9656 10.5558 0.5
221 1.43777 11.5374 1.81416 0.5
222 3.30998 7.8086 2.90246 0.5
223 0.255944 7.20043 0.574353 0.5
224 2.54301 7.89523 11.8727 0.5
225 0.214558 13.4268 12.7162 0.5
226 7.46846 7.23263 11.2111 0.5
227 9.91532 1.67991 4.4923 0.5
228 7.4136 10.685 3.28365 0.5
229 4.30656 3.72259 0.353318 0.5
230 11.1374 3.49894 11.4167 0.5
231 5.79818 1.073 2.38151 0.5
232 4.40324 7.47183 6.52371 0.5
233 1.31968 0.497648 4.72214 0.5
234 4.55471 2.7914 9.61447 0.5
235 4.43889 1.86692 2.82692 0.5
236 8.02799 5.66757 12.1637 0.5
237 7.87472 4.60994 10.5238 0.5
238 9.36185 2.27835 9.0606 0.5
239 13.0306 6.88478 7.95144 0.5
240 5.82285 2.05751 0.523495 0.5
241 0.845785 6.48434 7.98396 0.5
242 3.53175 9.43862 6.34681 0.5
243 1.99525 11.6809 1.06376 0.5
244 0.0737295 5.92907 12.1653 0.5
245 12.5854 4.15882 6.61113 0.5
246 3.65339 10.6235 5.52806 0.5
247 7.63389 12.4405 0.290257 0.5
248 12.6519 11.4712 4.11854 0.5
249 6.71897 11.4712 13.1434 0.5
250 7.68335 6.41567 2.24908 0.5
251 4.34846 4.46475 3.59576 0.5
252 10.2395 2.89827 8.07536 0.5
253 7.1991 12.1668 4.79497 0.5
254 13.1554 5.71265 0.724275 0.5
255 1.53391 6.12192 11.0199 0.5
256 0.110789 13.5382 1.9377 0.5
257 2.48836 9.70075 3.5893 0.5
258 6.11188 11.088 10.0432 0.5
259 5.74323 7.83567 5.50934 0.5
260 8.65159 0.121287 1.86528 0.5
261 5.36049 9.11309 13.0386 0.5
262 7.29613 2.0933 13.1885 0.5
263 6.17956 11.3647 2.58013 0.5
264 2.31101 0.279133 13.4535 0.5
265 2.79577 10.0013 9.25522 0.5
266 0.841658 2.68973 12.2716 0.5
267 12.1621 6.48046 8.9417 0.5
268 9.95439 10.0095 11.6184 0.5
269 0.237537 13.4642 10.4406 0.5
270 3.59622 4.08859 11.3727 0.5
271 10.4483 3.8043 2.27392 0.5
272 10.3123 10.0277 5.35529 0.5
273 4.56137 10.8807 7.58642 0.5
274 11.4201 2.99193 10.3818 0.5
275 6.23581 0.0580175 12.4684 0.5
276 9.49824 6.28799 2.24786 0.5
277 8.79448 11.6349 6.60837 0.5
278 9.1579 3.91022 1.61161 0.5
279 5.99984 10.173 1.40713 0.5
280 0.0626156 3.37828 9.50875 0.5
281 13.2181 10.733 13.0886 0.5
282 5.94758 1.33039 4.83916 0.5
283 4.77649 2.29357 12.2901 0.5
284 12.5129 13.3387 11.0755 0.5
285 7.77079 3.76492 3.84165 0.5
286 6.56946 11.0381 12.9237 0.5
287 5.91442 12.8317 0.677509 0.5
288 6.44942 7.69551 9.98044 0.5
289 9.63423 12.5218 6.39649 0.5
290 8.56768 6.5306 5.20194 0.5
291 3.15365 7.26475 6.00871 0.5
292 8.28252 4.60132 7.39513 0.5
293 9.1514 13.2003 1.51574 0.5
294 7.61153 10.9733 8.62147 0.5
295 12.3887 1.10689 11.7351 0.5
296 1.39728 1.8492 1.83753 0.5
297 12.1337 12.5453 0.50974 0.5
298 11.7188 12.1515 1.66743 0.5
299 4.00686 8.68661 13.5095 0.5
300 4.02866 10.6383 0.501343 0.5
301 0.733276 11.582 7.44378 0.5
302 8.93196 3.62715 5.39186 0.5
303 11.4025 0.188139 11.1766 0.5
304 9.0712 10.8673 4.56808 0.5
305 4.96548 6.00571 12.485 0.5
306 12.2439 2.004 5.7771 0.5
307 2.22248 1.8903 10.885 0.5
308 10.2375 3.11896 6.20645 0.5
309 4.6399 6.47103 10.694 0.5
310 11.9687 1.7117 10.3122 0.5
311 7.17366 5.45256 1.33968 0.5
312 3.66764 9.97774 3.94811 0.5
313 1.53563 7.83067 10.2511 0.5
314 4.1079 2.97684 5.36495 0.5
315 9.70732 8.96584 7.68137 0.5
316 1.18299 5.07813 9.41064 0.5
317 6.60251 4.22642 6.11926 0.5
318 8.58187 13.5417 6.51323 0.5
319 12.8044 13.5554 1.60181 0.5
320 8.83013 11.1515 12.2066 0.5
321 11.553 9.93408 2.95067 0.5
322 6.99899 8.10341 9.89854 0.5
323 7.06597 2.57404 5.14771 0.5
324 3.51655 3.7452 8.37594 0.5
325 12.1881 3.74567 1.83817 0.5
326 6.17891 11.7118 12.1057 0.5
327 10.0579 7.24378 2.954 0.5
328 10.3932 0.50121 0.541922 0.5
329 2.04435 10.815 11.7627 0.5
330 11.8006 1.92072 5.65842 0.5
331 0.335179 7.23988 8.85993 0.5
332 9.21253 0.209067 5.00169 0.5
333 10.3915 5.01535 6.16452 0.5
334 5.83909 12.4308 7.62024 0.5
335 3.94459 11.1938 1.22654 0.5
336 8.00595 8.06516 3.81255 0.5
337 8.80182 0.244306 8.3292 0.5
338 9.91688 10.0409 11.948 0.5
339 8.78807 12.6702 3.11238 0.5
340 9.9308 8.42414 7.98922 0.5
341 8.40578 10.7444 10.9778 0.5
342 0.392222 5.7405 6.14415 0.5
343 1.75674 8.72689 11.5947 0.5
344 2.07034 10.9735 10.8345 0.5
345 11.5621 7.09536 4.95821 0.5
346 7.41663 1.50643 11.6962 0.5
347 6.59863 3.32672 1.7281 0.5
348 6.46178 7.13533 7.70835 0.5
349 5.68788 9.20912 13.0269 0.5
350 9.51363 8.30158 8.22559 0.5
351 3.65665 11.8165 6.52518 0.5
352 2.81274 13.4737 6.76448 0.5
353 4.25826 0.691364 6.48193 0.5
354 8.05755 12.2176 10.8022 0.5
355 4.59324 8.66602 7.75882 0.5
356 1.20161 5.29363 5.12635 0.5
357 12.2177 3.30215 4.25908 0.5
358 12.5647 3.77524 8.10856 0.5
359 2.50615 6.14563 8.64626 0.5
360 5.51181 10.3571 13.5215 0.5
361 9.64235 1.54522 3.77338 0.5
362 8.94169 5.17848 2.53451 0.5
363 13.3715 9.22395 10.1248 0.5
364 10.0909 8.01781 6.65324 0.5
365 1.90418 12.6094 3.4258 0.5
366 1.53808 8.68456 7.59739 0.5
367 5.73745 11.4278 11.5373 0.5
368 4.0963 3.91222 5.44964 0.5
369 5.03861 10.4885 10.2083 0.5
370 3.18729 9.75129 0.240584 0.5
371 12.3439 4.90116 0.476138 0.5
372 6.32094 9.71959 3.23692 0.5
373 10.8225 10.3727 4.70215 0.5
374 13.267 7.75673 13.2917 0.5
375 6.28275 5.07855 12.9589 0.5
376 4.25602 3.50146 5.17139 0.5
377 4.78077 6.02516 8.97743 0.5
378 7.11732 7.42179 12.7993 0.5
379 5.01173 8.57038 3.09077 0.5
380 4.41602 8.57052 7.83015 0.5
381 11.1458 5.60855 0.455539 0.5
382 0.845348 7.80988 8.78497 0.5
383 3.15637 10.9613 7.04688 0.5
384 6.07937 5.61396 4.74677 0.5
385 4.31934 4.40942 1.74724 0.5
386 5.58023 7.67443 2.1749 0.5
387 10.9162 10.5182 8.04038 0.5
388 9.32115 9.92292 13.0148 0.5
389 5.19129 5.06527 2.10636 0.5
390 7.08251 5.15163 12.0939 0.5
391 1.6526 5.59452 4.01762 0.5
392 2.70277 4.4733 1.41504 0.5
393 0.611409 0.982975 3.1492 0.5
394 2.19122 7.50237 0.531399 0.5
395 9.97541 9.79682 8.99333 0.5
396 3.55938 10.1409 2.18499 0.5
397 10.6157 10.602 8.43184 0.5
398 4.22966 7.52455 9.47756 0.5
399 10.6773 10.4803 6.43985 0.5
400 4.65572 0.0705665 8.06966 0.5
401 13.286 11.5877 6.08786 0.5
402 4.20323 3.82901 5.34728 0.5
403 9.40148 12.1269 5.82593 0.5
404 2.42565 10.7377 11.1329 0.5
405 13.5321 6.6094 9.11769 0.5
406 2.14649 6.10649 12.2 0.5
407 9.16486 10.3565 11.5649 0.5
408 13.3634 0.970197 7.56475 0.5
409 8.56577 11.6599 4.68227 0.5
410 9.70696 5.85413 4.64514 0.5
411 8.06184 3.65346 7.44403 0.5
412 13.5399 2.75546 2.28413 0.5
413 4.45528 3.84196 1.09361 0.5
414 6.96586 8.73208 5.97605 0.5
415 7.89069 7.80124 9.44935 0.5
416 8.87244 7.62919 13.0877 0.5
417 6.64971 10.4704 0.211361 0.5
418 1.86054 1.57657 10.7862 0.5
419 5.04639 12.2439 2.25002 0.5
420 3.3595 9.43515 2.13638 0.5
421 7.08716 4.20627 1.88982 0.5
422 13.3835 5.68672 5.25653 0.5
423 6.6772 11.5394 0.729319 0.5
424 1.90149 12.4198 3.28838 0.5
425 2.26421 10.0511 1.63163 0.5
426 3.08266 6.14489 6.45864 0.5
427 11.4138 6.15415 12.6927 0.5
428 3.29935 7.06673 0.757376 0.5
429 10.038 11.0743 1.97861 0.5
430 9.22738 12.156 12.718 0.5
431 12.2579 0.513151 5.88564 0.5
432 13.4893 13.09 1.19226 0.5
433 11.0799 11.2003 5.38744 0.5
434 5.82148 7.54977 10.7442 0.5
435 12.8862 3.74633 11.5354 0.5
436 3.37881 13.5706 4.14942 0.5
437 4.66003 5.91191 9.12669 0.5
438 3.10325 4.12479 12.4943 0.5
439 6.80589 6.759 8.80551 0.5
440 10.5292 8.47578 13.5109 0.5
441 1.17848 13.5925 2.57879 0.5
442 9.18488 6.53411 3.05416 0.5
443 1.19828 7.08008 11.3257 0.5
444 4.76275 6.07988 12.818 0.5
445 7.13509 3.43343 12.4936 0.5
446 11.5236 4.74843 9.09112 0.5
447 6.05219 2.87061 3.57234 0.5
448 4.61821 4.72192 11.3096 0.5
449 0.527416 10.7071 6.84144 0.5
450 2.0215 0.578367 5.36547 0.5
451 8.59387 1.68347 0.380154 0.5
452 13.1681 4.57725 3.91359 0.5
453 1.85503 6.20544 13.0863 0.5
454 1.15506 8.05528 4.26374 0.5
455 3.61545 11.3048 12.4269 0.5
456 9.70408 6.34905 4.70639 0.5
457 9.05969 0.535847 4.60712 0.5
458 8.6685 12.9883 0.257388 0.5
459 8.32854 12.0525 10.2558 0.5
460 9.33086 11.6837 2.90952 0.5
461 0.894622 6.58995 7.12259 0.5
462 10.9408 1.64991 1.38144 0.5
463 1.17126 10.1899 9.90287 0.5
464 10.1559 4.84151 2.54363 0.5
465 9.36898 5.12779 9.46374 0.5
466 9.63679 12.1698 6.19089 0.5
467 5.38853 0.858131 1.9154 0.5
468 0.0763643 6.90473 3.30434 0.5
469 9.86438 9.66431 12.867 0.5
470 2.3809 3.22841 12.2963 0.5
471 10.5046 11.7554 9.94842 0.5
472 3.31257 2.55861 13.5911 0.5
473 1.4459 11.2764 8.63083 0.5
474 0.689479 11.5764 3.35135 0.5
475 9.56169 10.2047 6.87612 0.5
476 1.59996 4.53304 10.4274 0.5
477 0.0120269 0.0731468 6.82689 0.5
478 3.55264 8.85065 12.2431 0.5
479 3.75346 0.535615 10.4634 0.5
480 2.92044 11.1368 3.08829 0.5
481 4.18566 11.6181 7.75887 0.5
482 9.73259 8.89293 7.68685 0.5
483 9.12251 2.71589 8.03829 0.5
484 9.70719 0.0763684 4.79706 0.5
485 13.5086 0.519718 0.145708 0.5
486 10.0362 12.7264 2.52795 0.5
487 8.97685 12.1865 10.4431 0.5
488 3.58253 6.61233 1.00909 0.5
489 1.19208 5.33738 3.40983 0.5
490 3.73776 6.31785 5.06294 0.5
491 7.58751 1.35532 8.999 0.5
492 7.01818 10.6429 2.82622 0.5
493 2.27004 7.17252 4.70831 0.5
494 1.2569 3.9049 11.4566 0.5
495 9.90923 9.14155 9.28637 0.5
496 5.60001 2.67902 4.70064 0.5
497 5.45754 10.1038 9.11765 0.5
498 11.3021 11.3496 2.66099 0.5
499 13.0949 8.90285 3.39732 0.5
500 11.6906 11.0535 0.937744 0.5
501 3.71918 1.1422 2.66513 0.5
502 8.78786 2.71589 7.06641 0.5
503 1.14 3.2337 5.69009 0.5
504 10.8499 10.0156 13.5491 0.5
505 2.61208 11.9622 6.11064 0.5
506 8.92805 6.26215 0.85137 0.5
507 4.1964 12.7061 0.647171 0.5
508 8.56043 4.66246 0.547842 0.5
509 1.32336 12.6108 1.6821 0.5
510 8.01262 3.97312 8.33249 0.5
511 4.7641 2.68906 8.72411 0.5
512 7.65186 2.23135 9.34395 0.5
513 4.14368 7.35886 5.79734 0.5
514 7.92225 0.728104 4.89734 0.5
515 8.92483 5.38101 2.85795 0.5
516 3.78107 1.63766 11.0547 0.5
517 0.19841 9.51952 2.07421 0.5
518 0.381683 3.8731 2.7944 0.5
519 9.48474 7.64314 7.61368 0.5
520 12.6032 2.00079 9.50983 0.5
521 2.51812 11.844 0.231323 0.5
522 3.10495 6.25862 8.3995 0.5
523 10.8691 5.40614 13.3468 0.5
524 12.6955 3.5776 12.1293 0.5
525 0.479463 5.142 0.215744 0.5
526 9.69724 11.7387 11.7928 0.5
527 0.0857734 12.2328 11.5027 0.5
528 3.91808 13.5303 10.5543 0.5
529 2.42053 9.91668 11.3951 0.5
530 9.82583 9.01807 12.7972 0.5
531 11.9727 12.8782 10.2586 0.5
532 11.1269 8.4168 0.0170955 0.5
533 1.64863 4.43658 4.06942 0.5
534 2.96898 3.93891 9.19916 0.5
535 7.17056 0.0129335 3.4661 0.5
536 3.82162 7.56149 3.91947 0.5
537 5.03558 3.40807 3.59499 0.5
538 1.88748 10.0164 9.67656 0.5
539 10.1889 8.96253 4.8058 0.5
540 1.45094 5.08807 12.1465 0.5
541 10.262 10.2184 11.3086 0.5
542 12.3238 11.3791 7.1735 0.5
543 11.4932 2.71194 5.92746 0.5
544 11.4493 5.41287 10.9055 0.5
545 5.90977 9.55072 10.6492 0.5
546 0.782366 3.43577 11.2303 0.5
547 12.0118 11.0755 9.14889 0.5
548 4.75671 0.919978 2.45855 0.5
549 9.18794 7.10552 4.78807 0.5
550 1.29032 2.61815 1.25123 0.5
551 8.48024 2.06967 13.2003 0.5
552 4.60515 2.98718 11.4564 0.5
553 2.73858 10.5987 11.7814 0.5
554 4.15718 0.201962 0.540684 0.5
555 8.72013 2.78066 6.53686 0.5
556 10.665 11.8483 9.18936 0.5
557 11.5748 8.93154 11.8583 0.5
558 2.58844 5.4331 1.65231 0.5
559 0.739677 13.2887 10.5908 0.5
560 3.52936 0.024681 4.37709 0.5
561 5.26091 5.95023 7.95583 0.5
562 0.887103 11.5053 10.0533 0.5
563 3.18877 7.72931 0.911796 0.5
564 11.0602 12.961 4.92864 0.5
565 13.1153 1.49746 7.80111 0.5
566 6.01619 10.9148 6.49794 0.5
567 8.86729 9.60877 3.05942 0.5
568 5.4928 5.91722 6.20924 0.5
569 1.35245 2.79275 3.48396 0.5
570 0.502382 4.38219 13.3635 0.5
571 6.25467 13.5535 4.47064 0.5
572 10.8125 10.971 9.838 0.5
573 1.94659 1.15817 0.872729 0.5
574 6.64005 10.1419 6.58485 0.5
575 10.0088 9.72205 13.0319 0.5
576 2.43839 2.64066 5.39664 0.5
577 11.2993 10.6729 2.04073 0.5
578 9.1155 13.3946 0.919681 0.5
579 12.7919 1.25629 8.48896 0.5
580 6.67098 12.2018 1.2601 0.5
581 4.97912 10.4543 11.4694 0.5
582 8.74152 8.54301 4.74036 0.5
583 9.46607 11.0181 8.09312 0.5
584 9.22492 10.7078 2.27763 0.5
585 12.6609 8.63826 8.27427 0.5
586 5.31465 2.98011 12.4411 0.5
587 12.7588 1.51029 0.901243 0.5
588 0.292276 6.8823 12.0708 0.5
589 1.30568 4.59396 12.7225 0.5
590 13.0511 6.30831 5.97075 0.5
591 4.7323 11.3053 12.5817 0.5
592 2.42257 11.0475 1.32488 0.5
593 0.656816 4.00592 5.42573 0.5
594 10.055 1.22379 10.9016 0.5
595 3.35593 10.4505 3.00699 0.5
596 4.43284 11.3917 11.5714 0.5
597 13.4169 6.60403 7.30389 0.5
598 2.83916 9.84612 9.57195 0.5
599 6.86379 12.9354 9.51988 0.5
600 8.101 12.5534 9.61469 0.5
601 3.82991 10.8082 10.2155 0.5
602 11.3964 11.5761 12.4974 0.5
603 3.73052 4.19604 6.6094 0.5
604 6.56396 2.19346 9.01316 0.5
605 0.824375 1.92571 1.44451 0.5
606 5.31031 1.60996 8.27181 0.5
607 10.722 8.60053 12.3362 0.5
608 12.0964 1.45854 9.84623 0.5
609 12.0043 8.2842 11.2174 0.5
610 7.05242 12.5196 3.70618 0.5
611 1.09225 1.2918 9.94858 0.5
612 0.758359 12.1835 11.8981 0.5
613 5.24623 11.0285 6.26744 0.5
614 7.79761 8.30249 5.40554 0.5
615 12.5964 0.0928757 3.51362 0.5
616 10.7934 7.66551 10.0859 0.5
617 1.07996 1.27881 12.0559 0.5
618 12.1266 11.1135 2.66189 0.5
619 10.0174 3.7646 12.8415 0.5
620 3.33939 11.1756 11.4926 0.5
621 3.79134 10.1557 11.4906 0.5
622 1.83002 13.0177 9.33262 0.5
623 7.54943 7.42509 3.46391 0.5
624 6.82649 11.3446 6.67901 0.5
625 1.33897 6.73439 0.229383 0.5
626 7.58616 2.08396 10.2381 0.5
627 10.2165 9.09656 6.22378 0.5
628 6.38177 1.50601 13.3438 0.5
629 6.23991 13.2946 12.027 0.5
630 2.31001 12.0196 8.73528 0.5
631 6.8235 3.05791 4.03703 0.5
632 5.49157 10.3596 8.37762 0.5
633 12.919 0.276128 3.83547 0.5
634 8.50552 3.4591 12.3226 0.5
635 11.9171 9.77312 1.38615 0.5
636 6.13997 7.63345 12.7618 0.5
637 10.2799 9.82001 13.0374 0.5
638 6.86033 13.4735 6.72016 0.5
639 10.9018 0.611493 11.323 0.5
640 3.30374 7.68744 5.28402 0.5
641 0.0876657 0.28319 0.553737 0.5
642 10.1671 9.6949 0.909792 0.5
643 2.21557 7.23249 11.259 0.5
644 4.83588 11.6198 9.25631 0.5
645 12.4375 7.4132 12.1524 0.5
646 11.7884 5.41566 3.30861 0.5
647 12.4991 11.5999 6.61691 0.5
648 13.162 4.59804 13.1033 0.5
649 2.94476 10.7127 3.90483 0.5
650 9.34398 3.4635 13.3083 0.5
651 6.77046 3.5464 12.743 0.5
652 11.309 8.97035 10.1463 0.5
653 6.31905 11.4643 9.58153 0.5
654 5.68985 2.77864 13.2674 0.5
655 5.25171 2.22203 8.08627 0.5
656 12.9983 11.7545 13.0548 0.5
657 9.18677 10.2375 7.50357 0.5
658 11.1212 4.69652 0.407699 0.5
659 0.311005 11.597 2.99582 0.5
660 4.21499 5.17405 10.693 0.5
661 5.70242 4.20444 7.36884 0.5
662 3.36961 7.97981 2.33171 0.5
663 9.42916 2.72998 2.91702 0.5
664 12.801 10.8805 1.43673 0.5
665 1.2846 8.11906 2.13045 0.5
666 2.71764 10.9546 2.46876 0.5
667 3.46076 8.19587 4.71373 0.5
668 12.5475 1.0766 9.08681 0.5
669 11.3293 7.32743 8.09647 0.5
670 6.50612 12.6845 10.2851 0.5
671 3.14283 8.34577 7.95237 0.5
672 0.841777 7.44971 0.947629 0.5
673 5.76737 2.0692 0.336643 0.5
674 10.4534 2.39113 0.341598 0.5
675 5.66154 11.8253 9.95846 0.5
676 1.01403 11.8852 0.260862 0.5
677 8.00079 2.516 2.1082 0.5
678 2.04603 5.12242 1.88018 0.5
679 0.404745 3.2653 10.2963 0.5
680 4.48596 6.95548 2.36599 0.5
681 8.60369 0.604195 10.3191 0.5
682 5.50425 3.47951 8.27971 0.5
683 3.67227 10.7326 4.11504 0.5
684 7.72972 4.70567 2.83828 0.5
685 11.458 13.4363 13.0268 0.5
686 6.51086 6.13514 11.6508 0.5
687 4.85039 7.10033 11.5767 0.5
688 0.816884 8.86243 0.453231 0.5
689 2.85566 2.74874 12.8274 0.5
690 5.3649 1.70626 10.7135 0.5
691 3.04773 7.82148 11.228 0.5
692 8.92434 11.0045 9.45202 0.5
693 10.5863 9.4025 8.81237 0.5
694 9.91888 10.423 12.0589 0.5
695 2.09996 4.12214 10.7255 0.5
696 6.02286 12.1877 0.0544855 0.5
697 8.71357 8.63131 0.735673 0.5
698 5.43671 2.28392 7.98335 0.5
699 9.03909 6.24203 12.6587 0.5
700 5.62755 3.46936 6.36108 0.5
701 1.89256 2.80657 1.02873 0.5
702 10.4959 7.42374 12.8306 0.5
703 4.50432 8.77748 1.94124 0.5
704 4.71558 12.706 8.56691 0.5
705 8.8527 2.54947 0.782441 0.5
706 7.74382 5.98895 0.817395 0.5
707 12.2429 7.70265 11.6918 0.5
708 0.330719 10.9485 3.65853 0.5
709 5.31222 0.602027 4.92459 0.5
710 6.35006 2.0657 9.23391 0.5
711 4.82483 8.8708 8.33544 0.5
712 11.5717 8.25469 2.97242 0.5
713 12.7194 4.39077 11.9266 0.5
714 4.59278 6.9386 5.60146 0.5
715 9.96154 2.00066 10.6464 0.5
716 8.12851 5.31059 5.19578 0.5
717 10.06 2.14962 12.1064 0.5
718 13.0029 5.28279 3.69921 0.5
719 9.73213 5.87856 7.14351 0.5
720 3.27759 2.25247 0.890338 0.5
721 9.32065 12.6957 0.386256 0.5
722 1.11707 2.82802 9.97934 0.5
723 11.3752 0.329292 4.02851 0.5
724 6.05277 0.615435 11.2094 0.5
725 8.74408 12.9206 10.9866 0.5
726 2.04552 8.89703 12.1899 0.5
727 1.472 3.04724 1.60334 0.5
728 8.39522 7.40866 9.52474 0.5
729 3.34691 7.41869 2.96485 0.5
730 12.2623 9.54498 8.88963 0.5
731 8.83897 8.70712 7.98696 0.5
732 4.96112 0.0289536 1.04717 0.5
733 13.0867 4.94185 7.73045 0.5
734 3.14041 5.26651 8.14011 0.5
735 2.80246 0.936539 5.28155 0.5
736 2.31075 13.0009 10.0899 0.5
737 2.03249 7.2425 3.70735 0.5
738 5.70148 1.21097 7.85304 0.5
739 9.41735 1.27585 4.24165 0.5
740 5.02623 7.45463 12.2223 0.5
741 1.67211 12.8236 4.54917 0.5
742 7.09548 6.14539 11.4654 0.5
743 0.788108 6.57724 2.68279 0.5
744 3.8852 6.00944 2.82438 0.5
745 11.4099 0.162149 2.17911 0.5
746 12.9278 1.2138 5.8161 0.5
747 0.229456 2.59577 1.74519 0.5
748 2.94501 13.1259 8.32576 0.5
749 10.7967 2.54512 11.3923 0.5
750 0.148129 5.18545 10.0172 0.5
751 12.5463 3.06727 9.0682 0.5
752 0.735908 9.13292 4.86839 0.5
753 9.18439 10.979 6.84202 0.5
754 6.24744 7.17165 9.44113 0.5
755 5.76476 0.966883 0.922135 0.5
756 3.68348 3.60779 6.70498 0.5
757 7.00462 3.63935 6.4267 0.5
758 3.86018 4.17835 1.88478 0.5
759 10.8357 0.502564 5.54078 0.5
760 10.9161 1.81702 5.61943 0.5
761 12.6685 4.86547 6.6352 0.5
762 1.56938 11.9268 11.0073 0.5
763 2.01165 11.9396 9.76083 0.5
764 9.8701 8.32898 7.88087 0.5
765 11.3495 12.0477 9.6362 0.5
766 0.140797 13.4272 5.19419 0.5
767 7.533 6.85458 4.30533 0.5
768 11.2032 9.53914 11.247 0.5
769 3.89713 4.92131 9.28936 0.5
770 3.33076 3.60447 11.1141 0.5
771 7.13332 11.3185 13.169 0.5
772 11.3965 9.02298 6.99499 0.5
773 10.0727 11.0422 7.24526 0.5
774 3.92548 5.31776 0.745071 0.5
775 2.16943 2.16087 12.0748 0.5
776 5.17587 5.48377 3.42588 0.5
777 12.4329 13.5223 11.8769 0.5
778 7.38194 11.8585 4.51449 0.5
779 0.73883 8.17574 11.682 0.5
780 2.38575 0.944814 0.543117 0.5
781 2.89058 2.84045 2.94492 0.5
782 9.6537 8.35486 5.70325 0.5
783 12.1378 2.25138 8.82823 0.5
784 5.82613 3.55 1.01688 0.5
785 5.03686 0.983931 8.7338 0.5
786 4.6753 4.2603 12.6275 0.5
787 3.53288 2.96905 2.28336 0.5
788 11.029 1.55332 4.69052 0.5
789 13.3128 11.2808 11.5726 0.5
790 8.8842 7.81233 3.8448 0.5
791 2.45624 2.64601 0.837402 0.5
792 1.38163 1.15283 1.16719 0.5
793 10.3631 12.7801 5.40875 0.5
794 8.78082 9.71195 12.2175 0.5
795 4.28541 6.80189 5.39627 0.5
796 12.8265 8.40954 2.82377 0.5
797 3.0357 8.52085 10.3808 0.5
798 7.51129 0.0438639 7.39791 0.5
799 4.71676 13.1065 3.674 0.5
800 0.0225305 9.9962 9.21214 0.5
801 12.7029 9.06419 4.9544 0.5
802 9.83666 7.71425 10.3322 0.5
803 2.50336 6.32296 12.4626 0.5
804 3.37538 8.24646 12.1582 0.5
805 10.3195 4.63264 9.87807 0.5
806 6.71894 3.49819 7.44933 0.5
807 8.95358 0.404068 2.97396 0.5
808 0.631973 4.87848 7.2305 0.5
809 7.41225 7.91274 2.43184 0.5
810 3.72369 0.685372 5.71636 0.5
811 1.82663 1.49793 5.75212 0.5
812 8.30988 7.90194 10.0997 0.5
813 4.37877 13.4434 6.12913 0.5
814 7.84218 11.8252 6.31116 0.5
815 6.09543 11.6827 11.5193 0.5
816 0.277568 1.78102 6.67826 0.5
817 5.12267 6.42987 3.45204 0.5
818 0.0878298 9.54566 1.15508 0.5
819 4.95857 8.2418 3.55627 0.5
820 11.7175 1.85598 11.8973 0.5
821 12.3945 2.21564 10.7946 0.5
822 4.18977 6.81624 1.24688 0.5
823 3.67459 13.3842 10.7792 0.5
824 8.89433 2.75279 12.5181 0.5
825 2.42196 7.78147 1.93301 0.5
826 3.18573 0.813866 12.616 0.5
827 9.44613 9.57413 8.48978 0.5
828 4.30615 12.4242 2.26946 0.5
829 10.6957 10.8243 13.1356 0.5
830 8.24035 1.63669 5.43825 0.5
831 6.57324 5.62208 8.32012 0.5
832 9.10348 6.67153 5.95567 0.5
833 13.3674 0.650994 9.40747 0.5
834 4.8937 1.1699 8.40462 0.5
835 4.72353 9.18257 0.756073 0.5
836 8.90357 1.07017 10.6217 0.5
837 1.09766 11.9524 13.4416 0.5
838 3.83141 8.20861 8.54496 0.5
839 10.8931 10.4042 7.76265 0.5
840 11.2679 5.25286 8.50097 0.5
841 10.1256 10.0786 1.49139 0.5
842 6.67151 2.29028 3.47185 0.5
843 5.95848 8.97734 6.45756 0.5
844 4.48222 3.84289 4.11519 0.5
845 8.72146 7.40785 6.3462 0.5
846 12.2935 7.97641 3.78803 0.5
847 7.17347 8.73194 8.95203 0.5
848 12.6652 8.02418 11.7818 0.5
849 3.59435 8.48324 11.7585 0.5
850 8.16009 10.6754 0.543116 0.5
851 5.66425 13.519 8.04457 0.5
852 3.52928 1.7393 7.31429 0.5
853 1.60803 10.0166 9.44301 0.5
854 3.97015 2.33347 2.06299 0.5
855 2.83093 4.61069 3.75205 0.5
856 0.639221 4.37095 12.3796 0.5
857 8.89627 4.00436 11.817 0.5
858 0.716643 9.52721 3.16581 0.5
859 12.3956 5.90388 12.9747 0.5
860 8.55481 3.86002 13.0783 0.5
861 5.79185 0.498038 1.29534 0.5
862 3.67691 2.02124 9.91623 0.5
863 0.621232 8.82398 10.4443 0.5
864 5.50571 11.9588 3.51545 0.5
865 5.58478 2.63109 4.27427 0.5
866 10.9083 12.2617 11.6937 0.5
867 4.24543 11.6732 4.3088 0.5
868 9.27319 7.95941 8.96633 0.5
869 5.77828 2.45444 8.50321 0.5
870 0.580339 12.1817 11.606 0.5
871 9.65731 3.61839 11.8046 0.5
872 9.41912 8.54455 2.80644 0.5
873 13.2214 12.671 6.76577 0.5
874 5.44523 8.02183 10.0541 0.5
875 8.07114 3.51193 11.3821 0.5
876 9.70684 11.8459 6.91756 0.5
877 3.76533 0.65074 7.36259 0.5
878 2.66288 9.5343 2.63256 0.5
879 12.1869 0.576257 0.748447 0.5
880 12.5848 7.50471 9.39161 0.5
881 8.70026 8.75062 12.4033 0.5
882 4.07185 4.80605 5.26552 0.5
883 11.5711 11.4074 12.4502 0.5
884 7.77216 13.1979 1.84258 0.5
885 6.32907 2.66907 5.50379 0.5
886 8.16632 8.29822 9.85021 0.5
887 1.28808 6.85884 6.99768 0.5
888 7.5518 8.20678 12.8636 0.5
889 6.12027 5.97652 9.9293 0.5
890 3.20359 3.2534 0.164571 0.5
891 4.82103 0.149422 1.00966 0.5
892 11.9983 10.6615 7.9706 0.5
893 1.02755 0.601857 5.39864 0.5
894 11.7518 4.801 0.360077 0.5
895 7.27359 2.43187 0.816439 0.5
896 4.69191 0.895533 2.39336 0.5
897 3.73245 6.26007 10.2746 0.5
898 7.35814 9.67975 10.4618 0.5
899 11.8715 11.4801 5.47074 0.5
900 10.8264 12.2815 0.590845 0.5
901 6.97533 12.333 2.5132 0.5
902 8.15947 7.04811 1.92276 0.5
903 12.2772 12.7943 10.6985 0.5
904 6.30051 13.5676 1.3653 0.5
905 4.38752 11.0128 10.9311 0.5
906 1.08573 8.40531 7.3654 0.5
907 13.0331 7.58743 12.491 0.5
908 3.78157 1.99108 0.182502 0.5
909 12.1213 9.9715 7.96138 0.5
910 3.56476 5.70552 5.31583 0.5
911 12.206 11.9392 8.70629 0.5
912 2.92314 12.2063 10.6215 0.5
913 12.1124 7.96509 0.484568 0.5
914 5.15658 10.2201 6.20225 0.5
915 9.67105 12.7037 5.36467 0.5
916 6.93537 9.62969 9.79599 0.5
917 1.20264 0.973877 4.32079 0.5
918 4.06279 12.001 2.98189 0.5
919 9.4492 6.65173 4.02945 0.5
920 0.0206251 3.82942 1.39545 0.5
921 13.421 0.695911 6.79666 0.5
922 6.07399 0.509397 6.61591 0.5
923 7.64269 3.73346 4.54529 0.5
924 3.01003 5.03296 9.25692 0.5
925 5.70039 6.21571 4.99658 0.5
926 6.91387 5.66469 10.4422 0.5
927 2.34459 8.54224 13.3105 0.5
928 3.50156 10.4865 1.21291 0.5
929 6.05024 0.46713 5.66088 0.5
930 1.42277 9.22728 1.95327 0.5
931 10.7475 5.24055 1.38991 0.5
932 1.22559 2.09947 6.67976 0.5