ITEM: TIMESTEP
610000
ITEM: NUMBER OF ATOMS
1000
ITEM: BOX BOUNDS xy xz yz pp pp pp
0.0000000000000000e+00 1.3572088000000001e+01 0.0000000000000000e+00
0.0000000000000000e+00 1.3572088000000001e+01 0.0000000000000000e+00
0.0000000000000000e+00 1.3572088000000001e+01 0.0000000000000000e+00
ITEM: ATOMS id x y z radius
1 1.78158 6.32084 12.4583 0.5
2 7.95731 3.86981 0.805381 0.5
3 4.32601 13.1386 1.04481 0.5
4 7.97174 12.2856 6.38256 0.5
5 11.0567 0.619037 3.04517 0.5
6 11.6293 9.99367 12.6015 0.5
7 4.52265 0.572757 6.57694 0.5
8 9.3522 8.26552 12.6758 0.5
9 8.3917 4.56402 2.88826 0.5
10 9.48666 4.94544 1.88838 0.5
11 10.313 4.558 13.4539 0.5
12 10.9266 4.43565 0.573934 0.5
13 6.88784 13.4759 6.64604 0.5
14 7.75208 10.9827 8.60753 0.5
15 12.4952 1.50793 7.59878 0.5
16 5.26257 11.854 10.4789 0.5
17 1.23917 9.50924 3.62813 0.5
18 8.18247 0.93948 11.8526 0.5
19 5.95603 2.23631 13.5179 0.5
20 0.188638 12.3607 1.99729 0.5
21 9.27649 10.0394 4.17288 0.5
22 2.93122 13.0228 9.21016 0.5
23 6.6533 11.008 12.0211 0.5
24 2.58703 4.46097 12.3539 0.5
25 7.1113 5.15851 1.52257 0.5
26 12.4525 11.4753 6.18621 0.5
27 7.5441 8.11287 2.80541 0.5
28 3.11556 0.463132 4.18546 0.5
29 3.25296 0.0676774 6.76865 0.5
30 2.77837 13.1343 6.12047 0.5
31 3.21551 11.5833 13.3618 0.5
32 4.5374 2.08014 12.2123 0.5
33 10.0083 13.3414 1.61823 0.5
34 1.25896 7.34879 10.7379 0.5
35 12.0364 9.07064 4.7428 0.5
36 9.96144 7.25818 8.89482 0.5
37 0.264157 0.0212098 6.97966 0.5
38 0.942376 1.0022 11.4981 0.5
39 10.3869 10.3364 9.49646 0.5
40 10.2793 5.21902 10.7113 0.5
41 3.00333 3.94775 12.8934 0.5
42 9.55323 6.31964 5.75988 0.5
43 10.8118 10.0851 4.20436 0.5
44 12.2009 11.5381 12.5452 0.5
45 1.74798 5.08041 3.85119 0.5
46 0.665278 0.0785307 11.066 0.5
47 1.06667 2.77937 4.6332 0.5
48 4.84848 10.633 4.54447 0.5
49 12.946 2.50484 1.92141 0.5
50 0.194607 3.02858 13.2791 0.5
51 12.5058 10.2691 1.63864 0.5
52 4.20247 8.63095 3.65149 0.5
53 8.99915 3.1577 7.9209 0.5
54 13.4929 1.24606 3.72675 0.5
55 8.56688 11.0308 7.55758 0.5
56 1.65887 10.839 12.3621 0.5
57 7.98202 9.5051 4.44874 0.5
58 8.11538 3.60499 10.8507 0.5
59 9.28216 6.58108 2.62462 0.5
60 11.9598 11.5524 6.0118 0.5
61 3.93712 11.4548 6.19984 0.5
62 8.33523 2.99307 9.48619 0.5
63 11.0018 5.98635 3.30536 0.5
64 12.2372 5.27791 3.21167 0.5
65 3.22563 1.07068 8.28385 0.5
66 8.93303 1.36042 5.98822 0.5
67 5.78945 12.2998 3.95302 0.5
68 6.05368 2.70598 2.81593 0.5
69 0.0904222 0.0805531 9.3138 0.5
70 6.97502 9.90367 4.25325 0.5
71 4.03561 2.28563 2.57597 0.5
72 12.4636 11.4119 5.61457 0.5
73 3.18879 0.962784 11.5133 0.5
74 4.95033 8.3051 13.3799 0.5
75 6.58325 12.2338 4.59486 0.5
76 0.989425 0.690628 6.81439 0.5
77 12.2183 7.74954 10.8866 0.5
78 12.1776 0.341992 6.53499 0.5
79 8.32286 8.27901 7.98341 0.5
80 6.05932 7.87621 1.59787 0.5
81 4.66022 12.6335 2.20112 0.5
82 6.15906 4.00743 2.13143 0.5
83 8.47618 8.90768 1.5846 0.5
84 13.469 6.41592 11.5574 0.5
85 11.6626 0.911975 1.52938 0.5
86 3.37557 9.17733 8.50629 0.5
87 1.0897 3.30841 0.324335 0.5
88 8.81788 0.402609 0.349771 0.5
89 8.28938 12.1136 12.3983 0.5
90 3.38569 4.08554 7.2365 0.5
91 1.54438 9.67568 2.47735 0.5
92 12.7052 0.589033 12.4409 0.5
93 2.77066 2.92184 9.36214 0.5
94 9.5174 3.11835 0.996204 0.5
95 10.9242 6.08935 0.645484 0.5
96 3.6403 2.66444 12.2225 0.5
97 8.26835 11.6299 9.00399 0.5
98 9.1545 12.3801 0.355248 0.5
99 0.637895 5.4531 5.97472 0.5
100 7.42528 10.0605 5.6946 0.5
101 9.08695 8.87638 4.12332 0.5
102 4.11467 4.92378 10.7622 0.5
103 8.05992 4.66606 9.88611 0.5
104 7.78325 4.44644 4.2051 0.5
105 7.81329 11.6409 9.25447 0.5
106 11.3308 13.2924 7.55387 0.5
107 6.90865 6.04466 1.10521 0.5
108 10.2 8.87249 10.2616 0.5
109 8.21704 3.8964 10.311 0.5
110 4.2537 5.06563 7.70616 0.5
111 5.64678 6.52349 4.25811 0.5
112 2.46368 5.44689 10.7143 0.5
113 12.3202 4.69378 5.16911 0.5
114 2.6008 7.29442 11.5435 0.5
115 0.550395 7.78114 9.8831 0.5
116 9.24627 9.41194 13.2778 0.5
117 8.43445 6.48458 12.411 0.5
118 2.59253 8.60643 10.3243 0.5
119 0.0490094 4.78856 5.28184 0.5
120 4.27224 9.46365 2.90511 0.5
121 6.92329 1.71578 3.04667 0.5
122 11.1845 2.7733 3.99892 0.5
123 5.2747 1.08227 8.0301 0.5
124 9.87559 4.78403 4.49268 0.5
125 0.109018 5.05408 2.27665 0.5
126 11.743 0.950403 8.85266 0.5
127 5.31772 7.07658 0.0221483 0.5
128 3.68279 1.10219 5.18478 0.5
129 1.327 6.00273 12.3246 0.5
130 1.34088 6.2259 2.86313 0.5
131 11.138 12.3146 13.0259 0.5
132 4.44652 4.20074 1.43016 0.5
133 3.2186 11.4783 3.27194 0.5
134 0.889232 5.72118 0.350295 0.5
135 9.45496 2.54835 4.46591 0.5
136 2.32382 12.4399 9.68094 0.5
137 13.0368 5.75159 6.06046 0.5
138 5.97844 9.28539 12.461 0.5
139 12.6598 11.5516 2.95092 0.5
140 2.39315 4.35346 9.25837 0.5
141 11.259 10.2805 6.6753 0.5
142 5.56885 8.3307 9.22407 0.5
143 0.742516 5.75849 4.0033 0.5
144 9.70458 9.63217 9.97006 0.5
145 10.0456 3.30904 10.5689 0.5
146 11.247 0.324194 10.7176 0.5
147 7.60166 1.20586 9.88045 0.5
148 4.10681 5.72608 6.0996 0.5
149 1.33653 3.02801 2.4285 0.5
150 6.5634 2.47777 4.46298 0.5
151 0.205965 0.717171 2.84582 0.5
152 7.62567 2.99336 0.646204 0.5
153 5.53084 9.33453 6.2336 0.5
154 3.64856 5.69824 10.7146 0.5
155 5.59849 11.9687 13.2057 0.5
156 3.75353 7.37385 9.03837 0.5
157 6.00735 9.70882 4.75785 0.5
158 0.0469542 10.1224 5.9087 0.5
159 5.21471 2.33345 9.61365 0.5
160 13.0954 5.87534 8.21692 0.5
161 13.0395 11.3335 6.19904 0.5
162 11.2922 1.7269 6.62136 0.5
163 3.34895 7.81366 9.26665 0.5
164 3.66623 5.17223 9.02395 0.5
165 9.27644 3.11797 3.68472 0.5
166 6.87072 9.65034 0.351853 0.5
167 1.28243 3.73553 3.81129 0.5
168 6.2729 8.88755 11.8431 0.5
169 6.66803 6.49193 0.605112 0.5
170 8.59144 12.283 11.0657 0.5
171 1.88182 7.58015 5.21414 0.5
172 9.16023 11.9942 2.16983 0.5
173 6.7411 12.3001 9.08605 0.5
174 12.0255 6.65504 6.65426 0.5
175 4.66647 9.6339 11.0711 0.5
176 2.84753 0.875751 12.8358 0.5
177 0.685359 9.68244 5.13528 0.5
178 5.05002 9.94076 11.9812 0.5
179 8.49659 9.95731 7.21515 0.5
180 6.1986 1.93394 12.3288 0.5
181 10.6272 0.796519 11.5412 0.5
182 1.99778 3.9697 11.3044 0.5
183 1.68654 1.54012 7.44387 0.5
184 9.69214 11.9437 0.296892 0.5
185 3.02973 12.3371 0.413942 0.5
186 11.8945 6.7531 7.50505 0.5
187 8.39091 0.966819 9.9365 0.5
188 5.80363 4.76375 8.99593 0.5
189 10.9733 4.48198 12.3209 0.5
190 8.82024 3.96875 9.81407 0.5
191 7.74212 2.22657 7.9474 0.5
192 0.488785 3.57281 4.78032 0.5
193 2.03373 8.94791 5.7403 0.5
194 11.3114 7.03404 4.76384 0.5
195 9.11379 12.9218 1.26589 0.5
196 1.42374 3.3882 9.74005 0.5
197 0.312714 10.2909 5.01455 0.5
198 0.612181 8.00689 11.7603 0.5
199 8.0311 2.08494 12.305 0.5
200 12.2283 8.05775 7.95626 0.5
201 0.942293 4.87264 6.28107 0.5
202 11.8515 2.75343 8.02004 0.5
203 12.2904 5.83469 1.02579 0.5
204 8.51802 7.40615 2.45102 0.5
205 4.59616 7.20855 11.079 0.5
206 6.63688 1.32274 3.46856 0.5
207 7.86226 8.89113 12.0347 0.5
208 2.94349 8.26372 1.4566 0.5
209 5.21262 9.38192 9.99329 0.5
210 9.37846 6.31987 0.395046 0.5
211 6.32723 0.910159 4.32943 0.5
212 12.6342 8.65365 0.33339 0.5
213 11.2741 1.38806 4.0649 0.5
214 5.56463 9.26414 10.6845 0.5
215 4.83611 10.8827 3.99111 0.5
216 10.2285 10.2106 9.20454 0.5
217 5.62504 2.77851 11.5265 0.5
218 0.0535853 9.327 0.493095 0.5
219 13.4709 3.78263 11.7762 0.5
220 7.99258 6.65636 0.77541 0.5
221 2.06829 1.93127 6.94435 0.5
222 4.62845 6.9717 11.4959 0.5
223 3.41264 9.2867 1.63539 0.5
224 1.33202 7.65925 8.49817 0.5
225 7.51932 8.02772 2.30695 0.5
226 7.21973 9.87102 0.538402 0.5
227 2.06562 1.48329 10.9704 0.5
228 3.54747 4.28236 11.5598 0.5
229 1.09808 5.1196 4.96306 0.5
230 2.23284 5.67041 6.56378 0.5
231 9.44902 11.1694 4.24873 0.5
232 6.95911 9.58292 5.83446 0.5
233 11.3229 0.756235 0.480874 0.5
234 7.62056 5.85437 12.6127 0.5
235 1.40032 10.0431 2.81694 0.5
236 13.3132 8.74756 12.1528 0.5
237 13.612 4.77796 11.1844 0.5
238 1.38825 7.79133 7.18369 0.5
239 11.3277 0.818174 2.45182 0.5
240 5.01975 1.80869 0.138492 0.5
241 4.59561 6.82065 9.63297 0.5
242 12.7102 10.3066 9.54511 0.5
243 1.61524 8.7831 0.340219 0.5
244 11.7572 9.27215 7.16323 0.5
245 4.43917 13.5515 3.71463 0.5
246 9.36234 6.48075 9.67352 0.5
247 10.1534 8.53204 6.86969 0.5
248 3.80744 5.60142 12.9018 0.5
249 4.15997 1.35025 3.94051 0.5
250 5.87426 12.9244 6.02134 0.5
251 0.484921 2.86816 11.8451 0.5
252 7.90966 7.03377 4.82818 0.5
253 6.71972 3.17176 11.4884 0.5
254 8.1142 1.94955 13.3068 0.5
255 12.2187 9.80837 2.25784 0.5
256 11.493 13.1982 6.43019 0.5
257 9.231 7.48183 12.1899 0.5
258 9.31668 1.12333 2.44896 0.5
259 5.88138 1.46905 1.35418 0.5
260 3.68476 9.73456 0.894337 0.5
261 10.0317 8.79139 12.6186 0.5
262 8.9222 12.8908 2.25478 0.5
263 4.92927 5.56472 7.37751 0.5
264 2.25404 10.573 8.87093 0.5
265 11.3408 9.53441 0.833222 0.5
266 1.51666 11.0663 0.240162 0.5
267 8.44618 13.3443 0.81163 0.5
268 9.09271 10.6233 8.9169 0.5
269 2.09379 1.59617 0.199762 0.5
270 6.99409 12.91 9.05072 0.5
271 7.81714 9.46261 11.7777 0.5
272 12.9813 11.2898 7.25114 0.5
273 12.529 5.15573 8.66727 0.5
274 5.18091 5.87497 0.661239 0.5
275 10.5906 7.46197 5.41672 0.5
276 2.10143 6.12716 4.71967 0.5
277 11.3764 12.6383 4.64182 0.5
278 3.91578 13.2117 10.0464 0.5
279 13.3473 2.54604 13.2006 0.5
280 6.27535 8.88177 12.6302 0.5
281 10.6644 4.93225 4.80724 0.5
282 11.9123 4.65864 12.9747 0.5
283 7.10516 5.7406 13.3159 0.5
284 0.69358 5.23384 4.62366 0.5
285 0.845216 4.82617 0.00108168 0.5
286 7.74315 7.99601 11.4159 0.5
287 13.4611 2.52949 8.78935 0.5
288 8.39077 6.21048 0.489796 0.5
289 1.65494 2.57545 9.12748 0.5
290 7.56898 4.44033 9.97567 0.5
291 9.2595 12.6499 0.746656 0.5
292 1.99856 0.33931 5.33896 0.5
293 3.07022 2.91608 12.6615 0.5
294 7.74646 13.4965 12.1691 0.5
295 8.0332 13.1688 10.1083 0.5
296 13.436 10.06 7.98113 0.5
297 2.94456 10.1817 2.79562 0.5
298 0.821811 -0.0267504 1.10441 0.5
299 13.5678 5.10101 13.4205 0.5
300 10.6925 5.34874 2.0113 0.5
301 0.50735 5.13902 11.7815 0.5
302 11.8256 4.39725 11.9754 0.5
303 12.1343 5.03885 11.6042 0.5
304 7.11092 2.2019 12.3028 0.5
305 6.03047 0.58941 10.8385 0.5
306 1.58453 6.32026 4.46697 0.5
307 10.1811 6.00507 1.99948 0.5
308 2.87203 12.7747 7.13892 0.5
309 1.8928 1.19227 8.72836 0.5
310 2.56551 2.35819 3.02496 0.5
311 8.36795 12.3829 7.26539 0.5
312 9.03835 6.52337 5.34589 0.5
313 1.55672 10.4002 8.95539 0.5
314 8.79138 5.38307 11.1044 0.5
315 9.99848 5.58397 12.5182 0.5
316 4.81772 10.7025 11.9331 0.5
317 9.72329 7.7306 2.60539 0.5
318 1.17707 7.73752 11.7938 0.5
319 5.2321 3.14964 10.3427 0.5
320 6.70307 10.4068 0.420405 0.5
321 10.7236 0.814634 2.28348 0.5
322 0.548778 4.12887 8.07257 0.5
323 10.7467 4.30374 11.076 0.5
324 1.59791 1.7567 0.775819 0.5
325 9.21401 3.43644 5.15877 0.5
326 2.13338 6.08128 13.1969 0.5
327 12.2926 10.2821 11.4511 0.5
328 9.77575 8.08321 13.0706 0.5
329 10.7383 10.3426 0.92279 0.5
330 0.260315 1.15344 8.91643 0.5
331 6.80349 11.1904 7.71072 0.5
332 5.34747 8.77262 6.39329 0.5
333 4.70715 10.5506 9.08769 0.5
334 4.60846 1.92944 9.70239 0.5
335 12.9782 9.36933 2.19082 0.5
336 5.78011 2.93128 4.13705 0.5
337 11.6485 0.273344 8.88872 0.5
338 3.92266 8.52296 4.27613 0.5
339 1.31206 0.955733 8.66924 0.5
340 6.56057 6.98565 0.566008 0.5
341 11.1094 1.99524 10.7311 0.5
342 12.4484 4.99496 5.64921 0.5
343 4.20012 4.6037 7.15311 0.5
344 0.213701 2.24754 10.1656 0.5
345 2.8247 5.50807 7.84739 0.5
346 10.4299 11.9054 0.0851433 0.5
347 11.2042 2.46904 4.584 0.5
348 5.29612 1.46941 6.49185 0.5
349 6.19047 6.64219 9.16533 0.5
350 5.66801 0.342861 9.99273 0.5
351 5.12664 3.69254 0.0629901 0.5
352 0.486723 3.21542 6.14332 0.5
353 7.0705 6.88124 1.77626 0.5
354 5.41182 1.07893 3.67566 0.5
355 13.4075 12.4053 8.41602 0.5
356 12.4156 6.18885 0.407271 0.5
357 3.96157 9.74511 11.1686 0.5
358 2.27719 6.1609 8.42466 0.5
359 9.65136 3.06269 13.5199 0.5
360 5.28437 2.51781 12.5864 0.5
361 6.53599 1.5916 8.95628 0.5
362 8.93115 12.3288 5.7987 0.5
363 13.1323 12.6852 1.8624 0.5
364 6.36085 8.27824 3.87202 0.5
365 7.97418 11.9167 11.3095 0.5
366 7.40025 2.91986 12.7863 0.5
367 2.39088 0.039165 6.21219 0.5
368 0.567048 2.54394 1.18807 0.5
369 0.973792 5.43702 2.47185 0.5
370 2.90205 3.51217 9.28394 0.5
371 12.0546 8.91183 10.5302 0.5
372 0.745245 0.106341 7.25929 0.5
373 7.90394 5.98066 13.1715 0.5
374 12.8091 10.7049 2.79511 0.5
375 8.28067 11.0535 5.6837 0.5
376 5.93904 2.06812 1.96474 0.5
377 3.49837 11.3937 3.66515 0.5
378 0.222298 13.3582 7.90442 0.5
379 12.6808 1.53757 8.65537 0.5
380 10.5641 11.7752 5.70677 0.5
381 1.34671 7.08278 2.72254 0.5
382 10.3399 5.9859 4.31652 0.5
383 -0.0186319 10.224 4.66943 0.5
384 12.6975 12.9425 5.36877 0.5
385 2.10493 2.10784 2.15074 0.5
386 2.46018 4.76196 10.9618 0.5
387 10.519 6.45914 7.49607 0.5
388 12.6449 3.24798 5.14744 0.5
389 6.84611 9.93975 13.0255 0.5
390 5.96399 7.62296 4.22858 0.5
391 10.1379 10.253 10.5599 0.5
392 7.85052 8.8967 9.8201 0.5
393 6.38625 13.471 8.41342 0.5
394 12.4504 13.2543 4.20694 0.5
395 9.12382 5.54618 2.65145 0.5
396 0.641669 5.58422 9.05886 0.5
397 2.60156 6.43249 10.435 0.5
398 12.6702 13.4926 3.92854 0.5
399 1.36261 13.0945 11.9742 0.5
400 11.887 4.16545 6.72175 0.5
401 5.25125 12.7601 9.90418 0.5
402 1.24333 8.28888 6.13415 0.5
403 9.27292 2.28682 0.379167 0.5
404 8.93206 6.77013 0.301017 0.5
405 3.58455 2.73854 10.4919 0.5
406 4.13684 7.05765 6.89918 0.5
407 0.0990076 1.23929 12.1586 0.5
408 8.07328 11.1361 9.25605 0.5
409 12.7036 7.86535 6.64517 0.5
410 7.75706 12.3035 11.1187 0.5
411 3.14205 8.01302 0.760793 0.5
412 6.05992 4.96009 1.70341 0.5
413 6.35251 4.37826 12.9035 0.5
414 10.1114 9.85718 6.34818 0.5
415 5.47004 0.611819 7.05983 0.5
416 5.5788 8.56 6.83232 0.5
417 1.09786 13.1784 3.28747 0.5
418 11.9602 5.94875 6.31283 0.5
419 4.58119 3.50729 1.26023 0.5
420 2.43432 1.37556 9.88822 0.5
421 2.49837 1.04015 9.21171 0.5
422 4.04762 4.50051 4.30626 0.5
423 0.959763 1.14328 2.4014 0.5
424 11.8877 10.2711 2.65017 0.5
425 5.82233 6.62751 9.05582 0.5
426 3.08603 10.2559 13.1909 0.5
427 3.74049 12.1065 6.12451 0.5
428 10.427 8.72075 3.02405 0.5
429 9.60869 11.946 10.1487 0.5
430 6.17217 3.01037 0.624081 0.5
431 4.24084 9.79383 6.61694 0.5
432 11.5618 0.434577 4.57432 0.5
433 7.22861 2.24815 10.9392 0.5
434 0.709719 3.61061 11.535 0.5
435 0.544346 3.35698 5.07654 0.5
436 8.90965 0.0982952 4.43729 0.5
437 2.34366 8.85782 6.49483 0.5
438 12.2776 3.84548 6.9494 0.5
439 2.05005 6.25127 8.02457 0.5
440 11.7878 2.94133 5.43902 0.5
441 9.11244 2.241 10.0424 0.5
442 9.89252 0.825536 7.3771 0.5
443 10.6488 8.95595 12.6133 0.5
444 1.71196 13.14 11.4746 0.5
445 11.8559 7.20629 3.97167 0.5
446 0.520913 12.6117 10.2386 0.5
447 9.32696 8.35978 11.4034 0.5
448 7.694 13.1026 8.03192 0.5
449 4.29585 11.4532 5.27235 0.5
450 7.22111 10.1383 8.84272 0.5
451 2.91911 0.685051 10.3834 0.5
452 12.0216 10.1239 10.7919 0.5
453 2.50688 9.22868 0.47637 0.5
454 9.64287 12.7123 11.1088 0.5
455 0.0923879 12.1776 1.19896 0.5
456 3.16063 9.89591 8.19197 0.5
457 5.17886 3.33271 9.07221 0.5
458 12.0195 7.97368 10.0756 0.5
459 11.9553 3.92508 6.03292 0.5
460 7.43373 4.66046 3.6631 0.5
461 6.47089 8.64262 7.46094 0.5
462 11.5455 1.15642 8.1513 0.5
463 10.3435 1.51734 3.62833 0.5
464 10.7856 12.1533 6.71125 0.5
465 11.8923 13.5834 1.73199 0.5
466 1.66076 11.6122 12.4391 0.5
467 12.613 13.2967 0.136439 0.5
468 11.1107 3.44188 7.80466 0.5
469 1.97115 5.48571 8.48827 0.5
470 11.2443 13.0352 13.377 0.5
471 5.06176 8.80117 7.21814 0.5
472 1.10585 9.34931 4.03508 0.5
473 5.41211 2.36317 2.79121 0.5
474 5.39991 4.34663 12.4627 0.5
475 1.271 12.9225 12.6089 0.5
476 0.794199 0.982982 1.2023 0.5
477 13.2469 4.03334 3.05961 0.5
478 10.7899 12.0101 12.1905 0.5
479 12.3237 1.75125 11.7876 0.5
480 10.8338 3.24321 5.21277 0.5
481 7.88338 12.4944 7.72884 0.5
482 2.01761 8.16632 4.68521 0.5
483 11.161 4.05606 6.44176 0.5
484 13.1321 0.991007 10.7051 0.5
485 3.89688 0.245375 13.3058 0.5
486 7.56046 8.33136 10.2721 0.5
487 10.3628 6.30867 1.04806 0.5
488 11.8972 6.22292 7.6038 0.5
489 12.2798 1.08825 6.62462 0.5
490 5.8213 5.04591 5.26506 0.5
491 8.19189 3.43311 2.80808 0.5
492 12.0338 6.63799 8.83117 0.5
493 13.4805 10.0927 1.36461 0.5
494 4.96103 8.29241 1.60115 0.5
495 10.3637 4.99033 2.54662 0.5
496 10.5423 3.52418 4.09667 0.5
497 12.8475 4.91295 11.4507 0.5
498 13.3367 7.2026 5.65621 0.5
499 7.07308 8.02017 6.44786 0.5
500 12.1562 10.3461 2.50963 0.5
501 6.03782 4.21399 10.2794 0.5
502 3.34536 8.76554 1.43427 0.5
503 9.42176 8.76528 12.6935 0.5
504 7.25907 4.9162 12.9586 0.5
505 4.19084 1.66908 9.86119 0.5
506 9.07129 6.21502 7.68261 0.5
507 3.56906 6.23236 12.0213 0.5
508 12.2065 5.84719 1.04107 0.5
509 12.1806 1.01155 8.92413 0.5
510 2.50296 5.52733 2.30851 0.5
511 8.0284 12.1274 6.59437 0.5
512 1.36122 7.91728 13.0514 0.5
513 1.47311 10.6056 11.3385 0.5
514 10.8553 9.20482 6.57141 0.5
515 6.56022 9.08825 6.25648 0.5
516 4.72838 3.11455 12.3362 0.5
517 10.4123 7.06933 3.65678 0.5
518 0.178574 11.123 8.35076 0.5
519 4.05059 0.690869 12.1952 0.5
520 6.25034 0.461034 3.73899 0.5
521 12.87 3.43172 12.1659 0.5
522 0.131102 9.3397 7.49244 0.5
523 1.27588 11.7816 11.8414 0.5
524 11.9991 2.92644 11.5664 0.5
525 10.8959 6.36383 0.103645 0.5
526 9.92381 6.13568 1.28172 0.5
527 3.0352 5.82461 11.7947 0.5
528 6.05546 11.8748 8.15566 0.5
529 5.22567 5.01143 11.6629 0.5
530 1.01328 12.1414 12.3754 0.5
531 5.51487 2.03929 12.8142 0.5
532 2.07367 8.40224 8.32687 0.5
533 13.4391 8.38111 5.38516 0.5
534 13.4546 9.25818 0.266054 0.5
535 4.46554 12.7222 4.70114 0.5
536 9.81024 10.0113 3.27666 0.5
537 10.6816 6.59161 4.3719 0.5
538 2.95642 10.7778 11.074 0.5
539 4.24222 2.63992 2.37901 0.5
540 0.44929 1.53638 1.57083 0.5
541 1.65729 3.59572 10.2673 0.5
542 6.67857 5.60756 2.01605 0.5
543 8.84584 10.5851 8.05851 0.5
544 4.08222 11.811 3.57906 0.5
545 5.11982 10.234 12.1557 0.5
546 8.68128 13.3132 10.5592 0.5
547 11.3488 12.0188 0.36258 0.5
548 4.54131 13.2886 7.5326 0.5
549 3.326 10.8007 3.74437 0.5
550 11.7111 1.59088 0.925428 0.5
551 12.9044 10.3604 10.7853 0.5
552 4.39243 7.31342 1.89195 0.5
553 5.43451 12.2621 13.1037 0.5
554 7.81459 12.9257 5.06849 0.5
555 2.68527 0.116999 5.70619 0.5
556 6.71161 2.39875 4.07935 0.5
557 12.2622 7.90059 12.2525 0.5
558 5.53796 13.2001 2.82804 0.5
559 13.5554 4.36021 4.07938 0.5
560 0.686834 5.97871 2.94524 0.5
561 9.89783 1.55142 1.5456 0.5
562 5.61329 13.3385 2.40851 0.5
563 5.20142 6.99423 10.7472 0.5
564 9.44387 10.4474 3.59666 0.5
565 6.41467 11.3192 5.07478 0.5
566 13.0494 11.7537 12.0137 0.5
567 13.3612 11.3598 8.68581 0.5
568 12.0042 8.45306 5.79493 0.5
569 10.3417 7.98742 1.62568 0.5
570 0.402134 7.93978 0.622142 0.5
571 12.1547 3.78719 4.06073 0.5
572 3.80588 11.7665 11.6876 0.5
573 2.60611 7.49783 6.23566 0.5
574 9.11095 8.53753 2.3135 0.5
575 5.73846 7.94466 13.2051 0.5
576 8.96323 8.47096 6.56147 0.5
577 7.8547 11.1042 6.34287 0.5
578 6.99345 4.11912 4.55636 0.5
579 3.24917 0.657861 13.4395 0.5
580 0.687982 1.22062 3.53103 0.5
581 2.96672 13.1658 3.62659 0.5
582 5.7789 1.08692 12.7612 0.5
583 1.31757 8.79585 4.84959 0.5
584 10.3021 2.06272 1.3148 0.5
585 2.06157 0.282365 11.639 0.5
586 13.2266 8.3309 5.00368 0.5
587 3.24883 13.1552 6.08222 0.5
588 1.8269 1.54437 11.5533 0.5
589 0.0980498 12.0268 10.1186 0.5
590 13.341 4.41887 10.0625 0.5
591 4.1424 8.03654 1.14977 0.5
592 5.9532 3.01952 8.98113 0.5
593 6.91298 6.20602 9.02212 0.5
594 0.825779 1.02912 1.52393 0.5
595 6.48224 10.8279 1.32341 0.5
596 13.313 11.9452 3.66574 0.5
597 6.21539 4.44689 7.8011 0.5
598 11.3515 10.9097 6.39521 0.5
599 11.9146 7.21496 6.00862 0.5
600 10.7604 12.5465 1.17225 0.5
601 2.16314 5.42979 1.2272 0.5
602 8.95092 6.97791 7.10944 0.5
603 0.746 2.68635 5.31127 0.5
604 7.90348 3.67246 4.25803 0.5
605 7.84996 9.29634 2.90253 0.5
606 7.31608 11.6903 6.13459 0.5
607 3.22201 5.1094 1.66165 0.5
608 0.212943 2.92536 0.812703 0.5
609 9.59479 7.08571 6.0684 0.5
610 12.6104 6.31293 1.20409 0.5
611 4.57562 3.64253 2.7477 0.5
612 5.69904 3.9564 4.52267 0.5
613 5.17641 11.9352 3.07503 0.5
614 12.6453 3.9302 2.9566 0.5
615 11.3485 6.73312 1.30321 0.5
616 4.84159 10.274 8.01492 0.5
617 5.47976 6.30947 9.02983 0.5
618 10.2178 6.81879 5.26018 0.5
619 13.1181 8.31203 6.8032 0.5
620 13.3568 12.1202 11.5172 0.5
621 6.61495 6.31768 0.219449 0.5
622 7.27346 4.78231 10.8672 0.5
623 3.71946 12.7839 8.55331 0.5
624 1.65306 8.60849 4.11923 0.5
625 4.51353 9.00787 0.962748 0.5
626 2.14439 8.5901 8.41848 0.5
627 9.96882 0.154297 0.312819 0.5
628 11.9297 5.66902 7.70884 0.5
629 11.8599 13.4861 10.9296 0.5
630 6.41154 3.96797 2.44546 0.5
631 10.9692 0.265878 13.0867 0.5
632 11.4455 5.96383 4.23784 0.5
633 6.80837 3.57186 3.28834 0.5
634 13.3667 10.3773 3.56619 0.5
635 1.78074 1.255 6.66859 0.5
636 8.57849 11.7292 9.61613 0.5
637 9.27789 1.80809 9.88195 0.5
638 12.3102 11.4664 1.4122 0.5
639 1.33267 7.09031 11.4686 0.5
640 12.0694 12.8318 10.8255 0.5
641 7.53827 1.22767 9.42032 0.5
642 4.16995 1.97702 7.89384 0.5
643 5.58561 7.78933 2.40621 0.5
644 5.88957 7.44169 12.9276 0.5
645 8.78602 10.1686 1.13015 0.5
646 4.22101 4.80977 10.5485 0.5
647 0.913541 12.6916 9.15606 0.5
648 6.80735 5.27336 9.06847 0.5
649 7.0685 5.84781 4.4125 0.5
650 6.89875 3.5811 7.95346 0.5
651 0.244428 13.2952 9.55617 0.5
652 12.2267 5.5288 3.59655 0.5
653 13.2863 6.89809 4.57325 0.5
654 1.53682 11.0481 11.6531 0.5
655 6.58265 9.36432 4.22841 0.5
656 0.853939 10.0967 1.73757 0.5
657 2.48148 9.87127 6.90171 0.5
658 3.84914 6.25428 3.50712 0.5
659 12.9072 4.72853 8.10045 0.5
660 13.5019 1.12785 3.93566 0.5
661 9.13408 3.76499 8.53494 0.5
662 1.99045 8.55294 7.09858 0.5
663 9.15058 2.22972 13.0561 0.5
664 6.24396 9.02376 1.99189 0.5
665 1.2586 8.21693 1.98198 0.5
666 11.998 9.85489 7.58638 0.5
667 13.0554 12.9221 0.281946 0.5
668 1.77385 4.22369 4.12252 0.5
669 10.8637 9.69417 3.96551 0.5
670 9.88687 10.7672 7.10438 0.5
671 8.20928 12.1477 5.78412 0.5
672 10.4885 11.0257 7.69249 0.5
673 7.8974 9.9394 1.65922 0.5
674 11.4068 4.67944 0.959493 0.5
675 7.86873 7.2852 7.1968 0.5
676 8.20747 12.4315 1.69431 0.5
677 0.511868 9.00001 11.1148 0.5
678 13.1909 12.9678 11.079 0.5
679 10.0269 8.69379 12.605 0.5
680 10.6657 0.0703172 5.94364 0.5
681 12.5376 12.8727 6.50573 0.5
682 10.1863 11.3652 7.49252 0.5
683 10.4078 7.301 9.43702 0.5
684 2.93761 3.13414 5.79426 0.5
685 12.0657 1.78812 13.3413 0.5
686 7.23811 8.70991 11.3912 0.5
687 8.66762 2.91681 10.0765 0.5
688 7.07755 0.946815 7.82855 0.5
689 2.27105 13.0358 3.84915 0.5
690 12.2817 13.5209 10.5127 0.5
691 2.79104 7.14511 13.1901 0.5
692 12.0607 0.717404 1.39445 0.5
693 8.66788 3.03001 0.40158 0.5
694 8.18618 8.03827 10.9096 0.5
695 0.714786 4.62664 8.26919 0.5
696 10.4923 5.87788 5.58982 0.5
697 4.61206 1.52006 7.52842 0.5
698 12.7937 3.9163 10.7871 0.5
699 11.7422 4.2226 2.09602 0.5
700 3.5889 8.1746 7.1535 0.5
701 1.56507 5.34572 3.78552 0.5
702 10.946 7.63104 5.68381 0.5
703 11.4205 5.04352 1.87227 0.5
704 5.26414 9.60047 4.87089 0.5
705 0.564464 8.34485 10.1737 0.5
706 5.20422 5.39203 4.27257 0.5
707 12.7945 5.71968 8.85746 0.5
708 11.0672 1.15398 9.11211 0.5
709 5.76939 6.49693 5.49304 0.5
710 5.71805 2.77265 5.63955 0.5
711 13.3941 10.6777 1.96573 0.5
712 7.22572 3.39232 9.8717 0.5
713 2.05739 3.77075 1.63519 0.5
714 9.11807 10.8908 5.78463 0.5
715 12.9394 13.1142 2.59495 0.5
716 9.93277 3.7785 0.447908 0.5
717 1.1495 8.35439 1.80577 0.5
718 7.52163 7.40875 12.0025 0.5
719 11.1353 8.00335 2.89991 0.5
720 12.156 9.28727 5.622 0.5
721 6.11382 1.70265 2.40627 0.5
722 7.39438 10.8824 8.00724 0.5
723 5.12277 9.85153 6.27051 0.5
724 3.28811 10.5184 8.43849 0.5
725 7.17362 12.8066 11.4177 0.5
726 2.99433 6.38977 11.7229 0.5
727 5.05599 5.20755 0.572682 0.5
728 9.69523 6.35175 12.5894 0.5
729 2.32957 1.2656 4.80006 0.5
730 3.27495 6.79206 6.36004 0.5
731 5.19818 2.30262 9.81214 0.5
732 9.80022 7.9742 2.40839 0.5
733 1.67454 0.497111 12.1888 0.5
734 9.98289 8.54947 7.47053 0.5
735 4.62958 6.3536 11.434 0.5
736 11.7477 2.78854 1.2159 0.5
737 11.1239 4.04887 4.54746 0.5
738 7.11391 12.0748 7.61518 0.5
739 0.481598 8.7884 5.36102 0.5
740 2.73727 12.2865 13.3234 0.5
741 9.26867 12.901 11.1572 0.5
742 2.49951 4.86249 13.529 0.5
743 1.78719 9.07915 9.43964 0.5
744 6.98755 8.56749 6.76431 0.5
745 2.16922 11.2729 1.11367 0.5
746 1.58112 13.047 4.8664 0.5
747 8.05308 10.8715 1.59548 0.5
748 9.0357 5.11594 9.09736 0.5
749 5.19425 0.46294 0.760592 0.5
750 2.63968 3.55054 3.78538 0.5
751 4.8348 0.950086 6.25576 0.5
752 11.1433 11.0542 3.66189 0.5
753 4.51385 4.61031 0.353793 0.5
754 3.39133 10.4296 0.596569 0.5
755 1.3692 9.26364 9.06787 0.5
756 0.161735 8.72339 7.86877 0.5
757 0.799205 5.42231 10.5943 0.5
758 11.6394 11.737 5.78963 0.5
759 5.18818 0.146865 4.41614 0.5
760 9.59402 8.41612 5.25516 0.5
761 9.93099 12.2439 2.16745 0.5
762 0.197277 9.3054 1.19559 0.5
763 9.14379 1.38573 9.60849 0.5
764 7.80669 10.8883 0.398876 0.5
765 4.81938 1.64201 12.2215 0.5
766 2.7147 8.10212 10.9054 0.5
767 10.0437 4.06949 8.77283 0.5
768 12.1735 13.2514 2.66802 0.5
769 12.5443 13.024 5.8878 0.5
770 11.0308 9.60091 0.00442219 0.5
771 5.68336 0.769644 8.25894 0.5
772 9.4035 3.71784 11.0466 0.5
773 7.31194 8.55116 12.2424 0.5
774 0.0508392 11.0039 4.07716 0.5
775 10.3535 11.5676 11.8374 0.5
776 8.98285 11.1589 8.69404 0.5
777 13.3345 8.87935 2.65575 0.5
778 8.35939 2.11065 3.39687 0.5
779 5.38367 8.60018 12.7928 0.5
780 4.02356 8.22855 11.0158 0.5
781 11.5639 9.55811 13.1279 0.5
782 4.45467 12.8934 10.8778 0.5
783 5.65411 13.2497 9.26987 0.5
784 5.8001 6.43286 6.8017 0.5
785 11.8127 5.21494 11.6842 0.5
786 2.82186 2.90219 6.65962 0.5
787 8.93362 8.05998 9.82694 0.5
788 6.97791 11.1745 11.23 0.5
789 10.4755 5.22738 13.4259 0.5
790 2.16094 13.2525 8.56451 0.5
791 8.52169 8.29504 11.0556 0.5
792 5.78556 9.89625 6.1739 0.5
793 1.47813 3.45301 11.5286 0.5
794 2.24306 0.170936 8.7004 0.5
795 9.5287 11.1424 6.23084 0.5
796 10.5499 7.29601 7.73261 0.5
797 6.43571 -0.0203407 12.7086 0.5
798 11.2113 10.6321 1.13648 0.5
799 8.69155 13.5522 8.77265 0.5
800 9.85974 6.64738 3.80341 0.5
801 10.2753 4.72227 11.2319 0.5
802 3.11383 4.8186 1.61688 0.5
803 11.1807 11.0941 6.17533 0.5
804 13.1933 9.97565 12.1989 0.5
805 0.68566 0.552914 1.14912 0.5
806 0.943003 10.4102 11.3969 0.5
807 9.19005 3.30298 10.3892 0.5
808 5.16032 0.959139 11.3534 0.5
809 1.70375 11.3795 9.92835 0.5
810 7.74667 0.929772 8.85508 0.5
811 4.49724 0.99613 2.95372 0.5
812 1.65256 6.59993 0.904423 0.5
813 10.3252 2.25141 6.62226 0.5
814 12.0708 8.10665 9.29497 0.5
815 12.7337 7.45237 1.13503 0.5
816 2.45442 9.67366 4.16802 0.5
817 13.5429 2.35239 3.87617 0.5
818 7.93805 7.5542 10.63 0.5
819 12.949 9.71082 7.23834 0.5
820 7.41659 10.4833 4.87962 0.5
821 10.9458 0.0660741 0.0649777 0.5
822 12.2615 4.20938 11.711 0.5
823 7.72998 9.48215 8.17878 0.5
824 12.0034 6.60223 6.40629 0.5
825 9.0096 11.8196 8.56581 0.5
826 13.5595 6.70626 1.16901 0.5
827 1.99128 8.30948 0.789749 0.5
828 11.7979 9.3341 9.56012 0.5
829 9.2125 4.24405 9.2462 0.5
830 1.41395 2.62505 1.61053 0.5
831 5.00228 10.9698 7.84474 0.5
832 0.538103 2.30446 10.7109 0.5
833 11.8639 5.93013 0.464444 0.5
834 5.18126 3.10525 11.0427 0.5
835 12.9158 6.96142 10.1475 0.5
836 0.69293 9.61484 9.71412 0.5
837 13.5154 5.09882 5.01771 0.5
838 11.0938 9.25984 12.542 0.5
839 0.78385 13.5272 8.01405 0.5
840 12.6294 7.11894 4.83136 0.5
841 10.8094 8.2864 7.19522 0.5
842 5.24417 8.4464 11.3544 0.5
843 5.90254 0.629681 3.29648 0.5
844 3.11659 5.40432 6.17772 0.5
845 1.35527 4.02066 4.39626 0.5
846 9.99076 2.75527 10.8899 0.5
847 10.0948 7.51021 7.91636 0.5
848 6.05877 8.66881 5.74828 0.5
849 7.34344 8.57853 12.7764 0.5
850 0.802603 7.15774 7.63072 0.5
851 4.73697 7.81183 6.12757 0.5
852 11.829 10.5791 9.32333 0.5
853 9.37785 0.777128 3.14091 0.5
854 1.97795 1.71758 10.1613 0.5
855 10.2979 0.580901 12.5522 0.5
856 5.98468 4.77129 10.6782 0.5
857 3.71002 9.37414 11.8225 0.5
858 7.83468 9.40671 6.90949 0.5
859 11.4711 12.0522 2.80907 0.5
860 10.337 2.88239 3.34451 0.5
861 7.77371 3.42798 7.19304 0.5
862 8.38662 10.5508 13.1746 0.5
863 8.01976 7.91148 7.24172 0.5
864 8.30115 6.17164 11.9984 0.5
865 5.8447 8.71024 3.21292 0.5
866 12.68 8.74324 13.3359 0.5
867 1.77634 1.842 6.19291 0.5
868 5.40042 4.44846 13.4786 0.5
869 12.3107 4.1371 0.637569 0.5
870 8.15701 10.8693 4.47361 0.5
871 12.9476 13.5741 1.47771 0.5
872 3.82484 9.23012 6.70111 0.5
873 11.2106 5.73204 8.55943 0.5
874 4.84159 8.04004 3.62229 0.5
875 6.19755 11.6655 12.4664 0.5
876 6.93292 2.2722 10.9598 0.5
877 1.94501 11.9678 2.07101 0.5
878 9.60225 7.3451 3.92276 0.5
879 12.7196 12.6385 6.04912 0.5
880 11.396 1.79173 10.0425 0.5
881 11.6667 3.41126 7.54116 0.5
882 11.5406 8.57969 2.54795 0.5
883 11.9512 4.891 0.274829 0.5
884 9.76767 8.0978 4.86472 0.5
885 4.6235 2.92103 7.47715 0.5
886 10.9344 6.7685 8.56856 0.5
887 0.91022 2.83458 3.26559 0.5
888 12.4107 5.9674 9.28126 0.5
889 5.15397 1.49664 9.23329 0.5
890 10.7236 3.24644 6.52634 0.5
891 12.3521 2.94266 1.18274 0.5
892 1.75586 11.6859 8.48945 0.5
893 12.6619 1.96038 0.620585 0.5
894 10.1765 5.89188 10.1917 0.5
895 0.739665 8.4393 6.81203 0.5
896 5.79987 11.5489 6.45559 0.5
897 12.0039 13.2596 9.90731 0.5
898 6.02788 12.7554 8.67841 0.5
899 12.6284 4.86105 6.66439 0.5
900 3.61994 9.09299 3.24095 0.5
901 10.8828 0.525031 7.06476 0.5
902 0.809652 12.4597 2.28427 0.5
903 -0.100016 3.73434 12.7945 0.5
904 11.2998 6.8754 1.75284 0.5
905 7.67048 6.26563 10.7797 0.5
906 13.3081 7.35236 0.137605 0.5
907 11.4247 13.1991 3.28269 0.5
908 1.65476 11.4104 9.04002 0.5
909 9.83215 9.6838 9.45018 0.5
910 3.63436 0.740645 12.7073 0.5
911 8.23899 4.80386 2.84445 0.5
912 0.467671 3.51663 4.93438 0.5
913 0.657047 9.08518 11.0243 0.5
914 2.20051 12.9659 6.54035 0.5
915 8.77153 8.46871 8.59747 0.5
916 2.82339 0.59958 5.89954 0.5
917 8.49809 5.7 10.5564 0.5
918 1.40651 9.76369 2.54223 0.5
919 5.82783 12.8131 2.90676 0.5
920 9.73757 2.04944 9.15566 0.5
921 2.28955 6.28455 10.0721 0.5
922 0.354938 13.2151 11.5004 0.5
923 5.31464 1.83429 0.712311 0.5
924 5.47399 10.099 7.64891 0.5
925 11.6663 11.0277 13.2572 0.5
926 3.81134 7.38049 12.2714 0.5
927 8.45485 9.36522 4.67249 0.5
928 2.6584 2.82709 3.59967 0.5
929 10.4417 12.6489 8.62249 0.5
930 7.86567 10.4029 6.70395 0.5
931 3.50775 12.1694 8.51075 0.5
932 11.1155 5.06543 9.36011 0.5