ITEM: TIMESTEP
360000
ITEM: NUMBER OF ATOMS
1000
ITEM: BOX BOUNDS xy xz yz pp pp pp
0.0000000000000000e+00 1.3572088000000001e+01 0.0000000000000000e+00
0.0000000000000000e+00 1.3572088000000001e+01 0.0000000000000000e+00
0.0000000000000000e+00 1.3572088000000001e+01 0.0000000000000000e+00
ITEM: ATOMS id x y z radius
1 10.634 5.95342 7.09334 0.5
2 12.0729 10.7472 4.74854 0.5
3 9.57218 12.0404 6.59998 0.5
4 3.80414 7.77944 3.00891 0.5
5 0.565293 3.2731 8.67974 0.5
6 2.7655 5.06652 0.724696 0.5
7 12.9327 3.90556 4.41114 0.5
8 0.373012 6.41491 9.27185 0.5
9 3.19293 2.56892 3.90985 0.5
10 1.74521 5.93937 5.62551 0.5
11 9.43302 13.188 4.34347 0.5
12 13.3409 7.46092 3.75393 0.5
13 1.65379 4.02286 7.79611 0.5
14 2.97843 13.3524 0.723194 0.5
15 7.90058 8.8982 6.64024 0.5
16 5.42333 3.70728 12.3769 0.5
17 9.06193 8.56154 3.03426 0.5
18 3.78358 7.66385 4.83054 0.5
19 11.907 8.75554 9.96216 0.5
20 13.2674 7.94724 2.22148 0.5
21 8.23485 0.743519 2.59082 0.5
22 3.33657 4.14394 2.26072 0.5
23 0.288971 3.13457 6.9873 0.5
24 5.20179 13.4059 7.3688 0.5
25 11.9042 8.66912 3.95285 0.5
26 5.34881 11.3761 2.47129 0.5
27 10.4971 10.1815 5.51489 0.5
28 11.4668 5.25081 4.72789 0.5
29 3.03615 9.11041 1.59422 0.5
30 12.075 0.155619 3.7807 0.5
31 8.73871 9.66126 13.4887 0.5
32 8.18054 10.4399 7.18359 0.5
33 11.9634 13.4358 11.7187 0.5
34 13.192 4.21274 3.2665 0.5
35 1.69089 4.15049 1.27093 0.5
36 5.66917 7.74521 12.6914 0.5
37 2.36396 9.36566 4.49024 0.5
38 10.7835 6.85456 13.4198 0.5
39 9.52421 10.1772 1.7771 0.5
40 0.559641 10.9052 7.74512 0.5
41 6.00309 1.0777 5.00609 0.5
42 0.969186 3.74388 1.68624 0.5
43 9.54029 10.1448 7.77016 0.5
44 0.705563 5.79766 9.46364 0.5
45 8.10391 1.42221 5.69569 0.5
46 1.28363 4.57546 5.92836 0.5
47 11.9973 1.39678 4.54979 0.5
48 8.63064 8.5073 8.46963 0.5
49 6.63591 7.72889 8.9635 0.5
50 0.900248 8.47961 1.64551 0.5
51 1.94796 12.5546 11.1046 0.5
52 9.27674 10.4038 2.38758 0.5
53 0.76835 10.9728 7.09778 0.5
54 9.36918 1.10297 2.5453 0.5
55 3.09892 0.97011 13.247 0.5
56 6.74606 0.312522 2.99511 0.5
57 13.2179 2.35858 1.32609 0.5
58 2.79169 0.889875 11.4773 0.5
59 10.2314 12.6781 0.0575425 0.5
60 5.46654 10.8052 6.50342 0.5
61 3.54953 3.14378 2.03946 0.5
62 5.51664 0.26491 1.26432 0.5
63 0.562424 5.11407 8.70382 0.5
64 9.0152 1.82478 9.4456 0.5
65 12.7697 8.44978 0.849799 0.5
66 8.60798 2.18708 5.60021 0.5
67 10.4523 6.28682 4.10318 0.5
68 11.758 11.0331 1.013 0.5
69 10.9609 5.33865 8.3549 0.5
70 1.857 3.77273 1.01526 0.5
71 8.29457 7.63148 8.47938 0.5
72 9.30813 13.2461 1.23116 0.5
73 13.4556 1.78724 0.203367 0.5
74 12.0954 10.527 9.53371 0.5
75 9.78421 2.38801 1.29289 0.5
76 0.960934 0.396036 13.1266 0.5
77 7.30064 3.08987 1.07007 0.5
78 10.2205 1.06378 4.48634 0.5
79 2.40421 11.1383 2.85151 0.5
80 3.15221 10.7834 6.31123 0.5
81 10.5252 13.1748 12.0278 0.5
82 4.71814 7.87642 4.00045 0.5
83 4.54264 7.02302 13.402 0.5
84 13.3685 6.48545 12.5979 0.5
85 9.1867 9.55002 12.4626 0.5
86 6.75587 0.723723 2.72591 0.5
87 12.8839 13.429 4.0307 0.5
88 3.22914 4.38141 5.79752 0.5
89 5.63417 8.63775 10.2056 0.5
90 3.26841 12.9027 1.63329 0.5
91 6.23012 4.74728 6.29776 0.5
92 11.1948 9.50363 1.98255 0.5
93 8.81247 4.70167 2.25751 0.5
94 12.5199 9.48811 9.93952 0.5
95 3.06303 12.3995 13.1941 0.5
96 0.838331 10.312 0.288959 0.5
97 3.1991 0.870912 10.8247 0.5
98 3.56156 8.30022 9.34931 0.5
99 8.74665 12.243 9.83907 0.5
100 0.624545 5.89592 0.408941 0.5
101 9.91849 2.62243 4.61345 0.5
102 10.6354 7.69208 10.9762 0.5
103 11.2168 0.186326 11.3313 0.5
104 5.5777 8.12367 10.0763 0.5
105 10.6768 0.711811 6.31319 0.5
106 7.36264 7.85665 6.20197 0.5
107 11.9793 9.61544 2.391 0.5
108 6.54532 8.75481 5.88126 0.5
109 9.44131 0.898531 11.6279 0.5
110 3.45681 8.84958 1.4752 0.5
111 0.108499 9.11776 0.995625 0.5
112 11.9336 3.49031 9.87307 0.5
113 12.1999 9.27515 5.08025 0.5
114 5.75927 10.1334 11.1376 0.5
115 7.73263 13.2222 2.83375 0.5
116 7.28861 2.60921 4.81479 0.5
117 8.17939 9.31483 5.77035 0.5
118 7.29716 2.54773 5.87333 0.5
119 3.85805 5.14744 7.75251 0.5
120 10.293 8.46833 2.49973 0.5
121 0.29968 3.00719 4.98137 0.5
122 7.34781 7.37065 1.97615 0.5
123 12.3868 10.0222 12.4517 0.5
124 2.699 12.3824 5.67809 0.5
125 2.55543 10.4517 11.4387 0.5
126 11.1414 5.91671 4.4755 0.5
127 1.62326 8.46603 12.327 0.5
128 10.978 7.56617 3.22642 0.5
129 10.1543 0.736936 11.9764 0.5
130 0.545803 3.09545 9.31473 0.5
131 10.8906 5.18126 0.0248056 0.5
132 6.91945 6.08544 6.50551 0.5
133 11.3012 7.38174 4.67667 0.5
134 2.77113 5.3735 5.44794 0.5
135 3.99609 11.8122 5.86503 0.5
136 5.84287 3.25342 11.2226 0.5
137 11.8906 0.411102 2.14194 0.5
138 3.12927 0.346273 0.426907 0.5
139 5.23727 12.9666 12.9041 0.5
140 9.0946 0.106659 8.59799 0.5
141 6.70103 7.90148 4.74661 0.5
142 8.9046 11.1497 9.62253 0.5
143 12.1152 2.63671 2.81827 0.5
144 3.77009 7.74215 4.60144 0.5
145 1.76169 12.2778 1.81552 0.5
146 10.146 2.29448 11.8392 0.5
147 11.0319 3.78121 4.32031 0.5
148 9.90803 11.1661 7.66389 0.5
149 3.5551 5.60964 3.81907 0.5
150 5.00141 11.3313 5.85673 0.5
151 4.44081 12.985 6.28481 0.5
152 4.76695 8.07358 5.71734 0.5
153 7.38499 11.4041 7.62037 0.5
154 7.97364 4.21961 0.848261 0.5
155 2.81159 5.29335 8.21734 0.5
156 13.3559 5.18711 5.93187 0.5
157 2.333 6.35143 5.82188 0.5
158 13.5128 7.06505 7.15747 0.5
159 10.3584 1.93123 10.6078 0.5
160 0.152805 3.49319 3.23594 0.5
161 0.772666 0.731406 11.4208 0.5
162 1.60107 8.62435 0.702031 0.5
163 0.953701 1.66523 4.27544 0.5
164 6.63431 1.24077 4.09385 0.5
165 4.34969 2.37607 7.98995 0.5
166 4.15466 6.27226 6.91157 0.5
167 9.72509 9.15738 13.5095 0.5
168 6.95578 7.84114 1.89697 0.5
169 4.8031 4.84307 8.17147 0.5
170 8.83296 11.0509 7.94576 0.5
171 9.24113 2.14428 13.4285 0.5
172 12.6351 10.0378 3.8702 0.5
173 9.05529 13.015 3.66366 0.5
174 6.2088 10.8055 12.1922 0.5
175 7.58963 1.36738 4.07093 0.5
176 9.59008 0.232596 8.67433 0.5
177 10.8256 11.5192 4.86657 0.5
178 7.56597 12.9183 7.32536 0.5
179 6.18544 6.13476 2.75743 0.5
180 6.21029 10.4563 6.71847 0.5
181 8.53708 13.0562 6.86235 0.5
182 0.576186 9.96776 11.9557 0.5
183 0.956432 6.71876 8.28399 0.5
184 3.69498 13.2503 6.5766 0.5
185 12.9679 3.96788 8.39803 0.5
186 5.11532 5.09231 13.5238 0.5
187 12.7739 7.36378 3.42523 0.5
188 7.49916 5.17456 12.4746 0.5
189 5.93074 0.869953 12.0483 0.5
190 8.43867 7.523 13.0943 0.5
191 8.8109 4.38156 12.0316 0.5
192 3.91803 6.24673 9.53737 0.5
193 7.53533 0.0352843 2.51778 0.5
194 12.7048 5.54438 7.59612 0.5
195 3.74124 2.36998 0.841803 0.5
196 4.48135 4.82989 10.2479 0.5
197 5.36453 9.60043 0.780024 0.5
198 7.16419 7.03866 3.37627 0.5
199 8.09793 1.69241 4.56834 0.5
200 3.56615 6.29672 1.82419 0.5
201 9.88961 2.5293 5.66491 0.5
202 11.7295 13.3993 8.81063 0.5
203 10.2315 6.75357 9.90715 0.5
204 8.30879 11.8599 7.0783 0.5
205 1.23886 4.23417 12.8364 0.5
206 7.70583 5.681 6.84699 0.5
207 8.47513 12.1555 7.98528 0.5
208 13.2392 5.99881 7.05762 0.5
209 7.98316 3.34903 2.7115 0.5
210 11.1479 11.9536 10.0508 0.5
211 10.9871 10.2029 10.6377 0.5
212 5.39003 9.94813 13.1398 0.5
213 8.85035 12.0227 1.63199 0.5
214 6.39346 3.81489 4.93078 0.5
215 9.50137 10.8139 2.94829 0.5
216 6.40777 12.4734 13.1722 0.5
217 2.96106 13.1405 7.06526 0.5
218 1.7503 12.4479 7.71641 0.5
219 3.6114 5.0453 1.19068 0.5
220 5.60518 1.84394 12.7115 0.5
221 13.1857 13.5617 0.0489072 0.5
222 7.17141 4.34742 9.27758 0.5
223 0.469695 10.6923 0.120466 0.5
224 3.89744 1.67507 5.17522 0.5
225 2.45424 8.4334 6.47015 0.5
226 12.7565 4.21389 4.3541 0.5
227 1.79709 8.23407 11.5955 0.5
228 9.28192 10.5792 10.0995 0.5
229 5.43271 4.38562 5.94591 0.5
230 4.3767 6.17173 5.26325 0.5
231 11.4162 0.556126 3.82571 0.5
232 0.281141 9.36728 12.2566 0.5
233 10.8306 8.94102 1.8313 0.5
234 8.25248 6.65609 1.74798 0.5
235 9.0428 0.58341 5.79039 0.5
236 2.09874 13.2906 3.8012 0.5
237 5.45484 5.42788 3.32327 0.5
238 5.80597 0.616833 4.00251 0.5
239 11.9249 2.27989 4.25442 0.5
240 12.3783 10.3504 10.176 0.5
241 10.6947 3.04372 4.92468 0.5
242 12.2464 2.29333 8.31434 0.5
243 6.10447 9.98601 12.2817 0.5
244 11.1789 6.04581 8.92803 0.5
245 11.6599 0.974639 12.5316 0.5
246 1.81829 7.21179 13.3323 0.5
247 0.760256 1.9579 1.89412 0.5
248 2.41745 12.6157 11.2885 0.5
249 1.21033 9.65258 7.92012 0.5
250 1.71047 7.09984 10.6916 0.5
251 10.9918 10.5899 0.711227 0.5
252 3.04687 7.87989 6.51826 0.5
253 4.35625 10.0405 10.9907 0.5
254 3.64161 7.81179 9.34626 0.5
255 8.99182 10.833 6.86588 0.5
256 1.86659 7.34412 3.27989 0.5
257 10.7846 8.25255 12.707 0.5
258 7.48293 2.97902 5.27237 0.5
259 8.63729 13.2322 11.9675 0.5
260 2.44737 7.09084 7.04144 0.5
261 9.05424 5.93279 1.96163 0.5
262 2.80851 11.2811 3.70951 0.5
263 3.44784 3.16637 0.786809 0.5
264 6.33932 -0.0784016 1.54565 0.5
265 7.45664 9.42215 10.6631 0.5
266 9.54516 4.74134 7.9896 0.5
267 2.18381 3.05311 3.77899 0.5
268 3.90067 5.53393 7.8554 0.5
269 8.24773 9.3519 7.86852 0.5
270 4.97821 1.06683 2.7428 0.5
271 8.53236 1.37074 0.174338 0.5
272 8.28898 4.26132 3.68302 0.5
273 7.14651 1.99104 8.44153 0.5
274 3.47848 9.14216 13.3635 0.5
275 7.82406 5.30081 6.84973 0.5
276 8.18824 12.7553 4.19872 0.5
277 2.83624 6.09039 12.4071 0.5
278 9.31456 10.9034 11.022 0.5
279 12.8822 11.1308 5.9982 0.5
280 5.51295 11.392 13.3893 0.5
281 1.32897 8.38277 8.15614 0.5
282 12.2923 12.7584 10.4577 0.5
283 5.80313 6.06068 3.10673 0.5
284 0.217604 11.5478 7.90524 0.5
285 9.69991 2.39919 5.39167 0.5
286 11.1389 3.87448 1.53523 0.5
287 11.3436 12.4621 11.6156 0.5
288 2.5884 6.08847 8.93608 0.5
289 4.22158 5.87716 8.81345 0.5
290 11.8656 2.91779 12.215 0.5
291 6.30538 1.25552 8.85972 0.5
292 4.92742 8.79388 0.805772 0.5
293 10.5055 2.0077 0.212618 0.5
294 11.6085 11.4861 12.5193 0.5
295 0.957487 12.6103 5.59694 0.5
296 10.4076 4.59398 5.12451 0.5
297 6.14821 6.74256 12.7783 0.5
298 13.0093 4.63712 7.52087 0.5
299 1.34058 12.6612 8.93872 0.5
300 12.1272 8.33045 10.6623 0.5
301 7.67359 11.54 7.42751 0.5
302 3.2054 8.88919 1.55202 0.5
303 5.17668 0.217929 1.94623 0.5
304 8.07944 3.53559 11.5424 0.5
305 9.58346 1.31306 13.1347 0.5
306 8.59833 0.538191 7.39301 0.5
307 7.57692 5.73668 10.0285 0.5
308 9.01299 4.4873 12.0011 0.5
309 2.35359 9.98872 6.74786 0.5
310 7.46702 7.26054 3.45249 0.5
311 7.92408 12.2056 0.819959 0.5
312 8.58617 1.81242 5.07726 0.5
313 5.33831 0.343083 12.9121 0.5
314 4.70742 9.2571 0.692401 0.5
315 6.64751 4.43872 12.2972 0.5
316 8.57782 4.02343 4.39997 0.5
317 3.48963 2.91431 9.15505 0.5
318 4.84378 13.1808 6.96621 0.5
319 12.3918 1.55112 10.2725 0.5
320 12.9726 2.49007 5.98646 0.5
321 12.4547 7.81019 10.7117 0.5
322 10.1779 3.94923 4.73908 0.5
323 7.61621 11.6025 3.77004 0.5
324 8.47266 1.58358 8.94609 0.5
325 0.814464 4.69842 10.4785 0.5
326 2.51209 2.25362 7.84089 0.5
327 12.3588 13.3192 11.6091 0.5
328 2.75735 7.47609 0.812527 0.5
329 3.23181 9.39508 4.46021 0.5
330 12.4818 2.07693 6.91892 0.5
331 5.56639 13.1182 6.09683 0.5
332 8.0369 2.33575 10.151 0.5
333 4.36439 10.312 11.5706 0.5
334 8.40816 4.32235 5.05005 0.5
335 6.10325 1.05903 3.52883 0.5
336 0.676318 4.79198 5.32736 0.5
337 11.9728 8.87398 9.91934 0.5
338 3.79116 9.48106 11.517 0.5
339 0.460847 3.27107 11.7984 0.5
340 7.02854 5.83046 9.51968 0.5
341 12.2779 4.73553 2.53153 0.5
342 -0.000300963 4.93009 7.7496 0.5
343 12.8864 4.6957 0.204367 0.5
344 2.81407 8.45963 3.8873 0.5
345 5.17745 1.8746 6.69573 0.5
346 11.3531 3.55086 7.20081 0.5
347 7.88214 0.535542 4.22081 0.5
348 13.4314 1.09675 4.96583 0.5
349 2.84588 2.12984 10.9071 0.5
350 9.81293 0.519387 2.72848 0.5
351 7.2372 7.64744 13.5477 0.5
352 12.3114 2.97424 5.2732 0.5
353 5.83556 8.98111 3.83594 0.5
354 2.9763 0.979231 2.33815 0.5
355 5.60568 2.57254 9.8155 0.5
356 10.9755 11.6587 9.68447 0.5
357 1.97647 5.12766 0.408363 0.5
358 10.3091 9.62146 5.57999 0.5
359 12.7112 3.25384 12.5023 0.5
360 1.29726 12.9633 13.0174 0.5
361 3.39515 5.66026 10.7172 0.5
362 5.91007 6.95796 5.88513 0.5
363 7.87173 13.475 11.1827 0.5
364 6.2123 7.51977 9.77087 0.5
365 4.20841 1.63141 12.9829 0.5
366 9.74901 3.38616 2.24648 0.5
367 13.3585 8.18927 7.54211 0.5
368 12.7627 2.91809 8.86134 0.5
369 3.97583 0.202435 1.05734 0.5
370 0.236778 5.07111 11.5527 0.5
371 10.3447 6.22209 0.859475 0.5
372 7.86377 4.64401 6.38021 0.5
373 12.1507 6.50593 11.1396 0.5
374 1.44197 0.39478 10.6934 0.5
375 6.58503 12.7591 1.80069 0.5
376 6.12542 13.5449 7.09381 0.5
377 7.39033 2.78811 11.8283 0.5
378 1.36637 10.5668 12.4449 0.5
379 4.39318 5.52786 12.849 0.5
380 2.86905 3.38038 7.88959 0.5
381 10.6961 7.53382 8.86312 0.5
382 6.94299 5.1895 7.8185 0.5
383 2.1212 10.36 9.59302 0.5
384 9.0532 11.287 10.8027 0.5
385 7.22329 9.84751 6.94816 0.5
386 1.64393 7.62975 3.36113 0.5
387 1.5438 0.426388 8.32507 0.5
388 13.3673 8.63847 10.5991 0.5
389 13.409 6.11133 0.293993 0.5
390 0.0973773 8.44175 8.95047 0.5
391 0.550996 10.5242 0.55695 0.5
392 8.61541 11.4486 5.73018 0.5
393 13.1184 12.7269 1.97838 0.5
394 12.1333 6.05465 1.64709 0.5
395 4.94924 9.51985 8.93081 0.5
396 1.56176 4.013 5.19312 0.5
397 9.01279 2.64927 8.76881 0.5
398 2.81027 3.30765 11.8218 0.5
399 5.76431 8.38516 5.49122 0.5
400 12.1933 3.18455 1.42098 0.5
401 1.18437 8.86121 6.40043 0.5
402 1.18681 8.20985 12.136 0.5
403 3.37747 4.29188 13.3894 0.5
404 9.17033 7.99774 4.2241 0.5
405 4.62093 7.51835 10.4276 0.5
406 11.1306 1.13789 1.36173 0.5
407 7.67878 4.10157 4.47172 0.5
408 7.20838 2.60117 12.9787 0.5
409 13.288 12.017 12.433 0.5
410 1.24413 1.59534 1.60438 0.5
411 5.02427 4.53736 10.8637 0.5
412 11.9332 8.55964 2.72393 0.5
413 13.4822 10.5881 1.25421 0.5
414 13.178 10.1148 12.5895 0.5
415 6.80067 8.30669 6.83811 0.5
416 8.79531 1.74747 10.1632 0.5
417 6.13197 2.28432 13.2389 0.5
418 13.4882 8.60454 8.81749 0.5
419 3.79439 1.93847 11.0623 0.5
420 12.8387 13.469 3.65155 0.5
421 2.05794 2.97509 5.46011 0.5
422 3.90404 11.5386 4.9125 0.5
423 7.95699 4.55953 4.87624 0.5
424 10.9062 6.86037 11.7391 0.5
425 0.981089 0.911562 9.82707 0.5
426 9.49005 6.1101 8.77434 0.5
427 4.27669 12.8923 9.43271 0.5
428 12.0629 6.18902 7.93267 0.5
429 1.5817 8.89305 4.25035 0.5
430 1.41869 2.58873 11.9516 0.5
431 7.62712 4.85538 5.57094 0.5
432 12.1958 4.62046 6.98891 0.5
433 11.8277 2.87244 12.0532 0.5
434 12.0432 5.15655 0.194517 0.5
435 6.92614 4.11224 0.531288 0.5
436 11.4175 10.6887 5.29169 0.5
437 0.341573 3.64831 11.0106 0.5
438 0.0661455 9.67897 5.33624 0.5
439 8.77373 5.87156 10.1722 0.5
440 3.98579 1.12682 6.94321 0.5
441 0.749241 0.603999 10.5782 0.5
442 3.62517 2.3782 5.19179 0.5
443 9.84476 0.547235 7.31678 0.5
444 12.6923 7.59948 13.2417 0.5
445 6.05181 5.81189 8.8017 0.5
446 9.02854 1.19297 5.37289 0.5
447 12.8433 2.45576 5.41792 0.5
448 13.0204 9.74458 4.20797 0.5
449 4.08162 11.2212 6.37956 0.5
450 8.79587 11.2792 1.77129 0.5
451 4.89163 1.64108 7.98094 0.5
452 3.75649 13.3182 10.4859 0.5
453 11.538 8.12374 7.35798 0.5
454 12.7394 8.67141 9.93513 0.5
455 8.99737 10.6211 2.99951 0.5
456 8.77252 7.65972 8.17559 0.5
457 11.4012 10.9364 8.65572 0.5
458 7.24182 3.30477 2.78449 0.5
459 4.87914 6.03851 0.0212578 0.5
460 7.54746 9.15185 13.2962 0.5
461 12.3225 3.62546 9.08552 0.5
462 2.45554 6.473 8.71505 0.5
463 3.35666 11.9888 12.1524 0.5
464 0.163464 10.4549 13.2158 0.5
465 10.2776 9.90896 6.90942 0.5
466 7.66035 3.64226 6.50466 0.5
467 2.08464 8.7562 7.39994 0.5
468 5.67983 3.39146 9.50349 0.5
469 3.06372 1.8142 7.0094 0.5
470 6.61981 2.39096 4.58715 0.5
471 11.9898 0.173732 11.2023 0.5
472 3.46284 3.10216 8.27949 0.5
473 12.044 0.537483 12.6864 0.5
474 9.09831 7.21453 4.62257 0.5
475 11.0996 3.56757 0.781095 0.5
476 9.70246 12.0263 10.8128 0.5
477 1.55642 12.4761 6.75087 0.5
478 10.5322 2.55267 3.32799 0.5
479 13.4134 12.7595 9.56067 0.5
480 8.37185 7.47861 0.015225 0.5
481 12.3516 12.2251 1.51247 0.5
482 1.16162 8.00766 12.7083 0.5
483 3.86379 8.90194 11.6371 0.5
484 4.32311 9.18209 0.216492 0.5
485 6.91076 3.26181 7.6678 0.5
486 11.1771 0.802996 3.44938 0.5
487 1.74724 8.87836 11.408 0.5
488 1.93964 9.66548 2.01642 0.5
489 11.2397 6.27245 11.4929 0.5
490 11.9424 6.32152 0.418859 0.5
491 5.12846 7.83381 2.19791 0.5
492 7.22347 8.2758 1.10768 0.5
493 6.05991 1.36394 2.68453 0.5
494 3.21667 8.35847 3.8173 0.5
495 6.59333 3.85129 6.12798 0.5
496 2.57447 3.78323 8.32382 0.5
497 4.09058 0.938957 5.20132 0.5
498 12.2229 10.3585 7.24631 0.5
499 6.59338 2.45284 6.28907 0.5
500 6.97331 9.85568 0.88926 0.5
501 3.30366 8.86982 4.89949 0.5
502 3.79219 1.28386 9.36552 0.5
503 2.7497 8.38766 9.89546 0.5
504 1.83764 9.6411 5.62966 0.5
505 4.16636 10.1644 7.19124 0.5
506 10.4064 11.4625 7.93579 0.5
507 5.75285 1.65646 7.18933 0.5
508 7.05889 13.5146 2.95186 0.5
509 1.62028 1.32926 12.8069 0.5
510 0.0512067 7.55956 7.34291 0.5
511 5.10538 5.74673 1.856 0.5
512 11.3601 3.59684 0.67281 0.5
513 5.13849 5.95875 0.491697 0.5
514 2.18011 -0.0123404 1.74419 0.5
515 12.4736 1.12406 3.63758 0.5
516 0.724911 6.95739 9.52446 0.5
517 7.97949 9.05899 11.8672 0.5
518 11.3423 12.3784 1.6815 0.5
519 0.841074 2.80545 1.46714 0.5
520 2.93251 2.8881 8.12681 0.5
521 7.75209 12.4421 9.27871 0.5
522 8.717 6.77977 3.86942 0.5
523 0.391997 2.51244 6.2738 0.5
524 8.48094 7.1584 3.93563 0.5
525 9.84793 12.2398 0.845089 0.5
526 5.33744 12.3883 10.7908 0.5
527 11.2045 8.85295 7.59586 0.5
528 3.44387 13.5328 8.96883 0.5
529 10.5345 9.14758 2.23971 0.5
530 13.0203 2.77617 9.70225 0.5
531 13.3882 12.0326 2.80336 0.5
532 11.651 13.5073 1.44782 0.5
533 6.29924 8.16432 8.08078 0.5
534 13.2754 6.91493 8.53305 0.5
535 9.38866 0.498066 4.49869 0.5
536 1.29693 5.69073 5.39545 0.5
537 6.7536 11.7279 13.3826 0.5
538 2.84315 13.2467 8.6869 0.5
539 1.64457 4.4786 7.49035 0.5
540 11.4272 11.5762 4.24788 0.5
541 5.15113 8.64247 0.607464 0.5
542 13.4733 2.65846 0.181958 0.5
543 -0.0518698 1.99235 7.67464 0.5
544 12.2735 10.2194 5.39159 0.5
545 2.37478 2.23777 9.91991 0.5
546 3.14929 3.02624 6.15897 0.5
547 3.49819 6.28648 0.957749 0.5
548 11.2242 8.88806 7.58066 0.5
549 0.935865 9.20724 12.3334 0.5
550 11.9788 11.073 2.68779 0.5
551 0.176891 8.97542 11.7851 0.5
552 6.57917 2.31606 2.9817 0.5
553 3.31344 10.6504 11.9009 0.5
554 11.7023 4.602 12.5678 0.5
555 11.4909 9.89853 9.30244 0.5
556 12.305 9.25865 10.0915 0.5
557 3.86096 8.68708 5.37056 0.5
558 9.37031 7.15629 11.4063 0.5
559 4.74618 12.3464 4.73364 0.5
560 6.88709 11.0726 3.21572 0.5
561 2.80393 11.5077 7.83361 0.5
562 6.19364 0.429407 10.9536 0.5
563 9.73064 9.04982 4.97731 0.5
564 6.24073 6.94927 10.5288 0.5
565 4.39554 4.0664 1.86736 0.5
566 0.397332 5.15916 3.27574 0.5
567 1.90611 11.2511 10.5267 0.5
568 4.41855 2.13592 3.36326 0.5
569 10.4277 6.65475 4.08214 0.5
570 7.90842 11.7457 7.7679 0.5
571 7.24262 10.5784 5.18769 0.5
572 7.98424 0.0105811 7.08026 0.5
573 11.0323 12.7015 12.7773 0.5
574 8.62565 0.257257 1.31587 0.5
575 11.8241 5.68048 5.33149 0.5
576 9.66541 12.2134 8.78581 0.5
577 6.71856 11.2399 0.291119 0.5
578 5.59668 9.08103 1.93987 0.5
579 6.79312 3.42683 6.43035 0.5
580 3.34635 13.3312 9.69434 0.5
581 3.84865 0.45358 7.24085 0.5
582 8.90402 3.25802 7.12503 0.5
583 12.9046 5.23512 4.23975 0.5
584 0.187754 3.92886 3.39063 0.5
585 3.44954 1.87006 1.1675 0.5
586 11.2858 6.41895 4.87742 0.5
587 4.10056 6.89336 12.8835 0.5
588 3.4836 10.2339 12.115 0.5
589 5.18839 8.17268 9.43639 0.5
590 10.3419 6.88039 2.12227 0.5
591 12.0986 2.44153 12.168 0.5
592 10.2546 0.426185 1.83512 0.5
593 0.650944 8.06169 2.82176 0.5
594 11.6596 2.62232 9.29525 0.5
595 7.16837 5.46225 9.11247 0.5
596 6.79893 13.1789 13.233 0.5
597 11.5465 12.2158 9.82322 0.5
598 0.843318 7.84445 7.09692 0.5
599 2.1561 9.33116 11.5892 0.5
600 11.2097 6.44175 11.1354 0.5
601 4.98384 5.38463 0.0365469 0.5
602 4.77536 0.532316 12.5756 0.5
603 12.801 10.4197 4.2535 0.5
604 12.9254 7.44988 13.4497 0.5
605 11.4212 9.08875 12.9966 0.5
606 6.57475 3.57121 7.87812 0.5
607 11.5195 4.1301 5.19688 0.5
608 8.24036 12.107 13.4455 0.5
609 1.81625 2.32998 1.82771 0.5
610 2.68088 9.21434 6.35895 0.5
611 7.14052 8.49484 4.51533 0.5
612 1.61292 7.84264 12.7959 0.5
613 3.9487 1.07341 4.59423 0.5
614 9.69007 3.27871 5.89204 0.5
615 9.67139 3.96587 2.54181 0.5
616 2.92766 9.84587 8.89523 0.5
617 7.59911 0.219072 11.7819 0.5
618 12.3754 9.03959 0.00395563 0.5
619 2.88109 8.36812 7.51297 0.5
620 10.0757 1.33944 2.31858 0.5
621 0.533905 7.86638 13.342 0.5
622 4.83834 8.64624 7.14447 0.5
623 3.82046 1.76153 5.72761 0.5
624 8.30118 7.67255 1.68852 0.5
625 0.359173 12.8101 5.23535 0.5
626 0.758983 1.84753 11.7153 0.5
627 7.16133 11.6212 8.12026 0.5
628 12.9949 4.10773 2.40357 0.5
629 13.249 6.49732 4.91797 0.5
630 0.315059 1.29532 12.2868 0.5
631 3.31464 8.94542 8.38338 0.5
632 12.0527 4.93706 4.8159 0.5
633 2.78437 5.20824 4.49071 0.5
634 11.6706 4.26488 4.88173 0.5
635 1.12587 1.97765 9.34068 0.5
636 2.3025 10.8844 11.0455 0.5
637 0.585899 7.13072 2.47186 0.5
638 7.36116 8.30267 10.2049 0.5
639 8.85324 8.73904 11.7971 0.5
640 3.55875 8.12301 3.53712 0.5
641 9.73908 10.9954 0.61912 0.5
642 4.8603 2.2248 2.22833 0.5
643 2.07092 0.612967 11.4872 0.5
644 2.09696 10.5505 2.09279 0.5
645 1.00875 10.2493 11.4293 0.5
646 7.2523 3.41173 8.69497 0.5
647 0.22917 4.25467 9.12063 0.5
648 10.5291 6.79352 12.3658 0.5
649 3.07439 9.3382 9.01635 0.5
650 10.7856 0.410387 0.91681 0.5
651 2.82451 10.1443 3.03652 0.5
652 3.91008 13.1331 1.43471 0.5
653 5.81049 0.401778 6.26177 0.5
654 4.80563 9.13085 5.39135 0.5
655 3.6773 7.99311 9.06519 0.5
656 4.94941 12.206 9.1989 0.5
657 10.0162 5.68558 12.7655 0.5
658 0.543877 7.94714 1.36499 0.5
659 3.68959 3.52631 7.22881 0.5
660 3.16664 2.543 12.8562 0.5
661 3.71053 1.28565 2.31002 0.5
662 5.47553 13.4825 10.8467 0.5
663 9.28903 11.7257 12.6746 0.5
664 0.823867 5.78826 5.66019 0.5
665 10.3926 11.6824 2.43083 0.5
666 11.2351 5.52251 4.36357 0.5
667 9.6764 11.0778 7.38321 0.5
668 8.82525 0.500404 9.43469 0.5
669 2.73383 3.34853 4.1539 0.5
670 11.8724 9.48708 4.1149 0.5
671 0.118124 5.05412 9.40487 0.5
672 11.4581 13.2428 11.932 0.5
673 0.48161 3.89788 12.3927 0.5
674 1.6449 10.5024 10.5939 0.5
675 4.77319 8.60927 6.86094 0.5
676 9.83179 7.26009 2.54002 0.5
677 6.64554 10.697 13.4348 0.5
678 6.73293 4.19346 1.68599 0.5
679 3.91618 5.53598 1.37286 0.5
680 4.94889 4.74801 11.6658 0.5
681 5.4904 3.16104 5.25951 0.5
682 8.30832 11.8496 4.44906 0.5
683 13.5584 6.28892 1.16782 0.5
684 13.5349 9.33763 10.8853 0.5
685 9.47247 5.92571 8.92165 0.5
686 12.1503 11.2864 8.86487 0.5
687 11.2082 12.6563 13.3943 0.5
688 4.84526 5.92034 10.1731 0.5
689 12.7168 7.73391 7.09652 0.5
690 8.36229 4.23519 11.6572 0.5
691 2.97718 2.69814 9.89362 0.5
692 6.43002 0.791947 5.62606 0.5
693 7.23353 2.48247 2.23774 0.5
694 3.71437 2.22671 10.713 0.5
695 11.2011 7.93277 0.710933 0.5
696 6.3673 0.960027 9.61471 0.5
697 12.3742 3.65508 9.5192 0.5
698 1.10766 9.24745 5.50176 0.5
699 2.15387 9.03244 4.00118 0.5
700 3.88885 9.80872 0.414603 0.5
701 8.24447 6.10413 2.26965 0.5
702 6.43264 7.45688 2.83632 0.5
703 3.59067 6.70136 5.91249 0.5
704 4.7632 11.5962 9.93427 0.5
705 2.39213 0.983484 11.4044 0.5
706 13.502 7.2397 13.1711 0.5
707 9.58418 6.37242 9.83253 0.5
708 5.83677 11.7368 8.89739 0.5
709 7.59773 1.12617 3.74982 0.5
710 5.53804 1.62438 12.9505 0.5
711 2.97393 9.30249 6.16633 0.5
712 5.8456 7.68637 13.5311 0.5
713 7.59583 11.8539 2.48998 0.5
714 5.90231 5.57124 7.92014 0.5
715 0.156715 8.95838 4.70326 0.5
716 10.6283 9.61082 11.2419 0.5
717 4.65094 12.2896 5.45549 0.5
718 13.0829 8.56727 2.08788 0.5
719 12.9107 9.2676 12.4102 0.5
720 9.55594 2.40981 5.53519 0.5
721 9.91909 3.05546 4.99852 0.5
722 3.51398 13.1362 0.953542 0.5
723 11.4972 13.5184 3.09071 0.5
724 4.55238 1.96017 2.08874 0.5
725 7.54271 13.3599 3.95442 0.5
726 13.0043 1.93349 2.40473 0.5
727 3.15544 9.93215 1.72436 0.5
728 5.98156 7.99662 4.26052 0.5
729 5.14466 0.597767 10.543 0.5
730 9.3758 1.37538 9.30102 0.5
731 5.21323 1.20493 10.9574 0.5
732 5.17584 2.34876 13.0753 0.5
733 5.47356 4.97719 5.79198 0.5
734 7.25685 6.66325 12.0813 0.5
735 1.04779 5.29638 13.2771 0.5
736 12.853 5.95304 11.5903 0.5
737 12.041 11.9669 8.74741 0.5
738 9.37635 11.4202 2.42366 0.5
739 7.15692 4.28492 0.587693 0.5
740 8.72189 2.29947 9.36209 0.5
741 10.1347 2.12471 6.71923 0.5
742 11.9322 9.8674 5.15346 0.5
743 5.9471 1.56155 7.61679 0.5
744 5.1228 2.76908 5.45692 0.5
745 1.60945 5.54539 0.287576 0.5
746 5.15078 5.25435 7.36942 0.5
747 10.1 3.92658 10.0492 0.5
748 0.255309 5.96152 8.00179 0.5
749 0.465882 5.31676 3.23303 0.5
750 10.2546 2.16212 11.6485 0.5
751 7.04392 12.0097 4.96456 0.5
752 9.05571 1.84065 9.98887 0.5
753 5.88025 0.283763 0.226704 0.5
754 9.01064 7.97916 12.1572 0.5
755 8.4051 3.4262 12.9388 0.5
756 3.09538 4.02048 2.68147 0.5
757 3.93001 5.32813 0.51403 0.5
758 7.42658 4.59468 5.27039 0.5
759 8.13364 8.42335 9.19672 0.5
760 6.06041 11.5432 9.02499 0.5
761 13.176 7.85239 6.59196 0.5
762 13.016 3.73716 11.2056 0.5
763 4.45695 4.5175 11.6331 0.5
764 9.49507 9.19283 12.7414 0.5
765 1.08388 9.57985 4.16961 0.5
766 9.93926 9.80751 7.25133 0.5
767 3.14101 4.52706 10.9529 0.5
768 3.08162 12.1039 8.06859 0.5
769 10.6221 10.1399 8.85873 0.5
770 9.99022 8.31764 6.07832 0.5
771 7.06994 9.27353 10.9161 0.5
772 2.90662 2.69499 1.34664 0.5
773 10.167 5.98466 8.05456 0.5
774 10.5202 0.596711 3.76774 0.5
775 11.4134 0.864598 8.85331 0.5
776 10.1124 6.3348 1.82433 0.5
777 7.45032 11.8156 7.86142 0.5
778 13.5168 12.6904 12.9047 0.5
779 4.74349 3.75125 2.65518 0.5
780 2.29042 0.498284 9.39462 0.5
781 3.88618 5.54005 13.584 0.5
782 3.56583 2.2226 10.8394 0.5
783 9.54541 2.31249 1.457 0.5
784 11.9307 6.53131 11.6403 0.5
785 5.16624 13.3557 1.92343 0.5
786 2.71108 8.39325 1.65301 0.5
787 9.67909 2.88705 11.102 0.5
788 13.4632 8.00941 12.7001 0.5
789 10.6548 11.8731 13.0214 0.5
790 2.04955 1.49265 8.88594 0.5
791 5.10109 0.871387 8.18344 0.5
792 12.0281 6.65854 2.53237 0.5
793 11.9533 7.62279 0.766481 0.5
794 11.3578 12.1554 12.6756 0.5
795 10.2512 10.877 7.1773 0.5
796 7.09475 2.05497 6.09103 0.5
797 1.07364 0.669699 3.07793 0.5
798 10.0865 12.7366 7.58768 0.5
799 1.05813 11.6121 9.91549 0.5
800 4.14126 4.94215 7.31654 0.5
801 6.38926 8.19274 9.14988 0.5
802 10.6835 13.4437 9.35971 0.5
803 11.9003 1.07031 8.0671 0.5
804 9.21889 12.5663 0.562235 0.5
805 2.02652 3.1033 5.21255 0.5
806 10.0613 10.1557 1.65052 0.5
807 11.5823 5.73797 9.43398 0.5
808 1.51207 9.12426 9.33905 0.5
809 2.3667 13.5653 2.35494 0.5
810 8.83593 4.65897 5.15651 0.5
811 2.88701 2.13344 11.5482 0.5
812 12.5079 3.14653 4.28985 0.5
813 13.0745 13.5891 9.79326 0.5
814 9.3682 3.06806 6.36655 0.5
815 1.05026 10.3644 11.0437 0.5
816 6.89501 8.95165 7.94684 0.5
817 10.3487 6.2554 8.72044 0.5
818 10.8756 1.59229 0.420533 0.5
819 3.95606 1.87249 12.6257 0.5
820 9.67207 0.287959 0.820669 0.5
821 3.99906 1.25492 0.933547 0.5
822 8.37677 8.90123 10.9386 0.5
823 2.76567 3.86144 0.529405 0.5
824 4.72421 6.44141 4.79281 0.5
825 4.29898 7.85133 11.9976 0.5
826 6.09368 8.32469 5.85461 0.5
827 8.16196 11.9326 0.289565 0.5
828 13.3715 11.0938 12.3959 0.5
829 1.40173 1.3329 3.45936 0.5
830 0.584544 1.27894 10.3336 0.5
831 9.78184 5.34542 4.78578 0.5
832 12.4387 9.46482 4.83361 0.5
833 7.52078 10.3591 9.84743 0.5
834 6.78931 8.10022 4.00136 0.5
835 12.6851 3.66298 2.49364 0.5
836 3.66833 0.632904 10.8551 0.5
837 6.41945 8.95125 12.9799 0.5
838 3.16415 4.18862 7.27621 0.5
839 10.7626 11.3512 1.33129 0.5
840 0.068172 6.49909 1.50607 0.5
841 6.61792 11.3045 6.51351 0.5
842 7.89958 5.04942 5.62568 0.5
843 8.6442 5.46084 9.00613 0.5
844 8.23353 4.81287 2.41592 0.5
845 6.07623 12.1434 5.9248 0.5
846 0.0183883 6.95773 4.15544 0.5
847 12.3648 11.5594 2.91015 0.5
848 12.7866 7.10355 5.00039 0.5
849 11.7752 2.33264 5.23448 0.5
850 3.54847 11.2376 12.9704 0.5
851 11.7961 4.55163 0.429919 0.5
852 13.1879 3.01397 10.0338 0.5
853 7.79574 6.6966 0.809153 0.5
854 10.5758 9.29028 8.31445 0.5
855 0.308864 9.38709 9.07366 0.5
856 12.8473 4.24186 9.75899 0.5
857 2.63569 10.7871 6.97229 0.5
858 2.55339 4.53661 8.0913 0.5
859 8.59177 11.5748 0.221957 0.5
860 8.43548 12.5422 0.0462812 0.5
861 7.066 6.47435 8.74605 0.5
862 6.36146 4.75527 12.271 0.5
863 7.50667 2.15121 8.22019 0.5
864 7.51501 11.7853 11.7497 0.5
865 4.55575 5.59938 0.819071 0.5
866 0.0585811 0.00418967 1.14454 0.5
867 10.3491 3.88932 10.2331 0.5
868 12.3793 6.9635 13.343 0.5
869 5.92812 9.21358 8.7056 0.5
870 1.85048 2.03996 4.25732 0.5
871 6.02506 10.8544 2.07904 0.5
872 2.80407 1.83347 11.4373 0.5
873 9.48726 3.37777 12.3747 0.5
874 12.6011 13.4326 10.5776 0.5
875 2.77486 8.68424 10.3879 0.5
876 12.7904 4.49505 1.77776 0.5
877 9.02584 3.179 3.45046 0.5
878 8.89884 2.29503 1.54698 0.5
879 8.77742 9.1987 8.96718 0.5
880 7.59848 1.07024 2.22204 0.5
881 8.94772 6.46676 0.740304 0.5
882 2.00227 11.3867 11.7299 0.5
883 11.112 6.87273 9.78165 0.5
884 2.46479 6.93555 11.9344 0.5
885 0.69241 9.42307 5.21539 0.5
886 3.62774 12.1602 0.389119 0.5
887 7.78914 10.9307 3.15619 0.5
888 2.97971 5.15593 11.1629 0.5
889 9.32043 11.8515 8.64536 0.5
890 8.02188 7.88871 7.22055 0.5
891 7.20833 6.67948 2.69419 0.5
892 0.28271 8.24217 10.2382 0.5
893 3.78409 3.06182 9.74887 0.5
894 10.5392 7.94042 13.0505 0.5
895 2.37971 12.7629 12.2232 0.5
896 13.0867 8.34627 11.3442 0.5
897 9.05549 4.43949 3.72775 0.5
898 2.12669 3.64414 1.8391 0.5
899 7.90657 11.601 8.07823 0.5
900 8.01373 7.82668 10.0163 0.5
901 3.9884 5.68096 2.80128 0.5
902 6.54147 11.9874 2.79298 0.5
903 12.5482 10.8704 10.9958 0.5
904 1.4652 6.3041 7.32788 0.5
905 7.76236 9.25493 4.39261 0.5
906 9.4984 7.01031 13.0772 0.5
907 1.17897 6.8356 12.3495 0.5
908 6.67158 12.9715 11.4786 0.5
909 8.18064 1.45029 3.41743 0.5
910 13.5103 13.418 8.37288 0.5
911 8.76151 2.15304 5.24109 0.5
912 0.844042 1.68704 2.30038 0.5
913 10.6844 12.1464 2.74796 0.5
914 3.24543 12.6525 3.14148 0.5
915 2.33844 3.33018 12.4096 0.5
916 10.17 13.4408 9.13106 0.5
917 10.266 12.0421 9.46898 0.5
918 7.09939 11.8165 9.12059 0.5
919 4.12137 10.2538 3.17005 0.5
920 4.14682 12.0158 6.64718 0.5
921 0.28834 2.78332 0.693506 0.5
922 6.63954 4.30695 10.9937 0.5
923 6.46348 8.7321 2.04759 0.5
924 9.35729 10.6527 12.5361 0.5
925 11.4323 11.7734 13.2365 0.5
926 5.52853 7.6196 2.47222 0.5
927 3.02398 9.55127 4.35697 0.5
928 5.67204 11.1909 12.4805 0.5
929 0.604459 12.978 10.8026 0.5
930 8.00329 9.56116 5.57548 0.5
931 8.42009 9.54855 12.386 0.5
932 8.79866 2.0484 12.9703 0.5