ITEM: TIMESTEP
980000
ITEM: NUMBER OF ATOMS
1000
ITEM: BOX BOUNDS xy xz yz pp pp pp
0.0000000000000000e+00 1.3572088000000001e+01 0.0000000000000000e+00
0.0000000000000000e+00 1.3572088000000001e+01 0.0000000000000000e+00
0.0000000000000000e+00 1.3572088000000001e+01 0.0000000000000000e+00
ITEM: ATOMS id x y z radius
1 8.07477 6.1023 9.12122 0.5
2 0.54163 8.04677 6.34608 0.5
3 0.467064 8.1468 9.36463 0.5
4 11.5393 0.807307 5.50999 0.5
5 11.1 10.731 2.74664 0.5
6 6.04825 8.84912 0.233621 0.5
7 5.64512 11.321 10.032 0.5
8 1.14613 11.3067 13.1252 0.5
9 6.55266 2.63288 5.71523 0.5
10 0.407516 10.4131 5.24336 0.5
11 4.64715 0.331296 1.26228 0.5
12 10.2494 4.02841 11.696 0.5
13 1.40993 12.6154 13.2046 0.5
14 10.986 1.75113 7.15116 0.5
15 12.9054 13.278 6.81537 0.5
16 8.80473 1.18347 4.91821 0.5
17 12.4216 8.5829 4.77441 0.5
18 2.32244 8.78996 11.6731 0.5
19 6.13827 3.2006 6.8903 0.5
20 4.63432 12.3007 5.75808 0.5
21 10.2419 3.22559 9.86274 0.5
22 0.834665 4.75923 11.9194 0.5
23 8.51989 8.18003 9.75161 0.5
24 11.0943 13.2318 7.42497 0.5
25 11.1242 9.72287 5.76811 0.5
26 1.10331 6.44859 1.89677 0.5
27 6.55212 4.49152 2.26164 0.5
28 6.65574 3.18554 11.8629 0.5
29 11.8968 9.84238 2.62804 0.5
30 2.79926 1.19265 7.9342 0.5
31 11.3642 3.62798 4.3877 0.5
32 11.1855 2.09624 11.3155 0.5
33 10.8557 3.31453 8.02558 0.5
34 5.54328 7.75925 1.7571 0.5
35 11.4062 7.60349 10.8284 0.5
36 10.061 0.0134337 11.4701 0.5
37 9.5099 8.76251 12.3349 0.5
38 10.7755 5.09907 12.9918 0.5
39 10.2815 10.5782 7.85662 0.5
40 1.41198 8.02928 12.7483 0.5
41 1.42529 13.0743 8.87381 0.5
42 7.48866 9.05424 4.73648 0.5
43 13.507 3.74073 7.00132 0.5
44 5.3052 3.03776 6.98333 0.5
45 5.75364 4.53905 5.40763 0.5
46 3.52437 10.8109 1.81605 0.5
47 3.08947 1.93569 3.70521 0.5
48 5.68805 1.31191 0.83628 0.5
49 8.71606 1.42984 2.85728 0.5
50 9.95758 10.7543 11.9909 0.5
51 0.00150807 13.3007 6.8985 0.5
52 2.25624 1.24502 4.37874 0.5
53 8.54263 9.24721 11.1143 0.5
54 7.66944 1.72236 3.8341 0.5
55 11.2744 7.38761 5.80709 0.5
56 3.1575 3.15996 9.4504 0.5
57 11.0843 0.933153 11.0637 0.5
58 1.95096 1.08467 9.14795 0.5
59 12.9259 7.12805 9.47752 0.5
60 9.32497 1.29748 7.54615 0.5
61 7.76392 4.91516 10.2134 0.5
62 12.8099 12.2354 3.39938 0.5
63 1.96336 7.88735 9.20336 0.5
64 5.91224 3.21586 9.69041 0.5
65 9.33095 5.95358 12.8611 0.5
66 5.33076 2.64889 3.34586 0.5
67 0.0287905 8.9873 6.44781 0.5
68 6.65372 11.3135 9.01298 0.5
69 12.7844 10.372 7.46728 0.5
70 7.56286 10.6791 13.4256 0.5
71 11.9762 8.62918 10.7269 0.5
72 6.38894 1.30524 11.1168 0.5
73 5.44453 8.60598 7.35003 0.5
74 1.49927 1.97124 0.493041 0.5
75 6.19511 9.74776 11.467 0.5
76 4.28047 10.3647 9.97685 0.5
77 5.83881 1.64842 4.5473 0.5
78 9.59034 9.64405 0.32641 0.5
79 1.7456 9.08824 1.5267 0.5
80 8.40692 9.96663 12.1381 0.5
81 4.20853 4.86473 1.67077 0.5
82 11.2377 1.66155 12.4294 0.5
83 12.6998 12.9071 11.2736 0.5
84 8.62258 2.79258 0.96955 0.5
85 1.10208 11.8121 8.13728 0.5
86 6.57864 7.30738 11.2204 0.5
87 0.284044 10.0671 11.9018 0.5
88 5.96226 1.10483 12.1025 0.5
89 8.65556 2.68768 1.19561 0.5
90 9.31784 7.33408 7.15083 0.5
91 9.85936 10.4508 0.442769 0.5
92 1.60259 10.253 1.1983 0.5
93 12.9151 11.8718 13.2834 0.5
94 9.79742 1.2347 13.3238 0.5
95 2.38779 11.0958 12.3853 0.5
96 2.30285 11.138 0.570591 0.5
97 5.98052 0.897596 11.429 0.5
98 8.72399 6.30518 2.33662 0.5
99 11.5011 7.57217 3.66667 0.5
100 5.25319 4.65648 7.22097 0.5
101 7.68321 13.5022 7.39795 0.5
102 6.68293 7.38844 2.87576 0.5
103 2.91934 12.7882 10.4994 0.5
104 2.53947 6.23528 10.0068 0.5
105 5.95387 2.26992 12.6076 0.5
106 10.2596 5.0613 6.0255 0.5
107 1.30426 1.98137 2.63653 0.5
108 4.45551 5.38816 3.53577 0.5
109 8.45993 10.6072 12.543 0.5
110 2.40764 13.2823 1.74205 0.5
111 9.21544 9.90711 11.3306 0.5
112 0.719227 13.2398 7.12485 0.5
113 7.23058 9.86041 5.92346 0.5
114 0.236032 8.41467 13.0744 0.5
115 8.55702 10.823 6.97831 0.5
116 6.24742 1.25451 9.56512 0.5
117 1.24489 2.41392 12.1499 0.5
118 9.19794 4.38801 9.75571 0.5
119 7.86927 4.44302 8.68739 0.5
120 5.13563 6.07087 0.543591 0.5
121 0.986516 4.14278 0.710648 0.5
122 8.78397 0.449742 6.94702 0.5
123 9.15416 7.9689 6.87994 0.5
124 8.59417 8.89281 1.4301 0.5
125 8.65239 12.0103 0.849731 0.5
126 7.16375 8.5199 12.617 0.5
127 6.85183 9.38795 5.80623 0.5
128 11.8097 3.16098 8.79818 0.5
129 8.8728 1.57291 12.9017 0.5
130 1.95951 6.64834 1.00936 0.5
131 3.34776 7.20785 9.00039 0.5
132 12.4035 12.7598 11.8515 0.5
133 10.4692 11.1353 9.27001 0.5
134 3.6962 13.157 1.1137 0.5
135 11.1656 1.82344 6.97301 0.5
136 7.51497 12.7391 8.98248 0.5
137 10.3404 12.6755 8.98223 0.5
138 0.923715 4.27797 3.13585 0.5
139 6.7076 3.97051 5.0923 0.5
140 11.372 5.85408 6.81129 0.5
141 12.728 8.37495 13.1415 0.5
142 6.10077 10.2282 4.91287 0.5
143 4.08556 1.46103 4.54547 0.5
144 4.98242 7.15957 6.60013 0.5
145 0.387194 2.62645 8.36005 0.5
146 1.27644 12.9089 5.81909 0.5
147 3.56457 4.47334 10.6911 0.5
148 1.93905 3.59926 4.72835 0.5
149 4.68122 5.3484 1.72017 0.5
150 4.36818 11.5346 9.12125 0.5
151 3.77169 12.272 10.7086 0.5
152 6.17612 10.0536 3.32328 0.5
153 0.98793 6.21219 4.68603 0.5
154 11.644 3.69525 1.94603 0.5
155 5.85292 10.5239 3.88779 0.5
156 9.44992 0.43658 3.08797 0.5
157 0.147883 13.2754 6.2519 0.5
158 11.0783 5.75057 7.29467 0.5
159 2.47286 6.01721 13.5117 0.5
160 11.0073 13.3582 9.48662 0.5
161 12.4235 3.9522 4.40209 0.5
162 12.992 11.9196 11.5629 0.5
163 5.27128 0.775675 8.68715 0.5
164 0.378589 9.73428 0.151813 0.5
165 5.63442 4.57188 6.04924 0.5
166 4.89018 7.2595 1.15087 0.5
167 7.12695 4.21953 3.77892 0.5
168 11.3444 9.09261 9.37749 0.5
169 2.67103 7.30157 8.74575 0.5
170 6.64442 2.30594 12.7986 0.5
171 10.8442 4.40506 2.9728 0.5
172 8.97171 5.56561 8.43278 0.5
173 5.87058 6.45419 12.49 0.5
174 3.24155 11.5359 2.46024 0.5
175 5.87126 3.11669 0.252776 0.5
176 9.45576 11.8696 6.58877 0.5
177 1.12923 5.06295 11.073 0.5
178 3.11732 5.09225 10.6863 0.5
179 8.08772 7.37707 3.86909 0.5
180 6.95106 11.0737 2.46575 0.5
181 4.9466 9.01405 11.7525 0.5
182 10.3925 4.26607 2.82533 0.5
183 3.54025 1.59319 10.0037 0.5
184 3.05528 8.46864 8.81653 0.5
185 1.88179 4.87652 3.86301 0.5
186 10.9372 6.93984 13.3971 0.5
187 3.22798 2.69569 7.04423 0.5
188 3.52277 1.23487 12.0617 0.5
189 9.55402 2.15181 2.07141 0.5
190 7.81186 7.03661 11.9271 0.5
191 2.26469 8.57131 4.8708 0.5
192 10.1947 3.92949 5.94469 0.5
193 9.04701 0.654161 3.57496 0.5
194 8.73116 5.38523 2.05046 0.5
195 9.33513 0.685063 1.33247 0.5
196 7.21707 10.1132 9.14539 0.5
197 1.9743 8.64924 12.6134 0.5
198 1.02838 6.91695 12.0144 0.5
199 8.0886 12.7893 1.84719 0.5
200 8.94334 10.8252 3.70761 0.5
201 4.79922 3.6526 5.71918 0.5
202 1.84728 11.5542 6.63773 0.5
203 7.05404 11.9046 6.38388 0.5
204 8.04355 7.28625 4.86513 0.5
205 3.58415 1.08101 3.81896 0.5
206 0.486014 7.62587 11.4019 0.5
207 12.8359 12.4048 1.75482 0.5
208 3.48279 3.07547 7.91744 0.5
209 13.5244 9.31395 4.53215 0.5
210 10.0851 5.10163 0.865607 0.5
211 6.19721 10.854 8.20885 0.5
212 6.33229 7.48372 12.1831 0.5
213 4.55889 10.3824 0.438678 0.5
214 8.43571 8.58566 12.0255 0.5
215 9.4706 3.49807 0.489476 0.5
216 9.8179 5.99217 6.03559 0.5
217 0.592857 6.27037 3.94248 0.5
218 7.64393 7.55778 11.6525 0.5
219 10.7 3.41047 0.347238 0.5
220 10.2621 8.06385 7.91151 0.5
221 8.61242 1.34114 8.09731 0.5
222 0.725235 11.25 9.5028 0.5
223 1.84737 5.68469 2.33965 0.5
224 0.320934 10.2987 11.3374 0.5
225 8.15922 6.87245 11.6135 0.5
226 1.50271 8.51429 12.9462 0.5
227 0.117893 9.33219 1.16275 0.5
228 1.73508 7.16439 13.4235 0.5
229 0.581518 11.2565 0.486161 0.5
230 3.23627 6.1517 8.02643 0.5
231 9.87793 3.61631 2.21272 0.5
232 6.68399 3.96719 3.24753 0.5
233 2.82781 12.0135 8.76471 0.5
234 5.9841 5.02791 4.94292 0.5
235 10.4498 1.83017 8.50177 0.5
236 13.4584 8.05913 6.20428 0.5
237 0.894008 12.4321 4.73043 0.5
238 5.29413 6.76903 5.59728 0.5
239 2.21992 1.26037 3.39544 0.5
240 9.03203 10.1186 12.5852 0.5
241 10.9868 5.37369 10.005 0.5
242 13.1245 3.18452 6.49125 0.5
243 1.83723 4.75827 2.79613 0.5
244 4.3874 4.30812 4.21859 0.5
245 8.00932 7.03423 7.86302 0.5
246 0.270136 4.52115 3.10121 0.5
247 10.9442 1.34831 6.63167 0.5
248 6.52584 5.24504 4.16397 0.5
249 5.52112 3.89534 13.5017 0.5
250 6.26967 3.32571 0.0754335 0.5
251 4.84051 10.2019 12.6097 0.5
252 11.2952 10.4752 3.10891 0.5
253 2.80212 3.00743 11.2248 0.5
254 3.42072 3.25829 13.063 0.5
255 3.22726 10.5542 6.98371 0.5
256 10.6539 5.30202 2.02905 0.5
257 9.52968 10.1236 13.5282 0.5
258 4.6131 5.90084 8.00588 0.5
259 1.39175 8.51274 1.9712 0.5
260 2.40113 0.415839 7.41005 0.5
261 5.97904 10.868 3.78465 0.5
262 2.00325 2.96184 6.69803 0.5
263 11.8988 9.45023 11.9462 0.5
264 11.6281 0.602894 0.579964 0.5
265 5.33372 4.59656 13.0776 0.5
266 6.30257 2.75893 8.67901 0.5
267 5.81484 4.95208 4.69387 0.5
268 11.6636 12.4506 12.6555 0.5
269 7.01831 9.71711 12.4983 0.5
270 9.35607 2.1646 11.5511 0.5
271 6.44267 12.4213 8.2619 0.5
272 12.5251 3.55426 11.6479 0.5
273 11.2248 13.1698 9.99833 0.5
274 11.571 4.32356 8.67339 0.5
275 6.19164 13.5094 1.18475 0.5
276 1.20219 9.35533 7.56148 0.5
277 3.48638 2.68484 4.81154 0.5
278 10.4751 1.39257 0.979818 0.5
279 0.333346 3.73195 5.43206 0.5
280 5.13574 10.9902 0.282345 0.5
281 4.90093 5.44848 4.63232 0.5
282 5.93889 4.98293 12.14 0.5
283 0.816369 4.65328 4.84068 0.5
284 1.19923 0.873428 1.74384 0.5
285 4.4832 5.50944 5.05043 0.5
286 10.676 11.4735 2.83848 0.5
287 12.6926 10.6917 2.86187 0.5
288 2.98295 9.79488 7.02305 0.5
289 6.99347 8.99811 3.68726 0.5
290 7.94953 4.32679 0.266013 0.5
291 10.0303 8.47678 9.01508 0.5
292 8.92283 9.86113 7.67016 0.5
293 1.15466 10.2191 13.3735 0.5
294 3.16003 5.63447 6.96579 0.5
295 7.81639 11.1232 9.25142 0.5
296 12.9411 8.14006 6.14593 0.5
297 10.3849 3.91617 11.8209 0.5
298 11.4191 1.88692 6.97086 0.5
299 3.81995 6.68296 13.2435 0.5
300 1.51543 2.76672 12.9073 0.5
301 3.72538 8.90869 5.71898 0.5
302 12.4312 3.69516 7.39665 0.5
303 11.896 3.96742 12.0639 0.5
304 0.945119 10.303 9.1447 0.5
305 9.77394 12.5099 10.9037 0.5
306 8.68506 5.77159 0.768568 0.5
307 6.74339 2.86983 7.79362 0.5
308 3.85347 0.0809376 4.80499 0.5
309 10.5753 8.33907 1.91108 0.5
310 9.31462 10.1541 6.60165 0.5
311 11.9311 5.40143 8.38305 0.5
312 12.9208 5.44455 6.92724 0.5
313 4.83369 5.3647 9.99789 0.5
314 10.9602 11.0197 11.3516 0.5
315 0.78312 4.7095 1.56921 0.5
316 8.37532 10.2368 2.19767 0.5
317 13.4972 12.5807 11.2586 0.5
318 0.895142 12.1631 6.45972 0.5
319 5.92319 3.06223 7.30403 0.5
320 8.55876 10.8953 3.01127 0.5
321 0.916004 0.16867 10.7489 0.5
322 4.11234 12.6003 8.59469 0.5
323 7.78158 12.0552 0.314505 0.5
324 6.81962 1.88929 6.23646 0.5
325 5.69763 0.27501 0.834785 0.5
326 1.07682 10.5266 10.1545 0.5
327 8.84428 12.1735 0.578605 0.5
328 9.8031 10.9883 2.33022 0.5
329 0.10194 4.39995 8.61347 0.5
330 11.6612 2.03413 8.49392 0.5
331 0.710084 4.33969 2.71882 0.5
332 8.82721 5.96947 1.27964 0.5
333 13.0312 8.08961 5.15887 0.5
334 0.915793 6.98937 5.99617 0.5
335 9.05142 0.297714 12.6649 0.5
336 12.7116 13.3356 12.8712 0.5
337 7.64454 4.1878 12.248 0.5
338 1.04044 5.11363 5.87302 0.5
339 8.91039 7.54466 12.8692 0.5
340 0.25878 2.84672 3.84346 0.5
341 0.891801 12.3492 5.85858 0.5
342 2.67684 7.47062 10.7857 0.5
343 5.43148 9.23941 0.530114 0.5
344 9.49193 5.19197 5.88276 0.5
345 10.4922 1.35431 5.41486 0.5
346 1.20182 5.40818 9.35494 0.5
347 7.42779 1.15646 0.14211 0.5
348 7.43537 0.0623277 12.1865 0.5
349 4.18539 6.93474 9.8438 0.5
350 11.494 13.2719 1.51248 0.5
351 13.4851 8.97015 8.87393 0.5
352 13.0965 3.09448 10.2366 0.5
353 10.9754 3.61318 10.659 0.5
354 1.57676 10.916 1.74143 0.5
355 5.2787 5.36599 13.2359 0.5
356 4.38081 12.0269 6.26881 0.5
357 11.3831 10.4527 4.95419 0.5
358 8.46401 12.8202 4.27664 0.5
359 7.76002 8.54441 6.04698 0.5
360 9.96484 8.4945 3.06917 0.5
361 11.8649 4.66025 7.16925 0.5
362 9.94807 10.6522 10.5812 0.5
363 6.12718 1.15318 6.08658 0.5
364 8.54162 8.23245 8.26233 0.5
365 2.40103 1.13756 6.53913 0.5
366 12.3195 4.7169 7.95529 0.5
367 8.40576 7.03979 2.45912 0.5
368 9.11589 2.14132 8.26112 0.5
369 1.47331 8.29443 0.590537 0.5
370 9.9913 13.0645 12.9188 0.5
371 1.47599 6.82161 6.04256 0.5
372 1.32087 2.52412 1.31801 0.5
373 4.61543 4.44105 4.32017 0.5
374 8.92472 6.39544 11.4386 0.5
375 11.7866 10.2641 4.64122 0.5
376 7.1241 3.7629 13.3417 0.5
377 4.5499 10.3581 1.88144 0.5
378 3.88592 1.56371 3.89976 0.5
379 12.6275 5.93611 1.62355 0.5
380 2.3691 2.82286 8.30631 0.5
381 6.44282 7.2007 8.57177 0.5
382 8.96432 6.58921 3.53588 0.5
383 12.1341 3.04429 3.98081 0.5
384 6.80949 6.82985 8.97634 0.5
385 5.89561 11.8708 2.96989 0.5
386 7.20785 3.73005 6.7502 0.5
387 4.92312 3.84876 9.49619 0.5
388 0.864416 8.66408 2.64368 0.5
389 4.30234 4.85848 10.6952 0.5
390 5.18143 10.3059 8.45902 0.5
391 4.12124 8.46054 3.50215 0.5
392 11.8504 3.55367 7.61994 0.5
393 11.4089 5.61451 7.79284 0.5
394 12.7413 0.167068 12.097 0.5
395 7.70007 11.9634 11.372 0.5
396 13.3492 9.37388 7.24839 0.5
397 9.80348 3.24952 3.72074 0.5
398 6.80033 9.03177 3.55922 0.5
399 9.36326 12.0552 12.459 0.5
400 6.77047 11.1462 13.0702 0.5
401 1.13774 4.79694 7.65014 0.5
402 4.25676 4.80955 5.8495 0.5
403 0.0786391 2.40277 5.10652 0.5
404 6.63096 10.5182 12.9285 0.5
405 5.30944 12.7576 0.618509 0.5
406 4.25403 5.61318 1.59256 0.5
407 9.26623 4.95591 9.95535 0.5
408 6.8614 11.8639 1.30401 0.5
409 10.9158 8.31796 7.46369 0.5
410 0.627016 10.0173 7.18585 0.5
411 4.67896 0.371709 1.86822 0.5
412 8.85958 8.74088 4.15358 0.5
413 1.8204 0.770739 4.38433 0.5
414 7.19165 11.2043 6.6513 0.5
415 13.0533 6.72593 2.28939 0.5
416 10.4579 6.1632 9.85014 0.5
417 6.05793 7.96114 5.59579 0.5
418 6.81905 1.6047 8.10036 0.5
419 0.996558 9.1607 6.95045 0.5
420 12.676 11.5829 5.1285 0.5
421 6.74046 12.1627 10.0311 0.5
422 9.11044 2.1788 6.72702 0.5
423 4.22362 5.40562 12.194 0.5
424 4.44302 2.32352 3.65041 0.5
425 7.7132 8.0331 5.9153 0.5
426 9.19221 11.3623 9.46502 0.5
427 10.5574 5.71709 10.9214 0.5
428 5.83689 1.34521 9.86459 0.5
429 6.61533 10.4962 1.93804 0.5
430 1.3815 11.8069 3.30768 0.5
431 11.1017 4.35629 6.3901 0.5
432 3.678 4.98426 0.325911 0.5
433 5.09091 5.72915 5.33146 0.5
434 10.7319 11.561 11.0122 0.5
435 9.06936 8.30619 4.02604 0.5
436 1.99914 5.89171 12.0784 0.5
437 5.38453 7.72024 6.69451 0.5
438 0.571933 13.5222 6.63359 0.5
439 0.731594 11.8596 12.7095 0.5
440 10.9542 7.59374 4.12425 0.5
441 10.4553 0.756567 2.7599 0.5
442 12.8007 4.73265 5.18567 0.5
443 10.899 8.20617 1.276 0.5
444 6.54223 0.240042 6.60992 0.5
445 4.51728 13.5287 3.03503 0.5
446 0.590107 9.55504 11.1261 0.5
447 10.8314 1.17117 3.84604 0.5
448 1.33215 10.7273 11.7087 0.5
449 12.4089 1.32387 5.87204 0.5
450 6.76969 2.37791 1.63525 0.5
451 3.64436 4.91538 9.32109 0.5
452 8.57465 9.40358 8.49405 0.5
453 12.6392 2.53617 7.39758 0.5
454 7.80832 4.60804 7.52313 0.5
455 1.2067 4.00104 12.7964 0.5
456 6.57921 12.6291 0.242813 0.5
457 11.0102 9.91707 4.15282 0.5
458 3.04985 11.8413 10.9964 0.5
459 5.37614 7.53929 12.452 0.5
460 6.04254 11.7788 10.347 0.5
461 8.47666 1.77286 7.75944 0.5
462 7.84449 6.11267 11.99 0.5
463 0.36188 10.7195 12.9685 0.5
464 6.54764 7.51755 8.50243 0.5
465 1.80558 7.50965 4.64464 0.5
466 6.46068 4.88702 4.54583 0.5
467 6.88069 6.21011 10.9453 0.5
468 6.59375 7.78665 6.58171 0.5
469 7.02916 6.33084 0.699921 0.5
470 13.1719 5.69619 7.85856 0.5
471 13.1074 2.45216 1.71184 0.5
472 5.89031 12.3172 11.7306 0.5
473 3.80421 10.3238 5.61555 0.5
474 5.26012 5.97328 9.21036 0.5
475 12.5343 9.35373 9.39406 0.5
476 9.8296 7.71681 12.5419 0.5
477 2.00706 1.34198 8.81449 0.5
478 10.7512 0.289943 1.82193 0.5
479 13.3836 9.66605 9.46353 0.5
480 10.7751 3.75045 11.6458 0.5
481 3.18802 13.4736 7.83668 0.5
482 4.50976 1.96158 9.16015 0.5
483 6.64268 10.3678 1.22867 0.5
484 7.91171 5.94847 8.50376 0.5
485 8.31126 8.50702 0.710283 0.5
486 9.63272 2.27788 11.5964 0.5
487 9.56599 0.0484713 8.78379 0.5
488 7.16035 4.31029 7.08637 0.5
489 0.418852 11.7155 12.5464 0.5
490 10.1861 6.57713 0.647509 0.5
491 11.7282 3.1656 5.42457 0.5
492 9.98877 0.784766 9.49083 0.5
493 11.2245 6.16778 4.85722 0.5
494 4.37588 11.4112 10.7116 0.5
495 11.3893 9.90416 11.887 0.5
496 0.735462 1.88219 5.24894 0.5
497 11.5433 1.1792 1.95563 0.5
498 8.06555 7.99969 4.51227 0.5
499 3.455 3.49242 0.388197 0.5
500 9.88426 5.15077 1.46113 0.5
501 2.27937 6.88887 8.95223 0.5
502 5.73514 11.9283 7.57166 0.5
503 12.7043 0.260904 1.61693 0.5
504 1.1267 4.81254 7.44916 0.5
505 13.5692 9.28095 7.39399 0.5
506 7.53526 4.08182 8.16389 0.5
507 8.04997 5.46586 5.94934 0.5
508 11.6194 9.01774 11.0784 0.5
509 4.49375 8.11112 2.73043 0.5
510 9.04682 12.2939 5.76844 0.5
511 8.17368 2.66611 12.3999 0.5
512 5.35158 2.79465 12.5931 0.5
513 10.5755 10.4686 0.165953 0.5
514 3.92862 13.4858 7.17079 0.5
515 11.4285 6.4687 12.7819 0.5
516 12.6639 12.2455 7.5622 0.5
517 7.35189 6.80186 10.0462 0.5
518 2.99186 5.36422 6.87209 0.5
519 11.9398 8.32913 8.37446 0.5
520 9.78065 5.60245 12.8916 0.5
521 1.18061 2.0701 2.22324 0.5
522 3.29195 10.2863 6.25086 0.5
523 8.79474 7.63368 2.1177 0.5
524 12.355 11.2787 13.0831 0.5
525 0.385075 2.61756 2.6152 0.5
526 10.8442 8.82917 10.5935 0.5
527 3.29684 9.82214 10.6084 0.5
528 4.30194 1.13303 5.49277 0.5
529 2.13663 2.61454 0.439378 0.5
530 11.4951 5.45152 8.40954 0.5
531 5.11003 4.45389 12.8385 0.5
532 4.25357 3.49717 8.24954 0.5
533 7.6936 0.65566 1.67128 0.5
534 4.31743 1.51994 8.49475 0.5
535 1.36426 0.743929 9.64227 0.5
536 9.74303 2.86221 11.6926 0.5
537 9.14476 5.29154 0.274491 0.5
538 1.24337 6.59882 9.8767 0.5
539 6.03767 2.02024 2.70388 0.5
540 2.36626 1.94294 1.13171 0.5
541 4.49028 2.29646 10.16 0.5
542 12.5602 13.433 8.02678 0.5
543 1.63873 3.90394 9.79135 0.5
544 1.15245 5.24627 2.82175 0.5
545 10.7744 9.5913 7.47031 0.5
546 12.761 11.1013 2.3763 0.5
547 11.9677 6.1794 1.85494 0.5
548 0.557528 1.40926 6.93914 0.5
549 5.1825 7.24935 6.66006 0.5
550 7.33751 11.8449 12.471 0.5
551 0.862028 12.1667 11.8687 0.5
552 4.38669 11.3125 0.0599435 0.5
553 4.05504 6.18377 9.14616 0.5
554 6.43976 7.99648 0.836785 0.5
555 13.1787 10.5262 6.84555 0.5
556 10.2617 1.63753 10.2065 0.5
557 3.49973 3.48661 10.8736 0.5
558 6.10791 13.4082 5.95998 0.5
559 8.89137 8.81087 8.38213 0.5
560 9.39382 10.0888 11.4039 0.5
561 11.2922 9.37456 3.54941 0.5
562 13.1277 1.09461 12.6779 0.5
563 6.51329 10.3883 5.52793 0.5
564 2.38153 4.93833 4.59862 0.5
565 4.31032 0.541697 9.00347 0.5
566 5.61982 2.80459 13.3386 0.5
567 5.34061 1.49736 2.20733 0.5
568 13.041 8.0336 9.50362 0.5
569 8.44777 1.62822 6.9304 0.5
570 3.04946 1.39515 10.3689 0.5
571 6.20584 0.646021 7.6347 0.5
572 10.9033 6.96166 9.08063 0.5
573 9.52975 9.81628 2.6164 0.5
574 5.98022 1.45426 2.52125 0.5
575 5.69399 5.11273 11.539 0.5
576 10.1955 9.9006 9.84781 0.5
577 9.16118 3.74605 4.18519 0.5
578 3.69017 8.57836 11.7796 0.5
579 10.8833 0.466785 13.1207 0.5
580 12.8985 0.824211 10.2033 0.5
581 9.97004 11.8372 6.28617 0.5
582 11.5487 12.7733 12.9356 0.5
583 0.169449 5.23201 7.84673 0.5
584 8.88209 7.5073 8.9409 0.5
585 11.342 2.67483 8.50281 0.5
586 5.98623 4.04625 5.35327 0.5
587 2.06409 10.0214 6.35946 0.5
588 6.68001 1.83964 7.92956 0.5
589 9.27298 10.3378 10.7254 0.5
590 7.90609 11.78 11.124 0.5
591 12.0165 7.15378 2.81174 0.5
592 10.8783 0.255972 4.16273 0.5
593 7.85595 2.28775 13.4089 0.5
594 6.59862 7.61104 4.19868 0.5
595 13.4256 4.77172 2.44713 0.5
596 3.78597 1.98369 12.2276 0.5
597 5.58836 3.20653 7.58949 0.5
598 7.36073 6.7951 0.683487 0.5
599 8.51772 12.2252 5.4787 0.5
600 12.5889 3.84353 11.8143 0.5
601 1.86425 12.7391 9.80839 0.5
602 1.40727 5.65163 1.02781 0.5
603 11.1797 5.5317 1.55991 0.5
604 1.67481 11.8825 5.34687 0.5
605 10.0356 8.62477 5.68251 0.5
606 2.29806 1.42429 3.74373 0.5
607 10.9391 0.895254 2.21693 0.5
608 4.47522 8.55096 1.11742 0.5
609 2.4627 11.9553 0.371619 0.5
610 8.40285 2.40136 13.5697 0.5
611 13.4991 5.15191 5.11092 0.5
612 8.99832 8.22874 3.24168 0.5
613 6.52097 7.45506 0.233615 0.5
614 3.29906 5.21822 5.26726 0.5
615 1.03378 3.74015 12.3936 0.5
616 9.18777 7.88039 6.54671 0.5
617 13.0648 5.10602 9.73144 0.5
618 5.10564 10.87 8.63811 0.5
619 11.4344 1.03646 1.47513 0.5
620 1.22197 11.2109 12.2424 0.5
621 3.31332 4.96958 12.3595 0.5
622 5.90051 13.4094 6.07024 0.5
623 8.60457 9.38364 0.736838 0.5
624 7.91896 11.9865 11.8295 0.5
625 5.16106 2.78836 10.3134 0.5
626 9.77559 3.47062 13.2068 0.5
627 1.82454 4.99088 12.3316 0.5
628 6.44902 6.29347 11.8744 0.5
629 4.27611 9.5223 0.684257 0.5
630 8.99617 8.30561 11.8026 0.5
631 11.4487 6.94914 13.5351 0.5
632 7.02532 6.17025 11.4837 0.5
633 9.28355 4.71327 2.45791 0.5
634 1.71885 7.77285 6.75477 0.5
635 12.8592 3.4033 7.27262 0.5
636 11.1166 10.5741 2.14477 0.5
637 12.6282 11.0076 4.76218 0.5
638 7.71553 10.48 3.08451 0.5
639 11.2077 13.572 3.98741 0.5
640 2.43155 4.20954 4.28005 0.5
641 2.29749 1.89757 0.915932 0.5
642 10.7576 13.2671 11.9098 0.5
643 2.00769 8.79693 10.0731 0.5
644 10.9972 6.71908 7.31184 0.5
645 3.96682 2.18265 2.45082 0.5
646 8.80112 1.2147 5.37419 0.5
647 9.75747 9.48299 2.13093 0.5
648 1.57817 11.4381 12.3677 0.5
649 13.4928 12.9264 11.1254 0.5
650 6.31837 5.94339 11.6234 0.5
651 1.15536 11.6876 6.71185 0.5
652 6.67463 10.8873 2.93274 0.5
653 10.0687 6.91568 7.69633 0.5
654 13.2986 11.6099 9.424 0.5
655 7.35504 4.28948 3.63627 0.5
656 4.25052 5.76175 11.0738 0.5
657 3.67017 11.3565 9.36614 0.5
658 6.02511 4.62888 0.19911 0.5
659 4.21191 12.7609 3.8363 0.5
660 6.60989 6.48034 10.7447 0.5
661 5.45874 1.96706 11.5181 0.5
662 1.25419 0.151364 1.13402 0.5
663 10.912 10.2969 3.19415 0.5
664 0.449927 3.156 7.10729 0.5
665 5.12004 10.5012 2.62472 0.5
666 12.9963 1.9185 12.6577 0.5
667 8.61933 6.3825 2.98968 0.5
668 0.0622878 2.41253 1.44961 0.5
669 10.9329 1.72049 13.1922 0.5
670 1.13049 3.55016 12.1086 0.5
671 4.21248 9.8151 10.492 0.5
672 9.92927 10.4811 3.70202 0.5
673 3.63923 3.68209 13.4143 0.5
674 13.2801 8.38101 5.98585 0.5
675 8.178 3.67471 9.7192 0.5
676 3.81159 9.79804 3.7222 0.5
677 1.92466 9.16607 5.56877 0.5
678 7.8686 9.69208 5.56953 0.5
679 11.2306 7.91473 3.94352 0.5
680 6.60707 7.04474 10.4661 0.5
681 0.929859 12.5097 1.2748 0.5
682 6.4991 12.9446 3.60494 0.5
683 5.29225 13.2539 8.52363 0.5
684 9.99145 3.38503 7.97205 0.5
685 9.0927 12.1275 1.92625 0.5
686 4.34118 13.1452 1.40254 0.5
687 1.30133 8.92421 9.05417 0.5
688 3.95298 1.35962 2.90431 0.5
689 2.10739 1.18008 5.92785 0.5
690 7.13466 4.07105 7.66158 0.5
691 11.4454 12.6014 1.82865 0.5
692 8.25144 13.1132 9.21753 0.5
693 7.54859 1.28082 3.3471 0.5
694 4.47046 0.247214 4.45153 0.5
695 9.06906 8.5972 5.95945 0.5
696 5.49969 12.5153 0.387856 0.5
697 12.2524 0.377858 2.0711 0.5
698 7.45454 8.98616 0.226373 0.5
699 12.6492 1.2822 6.12118 0.5
700 3.93606 12.111 4.75719 0.5
701 1.46688 12.5207 11.3312 0.5
702 4.91584 13.3852 5.48793 0.5
703 0.104934 3.19874 6.02569 0.5
704 11.928 10.0973 7.87048 0.5
705 11.9977 1.37609 4.49009 0.5
706 5.97032 0.538323 11.7751 0.5
707 9.61762 11.6952 13.2413 0.5
708 10.9133 4.65733 2.56736 0.5
709 7.71248 0.830049 13.4745 0.5
710 1.77623 9.61784 10.4612 0.5
711 1.71556 0.71567 12.3025 0.5
712 12.3037 6.02762 11.5036 0.5
713 11.7205 4.03239 10.5935 0.5
714 12.2055 10.1297 8.85473 0.5
715 3.2892 2.45511 1.07584 0.5
716 10.748 0.362216 9.65866 0.5
717 4.34221 0.601213 4.86434 0.5
718 3.67709 8.796 12.1519 0.5
719 5.87635 11.5571 1.26962 0.5
720 3.90637 10.5747 3.39912 0.5
721 3.10871 11.7579 4.46489 0.5
722 1.82254 10.9029 8.95461 0.5
723 7.85755 9.79714 5.96007 0.5
724 11.6717 10.5511 4.44722 0.5
725 6.13521 0.711867 0.40313 0.5
726 0.969484 12.1805 11.853 0.5
727 0.434278 11.3952 2.60336 0.5
728 10.7697 8.97617 2.89391 0.5
729 1.62443 0.57884 0.943121 0.5
730 1.51219 1.97832 7.03107 0.5
731 4.74662 10.3936 10.3013 0.5
732 9.6286 10.8431 9.73646 0.5
733 3.8292 8.05307 3.62137 0.5
734 9.86042 2.67181 6.64052 0.5
735 2.1601 7.67728 0.326913 0.5
736 12.7698 6.2823 8.74161 0.5
737 5.03406 4.50316 7.65205 0.5
738 2.65544 3.967 3.17634 0.5
739 3.2477 12.4951 7.92138 0.5
740 1.07885 5.07211 1.94519 0.5
741 9.78652 10.3409 5.73327 0.5
742 5.89174 9.19243 9.0255 0.5
743 6.09472 8.57009 8.00982 0.5
744 9.59492 7.90312 12.4224 0.5
745 11.8886 9.90831 0.169351 0.5
746 5.96772 10.329 2.06195 0.5
747 13.0859 13.0957 10.3975 0.5
748 7.34925 9.72219 13.3439 0.5
749 9.38865 0.675619 1.96855 0.5
750 12.1014 5.62716 9.07997 0.5
751 3.31793 8.91818 7.90956 0.5
752 10.2395 7.23438 0.0561195 0.5
753 7.33557 12.1876 9.20866 0.5
754 1.84325 6.25407 3.67302 0.5
755 0.7779 9.58148 2.34839 0.5
756 8.45979 2.79976 2.07941 0.5
757 9.54459 10.6988 3.01743 0.5
758 3.38099 4.57531 4.78227 0.5
759 10.9106 7.2412 2.76259 0.5
760 0.730013 3.72422 9.44417 0.5
761 13.3552 4.77276 12.2878 0.5
762 9.54802 4.07491 11.8934 0.5
763 2.89238 5.87699 10.4699 0.5
764 7.62657 1.44784 1.87416 0.5
765 10.6923 2.55978 5.33965 0.5
766 0.510249 9.82936 5.01121 0.5
767 8.20512 13.5585 6.87439 0.5
768 11.2572 7.42539 6.94253 0.5
769 0.298066 6.15217 13.54 0.5
770 8.37812 1.92528 8.04394 0.5
771 7.81315 4.5233 5.28636 0.5
772 5.79859 1.75959 9.98212 0.5
773 4.80777 11.2528 1.82612 0.5
774 6.55774 7.04376 10.0632 0.5
775 9.34534 2.56206 7.3277 0.5
776 2.88513 11.5244 6.36981 0.5
777 13.5572 11.4064 0.518914 0.5
778 10.7427 1.4289 1.19765 0.5
779 7.82705 12.4332 11.5931 0.5
780 4.87528 4.92182 7.78307 0.5
781 1.82823 7.83758 12.5902 0.5
782 9.12365 6.75864 4.36535 0.5
783 9.60836 0.565935 5.64838 0.5
784 0.627496 8.52415 6.08876 0.5
785 10.1499 4.52854 1.3896 0.5
786 7.97597 13.3131 4.64214 0.5
787 10.592 3.13873 2.46717 0.5
788 13.0935 7.32327 10.0323 0.5
789 5.81983 12.3292 8.75402 0.5
790 7.29271 8.64061 9.2456 0.5
791 11.2855 9.6832 12.3116 0.5
792 7.42211 4.04805 8.86753 0.5
793 6.44014 11.3372 2.26271 0.5
794 4.52177 9.87098 8.53898 0.5
795 11.3669 1.1924 4.52922 0.5
796 7.6862 10.8233 9.6875 0.5
797 7.6652 6.20476 6.74177 0.5
798 10.7857 4.56666 9.65688 0.5
799 10.8205 9.62138 7.52959 0.5
800 10.0167 0.812978 7.60641 0.5
801 9.66427 7.48634 13.1264 0.5
802 0.467533 11.607 4.64316 0.5
803 6.71748 10.7744 12.0265 0.5
804 9.00217 12.5351 0.694444 0.5
805 13.4415 10.4501 13.1917 0.5
806 0.351169 5.23133 1.64808 0.5
807 11.1401 11.1421 6.41713 0.5
808 12.378 3.04921 9.5544 0.5
809 2.01447 1.99108 12.1477 0.5
810 8.81019 11.2783 1.9217 0.5
811 3.93757 2.43521 5.714 0.5
812 11.5158 4.26699 1.15887 0.5
813 7.81888 10.8478 12.5639 0.5
814 10.4051 7.85606 10.699 0.5
815 13.1024 10.3873 6.56649 0.5
816 9.72493 8.48211 10.3597 0.5
817 1.32331 5.38039 5.28849 0.5
818 6.10986 5.68899 13.1208 0.5
819 3.14878 12.3276 6.78029 0.5
820 7.39042 5.42954 7.15148 0.5
821 8.55647 10.2536 12.7476 0.5
822 1.72425 2.13997 2.12511 0.5
823 9.57398 12.7919 8.22528 0.5
824 2.28848 12.8013 7.7517 0.5
825 8.39971 12.6928 8.29253 0.5
826 12.3493 3.86929 8.8091 0.5
827 4.58368 11.8123 8.55404 0.5
828 7.65117 11.7999 3.92809 0.5
829 8.494 11.2574 4.21286 0.5
830 1.05017 7.6701 4.85789 0.5
831 4.02026 4.97171 5.91371 0.5
832 9.52059 8.97364 11.3727 0.5
833 6.77688 1.94241 8.66088 0.5
834 9.20735 11.3583 4.73183 0.5
835 4.50146 9.93413 2.68864 0.5
836 9.30327 12.2259 1.50551 0.5
837 0.313448 11.9378 3.4946 0.5
838 7.73876 1.87682 6.48329 0.5
839 2.55828 12.1614 10.208 0.5
840 2.86298 9.01239 3.87552 0.5
841 3.33955 8.47326 11.1484 0.5
842 3.13809 11.5006 3.04622 0.5
843 6.39972 8.27721 0.343394 0.5
844 9.64048 10.2965 3.41949 0.5
845 2.57471 9.34814 9.22773 0.5
846 12.0318 0.411323 4.65671 0.5
847 1.74699 8.58608 1.78533 0.5
848 6.70739 4.61164 5.54772 0.5
849 7.3841 6.63634 9.21817 0.5
850 12.5334 6.97354 2.57713 0.5
851 3.97587 12.8098 11.2856 0.5
852 10.0636 8.06793 5.8069 0.5
853 7.51538 2.35617 3.38164 0.5
854 0.896204 0.219254 12.5313 0.5
855 12.7905 8.8505 9.83363 0.5
856 0.33001 2.93787 4.71793 0.5
857 8.99358 8.88886 6.72541 0.5
858 9.20338 11.3812 6.56243 0.5
859 9.28633 3.36215 7.3986 0.5
860 12.1018 12.9531 9.19458 0.5
861 13.4943 12.782 2.11882 0.5
862 9.0519 0.699688 7.08263 0.5
863 9.92205 11.173 13.5389 0.5
864 1.94374 9.91734 9.76921 0.5
865 10.9129 7.65975 8.06973 0.5
866 13.1271 5.9431 0.776357 0.5
867 8.81812 0.504377 7.27256 0.5
868 5.39135 12.7808 3.69348 0.5
869 10.0762 5.93068 6.39904 0.5
870 1.99936 13.1617 5.69883 0.5
871 1.93218 3.26898 1.86737 0.5
872 4.27413 12.42 2.04445 0.5
873 6.31578 7.10724 4.17056 0.5
874 0.872362 7.82926 13.3558 0.5
875 4.52315 6.43383 8.90165 0.5
876 6.06407 9.87186 2.32826 0.5
877 6.17068 9.20705 10.5203 0.5
878 2.79455 2.3614 3.06333 0.5
879 11.2985 3.67499 13.4986 0.5
880 9.1152 9.87496 8.56328 0.5
881 7.60397 7.71192 10.0183 0.5
882 10.7722 11.0912 5.5733 0.5
883 12.8348 9.29876 8.27683 0.5
884 11.7125 7.65342 9.34236 0.5
885 10.1871 3.32971 10.4015 0.5
886 6.2669 8.62397 0.705872 0.5
887 2.67538 11.4025 9.25177 0.5
888 5.64688 2.28488 11.3923 0.5
889 11.8037 9.91389 8.06683 0.5
890 4.73167 13.4742 9.41726 0.5
891 7.98279 2.45682 10.1901 0.5
892 10.1605 11.9726 5.53239 0.5
893 5.50226 12.2311 9.46583 0.5
894 6.46426 11.0107 8.36321 0.5
895 13.0078 4.82888 0.875056 0.5
896 11.8923 5.68269 6.95922 0.5
897 3.19275 12.508 9.48691 0.5
898 6.51353 13.2617 3.64235 0.5
899 9.59574 10.9585 12.0172 0.5
900 9.27602 12.4785 8.48137 0.5
901 5.46986 12.898 9.04407 0.5
902 9.97236 13.4086 2.49237 0.5
903 4.55057 7.83712 11.1884 0.5
904 11.4321 12.2294 7.12848 0.5
905 5.44007 8.07921 9.08736 0.5
906 6.05003 8.95279 9.4661 0.5
907 6.6512 6.19842 6.4197 0.5
908 4.44375 6.39918 13.4086 0.5
909 0.0215058 7.14003 12.8435 0.5
910 0.768168 6.02637 11.3355 0.5
911 12.067 8.81779 2.20258 0.5
912 1.74124 10.7252 2.47592 0.5
913 0.0574596 3.85392 9.28232 0.5
914 1.17819 9.94643 8.67394 0.5
915 11.5394 8.99228 6.92318 0.5
916 1.99892 10.6494 3.02638 0.5
917 8.92862 2.61786 7.72881 0.5
918 1.28669 12.3762 1.29329 0.5
919 3.36332 4.69643 12.0428 0.5
920 11.4687 9.34538 0.855863 0.5
921 7.59532 6.3975 11.0517 0.5
922 12.341 2.7994 4.94352 0.5
923 10.1366 1.21261 2.90414 0.5
924 4.84444 4.28352 8.83044 0.5
925 6.14085 11.0271 11.6024 0.5
926 12.13 12.6791 7.59947 0.5
927 11.8776 11.8956 5.89131 0.5
928 3.56023 0.993824 12.7354 0.5
929 12.4427 2.62862 10.9113 0.5
930 1.57354 11.6048 12.468 0.5
931 10.1947 10.3511 13.5558 0.5
932 3.17538 11.1466 2.22358 0.5
933 9.80217 3.22452 13.4968 0.5
934 7.90375 12.1877 1.03201 0.5