ITEM: TIMESTEP
560000
ITEM: NUMBER OF ATOMS
1000
ITEM: BOX BOUNDS xy xz yz pp pp pp
0.0000000000000000e+00 1.3572088000000001e+01 0.0000000000000000e+00
0.0000000000000000e+00 1.3572088000000001e+01 0.0000000000000000e+00
0.0000000000000000e+00 1.3572088000000001e+01 0.0000000000000000e+00
ITEM: ATOMS id x y z radius
1 4.23863 4.10939 12.8208 0.5
2 7.51336 1.88496 2.40366 0.5
3 8.76991 13.5135 3.99573 0.5
4 11.6013 7.53246 3.30003 0.5
5 8.13686 6.19904 3.36191 0.5
6 13.121 8.7023 12.8912 0.5
7 0.9976 0.183018 3.10773 0.5
8 0.441711 7.03787 11.5605 0.5
9 8.95245 11.107 7.61445 0.5
10 7.51303 8.91383 4.44513 0.5
11 12.263 2.52608 3.97986 0.5
12 5.74124 10.2539 5.47783 0.5
13 1.18709 1.27216 5.03981 0.5
14 4.13097 4.63772 1.06113 0.5
15 9.02512 4.51403 1.77528 0.5
16 7.82118 4.26892 1.76492 0.5
17 10.0633 4.70949 0.746108 0.5
18 12.4496 3.80075 9.76199 0.5
19 12.7434 11.304 2.04683 0.5
20 11.8771 4.52698 3.80983 0.5
21 3.43024 11.9775 3.40137 0.5
22 2.1241 12.3602 6.9052 0.5
23 8.73846 10.957 11.7715 0.5
24 1.40816 13.5562 2.37328 0.5
25 3.45933 3.89428 2.36344 0.5
26 8.16531 0.298534 5.76444 0.5
27 12.688 6.97493 12.7113 0.5
28 5.98935 9.67755 3.65652 0.5
29 6.42712 4.48896 4.30101 0.5
30 7.73207 3.11734 7.40197 0.5
31 13.4997 11.6285 12.1183 0.5
32 5.43891 2.41198 7.27755 0.5
33 5.68412 11.2408 11.7038 0.5
34 8.55015 10.0655 2.85128 0.5
35 1.42523 9.94316 10.2381 0.5
36 0.638955 10.577 4.00965 0.5
37 10.0829 11.5182 0.368056 0.5
38 1.88913 7.29991 2.93854 0.5
39 7.71718 1.40923 1.7398 0.5
40 12.3966 9.2922 13.2805 0.5
41 2.33646 1.08348 12.5964 0.5
42 7.31781 11.6412 7.59345 0.5
43 13.3948 9.60431 5.88583 0.5
44 7.89812 6.45587 1.58242 0.5
45 12.1649 0.161322 6.36377 0.5
46 12.5678 3.22332 1.72078 0.5
47 11.7282 10.3565 9.03264 0.5
48 10.7102 8.43822 7.66936 0.5
49 12.3035 7.58738 2.84924 0.5
50 9.22407 10.912 10.8974 0.5
51 3.02922 9.26125 10.3683 0.5
52 6.65037 1.91306 12.8566 0.5
53 0.485335 4.97562 7.05668 0.5
54 0.247684 4.84693 2.7932 0.5
55 3.31896 1.25457 8.57951 0.5
56 1.50064 0.617141 2.89847 0.5
57 11.6355 4.82362 2.1099 0.5
58 10.511 5.39547 11.3714 0.5
59 12.1825 11.0807 3.4159 0.5
60 1.71289 7.21151 12.5118 0.5
61 13.1463 7.03712 12.86 0.5
62 10.9128 9.88155 5.32214 0.5
63 4.52338 10.7359 3.0942 0.5
64 8.98423 4.15338 6.20671 0.5
65 11.9409 1.1336 11.4654 0.5
66 1.28164 13.0529 3.80184 0.5
67 7.01075 9.71077 4.94302 0.5
68 9.84716 8.07043 10.8837 0.5
69 3.35343 8.96738 5.57868 0.5
70 4.72732 13.1043 11.5761 0.5
71 12.5352 2.90023 12.9245 0.5
72 1.74275 3.49355 8.56254 0.5
73 7.14496 1.32252 9.85152 0.5
74 0.552818 10.0576 13.5043 0.5
75 2.05905 2.2113 11.6657 0.5
76 4.13756 11.1961 6.30893 0.5
77 12.6115 11.963 8.99759 0.5
78 6.89607 6.7488 5.07942 0.5
79 2.14286 8.50954 0.819172 0.5
80 7.67792 13.4433 6.17451 0.5
81 2.66923 8.46801 10.4209 0.5
82 9.55029 2.78297 12.1657 0.5
83 0.104305 11.4205 7.27072 0.5
84 1.84948 4.27207 10.0302 0.5
85 3.54006 1.32664 2.64066 0.5
86 0.356057 0.515657 1.84949 0.5
87 11.1886 12.7036 0.433171 0.5
88 7.20584 0.0290328 7.38888 0.5
89 3.80193 9.62215 13.2303 0.5
90 3.90676 11.0192 2.89548 0.5
91 0.224615 11.56 1.08063 0.5
92 4.69874 8.53897 6.38031 0.5
93 7.90722 13.2482 9.4858 0.5
94 0.166597 2.81389 7.34904 0.5
95 9.82732 3.95936 8.8639 0.5
96 6.87226 1.45583 8.95192 0.5
97 1.0081 8.41687 9.65288 0.5
98 2.88697 13.058 5.21326 0.5
99 7.9864 5.19707 2.28692 0.5
100 11.8447 13.33 9.43169 0.5
101 12.214 10.7213 3.06897 0.5
102 2.58497 10.1548 5.70761 0.5
103 4.28157 10.9536 11.7024 0.5
104 13.1063 7.00679 0.571796 0.5
105 11.5713 3.85307 8.442 0.5
106 7.57833 2.68805 2.26115 0.5
107 7.01758 1.00841 4.3023 0.5
108 10.2813 0.506607 0.831292 0.5
109 8.83886 7.16713 7.22101 0.5
110 5.57817 1.67136 10.9661 0.5
111 8.66414 10.5639 13.4011 0.5
112 12.2351 9.48119 10.2604 0.5
113 7.44788 8.24988 9.52986 0.5
114 0.725649 10.4705 0.233916 0.5
115 6.01473 7.62638 12.9436 0.5
116 2.00929 9.32818 12.9191 0.5
117 8.63187 7.47492 11.943 0.5
118 4.80048 11.2443 12.6906 0.5
119 2.55762 3.54322 8.34053 0.5
120 12.8908 9.96153 2.64932 0.5
121 4.86074 1.80591 3.22194 0.5
122 10.0523 6.39895 2.1368 0.5
123 12.4638 10.2627 12.0929 0.5
124 0.374087 3.12521 11.361 0.5
125 10.3795 1.12794 12.0463 0.5
126 0.503002 13.4647 12.9646 0.5
127 13.1415 9.86964 7.169 0.5
128 5.61637 12.7064 2.19989 0.5
129 7.10882 12.1862 6.57946 0.5
130 9.28127 5.5527 13.4492 0.5
131 6.40114 6.61255 4.66552 0.5
132 9.79946 10.8419 2.5924 0.5
133 4.4437 8.00404 5.84656 0.5
134 4.44522 12.8522 6.96849 0.5
135 9.07463 0.919356 3.27412 0.5
136 1.36964 5.52859 4.81065 0.5
137 7.74327 4.2999 6.19992 0.5
138 5.58342 11.5047 3.0051 0.5
139 3.20023 10.5241 4.75673 0.5
140 3.489 8.23928 0.440571 0.5
141 7.59101 6.05331 5.67568 0.5
142 8.28601 0.448725 11.138 0.5
143 3.64463 12.6164 2.07043 0.5
144 12.4701 1.90179 5.0745 0.5
145 4.7343 13.0875 5.33918 0.5
146 3.25789 11.3661 6.19236 0.5
147 7.61933 7.68759 11.6798 0.5
148 2.54176 4.3329 4.83527 0.5
149 6.67943 0.643629 5.04801 0.5
150 6.28585 2.64469 9.68958 0.5
151 9.05409 0.297492 7.91379 0.5
152 12.57 0.320406 0.163211 0.5
153 1.67851 1.13217 2.01367 0.5
154 6.23545 9.06197 5.63038 0.5
155 12.5059 11.091 9.602 0.5
156 0.172502 1.87952 3.65443 0.5
157 0.773904 9.06223 2.09626 0.5
158 4.62411 6.10266 4.58967 0.5
159 7.22246 3.57107 4.74258 0.5
160 3.16967 6.22479 13.1827 0.5
161 3.20258 8.19266 9.14625 0.5
162 12.6312 5.61123 6.84489 0.5
163 5.53163 5.29955 10.454 0.5
164 3.57022 1.46014 12.3281 0.5
165 7.54515 1.69445 9.01713 0.5
166 8.10173 11.034 12.1556 0.5
167 4.77103 6.13013 13.0738 0.5
168 11.7375 12.1108 9.80929 0.5
169 11.4805 0.468946 3.9492 0.5
170 7.85868 0.930039 9.90865 0.5
171 1.43681 2.5177 6.81618 0.5
172 13.1255 9.46847 11.8462 0.5
173 7.63437 3.86797 0.300296 0.5
174 0.902273 6.74312 9.20636 0.5
175 1.69545 12.0458 5.2484 0.5
176 8.00957 2.19101 1.88805 0.5
177 3.41638 5.60501 0.207829 0.5
178 2.8244 11.9206 10.7738 0.5
179 4.56815 8.95175 10.5878 0.5
180 3.55311 6.51499 0.59404 0.5
181 10.0388 9.72035 4.04183 0.5
182 5.44715 10.5621 9.36703 0.5
183 1.42419 9.04587 4.94481 0.5
184 3.49959 8.93924 12.4815 0.5
185 9.9839 2.44158 9.40936 0.5
186 1.63444 8.28587 13.2388 0.5
187 8.31902 5.56004 7.44664 0.5
188 11.9761 9.90388 6.13895 0.5
189 4.01246 6.38468 6.70413 0.5
190 13.1478 12.8449 6.59687 0.5
191 4.70589 9.39442 7.78826 0.5
192 5.94733 12.7701 1.23916 0.5
193 0.989637 3.49247 2.11002 0.5
194 7.09819 5.04567 11.9805 0.5
195 2.06342 3.17141 5.87844 0.5
196 5.04624 4.40639 0.518098 0.5
197 11.831 3.4699 1.97648 0.5
198 6.61992 7.88371 9.02398 0.5
199 0.00815152 2.49942 9.70514 0.5
200 0.0455993 13.29 12.4356 0.5
201 3.83648 8.22641 10.045 0.5
202 10.5907 12.0571 12.9542 0.5
203 8.26366 8.48548 7.60197 0.5
204 0.737794 9.56077 4.457 0.5
205 8.08338 11.9033 1.80818 0.5
206 6.55926 0.274837 9.41959 0.5
207 3.35501 2.26031 4.05763 0.5
208 13.4751 4.70207 9.38304 0.5
209 11.696 11.6944 12.1065 0.5
210 1.63553 10.3291 4.55069 0.5
211 11.3032 3.27825 9.89111 0.5
212 12.9266 2.24538 4.86843 0.5
213 5.16331 0.212306 5.34709 0.5
214 9.98531 7.72889 12.2931 0.5
215 13.0807 12.03 12.6758 0.5
216 1.08092 8.55298 7.55871 0.5
217 10.3979 3.50085 8.10411 0.5
218 1.87058 5.84478 4.33853 0.5
219 0.380044 7.56429 12.0215 0.5
220 3.79661 4.05849 12.1655 0.5
221 12.1608 8.72822 7.62795 0.5
222 10.1389 6.5089 10.5261 0.5
223 8.43072 5.87349 11.9838 0.5
224 12.0622 1.12146 10.7557 0.5
225 12.6763 2.33467 6.65287 0.5
226 2.2886 3.47715 10.8203 0.5
227 9.63859 1.7934 10.2431 0.5
228 11.814 1.09955 6.25082 0.5
229 3.66947 9.75273 6.64646 0.5
230 8.31431 6.03042 9.91298 0.5
231 4.65073 6.87599 7.88434 0.5
232 3.38272 6.0642 8.32574 0.5
233 11.9456 6.86284 11.9283 0.5
234 12.3065 10.1489 4.39217 0.5
235 1.84682 2.0949 6.50239 0.5
236 13.3391 6.11656 11.0459 0.5
237 7.28894 12.8803 1.82409 0.5
238 3.14794 0.958594 12.0026 0.5
239 4.5382 13.1415 10.7387 0.5
240 9.14099 2.37384 8.4246 0.5
241 6.70479 1.08739 6.90326 0.5
242 8.50271 11.536 6.57158 0.5
243 10.1764 0.969314 10.8478 0.5
244 5.07143 6.72957 13.2417 0.5
245 8.58658 6.70428 5.67473 0.5
246 9.27258 9.83791 3.06616 0.5
247 11.1943 8.20685 2.30259 0.5
248 2.58468 8.41963 9.32601 0.5
249 3.94037 3.6159 0.30583 0.5
250 4.43086 10.9275 11.1745 0.5
251 1.99387 9.43526 8.10964 0.5
252 7.94497 3.26577 5.1257 0.5
253 3.84949 12.0528 11.0077 0.5
254 11.0266 0.580334 2.80509 0.5
255 10.471 1.00833 3.65691 0.5
256 7.52763 4.17705 2.63353 0.5
257 4.28091 12.3269 2.9811 0.5
258 2.93181 7.52447 6.74243 0.5
259 8.11339 5.15082 10.9021 0.5
260 2.7592 12.3636 10.9455 0.5
261 3.2252 12.7891 1.71081 0.5
262 10.475 4.89062 13.0426 0.5
263 6.64962 12.7514 2.70018 0.5
264 8.55599 0.844063 6.10508 0.5
265 6.51517 2.06653 4.45766 0.5
266 7.51555 2.12768 3.44807 0.5
267 7.19591 12.747 3.87285 0.5
268 5.88336 10.7877 4.71587 0.5
269 12.8084 13.0341 5.09001 0.5
270 12.1177 6.87399 3.608 0.5
271 2.29822 5.20355 13.1004 0.5
272 2.06949 6.67027 11.2402 0.5
273 7.34976 12.0349 6.82537 0.5
274 0.252687 7.96154 9.74884 0.5
275 10.6788 9.40647 0.428226 0.5
276 8.48925 9.53139 9.0882 0.5
277 13.0942 4.31615 2.98118 0.5
278 7.25448 11.2472 12.555 0.5
279 9.32437 6.64386 13.5452 0.5
280 2.83048 10.1411 12.6155 0.5
281 9.45358 0.968499 11.2721 0.5
282 7.14244 8.03131 4.27365 0.5
283 1.07008 1.81661 11.998 0.5
284 12.8072 3.452 1.18044 0.5
285 1.67426 6.58876 9.71138 0.5
286 6.59903 13.2948 5.15383 0.5
287 10.4775 4.26648 1.77779 0.5
288 7.59521 4.37209 10.3736 0.5
289 10.0659 4.02741 13.0531 0.5
290 4.66143 0.905661 2.9798 0.5
291 10.5651 4.33841 4.89256 0.5
292 7.76672 7.89568 12.2283 0.5
293 1.9288 6.61238 12.6637 0.5
294 2.65418 5.69725 9.4249 0.5
295 12.157 6.16234 9.23066 0.5
296 11.5545 0.832888 8.68439 0.5
297 2.67113 4.30062 0.699302 0.5
298 8.08025 11.1849 4.93712 0.5
299 6.66755 6.20364 7.97428 0.5
300 1.11799 13.5565 8.84288 0.5
301 4.88449 6.05677 8.30924 0.5
302 2.3712 1.19902 7.64903 0.5
303 1.94968 11.8037 11.4036 0.5
304 8.31734 2.95817 9.79095 0.5
305 3.84587 8.47731 13.2267 0.5
306 6.06651 6.84358 2.84143 0.5
307 3.31959 4.72936 3.29092 0.5
308 13.4054 11.2992 5.95966 0.5
309 12.0491 5.30493 3.64804 0.5
310 5.98164 13.3392 10.156 0.5
311 1.92708 1.50141 11.0422 0.5
312 12.6062 1.08803 12.0153 0.5
313 12.7321 6.76356 7.4473 0.5
314 11.5183 4.70804 7.40923 0.5
315 10.7249 3.3268 7.59989 0.5
316 4.70376 10.1213 11.6719 0.5
317 6.84237 2.02081 3.5205 0.5
318 9.52717 3.94352 12.7072 0.5
319 8.39193 5.48731 7.66193 0.5
320 1.54317 6.10595 3.50978 0.5
321 3.96791 8.61623 3.65292 0.5
322 6.76476 10.8363 8.77084 0.5
323 2.47522 5.48881 10.3314 0.5
324 2.26812 2.51199 3.57559 0.5
325 13.2784 2.50219 7.47813 0.5
326 3.26185 5.995 3.09119 0.5
327 6.78871 9.23142 5.07931 0.5
328 8.51549 10.7124 9.89893 0.5
329 6.34098 8.40407 3.32747 0.5
330 9.1347 0.667319 10.9536 0.5
331 3.91922 10.5695 0.506485 0.5
332 10.8319 12.7024 1.7774 0.5
333 4.46957 7.63265 0.883594 0.5
334 3.7732 2.28613 0.0444207 0.5
335 5.34151 3.3732 12.787 0.5
336 6.41983 11.0278 1.21084 0.5
337 10.6445 10.7708 1.45525 0.5
338 11.0419 3.3507 13.0054 0.5
339 2.95673 5.91622 9.5369 0.5
340 4.14498 4.83601 11.8858 0.5
341 9.09478 4.30867 12.8026 0.5
342 1.82826 4.22296 4.87692 0.5
343 8.87616 12.2849 0.800649 0.5
344 10.5649 2.78666 13.5037 0.5
345 11.6631 7.9314 2.51254 0.5
346 12.5567 6.90513 7.58389 0.5
347 8.01985 0.514556 4.26111 0.5
348 2.90674 7.91599 4.11934 0.5
349 9.71755 6.86795 8.92615 0.5
350 8.09866 2.39682 4.9764 0.5
351 12.7592 11.458 3.26943 0.5
352 7.40786 10.8377 1.76906 0.5
353 12.0912 2.45633 8.19502 0.5
354 1.66953 2.71079 12.1941 0.5
355 11.4673 12.8133 8.35953 0.5
356 6.47377 10.444 9.25305 0.5
357 0.890271 7.72671 9.03341 0.5
358 0.823553 5.42225 8.34312 0.5
359 2.66105 11.6873 8.42591 0.5
360 10.093 2.85351 2.64724 0.5
361 6.94493 8.49998 6.18226 0.5
362 0.311545 10.0105 6.51372 0.5
363 13.4128 6.18852 9.0146 0.5
364 11.0774 9.50895 13.3354 0.5
365 8.82505 12.1734 10.3353 0.5
366 5.18429 4.70671 0.642722 0.5
367 4.17235 5.64329 6.63945 0.5
368 1.08087 10.4028 2.3801 0.5
369 1.72089 10.95 7.37403 0.5
370 8.65323 12.9526 3.48243 0.5
371 12.6885 11.8853 0.806349 0.5
372 9.54682 7.88293 11.5402 0.5
373 5.8076 4.20516 10.4157 0.5
374 6.75508 2.7792 1.6149 0.5
375 6.02702 9.05029 12.006 0.5
376 7.04046 7.47185 1.60944 0.5
377 0.739885 10.7839 13.0191 0.5
378 8.84346 5.1734 1.45009 0.5
379 6.9196 0.850716 9.77098 0.5
380 12.1723 4.14318 5.69538 0.5
381 12.5871 0.0448065 3.09364 0.5
382 11.6653 1.27705 5.97459 0.5
383 11.3434 5.4495 1.22072 0.5
384 7.15207 5.04207 7.61046 0.5
385 3.13999 1.80236 4.62505 0.5
386 0.378703 1.03509 8.51682 0.5
387 13.4057 8.41 3.56192 0.5
388 0.595214 1.55774 13.4813 0.5
389 5.83634 7.34612 8.47223 0.5
390 4.86201 8.05399 7.8476 0.5
391 10.9048 0.854438 12.2655 0.5
392 10.9097 5.9901 5.81051 0.5
393 11.6289 9.59548 10.3705 0.5
394 4.64296 0.557385 7.77118 0.5
395 5.70606 3.74025 11.9435 0.5
396 9.58654 4.82659 10.6061 0.5
397 6.95692 6.12809 10.9453 0.5
398 5.88244 9.56684 5.88211 0.5
399 5.49604 11.2988 6.50697 0.5
400 12.0344 2.9806 4.67503 0.5
401 0.0740426 5.63433 3.065 0.5
402 2.42451 11.4916 4.30755 0.5
403 8.6009 -0.00652107 11.1865 0.5
404 7.97299 12.2214 4.55769 0.5
405 8.87312 12.2954 7.82481 0.5
406 5.7534 10.4543 6.15409 0.5
407 8.14184 9.50599 3.70929 0.5
408 8.75132 1.75383 7.88172 0.5
409 7.87411 5.94478 0.999422 0.5
410 8.08604 8.06296 11.2376 0.5
411 1.27215 9.31506 5.27831 0.5
412 6.98561 0.539307 12.3743 0.5
413 4.53378 0.838715 12.7103 0.5
414 5.94041 10.9064 11.5617 0.5
415 3.73121 0.16222 10.9435 0.5
416 13.3415 12.2905 9.34619 0.5
417 5.94471 10.7365 8.5261 0.5
418 5.97957 1.80939 0.648376 0.5
419 2.8537 0.75917 8.89891 0.5
420 5.06289 8.46797 7.99834 0.5
421 1.39919 3.67056 13.5023 0.5
422 12.2428 2.94088 7.95369 0.5
423 8.13528 9.55132 13.3653 0.5
424 11.1926 3.7189 0.209036 0.5
425 2.54401 3.12906 11.0684 0.5
426 6.21982 12.4531 13.5095 0.5
427 9.76339 5.007 6.44485 0.5
428 9.71642 7.25926 7.28221 0.5
429 11.7556 4.6739 9.12222 0.5
430 2.24908 3.35698 12.5535 0.5
431 7.72741 3.0124 11.365 0.5
432 1.87119 5.14752 0.534947 0.5
433 11.3373 8.48005 9.11895 0.5
434 7.3456 0.683525 2.85147 0.5
435 2.28685 2.26564 9.05947 0.5
436 11.1992 5.28884 12.9033 0.5
437 6.58807 3.84163 5.97324 0.5
438 7.47093 2.00757 9.5061 0.5
439 7.1009 0.85447 3.8479 0.5
440 6.95217 4.98265 3.06513 0.5
441 10.9272 1.42927 0.597694 0.5
442 13.3225 7.29128 4.80105 0.5
443 1.40065 4.71992 13.2445 0.5
444 -0.0107827 13.2801 10.7076 0.5
445 1.07976 7.41388 13.2095 0.5
446 11.2528 9.71281 10.9478 0.5
447 12.6102 8.85336 6.321 0.5
448 1.94864 8.56795 13.1464 0.5
449 9.07863 9.609 10.5641 0.5
450 2.41217 0.393256 3.48516 0.5
451 10.506 0.934146 6.40091 0.5
452 12.83 12.5729 7.19215 0.5
453 6.2401 9.34494 12.573 0.5
454 7.18053 7.27177 6.9498 0.5
455 1.85172 5.5169 11.8458 0.5
456 3.53124 9.82854 10.2524 0.5
457 5.07787 11.7993 6.97165 0.5
458 1.83739 12.9168 5.71815 0.5
459 5.07631 12.8565 2.27324 0.5
460 12.2112 2.52959 3.96848 0.5
461 4.65283 1.8292 1.2832 0.5
462 9.26326 11.409 12.8372 0.5
463 6.11252 11.3351 12.1149 0.5
464 12.1472 11.3235 11.2928 0.5
465 9.1669 7.62582 4.50742 0.5
466 0.95479 0.702467 8.86255 0.5
467 2.61756 4.39247 1.47784 0.5
468 4.6299 0.697126 0.269866 0.5
469 0.956448 13.2464 7.4382 0.5
470 0.190284 11.0077 7.98263 0.5
471 3.55203 5.81531 4.60519 0.5
472 4.02336 12.6405 2.54606 0.5
473 0.130577 6.64704 1.40277 0.5
474 4.79352 10.3321 4.17967 0.5
475 4.12312 3.11773 5.22889 0.5
476 7.45679 5.78934 12.2119 0.5
477 9.45808 8.87184 13.199 0.5
478 12.023 6.51248 0.69002 0.5
479 1.65628 1.46625 1.1239 0.5
480 1.36534 9.72676 9.67882 0.5
481 13.5083 9.60759 1.78445 0.5
482 8.40014 10.1416 7.22032 0.5
483 1.26903 4.53663 1.81596 0.5
484 10.4449 5.89105 10.1739 0.5
485 2.14016 2.92001 11.3067 0.5
486 1.67887 6.20032 1.127 0.5
487 3.20568 5.67538 3.47353 0.5
488 2.07764 4.5196 3.93899 0.5
489 1.1649 2.44378 2.62749 0.5
490 9.8129 5.81619 6.11695 0.5
491 0.528345 13.4506 7.61082 0.5
492 3.02431 4.67823 1.07025 0.5
493 10.1913 8.99259 0.80697 0.5
494 4.92703 12.2842 12.916 0.5
495 11.9194 13.1584 4.98928 0.5
496 8.44556 5.74766 2.61378 0.5
497 12.5723 3.54242 13.4018 0.5
498 7.63968 10.4888 10.4751 0.5
499 4.80982 5.78419 11.3731 0.5
500 8.76753 12.4693 8.16998 0.5
501 12.4716 2.60808 13.0307 0.5
502 8.25017 10.1404 11.1123 0.5
503 9.13099 9.64743 5.93592 0.5
504 12.8793 11.2109 2.74571 0.5
505 9.08817 4.21777 9.25977 0.5
506 9.56513 4.93376 4.54845 0.5
507 6.89828 11.2522 13.3944 0.5
508 4.48919 6.94439 9.97844 0.5
509 4.54283 6.56253 1.10247 0.5
510 5.12629 10.9689 3.57557 0.5
511 11.9107 11.9237 0.629177 0.5
512 5.52164 12.9677 0.571393 0.5
513 7.38894 6.04445 9.45241 0.5
514 7.47014 6.24475 13.266 0.5
515 2.77566 12.0799 6.88855 0.5
516 2.31247 5.45118 11.3209 0.5
517 11.41 8.57554 1.06704 0.5
518 1.36938 9.58409 11.9131 0.5
519 6.45897 11.6587 8.94988 0.5
520 3.98113 11.1557 10.0199 0.5
521 12.1988 1.93815 3.77237 0.5
522 0.715948 10.4048 7.60379 0.5
523 8.0942 11.428 3.44764 0.5
524 11.9348 4.11995 11.9263 0.5
525 9.77522 12.8772 7.79196 0.5
526 12.8091 6.55658 6.27605 0.5
527 6.55109 1.00677 12.3621 0.5
528 9.67838 6.06094 7.67836 0.5
529 12.9656 6.42818 8.62816 0.5
530 8.04903 3.92259 12.9107 0.5
531 7.83453 12.5328 5.15616 0.5
532 12.3091 5.44632 0.164581 0.5
533 11.9858 1.04666 8.12731 0.5
534 9.76479 3.30358 4.42393 0.5
535 3.78056 3.86129 1.75623 0.5
536 0.946439 9.69428 11.5616 0.5
537 12.6303 1.10511 6.3642 0.5
538 11.4996 8.09048 10.5383 0.5
539 9.06571 8.04387 5.00592 0.5
540 13.3612 3.21043 1.67195 0.5
541 12.8884 0.775854 3.91364 0.5
542 5.72927 1.14697 7.90923 0.5
543 8.09985 4.68019 5.12788 0.5
544 9.21879 12.6135 4.42042 0.5
545 0.00500976 3.75445 0.649154 0.5
546 3.44304 4.00039 7.78758 0.5
547 7.72128 0.427164 8.46719 0.5
548 4.44745 10.549 6.41215 0.5
549 10.1011 10.5701 6.14719 0.5
550 12.6569 0.741635 8.35878 0.5
551 8.17625 6.22973 13.2189 0.5
552 2.09223 12.7614 10.8531 0.5
553 1.21423 3.90166 0.218711 0.5
554 11.7149 1.07794 7.35068 0.5
555 7.44727 4.56151 4.65591 0.5
556 0.423417 9.77263 3.81387 0.5
557 5.22625 4.27677 2.79128 0.5
558 9.43022 7.83656 8.00987 0.5
559 5.39227 6.81868 3.51288 0.5
560 6.0044 1.38781 9.85682 0.5
561 0.79939 12.823 5.64185 0.5
562 11.1542 12.8798 10.2786 0.5
563 10.9537 2.20237 8.59042 0.5
564 8.77072 13.2547 3.42934 0.5
565 11.074 10.0117 5.26182 0.5
566 11.4485 4.93382 3.53338 0.5
567 11.006 11.4282 4.59093 0.5
568 3.94872 4.52418 3.9864 0.5
569 7.65501 10.7157 12.692 0.5
570 5.81244 11.712 2.13805 0.5
571 12.2443 8.05202 12.5336 0.5
572 5.01746 1.66878 4.54485 0.5
573 9.96129 1.38164 7.44804 0.5
574 9.47589 8.60375 10.4287 0.5
575 3.80409 12.0828 8.19605 0.5
576 8.4506 8.00013 7.04484 0.5
577 2.58967 10.503 9.89933 0.5
578 9.73871 13.2824 9.07286 0.5
579 7.02653 3.74609 6.42943 0.5
580 12.0931 10.3309 11.795 0.5
581 0.958002 1.29143 9.17177 0.5
582 13.0323 2.64108 7.23396 0.5
583 12.7091 9.50422 0.603373 0.5
584 13.3826 11.7015 1.33857 0.5
585 2.88496 8.76229 7.26323 0.5
586 11.7891 11.0664 6.91756 0.5
587 6.51192 1.01142 5.70325 0.5
588 6.10478 4.56837 5.72115 0.5
589 8.24792 2.78863 2.11289 0.5
590 9.13664 7.58465 12.3933 0.5
591 6.28767 4.65142 0.19706 0.5
592 10.2352 5.51209 9.26661 0.5
593 12.3667 0.331261 0.92072 0.5
594 0.707137 4.27305 11.3203 0.5
595 6.88662 1.1245 2.82943 0.5
596 3.26868 0.244374 2.66953 0.5
597 3.18696 8.30318 6.76918 0.5
598 5.63228 10.7582 2.85059 0.5
599 3.56364 5.3706 6.27755 0.5
600 8.17585 3.8217 13.4781 0.5
601 8.93186 7.38107 5.99181 0.5
602 8.88731 10.481 13.4056 0.5
603 9.13731 3.5724 8.51713 0.5
604 7.67705 4.50967 8.17574 0.5
605 7.97822 0.077809 5.8589 0.5
606 8.86039 10.0267 2.02191 0.5
607 3.28468 7.30637 7.50427 0.5
608 8.39875 11.25 0.792465 0.5
609 11.1787 12.3714 5.13258 0.5
610 6.59645 4.84517 4.93131 0.5
611 0.355808 3.66618 8.74929 0.5
612 11.2377 7.0652 12.773 0.5
613 8.17598 5.14938 7.20795 0.5
614 6.03031 0.820746 4.02966 0.5
615 4.49454 3.58875 6.64978 0.5
616 11.2774 3.51627 12.8962 0.5
617 3.2193 4.9933 11.709 0.5
618 1.55576 10.7797 8.43617 0.5
619 3.87556 5.07573 5.93906 0.5
620 10.0816 11.6595 9.50848 0.5
621 1.44989 5.58074 4.09559 0.5
622 0.256607 11.195 8.67521 0.5
623 7.23381 2.30216 3.69742 0.5
624 10.7836 4.29386 13.1478 0.5
625 12.5228 12.1893 0.987595 0.5
626 0.180508 8.79308 6.95817 0.5
627 0.161751 3.89301 7.89402 0.5
628 10.7214 7.80869 7.37079 0.5
629 1.29008 12.4118 0.934269 0.5
630 0.871688 4.5757 0.514212 0.5
631 6.924 9.25353 1.864 0.5
632 9.48301 12.0587 10.2424 0.5
633 11.8615 6.4468 3.10977 0.5
634 12.2813 8.14012 2.26748 0.5
635 4.25451 1.353 11.2554 0.5
636 8.68387 5.39942 7.62982 0.5
637 11.1332 9.02342 5.13044 0.5
638 10.3226 12.9576 13.5281 0.5
639 6.24344 6.2289 9.07535 0.5
640 5.45588 3.82483 6.19601 0.5
641 9.93187 6.65835 11.2367 0.5
642 4.74171 11.5826 1.90127 0.5
643 0.851197 8.72111 1.11028 0.5
644 1.5777 11.0321 9.37734 0.5
645 10.6355 9.46706 13.1817 0.5
646 12.8385 2.61217 10.8311 0.5
647 9.28879 4.89389 6.24722 0.5
648 5.89545 7.57903 13.1678 0.5
649 12.9006 12.917 8.23065 0.5
650 3.63536 11.9692 11.3621 0.5
651 3.53602 9.86521 4.89504 0.5
652 1.22609 5.91948 13.306 0.5
653 13.394 12.4087 9.81371 0.5
654 0.259079 4.76156 1.76004 0.5
655 5.40241 1.76032 1.23276 0.5
656 8.65082 11.6122 10.5212 0.5
657 4.52118 4.45944 5.6001 0.5
658 3.71751 7.93018 6.21297 0.5
659 6.28606 11.0824 4.1434 0.5
660 7.56946 0.60806 7.12209 0.5
661 11.5404 3.68784 6.69616 0.5
662 1.2203 2.41603 3.07717 0.5
663 8.2007 12.6074 7.41776 0.5
664 13.5332 5.8819 9.63147 0.5
665 8.69387 1.76233 4.11838 0.5
666 8.59193 9.78065 0.975136 0.5
667 13.3125 12.7508 13.0395 0.5
668 9.45448 11.3227 7.19703 0.5
669 0.254941 7.50139 11.9651 0.5
670 6.8258 2.3484 13.0608 0.5
671 10.4529 11.7188 1.44097 0.5
672 0.45318 3.77507 0.760186 0.5
673 4.99562 10.1568 0.631118 0.5
674 11.2045 2.82999 8.9036 0.5
675 12.7353 6.18945 0.714298 0.5
676 11.0999 10.56 10.6875 0.5
677 4.13772 1.25224 1.98351 0.5
678 7.65076 7.77638 9.29067 0.5
679 10.8643 3.70525 12.1583 0.5
680 5.88827 3.66817 13.056 0.5
681 8.83335 3.24576 0.863563 0.5
682 9.20085 3.79481 2.54867 0.5
683 9.5218 11.0056 3.91476 0.5
684 0.699802 10.8741 6.14973 0.5
685 3.55865 8.93151 0.615341 0.5
686 11.853 4.50975 10.6111 0.5
687 8.26141 9.78678 2.85628 0.5
688 13.2341 3.12854 10.5216 0.5
689 3.01563 7.27465 2.14519 0.5
690 10.1486 5.66832 0.670053 0.5
691 0.48581 1.26713 3.34874 0.5
692 1.81228 1.75967 4.3254 0.5
693 10.3812 8.56691 0.620459 0.5
694 2.56132 6.89669 9.03692 0.5
695 8.93077 5.88577 6.46675 0.5
696 11.6493 5.37252 6.38685 0.5
697 2.39152 8.22869 6.27851 0.5
698 2.76058 9.13503 4.18739 0.5
699 12.1041 4.44976 8.33192 0.5
700 11.3423 12.4902 8.48016 0.5
701 5.81923 4.32544 9.84554 0.5
702 0.742723 2.3675 11.9491 0.5
703 2.03754 3.64593 4.06645 0.5
704 3.74314 4.9314 2.60736 0.5
705 6.02115 5.26416 6.33516 0.5
706 13.4135 8.26445 5.90525 0.5
707 3.56486 2.83957 7.23001 0.5
708 6.80479 11.3514 11.0408 0.5
709 0.813783 8.56835 9.69174 0.5
710 12.3689 13.2531 9.50868 0.5
711 12.4147 12.6364 4.53379 0.5
712 12.725 5.85876 9.94415 0.5
713 8.79715 0.709836 7.30933 0.5
714 0.00223591 13.1203 9.44772 0.5
715 2.04062 4.42964 8.14087 0.5
716 5.03232 7.49674 4.30656 0.5
717 7.0586 6.31855 2.59923 0.5
718 5.24287 4.12196 13.1853 0.5
719 5.36637 10.1398 4.5216 0.5
720 4.43526 3.13226 11.4414 0.5
721 4.40268 13.3125 4.61719 0.5
722 9.78927 1.42756 5.57354 0.5
723 0.208995 0.305022 1.55087 0.5
724 3.2437 12.5939 8.1445 0.5
725 7.1245 8.7898 5.22983 0.5
726 1.00923 6.73717 13.0997 0.5
727 2.62822 1.75778 2.67408 0.5
728 3.75437 5.82442 12.3791 0.5
729 3.68052 8.88247 2.51671 0.5
730 8.64583 8.33301 4.72725 0.5
731 13.4794 1.37977 10.1966 0.5
732 -0.00507529 0.097842 3.03425 0.5
733 5.62056 2.30433 8.92473 0.5
734 12.9694 0.818898 0.892973 0.5
735 3.51064 9.68683 6.65824 0.5
736 12.2558 9.33121 7.17046 0.5
737 0.5909 13.3103 7.50115 0.5
738 5.90393 9.75444 2.58212 0.5
739 13.5113 3.00689 5.0369 0.5
740 6.05523 5.30775 2.29464 0.5
741 0.997225 10.7627 10.3445 0.5
742 6.06489 8.36073 4.33591 0.5
743 8.52661 5.57174 4.74572 0.5
744 12.5092 3.21298 4.57124 0.5
745 13.1773 11.3915 6.37517 0.5
746 6.42085 11.0079 1.88949 0.5
747 13.1351 6.07592 0.809479 0.5
748 11.9367 9.25268 3.99653 0.5
749 7.23553 3.28687 5.08236 0.5
750 6.45953 6.90763 7.81876 0.5
751 5.37416 12.7382 11.3796 0.5
752 9.67579 6.21474 4.4577 0.5
753 2.54506 13.2019 13.4802 0.5
754 10.7586 9.45065 1.39809 0.5
755 2.04439 11.036 12.5461 0.5
756 11.2719 11.9249 0.66349 0.5
757 6.60048 0.286983 9.39032 0.5
758 6.14868 9.78321 9.52603 0.5
759 5.27112 4.78201 8.5829 0.5
760 6.5219 6.93805 2.17968 0.5
761 12.8411 5.32222 6.80217 0.5
762 0.644376 10.1274 12.7965 0.5
763 6.24665 7.10757 0.926743 0.5
764 0.59794 6.74345 7.53155 0.5
765 10.6241 12.8246 6.97791 0.5
766 12.746 9.33483 6.22043 0.5
767 3.92949 8.33249 9.66925 0.5
768 12.8168 0.342202 7.16601 0.5
769 7.26952 9.53637 7.60803 0.5
770 0.427953 8.18361 5.2531 0.5
771 3.74257 6.87206 7.80475 0.5
772 6.1228 8.52703 0.368596 0.5
773 3.65223 10.0052 0.251944 0.5
774 9.57605 3.82721 1.75613 0.5
775 0.0832001 10.8514 0.762477 0.5
776 9.36343 9.67479 5.97565 0.5
777 8.48895 9.07348 4.79139 0.5
778 11.3676 13.2544 11.9718 0.5
779 12.9205 7.00209 9.49568 0.5
780 1.68793 7.08406 2.06433 0.5
781 4.05919 1.32263 2.56107 0.5
782 6.68957 2.88947 11.5067 0.5
783 2.75368 6.34366 1.3201 0.5
784 1.02456 11.059 8.33481 0.5
785 11.9458 5.51926 8.63234 0.5
786 3.77557 3.26059 3.81668 0.5
787 3.69906 5.42094 7.13213 0.5
788 12.8488 13.4956 0.973543 0.5
789 12.454 10.1123 4.15048 0.5
790 5.267 0.537013 9.68758 0.5
791 12.5625 2.7955 11.0255 0.5
792 4.7384 4.62111 2.4958 0.5
793 2.53107 10.8449 1.73724 0.5
794 11.496 9.58902 13.0754 0.5
795 1.61452 4.2615 7.66809 0.5
796 2.82659 5.25977 10.3135 0.5
797 3.07347 2.67811 0.9272 0.5
798 9.7154 6.90145 7.26297 0.5
799 6.41896 5.73489 10.2393 0.5
800 0.962897 12.0773 1.21328 0.5
801 7.0877 8.53094 10.3425 0.5
802 13.4184 6.8947 9.74497 0.5
803 2.999 9.66106 10.5987 0.5
804 8.09013 8.13211 1.63736 0.5
805 12.319 5.80753 9.41423 0.5
806 11.8813 6.75215 12.5856 0.5
807 2.40616 6.22452 8.37852 0.5
808 6.35684 6.62687 0.0141862 0.5
809 2.75623 12.1287 9.69109 0.5
810 7.04717 6.55406 6.17513 0.5
811 5.88758 0.882553 1.86851 0.5
812 4.34262 8.4951 1.72395 0.5
813 9.00814 0.0979824 11.0428 0.5
814 4.28474 1.57256 10.9474 0.5
815 9.87974 4.56973 4.68117 0.5
816 5.98362 5.22054 1.22832 0.5
817 2.63724 4.55427 8.86426 0.5
818 9.06911 3.47345 11.3819 0.5
819 7.32202 10.0706 1.47593 0.5
820 1.87861 9.00593 10.5601 0.5
821 8.71534 12.8808 13.0979 0.5
822 2.48107 12.3 13.0934 0.5
823 11.1787 10.7418 2.91959 0.5
824 11.7735 11.0881 1.66113 0.5
825 5.14191 0.211678 3.45948 0.5
826 0.544064 8.04928 11.4028 0.5
827 11.9155 8.47375 11.5971 0.5
828 0.774413 10.3914 1.79098 0.5
829 6.50297 9.15847 5.62777 0.5
830 6.09523 5.26694 6.11434 0.5
831 8.29002 3.18103 12.0083 0.5
832 3.86779 6.41783 10.164 0.5
833 2.23817 0.471692 4.84919 0.5
834 4.83955 4.40005 13.0708 0.5
835 6.89781 0.915548 6.93578 0.5
836 0.793803 10.5397 7.22571 0.5
837 7.27848 11.298 1.96868 0.5
838 6.64398 4.91445 11.3827 0.5
839 3.7934 10.8652 5.23283 0.5
840 13.3279 4.48805 8.33417 0.5
841 6.49179 11.0702 2.96281 0.5
842 9.35235 9.98354 11.0787 0.5
843 12.7628 12.3519 13.4436 0.5
844 2.84899 2.312 11.4597 0.5
845 12.8601 4.42158 11.5489 0.5
846 2.06563 8.64825 11.3371 0.5
847 3.21755 5.23876 7.59119 0.5
848 2.38381 0.067874 12.211 0.5
849 1.80515 12.6407 10.1496 0.5
850 10.8891 7.6835 10.3588 0.5
851 9.62019 5.76617 7.91982 0.5
852 1.5151 1.02451 8.61186 0.5
853 11.0281 9.97764 13.2277 0.5
854 0.939866 6.52422 7.06192 0.5
855 8.37837 6.63453 6.83015 0.5
856 5.84343 13.0904 7.08773 0.5
857 0.953846 5.68302 1.34859 0.5
858 0.688727 2.27841 9.26107 0.5
859 4.30213 7.66915 10.0549 0.5
860 6.36855 5.43544 8.69641 0.5
861 10.3402 5.80989 10.0299 0.5
862 2.33787 7.0987 4.44512 0.5
863 10.1337 5.9813 4.07735 0.5
864 3.88422 13.2849 6.64299 0.5
865 2.45609 7.70412 11.1596 0.5
866 4.67145 2.96344 12.5102 0.5
867 0.890617 11.7397 1.28666 0.5
868 12.1238 8.04166 11.1397 0.5
869 8.01348 0.464268 9.77385 0.5
870 3.8136 4.17261 3.83847 0.5
871 7.56924 8.03558 10.963 0.5
872 12.7031 0.644874 8.71995 0.5
873 7.68229 5.0346 1.28062 0.5
874 10.4175 0.034282 7.82014 0.5
875 7.7526 12.433 3.67942 0.5
876 7.56553 10.2141 6.65755 0.5
877 1.23076 2.42703 4.75344 0.5
878 12.3933 6.2524 11.3025 0.5
879 0.75275 4.10266 4.73023 0.5
880 11.7773 10.487 0.164776 0.5
881 5.05386 1.87375 11.198 0.5
882 0.535682 8.5908 10.9673 0.5
883 6.97164 5.92775 4.68014 0.5
884 1.77049 12.5423 8.60598 0.5
885 1.53013 12.2286 0.730603 0.5
886 3.16292 10.4564 10.6906 0.5
887 11.595 6.42584 11.5825 0.5
888 11.4329 13.3068 4.63202 0.5
889 12.0378 9.59599 7.87726 0.5
890 7.53511 2.6834 0.669591 0.5
891 13.1996 5.92852 0.10585 0.5
892 13.4729 2.72571 9.01677 0.5
893 3.15473 11.1207 11.1715 0.5
894 2.71173 0.322667 6.98649 0.5
895 3.22575 6.60512 7.52733 0.5
896 9.74931 3.83739 0.992718 0.5
897 4.47802 1.86681 6.61902 0.5
898 1.74714 12.8078 2.61581 0.5
899 1.57614 3.18128 6.90802 0.5
900 2.1429 12.8377 9.55274 0.5
901 0.486664 12.147 2.84625 0.5
902 3.1185 11.3543 1.84147 0.5
903 12.5142 10.6699 10.4032 0.5
904 11.4462 11.508 11.9285 0.5
905 0.735934 11.6339 6.12057 0.5
906 9.04624 7.20021 9.23009 0.5
907 12.2993 11.2777 11.0316 0.5
908 7.01588 7.13212 0.863417 0.5
909 13.3492 8.17464 9.8574 0.5
910 13.1881 10.024 4.09561 0.5
911 2.73638 7.87352 11.5568 0.5
912 0.722 10.3676 12.7793 0.5
913 8.68271 0.758119 11.9426 0.5
914 8.71287 1.51784 1.11008 0.5
915 11.3984 8.01318 0.683453 0.5
916 7.70322 1.51954 5.93181 0.5
917 5.49559 8.50269 5.64857 0.5
918 6.79254 11.3414 6.13677 0.5
919 10.4516 1.73487 7.03317 0.5
920 3.50159 10.5478 13.1775 0.5
921 5.20072 7.29367 7.68488 0.5
922 11.1988 5.64668 2.78683 0.5
923 9.69491 7.16171 9.68202 0.5
924 6.43123 9.21841 4.8107 0.5
925 11.1544 1.23358 11.094 0.5
926 8.19179 12.0542 8.52743 0.5
927 9.77956 6.16253 6.01262 0.5
928 9.92696 10.9469 2.29013 0.5
929 6.45041 12.8202 8.53614 0.5
930 0.349949 7.99597 11.4982 0.5
931 9.87989 2.16712 11.4999 0.5
932 11.1738 11.4773 3.87404 0.5
933 6.7532 8.95833 10.7052 0.5
934 9.38533 12.8003 2.216 0.5