ITEM: TIMESTEP
750000
ITEM: NUMBER OF ATOMS
1000
ITEM: BOX BOUNDS xy xz yz pp pp pp
0.0000000000000000e+00 1.3572088000000001e+01 0.0000000000000000e+00
0.0000000000000000e+00 1.3572088000000001e+01 0.0000000000000000e+00
0.0000000000000000e+00 1.3572088000000001e+01 0.0000000000000000e+00
ITEM: ATOMS id x y z radius
1 9.95624 0.700482 2.27284 0.5
2 1.92063 10.0351 7.0501 0.5
3 12.541 11.0036 4.25588 0.5
4 7.13934 10.8879 6.76132 0.5
5 1.59726 7.21481 0.399108 0.5
6 8.96912 12.5361 1.542 0.5
7 11.5654 5.39158 2.46006 0.5
8 7.70537 1.21266 0.782449 0.5
9 9.34923 6.83737 3.2051 0.5
10 12.8074 7.07738 2.78353 0.5
11 1.77482 4.27794 6.14403 0.5
12 1.99955 8.91751 11.953 0.5
13 8.10405 6.92584 8.85022 0.5
14 5.2359 10.7367 12.8805 0.5
15 2.62514 2.38594 2.00605 0.5
16 3.80269 3.95605 10.6054 0.5
17 5.28686 2.18726 12.1566 0.5
18 1.13711 0.651671 9.24722 0.5
19 9.18778 8.18908 6.96408 0.5
20 1.14541 5.26378 7.0643 0.5
21 7.36767 3.66806 4.62332 0.5
22 0.942043 6.54239 0.728082 0.5
23 6.30119 4.41495 7.33641 0.5
24 13.0804 2.30306 1.62128 0.5
25 2.52673 9.32595 5.28135 0.5
26 11.5917 5.87727 1.97873 0.5
27 10.9196 6.54476 11.6959 0.5
28 10.0606 0.740341 6.90531 0.5
29 0.0833553 12.7057 5.15327 0.5
30 11.5551 0.37117 8.82928 0.5
31 1.00653 11.7148 8.23432 0.5
32 4.73913 8.36477 1.68217 0.5
33 6.66881 8.13178 3.98097 0.5
34 1.50403 12.7123 1.36866 0.5
35 10.5339 13.0929 7.68207 0.5
36 2.92118 11.1213 10.0255 0.5
37 12.3144 3.99548 3.80696 0.5
38 8.54808 12.3439 5.80957 0.5
39 2.49946 0.38369 1.55492 0.5
40 8.92051 4.92556 10.4603 0.5
41 5.59813 6.53374 2.08507 0.5
42 8.65603 3.97772 11.5047 0.5
43 5.43596 2.47576 13.2794 0.5
44 7.19063 1.70522 5.41642 0.5
45 4.40878 11.4928 12.9027 0.5
46 13.145 13.4237 7.42426 0.5
47 10.0492 13.0807 3.28839 0.5
48 0.476069 0.593357 9.28978 0.5
49 1.9543 8.20078 1.66661 0.5
50 2.86592 9.599 3.6552 0.5
51 13.0191 1.80443 2.42057 0.5
52 3.21068 0.538778 6.55345 0.5
53 4.59771 6.97579 10.7919 0.5
54 1.88405 11.0938 5.99927 0.5
55 10.3071 8.36112 4.03172 0.5
56 7.58526 3.9332 11.2861 0.5
57 10.3259 0.120182 2.21552 0.5
58 9.51337 4.38522 7.44446 0.5
59 6.88418 2.97503 0.74608 0.5
60 10.6393 6.84364 8.90073 0.5
61 0.695844 10.2272 9.15762 0.5
62 8.82611 1.81055 3.16216 0.5
63 7.54841 3.917 4.51185 0.5
64 3.87974 10.2911 10.3911 0.5
65 10.4462 11.8533 9.78654 0.5
66 6.70848 1.65827 1.26469 0.5
67 10.3481 7.82468 8.6908 0.5
68 12.2669 3.27008 3.65865 0.5
69 8.75989 5.69936 6.58035 0.5
70 10.8087 0.934912 9.93381 0.5
71 7.30354 12.6502 2.08172 0.5
72 3.14266 7.70394 7.92742 0.5
73 5.47034 0.475729 0.107493 0.5
74 4.14905 0.886232 1.70331 0.5
75 12.2531 1.02966 11.8754 0.5
76 2.15014 4.28604 9.15348 0.5
77 4.28988 13.4841 0.829889 0.5
78 8.50334 4.12513 0.873195 0.5
79 5.95775 4.00643 6.60284 0.5
80 7.23692 1.64021 9.70407 0.5
81 12.3714 8.34468 0.694392 0.5
82 7.45447 11.4023 0.110122 0.5
83 2.38756 0.637687 9.8973 0.5
84 10.7689 11.6132 1.96394 0.5
85 1.5803 0.184223 4.65138 0.5
86 4.63139 11.9118 6.4828 0.5
87 2.86294 7.64269 2.113 0.5
88 5.23084 12.1063 11.9732 0.5
89 10.924 2.07785 6.13362 0.5
90 0.800914 3.00412 10.1758 0.5
91 1.16492 5.90001 7.76342 0.5
92 7.82721 9.96559 7.91848 0.5
93 13.523 8.92726 3.26075 0.5
94 8.65518 12.0429 5.45966 0.5
95 11.8352 2.48511 9.96689 0.5
96 11.5621 1.32063 0.034706 0.5
97 10.5563 7.69499 12.0181 0.5
98 8.37637 13.2509 7.75049 0.5
99 8.68175 12.7609 2.76005 0.5
100 11.8514 2.87373 6.48292 0.5
101 12.6202 11.8311 12.8648 0.5
102 9.65243 6.86101 11.0776 0.5
103 10.0122 0.99293 5.80949 0.5
104 9.33856 2.25515 8.07924 0.5
105 11.1517 6.84337 10.1629 0.5
106 6.39044 7.56162 7.14951 0.5
107 11.8042 0.891203 5.85833 0.5
108 12.11 12.4868 7.17772 0.5
109 2.46525 2.37744 7.35667 0.5
110 0.0130091 5.03539 13.1442 0.5
111 8.05213 12.4071 0.648484 0.5
112 4.21558 10.7013 5.54704 0.5
113 0.945547 3.06589 1.02596 0.5
114 12.8627 5.83057 5.82792 0.5
115 7.85499 2.84407 1.39332 0.5
116 5.63706 9.42847 8.03596 0.5
117 10.7229 13.2157 11.7938 0.5
118 7.65807 1.98408 6.65089 0.5
119 10.1198 7.72247 2.69827 0.5
120 11.7561 9.15384 0.844069 0.5
121 10.8031 11.7131 9.5583 0.5
122 11.3296 5.96756 11.1949 0.5
123 13.1163 1.94198 9.63665 0.5
124 12.0644 13.2572 12.1584 0.5
125 1.48391 10.7383 4.63229 0.5
126 1.98184 6.00795 6.61911 0.5
127 4.04533 7.71556 10.7484 0.5
128 6.14545 5.99504 4.17347 0.5
129 0.668489 7.79857 12.9771 0.5
130 2.91218 13.5032 11.5744 0.5
131 12.1295 10.3499 6.02899 0.5
132 13.1232 7.50949 9.02536 0.5
133 5.64251 0.131581 13.3003 0.5
134 11.7644 9.23155 9.68197 0.5
135 1.88137 5.36397 9.18063 0.5
136 9.31396 1.1118 4.67849 0.5
137 0.920699 10.0328 6.39077 0.5
138 6.72439 5.09237 4.95787 0.5
139 2.92855 6.44458 4.14305 0.5
140 4.51321 4.90919 0.695988 0.5
141 1.71711 5.91393 12.3137 0.5
142 12.9187 11.6572 7.00538 0.5
143 4.56693 8.91143 11.0518 0.5
144 4.84966 10.8245 1.8702 0.5
145 5.73797 13.0341 8.74524 0.5
146 4.76103 0.700171 4.32872 0.5
147 5.46065 8.02622 6.61358 0.5
148 10.5316 2.54536 1.03208 0.5
149 8.2936 5.80945 5.06291 0.5
150 7.4847 3.11909 3.0395 0.5
151 8.38265 9.04022 1.77005 0.5
152 5.34408 5.66197 13.2207 0.5
153 5.92405 4.14676 0.511759 0.5
154 7.40306 8.47446 1.93644 0.5
155 11.8657 1.08516 12.7547 0.5
156 11.3461 8.35028 6.34428 0.5
157 9.69596 1.33191 6.95675 0.5
158 11.9192 0.0527962 12.4327 0.5
159 6.56148 3.06218 9.20495 0.5
160 4.97278 6.25651 11.5715 0.5
161 9.62087 1.54826 8.82543 0.5
162 4.23001 10.091 6.56034 0.5
163 6.23064 2.13989 11.6786 0.5
164 10.7003 9.68772 4.26345 0.5
165 9.448 8.77617 8.49585 0.5
166 12.1999 7.5669 1.875 0.5
167 4.86501 2.49967 4.39658 0.5
168 1.24253 5.58173 12.4651 0.5
169 6.38249 6.76321 7.84136 0.5
170 5.68166 13.1011 6.43252 0.5
171 6.65902 2.9388 12.1371 0.5
172 0.3112 1.78891 3.01497 0.5
173 12.8545 7.20932 8.77468 0.5
174 0.144219 10.9387 7.96842 0.5
175 1.01617 13.4975 3.42522 0.5
176 10.6409 9.00873 9.58121 0.5
177 12.812 1.65143 3.26529 0.5
178 0.891664 5.16777 13.343 0.5
179 13.3397 2.75117 4.77998 0.5
180 10.6858 7.4701 13.2637 0.5
181 11.0131 4.25256 6.76907 0.5
182 2.80035 0.204146 6.6312 0.5
183 7.28911 3.36332 1.17716 0.5
184 8.45163 7.19417 6.99511 0.5
185 2.08095 1.81835 4.77402 0.5
186 5.95818 6.41659 8.42465 0.5
187 12.2306 8.79352 1.85554 0.5
188 3.63489 9.20852 5.12679 0.5
189 4.09157 1.09651 3.14155 0.5
190 7.91293 5.96358 3.45598 0.5
191 6.07299 7.77191 1.85986 0.5
192 2.70386 5.44974 9.13646 0.5
193 9.97332 9.77325 3.28508 0.5
194 13.1755 13.1249 2.89665 0.5
195 8.71848 11.9309 6.77256 0.5
196 5.50317 13.3669 7.31247 0.5
197 2.52966 0.0839064 13.5023 0.5
198 3.23157 3.35521 13.0489 0.5
199 9.37901 7.06009 6.74063 0.5
200 11.0494 4.04689 0.0584281 0.5
201 9.61245 0.409309 13.2067 0.5
202 4.65946 9.44611 0.467085 0.5
203 6.20612 2.53146 8.36195 0.5
204 0.666728 1.7752 3.62433 0.5
205 2.07256 11.4496 12.0883 0.5
206 8.27975 1.40945 6.76399 0.5
207 0.177069 11.5123 8.62055 0.5
208 8.45072 10.7257 11.8319 0.5
209 5.15056 8.89489 10.4938 0.5
210 3.66096 2.41812 1.09386 0.5
211 6.9202 3.22179 6.51933 0.5
212 1.55178 7.91771 13.3189 0.5
213 0.531802 1.49656 6.66244 0.5
214 0.278491 2.50696 11.9631 0.5
215 4.35104 9.06126 0.594624 0.5
216 1.77778 10.8226 5.6071 0.5
217 6.74364 10.7767 1.87977 0.5
218 2.12349 7.84763 5.22478 0.5
219 0.552533 6.97907 4.98443 0.5
220 1.76346 2.38643 5.74489 0.5
221 10.5553 5.2615 10.0126 0.5
222 0.674395 0.46931 6.24259 0.5
223 13.2 10.0825 3.17974 0.5
224 0.922131 3.66207 11.44 0.5
225 13.4264 3.10013 1.58355 0.5
226 2.1086 2.78512 10.3633 0.5
227 0.477676 7.97799 5.95975 0.5
228 13.3204 5.77207 8.21958 0.5
229 6.61927 4.13967 8.1075 0.5
230 11.1943 1.80294 5.14163 0.5
231 5.8833 10.2786 9.49512 0.5
232 5.8208 7.76321 0.955901 0.5
233 8.58109 7.0952 1.13078 0.5
234 4.67783 1.31786 13.56 0.5
235 8.43493 5.15466 10.6876 0.5
236 0.445448 10.0307 1.36331 0.5
237 11.1422 7.20017 5.56104 0.5
238 11.2702 6.12432 13.4567 0.5
239 2.54167 5.2285 9.55272 0.5
240 0.945118 4.05358 3.51109 0.5
241 4.00382 3.00098 10.8392 0.5
242 4.38539 10.5354 6.41931 0.5
243 1.83516 10.3689 6.04878 0.5
244 2.75829 2.66232 9.56732 0.5
245 5.14099 12.3111 11.3967 0.5
246 4.18398 12.4416 8.6758 0.5
247 4.80248 5.27295 2.72233 0.5
248 5.61954 4.28801 5.57444 0.5
249 2.52813 10.2678 0.200854 0.5
250 1.37287 7.92615 6.82241 0.5
251 11.2702 3.4087 6.99724 0.5
252 5.59816 12.1813 8.56845 0.5
253 5.29494 9.04959 2.04011 0.5
254 1.83614 7.69143 4.03773 0.5
255 8.70543 8.93282 5.81933 0.5
256 3.43976 10.5186 12.8005 0.5
257 4.67159 4.91201 1.88597 0.5
258 2.55286 3.54715 13.0907 0.5
259 3.91454 5.79539 6.28101 0.5
260 4.16382 1.08953 10.5207 0.5
261 3.97302 11.2148 10.8236 0.5
262 4.94534 8.53461 10.1996 0.5
263 12.7632 11.4307 9.48831 0.5
264 11.125 3.53912 1.50882 0.5
265 9.7954 3.92686 1.33404 0.5
266 3.75863 3.96619 0.392402 0.5
267 3.18621 4.9721 2.68793 0.5
268 5.02792 11.9531 13.566 0.5
269 11.727 8.34105 9.1455 0.5
270 9.61445 6.16033 7.18431 0.5
271 11.7631 0.886778 8.57939 0.5
272 9.27023 9.44276 0.912287 0.5
273 1.15401 3.84812 8.54834 0.5
274 7.9615 6.84788 0.231797 0.5
275 6.83911 5.45805 9.24601 0.5
276 7.17567 13.2922 8.19194 0.5
277 10.6481 9.27927 1.57003 0.5
278 7.74836 9.16767 10.1016 0.5
279 4.09341 6.56858 3.98925 0.5
280 11.241 7.22806 8.0274 0.5
281 1.34327 12.2147 8.27955 0.5
282 4.81798 6.56587 7.47247 0.5
283 5.35742 5.91903 5.31491 0.5
284 6.52678 3.27418 2.46015 0.5
285 8.40402 13.429 4.49047 0.5
286 3.66709 1.52464 10.6181 0.5
287 0.488786 7.29003 6.96341 0.5
288 4.85604 2.22425 0.635782 0.5
289 3.90752 3.62929 10.5114 0.5
290 4.2252 0.253383 10.7184 0.5
291 10.3492 8.05912 6.12495 0.5
292 0.00445709 13.0835 4.34505 0.5
293 11.0907 6.23875 2.37852 0.5
294 11.479 1.06342 4.16366 0.5
295 9.78094 12.1649 7.98914 0.5
296 9.53093 9.25479 10.2535 0.5
297 6.88635 8.06955 11.5863 0.5
298 13.4201 4.43765 9.77941 0.5
299 10.3659 5.98705 10.9329 0.5
300 2.3767 0.393049 10.5373 0.5
301 4.99607 5.70306 1.77617 0.5
302 7.50591 2.53071 2.23949 0.5
303 4.84225 12.4151 13.365 0.5
304 4.90014 6.69357 4.97918 0.5
305 5.66682 6.4882 4.43639 0.5
306 3.75581 3.74089 2.90965 0.5
307 4.26813 3.68013 8.41474 0.5
308 6.54863 1.14333 7.53997 0.5
309 4.86803 8.87767 1.58936 0.5
310 7.02052 10.5699 10.6021 0.5
311 4.63466 5.75804 7.41617 0.5
312 10.1111 12.4251 4.75978 0.5
313 8.32899 9.00677 7.76409 0.5
314 12.8294 3.61508 9.14825 0.5
315 3.13782 10.6272 11.3932 0.5
316 13.2344 5.19984 12.4765 0.5
317 4.19237 9.16843 0.183814 0.5
318 7.09971 3.11371 8.60117 0.5
319 13.3512 11.9545 12.9898 0.5
320 7.99568 8.19594 7.28599 0.5
321 9.58846 0.989927 3.22603 0.5
322 6.25363 8.67562 3.52911 0.5
323 2.44147 10.5213 2.19978 0.5
324 12.7688 3.89586 8.41536 0.5
325 4.09644 12.7776 1.0377 0.5
326 6.02315 8.7283 8.35779 0.5
327 3.33643 6.76789 0.638851 0.5
328 10.6579 8.86058 9.46375 0.5
329 3.62702 7.72217 1.34826 0.5
330 1.74795 1.74672 6.93854 0.5
331 0.181355 12.6543 6.73451 0.5
332 8.97834 8.05326 2.72149 0.5
333 8.11897 3.68662 7.34318 0.5
334 4.29105 10.0272 9.1609 0.5
335 11.5312 2.34619 2.51328 0.5
336 9.87962 0.811106 8.56639 0.5
337 2.38973 4.18483 10.4849 0.5
338 3.16421 10.8583 4.77041 0.5
339 5.03581 4.64945 10.9342 0.5
340 7.72168 9.42157 13.2453 0.5
341 6.11255 11.8358 1.53368 0.5
342 2.16487 0.704933 1.29157 0.5
343 4.27184 9.96733 7.59057 0.5
344 6.52755 12.6251 0.708088 0.5
345 8.15085 12.5504 8.8098 0.5
346 8.53659 8.24089 4.33293 0.5
347 11.8113 6.35722 3.61988 0.5
348 1.33153 2.83757 2.76045 0.5
349 1.91341 1.97749 6.14867 0.5
350 3.59102 4.58394 5.37906 0.5
351 0.489359 8.24564 3.96209 0.5
352 13.2658 12.7871 12.5804 0.5
353 9.18069 4.46332 9.68416 0.5
354 12.4863 9.56466 8.95928 0.5
355 10.1917 8.1579 6.42064 0.5
356 0.884572 9.45467 8.06213 0.5
357 12.8962 5.78551 10.6079 0.5
358 6.59631 0.85703 1.21648 0.5
359 12.2414 9.16144 1.11697 0.5
360 3.95573 11.993 4.31079 0.5
361 0.237777 2.01796 11.0347 0.5
362 12.4682 1.38679 0.38396 0.5
363 4.85994 8.32985 10.6509 0.5
364 2.78357 7.00856 2.09891 0.5
365 11.4841 1.73165 5.16174 0.5
366 7.03403 0.812069 4.81868 0.5
367 11.1072 11.4375 5.89695 0.5
368 4.8523 6.99761 0.919822 0.5
369 3.56944 3.40873 3.4731 0.5
370 2.6669 12.9627 4.97046 0.5
371 13.4915 9.28354 4.11027 0.5
372 3.18986 11.4627 13.2314 0.5
373 8.64628 12.3158 1.38198 0.5
374 1.80326 0.427178 12.1888 0.5
375 3.12114 0.58129 11.3131 0.5
376 7.31987 5.3297 1.19386 0.5
377 3.85326 1.62266 0.258261 0.5
378 8.0068 11.1014 0.89875 0.5
379 8.33679 12.3167 3.28457 0.5
380 9.61408 1.45883 8.56308 0.5
381 2.85531 1.74243 10.2746 0.5
382 5.05352 9.19878 13.0283 0.5
383 8.03091 7.9909 2.72556 0.5
384 10.066 0.474057 7.87566 0.5
385 8.53602 3.45605 10.8628 0.5
386 12.6001 12.144 3.63426 0.5
387 8.91016 10.9948 4.3352 0.5
388 3.01632 2.34569 1.82193 0.5
389 10.3755 1.84198 8.8856 0.5
390 7.19425 9.33303 9.92258 0.5
391 1.54095 8.92448 3.67115 0.5
392 8.82423 4.47463 5.17027 0.5
393 0.267243 2.3978 5.84894 0.5
394 9.26272 7.49135 0.406067 0.5
395 2.35959 1.57744 0.749634 0.5
396 0.957098 8.38865 4.92416 0.5
397 9.56393 3.68382 10.4328 0.5
398 10.6979 1.03085 10.3725 0.5
399 7.87964 11.8191 2.16291 0.5
400 3.50823 4.85475 11.1328 0.5
401 3.98092 8.62466 11.0224 0.5
402 10.3654 3.87253 10.3421 0.5
403 1.98986 10.7627 5.37777 0.5
404 5.80422 0.646031 8.14244 0.5
405 5.41851 7.8738 13.3832 0.5
406 7.13853 5.13861 9.50746 0.5
407 1.16763 2.26006 7.99965 0.5
408 10.3901 0.604637 11.1961 0.5
409 0.677738 6.9522 7.42673 0.5
410 4.77331 1.12806 4.2464 0.5
411 4.92376 5.10954 11.064 0.5
412 5.74121 12.2826 8.64151 0.5
413 3.16316 2.72601 0.700376 0.5
414 9.23678 5.69262 12.0547 0.5
415 2.1607 4.83539 13.3344 0.5
416 5.43812 5.82158 10.1705 0.5
417 5.98633 11.1119 6.74296 0.5
418 8.74789 2.80318 6.96929 0.5
419 9.8745 9.90335 3.79243 0.5
420 9.1129 7.67029 13.0599 0.5
421 2.80574 4.01817 3.35585 0.5
422 0.423398 8.49423 13.023 0.5
423 2.91763 9.23915 10.66 0.5
424 8.98608 13.2592 10.1882 0.5
425 5.30436 11.7829 9.24739 0.5
426 1.08302 1.0644 2.77659 0.5
427 9.64649 2.95832 12.922 0.5
428 3.84556 0.981516 4.63545 0.5
429 8.85839 13.1736 6.52544 0.5
430 0.879927 5.55893 13.5457 0.5
431 4.17096 7.66219 1.31436 0.5
432 5.54617 4.47956 1.23593 0.5
433 7.03956 12.6371 4.33194 0.5
434 3.13826 6.66606 3.92166 0.5
435 10.5307 1.17719 12.1202 0.5
436 10.7586 11.5744 3.81789 0.5
437 1.00977 13.2279 0.699008 0.5
438 1.29163 4.36049 5.00837 0.5
439 2.45273 6.91723 2.00189 0.5
440 9.81279 12.6564 2.78443 0.5
441 9.98228 6.14545 0.639309 0.5
442 8.36518 9.3609 10.3111 0.5
443 10.3938 7.87548 1.76157 0.5
444 13.4056 7.16613 11.4883 0.5
445 0.859014 11.1412 11.3801 0.5
446 11.1453 13.2144 0.962105 0.5
447 11.8703 4.07104 9.56946 0.5
448 6.58166 10.3223 5.39725 0.5
449 9.2924 3.36135 9.52661 0.5
450 13.4035 10.6447 2.81801 0.5
451 13.4381 12.2016 3.04584 0.5
452 1.79535 10.2215 3.19921 0.5
453 4.68245 9.85259 3.24671 0.5
454 3.3511 13.3358 1.13955 0.5
455 10.613 2.60927 8.64574 0.5
456 4.76413 4.8634 4.93495 0.5
457 11.4106 10.0208 1.3741 0.5
458 5.08696 9.2419 11.6587 0.5
459 0.548352 3.0479 3.01425 0.5
460 3.2501 7.19934 7.11645 0.5
461 8.2513 5.66725 5.84213 0.5
462 6.22071 11.9877 7.76604 0.5
463 12.6905 1.43444 0.663424 0.5
464 5.73091 3.05832 5.67843 0.5
465 10.3042 3.11438 8.52974 0.5
466 13.0012 5.6095 10.6686 0.5
467 7.71169 1.79843 4.80408 0.5
468 0.82501 10.1832 6.8216 0.5
469 13.1778 12.1949 4.19875 0.5
470 2.50729 6.42194 1.27628 0.5
471 7.42201 8.63513 11.2659 0.5
472 5.136 9.56154 5.24903 0.5
473 12.3387 10.8294 3.80859 0.5
474 13.4983 0.157218 6.3593 0.5
475 6.5467 1.07528 8.63395 0.5
476 11.3323 4.95473 8.41061 0.5
477 10.779 5.26466 9.15941 0.5
478 12.9479 2.64112 1.34131 0.5
479 2.27655 3.8137 8.62862 0.5
480 12.734 9.6687 2.49363 0.5
481 1.20487 11.2307 5.86339 0.5
482 12.7408 4.35781 7.54022 0.5
483 3.24166 0.729218 1.47512 0.5
484 5.96323 11.3956 13.042 0.5
485 11.436 0.252543 4.82074 0.5
486 5.24372 5.87894 11.7138 0.5
487 3.10036 13.5149 8.78287 0.5
488 5.70201 5.85007 8.46844 0.5
489 12.4031 3.33494 0.852535 0.5
490 1.32216 6.13479 4.73957 0.5
491 8.73684 11.9593 10.8607 0.5
492 11.5827 1.49463 10.7489 0.5
493 9.54905 7.08351 7.4008 0.5
494 0.425548 3.06392 4.91422 0.5
495 3.78843 4.10153 6.68307 0.5
496 9.60845 10.7569 1.40065 0.5
497 11.8692 10.61 0.297526 0.5
498 1.86987 7.37606 11.5827 0.5
499 0.962081 12.7633 10.9447 0.5
500 8.64995 6.64803 12.3347 0.5
501 6.4156 9.94914 7.51975 0.5
502 1.4409 3.71962 12.6258 0.5
503 11.5138 6.39749 1.7607 0.5
504 11.2457 12.9217 6.43905 0.5
505 12.9994 12.6406 2.77664 0.5
506 1.94225 12.9013 2.6495 0.5
507 2.80202 6.02488 0.809345 0.5
508 1.01455 7.57503 7.34837 0.5
509 12.0867 7.15051 3.78966 0.5
510 2.96777 4.08683 0.683073 0.5
511 4.96778 13.4342 7.17647 0.5
512 0.761059 12.4667 1.67522 0.5
513 13.2797 6.89351 6.36085 0.5
514 6.90505 8.50146 4.60028 0.5
515 0.880727 2.32217 1.34921 0.5
516 7.84312 6.49279 7.53311 0.5
517 2.42316 0.197676 3.37649 0.5
518 11.3552 7.50905 13.1799 0.5
519 13.5622 6.19526 1.10792 0.5
520 3.16908 5.72385 6.39968 0.5
521 9.60842 7.43879 9.98268 0.5
522 12.4284 7.67904 6.5653 0.5
523 1.84113 9.75013 12.9957 0.5
524 8.16677 1.83729 8.66983 0.5
525 0.905573 2.21046 10.4757 0.5
526 13.3801 10.409 12.6808 0.5
527 3.01756 1.19339 2.9094 0.5
528 8.53879 11.9455 6.39109 0.5
529 2.04663 5.12586 6.27165 0.5
530 12.6836 11.3261 12.7979 0.5
531 7.59679 1.59076 0.116213 0.5
532 7.1007 4.71424 4.0095 0.5
533 0.698056 9.23859 6.80775 0.5
534 6.54315 3.4962 10.0513 0.5
535 10.8023 7.5814 7.15285 0.5
536 6.97904 0.196759 8.32793 0.5
537 5.98111 8.80554 5.72916 0.5
538 11.4478 12.5711 6.15064 0.5
539 12.2903 1.94401 3.60688 0.5
540 7.39358 11.3075 4.66673 0.5
541 5.08553 4.72815 7.93802 0.5
542 2.2362 4.27407 5.34836 0.5
543 5.36325 4.81008 9.74036 0.5
544 7.01813 11.6896 0.96415 0.5
545 13.3577 10.1596 8.64848 0.5
546 8.71241 6.68615 3.94676 0.5
547 5.30945 12.7562 9.27392 0.5
548 9.41781 5.96163 10.8421 0.5
549 11.9267 9.63217 9.86833 0.5
550 7.57883 2.0359 6.34271 0.5
551 12.7023 6.40486 10.7472 0.5
552 2.02344 6.57319 9.48206 0.5
553 6.52533 1.30658 11.631 0.5
554 12.8199 0.0166531 8.6886 0.5
555 10.2549 2.37733 6.78363 0.5
556 3.14407 6.02872 4.99634 0.5
557 10.7704 9.235 4.29087 0.5
558 1.95947 8.67006 5.50061 0.5
559 2.5424 10.6331 7.65804 0.5
560 8.28278 6.63942 10.409 0.5
561 4.58379 7.0538 5.29969 0.5
562 6.2506 10.2179 8.54066 0.5
563 1.32157 4.55117 13.0131 0.5
564 2.07365 11.8032 5.44265 0.5
565 3.84558 5.8562 4.69942 0.5
566 1.19182 2.63582 7.64713 0.5
567 6.77209 9.59886 6.60675 0.5
568 10.255 10.9622 13.2713 0.5
569 2.68141 0.776141 2.69652 0.5
570 1.35677 1.56707 10.5189 0.5
571 9.83165 0.355813 9.31605 0.5
572 3.58015 7.03334 4.95499 0.5
573 0.199643 10.5602 4.97869 0.5
574 0.218385 10.8659 4.19439 0.5
575 3.97279 3.19966 11.4509 0.5
576 12.4749 11.3483 12.6881 0.5
577 5.09353 1.67475 0.625145 0.5
578 12.436 5.77354 8.34072 0.5
579 3.82844 4.3864 7.24929 0.5
580 10.6635 11.7858 4.66562 0.5
581 11.4428 6.57496 0.469238 0.5
582 11.4482 4.69123 13.5501 0.5
583 12.5964 2.66666 8.03297 0.5
584 5.30803 13.0241 1.84296 0.5
585 10.3635 1.1044 10.7397 0.5
586 2.5759 5.30959 1.7931 0.5
587 2.60598 1.99338 7.74502 0.5
588 4.29814 7.22459 13.4793 0.5
589 2.0326 3.67706 8.06781 0.5
590 2.04399 2.79134 10.6869 0.5
591 2.50324 13.2432 4.02769 0.5
592 8.31009 0.767118 11.73 0.5
593 11.5548 2.65702 1.94385 0.5
594 7.35249 3.89931 10.9108 0.5
595 11.2669 2.14918 0.0281695 0.5
596 8.8338 12.9143 3.29814 0.5
597 6.00883 9.06324 9.63686 0.5
598 5.85252 7.64168 8.17426 0.5
599 5.89504 0.177532 12.5202 0.5
600 3.97211 13.099 11.2731 0.5
601 11.0571 11.9976 5.65984 0.5
602 0.276436 5.24384 4.14232 0.5
603 7.98192 7.03248 11.8143 0.5
604 8.95044 8.18782 0.898936 0.5
605 0.930019 2.30639 7.95367 0.5
606 1.58211 12.262 9.89335 0.5
607 1.13932 3.86954 12.7163 0.5
608 12.7826 2.59277 3.97211 0.5
609 9.237 1.87757 4.47927 0.5
610 2.23268 5.41669 7.53583 0.5
611 10.8573 3.43567 5.32854 0.5
612 13.2561 10.4368 6.77972 0.5
613 6.84628 7.17499 4.61486 0.5
614 9.77428 13.1703 9.40589 0.5
615 2.60233 0.595034 7.90914 0.5
616 4.86586 2.29267 8.80255 0.5
617 10.4717 0.916491 11.1255 0.5
618 7.33019 1.72655 8.22929 0.5
619 5.2043 9.69999 9.68671 0.5
620 3.6775 4.19968 7.40553 0.5
621 2.07096 8.20432 5.10282 0.5
622 9.00261 9.57879 5.18708 0.5
623 3.55282 1.60273 10.4801 0.5
624 0.493824 11.7364 2.37 0.5
625 4.23213 8.38973 4.71486 0.5
626 0.0674374 6.27005 4.65026 0.5
627 3.91406 1.97124 3.29406 0.5
628 5.79365 11.4698 7.75328 0.5
629 2.17129 6.98029 9.17245 0.5
630 13.53 8.50295 5.26014 0.5
631 5.26003 9.37114 5.03584 0.5
632 2.15329 0.557616 9.12376 0.5
633 11.5798 2.57058 5.96343 0.5
634 7.16911 4.15809 5.93796 0.5
635 3.22299 12.5329 2.71457 0.5
636 7.7475 2.68603 12.3557 0.5
637 6.76103 0.214508 3.83572 0.5
638 6.66398 3.39879 13.2417 0.5
639 1.96198 2.08508 7.87806 0.5
640 9.61138 8.57966 10.6277 0.5
641 3.57835 0.525757 4.25062 0.5
642 9.09717 3.00036 6.51624 0.5
643 4.01031 12.0871 3.18608 0.5
644 10.1148 3.25038 12.0019 0.5
645 1.05413 1.10537 2.82617 0.5
646 9.85051 1.90189 11.0929 0.5
647 6.76863 13.2757 2.06717 0.5
648 0.165981 6.59664 4.20162 0.5
649 9.38611 3.17292 8.35506 0.5
650 1.31852 13.1356 11.9398 0.5
651 1.68 1.09077 7.30168 0.5
652 6.76681 5.59262 1.01195 0.5
653 7.71769 0.444225 12.6955 0.5
654 12.2381 3.90048 10.6102 0.5
655 2.44249 12.2124 5.02526 0.5
656 4.52938 0.0525003 9.42956 0.5
657 3.07923 8.62285 1.97973 0.5
658 2.96574 0.618415 10.9997 0.5
659 9.14003 6.17585 3.40259 0.5
660 10.16 3.35553 11.7845 0.5
661 12.2874 1.6774 6.27159 0.5
662 3.92253 8.19006 12.7219 0.5
663 5.78353 5.18251 9.68565 0.5
664 3.35156 2.45783 9.69946 0.5
665 1.28965 0.947476 1.55875 0.5
666 0.463707 9.16914 5.18831 0.5
667 6.95654 1.7795 7.99422 0.5
668 11.4745 10.4768 0.524471 0.5
669 13.2009 13.1292 7.75645 0.5
670 12.3755 12.608 12.9748 0.5
671 1.35403 5.39615 0.44568 0.5
672 4.76289 1.72772 2.48977 0.5
673 7.5398 13.0731 0.493277 0.5
674 7.1534 0.63117 4.05375 0.5
675 6.32226 6.91634 6.60067 0.5
676 11.2942 9.95864 8.17939 0.5
677 2.13576 1.51489 4.16886 0.5
678 13.009 6.06519 9.75733 0.5
679 7.91699 3.1811 9.78209 0.5
680 6.60819 1.80451 0.793664 0.5
681 9.66464 10.3701 0.378061 0.5
682 4.54831 6.36972 4.84489 0.5
683 7.70132 4.19013 7.50385 0.5
684 0.1329 11.8111 7.88553 0.5
685 10.3867 4.55982 0.952671 0.5
686 0.801209 4.04115 6.31542 0.5
687 2.9625 12.7444 2.7832 0.5
688 11.5147 6.66624 1.13955 0.5
689 10.0685 8.1243 9.16494 0.5
690 2.0112 11.7405 0.718925 0.5
691 4.57323 3.04265 7.62171 0.5
692 7.06415 12.1162 12.2642 0.5
693 0.296111 1.68099 11.8821 0.5
694 5.35135 9.19959 7.10934 0.5
695 4.12109 11.3624 0.115905 0.5
696 11.0338 10.8089 9.6939 0.5
697 12.8001 3.45878 2.21177 0.5
698 0.22697 4.03803 8.79778 0.5
699 3.07658 8.98539 1.52915 0.5
700 11.9627 2.74996 10.7566 0.5
701 3.54341 2.14292 0.910556 0.5
702 9.4675 11.8581 12.3797 0.5
703 11.3099 6.40008 9.59129 0.5
704 11.6905 9.96698 12.3542 0.5
705 6.81524 4.20113 13.0449 0.5
706 9.50416 2.89186 7.38766 0.5
707 4.64742 4.61227 1.93976 0.5
708 6.3537 8.05158 9.42676 0.5
709 7.0738 3.88273 13.4979 0.5
710 11.9163 4.56689 3.81317 0.5
711 13.5485 7.50885 10.8035 0.5
712 9.12672 10.508 3.42777 0.5
713 9.68122 5.02041 5.24909 0.5
714 10.1346 2.46957 3.85101 0.5
715 9.23968 6.65255 4.52718 0.5
716 0.294093 9.19401 7.71636 0.5
717 10.2837 6.58083 5.52927 0.5
718 4.94609 12.1716 6.96729 0.5
719 11.2951 8.96609 4.87179 0.5
720 10.3125 5.99112 10.9798 0.5
721 9.82687 0.421102 3.85063 0.5
722 10.838 0.756638 7.44877 0.5
723 4.73757 5.23134 4.34416 0.5
724 3.73726 3.97276 5.41909 0.5
725 5.32435 6.8262 0.0049193 0.5
726 2.27097 3.04967 8.03269 0.5
727 1.62337 10.249 1.37667 0.5
728 11.2743 6.9768 7.39601 0.5
729 13.1956 12.7399 2.29932 0.5
730 6.88228 2.84567 0.706219 0.5
731 8.4447 0.216659 2.87552 0.5
732 10.8028 0.753482 4.95173 0.5
733 1.54849 8.56288 4.37765 0.5
734 2.39178 13.5224 1.34414 0.5
735 11.2999 7.68415 3.84592 0.5
736 6.83668 7.02443 7.08835 0.5
737 9.58519 11.9953 13.2714 0.5
738 6.17371 10.6177 3.48881 0.5
739 11.0194 0.553251 3.65139 0.5
740 8.33738 7.8966 6.31696 0.5
741 13.476 5.52568 0.817825 0.5
742 4.93466 13.1272 9.5276 0.5
743 5.50783 3.70681 0.107003 0.5
744 2.65 8.95247 3.9756 0.5
745 7.00331 7.87613 4.02772 0.5
746 10.8895 7.3161 4.23274 0.5
747 0.654211 13.2917 3.61117 0.5
748 5.58814 2.5645 12.4728 0.5
749 8.48467 10.9287 1.47786 0.5
750 10.4398 4.51855 7.10769 0.5
751 13.4254 2.66714 13.3696 0.5
752 0.624695 6.04219 6.68821 0.5
753 8.89348 3.94356 3.96675 0.5
754 3.02139 5.66091 9.82419 0.5
755 1.36559 3.3226 12.059 0.5
756 13.5365 8.33554 6.7592 0.5
757 5.42154 4.02339 5.93322 0.5
758 9.01367 10.6329 8.03303 0.5
759 1.45259 6.9641 7.18962 0.5
760 1.02947 2.61311 11.7983 0.5
761 5.93342 6.30189 5.27038 0.5
762 12.2397 12.7099 2.04973 0.5
763 9.44677 9.1891 11.9792 0.5
764 11.1064 0.386811 11.9494 0.5
765 5.77232 12.4935 5.94907 0.5
766 4.29547 9.84354 3.94537 0.5
767 0.943552 6.87074 1.05253 0.5
768 1.05109 5.71388 2.14744 0.5
769 4.34668 12.744 1.61753 0.5
770 5.24034 0.97953 1.63801 0.5
771 3.92277 3.16465 4.28896 0.5
772 9.38442 5.87839 3.13265 0.5
773 5.04733 11.9809 11.9938 0.5
774 2.17013 7.54794 6.11227 0.5
775 8.61064 8.47431 4.56786 0.5
776 6.16827 10.2193 10.3612 0.5
777 12.4673 5.27401 5.30703 0.5
778 9.46746 2.89355 1.95891 0.5
779 2.84997 7.40266 3.32594 0.5
780 12.6434 10.6753 7.22714 0.5
781 0.0974607 10.534 6.97835 0.5
782 6.26335 11.6942 0.631399 0.5
783 6.80749 5.38321 9.09787 0.5
784 7.70041 9.02273 6.61288 0.5
785 3.42937 10.7325 1.99609 0.5
786 1.13573 3.46881 9.55694 0.5
787 0.162842 1.04237 12.3432 0.5
788 7.85392 0.924973 9.9529 0.5
789 0.618504 13.5396 2.73973 0.5
790 2.48204 0.365691 12.9298 0.5
791 5.52941 4.98777 9.34883 0.5
792 3.59412 10.8123 1.18593 0.5
793 8.58525 11.7917 2.70264 0.5
794 7.31781 7.03985 12.8455 0.5
795 12.1576 2.67463 1.11631 0.5
796 12.1269 10.6482 4.2146 0.5
797 6.25812 10.9873 6.32587 0.5
798 10.4973 7.97936 10.7126 0.5
799 11.2106 4.9114 3.31138 0.5
800 0.461102 11.5446 9.88136 0.5
801 5.33802 1.8906 5.32186 0.5
802 7.14252 8.01992 0.994118 0.5
803 12.9055 10.6977 10.0732 0.5
804 0.167652 9.43607 13.5565 0.5
805 12.2598 3.28118 0.253414 0.5
806 12.9797 2.39932 8.10063 0.5
807 6.47871 0.481819 6.30952 0.5
808 4.90662 11.6943 8.59321 0.5
809 2.38226 2.22987 9.14865 0.5
810 0.865334 11.2793 2.76469 0.5
811 9.12483 6.63314 0.548109 0.5
812 1.51847 9.14047 11.5438 0.5
813 4.55545 1.45077 12.0691 0.5
814 9.51756 8.76234 1.03546 0.5
815 9.41496 4.54279 3.82527 0.5
816 4.24717 9.90701 4.11223 0.5
817 1.36011 5.09016 2.93584 0.5
818 0.300652 0.175959 12.9455 0.5
819 11.0125 5.52542 13.5296 0.5
820 0.742941 2.00578 6.36029 0.5
821 6.91825 4.094 8.57228 0.5
822 3.55406 11.1168 2.62407 0.5
823 2.36471 4.5908 10.1279 0.5
824 5.03979 8.36248 5.70308 0.5
825 10.4987 11.8006 8.59653 0.5
826 6.0111 4.2532 3.13273 0.5
827 4.03877 3.71406 6.78717 0.5
828 6.49229 5.96402 1.13662 0.5
829 8.0663 5.43729 8.10416 0.5
830 1.03838 4.42031 2.33575 0.5
831 11.2613 9.24562 3.79845 0.5
832 1.52448 7.86561 10.8691 0.5
833 6.44769 6.68924 11.714 0.5
834 8.07913 0.672855 8.80887 0.5
835 2.91475 12.1838 6.98723 0.5
836 5.88351 9.91739 6.79554 0.5
837 7.71071 5.61558 9.39461 0.5
838 5.56693 10.8796 9.66172 0.5
839 3.1688 11.1875 3.99827 0.5
840 10.3033 2.77114 2.9435 0.5
841 2.4096 12.4283 4.02366 0.5
842 6.73256 12.2556 3.56818 0.5
843 2.97679 9.84284 4.05882 0.5
844 7.93493 11.0409 9.65409 0.5
845 5.47881 6.8268 1.62617 0.5
846 4.68225 1.20809 3.56583 0.5
847 6.78808 13.5369 8.23544 0.5
848 12.8658 8.8663 11.433 0.5
849 12.5021 10.405 11.6161 0.5
850 3.43671 3.22114 2.54782 0.5
851 13.4419 9.88231 5.30697 0.5
852 11.2016 12.9467 12.8518 0.5
853 1.07484 5.90499 9.75195 0.5
854 3.3064 11.9884 8.73675 0.5
855 8.70674 3.4455 8.37981 0.5
856 3.99191 0.199883 9.23762 0.5
857 7.71328 11.5211 9.74007 0.5
858 11.19 5.67526 2.44226 0.5
859 13.1289 2.40351 5.29579 0.5
860 12.1784 11.431 7.45346 0.5
861 2.86022 7.19807 5.40972 0.5
862 13.0642 9.7783 10.1655 0.5
863 6.92682 4.60592 11.1193 0.5
864 7.67323 5.74257 5.39707 0.5
865 7.18676 1.16903 1.56951 0.5
866 2.2137 8.90427 12.0552 0.5
867 8.63844 8.59096 5.73042 0.5
868 8.0697 4.72893 9.825 0.5
869 11.8678 3.55435 3.39321 0.5
870 7.59751 1.96284 9.93979 0.5
871 11.445 10.4219 0.703748 0.5
872 7.63199 1.87753 10.399 0.5
873 3.98063 12.6155 7.98465 0.5
874 12.8464 1.97564 8.56752 0.5
875 11.3903 13.1455 4.61587 0.5
876 10.7672 3.90165 8.50474 0.5
877 2.80171 7.551 4.5592 0.5
878 13.1468 0.345127 8.7526 0.5
879 11.1864 13.5468 4.72552 0.5
880 12.2101 9.19589 9.4418 0.5
881 3.87979 0.758941 10.9095 0.5
882 6.50965 11.5124 5.34808 0.5
883 2.13903 3.46502 4.22314 0.5
884 0.272591 6.04797 12.146 0.5
885 7.40556 12.1192 5.42478 0.5
886 5.02328 1.95429 3.88826 0.5
887 5.07317 6.645 11.3139 0.5
888 9.26957 9.7059 9.89194 0.5
889 1.82018 9.48004 6.5047 0.5
890 13.0728 11.933 3.60219 0.5
891 1.42257 12.1957 1.90507 0.5
892 3.22308 1.71975 6.40126 0.5
893 8.62382 11.6113 2.63984 0.5
894 8.39869 10.3953 5.53763 0.5
895 8.80826 8.30311 0.523878 0.5
896 4.45005 9.06668 8.65195 0.5
897 13.1833 13.3454 11.7829 0.5
898 13.4009 7.22308 5.83358 0.5
899 5.06346 0.624032 11.6416 0.5
900 3.66041 9.24053 5.82283 0.5
901 7.34141 2.50267 5.06357 0.5
902 12.2551 4.731 1.39118 0.5
903 0.883819 9.3334 8.01016 0.5
904 3.60522 10.8812 0.79828 0.5
905 7.97752 6.24739 0.663649 0.5
906 6.21293 13.5431 5.93536 0.5
907 2.45001 4.63919 2.43915 0.5
908 12.5012 10.0364 0.864027 0.5
909 11.588 11.3591 12.7569 0.5
910 10.709 5.54618 12.6524 0.5
911 12.0214 11.7587 12.7124 0.5
912 8.78747 5.50056 2.46235 0.5
913 9.77262 4.81324 12.3576 0.5
914 1.69307 4.67362 2.91477 0.5
915 12.332 4.99052 11.1537 0.5
916 12.3823 12.0619 5.90872 0.5
917 1.46406 8.7436 11.1517 0.5
918 8.06278 5.02826 12.2143 0.5
919 12.3563 5.69647 9.0942 0.5
920 7.08799 8.77023 5.80857 0.5
921 11.6634 6.39775 5.17722 0.5
922 13.0218 5.97224 12.7535 0.5
923 12.1733 3.58383 0.521566 0.5
924 4.09246 9.15534 13.201 0.5
925 7.82342 2.31757 3.05425 0.5
926 7.62527 9.79249 1.40213 0.5
927 6.82023 5.12467 1.08172 0.5
928 4.50299 4.6786 9.98265 0.5
929 10.8719 7.60917 13.043 0.5
930 11.2077 2.89673 0.51167 0.5
931 10.3277 11.9947 4.51319 0.5
932 4.2636 13.2847 10.9207 0.5
933 0.548543 13.0497 3.0053 0.5