ITEM: TIMESTEP
570000
ITEM: NUMBER OF ATOMS
1000
ITEM: BOX BOUNDS xy xz yz pp pp pp
0.0000000000000000e+00 1.3572088000000001e+01 0.0000000000000000e+00
0.0000000000000000e+00 1.3572088000000001e+01 0.0000000000000000e+00
0.0000000000000000e+00 1.3572088000000001e+01 0.0000000000000000e+00
ITEM: ATOMS id x y z radius
1 8.57066 6.26067 10.5088 0.5
2 11.137 1.88279 1.99732 0.5
3 10.503 0.934847 1.79543 0.5
4 1.25686 10.598 4.37375 0.5
5 10.0473 5.27989 4.71644 0.5
6 11.1257 8.98324 0.96413 0.5
7 12.2835 1.60431 5.74802 0.5
8 12.4359 8.76568 11.685 0.5
9 7.95686 10.887 10.4095 0.5
10 2.7829 10.6205 8.33269 0.5
11 10.4267 2.72572 3.15033 0.5
12 3.31598 8.89525 6.28077 0.5
13 13.4705 2.23627 0.727423 0.5
14 4.3941 5.72638 1.81866 0.5
15 7.53703 8.83876 0.840044 0.5
16 6.25527 5.1262 13.1939 0.5
17 6.77825 5.91717 2.60668 0.5
18 0.541525 5.94481 9.53387 0.5
19 10.0037 8.14764 3.1912 0.5
20 12.5926 6.15021 5.38528 0.5
21 1.68076 2.24699 1.35271 0.5
22 3.35254 11.2067 6.87134 0.5
23 8.82021 13.4609 0.162779 0.5
24 12.3411 3.24258 3.0286 0.5
25 5.69821 3.15104 1.44591 0.5
26 6.69112 10.9499 5.89815 0.5
27 12.616 5.83078 2.02542 0.5
28 8.69513 5.5162 3.80032 0.5
29 9.37874 6.71678 3.54204 0.5
30 10.399 3.53301 6.88188 0.5
31 12.7256 11.6053 6.83817 0.5
32 2.35497 5.84358 9.21448 0.5
33 3.49187 10.2571 1.14519 0.5
34 7.74958 9.34673 0.450617 0.5
35 1.5325 12.0405 10.1206 0.5
36 4.47507 12.0403 3.02548 0.5
37 6.43079 12.6297 13.4002 0.5
38 1.94092 2.44774 6.15556 0.5
39 6.0063 0.301272 12.7196 0.5
40 9.56163 10.8891 13.4877 0.5
41 0.547691 2.32007 10.4135 0.5
42 5.49033 12.829 11.8091 0.5
43 0.543475 5.90394 3.33592 0.5
44 8.85377 8.09252 8.1226 0.5
45 3.20809 7.36675 5.95469 0.5
46 9.87293 2.74 1.77888 0.5
47 10.2731 7.26284 7.99402 0.5
48 5.08297 12.0999 8.45605 0.5
49 12.201 9.61078 0.534108 0.5
50 9.01345 10.0109 11.2801 0.5
51 1.9002 10.6295 8.76829 0.5
52 8.27252 5.99398 10.7671 0.5
53 6.45245 6.30085 4.01956 0.5
54 3.48727 8.44469 13.3522 0.5
55 4.43081 5.47764 6.17789 0.5
56 4.18425 10.2443 1.6751 0.5
57 13.38 4.29795 6.30918 0.5
58 12.8708 4.87378 12.1385 0.5
59 12.5718 9.80687 2.59497 0.5
60 4.86262 10.6829 3.65315 0.5
61 12.6758 7.57958 10.0242 0.5
62 12.6114 9.91941 8.06978 0.5
63 5.49953 11.3165 12.3627 0.5
64 9.2382 1.96244 6.9517 0.5
65 0.145983 2.22773 0.324724 0.5
66 12.46 13.1287 1.02175 0.5
67 12.7122 9.7874 8.65633 0.5
68 9.71147 7.24808 11.9855 0.5
69 1.03672 6.43065 9.35716 0.5
70 2.85199 0.747962 6.94598 0.5
71 2.5287 0.343195 0.539414 0.5
72 6.95655 5.8314 6.01242 0.5
73 6.60166 4.69939 6.39809 0.5
74 4.61031 8.5241 1.27736 0.5
75 1.94303 3.4019 13.3095 0.5
76 3.34227 10.4503 9.65851 0.5
77 13.5442 7.51248 11.191 0.5
78 12.3919 5.84942 4.0736 0.5
79 4.46914 5.86639 2.41836 0.5
80 4.7585 0.277501 4.92194 0.5
81 7.85097 8.18864 4.11824 0.5
82 4.42109 0.806024 7.63858 0.5
83 13.4257 11.5436 7.09281 0.5
84 2.9868 10.8327 0.00566983 0.5
85 0.075932 3.06712 2.77108 0.5
86 3.19565 13.546 12.9988 0.5
87 0.889449 1.94929 0.641621 0.5
88 10.1135 12.9095 6.40907 0.5
89 4.2198 6.58351 13.3748 0.5
90 3.14318 11.5496 0.413355 0.5
91 11.8601 8.08039 1.17857 0.5
92 10.0121 10.419 10.5142 0.5
93 5.26535 8.63752 9.2374 0.5
94 12.8963 1.76474 11.4914 0.5
95 11.4645 3.05069 8.55573 0.5
96 4.33309 3.6641 9.56617 0.5
97 12.9968 7.00636 9.69626 0.5
98 1.71978 1.98332 4.21813 0.5
99 10.7493 7.41004 8.21081 0.5
100 8.90618 9.53146 7.6579 0.5
101 13.0523 7.82258 2.51125 0.5
102 3.24693 10.8871 2.99698 0.5
103 5.75661 0.334387 4.5557 0.5
104 11.6769 7.67285 5.60501 0.5
105 12.129 6.59121 9.36991 0.5
106 6.07412 7.56156 1.72093 0.5
107 7.60966 13.1414 5.07721 0.5
108 11.5226 12.3305 0.128673 0.5
109 9.43852 5.85345 9.0382 0.5
110 7.7945 12.8867 9.53187 0.5
111 7.05756 12.3977 13.101 0.5
112 12.415 7.70557 10.7275 0.5
113 7.06171 3.80531 6.67774 0.5
114 0.302479 13.2567 1.10877 0.5
115 6.52001 9.30022 12.943 0.5
116 0.311514 8.75387 11.5576 0.5
117 11.0359 7.70363 9.31292 0.5
118 4.34937 11.8791 9.64083 0.5
119 3.08921 5.7107 8.03828 0.5
120 11.821 8.93116 1.2302 0.5
121 1.97968 4.73169 12.43 0.5
122 7.20919 8.61443 7.23587 0.5
123 9.95694 11.6352 0.528391 0.5
124 2.47562 13.4152 10.5791 0.5
125 0.768316 13.1549 2.71878 0.5
126 13.1773 13.535 2.63377 0.5
127 1.10121 10.034 5.54678 0.5
128 5.73767 9.85698 0.0177494 0.5
129 1.93644 1.78894 7.23989 0.5
130 10.2544 4.68431 9.47359 0.5
131 5.36619 7.88112 4.35002 0.5
132 9.79453 1.70382 2.33476 0.5
133 6.28872 8.94224 7.67777 0.5
134 1.97919 12.6067 3.62311 0.5
135 5.10094 12.7171 2.22076 0.5
136 3.60719 5.8922 2.16144 0.5
137 13.5312 13.5299 5.97482 0.5
138 8.83672 12.0324 10.4403 0.5
139 5.07196 8.71221 4.81238 0.5
140 0.26116 5.9491 5.26488 0.5
141 10.0624 5.85976 5.20697 0.5
142 6.23684 11.167 7.40839 0.5
143 2.29241 5.72096 3.55692 0.5
144 11.4072 10.7609 8.49913 0.5
145 5.06822 0.331263 8.36017 0.5
146 3.99487 11.5323 3.45996 0.5
147 0.414818 7.65518 10.9248 0.5
148 4.96973 5.94159 4.65022 0.5
149 5.46155 12.7698 4.94928 0.5
150 5.00463 7.64094 9.88652 0.5
151 7.60742 1.2745 11.3797 0.5
152 10.5978 2.04389 0.462403 0.5
153 1.76375 1.31275 2.27307 0.5
154 8.87033 10.288 11.5546 0.5
155 11.8477 9.33749 10.6595 0.5
156 10.8854 8.06747 3.53704 0.5
157 0.968265 6.48548 3.48301 0.5
158 4.93587 8.67788 6.03359 0.5
159 7.52215 1.92983 5.18686 0.5
160 7.10998 5.90648 1.38148 0.5
161 0.203549 8.79198 10.0143 0.5
162 13.1888 8.97263 9.0849 0.5
163 3.07263 6.11126 12.2746 0.5
164 11.078 3.76302 8.70848 0.5
165 6.75242 0.820329 8.4415 0.5
166 9.05691 10.3863 0.56526 0.5
167 6.19544 11.4877 11.1488 0.5
168 11.9695 10.8463 13.2875 0.5
169 12.9493 3.05562 13.5128 0.5
170 6.69025 13.0442 7.91029 0.5
171 3.58136 3.07978 4.39415 0.5
172 9.83808 9.90472 12.7162 0.5
173 8.36367 0.711443 11.6365 0.5
174 0.916705 6.68744 10.7408 0.5
175 2.31229 1.26709 6.12811 0.5
176 9.27218 4.37449 0.884584 0.5
177 7.15047 11.4989 11.8179 0.5
178 2.4045 11.7049 9.67417 0.5
179 3.18588 11.8428 9.33606 0.5
180 3.00149 10.3941 4.514 0.5
181 8.58391 9.58413 4.97053 0.5
182 8.20651 10.6311 11.5952 0.5
183 13.4105 9.14717 6.11434 0.5
184 11.7349 8.99644 11.8785 0.5
185 6.99912 3.25139 8.17512 0.5
186 2.23007 8.08771 11.9616 0.5
187 4.66375 4.14948 7.50617 0.5
188 12.5036 6.72893 6.70185 0.5
189 7.87133 4.02967 6.01603 0.5
190 8.9992 9.88792 7.29191 0.5
191 4.24117 11.6001 8.68379 0.5
192 4.53159 12.8848 0.861905 0.5
193 12.419 8.06597 13.5532 0.5
194 7.14267 9.2434 8.33367 0.5
195 13.2417 0.780846 7.54469 0.5
196 4.27869 6.03176 0.72407 0.5
197 0.408343 4.60348 4.51148 0.5
198 5.36684 4.47991 8.41422 0.5
199 12.3334 0.0523318 10.3846 0.5
200 10.8617 10.5016 3.85159 0.5
201 8.70576 9.81379 10.2001 0.5
202 12.2441 0.936213 2.61942 0.5
203 9.19588 5.66371 10.1918 0.5
204 11.7563 8.80861 3.28562 0.5
205 10.4736 12.9057 12.8399 0.5
206 5.26513 11.7478 8.53265 0.5
207 3.3153 3.47336 4.91991 0.5
208 13.0601 0.841566 9.90628 0.5
209 8.47354 11.5454 9.06683 0.5
210 4.24596 10.9035 5.57185 0.5
211 6.28127 3.75083 5.10602 0.5
212 8.38027 1.85113 0.866571 0.5
213 6.61938 2.6005 3.47849 0.5
214 9.16166 2.16051 12.8377 0.5
215 0.965926 10.2921 11.7699 0.5
216 2.06754 11.4258 7.65114 0.5
217 12.0827 2.41707 10.5521 0.5
218 5.49071 5.79033 4.11055 0.5
219 4.71996 7.37091 0.57576 0.5
220 5.67573 5.16423 10.6535 0.5
221 2.55133 5.89995 9.22442 0.5
222 12.0076 4.18519 12.0898 0.5
223 8.6776 8.16013 1.32324 0.5
224 12.4946 11.7865 10.8496 0.5
225 9.78417 5.07078 4.72466 0.5
226 11.5832 0.744382 7.30862 0.5
227 7.14166 0.237754 9.03714 0.5
228 0.350876 0.904998 5.32772 0.5
229 1.89961 11.3418 6.49499 0.5
230 8.02447 3.52878 11.7946 0.5
231 5.33732 7.5101 7.22453 0.5
232 6.74774 4.99142 9.68849 0.5
233 12.8194 4.19477 0.923465 0.5
234 13.2959 6.79185 1.55042 0.5
235 1.95038 4.82537 5.08743 0.5
236 9.70568 5.68583 12.1071 0.5
237 6.49691 9.6133 2.93204 0.5
238 0.198577 12.1566 13.5701 0.5
239 6.60362 13.0105 9.09805 0.5
240 5.46252 11.3827 4.38472 0.5
241 9.95851 0.220582 7.40829 0.5
242 3.86545 12.1058 8.61796 0.5
243 11.316 0.602468 1.01098 0.5
244 2.97502 9.39228 10.9086 0.5
245 0.990189 5.60041 5.44385 0.5
246 7.56279 7.53544 4.45973 0.5
247 13.3737 9.11383 2.18875 0.5
248 1.88253 10.488 10.9457 0.5
249 2.4473 8.47587 10.2178 0.5
250 5.76634 13.2556 9.9673 0.5
251 1.66933 7.68232 11.7563 0.5
252 3.30465 1.36509 6.02391 0.5
253 2.97022 11.3603 12.7943 0.5
254 7.75683 3.6194 10.9193 0.5
255 7.26608 2.42507 0.365794 0.5
256 5.74022 8.40399 3.04775 0.5
257 4.45425 11.1899 0.683346 0.5
258 2.7214 6.12609 6.33085 0.5
259 11.2141 3.07197 9.70639 0.5
260 12.565 3.14817 12.3133 0.5
261 0.957301 11.2877 12.6451 0.5
262 13.3709 4.18309 1.18618 0.5
263 6.37614 11.6075 3.05444 0.5
264 11.2098 3.01818 3.64941 0.5
265 8.57884 9.15027 4.07891 0.5
266 3.98227 11.9527 4.14375 0.5
267 7.01491 10.8455 4.3344 0.5
268 9.84945 5.48393 6.267 0.5
269 8.93254 2.84723 2.32454 0.5
270 10.5791 6.39666 2.13694 0.5
271 4.82073 6.75516 11.2613 0.5
272 10.7268 3.53114 2.3098 0.5
273 2.70827 0.205834 8.43772 0.5
274 2.16456 6.48937 11.4805 0.5
275 10.2429 7.68871 0.837181 0.5
276 11.7847 8.33782 10.8241 0.5
277 6.13244 6.41045 4.75567 0.5
278 3.84128 7.7773 11.7978 0.5
279 10.9661 4.00737 10.2643 0.5
280 0.258087 9.22299 2.17217 0.5
281 6.86273 11.6054 9.93144 0.5
282 8.93836 5.96682 3.565 0.5
283 11.5548 2.42879 11.7028 0.5
284 13.4392 6.04282 4.68223 0.5
285 0.964323 8.67393 11.0194 0.5
286 5.57514 8.82821 3.60506 0.5
287 8.46901 5.32761 3.04866 0.5
288 6.82819 2.75254 8.65025 0.5
289 10.5801 2.50477 4.28399 0.5
290 2.71797 3.60363 2.41328 0.5
291 11.0774 3.64637 4.68851 0.5
292 7.41435 9.3561 10.2798 0.5
293 0.166996 5.6628 0.122689 0.5
294 1.15729 8.34358 12.3815 0.5
295 11.1565 3.66896 10.3791 0.5
296 12.0996 4.57264 10.4438 0.5
297 1.76032 4.49094 12.7749 0.5
298 8.6925 12.0448 2.02399 0.5
299 9.11174 8.15445 10.9905 0.5
300 12.9439 0.977659 6.76672 0.5
301 3.8777 9.07743 8.86751 0.5
302 0.951768 2.32568 2.54371 0.5
303 3.84249 2.044 12.8547 0.5
304 7.36707 2.66089 9.76278 0.5
305 8.15419 7.58221 1.23728 0.5
306 6.71 8.35135 4.81277 0.5
307 7.57973 3.83324 2.50972 0.5
308 12.2562 1.80629 5.73643 0.5
309 8.90823 0.17698 6.23143 0.5
310 12.0507 12.0442 3.41848 0.5
311 13.565 9.64469 1.05373 0.5
312 1.95051 2.44922 11.9251 0.5
313 4.18633 10.72 9.70845 0.5
314 8.06361 5.11814 6.99287 0.5
315 5.29264 12.0036 6.40355 0.5
316 6.42722 10.7362 10.7565 0.5
317 5.89716 2.71101 3.82028 0.5
318 12.9181 1.67867 0.550414 0.5
319 9.53232 5.46831 6.88305 0.5
320 1.7728 1.39814 2.4716 0.5
321 6.13815 0.26982 4.6054 0.5
322 9.32257 6.92952 9.96291 0.5
323 0.888944 6.0774 1.25957 0.5
324 3.67436 6.23088 3.00135 0.5
325 9.29916 0.115391 3.02248 0.5
326 0.648578 6.98359 7.66485 0.5
327 6.38033 8.2261 5.53885 0.5
328 9.0621 10.2987 6.83355 0.5
329 6.03855 5.26562 0.948934 0.5
330 11.3752 8.19008 5.20842 0.5
331 2.5289 10.2445 12.3944 0.5
332 11.1586 0.0405107 2.93606 0.5
333 6.93712 7.72131 11.6488 0.5
334 4.11052 12.2455 11.3143 0.5
335 5.48468 5.56714 12.2882 0.5
336 5.16975 7.42449 11.2957 0.5
337 8.89692 3.87842 12.7464 0.5
338 10.1629 2.16695 11.4729 0.5
339 1.68115 7.95992 11.8296 0.5
340 6.40819 4.56282 11.3781 0.5
341 6.37604 2.30414 8.4304 0.5
342 2.8372 4.98683 1.56527 0.5
343 10.263 1.60671 1.77846 0.5
344 11.2451 4.14245 0.867966 0.5
345 1.95227 10.0709 1.88836 0.5
346 12.4979 6.19201 8.22636 0.5
347 8.00566 3.69131 4.17429 0.5
348 5.55521 2.82549 2.78309 0.5
349 8.59786 8.58885 2.71162 0.5
350 8.86224 1.69646 10.8445 0.5
351 10.1374 8.18929 2.41223 0.5
352 5.94993 9.80632 3.31029 0.5
353 0.244632 2.50674 4.82818 0.5
354 12.7338 0.427263 0.0275722 0.5
355 1.47258 12.9399 5.66866 0.5
356 5.66865 5.59473 8.10706 0.5
357 2.1004 6.62061 8.69973 0.5
358 0.852539 3.60287 6.21145 0.5
359 7.70396 9.30093 11.8056 0.5
360 9.23012 1.58095 1.04699 0.5
361 9.02025 4.328 5.87954 0.5
362 13.4899 11.4367 4.32896 0.5
363 13.2486 1.16427 13.2561 0.5
364 9.01149 9.88931 0.76111 0.5
365 9.06891 13.3616 8.20101 0.5
366 4.7528 3.04484 9.30273 0.5
367 2.58092 4.70656 4.83639 0.5
368 13.4973 6.1019 3.79346 0.5
369 0.969139 10.399 10.0713 0.5
370 8.72065 13.4417 12.0094 0.5
371 12.9926 0.0714481 3.95011 0.5
372 9.07498 9.51023 10.755 0.5
373 6.22992 4.98135 8.85624 0.5
374 4.58163 0.351496 12.917 0.5
375 5.94826 6.80219 9.06622 0.5
376 7.24962 9.95003 12.9142 0.5
377 12.254 3.55713 2.25504 0.5
378 8.644 4.79081 1.62665 0.5
379 2.47997 1.35632 6.71161 0.5
380 11.5734 6.92102 2.08605 0.5
381 0.816971 3.30302 0.295034 0.5
382 8.68132 13.337 4.04866 0.5
383 10.627 7.11754 3.86287 0.5
384 4.60631 3.50256 5.8108 0.5
385 4.33048 2.79385 1.98147 0.5
386 2.7665 1.14766 5.6576 0.5
387 12.0783 7.50704 4.08536 0.5
388 0.0666236 3.75265 1.71693 0.5
389 3.63885 6.48628 6.22272 0.5
390 7.28543 7.53141 9.90814 0.5
391 8.66378 10.0519 8.68715 0.5
392 9.60542 7.48394 9.15631 0.5
393 11.543 9.2721 7.93959 0.5
394 2.04776 12.2867 5.18483 0.5
395 5.08346 3.653 8.47604 0.5
396 10.8539 3.82617 10.9177 0.5
397 12.0666 5.0304 11.0777 0.5
398 3.34161 11.5035 6.86727 0.5
399 3.79966 12.0209 7.55974 0.5
400 11.5108 1.62328 2.72669 0.5
401 3.47165 6.01208 5.83168 0.5
402 4.16713 11.1236 1.74573 0.5
403 10.9247 1.2367 13.1422 0.5
404 4.76668 0.164361 6.22493 0.5
405 6.66588 0.00050954 0.970552 0.5
406 7.78061 10.9734 4.41693 0.5
407 2.9093 11.2979 5.02577 0.5
408 0.0614843 2.02694 8.2276 0.5
409 8.40811 7.26563 3.45827 0.5
410 7.11975 9.34474 10.6928 0.5
411 0.637347 9.70475 5.13242 0.5
412 7.26496 0.748259 13.2268 0.5
413 1.59335 2.97098 8.11007 0.5
414 5.42428 12.7071 11.7733 0.5
415 2.32855 12.4399 8.72195 0.5
416 13.3662 8.2258 7.59178 0.5
417 2.19657 9.98555 9.40707 0.5
418 7.57113 12.5955 12.6264 0.5
419 0.0747571 0.500735 10.2389 0.5
420 9.55005 7.35621 7.3241 0.5
421 2.61852 3.05237 11.9976 0.5
422 9.75088 3.89838 9.41131 0.5
423 8.76225 9.8433 13.4462 0.5
424 4.57768 4.11349 1.70733 0.5
425 3.73402 1.62325 12.1948 0.5
426 8.243 3.6477 0.311222 0.5
427 10.9519 0.846972 6.73376 0.5
428 8.20281 4.12187 6.91495 0.5
429 4.11338 8.7733 10.0193 0.5
430 3.15929 0.42044 11.5714 0.5
431 6.55521 5.11746 11.4099 0.5
432 7.53839 3.73104 10.7563 0.5
433 10.2302 10.321 12.2291 0.5
434 3.85028 13.1281 3.07888 0.5
435 2.13105 1.37826 9.04922 0.5
436 6.69611 7.17975 0.148652 0.5
437 3.23305 3.13129 4.8172 0.5
438 8.14061 13.1346 6.10422 0.5
439 4.31016 3.19815 0.551252 0.5
440 7.22576 5.089 3.89875 0.5
441 10.4258 0.311884 0.97493 0.5
442 8.25255 1.43805 0.244932 0.5
443 12.9286 4.38542 9.57136 0.5
444 0.0883406 11.095 1.45158 0.5
445 2.45846 7.5514 11.4365 0.5
446 9.8393 7.29434 11.8014 0.5
447 0.342627 7.14554 10.8588 0.5
448 13.0228 8.10908 13.2118 0.5
449 8.08947 9.92308 11.0639 0.5
450 2.54612 10.579 3.04724 0.5
451 0.740219 11.3351 4.68012 0.5
452 11.1921 12.562 11.1059 0.5
453 10.0426 11.8052 11.4088 0.5
454 9.17683 9.63468 10.4455 0.5
455 2.6918 4.5095 11.674 0.5
456 1.46247 10.8818 11.8555 0.5
457 7.11236 9.37383 5.59696 0.5
458 3.48178 0.171243 6.73436 0.5
459 9.92911 13.2568 2.02764 0.5
460 9.56421 3.90306 4.28578 0.5
461 4.98291 6.72138 1.93595 0.5
462 8.61839 0.336942 11.4478 0.5
463 6.88556 10.5123 10.0674 0.5
464 8.24088 5.9362 12.1486 0.5
465 12.2234 6.13673 4.83092 0.5
466 12.866 4.61675 10.0276 0.5
467 5.32254 9.53465 0.291541 0.5
468 4.02617 1.67605 1.38562 0.5
469 1.96671 3.68486 10.6303 0.5
470 2.27407 12.0057 8.47134 0.5
471 4.68363 2.53657 5.62159 0.5
472 3.70542 12.4639 13.0728 0.5
473 0.283766 8.08502 3.31899 0.5
474 4.36181 10.9293 7.16297 0.5
475 0.319472 2.5529 8.58371 0.5
476 10.6861 4.33346 0.494392 0.5
477 9.59 7.69015 0.144469 0.5
478 10.5 10.6596 11.7926 0.5
479 3.95586 5.61009 11.9897 0.5
480 1.56107 13.0087 10.3213 0.5
481 1.40474 8.27546 9.47823 0.5
482 6.99548 9.77814 6.52758 0.5
483 11.7053 8.23243 1.93061 0.5
484 2.67539 3.10943 6.62069 0.5
485 2.59176 13.0365 11.5583 0.5
486 4.75691 11.5576 4.81653 0.5
487 7.13713 3.30908 2.66504 0.5
488 4.49774 4.6926 6.8817 0.5
489 2.97148 6.01195 3.48432 0.5
490 13.1508 5.80578 7.02179 0.5
491 1.22901 7.38217 5.54559 0.5
492 4.81247 7.98334 13.1801 0.5
493 10.395 1.15264 12.1547 0.5
494 5.57129 10.9931 10.625 0.5
495 8.47949 12.3931 2.7854 0.5
496 11.456 4.76344 3.08384 0.5
497 2.24137 11.655 11.2782 0.5
498 7.52438 12.0838 10.3692 0.5
499 4.00463 6.93154 11.4821 0.5
500 7.34185 7.93809 7.73419 0.5
501 12.1692 3.09869 11.4234 0.5
502 7.26965 12.2279 12.8438 0.5
503 9.63343 9.08793 12.2284 0.5
504 11.0827 12.9339 2.04458 0.5
505 10.1963 6.36009 8.07469 0.5
506 8.81658 5.16201 6.62252 0.5
507 6.36236 11.4794 12.542 0.5
508 7.13404 8.91425 12.8788 0.5
509 4.27464 5.4218 11.1352 0.5
510 3.81178 13.42 13.2203 0.5
511 1.07831 0.654497 13.192 0.5
512 6.0456 13.3708 4.33464 0.5
513 6.74539 5.66408 12.1021 0.5
514 7.68183 9.94906 1.95524 0.5
515 1.75286 11.6111 8.75486 0.5
516 3.05626 4.58116 11.6408 0.5
517 1.42599 12.0847 10.7178 0.5
518 0.812388 12.0368 12.2055 0.5
519 7.52467 12.7949 11.5273 0.5
520 7.86126 10.5475 12.0116 0.5
521 11.9394 6.99726 2.75853 0.5
522 12.5603 9.99841 5.19399 0.5
523 9.8592 12.5773 4.92405 0.5
524 10.8017 1.91514 0.0402303 0.5
525 6.18473 9.61922 5.2324 0.5
526 2.79022 8.19127 8.60124 0.5
527 7.40541 2.31522 11.5347 0.5
528 6.99096 2.11658 10.1557 0.5
529 0.354859 6.32623 10.0281 0.5
530 9.7407 4.30399 0.0790885 0.5
531 8.89869 2.31932 1.28736 0.5
532 0.914203 6.89475 12.4222 0.5
533 10.7646 10.3715 8.75666 0.5
534 6.66159 2.01307 4.78337 0.5
535 9.1682 8.19143 3.02959 0.5
536 12.0107 8.00995 12.4662 0.5
537 13.4872 11.6508 4.9187 0.5
538 9.94398 8.73214 11.688 0.5
539 12.3333 4.31564 6.82356 0.5
540 0.668147 6.05048 1.00634 0.5
541 10.268 2.21948 5.98728 0.5
542 7.39398 2.59399 9.55926 0.5
543 12.551 8.4306 6.88213 0.5
544 8.04669 10.2132 10.5919 0.5
545 10.5044 4.78177 2.53256 0.5
546 2.28951 4.2739 5.8594 0.5
547 5.26782 0.794825 5.99111 0.5
548 1.96031 11.2759 2.98008 0.5
549 8.74183 4.57641 9.40016 0.5
550 11.094 9.53677 9.3468 0.5
551 10.7049 3.71731 1.9167 0.5
552 1.46409 11.3207 11.1243 0.5
553 12.0362 4.61946 1.85288 0.5
554 8.36865 12.2744 8.10021 0.5
555 9.74555 3.21813 2.20154 0.5
556 0.14673 7.83611 5.60531 0.5
557 5.93081 9.30268 1.67648 0.5
558 13.2795 4.5274 8.38193 0.5
559 9.56346 7.90383 5.81637 0.5
560 4.26302 10.7932 11.2317 0.5
561 4.54204 11.2717 4.98277 0.5
562 8.81658 12.9155 9.05704 0.5
563 12.2511 11.3534 7.484 0.5
564 9.75277 11.7289 1.11383 0.5
565 10.2984 8.85653 8.77411 0.5
566 13.002 3.16945 2.24042 0.5
567 11.287 6.98738 7.01678 0.5
568 7.8884 3.50359 7.12076 0.5
569 7.56133 11.8524 13.28 0.5
570 2.13171 4.84945 12.3839 0.5
571 13.4666 4.25345 1.16792 0.5
572 3.95579 2.50741 1.9693 0.5
573 7.55311 13.0675 6.53525 0.5
574 10.0311 10.2763 0.276489 0.5
575 0.0166433 1.0066 6.37487 0.5
576 10.1765 7.38269 8.20216 0.5
577 1.39112 11.1663 11.7388 0.5
578 8.54639 6.22453 11.8298 0.5
579 7.05153 1.28412 2.82328 0.5
580 0.4227 11.9314 11.2589 0.5
581 12.029 11.8605 11.889 0.5
582 13.1827 0.661656 0.569411 0.5
583 9.92342 8.14237 2.6208 0.5
584 13.1211 11.6311 0.805985 0.5
585 4.7082 12.2516 9.49818 0.5
586 0.796806 10.333 4.48887 0.5
587 3.93441 2.79185 3.35346 0.5
588 7.85182 3.64426 1.84114 0.5
589 6.39267 3.19984 12.0556 0.5
590 8.68086 5.91947 8.87331 0.5
591 4.87304 3.12598 0.78906 0.5
592 6.25995 1.18429 9.92501 0.5
593 1.08645 10.9721 12.5552 0.5
594 11.2979 7.85982 12.5416 0.5
595 6.09671 13.0591 1.34711 0.5
596 2.05576 1.18479 2.10229 0.5
597 2.51788 8.04634 8.69729 0.5
598 6.67307 7.87684 4.00513 0.5
599 6.14165 4.65406 3.49603 0.5
600 8.19937 2.37601 11.8901 0.5
601 9.54256 4.31218 0.854921 0.5
602 9.03349 9.67384 11.0282 0.5
603 7.09928 11.3411 5.35366 0.5
604 6.15577 3.40488 9.25613 0.5
605 6.4106 0.829356 2.63357 0.5
606 10.5052 12.5392 0.292559 0.5
607 3.49197 9.43455 9.22793 0.5
608 9.30187 12.9269 11.8407 0.5
609 2.68912 10.5975 3.87985 0.5
610 10.093 7.42626 4.06741 0.5
611 2.00959 3.3523 9.25646 0.5
612 11.3493 6.10764 0.13751 0.5
613 7.43959 3.32292 9.53625 0.5
614 3.82224 12.3388 7.56832 0.5
615 1.89959 3.98968 10.5436 0.5
616 11.9762 0.744161 9.79697 0.5
617 6.22814 4.9383 12.0975 0.5
618 13.4487 8.6386 6.91421 0.5
619 6.05914 6.08228 6.4879 0.5
620 11.31 0.709363 1.3078 0.5
621 1.93123 3.98032 10.1119 0.5
622 12.2959 12.8699 10.6057 0.5
623 5.61412 0.224335 0.0907104 0.5
624 11.9312 4.31529 13.2013 0.5
625 0.652592 10.5056 2.0589 0.5
626 3.42582 4.32037 4.28341 0.5
627 2.95435 6.11303 9.00579 0.5
628 10.4715 5.28234 7.53032 0.5
629 10.3101 11.2662 3.91984 0.5
630 6.87665 9.41128 12.4314 0.5
631 0.680203 11.6794 13.1571 0.5
632 10.2826 11.1413 6.95865 0.5
633 9.08195 12.6923 1.88476 0.5
634 10.292 10.1021 0.769944 0.5
635 1.37671 2.39456 8.25358 0.5
636 12.9117 2.34951 3.41474 0.5
637 10.0564 4.44563 9.95761 0.5
638 12.4365 2.83156 11.9343 0.5
639 13.1358 7.60989 9.54906 0.5
640 2.16507 3.73021 7.79236 0.5
641 7.2095 10.3362 9.4418 0.5
642 4.08425 12.007 2.04139 0.5
643 4.08563 9.44071 2.39558 0.5
644 3.52706 11.9581 10.6649 0.5
645 13.5564 9.69696 3.62772 0.5
646 13.3144 0.752407 6.56392 0.5
647 2.83726 2.63865 7.44189 0.5
648 8.17516 9.31483 9.87857 0.5
649 0.602339 10.3647 6.43517 0.5
650 7.83109 0.5093 8.71442 0.5
651 8.10841 9.68168 4.34018 0.5
652 0.912812 9.52051 13.4944 0.5
653 3.75214 11.8869 12.0605 0.5
654 9.13918 3.15494 11.2101 0.5
655 5.52926 13.3346 1.5202 0.5
656 8.32612 1.5472 11.9679 0.5
657 4.97209 1.72808 2.9637 0.5
658 1.23948 9.10757 8.38495 0.5
659 6.81497 10.2613 4.32978 0.5
660 4.01063 13.3001 7.60176 0.5
661 11.7274 11.0011 6.24478 0.5
662 5.40208 6.62443 5.58936 0.5
663 5.39987 1.01514 6.21966 0.5
664 13.183 9.06933 11.7847 0.5
665 9.15419 0.48355 0.74919 0.5
666 9.57076 11.8056 11.0904 0.5
667 3.55442 0.260512 12.7953 0.5
668 10.4289 0.340813 8.7546 0.5
669 9.4228 10.9031 13.2529 0.5
670 3.18234 12.3798 12.6113 0.5
671 9.12313 0.476139 10.1778 0.5
672 2.1897 13.272 0.234612 0.5
673 3.62337 9.37665 2.07646 0.5
674 10.7572 3.06498 8.47795 0.5
675 13.5387 4.21583 0.275211 0.5
676 12.3063 9.89458 11.6022 0.5
677 2.13801 12.6995 2.84043 0.5
678 7.80113 9.44825 12.1972 0.5
679 11.2215 4.03971 11.6691 0.5
680 4.57064 2.14954 3.53595 0.5
681 11.2347 2.50926 10.6785 0.5
682 8.71564 13.0231 5.85702 0.5
683 10.9575 10.1925 6.77965 0.5
684 0.156209 11.4577 4.57221 0.5
685 1.93191 9.54326 12.1283 0.5
686 3.75423 7.09337 9.79007 0.5
687 9.08139 4.92636 12.4799 0.5
688 12.9951 4.40994 7.43935 0.5
689 0.500179 8.94201 4.9916 0.5
690 10.2929 1.34473 3.27707 0.5
691 12.6041 2.69908 4.66188 0.5
692 10.9229 1.20794 4.34271 0.5
693 8.17662 0.208744 12.343 0.5
694 1.636 10.8362 11.7531 0.5
695 8.79579 3.56928 6.37747 0.5
696 11.3189 6.7333 6.62354 0.5
697 2.44686 8.76308 8.72229 0.5
698 4.17005 10.1734 7.77147 0.5
699 9.65214 5.72837 12.2198 0.5
700 13.4733 13.3745 5.48147 0.5
701 1.94129 6.88009 9.64909 0.5
702 1.32352 1.08781 9.17773 0.5
703 4.38321 4.60203 1.13129 0.5
704 5.46735 3.74847 2.83901 0.5
705 9.42603 2.56546 6.52048 0.5
706 5.33895 8.1413 4.55399 0.5
707 11.5077 3.54739 8.37745 0.5
708 4.24673 10.5166 13.3718 0.5
709 1.90293 9.62364 11.444 0.5
710 9.04928 13.3364 10.6559 0.5
711 8.71327 1.06065 1.61864 0.5
712 10.5257 9.09607 7.19869 0.5
713 12.2043 5.35812 12.0003 0.5
714 9.68477 0.76488 0.722644 0.5
715 4.17753 2.5333 11.0402 0.5
716 4.89226 3.82186 0.409195 0.5
717 4.00957 10.6683 4.39251 0.5
718 7.17836 5.65572 10.5608 0.5
719 5.29026 9.18571 0.84817 0.5
720 5.49991 5.45243 0.32784 0.5
721 1.79282 11.9291 3.30356 0.5
722 10.1742 1.74469 6.4265 0.5
723 1.77254 10.4865 13.5054 0.5
724 1.0969 11.1707 3.3287 0.5
725 9.32855 6.7663 4.71722 0.5
726 12.6331 3.70526 13.4789 0.5
727 13.4087 9.95748 0.456748 0.5
728 6.10933 10.6652 10.4849 0.5
729 2.70398 7.0151 9.84067 0.5
730 12.8611 9.57716 7.80835 0.5
731 2.14162 12.2386 8.43653 0.5
732 4.1769 3.30091 2.40295 0.5
733 2.38184 2.28725 9.55705 0.5
734 12.638 3.52062 0.851501 0.5
735 4.78563 10.8076 5.81889 0.5
736 12.8729 10.6414 4.57871 0.5
737 0.954762 13.4276 8.12591 0.5
738 8.62782 11.1819 3.95184 0.5
739 13.387 5.87589 8.97457 0.5
740 9.91429 8.41691 11.1227 0.5
741 1.41758 0.309743 9.86524 0.5
742 4.85589 6.75103 8.40399 0.5
743 8.69916 2.53858 7.66635 0.5
744 10.781 3.28817 6.04729 0.5
745 2.32612 7.62436 5.48447 0.5
746 4.17014 2.32832 9.77066 0.5
747 0.1081 5.81606 1.06131 0.5
748 0.55455 2.4347 1.15965 0.5
749 8.46284 3.47034 2.74078 0.5
750 4.63949 9.5309 5.7318 0.5
751 5.91367 0.417944 12.4694 0.5
752 11.4149 3.46483 8.79033 0.5
753 2.78883 10.0996 3.80072 0.5
754 6.84189 11.1005 3.12991 0.5
755 11.5185 10.1163 10.0571 0.5
756 8.88132 13.0996 10.7883 0.5
757 5.18496 12.6497 7.15492 0.5
758 4.73975 9.4304 8.66476 0.5
759 6.71592 6.37486 0.908155 0.5
760 2.87606 7.14563 3.4957 0.5
761 9.99232 6.23227 7.93674 0.5
762 0.734928 11.3586 13.2033 0.5
763 6.70433 2.99291 12.8802 0.5
764 13.4544 8.39217 12.1467 0.5
765 12.1403 12.121 4.08238 0.5
766 10.281 6.6946 9.2838 0.5
767 4.75231 3.70177 11.3949 0.5
768 1.23706 0.561272 3.96555 0.5
769 8.15989 9.0445 3.57303 0.5
770 2.7872 6.81982 6.50898 0.5
771 2.36439 6.08652 11.3408 0.5
772 3.885 10.3355 10.2075 0.5
773 2.54564 10.2481 13.3674 0.5
774 10.4465 6.51292 1.68602 0.5
775 0.103617 10.6035 11.674 0.5
776 6.43447 6.11099 6.75593 0.5
777 8.10098 7.66284 6.37055 0.5
778 0.26752 0.450443 8.59747 0.5
779 3.13928 4.72274 12.6068 0.5
780 2.30924 7.58638 0.578031 0.5
781 4.07608 2.48834 13.2885 0.5
782 2.71335 3.50614 8.77886 0.5
783 7.54039 11.6612 2.04529 0.5
784 3.36844 0.210757 10.7462 0.5
785 13.2966 2.49471 9.45621 0.5
786 12.2139 1.34752 3.21273 0.5
787 2.76712 6.32862 8.35688 0.5
788 13.5553 3.28806 5.57562 0.5
789 9.42461 1.76672 0.740058 0.5
790 13.0698 2.13646 6.97964 0.5
791 0.216984 5.55603 11.5166 0.5
792 4.52551 6.72717 1.20884 0.5
793 7.44545 0.163471 11.8344 0.5
794 11.7479 1.25638 11.8503 0.5
795 13.2161 4.19021 7.86296 0.5
796 2.60904 6.14144 11.0287 0.5
797 3.19771 10.2386 0.539983 0.5
798 9.003 3.99346 9.34622 0.5
799 4.50589 5.08211 8.03116 0.5
800 0.689863 12.4869 2.06837 0.5
801 7.18342 7.59959 13.1075 0.5
802 13.0033 6.84468 12.9401 0.5
803 3.01693 10.8686 8.26426 0.5
804 6.99356 10.7955 1.43977 0.5
805 0.155753 5.35799 10.8801 0.5
806 10.2483 8.72392 0.0553043 0.5
807 1.11009 8.15127 9.66222 0.5
808 9.6606 5.14842 0.74474 0.5
809 1.21457 12.5881 7.75683 0.5
810 4.64766 2.74877 8.00873 0.5
811 6.21374 3.84129 0.76314 0.5
812 5.17655 10.4665 1.27949 0.5
813 2.55316 1.20906 5.88699 0.5
814 4.16559 4.97293 12.8829 0.5
815 0.977545 4.40668 9.69297 0.5
816 9.25248 3.71109 11.164 0.5
817 3.78126 5.26986 10.0819 0.5
818 0.113918 0.977604 0.092756 0.5
819 4.98403 12.1737 2.91023 0.5
820 12.9373 9.06152 12.4462 0.5
821 8.00297 0.88621 12.2835 0.5
822 5.90099 2.5487 10.8218 0.5
823 11.7743 11.8088 6.41169 0.5
824 9.17492 11.1351 2.71865 0.5
825 2.33942 13.3062 3.04613 0.5
826 13.0463 4.52202 12.6479 0.5
827 9.09927 11.1399 12.2483 0.5
828 2.7247 10.9159 2.99709 0.5
829 3.65205 7.14936 8.06284 0.5
830 4.81403 4.65805 7.56226 0.5
831 10.3631 2.90841 10.4505 0.5
832 1.80892 9.47218 7.56545 0.5
833 1.01306 1.2291 5.51753 0.5
834 3.55312 0.867005 9.64435 0.5
835 3.05534 1.77187 7.83897 0.5
836 1.13955 7.47131 9.83878 0.5
837 3.49658 10.3906 12.9576 0.5
838 11.1976 4.05703 11.6663 0.5
839 2.28301 2.67951 4.27305 0.5
840 2.23716 6.15195 11.8979 0.5
841 6.29376 8.99502 1.83387 0.5
842 2.86424 0.0946866 9.11301 0.5
843 13.2443 0.607727 4.48464 0.5
844 2.9961 6.2311 9.39361 0.5
845 3.2701 4.9618 12.4147 0.5
846 0.981623 8.08252 13.2415 0.5
847 7.14799 7.13436 6.46199 0.5
848 3.08967 10.0823 0.181364 0.5
849 2.69125 2.66575 6.31806 0.5
850 1.42915 6.88212 12.9914 0.5
851 13.5439 5.83528 8.00953 0.5
852 11.2478 2.98896 11.471 0.5
853 10.6745 10.0303 1.10905 0.5
854 3.17256 3.30603 4.43777 0.5
855 6.07694 2.78745 9.0829 0.5
856 3.17182 3.89569 8.71612 0.5
857 11.3812 4.98145 2.51163 0.5
858 1.25453 2.52429 8.05509 0.5
859 0.789113 5.31458 2.34719 0.5
860 9.0064 6.15457 12.1395 0.5
861 5.92357 2.03388 9.15771 0.5
862 1.77718 7.33892 6.62474 0.5
863 13.0402 6.20194 6.80831 0.5
864 2.07795 3.98516 6.17303 0.5
865 5.32457 10.047 9.92905 0.5
866 6.8213 3.68339 12.5148 0.5
867 10.2581 10.2183 3.10353 0.5
868 11.6515 8.80977 11.0101 0.5
869 8.85637 1.05511 11.4656 0.5
870 7.56279 6.97746 0.724997 0.5
871 10.2166 10.798 1.95805 0.5
872 0.566079 0.342198 10.1603 0.5
873 12.1796 1.40884 3.93874 0.5
874 11.376 12.0213 6.62796 0.5
875 6.07862 0.606967 9.09611 0.5
876 11.054 10.8526 8.08858 0.5
877 1.43947 3.99707 4.83022 0.5
878 0.339435 9.13321 11.9208 0.5
879 10.1947 3.30486 3.99332 0.5
880 13.1336 12.3307 1.99576 0.5
881 5.43256 13.3784 8.51858 0.5
882 1.35867 8.64758 13.2038 0.5
883 7.19482 7.31211 6.47206 0.5
884 2.96011 11.9966 5.57337 0.5
885 13.3329 13.3278 3.99915 0.5
886 4.53337 11.454 9.16035 0.5
887 0.804296 5.91178 12.7891 0.5
888 0.0435045 9.18458 4.64439 0.5
889 2.99052 5.73426 10.1837 0.5
890 6.73718 2.37674 13.0973 0.5
891 12.4561 7.2098 12.7993 0.5
892 2.28865 1.28646 10.9046 0.5
893 12.4083 8.79217 8.52336 0.5
894 0.844744 2.09202 8.07847 0.5
895 2.21597 7.50038 7.44938 0.5
896 13.0538 5.87718 3.13686 0.5
897 6.58626 5.56822 3.36161 0.5
898 0.487124 13.4597 6.63616 0.5
899 11.3175 5.48454 6.00993 0.5
900 0.805537 9.588 6.97134 0.5
901 0.125337 1.53942 6.83776 0.5
902 6.17467 10.1467 4.91625 0.5
903 11.3348 2.66738 11.5321 0.5
904 9.60668 10.7336 7.74498 0.5
905 0.126475 11.3704 6.99004 0.5
906 7.7266 3.61905 6.03963 0.5
907 12.911 13.4482 3.90905 0.5
908 11.7536 3.25751 1.58236 0.5
909 11.7359 8.34547 11.7954 0.5
910 12.9719 13.179 3.88141 0.5
911 4.90838 9.64003 11.6546 0.5
912 5.07442 9.50502 1.21528 0.5
913 9.33315 12.3575 3.92799 0.5
914 10.7975 0.602415 11.9629 0.5
915 9.05099 7.05368 0.568261 0.5
916 4.86204 13.4759 6.13264 0.5
917 6.39879 6.01551 9.03287 0.5
918 3.09195 12.1513 5.8763 0.5
919 11.1251 1.0028 3.28054 0.5
920 5.25572 9.39984 12.4421 0.5
921 8.54402 6.78064 7.7103 0.5
922 1.89379 7.33632 6.18646 0.5
923 6.54415 3.4268 9.71363 0.5
924 7.64343 7.8355 6.90917 0.5
925 11.7805 0.700098 7.74781 0.5
926 10.2786 9.57473 9.00042 0.5
927 11.4479 6.12391 9.97448 0.5
928 10.7586 8.05341 4.12385 0.5
929 5.24678 9.26247 10.7898 0.5
930 0.765951 9.50605 13.2909 0.5
931 8.37031 11.6974 5.97359 0.5
932 9.4585 10.1429 8.41591 0.5
933 11.7956 5.49001 10.6101 0.5