ITEM: TIMESTEP
390000
ITEM: NUMBER OF ATOMS
1000
ITEM: BOX BOUNDS xy xz yz pp pp pp
0.0000000000000000e+00 1.3572088000000001e+01 0.0000000000000000e+00
0.0000000000000000e+00 1.3572088000000001e+01 0.0000000000000000e+00
0.0000000000000000e+00 1.3572088000000001e+01 0.0000000000000000e+00
ITEM: ATOMS id x y z radius
1 8.39657 11.8353 2.10885 0.5
2 4.48803 5.80234 3.3535 0.5
3 5.70824 3.41469 6.05055 0.5
4 10.6258 10.1707 7.27969 0.5
5 8.25244 6.94602 7.28091 0.5
6 11.4849 12.3179 8.71169 0.5
7 1.95148 9.45994 3.09483 0.5
8 4.39734 0.212223 7.8681 0.5
9 7.4147 3.16563 7.09342 0.5
10 2.78821 7.11194 1.31815 0.5
11 0.0161895 5.20844 11.5727 0.5
12 12.4902 10.8235 6.89449 0.5
13 6.01295 5.36275 8.96285 0.5
14 7.52735 13.4614 10.3744 0.5
15 13.4658 2.38289 8.73153 0.5
16 3.09939 8.43151 8.41413 0.5
17 10.2621 5.69419 1.20231 0.5
18 3.31073 0.341749 1.7835 0.5
19 0.531525 7.11977 12.774 0.5
20 10.555 1.20032 8.3559 0.5
21 2.84853 9.78541 6.10525 0.5
22 1.86033 13.2326 1.82757 0.5
23 11.4434 7.60045 11.5307 0.5
24 12.6776 12.1938 13.0702 0.5
25 10.2023 4.7922 10.8147 0.5
26 5.54783 11.714 9.71242 0.5
27 8.51809 13.0704 2.68804 0.5
28 10.6839 10.956 9.44201 0.5
29 8.97073 7.1057 11.3612 0.5
30 2.61666 6.47045 1.67842 0.5
31 8.86835 9.25053 12.4638 0.5
32 3.53048 12.6594 10.5596 0.5
33 0.675398 11.0539 7.70811 0.5
34 0.0152412 3.66106 6.84916 0.5
35 5.8131 9.22146 11.8055 0.5
36 7.61236 9.07809 8.01582 0.5
37 1.43642 11.0237 6.14094 0.5
38 0.71765 0.306073 9.09444 0.5
39 6.72541 8.5904 0.280598 0.5
40 0.986283 13.2186 11.119 0.5
41 11.8055 10.5686 4.27152 0.5
42 13.1727 10.6287 1.1174 0.5
43 9.44936 8.86673 13.4605 0.5
44 9.23654 11.3579 4.7541 0.5
45 11.0778 9.18633 10.5775 0.5
46 12.3705 9.47769 2.35729 0.5
47 12.2411 4.25864 7.95247 0.5
48 2.14985 11.547 5.18716 0.5
49 8.00906 9.83105 13.2088 0.5
50 1.24959 4.64245 9.62678 0.5
51 4.27683 10.2153 6.88976 0.5
52 7.26333 7.58134 9.54671 0.5
53 11.4379 1.92714 9.43565 0.5
54 10.565 8.1263 11.4142 0.5
55 7.87851 9.71553 10.7787 0.5
56 8.8858 2.94583 10.5821 0.5
57 1.71679 8.61904 7.98173 0.5
58 3.06964 10.4803 1.19137 0.5
59 9.58598 5.05224 11.8188 0.5
60 7.53887 9.95373 1.08729 0.5
61 13.1209 1.01095 3.04703 0.5
62 1.95069 8.71356 4.59048 0.5
63 3.9648 6.19297 8.82512 0.5
64 9.59265 12.2472 9.24289 0.5
65 13.4525 9.06395 2.68765 0.5
66 4.87068 6.38607 4.29839 0.5
67 1.84023 5.98522 8.03112 0.5
68 0.834659 6.65749 7.48962 0.5
69 1.66863 3.23892 12.262 0.5
70 1.44571 11.6749 1.90665 0.5
71 6.27686 8.23738 5.46283 0.5
72 9.59478 11.2981 10.7531 0.5
73 0.505149 6.86705 8.5438 0.5
74 5.59345 3.16068 9.12642 0.5
75 13.2274 0.252288 1.45962 0.5
76 3.63568 11.8277 7.06902 0.5
77 13.3339 4.1111 3.68167 0.5
78 0.257017 11.5093 8.58788 0.5
79 12.8422 0.472761 2.93633 0.5
80 9.55627 9.63519 6.32584 0.5
81 1.32764 0.363861 13.2107 0.5
82 6.67693 8.31131 2.71696 0.5
83 7.49575 10.9853 10.9996 0.5
84 1.16004 8.93002 7.33178 0.5
85 2.98903 12.8131 8.79535 0.5
86 4.21435 9.68504 3.55939 0.5
87 11.6766 0.689013 6.19193 0.5
88 6.37264 6.45559 7.07902 0.5
89 5.1385 11.2629 9.53294 0.5
90 13.4683 13.263 1.20847 0.5
91 11.464 6.67734 8.63296 0.5
92 12.8206 10.1584 4.0339 0.5
93 11.4419 13.4545 13.1822 0.5
94 11.8236 3.93692 3.14387 0.5
95 5.34226 12.7591 6.11687 0.5
96 10.9863 7.04458 12.4606 0.5
97 5.38331 4.61523 2.62879 0.5
98 0.908684 11.4497 10.282 0.5
99 11.414 12.8003 1.98802 0.5
100 9.05794 6.39349 4.3984 0.5
101 6.18231 4.81782 11.804 0.5
102 3.40663 9.10905 8.31228 0.5
103 11.0661 5.37818 3.64202 0.5
104 1.89175 11.5871 13.2451 0.5
105 7.09348 10.8228 10.3265 0.5
106 1.45888 2.8392 12.7226 0.5
107 11.7811 13.3912 0.645526 0.5
108 8.04641 0.402755 3.29181 0.5
109 5.5305 5.37225 12.5349 0.5
110 11.5257 7.34563 12.0698 0.5
111 7.72663 8.55033 12.7245 0.5
112 7.00506 7.12599 10.2437 0.5
113 2.13687 8.72174 4.32678 0.5
114 9.2046 1.31055 5.07778 0.5
115 4.50004 7.18194 1.00716 0.5
116 5.56817 10.7124 8.48665 0.5
117 6.93399 12.2919 4.34051 0.5
118 7.88359 8.01668 7.3331 0.5
119 9.16452 9.78253 7.96819 0.5
120 9.78198 10.7716 8.46958 0.5
121 7.41982 11.108 7.85174 0.5
122 13.5073 12.505 0.59331 0.5
123 9.42243 4.89949 1.57522 0.5
124 4.62129 0.231802 9.19674 0.5
125 2.5666 5.40257 0.560222 0.5
126 5.20139 4.62604 11.3686 0.5
127 13.2425 3.93109 10.2917 0.5
128 0.507606 10.4958 4.00853 0.5
129 0.395058 6.33816 4.11419 0.5
130 11.712 5.78206 9.97347 0.5
131 10.4168 13.1975 12.6894 0.5
132 5.90913 3.02153 8.52414 0.5
133 11.1089 1.49873 3.33094 0.5
134 6.2607 1.05325 6.29344 0.5
135 8.79447 4.44869 5.44138 0.5
136 7.25317 10.7229 10.404 0.5
137 2.80799 11.7941 3.45791 0.5
138 8.39592 3.55566 2.52032 0.5
139 12.6411 1.62707 2.92474 0.5
140 6.75112 12.3893 12.1752 0.5
141 7.19831 1.81474 11.0402 0.5
142 5.76625 12.8764 10.3889 0.5
143 1.22804 0.335942 1.76252 0.5
144 2.08584 11.5851 4.63304 0.5
145 4.77291 12.9226 5.20863 0.5
146 12.9099 3.17565 11.8402 0.5
147 7.10351 3.50557 8.40927 0.5
148 9.34598 6.91658 12.3649 0.5
149 12.764 11.2313 8.33765 0.5
150 8.68612 12.6612 8.775 0.5
151 4.44784 0.964279 8.81331 0.5
152 1.44465 0.869358 9.30758 0.5
153 3.11023 0.449057 6.65508 0.5
154 3.71732 13.4692 10.7506 0.5
155 3.81619 13.4993 12.8192 0.5
156 5.86153 8.18409 9.41972 0.5
157 2.79445 13.0541 0.0851942 0.5
158 13.1638 4.3794 6.36295 0.5
159 5.26436 3.85516 11.0362 0.5
160 0.695372 5.67013 2.74652 0.5
161 0.896059 10.2056 8.32 0.5
162 10.3333 5.80784 4.70632 0.5
163 0.347013 3.18163 2.55226 0.5
164 7.88733 0.52597 7.75112 0.5
165 8.95678 5.13693 1.24163 0.5
166 4.09741 2.11407 10.7179 0.5
167 7.05144 0.608568 6.81127 0.5
168 3.22942 9.60177 3.587 0.5
169 3.29382 4.25324 6.77627 0.5
170 2.86453 4.8032 7.13886 0.5
171 7.87505 1.25752 0.761633 0.5
172 3.96829 8.70346 1.04805 0.5
173 9.37973 0.206005 9.54739 0.5
174 1.87497 3.15284 6.69689 0.5
175 2.31331 2.76507 6.94926 0.5
176 10.5941 9.19018 2.70032 0.5
177 3.34185 4.49915 1.55443 0.5
178 6.82167 0.832441 2.33327 0.5
179 9.59525 10.0932 10.4402 0.5
180 13.0128 0.144536 4.82917 0.5
181 4.2816 12.6198 6.01135 0.5
182 13.5065 7.07715 1.25112 0.5
183 13.0919 11.7564 8.78091 0.5
184 3.60858 8.37974 1.48732 0.5
185 7.38763 1.92962 10.6911 0.5
186 2.49553 10.6854 12.5811 0.5
187 6.0238 3.02818 10.3923 0.5
188 7.39085 7.70319 6.20043 0.5
189 11.9368 4.31017 1.00712 0.5
190 11.0485 5.58938 1.37893 0.5
191 9.90886 11.2573 3.37906 0.5
192 13.2854 3.01908 8.16924 0.5
193 12.6617 0.633635 6.33951 0.5
194 5.49807 0.0367385 8.84814 0.5
195 10.45 2.98259 0.438272 0.5
196 10.4851 7.47363 3.68601 0.5
197 2.31109 7.35786 3.98768 0.5
198 12.3023 1.25272 4.35499 0.5
199 9.35575 4.91199 4.74596 0.5
200 11.9848 12.2187 4.2662 0.5
201 10.5588 11.0728 7.02519 0.5
202 3.56168 3.57096 4.87853 0.5
203 10.3775 8.72929 12.1664 0.5
204 8.56323 10.3698 10.7365 0.5
205 2.47174 10.3069 11.1412 0.5
206 12.3595 1.64358 8.46913 0.5
207 9.28779 2.19837 8.40726 0.5
208 13.2636 7.0676 5.53966 0.5
209 3.68775 9.21815 3.54876 0.5
210 10.371 2.46364 10.564 0.5
211 12.2088 0.900654 0.256394 0.5
212 9.52145 9.22066 1.02108 0.5
213 8.64825 9.26009 2.87248 0.5
214 2.31297 9.36764 12.0908 0.5
215 6.16854 8.68527 11.3482 0.5
216 9.01691 8.9609 2.47879 0.5
217 12.8655 5.9809 5.28781 0.5
218 10.3937 8.68003 0.943494 0.5
219 2.47456 12.0115 1.4985 0.5
220 10.0226 10.9034 13.3906 0.5
221 0.946136 13.2639 0.480947 0.5
222 7.74144 0.234375 0.52766 0.5
223 0.931893 5.62876 12.4795 0.5
224 1.67142 1.22097 2.48624 0.5
225 4.4541 8.2459 10.3206 0.5
226 3.49208 10.0693 7.59715 0.5
227 1.43429 5.56269 0.216159 0.5
228 12.8716 12.1383 0.590541 0.5
229 5.47698 9.33583 11.2557 0.5
230 1.17321 7.74084 6.98622 0.5
231 0.752391 2.1441 7.33839 0.5
232 6.72371 4.72394 4.76562 0.5
233 8.0965 3.88723 4.03174 0.5
234 6.27356 4.44041 5.25449 0.5
235 7.75936 12.6538 -0.0295027 0.5
236 5.34173 0.248579 2.78479 0.5
237 5.03299 7.41095 8.48091 0.5
238 7.88837 0.567463 7.06854 0.5
239 5.23144 11.8 7.40423 0.5
240 4.65807 1.97871 12.9943 0.5
241 1.56921 2.48761 1.6976 0.5
242 8.00707 9.02482 9.12194 0.5
243 12.439 0.29712 11.1325 0.5
244 10.5158 6.10475 13.5455 0.5
245 9.82426 12.0432 10.7949 0.5
246 12.2395 8.28753 0.614517 0.5
247 2.95625 0.00601625 10.5692 0.5
248 11.8303 12.7365 10.177 0.5
249 5.89659 0.911514 8.00455 0.5
250 3.28384 2.08091 9.87086 0.5
251 2.89467 7.51079 11.8465 0.5
252 9.53987 0.0961452 3.18547 0.5
253 9.61541 2.57148 8.07393 0.5
254 9.03824 12.2237 4.19892 0.5
255 11.5064 7.71703 4.19995 0.5
256 10.7098 13.1374 7.5409 0.5
257 6.91583 9.64087 11.8639 0.5
258 13.4938 8.95639 3.73262 0.5
259 11.1047 1.11971 4.56345 0.5
260 5.1418 1.00195 6.91854 0.5
261 3.4349 1.33154 1.84592 0.5
262 6.14131 9.94819 5.88553 0.5
263 4.76707 4.13379 9.66387 0.5
264 6.46573 9.76524 4.04675 0.5
265 2.77491 1.73176 12.6592 0.5
266 0.474215 12.5797 9.04717 0.5
267 10.189 6.74665 12.9136 0.5
268 2.56271 10.0347 1.28735 0.5
269 12.2365 8.95709 1.56609 0.5
270 11.7966 2.52364 11.2928 0.5
271 6.60698 0.494715 12.9103 0.5
272 1.18874 5.6497 7.24743 0.5
273 3.62293 10.0228 9.79509 0.5
274 3.73864 0.0270195 0.625021 0.5
275 9.09723 9.47444 9.27805 0.5
276 8.23356 13.431 6.73927 0.5
277 3.02211 7.86893 1.1335 0.5
278 12.9841 10.3472 7.46398 0.5
279 12.6827 10.4017 8.09642 0.5
280 3.87083 1.1962 0.597075 0.5
281 2.81924 4.12886 6.10705 0.5
282 10.294 10.7835 8.87714 0.5
283 1.06691 4.9005 6.96174 0.5
284 10.6383 7.10452 4.93886 0.5
285 9.56281 0.181958 4.21271 0.5
286 13.4216 8.66778 11.5954 0.5
287 9.4032 6.71434 1.72746 0.5
288 11.2743 12.081 7.43857 0.5
289 1.09447 7.09595 5.33663 0.5
290 4.4526 13.1724 12.5404 0.5
291 9.42735 0.123703 3.19092 0.5
292 5.78432 8.28778 1.27755 0.5
293 1.51272 5.68743 1.25575 0.5
294 2.49305 13.287 9.02651 0.5
295 10.0782 3.23404 3.49535 0.5
296 0.0144218 0.252548 2.73767 0.5
297 4.23673 10.9331 7.95589 0.5
298 0.763129 9.65121 3.03758 0.5
299 5.63011 0.731845 10.4412 0.5
300 3.30177 4.91616 3.53773 0.5
301 10.5272 8.51358 3.42229 0.5
302 3.35784 11.5743 0.930391 0.5
303 10.5853 7.12947 3.68651 0.5
304 4.64731 13.2284 7.89897 0.5
305 8.06794 12.6493 2.92761 0.5
306 2.7906 10.5723 0.916352 0.5
307 5.45782 6.10704 2.36807 0.5
308 12.9773 13.3995 12.1845 0.5
309 8.59583 9.96233 12.0646 0.5
310 11.2185 8.83148 1.34502 0.5
311 12.8997 7.40227 5.7305 0.5
312 9.2268 5.67935 7.1964 0.5
313 9.68147 7.70391 2.708 0.5
314 3.11912 7.51516 1.72989 0.5
315 5.09533 11.4936 0.125329 0.5
316 12.8157 1.88363 13.3344 0.5
317 4.60983 3.69933 2.73606 0.5
318 3.94105 0.827262 11.6572 0.5
319 12.5429 4.12906 0.683416 0.5
320 5.88971 0.886725 11.5228 0.5
321 7.54972 4.95101 2.51965 0.5
322 8.09716 8.3465 11.8369 0.5
323 4.9007 4.8467 11.4523 0.5
324 3.20503 1.65093 10.4004 0.5
325 11.4523 5.26409 10.5554 0.5
326 0.222631 9.08387 9.01254 0.5
327 5.82274 1.05996 7.63898 0.5
328 2.35743 3.15181 10.4338 0.5
329 0.568628 12.0528 0.897788 0.5
330 11.5437 5.80268 5.81679 0.5
331 10.9589 2.3795 10.5563 0.5
332 11.9708 2.38046 9.60874 0.5
333 3.17078 10.0522 9.12204 0.5
334 6.51313 1.10651 2.19121 0.5
335 0.516908 10.4137 1.33726 0.5
336 7.46958 6.68451 11.7082 0.5
337 7.1317 9.18384 5.97375 0.5
338 10.3043 11.6033 12.7633 0.5
339 12.1049 5.78413 11.0814 0.5
340 0.474348 10.8917 11.0781 0.5
341 1.06255 6.82953 2.15501 0.5
342 6.03335 8.37464 6.86179 0.5
343 2.56624 6.6606 6.78578 0.5
344 12.3231 8.1529 8.3072 0.5
345 9.79905 4.96354 10.3372 0.5
346 1.19202 2.48405 8.35472 0.5
347 0.905109 5.35105 10.4294 0.5
348 2.43751 1.62905 12.6583 0.5
349 3.81181 8.61022 3.57395 0.5
350 7.24452 6.34568 0.384245 0.5
351 5.45953 13.172 7.73538 0.5
352 11.5058 2.65288 8.19552 0.5
353 8.08924 9.60523 1.69302 0.5
354 2.04559 12.5035 4.33593 0.5
355 11.8681 0.748319 11.4876 0.5
356 7.78131 11.4243 6.10717 0.5
357 12.2276 9.21519 0.0883084 0.5
358 5.42989 6.52929 4.16901 0.5
359 11.5944 6.66639 0.908781 0.5
360 8.87871 1.40477 13.2596 0.5
361 3.29047 5.90783 7.33303 0.5
362 5.68164 8.68097 8.57986 0.5
363 4.0605 9.99275 0.0866826 0.5
364 1.27732 8.56032 7.47344 0.5
365 9.03587 7.00663 1.50353 0.5
366 13.2178 2.47865 11.6989 0.5
367 11.1175 9.67003 5.80988 0.5
368 1.46299 4.69428 8.59504 0.5
369 6.75868 10.2563 4.36898 0.5
370 3.47235 13.5421 0.77476 0.5
371 8.13203 10.832 3.68549 0.5
372 9.78545 12.5054 13.1661 0.5
373 11.7991 7.2984 0.733978 0.5
374 13.1311 11.9457 4.94677 0.5
375 8.82698 2.28413 1.49718 0.5
376 6.09931 3.27609 5.77401 0.5
377 3.4813 8.82905 7.4139 0.5
378 10.2417 4.81725 0.571088 0.5
379 12.1689 12.1136 0.683304 0.5
380 9.50285 7.59066 6.9647 0.5
381 12.9683 9.48346 4.85542 0.5
382 3.98638 11.4659 7.23555 0.5
383 6.85432 7.63813 9.03017 0.5
384 8.74745 5.37756 9.22027 0.5
385 4.27991 10.7637 7.0376 0.5
386 3.44847 12.3486 4.58254 0.5
387 5.84361 10.5563 10.9006 0.5
388 8.51098 7.39642 7.74064 0.5
389 7.80582 6.1804 0.546238 0.5
390 12.0554 5.61521 5.81344 0.5
391 1.64944 12.9143 1.26883 0.5
392 8.16078 9.48289 11.5673 0.5
393 8.64172 6.52115 9.54186 0.5
394 9.49363 0.0620725 1.72842 0.5
395 13.2314 12.3575 1.02222 0.5
396 8.16185 0.797447 5.42527 0.5
397 6.27919 7.3628 3.31784 0.5
398 8.30257 12.1561 6.24902 0.5
399 3.3197 0.380802 5.52115 0.5
400 8.109 4.07374 1.47988 0.5
401 7.49497 5.67582 8.12923 0.5
402 10.9494 2.6016 4.87872 0.5
403 4.64893 8.46999 5.41064 0.5
404 12.4322 0.537939 12.1488 0.5
405 7.17496 8.94484 5.0653 0.5
406 1.30394 5.56763 10.4255 0.5
407 8.20353 10.3992 11.4112 0.5
408 1.99511 7.58056 12.0799 0.5
409 1.25573 12.3387 5.79251 0.5
410 9.20523 12.1512 13.1786 0.5
411 2.99917 8.25115 2.58043 0.5
412 8.37945 12.7366 5.27947 0.5
413 7.84103 4.09567 10.1474 0.5
414 4.87669 4.05207 11.9636 0.5
415 0.166921 4.36506 8.00096 0.5
416 7.36113 8.626 11.5528 0.5
417 10.887 2.89049 10.1613 0.5
418 4.99092 6.86028 3.44025 0.5
419 12.9696 6.20872 11.3331 0.5
420 10.4377 11.9827 6.32723 0.5
421 6.11023 7.40604 9.90387 0.5
422 1.05491 11.7018 1.74617 0.5
423 6.9316 9.93532 8.74162 0.5
424 9.38256 1.90699 10.1761 0.5
425 12.4909 11.5198 8.22432 0.5
426 10.939 5.46616 6.43554 0.5
427 12.5722 13.0776 3.85196 0.5
428 13.3602 3.65464 12.4807 0.5
429 6.13011 11.1092 2.57152 0.5
430 13.3632 3.15485 1.00266 0.5
431 10.4334 5.39638 5.96373 0.5
432 2.91124 6.48556 6.17874 0.5
433 10.0617 6.80082 8.3967 0.5
434 7.28576 9.20986 8.49995 0.5
435 9.12817 3.99806 13.1135 0.5
436 6.91772 0.28417 4.95188 0.5
437 1.32692 8.24332 9.63857 0.5
438 11.6916 3.09068 10.4647 0.5
439 5.79596 0.710529 1.49609 0.5
440 3.2847 11.5087 3.007 0.5
441 3.00775 3.13766 12.469 0.5
442 4.33078 0.102139 9.32484 0.5
443 13.3983 10.2264 7.99724 0.5
444 2.52508 4.65033 12.0046 0.5
445 5.32964 4.47768 2.06618 0.5
446 6.38204 9.18448 6.0296 0.5
447 3.80767 11.7625 7.18381 0.5
448 4.38231 0.444212 5.21745 0.5
449 9.29899 6.35931 0.937455 0.5
450 8.55461 6.52211 1.13035 0.5
451 7.82535 4.70682 8.76559 0.5
452 3.40045 5.69144 5.64708 0.5
453 11.1796 12.2032 5.58822 0.5
454 10.6656 6.92816 10.0044 0.5
455 12.9163 2.04672 9.74787 0.5
456 8.73398 9.84787 8.65955 0.5
457 8.02848 6.0918 13.3456 0.5
458 12.2226 4.27927 1.73211 0.5
459 2.18342 0.519173 12.4998 0.5
460 7.27425 3.81807 7.07279 0.5
461 6.61888 11.1985 0.923764 0.5
462 1.95038 5.15618 4.8679 0.5
463 1.44166 3.07764 9.80173 0.5
464 9.15083 9.25767 8.67898 0.5
465 12.3212 9.37284 6.2816 0.5
466 3.54759 2.94242 8.022 0.5
467 3.19188 10.4586 8.79598 0.5
468 7.079 11.4487 12.3006 0.5
469 5.64323 9.52255 5.26904 0.5
470 6.58707 13.1909 5.40813 0.5
471 12.6519 10.9125 2.70918 0.5
472 8.64965 1.64378 4.32649 0.5
473 4.0858 0.729976 10.9405 0.5
474 6.55712 5.74998 1.46321 0.5
475 0.388603 12.9059 13.0523 0.5
476 12.3855 9.09515 12.8452 0.5
477 12.4972 2.03206 10.1082 0.5
478 8.48707 13.516 5.37325 0.5
479 13.3735 3.083 6.44316 0.5
480 2.55096 12.8517 12.041 0.5
481 3.40606 0.683116 11.0111 0.5
482 6.95047 8.37934 10.977 0.5
483 4.191 7.87323 0.169479 0.5
484 1.69423 12.7048 4.33449 0.5
485 10.4456 12.5571 0.922398 0.5
486 3.20603 11.8493 1.89854 0.5
487 5.22188 12.8434 11.6747 0.5
488 10.9261 11.0409 10.6739 0.5
489 11.7506 1.82857 1.81127 0.5
490 11.0875 1.62469 8.01452 0.5
491 4.27379 12.8996 13.2 0.5
492 8.57935 6.82167 6.21683 0.5
493 5.54141 9.53654 4.27121 0.5
494 8.70997 2.99013 7.10305 0.5
495 13.3633 8.34321 11.3851 0.5
496 2.5946 12.3444 5.23852 0.5
497 6.08234 8.99661 6.57887 0.5
498 0.193151 10.2843 4.74586 0.5
499 5.67102 11.2466 8.12078 0.5
500 6.1967 4.91099 10.4509 0.5
501 3.57845 1.42539 9.84508 0.5
502 0.0476901 1.91306 0.629608 0.5
503 0.288187 10.4589 8.83093 0.5
504 3.70194 4.07792 1.12262 0.5
505 2.77234 10.8438 5.13946 0.5
506 10.0965 11.9702 11.7694 0.5
507 5.73409 2.08002 8.31124 0.5
508 10.4233 11.9336 1.19445 0.5
509 4.20072 2.81081 0.349449 0.5
510 13.1023 9.06394 2.39258 0.5
511 2.41765 4.48146 7.30495 0.5
512 3.83254 13.5304 0.430642 0.5
513 12.1159 12.4352 0.0714194 0.5
514 12.9848 4.10566 1.05847 0.5
515 10.255 5.27694 7.917 0.5
516 1.03931 2.00666 0.0452569 0.5
517 6.24443 3.56471 3.87673 0.5
518 10.0669 1.13926 12.8801 0.5
519 3.05275 5.46811 7.11413 0.5
520 5.19323 10.1791 8.57114 0.5
521 0.226088 12.6196 2.78226 0.5
522 6.94398 1.44894 2.01805 0.5
523 3.73423 1.58787 10.6369 0.5
524 9.15733 5.93213 8.1049 0.5
525 9.07156 10.4778 10.0708 0.5
526 3.58504 2.87923 9.76377 0.5
527 13.2368 4.1443 9.16832 0.5
528 3.10492 0.394202 9.04896 0.5
529 0.752764 4.62418 12.5013 0.5
530 7.00297 6.22118 4.60701 0.5
531 3.33638 4.33034 2.95063 0.5
532 9.90305 1.2908 10.8971 0.5
533 7.58744 9.33145 7.51831 0.5
534 7.77117 0.710178 7.37712 0.5
535 7.01487 13.4385 7.526 0.5
536 5.31143 6.66225 11.7762 0.5
537 3.40297 12.4716 13.2366 0.5
538 1.95162 1.87295 5.45086 0.5
539 2.3311 3.51786 9.72213 0.5
540 8.50491 8.93101 4.80391 0.5
541 13.5508 10.0498 12.4723 0.5
542 9.74941 5.17359 0.40507 0.5
543 6.88194 10.4046 8.54235 0.5
544 7.78779 0.259802 5.85419 0.5
545 12.9337 6.67582 9.36734 0.5
546 13.3693 13.2921 5.61723 0.5
547 8.55281 4.93165 12.3006 0.5
548 11.4603 8.2755 1.27607 0.5
549 5.37019 4.39142 7.93007 0.5
550 12.6734 5.16704 9.26376 0.5
551 11.4536 8.48388 11.8772 0.5
552 2.39352 5.29977 4.82137 0.5
553 3.33955 4.08321 8.68469 0.5
554 10.2411 5.79445 11.1285 0.5
555 5.07782 11.9021 8.67069 0.5
556 7.57024 3.61771 10.5389 0.5
557 3.18136 11.5581 3.74864 0.5
558 4.53264 12.973 1.92178 0.5
559 9.74658 13.0532 12.2933 0.5
560 10.5949 10.9188 2.88466 0.5
561 6.32193 1.03717 9.64711 0.5
562 8.91144 0.334383 12.8285 0.5
563 0.0575584 0.33972 0.336808 0.5
564 9.1429 4.53544 0.414517 0.5
565 5.34008 0.175054 8.2226 0.5
566 10.9768 5.30337 5.09717 0.5
567 8.47036 13.1805 8.98503 0.5
568 8.03024 3.20846 4.09478 0.5
569 9.93073 10.2494 3.18659 0.5
570 11.0611 7.53845 7.46734 0.5
571 8.29804 3.30823 1.69403 0.5
572 10.6619 10.285 2.78505 0.5
573 6.57117 1.36237 10.939 0.5
574 8.2333 2.25209 6.41457 0.5
575 5.39151 5.01522 9.06482 0.5
576 6.69896 7.58574 1.56778 0.5
577 5.66952 5.61606 2.76262 0.5
578 1.27636 11.1405 12.474 0.5
579 2.16196 7.4712 9.47197 0.5
580 3.88537 12.7115 2.92057 0.5
581 4.25939 11.4671 3.5528 0.5
582 9.84565 13.4695 3.24343 0.5
583 0.312662 0.397609 7.43396 0.5
584 1.08219 3.63336 7.40392 0.5
585 5.6655 9.32329 1.13453 0.5
586 12.9512 3.41217 4.14374 0.5
587 2.54531 8.75633 7.39037 0.5
588 6.60516 12.0717 12.3358 0.5
589 3.04585 7.94246 6.60031 0.5
590 11.8697 5.76527 0.431822 0.5
591 5.93127 10.2881 1.89581 0.5
592 8.20024 4.43312 0.273048 0.5
593 1.90403 6.91114 4.44431 0.5
594 1.90321 3.78674 10.7493 0.5
595 0.0376849 9.60611 12.8403 0.5
596 8.968 10.4901 8.47664 0.5
597 8.70109 3.92365 13.0578 0.5
598 13.3412 3.3335 2.62123 0.5
599 5.77714 10.7711 10.6681 0.5
600 6.41409 7.70759 7.631 0.5
601 6.32926 4.87598 13.3275 0.5
602 5.23414 9.03554 2.24979 0.5
603 2.6493 1.38466 6.98317 0.5
604 1.22098 2.50005 10.9692 0.5
605 3.92289 4.63335 5.38418 0.5
606 7.46943 3.672 7.83337 0.5
607 4.57792 12.6313 1.92877 0.5
608 7.96791 11.9618 2.96631 0.5
609 4.00853 8.89695 8.00915 0.5
610 12.7591 9.09795 5.68751 0.5
611 2.1526 9.01003 3.30035 0.5
612 13.2571 2.65395 4.19546 0.5
613 11.1335 3.22707 12.501 0.5
614 0.754051 1.70792 2.58047 0.5
615 2.49439 2.71197 1.52036 0.5
616 8.59892 0.63662 10.684 0.5
617 7.30644 3.08979 13.1299 0.5
618 5.98613 7.87624 10.6257 0.5
619 4.26021 9.23466 0.0409093 0.5
620 11.506 7.54793 12.8321 0.5
621 9.79688 9.78064 8.46418 0.5
622 4.06294 5.1934 4.23069 0.5
623 5.67194 9.75406 9.44503 0.5
624 9.82409 0.112973 5.58467 0.5
625 11.5359 9.1 1.34392 0.5
626 1.71377 4.82925 7.84071 0.5
627 2.13897 13.1309 7.02421 0.5
628 0.35019 2.04992 11.6675 0.5
629 6.19745 6.33287 12.4604 0.5
630 3.12621 7.87277 11.4546 0.5
631 4.77893 11.1983 11.7687 0.5
632 5.79721 8.26366 8.58432 0.5
633 0.673045 0.640366 5.25442 0.5
634 8.95966 4.06615 11.4197 0.5
635 10.1208 3.88123 4.48206 0.5
636 3.90018 0.594189 7.59896 0.5
637 13.4113 7.37206 0.532336 0.5
638 4.18964 6.47989 9.33721 0.5
639 1.85994 12.3026 9.35358 0.5
640 2.26985 4.94054 4.16483 0.5
641 13.5506 0.262196 4.9189 0.5
642 5.00262 3.62878 9.92815 0.5
643 3.78261 13.3696 7.60162 0.5
644 6.07247 1.28617 2.71431 0.5
645 11.8931 0.139565 4.11544 0.5
646 4.39676 12.9023 5.86468 0.5
647 12.6089 1.65915 2.26598 0.5
648 8.89472 11.4916 2.39288 0.5
649 2.29425 1.16451 10.6386 0.5
650 5.39139 1.96371 10.6849 0.5
651 2.27878 12.235 8.66526 0.5
652 6.92412 4.48421 4.38976 0.5
653 9.37482 1.24615 9.88038 0.5
654 10.5018 6.88007 2.19475 0.5
655 3.87931 8.44772 6.40025 0.5
656 9.96564 8.5752 2.4157 0.5
657 5.55942 8.24924 0.197616 0.5
658 1.16425 11.8708 4.87447 0.5
659 5.03566 8.30382 10.3463 0.5
660 10.9013 5.24696 9.9482 0.5
661 5.67597 10.9429 3.63281 0.5
662 9.18427 10.4612 3.4229 0.5
663 10.9691 6.17685 12.6689 0.5
664 11.6032 9.5981 8.51632 0.5
665 3.21997 13.5925 2.62935 0.5
666 8.24706 9.64884 7.50639 0.5
667 5.1894 4.62716 1.97841 0.5
668 9.43768 13.1534 1.96282 0.5
669 3.84443 5.15888 5.67261 0.5
670 9.2402 10.942 2.42593 0.5
671 10.8823 1.70744 6.35461 0.5
672 1.42014 1.82272 10.5313 0.5
673 10.5139 3.66097 0.106437 0.5
674 5.72371 13.4953 11.4741 0.5
675 6.69369 8.3751 8.09443 0.5
676 9.50197 6.97768 12.2128 0.5
677 11.4285 7.71126 6.86524 0.5
678 3.18001 4.40471 13.1234 0.5
679 3.24882 1.86525 13.5277 0.5
680 5.71775 7.2713 1.36289 0.5
681 10.1614 0.667101 6.69642 0.5
682 6.56617 7.66599 0.191042 0.5
683 1.64107 9.68117 8.34914 0.5
684 2.95385 12.3119 6.76381 0.5
685 2.2509 7.60621 12.3264 0.5
686 7.55334 11.3989 3.95911 0.5
687 4.26128 8.03692 2.70317 0.5
688 7.01377 4.02048 11.7448 0.5
689 6.48424 0.937477 10.3711 0.5
690 0.298781 9.20673 11.8066 0.5
691 4.1774 5.24815 5.86719 0.5
692 3.66323 10.4742 1.03497 0.5
693 4.92234 0.421483 5.27906 0.5
694 1.76065 10.3718 13.5563 0.5
695 6.33315 10.1001 12.1066 0.5
696 10.0388 11.4773 7.18951 0.5
697 9.7046 6.97068 6.79511 0.5
698 0.0952892 5.70743 12.9748 0.5
699 11.5151 11.4402 6.994 0.5
700 12.3529 1.79897 8.52708 0.5
701 4.88006 3.13435 3.93206 0.5
702 1.35393 7.80369 13.5434 0.5
703 8.21924 13.5315 6.35072 0.5
704 11.948 8.30538 6.08049 0.5
705 8.87664 1.2382 1.28151 0.5
706 10.9254 8.59941 2.03488 0.5
707 3.55116 0.886197 3.6016 0.5
708 13.4672 0.805533 3.64764 0.5
709 4.00088 11.6878 5.14999 0.5
710 12.3606 3.65465 3.61329 0.5
711 4.6932 12.8304 1.23003 0.5
712 11.3741 8.52868 10.5251 0.5
713 12.5539 8.90209 4.58709 0.5
714 3.33444 11.8549 4.39503 0.5
715 12.396 6.01781 10.5994 0.5
716 6.29553 6.11479 2.81058 0.5
717 5.18429 8.42641 6.43084 0.5
718 10.7373 6.78597 11.1904 0.5
719 10.7079 4.11671 9.46716 0.5
720 12.4595 1.68872 12.6959 0.5
721 11.5504 7.83505 3.69979 0.5
722 13.5373 2.34146 8.95887 0.5
723 4.33023 8.19388 4.55442 0.5
724 0.581792 3.78302 5.62676 0.5
725 7.95072 6.0468 10.9587 0.5
726 9.91514 10.5861 3.82212 0.5
727 6.49338 6.71007 3.15609 0.5
728 3.44396 6.70776 4.81865 0.5
729 1.73677 5.69624 6.92216 0.5
730 2.24235 12.5559 3.65413 0.5
731 5.89297 9.83534 0.350051 0.5
732 8.08246 9.59179 10.0105 0.5
733 5.29624 7.4618 1.7153 0.5
734 3.0479 3.63583 8.74351 0.5
735 11.2911 3.27428 9.75913 0.5
736 3.90338 8.26974 12.3881 0.5
737 10.9358 0.529993 12.5289 0.5
738 11.6877 2.08657 13.4867 0.5
739 0.0320695 2.88952 11.5663 0.5
740 11.2111 8.35133 5.51595 0.5
741 3.15051 12.1267 5.53131 0.5
742 1.48227 10.0172 4.88438 0.5
743 1.92841 12.291 10.2801 0.5
744 0.836608 2.5251 0.430249 0.5
745 13.5709 11.0818 2.17249 0.5
746 4.89194 5.99998 7.13071 0.5
747 4.74621 0.90215 12.7771 0.5
748 13.2336 5.33569 3.45818 0.5
749 1.11393 0.334525 6.06888 0.5
750 6.34622 1.41484 7.71385 0.5
751 7.12492 8.56768 0.983294 0.5
752 3.8191 4.31506 9.47118 0.5
753 6.89399 11.009 12.2203 0.5
754 5.55945 9.50159 13.1278 0.5
755 12.2891 8.30073 2.40556 0.5
756 9.41915 11.0642 4.1935 0.5
757 3.62726 1.91985 8.59439 0.5
758 11.1855 7.21475 3.95725 0.5
759 12.0142 9.93657 9.6673 0.5
760 3.70553 8.15274 12.2193 0.5
761 3.15382 3.45578 3.14949 0.5
762 11.0696 5.25297 8.45388 0.5
763 3.20408 8.57444 11.2093 0.5
764 1.67182 7.47258 4.44929 0.5
765 11.6836 9.60806 3.56916 0.5
766 10.0537 9.15376 7.69598 0.5
767 4.93807 6.07999 11.2824 0.5
768 12.28 10.6188 8.04346 0.5
769 0.0679087 0.993768 11.1518 0.5
770 1.59084 10.351 10.7747 0.5
771 5.86823 5.75195 8.14488 0.5
772 13.3943 3.03611 3.57954 0.5
773 1.91792 4.21552 2.44185 0.5
774 11.8309 3.06586 6.22058 0.5
775 11.0371 1.4808 2.56245 0.5
776 11.4185 10.7002 8.06672 0.5
777 5.06252 6.97314 10.1993 0.5
778 8.11809 0.0963125 13.3286 0.5
779 9.94771 5.18851 6.79371 0.5
780 2.10491 4.25756 10.6191 0.5
781 2.62936 10.4186 2.53037 0.5
782 7.20247 12.5199 7.39073 0.5
783 3.9845 9.50151 12.5075 0.5
784 4.19239 6.93393 13.1207 0.5
785 7.50067 9.98999 4.54891 0.5
786 2.74883 2.4307 2.61139 0.5
787 7.03938 0.0406328 9.5316 0.5
788 8.60971 5.67285 1.96899 0.5
789 2.93754 1.14277 2.46318 0.5
790 10.7349 5.0427 4.13965 0.5
791 8.18677 11.7092 3.15082 0.5
792 0.112382 0.823501 9.18416 0.5
793 11.3314 0.407156 1.38762 0.5
794 11.8526 1.51409 7.17733 0.5
795 11.1852 8.67376 11.6407 0.5
796 7.49503 9.125 6.24256 0.5
797 2.30635 3.79365 1.58588 0.5
798 13.1833 11.304 10.5477 0.5
799 2.19069 11.8399 8.00286 0.5
800 10.659 4.55314 5.03519 0.5
801 7.35352 7.7845 6.66662 0.5
802 0.496352 13.3583 1.92019 0.5
803 5.09768 13.3734 0.354793 0.5
804 3.67839 8.55112 1.4099 0.5
805 12.2867 1.26123 3.83315 0.5
806 11.39 11.0289 1.97909 0.5
807 11.2554 7.61696 11.9944 0.5
808 5.61524 8.12141 12.5375 0.5
809 0.954682 2.04232 8.79741 0.5
810 9.12005 13.4925 9.06838 0.5
811 4.81159 8.44869 10.1325 0.5
812 0.636006 9.14639 3.14642 0.5
813 7.62435 6.95656 10.0787 0.5
814 10.503 3.41794 0.37621 0.5
815 10.0967 8.26203 1.16739 0.5
816 11.8282 13.1947 10.4626 0.5
817 5.75081 11.954 6.3773 0.5
818 6.77022 13.0064 12.2218 0.5
819 0.357008 7.09942 10.3189 0.5
820 6.60994 11.0304 10.5442 0.5
821 11.619 13.357 9.21674 0.5
822 12.7301 4.92626 3.5876 0.5
823 7.20252 13.3021 6.52009 0.5
824 0.636979 3.6164 2.23289 0.5
825 1.2509 9.38564 1.03831 0.5
826 10.1319 5.24827 5.95413 0.5
827 2.22258 3.82009 4.60391 0.5
828 13.2593 3.03324 6.86995 0.5
829 1.65439 12.8948 2.38268 0.5
830 8.66311 9.81327 10.9481 0.5
831 3.97313 6.43971 0.805152 0.5
832 8.71034 0.33944 2.19548 0.5
833 11.9099 13.539 1.42778 0.5
834 7.86941 4.56803 12.3567 0.5
835 10.6285 13.0901 10.8006 0.5
836 7.22467 3.14514 5.42071 0.5
837 5.78117 4.44814 12.9252 0.5
838 0.921032 13.5109 12.8419 0.5
839 12.5474 13.0647 7.99533 0.5
840 3.24107 2.78514 1.38722 0.5
841 0.345152 7.771 12.5688 0.5
842 6.92194 3.43276 9.15593 0.5
843 0.896947 3.45969 8.30783 0.5
844 0.489777 8.08531 3.38826 0.5
845 2.16837 0.351423 12.2912 0.5
846 0.087749 13.2984 1.64013 0.5
847 1.02612 1.80435 5.58336 0.5
848 11.4061 5.94751 5.90046 0.5
849 1.75747 11.9039 13.4688 0.5
850 8.56868 2.57293 0.491497 0.5
851 2.0026 2.94907 5.86962 0.5
852 3.82845 7.39533 9.95092 0.5
853 5.58824 12.0172 9.87023 0.5
854 3.71236 8.35399 6.16107 0.5
855 9.88214 6.10771 9.85156 0.5
856 10.4176 8.11662 9.17985 0.5
857 8.91362 10.8497 3.91966 0.5
858 0.696211 10.5486 13.4778 0.5
859 12.055 12.5701 13.2703 0.5
860 7.25474 9.62858 12.2805 0.5
861 2.66197 1.32109 9.00961 0.5
862 1.39299 2.2898 4.11205 0.5
863 10.5723 3.06377 4.93133 0.5
864 10.5345 10.9223 0.595545 0.5
865 10.6823 8.98894 1.03141 0.5
866 5.71949 12.031 12.2155 0.5
867 6.70898 8.13864 11.9149 0.5
868 9.3314 7.74863 4.58067 0.5
869 1.28514 11.1906 1.59514 0.5
870 11.9013 8.62144 0.0643297 0.5
871 11.5441 7.49492 7.09354 0.5
872 1.88916 12.6235 6.12488 0.5
873 1.22345 3.93581 8.88515 0.5
874 9.94841 10.6075 1.58276 0.5
875 7.53291 6.31675 5.66029 0.5
876 12.031 8.00001 13.1696 0.5
877 7.53013 9.05098 9.12663 0.5
878 5.74878 6.83462 11.7251 0.5
879 11.4511 8.79554 11.1466 0.5
880 8.39704 11.1319 12.188 0.5
881 1.38263 2.8089 8.12883 0.5
882 12.6662 12.4057 12.7732 0.5
883 8.87285 5.22674 6.68817 0.5
884 12.0565 9.64959 0.375428 0.5
885 8.44183 5.93096 4.67381 0.5
886 10.0051 0.345802 2.56165 0.5
887 9.72769 6.5784 5.1778 0.5
888 11.5145 12.9097 8.49781 0.5
889 1.78455 13.2415 9.1648 0.5
890 8.32577 13.3807 12.5749 0.5
891 3.40324 10.2639 7.53612 0.5
892 5.70264 2.64498 7.78543 0.5
893 10.2504 9.61693 12.9039 0.5
894 3.09097 5.10566 8.45333 0.5
895 1.28968 0.483672 13.3948 0.5
896 11.4506 8.64467 9.48563 0.5
897 7.41826 9.22087 5.14451 0.5
898 13.0086 2.77326 10.1108 0.5
899 12.4149 3.3188 11.5696 0.5
900 9.27156 2.33655 9.28595 0.5
901 6.31409 6.4451 0.0964327 0.5
902 6.22856 10.2071 0.507487 0.5
903 6.78193 11.2002 13.4648 0.5
904 3.6874 2.4151 5.48293 0.5
905 5.21346 9.57572 8.75417 0.5
906 9.65909 6.58534 12.963 0.5
907 11.6187 0.89812 3.68061 0.5
908 11.4072 8.28842 4.73039 0.5
909 13.3008 8.18645 3.58274 0.5
910 3.93114 9.55357 7.62217 0.5
911 4.89755 2.51372 12.9936 0.5
912 8.69561 13.2747 3.84248 0.5
913 6.42607 7.32585 2.66238 0.5
914 2.11353 0.273932 2.91911 0.5
915 3.66177 0.0434043 0.579197 0.5
916 5.86871 8.49755 5.30502 0.5
917 9.69725 1.77156 10.7067 0.5
918 5.89212 7.56644 5.08457 0.5
919 4.26151 12.9417 7.95306 0.5
920 11.3139 0.447873 2.56774 0.5
921 4.7487 8.0953 4.59939 0.5
922 7.72202 5.73613 9.98056 0.5
923 6.22812 10.469 4.21305 0.5
924 13.4861 1.34037 0.741062 0.5
925 7.07885 7.37519 9.64619 0.5
926 3.50614 4.80602 1.9919 0.5
927 0.4887 0.263081 7.9607 0.5
928 10.3533 7.90462 9.94511 0.5
929 6.02989 2.85557 7.9185 0.5
930 5.18732 0.343058 6.27644 0.5
931 9.86182 8.80864 11.3516 0.5
932 5.28126 0.698778 10.2122 0.5