ITEM: TIMESTEP
890000
ITEM: NUMBER OF ATOMS
1000
ITEM: BOX BOUNDS xy xz yz pp pp pp
0.0000000000000000e+00 1.3572088000000001e+01 0.0000000000000000e+00
0.0000000000000000e+00 1.3572088000000001e+01 0.0000000000000000e+00
0.0000000000000000e+00 1.3572088000000001e+01 0.0000000000000000e+00
ITEM: ATOMS id x y z radius
1 6.2118 10.4406 6.28665 0.5
2 10.6346 2.8689 6.36822 0.5
3 13.5362 0.842576 8.84119 0.5
4 2.67106 8.89231 13.1749 0.5
5 6.83905 2.99635 0.328634 0.5
6 6.43132 12.0639 7.57929 0.5
7 6.2309 12.7783 12.9706 0.5
8 2.55466 6.23966 0.271253 0.5
9 10.2004 9.79642 12.1459 0.5
10 4.09123 8.43271 10.2001 0.5
11 10.359 3.53416 5.10485 0.5
12 13.0114 7.22514 10.2453 0.5
13 5.46077 0.850618 12.9379 0.5
14 10.6917 3.85453 10.6004 0.5
15 9.96338 12.846 2.44365 0.5
16 8.45175 8.9622 11.3315 0.5
17 12.2818 7.98322 8.16257 0.5
18 0.62838 10.9198 11.2968 0.5
19 1.49196 12.4047 3.44905 0.5
20 7.72303 2.52952 13.5396 0.5
21 7.63116 5.14088 10.1841 0.5
22 8.11037 2.88905 1.87753 0.5
23 7.23873 11.5589 13.3068 0.5
24 9.10968 12.9135 7.16845 0.5
25 1.37994 12.1298 3.70372 0.5
26 8.91662 10.3715 1.6824 0.5
27 3.37528 12.7913 7.18234 0.5
28 11.8121 9.28643 0.762932 0.5
29 7.76422 11.4915 0.0684125 0.5
30 7.37957 4.31686 6.62442 0.5
31 9.51132 2.60844 9.15039 0.5
32 3.70222 7.46044 3.51622 0.5
33 10.6528 12.0867 13.3416 0.5
34 11.4125 11.1451 12.1338 0.5
35 11.035 5.51785 6.25398 0.5
36 12.1314 2.6686 3.19343 0.5
37 0.231416 10.2426 4.34135 0.5
38 0.241739 4.43084 11.0117 0.5
39 7.3339 9.03457 7.26381 0.5
40 10.6813 12.5024 13.467 0.5
41 7.36982 10.8694 1.62135 0.5
42 6.51892 6.43757 8.57275 0.5
43 6.39227 6.87477 1.31912 0.5
44 13.448 8.25733 3.76338 0.5
45 10.9328 6.28003 3.62286 0.5
46 6.441 0.509385 11.5022 0.5
47 6.27128 6.01665 6.16267 0.5
48 2.16167 11.0962 1.38808 0.5
49 2.34998 0.279102 13.3928 0.5
50 9.68514 10.9937 2.8304 0.5
51 13.5828 6.23238 4.93392 0.5
52 1.22096 7.18557 8.67655 0.5
53 12.1039 0.96315 0.717021 0.5
54 9.90335 7.3131 9.12332 0.5
55 0.843347 7.38675 4.05385 0.5
56 13.5609 8.23283 4.45145 0.5
57 3.1311 1.09287 8.41868 0.5
58 5.0016 9.81387 12.2163 0.5
59 8.67076 7.08236 8.25071 0.5
60 11.823 3.30781 7.47124 0.5
61 5.91217 9.61762 9.79382 0.5
62 3.54417 6.43557 5.48627 0.5
63 4.00689 7.96111 9.3346 0.5
64 13.1086 0.285707 12.906 0.5
65 9.07821 1.19027 1.23163 0.5
66 4.92607 7.6429 6.56456 0.5
67 4.68524 5.99693 2.12116 0.5
68 2.99477 2.60846 10.2301 0.5
69 10.2123 4.65804 8.29613 0.5
70 12.384 7.32919 2.15251 0.5
71 5.30868 7.848 2.53368 0.5
72 5.6121 4.90439 1.28065 0.5
73 3.31638 8.54759 11.8148 0.5
74 12.6404 8.48053 3.86247 0.5
75 11.7421 1.93444 10.6446 0.5
76 0.973411 6.27146 11.978 0.5
77 13.3598 5.59025 9.65435 0.5
78 3.82414 3.28773 6.53383 0.5
79 5.30324 0.683592 7.74957 0.5
80 10.3655 2.8027 8.81127 0.5
81 8.4576 8.57119 8.96541 0.5
82 6.34775 0.981032 5.94237 0.5
83 8.20989 5.44376 10.2683 0.5
84 12.9366 9.79822 6.11044 0.5
85 9.11914 9.28987 11.2818 0.5
86 7.23385 1.10089 12.4256 0.5
87 12.5315 1.86831 1.96313 0.5
88 8.90337 5.61248 8.40274 0.5
89 5.3985 4.78227 2.9958 0.5
90 9.20954 2.67 0.146457 0.5
91 1.02133 0.0475261 10.8203 0.5
92 1.38486 5.6934 13.4269 0.5
93 4.86216 5.86451 13.3064 0.5
94 11.2445 0.0778129 1.90122 0.5
95 5.02326 3.78336 0.212383 0.5
96 0.535122 7.21124 0.979754 0.5
97 6.24554 5.83486 12.7168 0.5
98 5.71267 10.5618 12.7029 0.5
99 7.27257 9.14358 12.123 0.5
100 6.02023 10.3148 11.609 0.5
101 0.716039 12.3022 9.02909 0.5
102 6.89964 8.20028 2.55621 0.5
103 5.49298 6.00692 6.581 0.5
104 11.2947 4.59673 13.5503 0.5
105 3.39702 0.651653 6.69345 0.5
106 2.93904 0.78758 0.429014 0.5
107 12.2785 10.6016 6.14168 0.5
108 4.70748 6.95428 3.79795 0.5
109 11.4552 11.5752 9.17829 0.5
110 7.82939 12.2533 6.0445 0.5
111 10.8449 6.65698 10.2089 0.5
112 7.16969 1.51009 2.51704 0.5
113 0.692944 12.2412 9.80703 0.5
114 4.91172 0.0336133 10.7128 0.5
115 7.07993 10.9912 10.1484 0.5
116 12.4521 10.0144 11.2574 0.5
117 7.44573 5.01744 13.0207 0.5
118 2.35506 6.28719 4.9024 0.5
119 12.8769 12.7225 0.717612 0.5
120 6.93881 8.01175 6.48548 0.5
121 11.3335 12.2687 6.6181 0.5
122 11.8297 13.4249 4.63176 0.5
123 11.9042 6.59978 11.2323 0.5
124 2.21851 7.90877 6.8304 0.5
125 11.0408 7.45183 9.08167 0.5
126 4.24801 9.69351 7.34034 0.5
127 13.2715 12.7031 1.92511 0.5
128 4.7183 11.5412 2.69438 0.5
129 1.74362 6.49763 5.43781 0.5
130 5.62559 6.0525 11.1338 0.5
131 3.94327 11.9028 5.38117 0.5
132 9.89832 0.177671 6.68511 0.5
133 10.1972 7.38779 9.29034 0.5
134 10.7546 7.06555 3.36586 0.5
135 6.95833 3.42768 4.47595 0.5
136 9.33017 7.29291 6.4195 0.5
137 10.3811 7.00622 6.73552 0.5
138 2.54845 11.1864 8.11458 0.5
139 4.66745 9.94171 13.0653 0.5
140 4.12278 11.0332 5.52842 0.5
141 11.4688 3.15164 9.57316 0.5
142 9.63262 5.1183 9.3119 0.5
143 0.565706 2.51931 4.00033 0.5
144 7.7187 8.61324 2.05888 0.5
145 10.0816 4.74377 4.1819 0.5
146 2.74252 12.9388 8.26551 0.5
147 9.21168 11.5695 8.17066 0.5
148 8.78276 4.10167 12.0223 0.5
149 3.68849 12.004 9.06128 0.5
150 1.8363 8.71171 2.32873 0.5
151 12.7928 12.3224 8.45701 0.5
152 12.4291 1.32502 5.87685 0.5
153 12.8351 8.7087 8.09241 0.5
154 5.56781 10.2707 1.00611 0.5
155 9.60479 13.181 2.58336 0.5
156 10.8079 3.66664 4.90965 0.5
157 4.89766 10.4498 1.28992 0.5
158 9.07759 8.04369 4.55217 0.5
159 2.88807 11.4666 11.4413 0.5
160 4.50619 10.2675 9.56263 0.5
161 6.78989 11.3816 3.72902 0.5
162 6.26331 13.5399 11.6516 0.5
163 2.75329 7.7505 0.943312 0.5
164 11.6488 11.7532 6.37325 0.5
165 1.01859 11.1537 9.06999 0.5
166 4.93667 7.87596 2.09412 0.5
167 11.6041 13.0756 9.46765 0.5
168 2.08099 8.1728 6.24472 0.5
169 4.03663 12.3065 7.12007 0.5
170 5.72959 12.1553 9.62511 0.5
171 13.2166 1.04626 4.83226 0.5
172 4.33371 7.35147 5.64419 0.5
173 7.56583 3.86362 4.65665 0.5
174 9.99939 9.66714 11.6022 0.5
175 8.12758 6.40067 9.1978 0.5
176 4.7773 4.04456 12.1555 0.5
177 5.18302 0.806908 6.91732 0.5
178 2.01429 4.03187 7.10863 0.5
179 2.80756 4.96626 1.54345 0.5
180 9.339 1.26387 2.59898 0.5
181 8.63193 11.3717 0.206789 0.5
182 10.5748 2.9384 8.45933 0.5
183 7.0872 5.41979 13.369 0.5
184 4.45312 1.56481 7.76886 0.5
185 6.20913 2.45559 3.08352 0.5
186 7.51774 6.66605 11.8661 0.5
187 7.8089 4.93623 11.4251 0.5
188 7.8873 3.99029 9.01232 0.5
189 9.62257 4.97054 6.26123 0.5
190 3.98211 4.76803 1.17873 0.5
191 6.89333 5.93733 2.46026 0.5
192 11.6028 1.56948 3.07725 0.5
193 6.45856 1.85128 9.01261 0.5
194 6.32551 11.3425 11.5069 0.5
195 3.99528 6.40207 6.81204 0.5
196 3.81236 11.6736 8.63019 0.5
197 1.80467 13.1941 5.74086 0.5
198 6.51658 8.2192 0.378212 0.5
199 12.2704 6.58736 8.78904 0.5
200 6.57859 5.13412 0.490452 0.5
201 0.382325 0.485735 5.60772 0.5
202 2.48241 10.7579 10.8542 0.5
203 0.744022 7.02807 2.20123 0.5
204 0.335354 8.22014 8.17938 0.5
205 2.92155 5.5873 10.4659 0.5
206 12.6047 6.04381 5.29842 0.5
207 10.189 6.67141 7.46866 0.5
208 7.46921 1.3346 0.501764 0.5
209 3.2252 10.2751 4.58362 0.5
210 6.94614 7.45031 12.2087 0.5
211 12.4041 6.31756 8.48406 0.5
212 0.0642325 13.433 12.3109 0.5
213 12.967 13.0436 9.85311 0.5
214 7.12911 7.95855 4.75779 0.5
215 7.70173 7.34905 11.7269 0.5
216 12.4824 4.24018 8.405 0.5
217 7.60501 7.68153 3.65519 0.5
218 8.95688 10.0376 4.92825 0.5
219 2.9748 2.57286 12.4881 0.5
220 7.6331 12.4845 9.24045 0.5
221 6.12305 1.41058 8.0687 0.5
222 13.4214 4.83415 1.24195 0.5
223 1.95164 3.92241 8.64026 0.5
224 5.25391 4.82881 12.4935 0.5
225 5.24953 10.6797 4.20507 0.5
226 10.882 2.5908 13.4424 0.5
227 1.63444 3.86838 1.68418 0.5
228 3.33549 7.30013 12.4342 0.5
229 3.92086 8.0429 5.23582 0.5
230 10.7006 11.1343 12.6289 0.5
231 7.79082 6.06207 10.7353 0.5
232 5.3793 6.90988 3.52489 0.5
233 6.31963 6.75694 6.10054 0.5
234 4.29372 6.27019 5.94724 0.5
235 11.5127 10.7896 4.75122 0.5
236 6.26983 12.0286 1.89806 0.5
237 10.4657 0.320816 6.05183 0.5
238 10.027 1.41616 1.47673 0.5
239 5.51243 8.95367 6.83862 0.5
240 9.66179 4.75976 6.86386 0.5
241 10.0793 11.9086 1.28682 0.5
242 0.973581 1.24462 10.0067 0.5
243 3.66071 2.93892 12.6241 0.5
244 8.68503 1.14025 1.92123 0.5
245 5.90988 1.38064 6.50722 0.5
246 0.298184 6.39544 6.0602 0.5
247 10.6396 5.63463 4.5435 0.5
248 5.51659 0.234084 13.42 0.5
249 3.04978 4.93029 12.0323 0.5
250 12.0528 10.9376 8.47985 0.5
251 6.83588 6.05432 3.01716 0.5
252 6.43663 1.29118 10.722 0.5
253 3.94299 4.95457 8.40925 0.5
254 4.64705 6.82761 13.252 0.5
255 6.16682 8.22881 6.56757 0.5
256 11.6117 11.6568 0.315115 0.5
257 7.37662 13.4629 11.6519 0.5
258 0.661982 2.09823 11.0225 0.5
259 11.1718 8.7146 5.48048 0.5
260 7.92616 1.02407 0.474904 0.5
261 10.8133 6.38531 11.9424 0.5
262 5.0414 2.16049 0.19418 0.5
263 13.3052 2.58358 1.44811 0.5
264 6.50901 0.277295 7.98782 0.5
265 12.1036 12.6054 1.56628 0.5
266 11.2942 0.946461 3.98846 0.5
267 0.652738 3.63773 1.15246 0.5
268 5.08511 8.79982 12.5354 0.5
269 9.90449 10.1649 12.4689 0.5
270 12.4295 6.93801 11.6455 0.5
271 10.9707 3.24093 10.1376 0.5
272 6.47853 5.76102 5.86391 0.5
273 9.13851 3.67148 1.72365 0.5
274 2.48288 4.30339 6.62691 0.5
275 2.80267 8.04281 4.57891 0.5
276 12.4631 12.2695 5.57261 0.5
277 2.61194 8.02112 12.8466 0.5
278 5.57413 6.65716 8.95893 0.5
279 5.34113 12.8757 0.839242 0.5
280 6.35499 9.67103 13.1619 0.5
281 2.35561 12.0988 6.38328 0.5
282 4.64296 4.76673 0.632508 0.5
283 9.33267 5.94498 10.3196 0.5
284 4.41854 6.35505 9.79233 0.5
285 2.51464 5.67512 5.63971 0.5
286 3.11358 1.98666 2.45937 0.5
287 8.70124 1.83664 12.1876 0.5
288 8.57209 5.09942 5.18406 0.5
289 3.23999 1.69297 9.33797 0.5
290 5.16673 12.5474 8.96596 0.5
291 6.75511 6.91578 10.6265 0.5
292 10.5859 8.98174 0.750851 0.5
293 9.02726 0.125887 7.19009 0.5
294 10.3267 7.97902 0.821878 0.5
295 5.526 10.4018 11.1292 0.5
296 7.08722 13.5121 12.0996 0.5
297 6.75145 8.44041 8.48291 0.5
298 0.377479 9.97171 8.70873 0.5
299 2.60818 11.1324 10.3654 0.5
300 12.4258 2.28937 1.08453 0.5
301 1.32992 12.548 1.03436 0.5
302 11.9936 7.04143 1.34467 0.5
303 2.80343 10.719 9.91711 0.5
304 1.33688 2.60089 12.6069 0.5
305 3.52425 11.1602 3.528 0.5
306 11.9711 1.94717 10.2363 0.5
307 11.1058 1.54496 9.73815 0.5
308 11.2999 6.86991 12.4425 0.5
309 1.28646 3.76371 0.830044 0.5
310 7.38141 10.6176 10.1998 0.5
311 9.12137 0.123187 0.233766 0.5
312 10.5392 3.30882 9.70773 0.5
313 7.3896 1.91186 10.5677 0.5
314 3.53045 2.42389 1.59409 0.5
315 1.03284 3.11011 1.78385 0.5
316 5.54594 12.2745 2.01348 0.5
317 3.51934 8.96888 7.13178 0.5
318 11.8415 12.8659 8.85481 0.5
319 13.3133 13.4115 9.50117 0.5
320 1.52747 2.80317 10.9251 0.5
321 8.28904 12.1752 9.78978 0.5
322 4.4644 10.7426 4.792 0.5
323 0.119202 2.52439 3.83621 0.5
324 0.524868 3.20942 12.4374 0.5
325 8.20178 6.61307 11.9824 0.5
326 9.21086 1.78292 10.3945 0.5
327 3.59335 7.23142 8.08957 0.5
328 5.31424 2.33881 8.92883 0.5
329 12.6769 12.3445 8.13079 0.5
330 11.7351 10.053 10.859 0.5
331 13.1871 11.7784 6.73509 0.5
332 7.44884 8.34324 6.11504 0.5
333 13.3213 5.47551 9.57048 0.5
334 5.2296 11.462 4.40968 0.5
335 9.56264 9.68163 0.980012 0.5
336 5.22193 11.6049 5.70568 0.5
337 1.69267 6.7677 12.7761 0.5
338 11.381 4.18888 13.0051 0.5
339 8.34261 3.1416 2.53512 0.5
340 12.0574 8.85431 6.29494 0.5
341 5.60486 2.0249 9.46531 0.5
342 2.39804 4.04839 9.31303 0.5
343 2.17765 2.46318 7.78774 0.5
344 8.23657 10.0195 12.2091 0.5
345 4.44962 7.79736 6.44139 0.5
346 0.465541 4.70628 5.6737 0.5
347 7.80345 4.90797 4.18988 0.5
348 4.40471 12.9507 11.7377 0.5
349 12.0904 12.8698 10.2355 0.5
350 3.90041 9.65184 9.24134 0.5
351 7.19572 5.80503 8.77126 0.5
352 11.5299 2.6713 8.37557 0.5
353 6.37395 8.09807 11.1032 0.5
354 9.30283 1.67069 11.8911 0.5
355 5.24566 5.32842 7.09841 0.5
356 1.83369 7.5883 8.57539 0.5
357 10.9725 3.55468 5.29329 0.5
358 2.20512 10.5018 7.58965 0.5
359 4.78774 5.53153 6.24108 0.5
360 13.5384 13.3746 7.69735 0.5
361 4.85164 8.04872 7.39944 0.5
362 1.49008 12.9811 2.73198 0.5
363 3.03952 11.4993 11.7701 0.5
364 9.78427 13.3523 9.64138 0.5
365 8.56793 10.7532 10.026 0.5
366 5.43103 12.7352 12.7758 0.5
367 1.80648 3.27235 5.29619 0.5
368 2.69594 4.87769 5.83025 0.5
369 12.7101 11.1825 6.3432 0.5
370 10.8521 6.13441 13.1313 0.5
371 6.05766 2.9272 6.06044 0.5
372 8.45848 0.610626 6.07163 0.5
373 13.148 10.9234 6.64484 0.5
374 10.3228 2.97103 11.1586 0.5
375 0.426298 3.96138 13.0758 0.5
376 1.13031 12.0699 12.1424 0.5
377 1.94146 3.45357 7.87318 0.5
378 2.5319 5.44257 0.70053 0.5
379 7.12202 1.05779 8.23534 0.5
380 11.7779 9.93529 9.41898 0.5
381 1.48535 6.77227 12.1787 0.5
382 1.45673 5.09433 7.30447 0.5
383 8.64192 5.82919 6.46931 0.5
384 12.9713 8.12527 12.5353 0.5
385 11.524 1.13456 11.3605 0.5
386 13.0585 3.36148 11.1795 0.5
387 6.48881 0.690344 3.85683 0.5
388 12.1425 10.5871 10.2261 0.5
389 7.0103 13.3595 3.60955 0.5
390 6.28303 13.0208 3.54705 0.5
391 2.35833 1.44584 2.07584 0.5
392 0.634367 5.31953 6.29547 0.5
393 4.95604 8.87986 9.65112 0.5
394 9.88185 2.73184 3.43484 0.5
395 0.301811 6.79637 7.52623 0.5
396 8.84838 11.7711 6.07796 0.5
397 5.16684 12.6216 5.14798 0.5
398 9.99519 1.5542 0.0356739 0.5
399 1.7884 4.25732 1.70225 0.5
400 9.9872 10.2139 0.678082 0.5
401 7.0602 12.9672 1.5312 0.5
402 10.697 12.0888 6.34077 0.5
403 9.701 8.86132 0.453189 0.5
404 2.74426 5.90436 1.88069 0.5
405 6.95568 2.5842 11.2677 0.5
406 10.8666 0.158334 7.70576 0.5
407 0.543359 6.38141 11.0607 0.5
408 6.21841 0.943167 10.8711 0.5
409 9.18369 9.49807 6.34769 0.5
410 0.628636 0.44048 13.1343 0.5
411 4.54857 6.76382 4.01347 0.5
412 0.681648 10.8435 3.75251 0.5
413 10.4786 11.1351 10.4626 0.5
414 3.30856 6.54584 4.32082 0.5
415 11.6718 9.77515 9.2238 0.5
416 13.3681 8.33423 6.56919 0.5
417 5.07564 8.60185 11.7982 0.5
418 8.01839 3.30634 6.93765 0.5
419 5.49122 11.333 8.05765 0.5
420 11.6139 12.0611 6.24266 0.5
421 8.36223 4.27266 8.56875 0.5
422 0.28224 2.15884 8.53419 0.5
423 12.3785 6.56885 9.62515 0.5
424 1.9826 8.43795 3.16554 0.5
425 2.84415 11.2926 3.39666 0.5
426 6.68667 12.2686 11.0563 0.5
427 11.3183 1.15245 9.1873 0.5
428 11.2699 4.2897 8.71099 0.5
429 12.4499 6.73867 8.93096 0.5
430 2.39704 3.0668 8.48835 0.5
431 6.58178 5.84683 8.91089 0.5
432 5.07856 3.54792 13.329 0.5
433 7.01349 8.04283 4.03047 0.5
434 4.0859 12.8573 2.06792 0.5
435 1.45787 3.94821 11.7775 0.5
436 10.5291 11.6435 2.1331 0.5
437 6.59463 7.47509 2.65628 0.5
438 0.297851 6.63227 3.25968 0.5
439 6.43309 4.01555 8.53915 0.5
440 1.03027 9.15266 5.40601 0.5
441 9.39166 6.63986 2.88636 0.5
442 6.07501 3.25884 10.1653 0.5
443 3.90567 3.26462 1.3544 0.5
444 10.9695 7.96622 4.95201 0.5
445 11.4576 13.3076 10.0891 0.5
446 2.06885 7.06119 12.4095 0.5
447 10.5325 5.18173 5.81755 0.5
448 4.20499 10.3604 8.59719 0.5
449 12.0304 6.67567 1.62633 0.5
450 9.39745 6.94054 5.02411 0.5
451 8.90943 4.75262 12.6465 0.5
452 8.24989 10.5955 3.15486 0.5
453 2.12934 10.5592 11.7229 0.5
454 10.4255 5.26408 5.29882 0.5
455 13.1871 3.52908 0.376524 0.5
456 1.92002 3.52621 9.21326 0.5
457 7.57628 5.3105 5.04141 0.5
458 5.29204 12.7971 6.66425 0.5
459 4.37445 9.28718 6.36977 0.5
460 10.1617 7.11078 3.72769 0.5
461 3.14058 3.77042 10.5913 0.5
462 4.48161 3.50183 6.44965 0.5
463 5.42899 3.2544 7.41792 0.5
464 8.88394 8.60761 1.70735 0.5
465 6.76845 8.80304 10.4485 0.5
466 2.88039 13.1373 6.08561 0.5
467 3.69039 7.65023 13.3898 0.5
468 1.56991 1.38334 6.8503 0.5
469 12.3872 13.5594 12.2629 0.5
470 6.15962 11.2145 2.85485 0.5
471 0.496903 11.1103 2.92659 0.5
472 2.02777 7.40055 9.3539 0.5
473 0.0427427 11.576 10.6245 0.5
474 10.4422 4.28692 3.32814 0.5
475 2.29216 11.0332 4.95344 0.5
476 2.35985 8.53335 10.0071 0.5
477 8.21789 10.6711 3.07099 0.5
478 0.803995 3.99372 1.21967 0.5
479 13.3491 8.95639 3.54881 0.5
480 11.5042 6.35711 0.677539 0.5
481 3.1037 4.56052 8.0738 0.5
482 3.80545 6.50375 7.45728 0.5
483 7.3805 0.0231857 6.79685 0.5
484 5.4349 5.1771 9.96869 0.5
485 2.3191 10.69 5.77943 0.5
486 13.2445 7.09278 13.0679 0.5
487 5.25925 10.639 10.9472 0.5
488 3.09309 10.3382 4.0342 0.5
489 0.992113 1.68366 10.1025 0.5
490 8.5696 7.63369 10.3495 0.5
491 8.20622 5.86245 11.3574 0.5
492 2.68281 0.191333 8.13056 0.5
493 5.92205 2.48386 8.05547 0.5
494 6.77903 2.15941 6.24632 0.5
495 11.696 10.7473 2.88592 0.5
496 1.52023 7.30607 13.5143 0.5
497 4.35127 11.0227 4.63267 0.5
498 13.4366 3.48768 13.4134 0.5
499 10.7647 0.335146 3.08523 0.5
500 12.5636 6.58615 6.50118 0.5
501 8.44094 8.4152 8.02363 0.5
502 13.0412 2.05474 10.6748 0.5
503 13.3385 3.87793 7.18354 0.5
504 13.2691 2.95503 2.84271 0.5
505 7.19936 0.509896 12.2717 0.5
506 10.5907 3.36867 11.0845 0.5
507 0.767551 1.08997 5.79598 0.5
508 10.0095 8.81716 12.0767 0.5
509 3.24027 0.0339049 8.48123 0.5
510 0.662508 7.63167 12.954 0.5
511 1.26033 0.668802 1.7106 0.5
512 10.5757 1.51275 1.93146 0.5
513 1.95518 1.28817 10.0434 0.5
514 0.358195 13.2091 6.58169 0.5
515 11.5022 11.6056 12.2491 0.5
516 4.85999 3.18431 1.97476 0.5
517 10.9617 12.1009 2.42153 0.5
518 11.4117 4.18119 2.53124 0.5
519 13.241 3.57839 12.1897 0.5
520 4.59646 3.73103 2.59766 0.5
521 1.35441 5.77826 12.3359 0.5
522 5.25594 8.86693 8.81619 0.5
523 1.42913 4.43894 3.10505 0.5
524 3.86182 3.44882 5.85694 0.5
525 1.46523 2.57272 2.96432 0.5
526 8.77775 0.50115 11.1815 0.5
527 11.3943 1.81929 1.69623 0.5
528 9.39357 9.95615 8.6325 0.5
529 0.607357 11.8641 6.78713 0.5
530 10.4196 8.14215 1.14046 0.5
531 0.366057 0.185236 4.12922 0.5
532 1.882 1.10014 6.58767 0.5
533 9.11209 6.71258 9.87642 0.5
534 1.6799 11.2398 3.49904 0.5
535 13.2412 13.2026 12.8477 0.5
536 0.0844164 2.93121 1.73834 0.5
537 9.20446 2.15749 11.1429 0.5
538 11.3725 13.3851 1.26172 0.5
539 0.250469 10.0801 5.29493 0.5
540 7.79101 7.44477 1.0114 0.5
541 6.93838 12.6461 11.3847 0.5
542 12.7592 8.93446 11.3769 0.5
543 12.263 8.1152 4.91846 0.5
544 3.77714 10.8098 4.53973 0.5
545 3.79647 11.3042 5.68251 0.5
546 0.479388 9.87276 12.0679 0.5
547 4.0802 8.50149 4.40458 0.5
548 12.0808 3.48783 10.7353 0.5
549 9.42975 4.6401 5.05292 0.5
550 5.13389 8.52395 0.939068 0.5
551 7.94798 8.23835 2.40474 0.5
552 6.78862 11.0885 3.33959 0.5
553 4.94415 0.828159 1.57841 0.5
554 0.668999 4.29766 11.9378 0.5
555 12.9541 8.53505 7.48113 0.5
556 9.6655 9.18097 1.20109 0.5
557 7.6903 13.3501 8.98082 0.5
558 10.605 12.1461 5.31781 0.5
559 12.6813 0.96281 1.88738 0.5
560 3.63484 2.66744 4.14838 0.5
561 3.0966 11.0042 8.83005 0.5
562 9.81997 11.6721 7.38624 0.5
563 1.29508 10.5549 1.70978 0.5
564 9.43932 11.4983 9.01866 0.5
565 13.3635 7.45989 7.96328 0.5
566 6.58477 3.32913 3.48703 0.5
567 5.29892 5.73868 1.04264 0.5
568 13.2228 0.383051 8.96819 0.5
569 4.88013 12.2788 12.8582 0.5
570 13.5162 13.2323 3.1439 0.5
571 9.99412 1.47747 3.21608 0.5
572 1.60881 7.76036 0.932312 0.5
573 8.55073 1.0673 11.3964 0.5
574 4.6628 7.58022 10.3127 0.5
575 9.3746 2.30088 10.3623 0.5
576 7.60036 7.77092 4.13716 0.5
577 5.99906 10.0299 0.122928 0.5
578 2.83772 5.31022 11.8277 0.5
579 3.76062 8.94349 12.8122 0.5
580 2.2011 6.76131 7.12414 0.5
581 7.9816 11.0786 13.2642 0.5
582 1.02544 9.61714 13.1827 0.5
583 4.62433 9.14825 7.23119 0.5
584 8.93961 0.472358 4.29335 0.5
585 12.8927 0.429977 6.27655 0.5
586 8.88648 0.732999 10.6868 0.5
587 2.35742 4.15304 9.37066 0.5
588 4.24973 8.13949 1.94051 0.5
589 7.07031 10.9683 3.98039 0.5
590 6.54656 5.75693 1.49574 0.5
591 3.47657 13.1195 2.80897 0.5
592 11.5094 4.04015 8.59127 0.5
593 6.08223 1.91369 8.82999 0.5
594 0.237635 9.46713 7.02774 0.5
595 6.57636 5.70998 6.31583 0.5
596 2.03509 5.75363 7.73752 0.5
597 3.90434 3.49095 12.4667 0.5
598 8.83651 2.7223 11.1512 0.5
599 1.07065 0.98642 8.11487 0.5
600 7.79766 1.01864 7.05522 0.5
601 10.3863 0.142943 12.9094 0.5
602 3.78097 5.38778 9.75571 0.5
603 0.153985 0.0990436 12.9353 0.5
604 4.62365 7.09753 5.02598 0.5
605 7.47538 5.9787 3.42615 0.5
606 5.98293 2.47427 7.42723 0.5
607 2.63275 12.1592 6.08936 0.5
608 13.5406 -0.00692239 13.2945 0.5
609 2.79649 2.12413 6.79658 0.5
610 7.51451 5.89069 0.408815 0.5
611 11.023 2.52193 1.39703 0.5
612 2.23777 12.7897 7.97552 0.5
613 12.2567 3.83956 12.1367 0.5
614 11.9333 13.1786 1.55262 0.5
615 6.32178 1.61818 3.75288 0.5
616 10.4497 5.91547 10.7538 0.5
617 3.21891 6.9735 1.36364 0.5
618 7.6367 0.760554 6.93348 0.5
619 10.2972 9.57674 5.78979 0.5
620 8.90522 5.6113 6.08721 0.5
621 12.185 1.51641 11.7833 0.5
622 5.75432 4.9909 9.72931 0.5
623 10.6371 8.71721 3.86592 0.5
624 11.4095 11.8222 13.3769 0.5
625 11.59 1.12422 5.23347 0.5
626 8.1144 9.65842 7.00603 0.5
627 8.79696 5.59229 1.20487 0.5
628 11.2363 13.4838 0.29988 0.5
629 5.41246 8.6958 13.2723 0.5
630 5.94796 3.10048 2.88423 0.5
631 5.14761 6.43872 8.43207 0.5
632 10.5846 13.0774 8.88323 0.5
633 2.52546 8.20494 13.3964 0.5
634 9.13027 6.67383 6.35455 0.5
635 8.22097 1.20644 13.2421 0.5
636 5.5032 6.66478 4.2244 0.5
637 5.94667 3.52699 1.00982 0.5
638 12.1265 10.4774 10.4403 0.5
639 9.76302 13.5687 13.1219 0.5
640 11.4069 2.01323 1.74089 0.5
641 13.4023 10.6165 4.293 0.5
642 2.70949 8.75877 8.27428 0.5
643 9.22469 12.7778 8.80038 0.5
644 7.3171 12.9607 2.71277 0.5
645 9.68836 11.3091 3.71354 0.5
646 11.6488 0.343703 0.865793 0.5
647 10.2405 3.60347 8.60922 0.5
648 1.78692 2.17822 7.58966 0.5
649 3.20204 8.45103 3.36042 0.5
650 11.6548 10.5413 1.10914 0.5
651 4.23793 8.42628 5.09284 0.5
652 4.07501 5.17364 7.40624 0.5
653 4.04102 10.4176 3.50957 0.5
654 3.72207 6.14877 1.31702 0.5
655 11.6482 6.87945 7.49233 0.5
656 11.4666 3.81124 2.4213 0.5
657 7.85444 5.35309 9.42989 0.5
658 4.17653 11.2857 1.46827 0.5
659 11.8342 1.83129 11.2415 0.5
660 7.55454 3.39285 5.46063 0.5
661 10.917 5.23705 4.45093 0.5
662 11.1829 12.3467 12.7757 0.5
663 4.00518 8.25363 4.35145 0.5
664 7.86155 3.10535 3.45011 0.5
665 8.62148 10.2279 3.15838 0.5
666 3.51015 3.69685 10.4115 0.5
667 6.36393 2.17354 5.66661 0.5
668 4.74755 11.6952 2.63464 0.5
669 8.82125 4.79638 10.1921 0.5
670 2.49367 4.47656 3.35075 0.5
671 12.3155 6.71823 1.57575 0.5
672 7.32609 9.2779 10.8424 0.5
673 5.79292 9.18324 7.8693 0.5
674 0.431271 1.34441 0.754743 0.5
675 9.14631 10.509 10.7376 0.5
676 12.387 8.77634 6.62271 0.5
677 6.87425 1.04292 9.35093 0.5
678 11.9441 9.45804 9.53719 0.5
679 6.14893 6.55166 11.6718 0.5
680 1.22507 8.39054 9.65861 0.5
681 8.68434 10.9053 2.76885 0.5
682 1.40676 6.20409 0.915985 0.5
683 4.79329 0.0944195 8.83155 0.5
684 1.40535 6.41781 4.10057 0.5
685 5.31629 0.669172 13.1634 0.5
686 1.61493 5.39032 4.67449 0.5
687 10.6282 4.38905 4.60585 0.5
688 4.59958 10.375 11.5808 0.5
689 13.5633 1.98726 12.9121 0.5
690 2.75369 3.40859 5.4736 0.5
691 2.05589 12.9203 13.4818 0.5
692 5.21794 2.68109 5.71416 0.5
693 1.12735 3.42015 1.06181 0.5
694 9.09408 9.99809 4.68171 0.5
695 1.09775 6.01422 5.92375 0.5
696 5.27016 4.34503 0.985313 0.5
697 11.1485 4.99617 2.25572 0.5
698 8.55738 7.58555 7.38881 0.5
699 5.60051 5.21372 4.50547 0.5
700 9.23487 8.4974 3.25935 0.5
701 7.68399 3.63609 8.45141 0.5
702 4.7678 0.313888 8.79663 0.5
703 4.83334 0.667426 7.92035 0.5
704 5.04317 10.5702 0.203744 0.5
705 10.2199 12.0627 0.620744 0.5
706 12.9416 3.13054 5.25204 0.5
707 2.41858 3.94764 7.02414 0.5
708 1.51322 5.17733 7.33405 0.5
709 5.59997 9.73941 7.15737 0.5
710 6.40016 3.32508 12.4996 0.5
711 2.37925 13.3497 1.31078 0.5
712 9.6112 0.0945898 13.0956 0.5
713 2.58211 4.05189 8.61135 0.5
714 7.44626 12.6548 4.15548 0.5
715 1.53129 0.86048 13.3278 0.5
716 8.462 6.37806 13.4484 0.5
717 9.64862 7.26962 3.32324 0.5
718 8.96572 9.92959 5.88853 0.5
719 6.91216 6.68343 3.83077 0.5
720 1.44216 11.624 6.20456 0.5
721 10.4656 8.98734 3.02442 0.5
722 4.65705 4.15043 1.59152 0.5
723 11.4852 8.69148 12.79 0.5
724 3.29084 11.7157 5.95592 0.5
725 3.79309 9.09603 7.55252 0.5
726 4.54524 3.4624 2.24528 0.5
727 9.99988 9.33543 7.95532 0.5
728 0.483617 3.89362 6.85126 0.5
729 7.20518 8.68783 10.8654 0.5
730 9.92737 7.82969 4.64504 0.5
731 11.3102 0.890458 8.5868 0.5
732 3.47603 11.3716 12.1609 0.5
733 8.39775 1.23105 1.00133 0.5
734 8.32163 10.1975 6.76229 0.5
735 6.725 6.93293 2.19928 0.5
736 7.72257 6.09222 5.55346 0.5
737 4.15529 0.258534 2.23417 0.5
738 7.83903 12.3946 13.1862 0.5
739 6.85128 6.58009 10.3375 0.5
740 2.08069 9.18281 11.951 0.5
741 1.08114 13.2582 12.6535 0.5
742 0.221252 12.4597 12.6035 0.5
743 12.8974 0.261801 2.74004 0.5
744 4.852 12.5441 0.680559 0.5
745 9.17932 8.47518 3.15485 0.5
746 6.56013 1.32124 9.47615 0.5
747 11.0512 6.62585 12.9323 0.5
748 12.665 0.650297 12.9884 0.5
749 8.44397 6.00944 2.20818 0.5
750 6.88169 10.9874 7.78738 0.5
751 3.07625 0.583245 11.6067 0.5
752 11.4214 3.76465 2.09189 0.5
753 4.80419 2.59823 4.9906 0.5
754 13.0446 7.04153 8.11583 0.5
755 5.63463 10.6359 5.35574 0.5
756 6.26601 6.24721 10.7878 0.5
757 7.94767 6.42614 7.19765 0.5
758 1.32981 4.56473 5.52207 0.5
759 5.56416 9.18655 4.91114 0.5
760 12.8588 2.1922 11.9743 0.5
761 12.0096 11.5099 4.99485 0.5
762 1.56834 0.724987 0.493912 0.5
763 10.4084 3.86698 5.71725 0.5
764 5.04535 5.79568 9.53601 0.5
765 5.22369 13.4523 4.24144 0.5
766 10.5218 12.9164 7.89747 0.5
767 1.30015 0.5077 8.23659 0.5
768 8.03995 10.9419 4.0645 0.5
769 1.66508 12.0719 2.62657 0.5
770 3.85682 10.9883 10.015 0.5
771 5.65368 0.465854 9.25255 0.5
772 4.7371 2.0998 10.0678 0.5
773 2.41582 6.82828 1.68158 0.5
774 2.5737 5.99676 13.302 0.5
775 2.75308 1.12517 9.01726 0.5
776 4.14129 13.2957 8.84843 0.5
777 10.4163 2.40701 10.1311 0.5
778 4.70991 12.9784 4.52976 0.5
779 8.01117 2.08794 10.1477 0.5
780 0.649271 8.18084 0.93824 0.5
781 0.211551 3.68746 0.577479 0.5
782 0.66328 13.5403 11.4839 0.5
783 0.465517 9.87337 10.8216 0.5
784 12.053 11.5905 10.8664 0.5
785 3.64643 9.51837 6.72748 0.5
786 3.62827 13.3454 6.92468 0.5
787 3.74964 10.3866 0.288997 0.5
788 13.6087 3.85031 9.62016 0.5
789 12.84 10.3279 6.16836 0.5
790 0.360191 10.1372 5.85449 0.5
791 1.14007 5.10441 5.01013 0.5
792 6.65161 3.96481 3.14066 0.5
793 6.92945 12.2867 2.45607 0.5
794 10.3962 13.5228 1.68518 0.5
795 9.48753 6.40246 5.5822 0.5
796 10.146 1.50898 2.95201 0.5
797 4.91731 9.48843 13.0982 0.5
798 7.07158 4.76346 10.3977 0.5
799 9.51681 12.254 1.97695 0.5
800 7.71213 6.47539 3.75493 0.5
801 8.62371 7.57694 4.08357 0.5
802 0.237712 7.96559 9.30079 0.5
803 0.994901 10.4365 3.08279 0.5
804 10.0934 8.01409 13.0549 0.5
805 9.49235 10.9712 0.870356 0.5
806 5.87831 1.8588 9.18844 0.5
807 1.36488 6.84297 5.21555 0.5
808 6.47082 5.76592 12.751 0.5
809 11.1153 1.64608 9.96965 0.5
810 13.1528 7.99217 3.19884 0.5
811 11.7081 7.9882 11.4211 0.5
812 11.177 12.3259 5.59873 0.5
813 6.83174 10.0938 12.964 0.5
814 4.71448 4.4789 12.1727 0.5
815 12.3679 3.01702 2.25129 0.5
816 4.99398 6.69568 12.8933 0.5
817 9.0229 4.19026 10.2616 0.5
818 12.9125 2.43592 9.7956 0.5
819 8.0905 5.11787 5.93354 0.5
820 2.62831 3.21703 11.9913 0.5
821 5.85226 0.747383 8.69836 0.5
822 1.72824 8.8484 3.17641 0.5
823 12.3378 5.02487 9.02621 0.5
824 11.7615 9.01041 10.3751 0.5
825 2.92365 10.634 6.80964 0.5
826 1.05468 10.0274 1.26281 0.5
827 13.3225 6.46139 4.37826 0.5
828 11.3559 12.5586 5.83312 0.5
829 10.1196 6.84695 10.3267 0.5
830 9.23578 3.80763 4.88893 0.5
831 6.17679 6.82544 1.00401 0.5
832 12.3455 10.964 2.84933 0.5
833 3.43686 8.37773 2.42967 0.5
834 0.796402 11.0675 12.4858 0.5
835 8.84523 6.35357 10.3981 0.5
836 2.70367 4.94749 9.51837 0.5
837 11.4208 8.20536 1.7469 0.5
838 11.1903 11.2932 12.515 0.5
839 8.66272 2.31129 8.13291 0.5
840 1.29339 1.53062 4.25083 0.5
841 10.1982 10.9259 6.77259 0.5
842 4.31056 8.91507 11.5333 0.5
843 1.9032 12.2982 11.5265 0.5
844 6.89588 3.52986 12.6326 0.5
845 8.82571 8.32898 4.72138 0.5
846 4.75326 4.11598 5.13755 0.5
847 2.00904 2.74928 2.26706 0.5
848 13.3986 10.1986 1.98659 0.5
849 3.91096 0.413999 8.57057 0.5
850 12.2108 7.88203 9.57185 0.5
851 11.7394 1.57865 4.13286 0.5
852 10.0395 2.00781 10.5907 0.5
853 9.21637 12.0202 6.74835 0.5
854 3.47478 6.13045 13.1586 0.5
855 4.27102 6.99175 11.4623 0.5
856 7.06519 10.1654 7.33422 0.5
857 12.8072 0.265891 4.10274 0.5
858 12.1757 0.253391 8.07571 0.5
859 8.28683 6.89932 3.95674 0.5
860 9.94686 3.17269 10.5535 0.5
861 10.4923 1.73416 4.98557 0.5
862 6.57893 8.79022 5.17291 0.5
863 1.77117 6.23486 5.08215 0.5
864 3.1905 11.7321 2.31665 0.5
865 7.79163 1.31056 0.823432 0.5
866 4.65215 2.89666 8.3335 0.5
867 8.1603 12.0464 13.103 0.5
868 1.38635 8.81552 13.2081 0.5
869 9.27048 9.95839 2.34507 0.5
870 5.34584 7.37918 1.30224 0.5
871 3.8604 5.47284 6.95776 0.5
872 6.02763 11.2454 10.9937 0.5
873 8.05137 7.84154 13.1601 0.5
874 2.63685 0.526556 3.59208 0.5
875 10.0824 7.67379 0.688389 0.5
876 12.1451 13.4917 4.6966 0.5
877 13.05 6.45731 13.0808 0.5
878 0.182154 12.7871 3.56271 0.5
879 0.909901 4.91799 0.558496 0.5
880 5.70773 9.77705 4.03459 0.5
881 13.2615 10.9103 10.2322 0.5
882 5.38997 1.55769 5.95091 0.5
883 9.05636 13.5684 12.1162 0.5
884 12.8491 12.8673 3.47068 0.5
885 1.19576 10.6473 9.05432 0.5
886 8.87397 3.76866 6.44572 0.5
887 6.19424 11.5941 8.67417 0.5
888 10.1832 12.2997 5.35381 0.5
889 13.1611 7.47623 5.8411 0.5
890 3.9818 1.08714 13.5091 0.5
891 8.77565 11.9748 4.91299 0.5
892 7.07055 8.59742 5.73067 0.5
893 1.8682 0.736502 12.3738 0.5
894 0.454626 2.39579 10.6854 0.5
895 2.51777 10.3558 11.7022 0.5
896 7.45939 7.18952 9.48029 0.5
897 5.8625 11.2908 0.785132 0.5
898 6.29276 6.86447 7.84825 0.5
899 6.06651 6.62977 7.6663 0.5
900 4.03346 10.8442 5.61616 0.5
901 0.573087 1.04778 10.1081 0.5
902 9.63806 6.99276 8.86571 0.5
903 5.81219 2.82998 10.08 0.5
904 9.79801 9.44026 4.77493 0.5
905 7.97136 12.5466 11.0988 0.5
906 12.1427 0.236168 7.58271 0.5
907 5.40463 12.5924 0.631969 0.5
908 0.281521 1.97224 1.47298 0.5
909 3.17411 8.15724 11.4812 0.5
910 2.96011 2.17079 12.5716 0.5
911 6.8071 12.1845 7.03295 0.5
912 4.48627 12.1994 10.8195 0.5
913 10.3892 4.63785 6.57208 0.5
914 13.4601 4.12465 4.07498 0.5
915 12.1824 5.15146 8.91216 0.5
916 5.86569 9.16972 6.72748 0.5
917 1.99118 10.1083 7.44849 0.5
918 10.5567 1.87301 3.37458 0.5
919 7.98685 13.4775 4.8298 0.5
920 13.1699 0.145169 0.211988 0.5
921 0.267892 11.159 7.6815 0.5
922 7.39951 6.62312 12.5857 0.5
923 12.8858 0.171514 9.83044 0.5
924 9.80493 9.12371 7.10105 0.5
925 11.084 2.47188 3.41927 0.5
926 6.49796 12.045 0.624145 0.5
927 11.6595 8.1744 0.987334 0.5
928 1.28948 7.60531 7.88353 0.5
929 5.76539 11.2633 2.61869 0.5
930 6.26666 12.0619 1.5975 0.5
931 4.7826 4.64917 9.64222 0.5
932 4.40279 7.7119 12.8431 0.5
933 1.63031 3.88461 10.5757 0.5