ITEM: TIMESTEP
960000
ITEM: NUMBER OF ATOMS
1000
ITEM: BOX BOUNDS xy xz yz pp pp pp
0.0000000000000000e+00 1.3572088000000001e+01 0.0000000000000000e+00
0.0000000000000000e+00 1.3572088000000001e+01 0.0000000000000000e+00
0.0000000000000000e+00 1.3572088000000001e+01 0.0000000000000000e+00
ITEM: ATOMS id x y z radius
1 10.2588 6.4881 8.60668 0.5
2 0.903004 10.3755 12.023 0.5
3 3.89694 8.36427 0.381697 0.5
4 13.4949 1.31558 10.2198 0.5
5 0.144826 11.8059 13.5636 0.5
6 2.37756 8.10084 11.8146 0.5
7 2.93789 6.90878 12.3611 0.5
8 13.3277 6.03658 10.5868 0.5
9 9.43651 1.04817 1.86961 0.5
10 2.19517 11.836 11.0007 0.5
11 6.44256 2.54171 5.29786 0.5
12 4.72688 0.755302 8.93808 0.5
13 0.23837 9.90888 12.4534 0.5
14 4.23316 7.23202 4.76841 0.5
15 13.5576 8.36328 4.03901 0.5
16 8.01609 4.33983 4.99256 0.5
17 5.14738 12.4907 4.99211 0.5
18 0.138033 5.57586 11.3328 0.5
19 6.93777 6.11274 6.29952 0.5
20 6.2127 3.43247 7.90926 0.5
21 5.02366 12.8699 11.8552 0.5
22 1.35273 6.17324 3.11314 0.5
23 7.49452 8.23149 13.4855 0.5
24 12.2788 1.92731 12.9653 0.5
25 6.72053 8.23252 4.99015 0.5
26 6.95372 11.4518 2.45333 0.5
27 7.74688 2.96516 8.38483 0.5
28 1.71405 4.04424 2.62243 0.5
29 2.39404 2.10496 5.29467 0.5
30 3.84766 2.5634 7.33505 0.5
31 6.5926 12.9769 2.32207 0.5
32 10.3884 13.4849 0.522131 0.5
33 2.50577 10.4837 12.4059 0.5
34 9.88447 3.46991 4.92674 0.5
35 13.1204 8.49335 2.38444 0.5
36 9.43251 10.8666 8.53735 0.5
37 10.7768 11.8249 12.8916 0.5
38 1.47151 4.30419 12.4957 0.5
39 7.48765 12.4759 11.2857 0.5
40 6.53613 5.39824 10.9352 0.5
41 12.5655 1.59791 4.93165 0.5
42 7.26771 8.77243 10.3373 0.5
43 2.34532 11.2293 11.386 0.5
44 7.3751 4.46894 6.38261 0.5
45 11.2294 10.015 7.60893 0.5
46 9.20119 2.00529 0.87097 0.5
47 7.05028 2.56318 0.0627452 0.5
48 7.08405 3.63907 5.77182 0.5
49 4.45811 4.86685 3.72095 0.5
50 11.6748 12.9056 1.3058 0.5
51 12.7434 3.35777 10.1392 0.5
52 2.30286 2.35456 4.03228 0.5
53 0.467221 4.7342 0.396961 0.5
54 10.1872 8.89753 0.534081 0.5
55 11.9235 12.0381 0.0542508 0.5
56 1.50849 2.09747 6.97903 0.5
57 8.64232 11.6531 10.5809 0.5
58 3.00509 2.14963 11.8621 0.5
59 4.39745 5.35405 4.40662 0.5
60 6.83036 2.94329 5.11437 0.5
61 7.50633 1.55319 12.5161 0.5
62 12.3981 12.8945 12.7286 0.5
63 8.91815 10.6954 4.44726 0.5
64 7.92119 3.91449 12.2026 0.5
65 12.0436 3.94907 3.47392 0.5
66 5.99076 5.57245 0.431545 0.5
67 4.66591 7.19165 6.3169 0.5
68 7.45644 8.74983 11.2575 0.5
69 8.20447 11.9087 11.3089 0.5
70 9.07083 10.5981 12.9486 0.5
71 10.2498 9.8828 8.90518 0.5
72 8.84897 3.10138 8.12959 0.5
73 1.99739 12.5432 10.0018 0.5
74 13.038 10.3067 0.396574 0.5
75 3.03172 12.3459 11.7697 0.5
76 3.76289 2.65022 8.66601 0.5
77 10.1003 5.67583 6.12765 0.5
78 8.60501 10.6179 2.48548 0.5
79 10.7538 0.754353 10.8343 0.5
80 4.68687 8.8215 13.4218 0.5
81 9.98983 5.19475 1.27229 0.5
82 9.3241 12.6937 13.5327 0.5
83 12.4561 0.855029 8.13354 0.5
84 3.5018 3.78395 2.80127 0.5
85 4.15201 9.98723 0.973094 0.5
86 8.03929 1.75053 11.4831 0.5
87 10.1984 9.47375 10.6828 0.5
88 7.92953 12.1824 7.8277 0.5
89 9.09653 0.47351 12.6346 0.5
90 8.05243 1.81261 5.87783 0.5
91 8.32096 9.69298 11.0813 0.5
92 13.02 12.3302 3.90052 0.5
93 2.0142 12.6344 0.969846 0.5
94 11.9517 2.45008 1.00299 0.5
95 13.144 11.7512 1.20907 0.5
96 2.42768 13.402 3.64189 0.5
97 1.33925 9.62329 10.7407 0.5
98 10.3402 13.4546 11.3715 0.5
99 2.96858 9.79686 5.76365 0.5
100 9.70306 6.52071 4.67124 0.5
101 5.66836 9.37865 9.76045 0.5
102 9.08254 8.1396 3.2251 0.5
103 2.52006 11.2456 6.52819 0.5
104 2.42309 7.56467 12.6049 0.5
105 13.1336 8.22568 10.9435 0.5
106 10.7273 7.59597 9.73981 0.5
107 0.0704686 2.43976 12.7912 0.5
108 6.39881 6.03089 7.53654 0.5
109 10.7436 11.4289 9.90101 0.5
110 0.83279 2.65863 13.0155 0.5
111 4.86615 9.93915 3.28024 0.5
112 13.4029 13.0836 9.30664 0.5
113 8.38041 10.0232 7.61071 0.5
114 7.08579 8.05202 10.0073 0.5
115 11.6993 11.2182 6.00322 0.5
116 3.26223 0.053315 10.4574 0.5
117 2.41537 8.96711 11.3829 0.5
118 6.96441 7.46671 7.93943 0.5
119 7.75073 4.11896 7.68367 0.5
120 7.59812 8.33535 2.06706 0.5
121 12.2359 8.41418 3.59873 0.5
122 6.41383 5.0866 7.70603 0.5
123 11.6145 13.0738 8.53644 0.5
124 6.54367 3.76792 10.2805 0.5
125 5.78922 9.52161 2.5702 0.5
126 7.87229 6.94412 8.39331 0.5
127 4.57923 11.0307 10.5219 0.5
128 11.1097 10.1297 2.55396 0.5
129 3.19617 12.3502 0.0318584 0.5
130 0.665587 4.46343 11.0267 0.5
131 5.4294 9.31087 6.59005 0.5
132 1.09819 11.1404 0.522281 0.5
133 1.0918 7.41427 5.04703 0.5
134 10.1448 4.74193 5.15965 0.5
135 13.2541 12.8533 7.79832 0.5
136 6.13538 8.17109 11.7041 0.5
137 11.6739 9.08898 7.35377 0.5
138 1.60522 6.47022 3.53767 0.5
139 11.376 3.82239 7.52086 0.5
140 1.80416 1.13207 6.18786 0.5
141 0.989288 0.386501 3.77538 0.5
142 4.5806 9.40657 3.56957 0.5
143 5.03465 10.6646 6.53962 0.5
144 4.07432 9.94216 10.4027 0.5
145 12.217 2.11104 2.41668 0.5
146 4.95944 3.38687 5.01573 0.5
147 4.85562 8.32145 9.77596 0.5
148 0.806296 9.434 1.2757 0.5
149 3.83649 8.57809 2.08853 0.5
150 5.51838 7.4375 10.5875 0.5
151 5.01783 6.23233 7.23462 0.5
152 12.421 9.90255 3.9471 0.5
153 13.2461 1.07208 1.90449 0.5
154 13.2509 5.63371 1.37515 0.5
155 3.7772 11.6658 3.55877 0.5
156 10.0125 6.77481 5.02105 0.5
157 13.0225 9.69301 8.11507 0.5
158 0.0946988 6.67204 10.7356 0.5
159 1.31806 0.32949 10.4913 0.5
160 5.89636 1.42242 11.342 0.5
161 9.44611 5.61916 7.62258 0.5
162 6.59766 9.87455 0.524158 0.5
163 1.24128 8.95742 8.59657 0.5
164 10.5027 8.75076 2.18124 0.5
165 13.2591 6.10428 5.44252 0.5
166 8.5686 2.79672 0.955711 0.5
167 9.80509 5.22494 11.2937 0.5
168 6.12915 2.27836 8.30446 0.5
169 1.81833 5.48639 3.458 0.5
170 13.3102 11.6295 12.2395 0.5
171 10.8247 3.03863 11.2495 0.5
172 2.9385 10.0289 11.5824 0.5
173 0.401448 9.83096 1.40062 0.5
174 3.31438 12.4192 0.169931 0.5
175 7.00887 12.5663 2.00904 0.5
176 8.09757 5.04784 3.66952 0.5
177 12.7212 3.04553 10.1782 0.5
178 11.4802 7.88864 11.1567 0.5
179 2.81428 9.26943 2.60685 0.5
180 8.13804 10.237 3.86076 0.5
181 8.68038 1.88025 6.65152 0.5
182 12.1112 8.56505 13.0381 0.5
183 1.19167 2.86342 7.64969 0.5
184 2.34504 1.49379 10.1959 0.5
185 3.20218 6.50961 5.97134 0.5
186 10.7508 9.23851 11.0878 0.5
187 7.90015 5.60312 8.22545 0.5
188 7.32389 9.36736 9.84036 0.5
189 10.7076 1.81365 0.482635 0.5
190 10.3694 3.03322 12.8898 0.5
191 3.70321 11.4416 3.94156 0.5
192 13.1694 2.00732 6.14894 0.5
193 3.8942 3.30906 3.27548 0.5
194 13.3382 9.92499 13.5502 0.5
195 10.1315 0.786735 2.89665 0.5
196 7.02092 11.2887 0.874948 0.5
197 2.75538 7.30361 13.4728 0.5
198 5.43429 10.5988 5.61306 0.5
199 9.84765 3.66974 6.00571 0.5
200 6.29006 11.4677 2.63705 0.5
201 2.6189 2.42658 3.68616 0.5
202 7.851 11.14 4.94493 0.5
203 1.3247 13.5115 11.4952 0.5
204 7.85381 8.27916 13.4077 0.5
205 9.89786 10.9544 5.29172 0.5
206 11.9858 12.4217 0.463516 0.5
207 1.07779 0.692778 3.99292 0.5
208 2.31001 12.3928 8.85396 0.5
209 5.46051 12.7354 0.415909 0.5
210 11.2654 3.99936 0.707214 0.5
211 7.05222 13.1211 6.61571 0.5
212 5.77878 8.4115 0.321537 0.5
213 3.24315 5.31514 0.921905 0.5
214 12.5626 7.62365 0.586776 0.5
215 3.55952 1.84345 7.98318 0.5
216 13.042 2.77366 6.52667 0.5
217 0.312118 3.9684 7.34787 0.5
218 6.56394 7.02269 11.0621 0.5
219 12.3111 3.54386 8.6203 0.5
220 3.47666 10.2691 9.22871 0.5
221 11.9493 3.5211 9.97152 0.5
222 2.06163 9.2764 10.1305 0.5
223 2.12433 4.15331 11.8194 0.5
224 13.4381 12.7691 0.947375 0.5
225 4.25019 3.71756 3.1968 0.5
226 5.34114 8.14882 4.889 0.5
227 13.4192 9.80638 13.2808 0.5
228 0.07866 6.50448 12.2086 0.5
229 4.35243 10.7129 1.62126 0.5
230 4.65475 3.29171 5.69166 0.5
231 7.12297 2.98905 2.17102 0.5
232 6.70438 7.52031 5.74801 0.5
233 13.3376 11.8653 6.44784 0.5
234 12.3203 6.5095 4.17541 0.5
235 7.21107 3.02518 12.3104 0.5
236 1.65081 9.56251 5.90681 0.5
237 13.3719 7.97195 12.5776 0.5
238 3.51291 6.06699 3.99755 0.5
239 8.16729 8.78008 5.06419 0.5
240 1.60007 12.1383 0.0465304 0.5
241 6.4662 2.54328 12.5634 0.5
242 0.91296 11.5669 0.840756 0.5
243 4.26577 3.77048 11.0387 0.5
244 5.6452 4.28507 12.4489 0.5
245 7.54023 9.67956 5.27847 0.5
246 4.19119 2.8216 1.65227 0.5
247 2.37093 6.54043 9.95918 0.5
248 8.5627 7.15209 6.91527 0.5
249 9.22572 1.20915 1.02929 0.5
250 2.49772 9.59644 9.63567 0.5
251 5.52815 5.54019 1.03743 0.5
252 12.1032 9.14586 3.57288 0.5
253 12.1691 0.863246 13.0652 0.5
254 5.07108 3.17025 6.38982 0.5
255 5.81449 1.2742 5.89763 0.5
256 6.07347 0.139611 6.26828 0.5
257 9.9056 9.31707 10.8562 0.5
258 0.466113 8.75753 3.33887 0.5
259 12.3436 2.50157 9.61095 0.5
260 5.10496 5.02678 12.4086 0.5
261 5.25613 13.0408 3.35172 0.5
262 3.98392 8.68726 2.80432 0.5
263 3.66586 7.23549 6.75786 0.5
264 2.79489 10.4241 0.248466 0.5
265 5.35456 6.47412 1.83022 0.5
266 1.30038 5.61888 9.37777 0.5
267 7.84655 9.92335 12.3955 0.5
268 9.91489 5.79461 10.1345 0.5
269 1.48 10.209 2.43572 0.5
270 9.36228 6.09326 4.89072 0.5
271 8.61157 9.70296 6.38415 0.5
272 0.880564 2.38323 11.3174 0.5
273 12.1936 9.1517 13.2596 0.5
274 3.368 1.43062 8.0129 0.5
275 5.00152 1.38016 2.47299 0.5
276 3.7545 6.03411 8.76462 0.5
277 8.77686 8.59373 5.94409 0.5
278 10.8753 11.5707 3.30187 0.5
279 1.3099 2.91022 8.43057 0.5
280 11.7942 10.5995 0.989354 0.5
281 0.811156 5.27369 2.03763 0.5
282 0.316588 4.36455 11.1774 0.5
283 13.0327 9.13581 4.29924 0.5
284 5.7953 0.587569 9.87486 0.5
285 3.58302 3.64881 9.24928 0.5
286 8.70665 5.52026 6.85059 0.5
287 1.61881 8.30223 4.48206 0.5
288 5.71435 12.938 9.43152 0.5
289 2.88427 9.75849 0.599448 0.5
290 11.2682 11.3653 11.3811 0.5
291 10.1155 6.10266 1.87569 0.5
292 9.69055 10.1131 4.60588 0.5
293 0.945146 6.90762 1.17137 0.5
294 0.295937 6.17199 9.27667 0.5
295 5.98257 10.3397 12.4006 0.5
296 2.40025 9.80504 3.56088 0.5
297 1.80973 3.24472 12.2321 0.5
298 7.91818 3.30353 9.72054 0.5
299 0.652149 4.60495 2.32456 0.5
300 0.991309 7.95997 1.31779 0.5
301 3.47052 12.087 2.47782 0.5
302 11.8126 1.49201 11.9717 0.5
303 11.0793 0.0493521 12.4819 0.5
304 11.4368 6.63363 8.39879 0.5
305 10.9748 13.5548 11.6016 0.5
306 3.06589 5.74692 12.7845 0.5
307 5.80292 3.01502 6.3751 0.5
308 1.90705 0.921446 6.84112 0.5
309 12.8189 8.78451 0.0192065 0.5
310 6.3037 9.99652 2.27798 0.5
311 1.90226 2.43933 6.33097 0.5
312 13.3413 5.58908 9.48945 0.5
313 9.72305 7.30903 11.5986 0.5
314 7.14328 8.80155 5.33499 0.5
315 12.6609 9.99365 3.15142 0.5
316 5.03353 5.12258 2.70689 0.5
317 0.8748 11.0071 12.6296 0.5
318 0.569245 10.3951 10.6616 0.5
319 1.85294 0.957937 7.92232 0.5
320 8.90825 3.83521 6.78359 0.5
321 0.0327037 10.094 8.62809 0.5
322 3.9502 1.74375 0.782997 0.5
323 8.94142 3.52382 10.2087 0.5
324 9.57347 12.4434 13.3281 0.5
325 0.831891 8.20596 11.7864 0.5
326 12.9782 8.02776 9.99324 0.5
327 7.91337 9.6583 5.38524 0.5
328 2.22245 6.88667 2.35981 0.5
329 11.9502 12.2539 10.4537 0.5
330 2.52901 9.89578 9.69903 0.5
331 4.93051 6.09125 8.29047 0.5
332 5.82501 7.53486 3.9875 0.5
333 2.54865 8.7439 4.82696 0.5
334 10.9683 4.99164 12.3258 0.5
335 6.69715 2.71368 11.5841 0.5
336 12.3328 2.33423 2.98643 0.5
337 10.4718 8.02004 12.3241 0.5
338 0.529641 4.62996 5.05103 0.5
339 8.77908 4.05865 12.9519 0.5
340 5.63327 3.76445 0.732945 0.5
341 0.896452 0.0409175 3.70183 0.5
342 1.55044 1.79445 10.1897 0.5
343 3.61659 10.2472 1.92953 0.5
344 13.0687 6.21228 9.08108 0.5
345 12.0844 4.50722 12.3542 0.5
346 3.78996 7.77343 12.683 0.5
347 13.4937 1.62873 3.37922 0.5
348 4.68879 12.8449 3.47439 0.5
349 0.652768 6.63186 5.48706 0.5
350 0.00535029 13.4697 2.85242 0.5
351 12.78 11.4236 7.03076 0.5
352 0.595883 2.08608 5.96819 0.5
353 5.83177 1.48969 9.46887 0.5
354 4.28173 0.24578 10.2283 0.5
355 4.68339 0.167928 10.7971 0.5
356 6.21307 0.589412 9.08676 0.5
357 9.29352 8.62171 4.17376 0.5
358 9.42913 4.12934 6.22692 0.5
359 6.34628 8.13361 5.78597 0.5
360 5.78095 6.89486 3.66659 0.5
361 3.67896 4.05437 9.3227 0.5
362 5.39557 11.3334 3.19299 0.5
363 3.33353 1.95706 5.48504 0.5
364 7.07233 1.54781 13.1908 0.5
365 6.19393 5.92328 8.90144 0.5
366 2.03936 6.98532 6.61734 0.5
367 5.91862 4.72944 4.13249 0.5
368 9.34495 9.54846 7.41771 0.5
369 4.10784 10.5255 1.48191 0.5
370 0.328092 11.9221 11.9118 0.5
371 3.36471 6.35318 8.78076 0.5
372 7.87995 0.524993 10.4341 0.5
373 3.16387 2.64424 12.62 0.5
374 7.76265 9.80152 12.1704 0.5
375 9.88169 12.6636 5.17959 0.5
376 5.63333 0.295618 12.436 0.5
377 8.40713 4.96321 13.37 0.5
378 1.48188 2.36447 4.61736 0.5
379 11.3575 4.0589 9.38366 0.5
380 5.10169 4.326 8.9702 0.5
381 6.56888 11.4089 5.74892 0.5
382 5.88448 2.71027 1.13997 0.5
383 8.81349 6.01837 3.21051 0.5
384 8.31501 4.8821 7.95913 0.5
385 7.19334 6.26295 3.94253 0.5
386 13.0826 9.76163 5.9007 0.5
387 1.85784 7.02761 10.8265 0.5
388 12.9587 7.57052 2.34082 0.5
389 12.6803 1.05107 11.5741 0.5
390 11.2611 4.47521 6.31131 0.5
391 11.8702 7.10546 6.15759 0.5
392 1.31422 8.21261 8.80477 0.5
393 2.25069 6.3795 9.16781 0.5
394 11.4072 4.96784 11.2372 0.5
395 11.593 11.5911 10.035 0.5
396 0.729576 13.0932 9.98765 0.5
397 6.89827 8.80746 3.66329 0.5
398 2.96428 4.26264 2.53348 0.5
399 10.7722 9.96381 7.33644 0.5
400 4.76413 7.43281 11.3609 0.5
401 3.1859 0.975074 10.4307 0.5
402 2.7427 4.59005 7.71261 0.5
403 11.5919 5.17991 2.84912 0.5
404 6.88775 6.43794 2.16783 0.5
405 7.18014 2.59462 1.85858 0.5
406 3.43187 8.43007 2.68827 0.5
407 6.71804 13.4453 11.708 0.5
408 5.60624 7.38233 10.308 0.5
409 11.039 8.93998 2.56079 0.5
410 4.14533 7.43314 5.67342 0.5
411 5.05265 2.48091 12.4474 0.5
412 8.42522 9.84907 3.38465 0.5
413 2.78698 13.0986 6.62406 0.5
414 1.96762 11.4297 8.0149 0.5
415 0.756834 7.25172 5.41948 0.5
416 11.2913 7.63356 3.81461 0.5
417 7.56605 7.24485 7.31047 0.5
418 4.94994 11.2136 4.78163 0.5
419 10.6202 4.64157 8.05567 0.5
420 4.81293 2.88175 1.15797 0.5
421 5.60126 12.3639 12.2262 0.5
422 13.387 10.7453 11.7741 0.5
423 12.8234 5.80696 9.45279 0.5
424 8.34376 1.64194 5.75999 0.5
425 9.31467 10.374 6.12492 0.5
426 9.76406 1.3662 7.9807 0.5
427 0.678071 5.28579 0.607876 0.5
428 3.85479 6.58729 3.67717 0.5
429 7.71186 8.50097 12.777 0.5
430 3.7432 10.8341 4.48147 0.5
431 11.1137 6.10605 1.21485 0.5
432 3.83017 7.34031 2.07012 0.5
433 11.8358 3.40002 4.58816 0.5
434 5.46478 8.51702 5.96753 0.5
435 9.76944 8.29218 7.70995 0.5
436 0.131423 4.64041 13.4052 0.5
437 0.714183 3.05594 0.991322 0.5
438 13.2106 1.50213 5.97518 0.5
439 11.6874 4.78606 12.2917 0.5
440 13.1046 0.132531 6.74066 0.5
441 12.5815 4.30576 3.40438 0.5
442 0.282087 7.16048 1.53748 0.5
443 9.67744 11.353 11.0588 0.5
444 12.7123 11.1584 4.41823 0.5
445 3.81514 4.75235 6.86449 0.5
446 0.270995 7.73377 7.37995 0.5
447 12.532 12.0776 4.60701 0.5
448 13.0984 10.4037 12.0964 0.5
449 11.5228 4.23211 2.25361 0.5
450 8.23984 10.8423 4.61261 0.5
451 6.57412 3.50244 12.3682 0.5
452 11.5713 10.3081 5.21897 0.5
453 3.9144 7.96201 7.47767 0.5
454 10.0878 7.65327 4.49701 0.5
455 13.093 0.690649 1.37232 0.5
456 1.48538 2.7736 3.37017 0.5
457 8.17187 2.14916 0.482947 0.5
458 12.6653 9.91725 8.44756 0.5
459 5.53699 5.63516 11.1586 0.5
460 5.79081 9.48199 10.4979 0.5
461 4.07096 11.0111 10.4772 0.5
462 9.25304 6.51845 12.9583 0.5
463 6.12433 6.33714 0.813591 0.5
464 5.76475 3.37924 8.16933 0.5
465 12.7328 5.88896 7.49865 0.5
466 12.0239 9.11556 5.30873 0.5
467 8.20294 0.421032 11.753 0.5
468 5.31274 9.55739 4.05861 0.5
469 1.30958 7.76701 12.4755 0.5
470 1.83872 2.25799 7.15531 0.5
471 1.76536 13.5013 9.26179 0.5
472 3.134 8.97387 9.28374 0.5
473 7.07211 9.3789 9.50353 0.5
474 3.28824 1.94707 8.08858 0.5
475 11.3203 8.49791 12.0416 0.5
476 8.18067 6.47541 3.12596 0.5
477 4.43611 1.05879 10.9605 0.5
478 1.09816 2.36047 11.2276 0.5
479 9.08056 8.49454 4.91125 0.5
480 7.44549 5.94181 5.65047 0.5
481 3.34517 0.0524561 6.06349 0.5
482 2.85222 10.0444 7.07949 0.5
483 5.75933 2.77204 3.65641 0.5
484 8.54839 4.84024 11.7174 0.5
485 5.70507 5.48349 11.424 0.5
486 8.31451 4.74419 8.31584 0.5
487 9.7564 2.54638 10.8965 0.5
488 12.0329 7.52114 6.17226 0.5
489 3.36812 12.8541 12.5487 0.5
490 6.51704 1.43705 2.61246 0.5
491 12.9344 3.24588 9.66714 0.5
492 6.5802 12.2322 5.28864 0.5
493 7.34191 4.05929 0.858653 0.5
494 6.14653 7.48381 10.0545 0.5
495 10.8899 10.247 10.364 0.5
496 0.731443 4.38869 5.94545 0.5
497 7.96738 2.39949 9.44388 0.5
498 7.83122 1.22298 4.50315 0.5
499 1.43017 1.71725 12.7215 0.5
500 3.53739 2.3228 0.371943 0.5
501 3.9004 9.77391 5.67337 0.5
502 1.97829 6.62289 10.177 0.5
503 0.612231 13.0579 4.09271 0.5
504 7.77754 4.93531 8.45547 0.5
505 8.74829 9.54394 9.59156 0.5
506 6.24507 11.5858 7.66363 0.5
507 9.32653 4.01701 9.24077 0.5
508 2.02546 10.6123 0.943033 0.5
509 1.73422 2.51907 4.53384 0.5
510 6.63853 3.50146 9.04288 0.5
511 4.47975 7.9711 6.7639 0.5
512 10.2458 12.7444 12.7683 0.5
513 6.41114 13.5163 1.45894 0.5
514 10.772 0.312133 3.48094 0.5
515 10.258 11.7176 7.2794 0.5
516 1.86299 2.36138 3.44668 0.5
517 6.33791 6.68194 11.4477 0.5
518 2.01431 11.7627 9.58562 0.5
519 10.5062 7.10527 8.08277 0.5
520 9.50731 4.40507 0.698124 0.5
521 0.156269 1.08073 12.8775 0.5
522 2.48507 10.7025 3.44826 0.5
523 2.27083 9.11063 3.86346 0.5
524 0.402376 1.56478 1.89171 0.5
525 1.53536 12.3299 5.29797 0.5
526 5.98055 11.8693 3.19714 0.5
527 5.40016 8.61549 8.72276 0.5
528 5.57833 3.62629 2.58983 0.5
529 12.2043 11.8327 3.99853 0.5
530 0.0065328 0.333081 2.139 0.5
531 6.40741 4.98408 3.18115 0.5
532 3.69987 1.08551 5.37869 0.5
533 12.6351 8.05579 2.67028 0.5
534 0.398029 9.51009 6.70541 0.5
535 11.7576 1.51463 1.95652 0.5
536 5.70863 3.0456 7.87752 0.5
537 5.65045 1.50767 11.2187 0.5
538 3.4526 9.16106 3.94991 0.5
539 9.64241 3.12459 13.5357 0.5
540 4.58051 2.54065 13.489 0.5
541 3.84419 13.2617 2.99669 0.5
542 13.1931 10.7764 9.96072 0.5
543 0.423987 6.32394 10.1142 0.5
544 5.32709 6.8751 9.73583 0.5
545 13.4047 9.74797 0.506223 0.5
546 0.950124 11.8769 9.01729 0.5
547 9.36987 7.60548 7.70007 0.5
548 0.860199 1.65114 10.565 0.5
549 13.5478 2.76405 3.57427 0.5
550 1.51044 6.24839 9.69842 0.5
551 5.97764 4.25932 8.83024 0.5
552 3.32327 10.0859 7.54518 0.5
553 7.34576 5.67904 9.8645 0.5
554 4.64066 6.28448 11.3901 0.5
555 0.918353 7.76381 8.4979 0.5
556 13.0455 3.09563 6.88972 0.5
557 0.964209 0.738485 9.84456 0.5
558 9.31959 12.0444 0.891703 0.5
559 8.69222 8.26313 2.11962 0.5
560 5.22893 8.94528 2.13637 0.5
561 11.9433 8.96743 5.25467 0.5
562 12.3056 1.24465 7.8462 0.5
563 5.52878 0.345117 1.02488 0.5
564 3.26933 2.58028 2.03509 0.5
565 0.521651 13.3706 9.99456 0.5
566 10.0304 5.70299 12.0229 0.5
567 6.20226 2.33222 6.32459 0.5
568 10.9245 10.0445 6.42259 0.5
569 8.49117 4.59636 6.65918 0.5
570 6.82419 0.489436 7.50608 0.5
571 4.50838 2.09809 7.98254 0.5
572 1.44909 10.0208 8.31094 0.5
573 7.60075 11.6128 1.68335 0.5
574 4.73349 4.21915 7.71045 0.5
575 6.97311 6.49235 5.17406 0.5
576 12.7286 9.63324 12.2161 0.5
577 4.33519 5.69975 6.95944 0.5
578 7.15179 11.0993 7.41112 0.5
579 13.1945 0.473209 2.16305 0.5
580 4.8283 7.9114 8.99134 0.5
581 7.7038 8.01945 10.6524 0.5
582 12.5863 5.09472 0.894479 0.5
583 7.32467 10.6248 8.43563 0.5
584 10.711 11.1447 3.96493 0.5
585 3.11275 9.06471 5.465 0.5
586 1.96106 12.4648 0.39092 0.5
587 1.02962 6.38866 8.16425 0.5
588 13.3222 2.57124 6.76864 0.5
589 5.36883 4.48195 11.9972 0.5
590 9.86045 12.9231 11.8619 0.5
591 12.9331 11.1535 4.82585 0.5
592 11.3726 1.21456 4.31608 0.5
593 4.43214 1.91162 10.4316 0.5
594 4.39368 9.6756 9.50688 0.5
595 2.43112 7.15452 2.25401 0.5
596 0.00789292 6.3457 9.77919 0.5
597 0.521715 7.25017 5.14346 0.5
598 3.46174 9.86351 5.30784 0.5
599 4.82499 2.12407 3.12885 0.5
600 9.16966 11.6239 1.05371 0.5
601 7.0384 13.1415 6.30786 0.5
602 11.5257 4.23765 5.38781 0.5
603 4.26513 1.9564 13.3452 0.5
604 0.880773 10.1802 8.37002 0.5
605 11.031 5.8719 7.76003 0.5
606 6.46128 4.70733 5.75536 0.5
607 0.724784 2.40287 2.63294 0.5
608 6.50337 6.65205 1.0306 0.5
609 10.0753 7.99862 11.7682 0.5
610 6.00819 11.8173 10.9254 0.5
611 3.34134 5.70368 1.86684 0.5
612 5.19592 7.49799 2.1678 0.5
613 5.94189 7.56781 9.34585 0.5
614 13.0622 5.34849 13.1725 0.5
615 0.761316 10.3774 1.35281 0.5
616 9.4918 12.0934 7.16843 0.5
617 0.297903 3.83264 10.4253 0.5
618 6.76275 12.8209 11.9704 0.5
619 0.82747 9.31652 7.09297 0.5
620 11.0457 6.51461 1.16817 0.5
621 3.93455 4.73782 10.2977 0.5
622 4.34578 13.4298 7.42073 0.5
623 2.97193 1.96065 5.54518 0.5
624 1.99587 3.85822 10.9635 0.5
625 2.1484 10.7059 12.2952 0.5
626 7.78141 2.50144 0.829381 0.5
627 3.44101 4.27644 1.14675 0.5
628 2.02675 4.04979 8.88892 0.5
629 13.0961 7.20541 8.96124 0.5
630 5.45552 8.06909 12.2077 0.5
631 10.7254 5.37963 0.452364 0.5
632 7.18719 1.99843 11.9582 0.5
633 8.11176 1.97477 1.26301 0.5
634 12.1448 7.70795 4.91816 0.5
635 1.21869 8.86645 9.68823 0.5
636 9.57659 0.0882336 0.671989 0.5
637 12.0308 7.62255 5.6834 0.5
638 9.22935 0.734567 4.5134 0.5
639 12.8087 4.51961 0.470643 0.5
640 1.5972 11.8959 5.13931 0.5
641 2.65289 0.0546013 2.00544 0.5
642 5.52014 1.51003 13.0095 0.5
643 4.61806 10.1956 9.287 0.5
644 2.06575 7.22416 7.60379 0.5
645 6.13767 2.23366 9.28506 0.5
646 10.755 7.24031 2.11272 0.5
647 0.356005 12.4132 2.19735 0.5
648 1.74608 8.16975 12.1017 0.5
649 12.7482 9.48477 9.42347 0.5
650 7.25679 8.43255 12.261 0.5
651 2.54901 12.2924 3.96139 0.5
652 6.13171 3.86431 13.5562 0.5
653 9.56184 6.72733 7.02834 0.5
654 2.14753 9.56369 9.03789 0.5
655 11.1723 7.79104 11.5302 0.5
656 12.0748 6.15193 9.31656 0.5
657 13.4738 0.374188 3.11866 0.5
658 5.6537 2.72888 12.3242 0.5
659 5.6353 12.1925 4.67899 0.5
660 5.7633 2.32854 12.6899 0.5
661 13.1213 1.98561 6.20415 0.5
662 12.2205 11.7654 12.5083 0.5
663 9.42441 0.90247 4.24271 0.5
664 11.6462 10.4917 5.5981 0.5
665 2.75118 10.1843 4.16398 0.5
666 12.5113 2.81586 5.37366 0.5
667 8.55816 3.26674 7.25713 0.5
668 7.92938 1.1017 10.1383 0.5
669 10.6499 6.8957 4.87275 0.5
670 2.12336 6.41895 9.86209 0.5
671 4.08897 12.5687 12.6319 0.5
672 4.73777 4.39198 5.88439 0.5
673 5.83265 3.16401 11.5259 0.5
674 8.54277 11.9324 1.8482 0.5
675 8.27872 2.46623 1.32615 0.5
676 1.24813 9.65021 8.89244 0.5
677 1.42827 5.24028 3.83172 0.5
678 7.81217 11.4234 6.69138 0.5
679 7.72446 13.2954 1.26967 0.5
680 8.66317 7.05881 4.8221 0.5
681 4.73039 7.09454 13.3019 0.5
682 8.79623 2.81739 8.79264 0.5
683 5.92973 11.3197 6.70179 0.5
684 9.07605 12.146 11.9191 0.5
685 11.4682 6.87366 13.4355 0.5
686 9.27049 13.2414 4.31452 0.5
687 3.0246 8.93075 12.7906 0.5
688 7.45268 1.06892 9.84702 0.5
689 13.3559 2.18724 13.3559 0.5
690 6.11774 2.62679 8.13003 0.5
691 10.6779 5.93475 2.8367 0.5
692 6.33272 10.3195 6.80669 0.5
693 8.6024 3.1193 2.36383 0.5
694 5.92447 6.84195 12.182 0.5
695 6.07165 9.67699 7.03898 0.5
696 0.844324 2.3273 3.56691 0.5
697 13.2585 2.79707 2.56257 0.5
698 7.45402 12.2399 12.6785 0.5
699 13.5668 10.0003 9.26616 0.5
700 6.08995 1.03959 1.75386 0.5
701 6.71044 8.27057 12.3458 0.5
702 9.89275 12.7137 4.89527 0.5
703 11.3211 9.38679 4.28251 0.5
704 2.85638 8.59284 8.49738 0.5
705 10.6641 8.29815 4.46831 0.5
706 4.86743 6.28227 0.995997 0.5
707 8.89743 3.32457 10.7444 0.5
708 12.5511 8.73987 2.98448 0.5
709 1.38353 12.9836 8.13472 0.5
710 0.275514 3.15282 1.54072 0.5
711 1.73158 0.778489 6.15082 0.5
712 6.20033 10.467 3.82608 0.5
713 13.1703 7.78774 1.33263 0.5
714 1.24766 10.6793 8.91868 0.5
715 10.2001 12.1447 12.75 0.5
716 10.1096 11.1593 10.5212 0.5
717 1.4736 4.9762 6.52176 0.5
718 4.86894 8.64521 4.43204 0.5
719 7.26554 10.8779 1.48019 0.5
720 0.0781348 2.14228 4.45501 0.5
721 6.08816 2.66467 1.05567 0.5
722 4.8085 8.85843 13.1096 0.5
723 9.45507 12.1157 8.16351 0.5
724 10.2051 3.44466 5.19994 0.5
725 1.31516 13.4542 10.5433 0.5
726 2.85469 8.46509 10.5155 0.5
727 11.7605 9.78893 0.865084 0.5
728 7.43743 4.70506 5.82866 0.5
729 7.04644 13.0343 9.24974 0.5
730 4.5998 12.2928 12.9687 0.5
731 4.91879 9.95157 11.6994 0.5
732 3.84888 1.87867 7.42771 0.5
733 7.62775 5.79867 5.79397 0.5
734 1.63078 13.2223 8.21462 0.5
735 2.05301 10.4015 1.1563 0.5
736 1.72396 9.95158 5.62676 0.5
737 7.65207 6.87168 6.1153 0.5
738 4.30666 7.67097 1.10644 0.5
739 3.9273 4.54544 11.908 0.5
740 5.15998 2.23964 5.65259 0.5
741 8.40455 7.01445 4.10596 0.5
742 2.82126 7.13755 4.58783 0.5
743 7.20926 3.47633 10.0027 0.5
744 8.81221 12.0607 2.79868 0.5
745 7.22537 9.7537 1.55878 0.5
746 8.6332 11.4587 5.23237 0.5
747 0.255913 1.07529 8.30012 0.5
748 8.60614 9.85236 10.4033 0.5
749 5.17462 9.15906 12.4621 0.5
750 10.9954 4.47527 9.08412 0.5
751 12.2389 9.27992 6.96424 0.5
752 3.46992 9.63518 2.19056 0.5
753 12.0848 1.7137 8.9973 0.5
754 7.91712 11.2457 3.46059 0.5
755 6.169 10.7691 1.36256 0.5
756 10.7102 4.90158 4.36153 0.5
757 8.15641 3.27282 2.21511 0.5
758 7.99009 2.85908 2.91685 0.5
759 0.805517 12.0391 4.74211 0.5
760 12.9507 5.48463 9.56888 0.5
761 9.74588 3.41136 12.3945 0.5
762 9.07449 3.54746 11.308 0.5
763 7.27991 6.92643 8.86472 0.5
764 9.8331 4.28376 3.83937 0.5
765 4.25174 0.585377 9.40445 0.5
766 11.4639 7.79084 13.5142 0.5
767 9.03852 8.79977 5.02948 0.5
768 10.8447 5.30224 4.77522 0.5
769 7.62725 11.7935 13.2639 0.5
770 10.1487 7.12986 5.30629 0.5
771 8.26563 9.36893 13.4439 0.5
772 1.78706 4.27073 1.30875 0.5
773 7.40272 11.6293 10.0864 0.5
774 13.3778 5.18267 11.996 0.5
775 12.2898 0.0308622 2.49795 0.5
776 7.51024 5.21771 7.93313 0.5
777 11.4587 11.3632 0.752491 0.5
778 10.8586 8.22785 0.761079 0.5
779 9.01837 12.8507 0.496415 0.5
780 0.583365 5.33782 7.0581 0.5
781 1.10226 11.1296 1.17906 0.5
782 9.99655 0.935033 6.19951 0.5
783 11.308 12.4076 11.1303 0.5
784 1.07192 8.78398 4.85904 0.5
785 10.0537 3.06529 0.739362 0.5
786 9.05305 12.1322 5.20549 0.5
787 13.3679 4.46906 5.6987 0.5
788 8.46981 6.17407 10.8416 0.5
789 1.68001 12.5908 12.4583 0.5
790 2.38038 1.42953 8.9208 0.5
791 7.77653 4.04814 9.5016 0.5
792 5.24771 2.41592 8.8522 0.5
793 6.26198 7.54361 10.5642 0.5
794 6.04158 7.04419 9.59441 0.5
795 11.7723 3.13574 8.65221 0.5
796 7.48505 10.2603 8.96414 0.5
797 3.42342 13.4995 4.70247 0.5
798 9.17049 3.90594 9.65361 0.5
799 7.4874 4.23528 7.86713 0.5
800 8.44005 3.58801 6.53185 0.5
801 7.50049 4.07997 11.5671 0.5
802 9.30566 9.6414 6.77444 0.5
803 5.72543 5.04173 1.11232 0.5
804 9.58714 12.0026 0.735153 0.5
805 2.82555 0.599712 5.01245 0.5
806 10.8253 5.55365 0.0400221 0.5
807 11.2464 12.8609 1.24723 0.5
808 12.425 4.534 0.690732 0.5
809 9.91012 10.4949 11.0861 0.5
810 5.22324 0.0254075 4.0363 0.5
811 5.62507 6.13158 6.15387 0.5
812 2.08085 5.20051 2.72368 0.5
813 6.43297 10.6513 9.74011 0.5
814 10.4533 9.37947 8.17084 0.5
815 0.137148 9.90567 2.56458 0.5
816 8.25675 11.3223 3.55405 0.5
817 12.1267 11.2782 0.251264 0.5
818 7.97785 4.89672 2.2188 0.5
819 7.67205 2.80603 10.6783 0.5
820 6.89876 2.62049 8.2989 0.5
821 6.91122 13.5686 9.55114 0.5
822 11.6971 1.87845 10.2086 0.5
823 8.35022 11.5156 10.9688 0.5
824 5.89309 2.6438 1.86351 0.5
825 9.80044 3.09994 4.87201 0.5
826 7.24493 5.49176 12.2015 0.5
827 8.63466 2.35955 1.49735 0.5
828 10.9464 11.7182 5.46371 0.5
829 10.9672 5.06939 12.9352 0.5
830 2.57848 9.15171 0.886137 0.5
831 7.6211 1.80992 5.9991 0.5
832 11.3801 10.8907 7.44791 0.5
833 6.82718 3.89729 7.70379 0.5
834 11.2502 2.15029 4.96604 0.5
835 11.3363 11.6463 0.0841206 0.5
836 7.87171 13.268 10.2961 0.5
837 5.18774 12.2961 0.733197 0.5
838 8.41897 7.3382 8.93236 0.5
839 6.76124 11.2271 11.7149 0.5
840 1.11302 6.77692 8.44008 0.5
841 0.87502 6.21825 0.0860589 0.5
842 13.4888 7.37613 6.43673 0.5
843 10.5693 8.10365 6.37042 0.5
844 10.8854 13.0521 5.32975 0.5
845 5.10469 8.13263 13.4218 0.5
846 9.00129 0.223671 8.76276 0.5
847 2.8568 11.6343 5.82566 0.5
848 3.16605 2.01344 6.03102 0.5
849 12.8496 4.34614 0.195302 0.5
850 13.1501 8.1274 1.48506 0.5
851 7.06949 9.27905 2.85131 0.5
852 11.1806 6.78173 10.9079 0.5
853 0.34524 3.24869 10.2201 0.5
854 1.1962 0.54819 0.232554 0.5
855 3.85675 7.27016 5.51958 0.5
856 11.879 5.60905 4.71177 0.5
857 2.59354 6.94728 6.87484 0.5
858 12.1324 0.127474 5.17947 0.5
859 2.2726 0.502309 10.6881 0.5
860 13.2725 2.16648 10.2389 0.5
861 12.8108 11.4061 5.52236 0.5
862 9.16493 9.99058 9.02577 0.5
863 5.73395 10.6692 1.80339 0.5
864 2.82016 1.16711 6.72756 0.5
865 10.6811 3.68721 7.33668 0.5
866 0.933639 3.42954 5.07821 0.5
867 5.34234 1.66785 9.30199 0.5
868 4.34282 11.4058 1.06866 0.5
869 10.2513 7.61347 7.39449 0.5
870 1.27996 12.0021 6.03796 0.5
871 9.42281 5.62516 4.75037 0.5
872 7.92082 1.07097 7.15279 0.5
873 3.96098 12.2263 4.00155 0.5
874 3.26699 6.80605 12.2643 0.5
875 0.0914332 7.62066 13.1226 0.5
876 3.19522 13.2452 4.30477 0.5
877 7.68494 6.13777 10.1274 0.5
878 0.742359 13.3884 13.0612 0.5
879 9.47444 2.27059 13.1283 0.5
880 5.74375 6.78587 2.15101 0.5
881 11.645 10.7931 8.57444 0.5
882 0.195908 10.2224 13.2842 0.5
883 3.38531 7.38886 8.03138 0.5
884 11.844 8.39678 9.80267 0.5
885 6.71249 1.38816 11.0783 0.5
886 0.982647 13.1607 11.6037 0.5
887 3.182 11.0601 3.40604 0.5
888 5.29586 5.04111 9.59616 0.5
889 7.11786 4.84499 8.39822 0.5
890 4.50409 2.07367 9.0699 0.5
891 5.96873 8.52941 10.27 0.5
892 0.766892 10.0001 4.47204 0.5
893 6.90949 12.0761 9.21703 0.5
894 8.71277 0.798469 7.43213 0.5
895 11.4091 10.3901 2.11565 0.5
896 1.12114 4.90931 9.73147 0.5
897 4.43729 7.49009 5.73099 0.5
898 6.56979 1.60369 12.7937 0.5
899 12.7633 10.1758 9.07486 0.5
900 8.13833 3.33982 8.7277 0.5
901 9.31483 11.1619 12.0851 0.5
902 0.0529105 4.73587 3.13937 0.5
903 2.9837 9.80328 1.8083 0.5
904 7.32138 11.4877 12.4974 0.5
905 7.15307 6.85097 9.05822 0.5
906 5.39169 9.64359 5.7862 0.5
907 12.2634 9.89398 11.4234 0.5
908 5.15201 7.06038 1.30019 0.5
909 9.70191 5.89359 10.9046 0.5
910 0.475531 8.38002 11.3793 0.5
911 2.28179 2.10702 11.8684 0.5
912 1.97153 7.68289 7.89812 0.5
913 8.92711 6.2018 7.46785 0.5
914 4.95608 4.23351 10.0076 0.5
915 8.8172 9.19553 13.2907 0.5
916 1.10621 3.66748 4.57713 0.5
917 7.60134 7.40408 10.2262 0.5
918 0.316031 12.6602 5.31614 0.5
919 7.7923 9.0246 1.69284 0.5
920 11.0957 9.3931 10.2402 0.5
921 9.12709 7.24238 8.92018 0.5
922 0.854005 4.7969 4.37696 0.5
923 9.36764 6.42492 1.52666 0.5
924 7.32206 11.3697 10.1943 0.5
925 9.71772 4.28826 4.61089 0.5
926 12.4072 13.4316 8.42247 0.5
927 9.11279 13.4757 6.94774 0.5
928 4.95237 9.40837 0.149722 0.5
929 1.26545 11.8112 10.762 0.5
930 1.13214 8.88574 11.89 0.5
931 8.88422 7.44575 10.1117 0.5
932 6.23894 13.2326 4.69324 0.5