ITEM: TIMESTEP
210000
ITEM: NUMBER OF ATOMS
1000
ITEM: BOX BOUNDS xy xz yz pp pp pp
0.0000000000000000e+00 1.3572088000000001e+01 0.0000000000000000e+00
0.0000000000000000e+00 1.3572088000000001e+01 0.0000000000000000e+00
0.0000000000000000e+00 1.3572088000000001e+01 0.0000000000000000e+00
ITEM: ATOMS id x y z radius
1 8.42551 2.95236 3.68903 0.5
2 4.55533 10.1456 9.27167 0.5
3 6.79149 9.15805 3.4712 0.5
4 5.42636 4.51563 0.505873 0.5
5 10.3415 4.4758 4.62638 0.5
6 6.75323 11.228 10.2375 0.5
7 8.55509 4.1984 7.67764 0.5
8 10.9868 5.34434 2.69642 0.5
9 4.93657 7.6394 0.501021 0.5
10 3.26824 5.79816 8.03813 0.5
11 9.99205 10.8888 6.3563 0.5
12 5.25397 8.58554 11.1634 0.5
13 7.64907 9.39242 12.5441 0.5
14 10.1068 11.5573 5.75823 0.5
15 1.51948 2.98785 2.52222 0.5
16 3.00814 9.18612 13.0192 0.5
17 9.81549 1.73662 7.02773 0.5
18 7.5871 10.092 10.8324 0.5
19 11.1219 1.76643 8.83137 0.5
20 2.63198 12.4313 13.058 0.5
21 0.0156519 2.94734 12.2335 0.5
22 4.91092 3.73538 11.5892 0.5
23 12.73 0.190173 5.48555 0.5
24 1.84577 3.70071 3.53495 0.5
25 1.32491 12.0992 3.69294 0.5
26 11.5543 3.56124 13.3639 0.5
27 0.716769 7.66125 10.0341 0.5
28 0.199308 7.60976 11.9837 0.5
29 7.34873 0.378477 10.8807 0.5
30 6.90156 7.76102 6.42538 0.5
31 9.52103 3.29352 6.4984 0.5
32 5.69536 7.2954 2.77631 0.5
33 2.50552 7.43947 10.0002 0.5
34 5.14828 13.0762 13.3226 0.5
35 12.6601 8.74464 3.84112 0.5
36 2.9783 5.79618 11.5527 0.5
37 1.56445 11.7785 3.26565 0.5
38 7.79328 9.17928 9.72188 0.5
39 6.76648 1.55192 8.30819 0.5
40 5.74727 2.52385 7.23009 0.5
41 8.72684 13.5324 6.04522 0.5
42 13.056 13.1031 1.93257 0.5
43 6.58128 8.69511 5.65848 0.5
44 0.293464 4.62068 11.518 0.5
45 5.028 0.0216201 6.57444 0.5
46 10.625 1.29188 1.1975 0.5
47 8.52432 2.27301 7.42398 0.5
48 2.14818 2.92365 3.84507 0.5
49 7.63906 11.0807 4.26516 0.5
50 12.7671 1.71321 1.24582 0.5
51 11.8585 12.8094 12.7313 0.5
52 6.82057 13.4436 6.21499 0.5
53 13.3849 7.97472 0.0560632 0.5
54 9.70785 13.4498 5.4606 0.5
55 11.5984 3.61774 6.94974 0.5
56 8.72811 13.2228 5.13577 0.5
57 11.9375 2.49584 5.68083 0.5
58 4.86974 7.421 2.02618 0.5
59 9.49528 8.50549 1.75191 0.5
60 5.26599 3.5139 11.2489 0.5
61 2.26741 2.56776 11.3041 0.5
62 0.607475 1.7993 9.79452 0.5
63 1.33484 4.67861 0.294261 0.5
64 0.232581 0.705725 11.2485 0.5
65 9.89617 3.73951 0.230577 0.5
66 6.87025 7.97799 13.3984 0.5
67 10.7526 12.9697 12.1019 0.5
68 11.3159 8.91697 0.883936 0.5
69 8.48283 3.34836 0.969664 0.5
70 9.05615 13.1139 2.16309 0.5
71 6.16967 8.15392 3.86289 0.5
72 11.4244 4.91369 1.32454 0.5
73 6.77232 10.3779 8.53472 0.5
74 5.42115 2.59859 10.8332 0.5
75 4.20508 5.65684 9.48526 0.5
76 0.64636 9.85382 8.93229 0.5
77 10.3196 1.42555 7.55943 0.5
78 11.9457 10.006 10.6883 0.5
79 7.19112 1.75522 7.14279 0.5
80 7.61094 2.70889 4.06221 0.5
81 3.77854 3.22909 8.24602 0.5
82 6.09509 9.80337 9.60379 0.5
83 6.57657 11.8197 4.52649 0.5
84 6.00067 1.32513 8.11114 0.5
85 12.2885 8.36883 0.0899339 0.5
86 0.881993 9.58555 4.74837 0.5
87 8.2037 0.193661 11.3102 0.5
88 10.9409 4.84735 9.16044 0.5
89 12.5059 1.4645 13.2369 0.5
90 10.8998 9.76402 6.0396 0.5
91 10.3278 6.02813 3.41424 0.5
92 10.3047 5.74706 10.6848 0.5
93 7.53071 4.71444 2.95945 0.5
94 8.99811 9.86958 5.74263 0.5
95 7.84436 4.14751 0.882984 0.5
96 8.80878 2.58569 6.82356 0.5
97 0.444719 2.01482 9.77821 0.5
98 0.653367 9.49505 3.2735 0.5
99 4.9254 2.30413 13.0089 0.5
100 11.1185 11.3387 6.01731 0.5
101 9.27743 11.9911 11.5068 0.5
102 5.63809 10.291 1.43268 0.5
103 1.06773 10.1166 1.59361 0.5
104 3.3165 10.5822 2.97297 0.5
105 2.51636 7.99512 2.56702 0.5
106 1.66922 12.2216 7.23378 0.5
107 3.76221 13.2281 2.73725 0.5
108 12.0743 4.27943 13.1445 0.5
109 6.93169 6.68895 3.95545 0.5
110 6.55124 11.8898 11.5454 0.5
111 10.1748 10.8239 1.37862 0.5
112 10.5023 6.57701 12.3685 0.5
113 9.87574 0.516035 8.96159 0.5
114 6.12185 4.69229 12.7264 0.5
115 11.1939 9.60779 2.04448 0.5
116 12.2245 9.29836 2.36174 0.5
117 0.979482 7.4608 8.4796 0.5
118 5.92052 0.299161 9.80952 0.5
119 2.29511 13.0463 2.45532 0.5
120 8.99576 8.22246 11.793 0.5
121 5.19986 13.192 6.6044 0.5
122 1.68638 7.89644 10.0775 0.5
123 0.884656 11.2262 3.28552 0.5
124 11.6846 7.93013 8.40219 0.5
125 2.91569 2.78294 2.16645 0.5
126 2.60224 9.61218 13.5237 0.5
127 2.44118 5.17194 2.97932 0.5
128 6.31874 2.93993 12.0261 0.5
129 10.9177 4.57299 7.70567 0.5
130 0.635467 3.49159 5.83851 0.5
131 1.75751 5.02226 12.2429 0.5
132 7.89372 7.49609 8.80892 0.5
133 5.20224 9.49356 0.68646 0.5
134 10.7519 1.96859 0.506933 0.5
135 1.59616 4.97505 2.51626 0.5
136 3.95489 13.466 8.49635 0.5
137 2.30709 3.43586 11.1506 0.5
138 2.73946 3.74532 1.74726 0.5
139 1.45715 13.2452 7.89357 0.5
140 4.07831 11.861 1.6372 0.5
141 6.89617 4.10457 9.79407 0.5
142 1.27992 2.58438 10.1246 0.5
143 3.61619 12.1953 9.46743 0.5
144 10.1614 7.55999 3.91902 0.5
145 9.39784 10.1911 8.78501 0.5
146 1.84203 13.2809 9.03775 0.5
147 7.16414 12.9779 2.09186 0.5
148 6.9148 4.78048 12.0373 0.5
149 10.7068 6.63505 10.2094 0.5
150 12.9953 6.22055 2.59899 0.5
151 12.9557 11.908 0.341269 0.5
152 11.2152 0.0277754 1.53796 0.5
153 7.25043 3.22517 12.5924 0.5
154 0.937589 12.0983 5.62792 0.5
155 12.3816 9.84264 9.66407 0.5
156 7.43988 4.15744 2.30814 0.5
157 6.79788 12.9128 3.41415 0.5
158 5.03701 12.4084 6.04101 0.5
159 5.61185 8.07866 9.55367 0.5
160 7.97707 1.40492 8.57895 0.5
161 1.72706 3.84013 13.3356 0.5
162 9.89991 13.4233 12.8159 0.5
163 7.39367 10.7012 12.1377 0.5
164 4.50863 1.3296 1.92563 0.5
165 8.12638 7.72342 5.22783 0.5
166 8.02704 2.68615 5.3852 0.5
167 4.03239 0.920187 12.1644 0.5
168 8.92107 10.0939 13.1076 0.5
169 0.454318 7.77762 9.2293 0.5
170 4.58806 10.5093 8.60919 0.5
171 13.335 8.96516 4.80273 0.5
172 9.94628 5.35417 2.96103 0.5
173 2.74382 8.44834 4.23261 0.5
174 0.232052 2.67806 8.35329 0.5
175 7.61264 8.53006 6.13867 0.5
176 12.2792 11.2723 5.602 0.5
177 5.26427 5.21432 8.54879 0.5
178 0.40747 11.0875 10.2277 0.5
179 13.5466 2.562 12.1081 0.5
180 11.6708 9.53787 12.2682 0.5
181 13.2687 0.534441 8.0362 0.5
182 0.755502 3.93686 6.33708 0.5
183 4.98832 9.52455 3.77258 0.5
184 1.56954 10.9706 10.0239 0.5
185 2.90169 0.155332 9.11752 0.5
186 1.73314 10.0943 3.94291 0.5
187 11.7141 11.5998 10.4401 0.5
188 2.56333 4.11326 3.47656 0.5
189 12.3632 1.35565 13.5702 0.5
190 12.4881 6.06404 3.05732 0.5
191 7.3578 12.6259 8.20576 0.5
192 7.62851 2.81567 9.31406 0.5
193 3.71602 1.74978 5.41235 0.5
194 3.39619 2.47728 9.95901 0.5
195 5.73446 2.16039 6.16264 0.5
196 0.760353 13.3709 2.14247 0.5
197 7.61726 2.8578 12.9496 0.5
198 12.5565 10.8424 13.1637 0.5
199 12.582 11.9189 3.38939 0.5
200 9.80223 6.21417 11.7056 0.5
201 10.911 9.18351 6.92606 0.5
202 6.99217 10.75 4.41987 0.5
203 1.87677 2.01169 8.31762 0.5
204 12.3237 10.7382 5.04926 0.5
205 11.6262 0.399855 12.3434 0.5
206 2.40529 11.1798 4.44551 0.5
207 3.19799 0.0937756 12.0087 0.5
208 8.67856 9.45138 3.24186 0.5
209 9.7072 1.14927 0.52791 0.5
210 10.5191 12.6095 5.6257 0.5
211 6.32733 13.2647 10.8289 0.5
212 3.92817 7.86734 7.6183 0.5
213 0.0832027 11.4395 7.64086 0.5
214 1.96778 6.67483 4.46384 0.5
215 1.98037 12.2266 8.52736 0.5
216 8.14118 5.21282 12.7482 0.5
217 9.00923 8.55736 9.11417 0.5
218 0.981853 7.42887 4.78146 0.5
219 6.24655 6.4085 12.0913 0.5
220 7.44013 6.49492 5.11989 0.5
221 5.80406 5.87317 6.1693 0.5
222 12.9951 6.72097 5.30332 0.5
223 3.39037 10.4465 5.80031 0.5
224 5.87523 3.41744 9.20105 0.5
225 3.81043 9.54602 12.7966 0.5
226 9.35733 7.9377 8.49732 0.5
227 8.44649 1.51669 4.67629 0.5
228 3.74016 8.56924 9.13045 0.5
229 7.57575 9.05899 1.53709 0.5
230 10.6365 12.5279 3.14113 0.5
231 6.98401 1.64565 10.1108 0.5
232 4.30873 4.66547 4.55867 0.5
233 11.8989 2.84248 1.61651 0.5
234 6.68698 1.84053 10.8641 0.5
235 6.50696 6.9375 0.807502 0.5
236 11.6938 8.01218 13.0206 0.5
237 9.87507 4.27043 1.15479 0.5
238 5.23403 10.2073 10.2553 0.5
239 2.8918 5.70372 5.15409 0.5
240 13.4563 11.604 4.08002 0.5
241 0.939881 8.53053 9.74787 0.5
242 2.41553 6.13741 7.08906 0.5
243 1.04152 2.16234 1.21957 0.5
244 4.38748 3.61989 7.14123 0.5
245 0.519686 9.17174 7.49088 0.5
246 7.3269 1.46323 8.35519 0.5
247 4.98922 4.5468 11.6406 0.5
248 8.16261 8.63375 5.2501 0.5
249 3.46334 0.731195 10.3987 0.5
250 4.78427 12.2764 3.61441 0.5
251 11.6328 12.0932 5.23386 0.5
252 8.42598 4.28279 3.96998 0.5
253 1.62786 11.8753 1.69609 0.5
254 11.3559 5.49369 11.9456 0.5
255 1.82039 8.15847 2.1019 0.5
256 4.52728 9.55684 1.42083 0.5
257 4.56908 7.75409 5.31307 0.5
258 5.38536 11.964 10.63 0.5
259 4.54882 4.83424 5.30063 0.5
260 11.7059 9.62295 3.20012 0.5
261 3.7257 5.96018 4.51931 0.5
262 9.72825 1.01872 4.8491 0.5
263 5.15217 5.55363 11.4222 0.5
264 1.01688 1.56157 2.07379 0.5
265 11.7405 6.01003 5.42559 0.5
266 10.9846 4.19773 10.1253 0.5
267 10.0422 9.01209 8.33018 0.5
268 6.49788 9.39229 12.2696 0.5
269 12.7575 6.47486 10.3761 0.5
270 12.8207 9.39313 5.11208 0.5
271 12.3645 13.4401 4.72439 0.5
272 11.0734 11.0466 5.61878 0.5
273 13.4695 10.8282 8.94457 0.5
274 1.24226 9.97842 5.629 0.5
275 12.3286 5.08232 3.88999 0.5
276 8.05033 5.07746 6.04378 0.5
277 4.30372 6.77032 9.86239 0.5
278 3.82421 13.4719 13.312 0.5
279 3.11127 11.8011 12.6392 0.5
280 7.55993 6.66604 1.86489 0.5
281 13.1415 12.7541 1.35285 0.5
282 6.27712 4.26901 7.61159 0.5
283 10.9533 6.06261 6.55238 0.5
284 10.2728 1.53232 6.27601 0.5
285 11.6606 5.90732 5.78883 0.5
286 4.24714 8.29292 12.7676 0.5
287 9.76668 5.00563 3.86921 0.5
288 5.79544 9.76949 6.07273 0.5
289 10.004 12.8581 6.53914 0.5
290 11.316 5.60734 5.39882 0.5
291 1.29825 9.50053 4.72798 0.5
292 12.5063 6.96728 3.4597 0.5
293 5.48735 13.2861 9.18171 0.5
294 9.757 7.38355 9.84933 0.5
295 0.555095 4.55154 6.34294 0.5
296 0.420561 2.11655 4.53962 0.5
297 0.894818 8.70342 2.13921 0.5
298 11.2002 9.61398 10.548 0.5
299 3.47534 7.28372 7.51854 0.5
300 6.72833 12.7554 9.6898 0.5
301 13.4153 8.21879 7.29536 0.5
302 12.6264 12.6392 4.82336 0.5
303 5.21941 12.4607 6.53512 0.5
304 9.06461 1.14457 4.12431 0.5
305 8.99877 0.906218 1.80039 0.5
306 4.3607 1.45703 1.25046 0.5
307 1.87246 9.24421 6.85321 0.5
308 12.8407 6.0073 3.62654 0.5
309 11.2189 1.84886 11.032 0.5
310 1.17189 13.4664 10.1187 0.5
311 1.01228 5.20047 12.6205 0.5
312 8.38458 6.95976 2.08284 0.5
313 13.1911 8.88345 9.28832 0.5
314 4.39281 6.64019 2.34074 0.5
315 12.573 1.51537 3.10999 0.5
316 4.23137 11.5226 8.03533 0.5
317 10.6188 1.79701 2.44067 0.5
318 12.8976 4.97952 7.5614 0.5
319 12.5614 2.21431 10.7335 0.5
320 9.65733 1.09955 10.9568 0.5
321 9.01712 1.69292 3.24877 0.5
322 8.08414 6.79958 0.751226 0.5
323 6.3926 6.49872 6.86748 0.5
324 2.62248 3.21674 4.4685 0.5
325 10.481 12.5758 10.7869 0.5
326 4.14491 13.0789 0.195426 0.5
327 10.017 8.9325 3.06917 0.5
328 7.39633 5.2251 5.12652 0.5
329 4.49764 11.6368 8.63051 0.5
330 11.0173 3.34229 1.8698 0.5
331 11.3823 7.26252 8.23444 0.5
332 3.00503 1.44682 1.12656 0.5
333 7.15672 5.75625 8.23846 0.5
334 5.94744 12.8114 6.81951 0.5
335 7.04532 10.8501 3.9139 0.5
336 6.1035 6.41997 10.1528 0.5
337 11.2067 5.32018 3.66188 0.5
338 9.90903 6.75577 9.24616 0.5
339 2.40885 9.26504 7.71154 0.5
340 13.5339 13.4849 6.42928 0.5
341 2.89332 1.43185 10.6508 0.5
342 2.63416 2.79198 5.53279 0.5
343 5.92415 13.4219 5.98766 0.5
344 12.3458 6.61596 10.5756 0.5
345 13.4545 6.62931 4.41269 0.5
346 4.48436 11.4197 12.3524 0.5
347 9.58156 4.27723 11.6509 0.5
348 8.76936 8.43588 10.7205 0.5
349 4.52453 7.70851 11.6321 0.5
350 11.3143 4.86358 7.50672 0.5
351 1.38826 12.7894 8.0284 0.5
352 4.86008 2.48581 6.64405 0.5
353 7.65671 11.687 4.9987 0.5
354 5.29343 12.4622 7.98477 0.5
355 4.85476 11.0791 8.37791 0.5
356 0.242997 10.231 12.3621 0.5
357 1.98843 5.75769 9.84128 0.5
358 11.2107 8.16273 8.71823 0.5
359 4.19779 9.56964 3.73415 0.5
360 0.772333 13.3958 10.1811 0.5
361 8.58612 11.3415 7.82803 0.5
362 0.858407 7.1024 4.40941 0.5
363 4.50993 9.92161 7.49518 0.5
364 0.150201 4.47595 7.78735 0.5
365 6.37317 11.5312 4.73591 0.5
366 2.56103 2.07849 0.762546 0.5
367 4.37108 8.51225 0.922572 0.5
368 9.79235 0.85728 2.11523 0.5
369 1.74083 10.4926 7.27213 0.5
370 1.68633 2.53401 9.3075 0.5
371 3.56818 13.3965 4.20803 0.5
372 8.80253 12.0927 11.5495 0.5
373 9.31989 8.42389 9.88215 0.5
374 10.3048 9.70245 1.89569 0.5
375 6.40478 8.6107 11.8944 0.5
376 3.7635 8.46911 3.87745 0.5
377 4.53012 9.39563 10.3911 0.5
378 7.35766 3.48127 1.49193 0.5
379 10.2752 0.94396 6.4375 0.5
380 6.35864 3.60996 1.74396 0.5
381 12.4084 4.44203 1.66397 0.5
382 12.17 7.63325 10.2713 0.5
383 2.88519 8.93359 5.52503 0.5
384 8.13265 4.90737 0.799769 0.5
385 7.56319 6.39787 3.50492 0.5
386 6.91107 12.7532 3.79902 0.5
387 3.37878 0.0556345 6.5474 0.5
388 12.095 8.7669 0.854096 0.5
389 5.44826 6.89431 2.07343 0.5
390 8.85919 11.8629 5.43984 0.5
391 0.918074 4.25968 6.66404 0.5
392 10.8334 4.01408 1.30026 0.5
393 10.5545 2.00803 5.31055 0.5
394 1.92191 7.51515 10.1177 0.5
395 6.20211 9.0293 9.77924 0.5
396 6.18864 9.11887 0.0388019 0.5
397 11.6539 5.43626 12.2751 0.5
398 2.47597 5.20003 7.76666 0.5
399 2.29889 12.0942 3.04181 0.5
400 1.02305 3.16661 6.47741 0.5
401 10.6043 10.5629 3.77224 0.5
402 2.84332 2.36236 8.84053 0.5
403 5.1734 1.63061 7.931 0.5
404 6.14501 10.307 11.8262 0.5
405 11.479 3.20897 0.605436 0.5
406 8.89849 5.9111 0.20722 0.5
407 10.2612 7.20807 4.04273 0.5
408 0.618666 1.59672 2.0157 0.5
409 10.2095 0.0663294 8.37595 0.5
410 0.0444916 5.92733 0.745015 0.5
411 10.2904 8.60422 5.10504 0.5
412 1.12322 9.52128 4.40325 0.5
413 3.01428 11.8445 11.6782 0.5
414 4.69255 4.64914 3.01025 0.5
415 5.05361 6.70793 10.5209 0.5
416 10.914 1.99351 0.579041 0.5
417 0.976925 3.39612 11.3736 0.5
418 2.44187 1.29151 0.455384 0.5
419 3.32344 0.963821 8.90622 0.5
420 4.49829 5.79666 11.5664 0.5
421 13.566 2.31279 13.3729 0.5
422 0.745522 4.077 4.72724 0.5
423 12.0223 1.59702 13.5376 0.5
424 4.07886 12.3815 1.45383 0.5
425 0.705428 11.3826 1.51751 0.5
426 4.13647 5.37623 4.26261 0.5
427 7.22944 3.37686 11.0434 0.5
428 11.288 8.2694 4.766 0.5
429 1.47054 12.0195 0.875301 0.5
430 5.04831 9.29098 10.369 0.5
431 2.75748 0.309521 5.82444 0.5
432 0.805596 10.5055 5.85498 0.5
433 13.4914 12.0804 6.19571 0.5
434 4.14755 13.4514 11.4878 0.5
435 11.3391 3.22789 12.5779 0.5
436 6.69772 7.98686 4.59649 0.5
437 1.29851 3.94767 8.05246 0.5
438 9.24698 4.03908 6.08382 0.5
439 7.36447 12.1991 10.8504 0.5
440 6.54963 8.38891 13.4007 0.5
441 3.73071 9.34074 5.37588 0.5
442 6.07201 7.54048 11.4299 0.5
443 5.60091 8.30194 8.59433 0.5
444 6.64881 2.74717 8.20677 0.5
445 6.38135 2.54222 12.655 0.5
446 5.16397 1.99608 9.21501 0.5
447 5.75939 1.58603 11.9816 0.5
448 3.50108 5.50591 11.0429 0.5
449 13.4441 5.2696 7.42545 0.5
450 10.7552 3.21613 0.353556 0.5
451 9.91032 4.70455 13.0471 0.5
452 0.0942966 0.259633 4.24742 0.5
453 2.91085 8.79663 4.63331 0.5
454 1.46388 11.0943 4.56308 0.5
455 12.0844 4.20417 13.117 0.5
456 12.6942 4.72982 6.38004 0.5
457 11.7415 5.5874 4.43539 0.5
458 4.22636 11.2649 0.0832334 0.5
459 9.53058 12.6786 9.95664 0.5
460 11.955 1.47506 12.4178 0.5
461 8.40606 6.89862 6.32946 0.5
462 6.31651 2.30022 12.8341 0.5
463 6.31935 2.53936 0.582992 0.5
464 13.1712 2.14892 2.42883 0.5
465 11.7591 6.55671 8.56415 0.5
466 4.50243 10.8878 2.51002 0.5
467 5.12745 1.79697 5.86828 0.5
468 3.08841 10.9347 5.98765 0.5
469 6.44156 8.98057 4.03318 0.5
470 4.13913 4.87412 1.06615 0.5
471 0.0872335 0.734259 10.7503 0.5
472 8.05132 4.32051 2.94175 0.5
473 1.34027 4.5807 8.66289 0.5
474 11.3744 10.4065 6.03075 0.5
475 11.2783 5.32267 8.09237 0.5
476 2.82432 11.2805 11.2016 0.5
477 12.1746 12.9457 6.70556 0.5
478 1.08013 0.69206 6.06683 0.5
479 5.94192 11.6839 9.24388 0.5
480 1.51156 6.8379 10.8423 0.5
481 11.4242 2.26075 10.0025 0.5
482 11.8661 8.43367 8.26657 0.5
483 12.2157 6.26012 1.08872 0.5
484 13.3239 4.31515 5.1062 0.5
485 9.4375 4.56587 9.75811 0.5
486 10.9224 12.6776 1.65158 0.5
487 0.139512 1.48917 11.8657 0.5
488 10.1949 12.7322 12.3355 0.5
489 0.626809 4.52009 7.22314 0.5
490 0.0470919 2.33046 3.01273 0.5
491 5.50195 6.43543 0.460198 0.5
492 10.4924 13.291 6.15932 0.5
493 12.7415 6.98486 2.6445 0.5
494 9.80532 6.96029 2.47906 0.5
495 10.512 9.28613 9.61692 0.5
496 3.66196 2.19495 7.53453 0.5
497 6.0181 9.99361 12.7425 0.5
498 10.0936 3.4151 0.495402 0.5
499 8.57713 3.15742 9.51849 0.5
500 4.53518 10.2578 7.64303 0.5
501 2.27864 6.38224 4.54812 0.5
502 11.2819 6.6041 1.70482 0.5
503 3.02217 3.15642 6.54037 0.5
504 3.94114 9.58901 13.5109 0.5
505 1.38682 9.96764 13.2449 0.5
506 4.00795 4.97252 1.44372 0.5
507 13.1756 4.35796 1.20321 0.5
508 8.86057 7.21417 6.60104 0.5
509 5.96328 11.3239 1.95874 0.5
510 8.74544 1.85233 8.75662 0.5
511 7.87936 2.97192 3.98919 0.5
512 11.3163 2.32015 8.68138 0.5
513 10.9406 7.20268 5.55788 0.5
514 3.44958 3.35838 0.516669 0.5
515 8.3033 6.42581 3.45738 0.5
516 3.14051 2.8218 12.3106 0.5
517 9.54789 11.7071 2.0686 0.5
518 12.4169 2.10859 0.0525841 0.5
519 12.8501 12.6723 9.01574 0.5
520 2.25805 3.39343 6.92827 0.5
521 9.24249 6.16124 12.4727 0.5
522 5.77751 13.5358 3.04108 0.5
523 1.78594 8.20037 12.6066 0.5
524 11.6735 11.644 2.84835 0.5
525 9.3967 7.64546 2.69466 0.5
526 1.6656 10.6618 8.73419 0.5
527 13.3039 2.94549 11.6283 0.5
528 1.04547 13.194 8.16685 0.5
529 2.4997 9.46484 11.9164 0.5
530 10.2685 8.73872 10.7768 0.5
531 10.6005 11.9004 12.0256 0.5
532 5.27277 7.19431 3.38245 0.5
533 0.0929752 0.595214 2.46 0.5
534 2.66407 6.33399 8.30056 0.5
535 3.19756 1.55479 2.9426 0.5
536 3.05702 7.3225 5.18788 0.5
537 9.29834 2.47036 11.9072 0.5
538 7.73489 1.49784 6.63561 0.5
539 0.233991 9.03339 8.45539 0.5
540 0.339067 1.31797 10.8083 0.5
541 8.39879 7.91013 12.1214 0.5
542 11.8188 9.95288 6.23168 0.5
543 7.78923 7.42143 9.67512 0.5
544 8.6587 8.3751 10.9817 0.5
545 11.5769 6.33213 10.2625 0.5
546 0.975987 12.8271 9.87764 0.5
547 1.01858 11.8563 4.53628 0.5
548 2.04168 0.00170415 8.3312 0.5
549 7.65699 9.10713 9.64547 0.5
550 12.1684 0.668764 7.22462 0.5
551 6.48602 8.01537 11.9389 0.5
552 5.33223 3.59169 8.68443 0.5
553 2.44027 3.3087 0.225197 0.5
554 9.80915 5.64889 0.424111 0.5
555 11.4381 2.39466 5.38001 0.5
556 2.61282 10.3143 8.22104 0.5
557 11.7022 6.1926 9.51575 0.5
558 3.09219 4.72943 10.5285 0.5
559 10.7552 2.27903 10.056 0.5
560 0.344021 1.07649 4.48799 0.5
561 13.2315 3.73567 6.82303 0.5
562 4.2116 4.55506 9.50656 0.5
563 8.03051 13.3817 2.66647 0.5
564 10.7144 1.14296 2.7129 0.5
565 13.0762 3.69544 7.22054 0.5
566 0.0845402 10.5306 8.78884 0.5
567 13.5479 7.46346 3.48941 0.5
568 11.6452 13.2956 5.45069 0.5
569 0.612208 10.0975 11.7829 0.5
570 8.90701 8.75847 0.33338 0.5
571 7.26446 12.1841 0.478161 0.5
572 10.3625 2.22813 1.41723 0.5
573 9.24469 2.93849 12.0141 0.5
574 7.17586 9.33961 0.611151 0.5
575 6.19704 3.96619 2.73682 0.5
576 2.90511 13.4085 1.24913 0.5
577 7.63693 5.40699 7.61514 0.5
578 7.47688 10.4583 2.7854 0.5
579 2.49046 2.49337 12.5145 0.5
580 8.28506 2.92199 3.25208 0.5
581 4.18171 7.64354 12.0377 0.5
582 10.0291 7.67819 4.4295 0.5
583 12.3011 10.0221 5.34501 0.5
584 6.45474 10.7581 10.6854 0.5
585 0.243726 8.06442 9.76448 0.5
586 6.96593 3.10221 0.338754 0.5
587 1.39823 8.84966 1.96643 0.5
588 2.03416 9.34669 2.47617 0.5
589 6.83497 2.19488 0.0183564 0.5
590 10.2258 10.6986 8.89199 0.5
591 6.70124 7.77455 6.50514 0.5
592 3.46975 5.65956 4.38627 0.5
593 9.76797 6.45112 4.4475 0.5
594 10.5041 0.29097 8.77545 0.5
595 4.27993 7.42501 11.8643 0.5
596 11.3756 10.9371 10.7601 0.5
597 11.3794 6.6582 5.22036 0.5
598 5.63375 9.93162 8.48237 0.5
599 8.93466 9.79517 5.62283 0.5
600 13.324 11.0984 11.38 0.5
601 2.61396 9.42021 7.71515 0.5
602 10.7807 10.2679 11.9244 0.5
603 6.96286 11.47 6.66124 0.5
604 1.37185 7.7115 11.0924 0.5
605 3.36168 0.32497 1.95238 0.5
606 3.11673 2.81923 3.47493 0.5
607 11.8083 6.80517 4.93731 0.5
608 2.77436 10.0808 13.3994 0.5
609 0.379578 4.93369 12.1498 0.5
610 4.74486 7.88167 4.46321 0.5
611 10.9503 1.65096 5.32848 0.5
612 0.981426 5.90112 11.5172 0.5
613 4.63534 13.3064 5.99964 0.5
614 5.31369 11.8035 2.43711 0.5
615 3.56159 0.0965718 7.43799 0.5
616 11.3179 3.76116 7.23463 0.5
617 3.62893 13.1896 10.8111 0.5
618 11.9683 13.1605 0.688002 0.5
619 1.58454 1.71341 13.1731 0.5
620 2.81212 5.6662 11.7504 0.5
621 13.4908 12.432 6.77242 0.5
622 1.17919 13.1606 8.7452 0.5
623 3.25801 1.50362 4.40119 0.5
624 8.80249 10.5564 12.7667 0.5
625 1.83353 13.1206 11.7331 0.5
626 9.98307 10.6451 12.2434 0.5
627 10.0353 0.886642 6.42155 0.5
628 6.50161 10.862 0.804227 0.5
629 8.20935 7.18646 5.22122 0.5
630 9.06861 5.98687 3.95519 0.5
631 5.4006 10.2107 1.45963 0.5
632 2.32218 9.42573 9.18731 0.5
633 5.94004 1.20303 6.47873 0.5
634 12.1087 3.13631 12.9089 0.5
635 8.31182 12.0306 7.06806 0.5
636 10.6352 8.78149 8.79119 0.5
637 9.68827 1.86027 2.69703 0.5
638 5.80393 4.91406 1.92972 0.5
639 9.68831 0.75022 11.0823 0.5
640 3.91001 4.41005 6.28366 0.5
641 10.5737 2.27047 4.78177 0.5
642 7.83025 6.73036 5.69718 0.5
643 1.35401 6.92397 9.50824 0.5
644 4.46044 9.75862 12.8101 0.5
645 10.4702 2.95122 0.0487122 0.5
646 8.50555 1.75795 6.84084 0.5
647 0.161809 10.2972 8.0414 0.5
648 2.9512 6.86056 1.13703 0.5
649 7.15041 12.8119 4.52137 0.5
650 10.0146 2.32767 11.011 0.5
651 3.96342 5.81027 1.10581 0.5
652 8.11385 9.02731 0.730775 0.5
653 13.0507 7.80623 12.0504 0.5
654 6.46937 9.23342 11.6819 0.5
655 3.50496 1.00306 4.39353 0.5
656 7.83226 5.43385 10.2036 0.5
657 1.29047 12.8794 12.4772 0.5
658 2.2774 8.66311 4.1316 0.5
659 10.7125 5.77349 5.96054 0.5
660 0.504215 12.9299 10.504 0.5
661 11.057 12.5085 7.7785 0.5
662 4.58378 11.7913 2.16734 0.5
663 10.0955 4.34466 0.29748 0.5
664 11.2167 0.615407 12.4024 0.5
665 2.49993 9.52954 11.2604 0.5
666 2.86613 8.44022 3.50557 0.5
667 6.08137 13.0539 5.06896 0.5
668 9.83386 3.90404 9.79616 0.5
669 12.4603 13.5158 9.07762 0.5
670 5.63535 0.302417 5.18858 0.5
671 13.5076 13.0283 5.54249 0.5
672 2.82986 6.98495 2.4956 0.5
673 9.69284 11.1117 1.7539 0.5
674 9.04429 0.969215 0.895043 0.5
675 11.2349 11.5884 10.1134 0.5
676 5.49231 11.036 2.50575 0.5
677 10.129 2.61454 3.56406 0.5
678 8.68402 6.54824 2.50609 0.5
679 0.896609 5.2937 3.26124 0.5
680 3.27604 1.04404 3.53972 0.5
681 5.78569 1.95252 12.5571 0.5
682 9.14444 1.56095 11.6969 0.5
683 13.0788 9.6101 0.240919 0.5
684 12.1932 3.66746 1.73814 0.5
685 1.48538 0.894396 10.7959 0.5
686 5.49558 9.87346 9.41189 0.5
687 2.26342 7.63167 8.01353 0.5
688 12.8377 1.85021 6.83708 0.5
689 13.2079 5.31734 12.0615 0.5
690 11.0198 6.22847 8.48854 0.5
691 3.63382 12.3722 7.92711 0.5
692 13.4369 9.3961 6.6653 0.5
693 7.64924 9.41757 8.62923 0.5
694 7.30827 2.85494 10.5401 0.5
695 13.4878 2.41823 9.01525 0.5
696 4.31612 0.503164 0.833573 0.5
697 12.3025 8.50523 3.26816 0.5
698 10.1606 2.4947 5.13048 0.5
699 6.84649 6.07339 12.5047 0.5
700 2.69284 12.9849 7.04395 0.5
701 1.76695 9.85129 8.86037 0.5
702 12.2633 9.14137 2.79752 0.5
703 9.24293 6.05763 11.849 0.5
704 6.0529 3.61148 13.1109 0.5
705 6.94427 13.1547 9.46778 0.5
706 11.9083 8.21331 4.04071 0.5
707 13.1558 13.2859 0.104492 0.5
708 1.26942 9.86896 9.36563 0.5
709 8.24286 10.3434 6.09364 0.5
710 7.87916 7.96113 7.47299 0.5
711 4.06272 7.12536 5.25521 0.5
712 8.38837 6.29364 4.75042 0.5
713 0.86766 6.23742 5.61381 0.5
714 12.0028 9.78808 4.83679 0.5
715 -0.00260992 7.98331 6.89756 0.5
716 9.59488 6.28735 7.15901 0.5
717 2.71521 10.125 13.4969 0.5
718 0.288681 2.29481 3.37601 0.5
719 1.468 6.31315 11.1792 0.5
720 12.383 10.6004 11.1883 0.5
721 8.61486 12.3478 10.7651 0.5
722 2.44599 3.7081 8.66599 0.5
723 1.44648 5.79333 4.4072 0.5
724 4.14656 4.06722 3.90417 0.5
725 4.42748 2.1714 8.46154 0.5
726 3.08833 2.42191 12.6656 0.5
727 2.05777 5.81998 13.1028 0.5
728 10.9407 5.41069 10.8659 0.5
729 12.0234 7.05849 2.20376 0.5
730 12.8726 2.19927 2.02721 0.5
731 13.1231 1.19985 5.83534 0.5
732 7.77294 5.93565 10.4263 0.5
733 10.5692 4.48185 5.07066 0.5
734 1.23508 9.91254 10.9185 0.5
735 3.56632 13.0073 5.76274 0.5
736 1.73077 10.1121 8.58329 0.5
737 0.418174 11.0767 5.65972 0.5
738 7.96078 2.73269 3.38075 0.5
739 10.3992 11.9509 0.654902 0.5
740 5.01463 8.33298 9.56303 0.5
741 1.90878 10.9274 10.0793 0.5
742 12.9838 7.58515 9.30906 0.5
743 10.3776 11.7503 7.44834 0.5
744 6.81099 6.57177 12.7167 0.5
745 13.1856 2.22625 9.90635 0.5
746 8.86739 12.7678 11.8381 0.5
747 8.83454 2.50894 8.99688 0.5
748 1.48044 2.07668 11.0345 0.5
749 7.76788 2.1197 10.9177 0.5
750 5.07731 4.15141 8.61292 0.5
751 0.89019 5.97979 13.4353 0.5
752 1.072 12.0681 6.14918 0.5
753 0.448859 5.05107 7.60447 0.5
754 6.77503 2.92443 3.39493 0.5
755 10.0213 3.34187 2.29803 0.5
756 4.56268 3.93202 8.23901 0.5
757 2.11619 4.93992 3.95184 0.5
758 1.93392 1.17551 12.7104 0.5
759 10.6829 10.9166 1.05641 0.5
760 7.34694 0.113826 7.58879 0.5
761 1.67911 8.72915 6.07837 0.5
762 1.48037 0.264637 6.40666 0.5
763 1.38884 4.47096 12.1403 0.5
764 13.3002 7.92342 3.38886 0.5
765 12.4442 9.57366 7.3526 0.5
766 0.650033 13.0412 5.59891 0.5
767 0.465244 6.19258 1.34987 0.5
768 0.796414 8.9886 2.04497 0.5
769 5.64033 4.27059 12.8344 0.5
770 13.572 2.87586 3.1638 0.5
771 10.2282 2.83277 0.166716 0.5
772 0.0481938 3.58158 5.37832 0.5
773 12.0373 9.37623 11.3724 0.5
774 4.89628 6.24419 4.0636 0.5
775 10.7854 5.4406 9.99826 0.5
776 3.79896 5.00101 9.93149 0.5
777 3.82106 9.78499 0.971146 0.5
778 10.8122 4.81681 4.83685 0.5
779 11.8139 9.66652 3.77066 0.5
780 0.48458 3.38402 0.181561 0.5
781 4.24654 0.893187 1.72031 0.5
782 9.31285 9.61749 9.60849 0.5
783 8.18165 0.364246 3.47794 0.5
784 7.75098 6.77726 2.13409 0.5
785 12.9135 11.7657 2.43825 0.5
786 5.74412 7.10032 0.180381 0.5
787 7.8911 2.14752 6.21348 0.5
788 0.860919 12.0023 3.25836 0.5
789 6.67846 4.49732 4.25241 0.5
790 2.08116 8.21623 1.7655 0.5
791 9.34425 0.760143 4.71992 0.5
792 12.4083 1.53398 12.8913 0.5
793 6.83464 1.39051 4.76664 0.5
794 5.65324 8.65345 11.5503 0.5
795 8.44533 5.39293 2.13335 0.5
796 8.36201 7.06288 13.1686 0.5
797 3.82708 8.89629 10.6575 0.5
798 7.12371 1.65038 6.87822 0.5
799 8.61446 2.03229 1.42677 0.5
800 0.289335 11.4772 5.92752 0.5
801 0.867848 9.36405 12.5817 0.5
802 2.52212 1.51779 4.23136 0.5
803 3.11716 8.70704 10.1747 0.5
804 6.14359 4.0274 12.7557 0.5
805 0.421541 8.42416 1.35179 0.5
806 8.89234 8.40411 7.63177 0.5
807 12.3994 10.9785 9.74039 0.5
808 11.8479 8.71867 5.38063 0.5
809 0.564759 9.01211 2.6384 0.5
810 0.0375297 2.07385 6.91672 0.5
811 3.43747 2.64585 2.07432 0.5
812 3.2265 5.69368 11.6498 0.5
813 12.6307 3.97933 9.94625 0.5
814 7.84717 8.81268 7.29181 0.5
815 6.11027 11.1999 2.66158 0.5
816 3.43242 6.64183 7.34499 0.5
817 7.65458 8.61582 3.71865 0.5
818 8.79809 8.5344 0.966775 0.5
819 7.72424 8.60337 3.43074 0.5
820 5.74489 1.00071 1.30334 0.5
821 0.213103 9.82778 12.4413 0.5
822 4.6288 3.42383 10.0407 0.5
823 3.52351 3.75013 9.54051 0.5
824 12.054 12.5074 10.8225 0.5
825 1.03473 6.18566 2.78055 0.5
826 3.84577 7.19355 12.9902 0.5
827 9.30015 5.3151 12.7235 0.5
828 10.2153 10.2521 6.17684 0.5
829 2.51095 2.47772 10.0213 0.5
830 8.33841 12.6163 7.78244 0.5
831 6.85221 5.84313 8.00496 0.5
832 8.9438 0.53205 10.6993 0.5
833 3.28381 4.41525 4.15229 0.5
834 12.4181 1.58811 9.20588 0.5
835 2.61196 12.0556 12.3656 0.5
836 5.81018 5.85663 13.5027 0.5
837 8.02533 13.0218 1.7377 0.5
838 12.0013 1.69858 8.71819 0.5
839 8.87918 9.09323 12.8757 0.5
840 12.1123 10.5564 4.74075 0.5
841 8.3694 8.39323 13.4548 0.5
842 1.50414 12.4794 4.23634 0.5
843 5.33909 11.8292 10.9479 0.5
844 6.9261 11.568 2.81086 0.5
845 6.86753 12.4352 6.90097 0.5
846 8.72271 12.498 6.38917 0.5
847 4.32492 5.31015 0.135268 0.5
848 6.83421 0.299792 3.22525 0.5
849 1.72184 10.7059 10.3166 0.5
850 7.90868 0.0372373 1.676 0.5
851 4.305 1.21414 8.33967 0.5
852 2.07433 11.198 6.85277 0.5
853 3.47495 6.21793 8.32239 0.5
854 7.39282 4.19863 0.47818 0.5
855 11.4978 4.42306 3.50407 0.5
856 11.9629 5.48907 0.764226 0.5
857 9.77147 3.70744 4.61698 0.5
858 10.1354 11.3925 0.0522584 0.5
859 11.4375 8.46644 7.15245 0.5
860 13.5496 6.41152 4.18305 0.5
861 5.4729 13.0372 8.3284 0.5
862 8.02399 5.23927 10.0484 0.5
863 10.9752 4.97028 8.66267 0.5
864 0.938632 11.6437 9.02151 0.5
865 6.33432 12.4761 6.25576 0.5
866 10.2537 2.23504 8.057 0.5
867 3.59879 6.50192 0.687756 0.5
868 11.002 7.54298 9.04386 0.5
869 6.44978 4.73206 10.1106 0.5
870 0.39645 13.5552 0.747582 0.5
871 4.308 4.57918 8.17422 0.5
872 9.04318 7.61248 3.87355 0.5
873 2.6035 9.99995 1.7745 0.5
874 2.70519 5.27935 6.19091 0.5
875 0.267254 4.16343 3.82119 0.5
876 8.56985 12.8835 7.30753 0.5
877 3.7536 11.3821 9.48739 0.5
878 6.85048 6.92756 2.92415 0.5
879 10.768 10.0508 1.24134 0.5
880 10.0877 8.93295 2.40535 0.5
881 7.30031 7.88601 1.85039 0.5
882 4.61158 0.160743 8.86364 0.5
883 0.68702 3.47868 9.66786 0.5
884 9.36492 3.75324 3.4044 0.5
885 8.87938 6.52508 1.23881 0.5
886 3.67488 13.4663 0.00019038 0.5
887 9.4177 12.0894 11.319 0.5
888 10.8536 9.39334 10.8991 0.5
889 10.818 6.76704 5.0868 0.5
890 4.27039 4.63065 4.68508 0.5
891 0.497809 13.3358 5.14836 0.5
892 2.86076 8.37304 10.7268 0.5
893 0.047968 1.14515 2.40354 0.5
894 1.92277 7.70335 11.1242 0.5
895 7.60581 1.06407 3.20919 0.5
896 2.26328 10.6689 1.25543 0.5
897 9.59333 1.4167 11.2816 0.5
898 7.803 9.53639 13.5266 0.5
899 11.7743 1.33515 5.79688 0.5
900 13.3885 1.56365 8.24714 0.5
901 10.134 5.18223 3.04947 0.5
902 2.8524 13.2518 1.82444 0.5
903 0.96908 3.23324 10.7197 0.5
904 5.17302 11.8727 0.767347 0.5
905 4.44144 5.09076 11.9189 0.5
906 0.101305 7.97813 7.47451 0.5
907 12.3508 2.99662 8.07218 0.5
908 7.58201 5.83222 10.3125 0.5
909 11.8675 13.3893 6.37453 0.5
910 2.81251 2.38452 4.89147 0.5
911 0.423912 11.9237 9.86198 0.5
912 7.90597 6.49715 12.6702 0.5
913 2.89739 0.285303 4.3228 0.5
914 5.47479 1.6751 6.41257 0.5
915 11.0295 2.63444 4.18556 0.5
916 9.04687 7.10441 10.9203 0.5
917 11.772 2.03251 1.86581 0.5
918 2.39713 11.0854 6.19913 0.5
919 4.33357 10.6538 1.86513 0.5
920 3.71801 9.79577 5.99892 0.5
921 0.231275 0.216343 7.4105 0.5
922 6.705 7.5244 9.00955 0.5
923 2.32038 2.53336 5.84597 0.5
924 7.17618 9.4745 12.1203 0.5
925 6.72403 1.69312 6.33031 0.5
926 6.16009 0.803842 7.66838 0.5
927 10.4962 13.393 0.00880713 0.5
928 7.798 9.69466 11.3111 0.5
929 6.72943 10.9711 6.18216 0.5
930 11.2699 2.90635 5.54135 0.5
931 1.16974 7.79392 4.67404 0.5
932 12.9574 4.55498 3.78327 0.5