ITEM: TIMESTEP
630000
ITEM: NUMBER OF ATOMS
1000
ITEM: BOX BOUNDS xy xz yz pp pp pp
0.0000000000000000e+00 1.3572088000000001e+01 0.0000000000000000e+00
0.0000000000000000e+00 1.3572088000000001e+01 0.0000000000000000e+00
0.0000000000000000e+00 1.3572088000000001e+01 0.0000000000000000e+00
ITEM: ATOMS id x y z radius
1 2.18752 4.43055 0.457257 0.5
2 13.1863 6.1859 1.66109 0.5
3 8.61372 10.116 10.677 0.5
4 11.7167 7.07611 6.3879 0.5
5 7.52135 10.3343 5.97213 0.5
6 10.1101 0.162806 3.98077 0.5
7 6.84743 0.77269 1.66617 0.5
8 4.00862 6.64737 6.44402 0.5
9 13.469 0.237428 8.14276 0.5
10 5.72913 5.23309 2.04185 0.5
11 2.38554 12.9762 12.4651 0.5
12 9.31906 2.77635 3.0479 0.5
13 0.955765 11.9119 0.556301 0.5
14 8.89186 11.4904 3.7925 0.5
15 13.4284 0.563553 13.2795 0.5
16 8.56191 10.0598 3.33192 0.5
17 8.31813 6.59861 13.5244 0.5
18 12.2593 5.28511 13.4857 0.5
19 6.57028 11.4001 12.5058 0.5
20 9.1814 3.20292 3.75382 0.5
21 7.07615 8.59678 1.37181 0.5
22 1.51308 7.01238 8.78954 0.5
23 7.88598 13.4734 9.86371 0.5
24 3.68286 3.40696 10.2653 0.5
25 10.6787 6.72467 3.49042 0.5
26 9.12638 12.8617 3.07014 0.5
27 5.40775 7.9156 0.467782 0.5
28 11.4096 2.31333 8.11842 0.5
29 3.55583 12.6292 12.9155 0.5
30 4.23207 12.3647 7.66787 0.5
31 2.6356 11.1062 3.43729 0.5
32 6.94486 4.23194 0.168618 0.5
33 7.20454 4.11891 0.161373 0.5
34 6.53722 11.8574 10.2557 0.5
35 5.288 5.36063 4.42538 0.5
36 9.45089 5.31537 10.5816 0.5
37 9.81718 13.0406 5.29443 0.5
38 2.01538 10.4134 1.24529 0.5
39 10.2997 10.8973 5.11223 0.5
40 8.7907 6.53363 9.16065 0.5
41 0.446031 2.03832 9.52087 0.5
42 9.96372 5.50577 11.2208 0.5
43 12.1874 8.76986 3.72087 0.5
44 9.86045 2.22745 0.352946 0.5
45 12.5747 3.98073 3.47433 0.5
46 0.772803 5.29319 11.7688 0.5
47 13.1467 11.8617 4.16257 0.5
48 2.13176 3.6814 1.80673 0.5
49 13.5759 3.11107 0.165724 0.5
50 11.3563 11.8131 13.5489 0.5
51 3.30523 9.71132 2.87579 0.5
52 2.35948 8.38524 3.02186 0.5
53 1.06885 13.0062 5.438 0.5
54 0.511767 8.81128 1.6113 0.5
55 8.96984 8.28119 6.87564 0.5
56 12.957 13.2924 10.3969 0.5
57 9.2744 2.65748 2.85788 0.5
58 12.3577 9.19702 10.4792 0.5
59 3.87252 7.11397 3.3615 0.5
60 9.8531 5.38065 5.22293 0.5
61 2.90052 11.9465 6.63679 0.5
62 11.98 1.70859 0.71378 0.5
63 9.74541 8.14217 7.33009 0.5
64 6.09935 5.15483 1.13472 0.5
65 1.59447 0.0367977 9.44992 0.5
66 11.5319 0.488909 0.688484 0.5
67 6.84778 9.30462 4.37209 0.5
68 8.84553 2.63986 9.49247 0.5
69 0.813415 10.3273 10.2814 0.5
70 10.8096 9.83989 11.6593 0.5
71 4.6016 2.9548 9.22685 0.5
72 9.54481 10.0701 5.00518 0.5
73 3.29442 12.7819 10.9351 0.5
74 5.93113 11.4827 8.14666 0.5
75 7.28005 5.33849 10.7561 0.5
76 11.1003 0.649692 5.56277 0.5
77 2.51909 2.22035 10.0039 0.5
78 4.4207 11.0123 5.45368 0.5
79 10.5013 8.7945 5.11972 0.5
80 2.93525 5.13568 12.0501 0.5
81 4.75189 6.73535 13.4332 0.5
82 8.71751 4.64712 6.14234 0.5
83 7.24622 5.01554 0.279825 0.5
84 0.85917 8.88628 6.60087 0.5
85 9.01231 6.78568 8.21406 0.5
86 10.9923 3.57927 11.5229 0.5
87 12.4565 2.56328 11.8349 0.5
88 4.37283 1.53459 12.6551 0.5
89 9.57263 4.63481 6.95019 0.5
90 1.25289 4.53918 0.0173134 0.5
91 3.71165 6.14397 7.39518 0.5
92 13.3195 11.1485 2.12809 0.5
93 4.95333 1.38359 2.01482 0.5
94 11.4683 9.76697 12.4326 0.5
95 10.1884 7.66866 5.71781 0.5
96 3.19366 2.91193 1.16069 0.5
97 10.3376 2.74307 8.97223 0.5
98 10.2945 8.41898 9.68818 0.5
99 0.331145 3.31832 9.00994 0.5
100 4.14914 11.3338 3.77116 0.5
101 9.128 7.99247 5.98683 0.5
102 2.17822 7.95963 5.08373 0.5
103 1.90988 4.32622 12.4112 0.5
104 4.64958 4.79523 3.7228 0.5
105 6.87775 7.05257 9.2087 0.5
106 11.7255 11.6013 4.03913 0.5
107 0.620159 7.63884 8.07521 0.5
108 4.99847 5.64811 7.59537 0.5
109 10.9794 0.739938 11.5903 0.5
110 5.41168 1.09704 6.83471 0.5
111 7.526 10.5191 12.0994 0.5
112 6.02127 6.84042 11.8782 0.5
113 0.828883 6.23557 7.99537 0.5
114 7.21027 11.8983 12.4594 0.5
115 4.49565 7.67808 0.587482 0.5
116 9.5106 9.0491 13.361 0.5
117 11.5731 9.3687 5.11689 0.5
118 3.69646 8.00416 8.04851 0.5
119 6.84939 5.31718 2.84621 0.5
120 5.23701 12.6874 4.16808 0.5
121 10.8137 5.7214 9.73447 0.5
122 6.08322 11.5684 5.65834 0.5
123 8.44896 11.808 4.71445 0.5
124 2.06219 2.96976 13.3095 0.5
125 0.796504 6.48042 2.08981 0.5
126 12.5243 3.23582 12.9588 0.5
127 5.17961 8.66406 13.5421 0.5
128 1.68859 6.38594 1.64276 0.5
129 13.2712 9.51231 9.50809 0.5
130 3.72836 5.77918 5.76594 0.5
131 3.27683 11.4523 1.46195 0.5
132 8.09563 0.819387 12.463 0.5
133 0.261216 12.6867 8.2753 0.5
134 10.5119 1.98766 12.432 0.5
135 6.2813 7.67947 2.04214 0.5
136 5.4872 2.53052 1.85923 0.5
137 10.7494 6.7995 9.76516 0.5
138 13.0471 7.72521 4.75361 0.5
139 3.64854 4.40285 5.86521 0.5
140 2.95651 12.586 2.44424 0.5
141 8.5645 8.72528 4.82053 0.5
142 4.4205 8.4245 9.25984 0.5
143 6.5743 6.26879 5.52108 0.5
144 7.58176 11.8896 10.175 0.5
145 12.3392 8.23376 11.9661 0.5
146 1.15302 12.6796 11.0505 0.5
147 7.78309 8.38728 8.04426 0.5
148 5.6852 6.1415 10.8767 0.5
149 12.4601 5.98648 6.08749 0.5
150 6.01954 7.68744 2.4258 0.5
151 1.01093 3.33889 11.8564 0.5
152 11.4209 4.93844 10.6329 0.5
153 5.07627 3.87974 5.23183 0.5
154 6.44597 10.2331 13.0069 0.5
155 5.66659 9.38176 1.31719 0.5
156 13.4964 8.04036 6.13977 0.5
157 6.18615 6.58835 9.71369 0.5
158 0.013238 0.474128 7.04848 0.5
159 6.75408 10.9463 10.8865 0.5
160 8.19684 11.9632 6.16735 0.5
161 9.99192 2.73808 2.89462 0.5
162 4.17105 5.96316 5.84974 0.5
163 8.64924 9.35051 2.30893 0.5
164 5.31273 2.839 11.6099 0.5
165 9.2134 2.38611 7.98059 0.5
166 12.7597 7.92788 5.29457 0.5
167 5.81507 1.17246 0.704092 0.5
168 5.05486 12.5148 13.1731 0.5
169 7.2474 8.61406 2.35616 0.5
170 7.33245 1.75655 11.4056 0.5
171 0.66997 11.1261 2.56281 0.5
172 0.924969 8.66417 1.72598 0.5
173 13.2673 10.5031 12.0538 0.5
174 7.74046 7.58176 6.3298 0.5
175 7.74406 5.21672 5.34652 0.5
176 1.75244 13.4008 13.2147 0.5
177 9.7838 5.92751 4.66677 0.5
178 1.77401 8.44285 9.45206 0.5
179 6.28284 9.1591 9.56769 0.5
180 2.9466 12.5797 12.131 0.5
181 7.96883 12.4479 3.39945 0.5
182 0.58585 8.42059 3.14189 0.5
183 6.04883 8.57853 9.20959 0.5
184 9.39375 6.77272 13.1228 0.5
185 3.91976 7.26743 8.11285 0.5
186 2.6737 1.53313 9.27858 0.5
187 8.39308 8.68571 7.98891 0.5
188 0.0549298 3.98182 7.31625 0.5
189 11.5459 0.364701 2.00565 0.5
190 6.75796 8.34098 13.0882 0.5
191 8.56603 4.031 7.99152 0.5
192 1.05247 7.84796 3.08395 0.5
193 5.73408 8.24628 6.43838 0.5
194 10.7108 5.54981 2.82078 0.5
195 8.92981 0.940619 10.1979 0.5
196 10.1797 4.40589 9.61017 0.5
197 2.26337 10.0282 0.933655 0.5
198 4.22603 11.9941 10.218 0.5
199 8.77254 7.16555 6.11652 0.5
200 3.38148 4.51236 4.36403 0.5
201 1.72846 1.52885 13.4146 0.5
202 9.46987 5.12327 3.73296 0.5
203 3.34125 11.9347 11.4967 0.5
204 11.4601 5.29709 2.45028 0.5
205 5.51748 5.85314 9.9305 0.5
206 1.93679 0.573191 7.83882 0.5
207 6.8725 5.87733 3.39453 0.5
208 2.33215 4.83306 3.95388 0.5
209 9.27932 12.8884 1.4425 0.5
210 5.56886 3.41282 2.67509 0.5
211 3.87549 11.7875 5.01718 0.5
212 2.73023 12.6457 2.39077 0.5
213 9.03801 3.94246 1.31952 0.5
214 5.94449 8.16557 11.6125 0.5
215 0.243715 13.4048 3.69989 0.5
216 0.712956 8.02992 0.913272 0.5
217 12.6507 5.52951 7.66479 0.5
218 7.79448 7.49067 6.64828 0.5
219 12.4437 1.54932 11.9463 0.5
220 6.88921 4.29522 1.32119 0.5
221 8.81877 9.64688 6.10532 0.5
222 2.13571 7.48014 4.66982 0.5
223 5.08361 8.39476 7.09647 0.5
224 13.3059 7.75407 7.05572 0.5
225 1.63348 6.25033 6.20295 0.5
226 0.523545 4.07593 1.07297 0.5
227 4.4777 5.90444 10.3551 0.5
228 5.36749 12.59 12.8993 0.5
229 2.57833 13.1641 9.29975 0.5
230 7.47517 1.8853 6.7929 0.5
231 3.33557 2.73447 7.18828 0.5
232 6.5637 2.79128 3.37436 0.5
233 0.759579 3.84962 8.80136 0.5
234 7.29597 3.61557 11.6119 0.5
235 13.0238 12.3708 0.189585 0.5
236 0.377636 12.8904 0.968187 0.5
237 12.7385 6.12245 2.94537 0.5
238 2.6948 6.02665 10.3161 0.5
239 8.79285 7.268 2.75407 0.5
240 7.66473 3.03029 11.3403 0.5
241 4.23677 3.81323 1.9016 0.5
242 12.63 2.7977 10.1522 0.5
243 0.55857 11.1874 11.5768 0.5
244 11.9047 4.71418 9.4902 0.5
245 8.53966 4.24703 4.32658 0.5
246 10.7239 11.9806 3.80583 0.5
247 8.79519 9.0867 6.49055 0.5
248 1.44405 2.63022 8.27785 0.5
249 5.27477 1.45308 4.71628 0.5
250 9.20616 3.03566 12.7081 0.5
251 5.23747 3.0845 11.9185 0.5
252 3.04633 2.63005 7.97225 0.5
253 6.97332 12.6615 9.46719 0.5
254 7.48643 3.69565 8.14335 0.5
255 13.2452 9.72198 11.017 0.5
256 5.27111 6.31635 8.73703 0.5
257 12.5239 5.51065 11.6584 0.5
258 4.79033 12.7152 2.18606 0.5
259 5.13324 0.651224 0.572573 0.5
260 1.23562 10.1888 10.5723 0.5
261 0.964922 8.713 0.216372 0.5
262 9.76915 8.79687 11.8926 0.5
263 9.19258 6.01498 13.1647 0.5
264 1.71438 12.8944 1.70935 0.5
265 2.67379 7.68416 7.0024 0.5
266 4.51074 8.51002 4.55374 0.5
267 10.4299 1.31859 1.98678 0.5
268 9.79875 12.8367 11.3589 0.5
269 13.254 13.1318 10.5974 0.5
270 10.5618 0.41622 6.18843 0.5
271 11.0113 1.62227 11.8186 0.5
272 1.13801 2.51826 7.39352 0.5
273 5.65308 2.38732 8.01266 0.5
274 6.61832 9.91539 12.1431 0.5
275 12.0707 6.1688 6.79224 0.5
276 3.23907 3.37847 8.97229 0.5
277 8.46923 10.7318 1.45538 0.5
278 6.23567 0.879647 6.66231 0.5
279 12.913 2.73617 10.3546 0.5
280 5.49047 7.09994 1.13658 0.5
281 7.9952 4.69621 2.22164 0.5
282 10.8797 5.80453 8.24364 0.5
283 2.49325 4.76079 2.88605 0.5
284 1.67799 2.13051 2.91269 0.5
285 11.5957 4.27187 0.328747 0.5
286 7.28635 5.81992 8.82678 0.5
287 0.452907 8.44615 3.23456 0.5
288 5.47443 11.5538 0.420389 0.5
289 2.25017 9.61779 7.86367 0.5
290 10.3399 4.3321 11.3316 0.5
291 11.6258 4.83537 1.68104 0.5
292 5.09193 0.994498 0.0368155 0.5
293 0.00524133 2.77496 11.186 0.5
294 6.02214 7.51355 0.650263 0.5
295 2.66293 11.953 4.00929 0.5
296 11.8398 12.9184 7.00689 0.5
297 12.2363 12.8574 10.4526 0.5
298 12.6178 0.453985 12.4703 0.5
299 2.18595 9.31585 12.8833 0.5
300 6.82421 4.066 0.284703 0.5
301 0.467431 4.56801 4.96713 0.5
302 12.9629 4.85671 6.58542 0.5
303 5.03783 5.75247 0.104963 0.5
304 7.97928 10.4656 11.7167 0.5
305 7.33326 10.0699 5.61537 0.5
306 5.10358 4.57682 9.28744 0.5
307 11.2086 10.0155 4.45734 0.5
308 0.386017 1.69351 10.683 0.5
309 3.86361 1.64524 7.21151 0.5
310 1.63406 11.8085 4.27478 0.5
311 10.409 1.84234 6.55758 0.5
312 6.3677 3.56214 13.2248 0.5
313 0.0603593 8.55309 1.48405 0.5
314 1.60558 3.94725 13.4065 0.5
315 0.919196 4.10155 10.8449 0.5
316 4.60654 2.46133 1.54055 0.5
317 6.76209 10.7521 0.755643 0.5
318 3.83241 8.82483 1.60341 0.5
319 7.44794 1.96127 9.44088 0.5
320 2.66689 10.3579 8.57526 0.5
321 12.8931 13.1791 12.9812 0.5
322 4.10101 9.15414 5.40983 0.5
323 12.4287 2.62138 11.7265 0.5
324 2.12176 3.216 4.91048 0.5
325 9.73209 1.20466 1.96782 0.5
326 4.54782 10.9086 12.4184 0.5
327 13.2796 10.4592 7.84502 0.5
328 1.0975 8.75429 0.46737 0.5
329 4.18228 1.47811 0.228115 0.5
330 2.90748 10.0682 7.74262 0.5
331 8.07024 12.991 4.86229 0.5
332 12.0429 10.4668 4.9185 0.5
333 2.9683 8.37736 11.2519 0.5
334 3.53601 1.03365 9.68715 0.5
335 3.13042 11.1282 1.29239 0.5
336 10.9382 4.37177 3.79954 0.5
337 6.73293 12.7251 5.9232 0.5
338 11.5902 9.11459 4.65747 0.5
339 4.5207 1.95263 12.5432 0.5
340 9.30682 2.03843 11.3458 0.5
341 8.48491 2.16937 9.98077 0.5
342 2.25558 11.6846 2.67504 0.5
343 6.50799 1.93805 3.02406 0.5
344 2.56864 -0.00697971 6.33719 0.5
345 3.46406 7.87415 9.18602 0.5
346 8.08952 8.57371 12.9765 0.5
347 7.88477 3.00134 7.6208 0.5
348 2.68677 12.0269 3.12816 0.5
349 2.70932 4.82355 4.3248 0.5
350 9.77839 3.30254 7.64129 0.5
351 0.539306 7.50404 1.17027 0.5
352 1.07563 1.27112 6.06103 0.5
353 7.50628 3.6962 5.19153 0.5
354 7.84801 12.2594 12.4396 0.5
355 3.44415 10.8017 11.0908 0.5
356 13.0412 8.41741 0.617527 0.5
357 5.84385 8.10334 1.116 0.5
358 3.26292 8.81123 10.794 0.5
359 10.3946 5.18878 10.7778 0.5
360 3.19461 0.098684 10.7721 0.5
361 6.57045 5.94104 11.1885 0.5
362 8.93579 2.86444 9.84029 0.5
363 12.0016 0.307821 13.1309 0.5
364 2.92956 12.5132 0.267768 0.5
365 13.0216 11.4809 9.18355 0.5
366 7.38935 1.65044 12.4485 0.5
367 1.99654 12.1107 2.19563 0.5
368 2.98072 10.3392 12.7076 0.5
369 12.2681 8.43968 8.73672 0.5
370 7.09939 3.41826 9.35991 0.5
371 0.788232 4.94398 1.338 0.5
372 13.2948 11.7125 3.7693 0.5
373 5.94387 3.50074 3.39698 0.5
374 0.368489 9.29176 12.9255 0.5
375 7.33523 10.2682 6.17862 0.5
376 8.60303 7.35727 3.63136 0.5
377 3.39869 11.1621 0.224669 0.5
378 6.35695 10.0547 6.09246 0.5
379 10.9038 5.29753 8.57537 0.5
380 0.0175508 13.5148 5.55853 0.5
381 2.36724 9.65197 7.06281 0.5
382 10.1706 5.76163 7.70288 0.5
383 11.6461 12.5747 5.39201 0.5
384 0.655972 12.6797 3.08701 0.5
385 0.0246624 2.75316 3.78454 0.5
386 3.60104 9.57649 0.508488 0.5
387 9.98363 11.314 2.90871 0.5
388 12.6138 6.09846 4.70638 0.5
389 4.36942 6.70074 12.4974 0.5
390 4.11723 7.18812 6.75447 0.5
391 10.0279 4.42383 8.68836 0.5
392 9.38877 9.22286 11.4506 0.5
393 3.3257 8.74583 10.9839 0.5
394 13.1385 7.36764 8.49152 0.5
395 7.15875 3.42971 11.1929 0.5
396 0.632419 11.6318 8.85573 0.5
397 9.9237 9.80601 10.1263 0.5
398 9.98827 9.84745 1.46055 0.5
399 12.9482 13.317 4.22128 0.5
400 12.7586 9.07817 1.77516 0.5
401 13.0937 11.6795 9.90274 0.5
402 13.0191 6.93315 6.84284 0.5
403 9.17218 11.8713 1.69975 0.5
404 11.9243 7.02138 2.62739 0.5
405 8.59554 8.0006 9.56008 0.5
406 0.77352 7.43659 7.6844 0.5
407 2.54134 7.13825 11.8496 0.5
408 6.76596 7.37768 0.414572 0.5
409 5.96843 3.82237 7.98849 0.5
410 5.73815 13.1906 12.1793 0.5
411 3.76494 5.37968 11.5802 0.5
412 5.07776 7.3154 7.98353 0.5
413 6.28106 12.5014 11.3957 0.5
414 9.67581 9.77148 7.43388 0.5
415 6.97176 5.24539 5.2065 0.5
416 6.53068 6.53702 5.34349 0.5
417 2.58032 1.66364 1.71147 0.5
418 8.08788 6.34618 6.7113 0.5
419 8.47529 0.160426 0.542312 0.5
420 13.5014 0.561814 13.0879 0.5
421 3.44511 2.25368 2.49454 0.5
422 10.5141 10.2344 2.89791 0.5
423 12.9463 12.2994 13.4137 0.5
424 2.06006 7.81719 11.4703 0.5
425 4.30944 8.32597 7.58231 0.5
426 5.88635 12.2733 0.395532 0.5
427 7.83927 1.47864 4.2348 0.5
428 10.3724 9.47694 6.9027 0.5
429 9.07865 11.6242 5.2074 0.5
430 7.12664 0.508381 11.3174 0.5
431 6.52591 6.35296 9.41036 0.5
432 1.61407 11.4392 3.32713 0.5
433 12.1638 9.57647 12.8101 0.5
434 10.5077 12.4683 11.1773 0.5
435 11.4575 4.25533 2.52284 0.5
436 1.13604 4.04982 6.0533 0.5
437 9.75212 5.59865 6.66516 0.5
438 11.704 3.79687 9.55676 0.5
439 1.14766 8.89128 3.63312 0.5
440 6.09242 2.40385 9.56842 0.5
441 11.6026 7.41946 11.3536 0.5
442 5.77703 5.20087 9.40175 0.5
443 12.7551 10.2427 11.1156 0.5
444 1.76412 9.79648 11.1345 0.5
445 11.2605 13.4236 6.39101 0.5
446 2.40196 3.16776 6.2274 0.5
447 9.5995 8.89864 1.93894 0.5
448 12.2885 11.4422 4.9644 0.5
449 0.990783 9.32377 8.25572 0.5
450 13.4826 8.69416 6.55909 0.5
451 4.16162 5.3765 13.2076 0.5
452 5.82484 1.47399 9.11473 0.5
453 5.78307 5.60986 8.47432 0.5
454 0.0369389 0.296082 8.10307 0.5
455 5.53549 7.92399 2.87075 0.5
456 1.50285 0.337894 4.97914 0.5
457 3.74084 1.24445 9.1389 0.5
458 6.51783 11.6288 1.02216 0.5
459 3.4582 3.30978 11.976 0.5
460 12.3415 4.6051 7.08069 0.5
461 0.555848 9.53304 4.60854 0.5
462 0.0403519 4.26644 8.96519 0.5
463 10.5222 13.1192 2.48036 0.5
464 10.9482 1.60731 5.14516 0.5
465 10.7524 7.21929 10.9399 0.5
466 2.58633 9.88007 8.1721 0.5
467 1.57217 0.367319 4.43999 0.5
468 0.511955 4.67116 11.4085 0.5
469 0.610337 10.8207 2.5624 0.5
470 10.549 8.00124 11.5218 0.5
471 1.43041 1.04463 8.77115 0.5
472 0.246744 8.16021 6.68564 0.5
473 2.60985 2.59996 1.57619 0.5
474 2.50599 3.77209 12.4607 0.5
475 12.4756 3.4629 13.4562 0.5
476 9.42732 4.81431 11.6815 0.5
477 1.64704 0.46153 0.947676 0.5
478 10.922 7.50004 3.4693 0.5
479 0.527908 0.0345529 12.1891 0.5
480 6.6604 8.01395 4.44598 0.5
481 9.32823 10.5231 8.76862 0.5
482 2.29952 8.01564 9.468 0.5
483 4.39009 5.74899 7.29375 0.5
484 10.8917 6.54734 13.1521 0.5
485 4.96589 11.9475 2.16232 0.5
486 7.00485 6.7499 10.8102 0.5
487 0.489611 5.37443 4.75908 0.5
488 3.60577 6.58399 8.90945 0.5
489 12.0255 12.2486 1.03096 0.5
490 10.1347 9.88937 10.1611 0.5
491 11.3276 0.618322 1.91744 0.5
492 2.26854 10.0092 8.43737 0.5
493 12.5212 12.6443 11.8682 0.5
494 12.3481 6.34742 1.1226 0.5
495 12.1341 7.82225 3.4099 0.5
496 7.79483 3.82748 1.28982 0.5
497 1.77641 8.99827 10.1679 0.5
498 0.960628 7.68923 2.92642 0.5
499 6.14382 2.73763 5.78654 0.5
500 13.3974 1.31743 10.4491 0.5
501 3.98084 4.85369 12.2221 0.5
502 7.09612 11.3099 12.4287 0.5
503 5.15508 2.92076 8.50906 0.5
504 7.06344 1.35675 13.2534 0.5
505 2.8119 0.710934 9.13745 0.5
506 9.7898 6.20452 10.2768 0.5
507 3.38044 0.752644 5.96007 0.5
508 9.90547 6.92026 4.64534 0.5
509 11.0692 12.3277 6.19714 0.5
510 3.89579 2.76237 4.39442 0.5
511 6.09105 13.2815 4.53384 0.5
512 1.64883 10.3634 10.5781 0.5
513 3.7547 10.0486 12.0838 0.5
514 13.27 12.1037 5.19814 0.5
515 11.9225 12.5323 2.45358 0.5
516 7.51411 3.42088 10.3035 0.5
517 8.88126 5.39789 8.46701 0.5
518 13.0547 10.7653 12.9496 0.5
519 6.5695 4.66382 11.4468 0.5
520 10.05 5.4887 9.11064 0.5
521 1.82575 3.4298 13.3138 0.5
522 0.418455 12.7301 9.05388 0.5
523 5.71966 9.51519 7.10927 0.5
524 0.21878 9.87729 2.88593 0.5
525 2.1386 8.27206 5.03745 0.5
526 12.7012 2.41054 1.13183 0.5
527 5.65188 6.22691 8.81429 0.5
528 0.45345 5.55963 9.24744 0.5
529 5.21097 3.8867 12.4426 0.5
530 10.0068 13.1946 8.69421 0.5
531 6.49805 2.23839 0.439525 0.5
532 4.98389 5.7275 10.2004 0.5
533 2.37132 4.73254 0.12794 0.5
534 2.72131 10.3765 1.93494 0.5
535 4.74982 0.189188 4.52285 0.5
536 11.3726 11.0181 6.56033 0.5
537 8.87405 8.1617 5.79145 0.5
538 2.44926 10.654 12.6986 0.5
539 9.82376 2.06572 4.60441 0.5
540 2.37196 2.75217 0.212094 0.5
541 0.584082 1.51875 9.40946 0.5
542 4.8341 8.21651 0.248012 0.5
543 6.15421 11.1565 3.31472 0.5
544 5.01064 8.81448 3.31711 0.5
545 5.87713 12.469 1.46924 0.5
546 7.82437 13.0355 7.43362 0.5
547 3.03984 10.1546 13.4085 0.5
548 2.02549 2.36181 7.10731 0.5
549 2.72161 5.38811 6.42712 0.5
550 12.1117 12.8829 1.29129 0.5
551 6.27057 11.7051 2.64655 0.5
552 0.835159 5.16295 11.1066 0.5
553 10.0233 13.5145 12.2224 0.5
554 9.77902 5.3747 8.90026 0.5
555 2.7899 1.1394 2.7707 0.5
556 10.1238 8.00251 13.0909 0.5
557 12.0333 9.93343 7.60466 0.5
558 2.39437 11.4167 8.27591 0.5
559 2.45125 11.0112 4.354 0.5
560 11.7954 2.16953 12.7903 0.5
561 2.10966 4.60237 2.25384 0.5
562 2.44534 7.61074 3.89255 0.5
563 13.177 10.6223 5.70508 0.5
564 4.47218 10.6262 2.83616 0.5
565 4.8305 8.76926 6.46998 0.5
566 12.7632 12.9731 11.8758 0.5
567 11.2722 13.0382 10.0691 0.5
568 5.2537 0.819683 10.0496 0.5
569 8.31004 8.79997 1.10023 0.5
570 3.20789 3.54891 2.80476 0.5
571 11.0118 6.01748 7.50732 0.5
572 7.163 6.6361 12.7372 0.5
573 8.59822 8.9109 5.06195 0.5
574 12.9235 13.3642 8.59913 0.5
575 6.66019 11.1874 5.22488 0.5
576 7.16338 7.26436 5.48447 0.5
577 12.877 0.874355 5.7967 0.5
578 2.04888 1.73511 10.583 0.5
579 5.52462 8.69313 0.603467 0.5
580 13.3063 1.0379 11.9112 0.5
581 2.85126 12.4994 4.96042 0.5
582 9.39181 6.52732 11.9251 0.5
583 1.89637 7.25587 7.44514 0.5
584 7.62882 4.78852 1.66369 0.5
585 1.12472 1.4073 8.95877 0.5
586 13.0986 12.6077 3.26503 0.5
587 6.5084 0.589476 11.3915 0.5
588 0.0524187 1.3381 10.8451 0.5
589 3.58063 11.079 5.4702 0.5
590 0.414539 4.10379 2.97671 0.5
591 0.802125 5.71747 7.7531 0.5
592 7.6518 2.60203 3.43284 0.5
593 3.49713 1.34801 4.48417 0.5
594 11.0378 2.61565 11.7087 0.5
595 8.65866 4.08598 4.70642 0.5
596 0.345302 12.8756 2.24753 0.5
597 3.47784 3.37972 4.25628 0.5
598 7.47627 3.94078 5.87031 0.5
599 13.0399 8.00254 7.74368 0.5
600 3.56616 9.49592 5.8809 0.5
601 4.87936 1.73059 8.40632 0.5
602 11.4373 7.67776 11.8292 0.5
603 4.20481 4.3908 9.78436 0.5
604 8.91061 3.43432 3.66951 0.5
605 11.3416 7.13404 6.7027 0.5
606 8.23352 0.0842561 12.6082 0.5
607 3.9866 11.5808 0.691235 0.5
608 7.86518 4.4303 12.7792 0.5
609 5.19207 0.915352 7.49727 0.5
610 2.25523 1.07427 13.1155 0.5
611 13.3099 8.8751 2.07193 0.5
612 9.74889 3.57832 13.3256 0.5
613 4.01135 9.32742 8.18986 0.5
614 4.53066 6.3082 6.35659 0.5
615 12.4736 9.53672 7.00544 0.5
616 2.54267 12.7178 6.18634 0.5
617 6.04317 3.72028 3.885 0.5
618 9.24902 11.0316 5.58496 0.5
619 2.59961 11.5709 12.0006 0.5
620 0.271836 0.474425 10.9011 0.5
621 4.1264 1.74887 13.1419 0.5
622 4.50453 7.9582 11.0065 0.5
623 2.54464 11.0234 7.52117 0.5
624 10.2382 8.39504 8.8158 0.5
625 7.26112 12.473 13.2049 0.5
626 12.8394 2.83018 5.60692 0.5
627 12.6347 2.21613 12.8341 0.5
628 7.81763 3.75116 6.8572 0.5
629 9.19536 0.646144 12.4436 0.5
630 8.25796 4.17987 0.635419 0.5
631 6.12339 12.7122 5.52783 0.5
632 10.8878 5.21574 7.4514 0.5
633 3.10566 5.12888 0.474734 0.5
634 1.45718 12.9448 4.0319 0.5
635 1.10063 6.66072 4.18788 0.5
636 1.91802 13.375 11.2143 0.5
637 12.5607 11.8526 5.49185 0.5
638 10.2247 9.46204 2.62646 0.5
639 10.6976 10.3775 9.90148 0.5
640 7.23254 0.333664 6.46907 0.5
641 7.74963 2.77205 6.41994 0.5
642 11.7163 3.10077 3.63311 0.5
643 1.2125 4.21434 9.74036 0.5
644 4.56695 6.1683 1.41065 0.5
645 8.1178 12.2969 0.587621 0.5
646 2.22099 13.0427 12.9541 0.5
647 5.69176 2.25799 9.62868 0.5
648 0.825154 1.69963 10.7778 0.5
649 11.6994 6.85688 8.20892 0.5
650 7.71866 13.2848 8.09108 0.5
651 2.43181 1.72384 10.7573 0.5
652 12.2996 7.87658 7.77432 0.5
653 10.0714 1.0643 1.44766 0.5
654 3.27118 9.87377 11.6874 0.5
655 12.2368 3.7082 2.21784 0.5
656 7.25081 6.44028 4.2832 0.5
657 6.94172 4.18356 3.64228 0.5
658 6.92988 6.82289 6.18007 0.5
659 11.4605 10.661 10.7473 0.5
660 2.09264 4.92699 4.32657 0.5
661 8.03811 2.0413 1.03931 0.5
662 9.98655 0.759633 4.50838 0.5
663 9.32253 10.386 2.9676 0.5
664 8.97896 4.80659 3.80309 0.5
665 13.1473 3.28463 1.73422 0.5
666 0.494163 9.32734 7.87167 0.5
667 1.07397 11.9907 11.5521 0.5
668 11.3413 5.07934 10.9491 0.5
669 9.72672 12.57 3.87369 0.5
670 7.75851 9.15158 6.46286 0.5
671 8.93111 11.3151 0.460067 0.5
672 3.92355 2.97374 6.79942 0.5
673 7.67331 5.33544 2.93914 0.5
674 7.36201 5.33843 0.789065 0.5
675 8.37498 7.17831 3.63975 0.5
676 10.46 2.31815 3.77353 0.5
677 12.7826 8.40939 0.7722 0.5
678 13.3601 6.70123 12.1215 0.5
679 8.05002 4.82852 0.48066 0.5
680 6.50929 8.44524 7.27275 0.5
681 7.88036 12.8069 2.66469 0.5
682 3.20893 5.67234 9.59853 0.5
683 8.70881 5.32976 11.3701 0.5
684 10.8906 13.5435 13.3163 0.5
685 11.9168 12.3031 11.5735 0.5
686 6.71718 6.11742 10.3338 0.5
687 6.74851 2.09044 0.0683915 0.5
688 0.55399 9.10218 7.89201 0.5
689 8.01994 2.99843 4.27996 0.5
690 11.8758 0.185756 13.2207 0.5
691 8.15964 9.73969 7.0812 0.5
692 8.09056 4.838 1.97137 0.5
693 10.4434 7.46513 1.15413 0.5
694 9.36972 10.3574 7.49291 0.5
695 4.90805 1.50399 11.6932 0.5
696 8.74353 11.6014 11.8617 0.5
697 2.80998 2.10712 0.438415 0.5
698 5.73602 8.49212 0.798921 0.5
699 5.50684 2.88026 5.30412 0.5
700 2.14506 8.62393 4.70043 0.5
701 2.39546 2.45452 8.55869 0.5
702 8.44507 11.6288 9.49923 0.5
703 5.85039 2.63668 2.50477 0.5
704 1.17991 9.43812 5.68622 0.5
705 12.1708 8.62345 12.6182 0.5
706 11.3355 0.556705 5.49738 0.5
707 2.0639 3.12565 9.74396 0.5
708 9.27789 7.27885 12.7575 0.5
709 6.55264 9.61957 4.09601 0.5
710 11.6387 5.0419 4.36479 0.5
711 8.25848 9.23703 5.48165 0.5
712 9.75403 11.2769 9.76866 0.5
713 13.5543 7.29662 12.3119 0.5
714 11.0184 2.51537 2.71667 0.5
715 10.2533 11.6139 4.36836 0.5
716 0.784717 0.684049 5.98306 0.5
717 4.55661 5.87311 5.82873 0.5
718 7.22566 8.61763 11.8181 0.5
719 0.234779 0.163996 13.2451 0.5
720 0.45999 9.69682 2.70805 0.5
721 4.42443 1.94282 2.20945 0.5
722 7.00233 7.2036 4.65016 0.5
723 8.46132 8.1874 5.19247 0.5
724 5.91574 9.63898 9.73504 0.5
725 4.87073 1.29809 8.49567 0.5
726 6.36333 2.69533 11.6928 0.5
727 3.7775 11.3169 0.962518 0.5
728 11.8293 10.1064 7.24593 0.5
729 9.27038 3.54617 2.55648 0.5
730 1.24074 10.8101 4.41176 0.5
731 11.7989 12.2584 7.05678 0.5
732 0.338766 10.3678 4.43397 0.5
733 11.7226 2.45512 8.42878 0.5
734 10.5386 10.4868 10.0144 0.5
735 3.66075 5.43617 10.9077 0.5
736 0.951653 0.70654 8.21521 0.5
737 2.19361 8.44476 2.67512 0.5
738 3.61895 11.7542 3.65259 0.5
739 4.95383 8.11899 9.04269 0.5
740 10.5874 0.046354 11.0146 0.5
741 13.3444 12.2259 10.2759 0.5
742 4.11177 9.81746 6.62087 0.5
743 7.18799 10.2422 11.6433 0.5
744 8.20701 12.6081 8.94695 0.5
745 6.3698 13.5605 0.504913 0.5
746 1.48407 0.536086 13.1287 0.5
747 6.99504 0.691107 9.26447 0.5
748 8.11463 10.413 1.58865 0.5
749 2.29881 7.60015 11.2943 0.5
750 3.93683 2.74989 2.72039 0.5
751 2.72477 12.7849 6.92899 0.5
752 7.14356 9.59779 4.2177 0.5
753 6.34968 12.7918 0.0566717 0.5
754 4.5592 5.74523 2.99032 0.5
755 10.3177 11.5158 4.6768 0.5
756 7.88484 9.03554 0.35368 0.5
757 2.67429 2.72518 10.5489 0.5
758 13.1504 4.53846 5.92954 0.5
759 8.92781 2.50944 13.115 0.5
760 7.59179 6.19858 11.4664 0.5
761 2.8193 0.152495 6.52037 0.5
762 5.06765 5.8479 2.09275 0.5
763 9.24196 7.10537 6.51463 0.5
764 7.38861 1.96417 7.34501 0.5
765 2.50072 5.54792 2.52912 0.5
766 4.39884 2.93557 12.0175 0.5
767 5.47728 2.80225 8.07617 0.5
768 6.30573 0.845982 9.7021 0.5
769 2.41342 2.46413 5.85927 0.5
770 13.2518 2.11148 9.54266 0.5
771 3.37875 5.35964 7.43537 0.5
772 12.6157 5.36768 11.6429 0.5
773 13.3489 10.1524 2.03991 0.5
774 2.23111 12.402 10.769 0.5
775 13.3087 1.3724 12.6301 0.5
776 6.54441 11.5658 3.20128 0.5
777 5.5703 11.5486 5.76771 0.5
778 9.80867 12.7895 5.76182 0.5
779 8.48239 6.88764 10.0573 0.5
780 12.533 13.5133 0.884874 0.5
781 2.70948 7.40972 12.4393 0.5
782 2.97587 0.461303 8.81751 0.5
783 5.54813 13.0697 12.0321 0.5
784 5.82321 6.54683 10.3202 0.5
785 0.427294 6.05671 0.576675 0.5
786 5.36649 6.71907 2.27391 0.5
787 1.00202 3.80974 3.68909 0.5
788 13.3488 9.30897 0.971072 0.5
789 11.3784 8.90106 2.9115 0.5
790 3.89145 12.3268 6.04809 0.5
791 10.4314 6.71921 1.83627 0.5
792 2.59072 5.06685 10.0795 0.5
793 1.77433 4.64129 13.111 0.5
794 11.9588 13.5689 4.65875 0.5
795 7.27156 0.470355 6.7041 0.5
796 12.9325 4.65265 0.18481 0.5
797 4.88269 0.206812 11.6025 0.5
798 1.65745 13.0838 1.10589 0.5
799 6.90615 3.51672 7.03233 0.5
800 0.0385245 8.59774 0.533051 0.5
801 12.1739 9.51229 9.3868 0.5
802 9.48228 11.1599 8.69168 0.5
803 4.55783 3.77705 11.5131 0.5
804 3.65026 9.01027 0.129113 0.5
805 2.30471 11.7505 12.5632 0.5
806 9.18163 8.29888 10.2393 0.5
807 11.5459 6.67912 7.25086 0.5
808 8.60719 12.9251 12.4612 0.5
809 5.71655 12.1529 7.81868 0.5
810 8.81586 7.30341 8.5653 0.5
811 6.04997 7.21955 7.14069 0.5
812 11.5596 6.6018 0.0649402 0.5
813 8.08333 4.48023 12.6643 0.5
814 6.29184 11.1573 3.83712 0.5
815 3.23158 9.01181 2.29816 0.5
816 9.90073 11.1787 0.682927 0.5
817 12.7606 3.33075 5.15799 0.5
818 9.10755 7.04266 13.1422 0.5
819 3.74586 10.2995 1.32467 0.5
820 5.86171 1.7275 1.78189 0.5
821 11.2654 4.3311 1.93579 0.5
822 10.5211 8.53353 1.30966 0.5
823 7.29974 7.34903 7.18462 0.5
824 9.34934 9.79992 2.5754 0.5
825 1.01707 11.3192 11.7605 0.5
826 13.4105 3.93946 11.336 0.5
827 0.897745 8.21309 5.0314 0.5
828 10.3067 8.19763 7.79111 0.5
829 10.9574 13.1044 11.0574 0.5
830 12.8357 12.0337 4.6842 0.5
831 0.61082 7.37931 8.68154 0.5
832 10.1238 3.07531 12.8104 0.5
833 10.064 10.6622 3.8001 0.5
834 3.83835 9.18545 0.501893 0.5
835 5.51857 10.2768 10.4732 0.5
836 1.97236 11.4459 6.13471 0.5
837 8.92649 6.67784 8.5864 0.5
838 13.1955 4.09627 9.03512 0.5
839 11.7111 13.1315 9.33136 0.5
840 0.48325 9.57842 7.81369 0.5
841 7.43289 8.58731 3.53458 0.5
842 5.53983 5.46667 3.24186 0.5
843 9.70526 12.7347 1.24416 0.5
844 11.4379 3.79647 2.78501 0.5
845 3.77328 4.8439 5.6196 0.5
846 8.04879 12.6415 13.4882 0.5
847 9.12613 9.27656 10.2332 0.5
848 5.06719 3.25558 6.83225 0.5
849 3.26175 11.4151 8.46855 0.5
850 9.08154 7.25044 11.3206 0.5
851 9.54654 13.3942 8.19095 0.5
852 10.8875 8.67727 10.8539 0.5
853 4.78005 4.32904 0.82592 0.5
854 11.9667 10.0598 11.6244 0.5
855 6.32153 11.7043 10.498 0.5
856 6.05255 3.87855 0.303339 0.5
857 1.12065 2.20998 10.1346 0.5
858 12.5146 1.27887 6.05626 0.5
859 7.82364 5.92797 8.00106 0.5
860 8.50342 5.48943 2.60223 0.5
861 7.35571 2.28233 4.31592 0.5
862 8.23326 5.08452 12.2952 0.5
863 5.5378 6.96331 10.8451 0.5
864 1.48317 12.284 10.9234 0.5
865 6.03679 13.2702 13.2206 0.5
866 1.05767 9.26713 10.0145 0.5
867 1.60088 9.46959 4.8029 0.5
868 12.0511 6.98568 0.960988 0.5
869 0.460492 0.614012 0.166194 0.5
870 9.20922 12.8962 3.97314 0.5
871 10.7848 11.783 11.9079 0.5
872 12.648 12.8414 4.83106 0.5
873 13.5154 6.42471 9.00745 0.5
874 1.69382 8.67696 0.325168 0.5
875 3.304 9.93381 11.6621 0.5
876 11.3979 0.143063 13.4719 0.5
877 12.2383 1.6831 12.7522 0.5
878 0.033584 0.877974 5.91261 0.5
879 8.74202 2.56626 12.5874 0.5
880 11.6771 2.90797 9.03839 0.5
881 1.03673 1.47988 9.65998 0.5
882 6.2977 6.89594 3.64425 0.5
883 7.52544 3.28437 0.914695 0.5
884 5.19525 4.73779 4.34013 0.5
885 3.27543 13.3422 5.53445 0.5
886 0.891807 5.99278 6.70823 0.5
887 13.0323 12.3362 9.13433 0.5
888 5.74356 13.5258 10.4434 0.5
889 9.22282 2.83247 11.7983 0.5
890 1.85345 3.10048 3.71647 0.5
891 0.467813 2.7174 12.9 0.5
892 3.72081 8.14423 6.45231 0.5
893 9.61279 12.3289 13.1982 0.5
894 13.5137 3.45115 4.80429 0.5
895 10.6411 0.195325 11.2395 0.5
896 5.87681 0.476186 11.6018 0.5
897 9.55167 0.63178 6.98803 0.5
898 7.89561 2.71099 9.7842 0.5
899 6.17374 6.30933 8.00856 0.5
900 11.6634 4.89959 2.29867 0.5
901 7.25688 12.3267 5.70233 0.5
902 2.06245 8.5733 7.01041 0.5
903 1.91779 10.9189 3.59931 0.5
904 11.5869 3.28349 12.0759 0.5
905 8.50535 9.85861 8.14092 0.5
906 1.99474 9.81184 9.18734 0.5
907 9.61041 11.5622 2.50205 0.5
908 6.94557 6.47445 0.383804 0.5
909 1.11806 1.15196 13.1773 0.5
910 2.90471 9.03088 12.7277 0.5
911 6.04639 1.76467 2.92911 0.5
912 1.92001 0.934567 2.47431 0.5
913 13.3055 0.18396 9.46565 0.5
914 5.45751 1.79658 2.84159 0.5
915 6.10885 6.41045 7.12347 0.5
916 1.75867 11.1891 1.49658 0.5
917 6.78379 7.17415 10.174 0.5
918 5.54318 12.1942 6.83642 0.5
919 13.4981 11.3455 7.07732 0.5
920 8.8168 1.03437 9.29249 0.5
921 5.53383 7.86353 2.75064 0.5
922 3.75571 11.3096 10.0267 0.5
923 8.16217 2.93913 1.07726 0.5
924 7.36646 10.1033 7.90672 0.5
925 9.25737 10.5161 11.7934 0.5
926 12.4699 9.21625 3.44656 0.5
927 9.19241 11.4063 3.43544 0.5
928 0.402695 6.26232 0.983853 0.5
929 9.77502 7.48396 7.19706 0.5
930 8.21128 13.4048 2.45036 0.5
931 5.61117 6.25871 5.48917 0.5
932 10.2988 6.35589 6.79718 0.5
933 1.95734 9.66285 9.18665 0.5