ITEM: TIMESTEP
490000
ITEM: NUMBER OF ATOMS
1000
ITEM: BOX BOUNDS xy xz yz pp pp pp
0.0000000000000000e+00 1.3572088000000001e+01 0.0000000000000000e+00
0.0000000000000000e+00 1.3572088000000001e+01 0.0000000000000000e+00
0.0000000000000000e+00 1.3572088000000001e+01 0.0000000000000000e+00
ITEM: ATOMS id x y z radius
1 5.44821 6.18346 11.418 0.5
2 3.50213 3.50297 8.86307 0.5
3 13.5523 12.5437 4.6244 0.5
4 12.6479 5.01236 2.87348 0.5
5 12.7681 8.10498 9.85623 0.5
6 2.18233 12.1414 6.04709 0.5
7 3.16016 2.23288 8.34851 0.5
8 3.43142 3.20945 6.58534 0.5
9 11.7056 4.46217 7.78043 0.5
10 1.36916 0.228702 7.29839 0.5
11 6.68123 6.99285 9.20519 0.5
12 11.7131 2.00538 6.22753 0.5
13 5.04694 6.36637 0.417406 0.5
14 11.7077 1.52822 6.92828 0.5
15 0.633111 2.28375 4.73402 0.5
16 6.70533 7.30289 11.5513 0.5
17 0.607267 5.30048 4.71382 0.5
18 6.10092 8.95027 9.65162 0.5
19 1.76638 12.5082 11.48 0.5
20 1.48673 5.87219 5.82041 0.5
21 11.0241 9.13082 13.4523 0.5
22 2.05996 12.8886 8.69139 0.5
23 10.6506 4.40291 12.8929 0.5
24 10.9245 0.15203 8.34469 0.5
25 7.57199 5.31984 7.24521 0.5
26 0.685925 12.1059 4.14612 0.5
27 1.50734 12.1558 10.9596 0.5
28 8.4483 8.68966 10.7588 0.5
29 1.83965 9.41568 5.11282 0.5
30 3.45274 12.399 3.10095 0.5
31 10.6288 9.91182 0.587135 0.5
32 8.89907 11.8911 7.77579 0.5
33 4.13988 12.0096 8.90579 0.5
34 8.62343 12.575 3.23591 0.5
35 0.147035 6.35025 11.0876 0.5
36 4.02173 13.4254 13.0779 0.5
37 13.5188 13.2752 13.2655 0.5
38 5.95386 5.93642 8.67057 0.5
39 11.2983 2.13503 11.2785 0.5
40 9.95237 7.5294 7.53091 0.5
41 8.37427 2.77747 1.43518 0.5
42 10.6293 8.55195 8.34305 0.5
43 7.30418 12.9964 2.0799 0.5
44 10.729 11.7669 12.2243 0.5
45 5.61808 3.57767 9.39683 0.5
46 2.77103 6.52579 6.38789 0.5
47 0.488999 9.09131 13.2379 0.5
48 11.102 8.98982 9.66207 0.5
49 10.8017 5.28771 1.08726 0.5
50 0.0681992 11.5971 12.9063 0.5
51 1.70077 0.977601 8.6667 0.5
52 2.46953 5.5125 12.6225 0.5
53 3.39864 9.11726 0.0926966 0.5
54 6.99398 1.05005 1.33604 0.5
55 2.21011 2.27767 9.67659 0.5
56 10.6611 5.19866 3.45685 0.5
57 1.32585 4.14561 9.41726 0.5
58 0.809659 6.65958 12.0417 0.5
59 10.0231 4.1405 2.00866 0.5
60 12.4058 2.98614 10.9015 0.5
61 5.08393 5.31077 11.9818 0.5
62 13.0073 12.8232 13.0417 0.5
63 11.3214 5.39682 11.9999 0.5
64 2.74202 7.38818 12.4358 0.5
65 10.9056 10.741 3.91134 0.5
66 0.953218 1.78203 11.4476 0.5
67 6.41333 1.23453 3.99683 0.5
68 4.17797 7.22858 1.23045 0.5
69 9.87234 13.427 6.34428 0.5
70 2.58127 12.3931 -0.0058531 0.5
71 7.9078 6.31488 7.09832 0.5
72 9.73702 6.60952 7.17196 0.5
73 10.4768 8.48314 5.63414 0.5
74 3.6605 6.08664 10.9558 0.5
75 9.8078 2.3644 12.3234 0.5
76 5.94965 11.5782 10.9609 0.5
77 11.7472 0.280466 12.3216 0.5
78 4.46754 0.991534 2.28744 0.5
79 11.5502 2.41375 1.18254 0.5
80 2.7837 3.80474 5.18684 0.5
81 8.44325 6.70082 8.08485 0.5
82 1.53026 4.9776 12.9829 0.5
83 5.09991 5.97526 8.54157 0.5
84 10.7514 8.56358 9.19713 0.5
85 8.96053 12.6556 13.09 0.5
86 5.15213 9.28 0.0659522 0.5
87 2.68227 1.66661 13.3269 0.5
88 2.72357 0.499544 1.68667 0.5
89 1.22664 4.2925 11.0735 0.5
90 7.14767 12.8778 2.25456 0.5
91 11.7697 7.41546 3.91731 0.5
92 8.26061 2.22216 12.6669 0.5
93 8.23202 11.8633 10.9529 0.5
94 9.43799 13.3748 3.18875 0.5
95 2.97168 9.06741 3.35292 0.5
96 13.5202 9.76833 12.3528 0.5
97 6.55315 11.7189 6.75411 0.5
98 13.0623 7.66631 8.33014 0.5
99 10.8248 13.4484 9.50003 0.5
100 4.33943 8.2498 3.73302 0.5
101 5.74607 12.1496 3.23422 0.5
102 10.7038 3.68938 2.6129 0.5
103 1.13185 6.22079 1.77763 0.5
104 3.1093 7.40979 4.69664 0.5
105 12.4079 9.25797 6.66403 0.5
106 7.52561 5.68648 6.16208 0.5
107 0.235799 0.0439211 3.08573 0.5
108 5.89505 11.3516 8.27324 0.5
109 12.7611 9.24021 3.89792 0.5
110 12.7749 1.11956 8.66672 0.5
111 6.9686 2.90431 10.0169 0.5
112 3.11123 6.15868 11.8465 0.5
113 10.4552 2.97411 12.4708 0.5
114 8.91198 7.72661 10.8872 0.5
115 6.83768 1.07539 8.28183 0.5
116 3.86362 9.23968 0.294966 0.5
117 8.39964 2.15691 0.154661 0.5
118 4.18602 4.47128 8.11972 0.5
119 10.0533 2.78222 6.55269 0.5
120 0.0700949 9.47268 5.50573 0.5
121 6.65947 5.85626 11.6578 0.5
122 7.56981 1.25353 3.0808 0.5
123 10.9053 5.07717 8.20328 0.5
124 1.88711 1.39845 9.01101 0.5
125 8.22508 3.0014 12.36 0.5
126 5.13866 5.36849 11.7511 0.5
127 8.41038 0.955949 1.29905 0.5
128 4.1292 1.25458 8.56938 0.5
129 5.36742 7.08511 7.88998 0.5
130 8.05782 12.7395 0.380399 0.5
131 2.74643 3.81464 8.90961 0.5
132 11.0394 0.2267 12.6728 0.5
133 8.95844 8.34703 3.2037 0.5
134 9.9658 0.840497 6.54379 0.5
135 10.8788 13.0899 9.30165 0.5
136 5.39063 11.8625 5.13133 0.5
137 7.30782 3.47765 5.63251 0.5
138 13.2478 11.0647 0.40509 0.5
139 9.35465 4.27145 5.33894 0.5
140 4.5762 1.20346 12.6272 0.5
141 9.69432 11.3767 0.887211 0.5
142 0.137971 6.24128 9.54677 0.5
143 13.3742 7.10217 11.734 0.5
144 12.3396 4.64819 7.10679 0.5
145 2.99149 4.92199 7.94717 0.5
146 7.64926 0.405298 5.31226 0.5
147 8.46319 10.0126 13.1398 0.5
148 8.0138 5.36186 11.3233 0.5
149 8.74704 5.35898 4.52698 0.5
150 1.78878 5.94433 3.69845 0.5
151 4.12003 6.0455 0.0735818 0.5
152 7.27943 9.77788 4.12954 0.5
153 3.3873 2.28948 4.92135 0.5
154 9.64919 10.3612 9.13739 0.5
155 2.07551 8.11193 6.90708 0.5
156 4.82913 1.00394 10.661 0.5
157 4.81872 4.5562 7.10557 0.5
158 3.97615 11.357 5.36756 0.5
159 1.29375 9.74621 7.95881 0.5
160 13.3295 5.69199 11.9359 0.5
161 1.00836 6.26981 6.75362 0.5
162 5.19484 12.5255 0.805932 0.5
163 0.0566111 13.3219 1.36688 0.5
164 2.65507 2.76646 4.02805 0.5
165 4.52598 0.809538 12.0624 0.5
166 1.85019 7.98833 4.57413 0.5
167 7.38711 2.24033 0.328204 0.5
168 5.1339 8.37896 10.5579 0.5
169 10.7391 9.99922 11.951 0.5
170 9.16075 3.68169 10.64 0.5
171 1.01593 9.01665 13.0853 0.5
172 7.94964 11.0297 2.02159 0.5
173 10.344 4.41606 7.80768 0.5
174 1.47363 12.5086 7.68991 0.5
175 12.4817 8.99485 5.51186 0.5
176 2.41624 12.2356 10.7854 0.5
177 9.45705 1.00234 1.18056 0.5
178 11.215 3.22961 3.85817 0.5
179 1.21691 11.4058 1.42423 0.5
180 2.76343 4.20837 7.23647 0.5
181 10.297 11.2548 4.01355 0.5
182 0.963375 7.52056 10.8921 0.5
183 0.951426 0.203993 3.79366 0.5
184 8.20482 4.59793 13.4973 0.5
185 4.84839 5.4597 13.1075 0.5
186 10.7335 7.29673 0.920216 0.5
187 5.43729 11.2976 6.96331 0.5
188 2.72886 4.88179 12.4834 0.5
189 9.94263 4.46084 1.86283 0.5
190 3.03688 8.74954 3.21378 0.5
191 2.36206 8.80159 1.9443 0.5
192 13.246 5.56977 10.6634 0.5
193 5.60436 5.75972 9.16368 0.5
194 12.2637 0.851116 13.3657 0.5
195 4.69345 0.544799 2.17308 0.5
196 10.1415 1.26092 6.38357 0.5
197 3.59833 0.805035 9.77222 0.5
198 11.1228 3.11515 5.09132 0.5
199 4.34882 6.71451 5.36157 0.5
200 3.15437 9.0837 0.00473451 0.5
201 1.04469 10.5025 4.85749 0.5
202 0.0504902 -0.0236887 13.3051 0.5
203 5.04515 6.54706 3.82353 0.5
204 9.60556 9.93751 3.87169 0.5
205 4.16272 9.7478 1.12566 0.5
206 10.6122 2.38597 8.17827 0.5
207 2.71277 7.80001 7.64918 0.5
208 4.90312 6.96485 12.7833 0.5
209 10.2411 7.43462 1.43784 0.5
210 12.8279 0.779107 5.63683 0.5
211 1.16532 8.11261 5.42473 0.5
212 11.9492 9.95567 4.54564 0.5
213 4.75743 0.802566 3.81946 0.5
214 12.1063 9.71143 8.29414 0.5
215 11.2317 10.1877 9.77654 0.5
216 7.93072 13.4649 10.7505 0.5
217 1.68598 4.70064 3.54252 0.5
218 10.9737 0.456517 1.13425 0.5
219 2.57224 9.73967 4.28113 0.5
220 0.0847548 12.8599 4.90706 0.5
221 8.70963 3.21189 11.8414 0.5
222 2.39703 6.75145 5.64652 0.5
223 13.0975 12.1641 6.45337 0.5
224 5.13115 4.22735 1.30632 0.5
225 4.43124 1.0961 9.29405 0.5
226 6.22588 1.01419 6.31594 0.5
227 8.46641 8.75313 9.67162 0.5
228 9.813 12.7453 11.7108 0.5
229 9.38556 9.5444 11.1486 0.5
230 12.8997 3.79522 12.1685 0.5
231 2.30272 3.96876 9.43551 0.5
232 9.43492 2.33167 10.7959 0.5
233 2.6178 0.579813 9.33505 0.5
234 11.9369 5.80637 10.1119 0.5
235 12.2865 9.41224 3.50914 0.5
236 4.66435 12.4277 3.06555 0.5
237 8.42818 10.0105 3.03107 0.5
238 11.9009 1.55557 7.48534 0.5
239 2.19229 9.25697 12.873 0.5
240 9.7036 9.93836 2.47067 0.5
241 13.1093 9.19349 7.75243 0.5
242 8.14404 0.0855716 9.58455 0.5
243 6.67419 1.86444 4.14946 0.5
244 4.07248 10.0352 8.91426 0.5
245 7.46887 8.96479 5.2074 0.5
246 9.36933 12.7932 6.68061 0.5
247 0.937992 11.1307 5.72804 0.5
248 2.4899 3.39921 2.94595 0.5
249 2.79611 5.24613 7.56069 0.5
250 7.0037 2.56733 9.12146 0.5
251 4.73841 2.73947 12.346 0.5
252 6.24716 0.90036 2.12285 0.5
253 8.94443 3.40436 8.8878 0.5
254 1.34906 8.87662 12.8585 0.5
255 5.07216 11.7014 2.69503 0.5
256 1.12875 6.14401 13.2994 0.5
257 5.18961 10.3011 10.3358 0.5
258 5.57708 8.81298 2.55169 0.5
259 12.8358 0.279264 7.86678 0.5
260 6.69286 0.455812 7.71504 0.5
261 10.3022 12.4164 13.4149 0.5
262 12.1818 0.558746 0.370553 0.5
263 0.552477 4.67138 4.04675 0.5
264 12.9321 3.86447 11.3088 0.5
265 11.7487 3.4234 6.83009 0.5
266 7.56388 12.2775 1.8148 0.5
267 3.69583 13.0186 9.16336 0.5
268 1.11046 5.84319 12.2977 0.5
269 1.90767 7.71319 8.18291 0.5
270 0.350073 9.60799 4.90519 0.5
271 9.1203 13.464 7.81581 0.5
272 9.33792 0.61133 13.0954 0.5
273 2.45526 3.37545 5.56375 0.5
274 5.90528 9.51617 0.150369 0.5
275 11.4753 3.45716 10.9422 0.5
276 1.5341 7.56144 6.13111 0.5
277 6.79659 9.28017 10.6726 0.5
278 8.19222 11.904 12.7648 0.5
279 7.1923 4.49908 11.7404 0.5
280 6.77884 2.14875 5.09815 0.5
281 6.45317 1.96414 12.8489 0.5
282 1.95457 9.84294 5.97667 0.5
283 11.9904 11.3861 3.58944 0.5
284 13.3421 7.4985 0.0583763 0.5
285 8.49247 9.71759 10.1858 0.5
286 7.52726 4.96435 11.258 0.5
287 11.2251 13.3542 12.6237 0.5
288 0.823437 7.02507 9.67451 0.5
289 11.8556 3.08885 12.1072 0.5
290 11.8128 13.3274 5.84492 0.5
291 12.1781 6.09236 4.03305 0.5
292 4.70004 2.26742 10.8495 0.5
293 6.83591 0.866635 10.5616 0.5
294 12.4311 4.63594 7.92324 0.5
295 13.3267 13.212 1.25125 0.5
296 0.166841 0.640102 11.8773 0.5
297 2.2235 3.21723 9.7193 0.5
298 7.38612 9.36612 6.61518 0.5
299 10.7344 10.7304 7.90501 0.5
300 1.29199 5.02817 1.09703 0.5
301 3.06106 11.644 8.20685 0.5
302 2.39789 3.91589 10.0274 0.5
303 7.58233 7.36 3.65091 0.5
304 6.37453 3.87481 9.32479 0.5
305 2.57131 12.0667 11.5454 0.5
306 8.81036 9.32234 7.26216 0.5
307 6.8368 1.06956 3.5455 0.5
308 1.79421 7.98313 7.22102 0.5
309 8.55999 7.23895 7.00781 0.5
310 11.9695 6.36158 8.98284 0.5
311 2.2111 4.84697 12.0249 0.5
312 10.0804 5.141 11.8482 0.5
313 3.36816 9.7102 10.9486 0.5
314 10.689 13.1497 0.322538 0.5
315 12.9616 12.8554 10.0494 0.5
316 1.02763 2.23501 12.9929 0.5
317 8.05038 8.98587 5.8209 0.5
318 12.2247 2.51343 13.5133 0.5
319 5.1097 3.41954 1.86114 0.5
320 6.84625 13.278 13.5067 0.5
321 7.48114 1.77135 10.9144 0.5
322 11.1383 1.40385 4.83609 0.5
323 4.06854 0.366381 11.5553 0.5
324 9.82011 4.20264 8.91053 0.5
325 3.61963 4.84319 3.24543 0.5
326 12.4129 12.8089 13.1232 0.5
327 2.84571 0.164139 6.33946 0.5
328 4.88149 13.5541 10.0735 0.5
329 8.9169 6.76219 5.49678 0.5
330 9.27346 5.09717 6.62427 0.5
331 12.3897 1.9572 3.35034 0.5
332 2.98489 0.191098 0.180974 0.5
333 3.71744 1.30378 11.672 0.5
334 8.22542 13.3998 6.21855 0.5
335 7.81297 9.00114 3.16798 0.5
336 8.52925 6.66476 4.80617 0.5
337 6.61126 0.312921 6.02195 0.5
338 10.4172 2.76187 3.41053 0.5
339 12.3576 0.666355 6.77145 0.5
340 5.05763 0.470829 10.8455 0.5
341 2.62323 6.49746 7.80976 0.5
342 10.5563 1.04024 9.38729 0.5
343 5.5685 11.3594 4.19043 0.5
344 5.5263 12.9487 3.10104 0.5
345 3.18731 13.4983 10.3782 0.5
346 4.83646 12.9936 13.5555 0.5
347 0.906089 9.28235 9.6442 0.5
348 8.70753 2.13005 4.58846 0.5
349 3.55477 6.91077 1.21843 0.5
350 10.4758 1.00457 11.444 0.5
351 7.8038 1.24118 11.2809 0.5
352 7.13322 3.7965 2.66906 0.5
353 1.8657 8.01941 11.1933 0.5
354 5.4018 10.8881 3.24174 0.5
355 7.02929 10.5111 1.62425 0.5
356 3.33399 12.5221 7.72809 0.5
357 2.19045 5.47703 10.8285 0.5
358 6.73567 2.84236 11.7084 0.5
359 1.49899 0.223203 5.64346 0.5
360 0.405344 1.20761 2.00526 0.5
361 6.40433 1.56424 6.81316 0.5
362 1.6951 8.11738 12.4102 0.5
363 5.86854 0.11603 3.16576 0.5
364 9.421 10.7406 9.95557 0.5
365 8.04791 11.7234 8.86803 0.5
366 7.3749 11.9731 2.03244 0.5
367 3.07928 12.3402 10.0473 0.5
368 1.74229 6.70616 9.19312 0.5
369 10.7515 7.05529 3.69511 0.5
370 7.42893 3.55636 5.25078 0.5
371 4.09447 7.89277 10.9279 0.5
372 10.6516 10.2522 9.21592 0.5
373 4.29558 7.08682 1.50401 0.5
374 8.22723 0.216784 7.56477 0.5
375 2.04304 7.91631 7.29412 0.5
376 7.0295 3.87768 1.88367 0.5
377 6.61122 4.33259 11.6808 0.5
378 7.54561 11.6358 5.58375 0.5
379 10.1824 10.1058 6.81651 0.5
380 3.96916 10.0201 3.62612 0.5
381 0.809116 0.393436 12.1363 0.5
382 0.269504 1.32536 2.95541 0.5
383 0.0762958 7.64396 9.00316 0.5
384 13.0879 13.4922 0.0403333 0.5
385 5.57707 0.243768 7.67359 0.5
386 6.87092 11.5088 2.72378 0.5
387 3.0773 6.46428 8.29886 0.5
388 2.88101 4.0682 2.18447 0.5
389 1.54756 2.94029 11.6014 0.5
390 3.20119 12.1094 4.09947 0.5
391 5.37411 0.105235 6.93178 0.5
392 10.8118 6.86161 12.9621 0.5
393 0.258612 9.02718 8.97638 0.5
394 3.57058 6.60396 2.84696 0.5
395 2.30059 9.51342 13.2666 0.5
396 4.30822 9.5448 8.84843 0.5
397 1.10142 4.51469 7.31499 0.5
398 5.44463 11.5588 12.8674 0.5
399 4.98944 4.85697 5.02508 0.5
400 2.06206 2.46214 11.2155 0.5
401 0.742947 11.7984 8.78721 0.5
402 3.22959 10.9798 11.2682 0.5
403 4.83751 3.24721 0.667299 0.5
404 1.88196 2.26478 10.3077 0.5
405 0.520168 6.57007 0.507888 0.5
406 11.0463 5.94535 4.56964 0.5
407 8.24031 4.31999 1.9358 0.5
408 1.0112 12.7078 1.42006 0.5
409 2.46986 6.76002 13.0254 0.5
410 2.04646 13.223 3.13907 0.5
411 3.47358 9.51069 0.181936 0.5
412 6.89637 12.1198 5.63396 0.5
413 8.84633 7.97417 9.1372 0.5
414 7.21512 5.00124 3.77689 0.5
415 10.0945 3.10643 6.34466 0.5
416 7.97399 12.1691 0.87843 0.5
417 12.2467 5.98804 11.0059 0.5
418 3.746 13.3586 1.00542 0.5
419 8.17392 3.04273 8.72271 0.5
420 3.1618 7.45627 4.98483 0.5
421 12.8138 7.89091 11.489 0.5
422 13.5277 9.40702 2.73118 0.5
423 8.30311 11.8328 3.45893 0.5
424 9.53981 9.14304 9.04757 0.5
425 9.86278 8.74926 9.5294 0.5
426 0.42784 10.3294 13.2067 0.5
427 2.3867 0.0380859 1.66748 0.5
428 9.15297 4.15909 8.75138 0.5
429 11.2249 13.5333 9.75384 0.5
430 4.59419 1.58317 12.1879 0.5
431 7.88118 3.78511 8.76851 0.5
432 3.384 11.2754 12.2605 0.5
433 3.79179 4.44646 4.65749 0.5
434 12.7991 4.4579 10.671 0.5
435 6.95886 0.404217 11.8026 0.5
436 13.2928 11.1562 2.05271 0.5
437 2.34181 13.1516 8.89403 0.5
438 1.2152 2.77409 4.58215 0.5
439 10.7714 3.13691 11.8938 0.5
440 12.3962 1.78022 4.9896 0.5
441 5.10977 11.1535 12.2844 0.5
442 5.22361 10.6407 11.9583 0.5
443 4.77746 6.38286 0.696245 0.5
444 11.2945 5.21984 8.86583 0.5
445 10.3442 7.0848 0.020748 0.5
446 4.98927 6.59199 0.881477 0.5
447 4.65256 10.0262 11.4843 0.5
448 8.77904 12.9404 0.887187 0.5
449 7.29176 3.74791 0.479027 0.5
450 2.3083 6.55996 2.77904 0.5
451 12.057 12.0925 3.19513 0.5
452 3.98007 13.118 10.309 0.5
453 4.62803 5.12462 6.62262 0.5
454 7.34983 1.04229 5.65666 0.5
455 5.74029 11.4549 1.61201 0.5
456 4.39475 9.408 2.38043 0.5
457 11.1177 9.6356 5.04555 0.5
458 1.01462 9.14747 4.97732 0.5
459 0.463043 13.4275 2.09357 0.5
460 8.64141 5.66848 3.33553 0.5
461 5.92229 3.38231 13.4572 0.5
462 1.76712 4.2469 1.73087 0.5
463 1.4744 3.30813 6.0722 0.5
464 3.09216 1.52118 7.27953 0.5
465 1.20262 13.4766 9.12274 0.5
466 6.01666 2.88617 7.31586 0.5
467 4.90675 8.48646 1.99997 0.5
468 6.75167 0.271849 10.1433 0.5
469 3.67449 13.513 2.84576 0.5
470 4.89476 2.78267 12.6896 0.5
471 1.39698 10.593 2.81987 0.5
472 1.68063 0.0356933 6.73665 0.5
473 10.9365 4.9474 5.44943 0.5
474 9.02983 12.8136 4.51219 0.5
475 7.18394 12.8293 5.17362 0.5
476 7.09042 3.15167 12.8589 0.5
477 7.25941 0.223148 5.65885 0.5
478 6.16046 3.63197 5.49218 0.5
479 7.24039 8.22695 5.11546 0.5
480 5.10127 2.53842 2.88036 0.5
481 1.48571 13.1599 6.32387 0.5
482 10.41 5.81234 13.3168 0.5
483 3.55055 3.53073 2.60155 0.5
484 4.55867 12.2261 2.00736 0.5
485 6.38524 0.520897 8.92014 0.5
486 4.13277 12.4721 3.31002 0.5
487 7.99328 11.3158 9.19476 0.5
488 2.80587 6.28979 2.89443 0.5
489 2.27982 0.331115 6.37602 0.5
490 2.33095 3.22475 9.62114 0.5
491 12.0653 7.07612 9.80895 0.5
492 7.19061 1.42435 1.97048 0.5
493 3.04598 0.897799 0.000256277 0.5
494 12.6204 5.19214 10.2776 0.5
495 8.00799 6.54214 9.15964 0.5
496 12.2785 1.35746 3.84209 0.5
497 7.47098 13.5584 3.03335 0.5
498 8.79873 9.49677 6.54578 0.5
499 5.42578 7.43753 12.6388 0.5
500 2.01254 2.44131 9.31724 0.5
501 2.20154 1.09682 6.0568 0.5
502 10.4691 0.2032 7.0022 0.5
503 5.54104 2.74505 6.35819 0.5
504 9.73725 11.1996 5.32899 0.5
505 2.33101 10.2405 9.39133 0.5
506 5.17572 7.51081 10.7923 0.5
507 3.32332 1.77346 10.6855 0.5
508 10.8187 8.06786 7.49153 0.5
509 11.1641 5.68708 4.93684 0.5
510 10.0458 1.74147 4.16459 0.5
511 10.7474 11.6804 6.66398 0.5
512 9.03753 8.43116 3.85957 0.5
513 1.32251 11.8454 10.5501 0.5
514 4.18636 2.12645 8.14609 0.5
515 0.513215 10.5926 6.739 0.5
516 1.74098 2.01612 9.57986 0.5
517 6.99914 5.48128 6.36035 0.5
518 8.54117 5.78919 12.5453 0.5
519 3.52795 10.0446 3.89887 0.5
520 5.99144 13.496 1.10932 0.5
521 12.1224 12.0939 9.01634 0.5
522 5.64983 12.4492 1.01841 0.5
523 0.986377 0.761075 6.65879 0.5
524 10.8813 1.55734 5.23508 0.5
525 5.4521 10.7233 3.6172 0.5
526 0.35579 10.8626 7.30926 0.5
527 0.146932 2.34807 10.0145 0.5
528 10.3734 0.186965 10.9784 0.5
529 9.75159 9.4342 11.1683 0.5
530 12.5001 8.37162 11.9553 0.5
531 13.252 6.88029 1.77401 0.5
532 6.32358 10.7565 4.52065 0.5
533 4.22285 13.5059 5.84989 0.5
534 4.55446 10.8391 8.32164 0.5
535 3.48088 11.9773 3.9621 0.5
536 13.272 10.9813 6.8082 0.5
537 1.80951 10.9856 11.8354 0.5
538 -0.00274876 2.60926 9.83744 0.5
539 2.23838 4.9911 13.3285 0.5
540 2.96771 3.19959 13.4943 0.5
541 8.10021 4.58681 4.76401 0.5
542 5.61378 3.39077 7.11013 0.5
543 4.33719 9.92753 10.8853 0.5
544 4.12486 3.31751 3.55647 0.5
545 9.12183 13.0851 4.85052 0.5
546 4.27814 0.712487 1.60716 0.5
547 9.73558 9.90967 1.14505 0.5
548 1.67254 3.98404 2.51669 0.5
549 3.85074 7.99834 8.86436 0.5
550 2.78769 8.45787 12.4807 0.5
551 6.26882 9.04467 4.57623 0.5
552 9.91126 12.5629 12.1371 0.5
553 0.345825 0.635054 13.087 0.5
554 5.33438 8.1392 1.77432 0.5
555 0.757873 12.1509 7.62229 0.5
556 3.7643 13.2924 11.4763 0.5
557 9.47194 4.59669 4.53375 0.5
558 6.48129 8.87056 10.3283 0.5
559 10.5579 13.3356 4.69602 0.5
560 12.6441 4.45312 5.31611 0.5
561 11.9759 3.19592 8.63739 0.5
562 10.0438 11.2719 2.13585 0.5
563 5.72392 3.66957 6.13916 0.5
564 7.83609 1.26437 1.25769 0.5
565 9.65424 6.32104 8.35695 0.5
566 10.372 0.223423 10.7094 0.5
567 8.71792 2.57787 7.48454 0.5
568 10.2439 2.25836 9.07633 0.5
569 10.0563 1.38314 10.6345 0.5
570 3.58808 9.13663 1.61152 0.5
571 5.35725 3.20581 0.339056 0.5
572 6.58772 12.4105 2.53331 0.5
573 10.0896 10.319 5.73726 0.5
574 5.3639 1.88372 9.21043 0.5
575 9.85868 4.49162 7.29915 0.5
576 2.73912 5.1316 6.20419 0.5
577 9.42814 6.51968 13.47 0.5
578 4.80195 0.467196 3.97312 0.5
579 7.89952 0.185215 10.1179 0.5
580 6.51047 0.888974 3.88516 0.5
581 7.97748 11.8045 5.21352 0.5
582 6.5499 10.9773 11.1717 0.5
583 10.4909 2.20537 8.61619 0.5
584 6.37258 0.228444 4.89744 0.5
585 6.20477 7.03366 12.5689 0.5
586 11.4625 11.0265 4.00627 0.5
587 1.75875 6.97027 3.98305 0.5
588 5.7984 4.93571 9.02385 0.5
589 13.0444 7.40997 10.673 0.5
590 9.91354 1.8144 9.02414 0.5
591 11.0499 1.73695 6.85257 0.5
592 10.3344 8.7847 9.78973 0.5
593 5.79684 7.93082 10.9719 0.5
594 4.93536 0.974494 4.3453 0.5
595 2.93595 6.39179 8.60639 0.5
596 10.7627 8.43252 9.5938 0.5
597 7.77664 1.53495 9.08539 0.5
598 1.00574 0.962149 11.1747 0.5
599 7.72319 3.61227 8.10239 0.5
600 2.91885 13.1149 10.2002 0.5
601 4.54903 4.18059 8.44876 0.5
602 11.347 7.65673 5.7832 0.5
603 12.2567 4.68294 6.0033 0.5
604 4.93739 1.06709 13.4341 0.5
605 7.28061 10.1877 2.47359 0.5
606 12.2285 1.78057 0.323859 0.5
607 9.45817 6.11184 12.2324 0.5
608 11.3646 9.53674 4.98457 0.5
609 11.0519 11.7269 4.30068 0.5
610 1.3567 3.78903 8.66731 0.5
611 13.1594 2.2894 13.0438 0.5
612 5.83743 4.74949 3.52981 0.5
613 9.85332 9.21551 5.56934 0.5
614 4.1284 7.63229 0.996432 0.5
615 11.2172 8.03635 0.848464 0.5
616 1.01835 7.39628 8.12883 0.5
617 3.32812 9.71101 4.10306 0.5
618 11.775 1.93918 5.53679 0.5
619 5.10962 12.4565 12.4251 0.5
620 0.299501 5.50571 11.7875 0.5
621 4.03255 7.28159 10.1929 0.5
622 10.1742 4.45499 8.4373 0.5
623 1.8285 0.439511 6.79632 0.5
624 8.5383 9.00765 3.62046 0.5
625 0.557142 6.59035 2.51311 0.5
626 8.1179 1.17477 0.983065 0.5
627 13.099 1.02799 6.9432 0.5
628 12.6255 11.3082 1.63638 0.5
629 5.51071 7.05287 1.39099 0.5
630 11.0169 8.18395 0.473638 0.5
631 7.45325 3.88234 11.2428 0.5
632 7.31751 9.555 1.82848 0.5
633 6.1198 5.28566 9.41492 0.5
634 6.71352 11.0234 13.4279 0.5
635 1.35798 1.09939 8.40528 0.5
636 3.79081 11.4837 12.0917 0.5
637 4.42676 4.0859 0.774655 0.5
638 2.46118 2.8263 11.1361 0.5
639 9.77352 10.1392 4.91547 0.5
640 3.22537 8.35279 9.17443 0.5
641 9.93084 9.47329 10.3142 0.5
642 13.0269 12.6023 0.666755 0.5
643 6.44366 4.55827 0.159797 0.5
644 1.44672 11.0866 11.019 0.5
645 7.88831 9.03034 5.25527 0.5
646 5.66976 11.084 11.4787 0.5
647 9.82179 12.9312 9.4893 0.5
648 6.46967 6.84334 1.74045 0.5
649 10.717 11.2745 9.34284 0.5
650 6.50015 0.538188 10.8559 0.5
651 6.32791 10.2737 3.29898 0.5
652 4.12544 4.58126 10.3667 0.5
653 8.48296 0.356151 9.08451 0.5
654 2.14576 1.26731 12.5491 0.5
655 0.706647 11.9948 0.570328 0.5
656 2.94426 11.7545 3.71449 0.5
657 4.18352 4.48881 9.47796 0.5
658 11.5873 3.41271 9.35496 0.5
659 10.4046 1.48551 0.229517 0.5
660 0.931044 9.11911 2.30512 0.5
661 5.969 9.43966 1.78643 0.5
662 6.05422 0.492415 2.72531 0.5
663 0.272516 6.70872 4.98472 0.5
664 3.16856 1.9461 5.77487 0.5
665 13.4164 9.1188 5.34922 0.5
666 9.08494 9.18814 4.21588 0.5
667 9.52935 0.00389895 6.67985 0.5
668 8.11901 5.4161 2.14637 0.5
669 2.22407 2.02074 0.851014 0.5
670 11.0359 10.2347 7.80986 0.5
671 11.8567 7.62158 2.86401 0.5
672 5.05693 3.09265 0.36758 0.5
673 1.67339 3.32973 3.38658 0.5
674 10.6506 3.38157 5.83938 0.5
675 10.3487 2.56809 5.52187 0.5
676 7.27205 4.50109 13.3485 0.5
677 1.48507 11.2227 0.305181 0.5
678 5.26187 2.21233 11.0801 0.5
679 5.18458 5.45674 3.38114 0.5
680 4.45579 10.6774 1.32478 0.5
681 7.87596 4.28037 9.04921 0.5
682 5.31769 8.05512 5.07112 0.5
683 12.2168 4.03473 11.4589 0.5
684 12.9092 6.91952 2.29391 0.5
685 4.15123 0.725846 1.97091 0.5
686 3.14971 1.93461 4.6491 0.5
687 12.255 9.41491 1.09175 0.5
688 9.75238 2.98939 9.53825 0.5
689 1.8619 3.41468 8.52979 0.5
690 1.40065 6.21438 9.79537 0.5
691 7.49725 8.35902 6.2444 0.5
692 10.3595 7.28517 6.14254 0.5
693 2.74199 2.39439 5.01168 0.5
694 7.877 8.59614 11.0494 0.5
695 10.4663 12.6681 13.1408 0.5
696 7.44962 8.69124 5.37487 0.5
697 11.9723 8.82079 12.3134 0.5
698 9.22272 4.90788 1.94117 0.5
699 12.8287 2.83472 0.590276 0.5
700 9.38395 8.1407 10.7746 0.5
701 9.49018 6.19218 9.65843 0.5
702 12.6322 4.91803 12.3916 0.5
703 4.17133 1.68341 12.6503 0.5
704 10.7662 10.126 0.420675 0.5
705 0.996328 2.81999 9.98931 0.5
706 6.27699 11.5742 3.57699 0.5
707 5.65924 11.6254 1.51807 0.5
708 1.49195 4.40218 7.93744 0.5
709 7.59043 8.80853 5.97208 0.5
710 12.9381 6.8247 6.53359 0.5
711 12.3494 6.45082 11.5703 0.5
712 5.2881 13.3362 10.8367 0.5
713 7.22433 8.73087 0.421592 0.5
714 1.20063 12.5459 2.77435 0.5
715 12.4097 4.89661 2.29111 0.5
716 1.31922 1.67395 11.2128 0.5
717 3.23946 9.11696 2.93519 0.5
718 1.56995 6.82812 8.38586 0.5
719 11.4193 6.97748 11.4152 0.5
720 0.781243 1.37559 3.57738 0.5
721 6.26323 3.25869 8.51184 0.5
722 13.0717 12.5355 1.44513 0.5
723 11.5556 12.1022 10.0148 0.5
724 4.11392 0.445491 5.25077 0.5
725 4.15434 9.99456 10.7431 0.5
726 7.88646 11.3164 6.75853 0.5
727 4.45926 9.14985 8.36409 0.5
728 0.230483 3.83334 10.0237 0.5
729 1.05513 6.25357 1.64162 0.5
730 10.7577 12.6533 12.9794 0.5
731 7.75379 13.0936 11.5251 0.5
732 7.65273 10.4538 2.27883 0.5
733 12.0728 8.91635 10.1416 0.5
734 5.90567 6.71649 1.04913 0.5
735 1.57102 11.8749 13.4215 0.5
736 4.8997 2.43919 8.99994 0.5
737 10.236 13.3419 7.91126 0.5
738 9.07693 8.79046 9.51209 0.5
739 10.1406 0.7694 13.0646 0.5
740 4.68074 12.4695 12.5464 0.5
741 3.29315 2.79982 5.11245 0.5
742 8.57314 4.73222 1.05978 0.5
743 8.33809 4.42831 5.75159 0.5
744 11.4592 0.625556 5.64433 0.5
745 9.07968 2.43205 2.90483 0.5
746 2.71257 6.10243 8.23811 0.5
747 1.98137 11.359 9.10825 0.5
748 7.00925 8.18345 7.37897 0.5
749 3.20955 4.35387 11.6893 0.5
750 3.89895 1.91947 13.3915 0.5
751 7.61686 11.3875 2.25555 0.5
752 12.1956 11.5908 0.271855 0.5
753 10.7382 7.72901 7.6344 0.5
754 11.4446 12.8974 5.45951 0.5
755 8.58641 4.57415 6.37237 0.5
756 12.1842 10.3931 5.30589 0.5
757 12.0607 8.72204 0.295766 0.5
758 4.95324 8.78984 4.58738 0.5
759 10.8052 2.34843 11.1668 0.5
760 5.30526 8.45894 6.66661 0.5
761 9.28734 9.71273 5.48724 0.5
762 5.30194 4.59906 11.3914 0.5
763 7.58269 1.93285 8.56058 0.5
764 5.5704 7.86254 9.94818 0.5
765 13.0199 12.868 6.97794 0.5
766 3.01412 0.278683 2.59786 0.5
767 7.55987 6.95667 4.43148 0.5
768 7.06761 7.30934 1.46933 0.5
769 5.05999 2.81437 1.67344 0.5
770 2.66011 0.711876 11.3837 0.5
771 10.4139 1.29934 8.53504 0.5
772 11.1707 8.61166 7.25285 0.5
773 5.49509 5.1592 5.50504 0.5
774 8.96359 8.37565 11.9032 0.5
775 2.41323 8.66182 13.1648 0.5
776 8.07756 3.66245 2.44719 0.5
777 6.44729 1.34929 3.30544 0.5
778 12.2465 2.63425 4.0707 0.5
779 12.6992 7.9344 10.9249 0.5
780 10.2967 9.50213 12.1941 0.5
781 3.1584 6.00928 3.20999 0.5
782 4.81611 6.55072 3.39601 0.5
783 8.22487 0.419807 10.9147 0.5
784 9.95739 3.05406 10.8839 0.5
785 7.71371 1.33723 8.42837 0.5
786 9.25262 2.91227 7.19365 0.5
787 12.5811 3.87705 3.83253 0.5
788 4.66395 4.37167 1.74638 0.5
789 0.884682 11.6541 12.9182 0.5
790 9.78184 8.19347 12.7077 0.5
791 11.7855 11.5465 4.55738 0.5
792 12.2056 1.10309 1.07602 0.5
793 3.4873 0.560632 7.48892 0.5
794 8.14011 11.0163 6.29998 0.5
795 0.768033 0.621566 5.8031 0.5
796 7.03628 13.1917 10.7497 0.5
797 7.19804 6.07518 5.51178 0.5
798 4.31505 6.88885 8.34993 0.5
799 12.2423 13.2634 12.5983 0.5
800 1.02912 12.291 12.1345 0.5
801 13.2677 10.1045 7.45693 0.5
802 8.98727 2.08712 2.36771 0.5
803 0.00919631 3.42503 3.31713 0.5
804 12.4229 6.6317 4.8952 0.5
805 12.4235 12.5541 3.90236 0.5
806 11.0521 9.811 5.64923 0.5
807 3.88596 12.5608 2.69992 0.5
808 1.5008 4.32711 0.876438 0.5
809 1.0277 10.5357 0.35101 0.5
810 7.78809 4.0705 9.87266 0.5
811 6.53621 6.44059 9.31934 0.5
812 2.34805 5.02423 13.4117 0.5
813 12.9151 2.89255 12.0659 0.5
814 8.8016 7.77254 12.41 0.5
815 9.11627 3.88916 8.96883 0.5
816 11.5347 2.66048 0.445703 0.5
817 11.6117 2.54663 9.93931 0.5
818 7.78608 1.98423 9.80308 0.5
819 3.73669 0.480268 7.35826 0.5
820 2.98537 13.2971 6.8375 0.5
821 6.83401 11.3041 1.69545 0.5
822 10.9084 7.15202 12.1356 0.5
823 11.7558 0.171627 2.0194 0.5
824 7.56449 12.6608 1.38876 0.5
825 0.734565 11.1822 11.9655 0.5
826 5.71873 12.7814 11.9813 0.5
827 3.82592 2.89458 0.373389 0.5
828 9.4311 12.6044 11.3623 0.5
829 8.16014 5.42631 6.24939 0.5
830 13.324 4.33548 5.67293 0.5
831 3.92915 0.756441 9.51993 0.5
832 8.96154 12.3907 2.00161 0.5
833 1.64509 10.8943 12.2388 0.5
834 9.37117 10.9055 13.536 0.5
835 10.2529 5.79787 13.045 0.5
836 6.23406 1.10062 1.47403 0.5
837 3.81317 9.25826 10.3524 0.5
838 4.23081 1.34745 6.54593 0.5
839 7.40984 0.398662 0.70596 0.5
840 10.7813 0.597222 8.25693 0.5
841 12.8641 6.86278 4.3817 0.5
842 3.42097 4.97404 7.40123 0.5
843 2.52037 1.7743 6.57533 0.5
844 10.3645 9.86577 12.2699 0.5
845 8.46957 11.9698 11.0683 0.5
846 10.9361 6.12166 0.888016 0.5
847 11.5828 9.9731 1.79155 0.5
848 3.37174 5.3048 9.15869 0.5
849 1.77476 10.5506 0.240659 0.5
850 1.6893 6.26581 11.4408 0.5
851 5.57879 10.6371 1.05567 0.5
852 7.07943 0.231166 10.6579 0.5
853 4.38255 9.13985 10.2755 0.5
854 1.55824 3.44283 5.15006 0.5
855 1.30561 4.91996 4.28923 0.5
856 1.32115 11.5408 0.354547 0.5
857 10.9597 7.28376 10.2882 0.5
858 4.48566 11.468 10.3055 0.5
859 4.82571 8.53097 9.99086 0.5
860 2.84354 12.4759 8.12288 0.5
861 9.41462 7.43745 10.6417 0.5
862 8.83847 7.34332 7.18127 0.5
863 5.16769 8.55866 4.37142 0.5
864 6.44958 11.54 1.73954 0.5
865 11.9335 4.87046 13.2223 0.5
866 4.73543 4.7957 10.2826 0.5
867 12.166 4.05091 11.7677 0.5
868 0.794529 2.88194 0.578173 0.5
869 7.00046 4.05059 11.7362 0.5
870 8.37976 3.29721 2.6755 0.5
871 3.93466 12.219 3.96691 0.5
872 3.91578 0.448902 7.89792 0.5
873 0.628502 2.4504 10.0609 0.5
874 3.3402 1.09123 4.4088 0.5
875 5.8127 1.52425 9.37606 0.5
876 12.3698 4.61856 8.27535 0.5
877 0.932764 1.91291 3.90376 0.5
878 3.39647 7.86667 10.2312 0.5
879 2.86887 6.7921 2.15275 0.5
880 5.51087 4.27695 8.56899 0.5
881 10.8582 12.3038 10.4244 0.5
882 9.83453 9.54778 4.70522 0.5
883 2.40504 8.49883 2.88703 0.5
884 0.510861 2.56348 3.11352 0.5
885 10.5165 6.17927 5.94693 0.5
886 6.52379 7.89756 11.5379 0.5
887 10.4166 7.6515 4.69653 0.5
888 8.03471 5.07451 9.82975 0.5
889 13.2885 2.62292 9.7753 0.5
890 0.939854 8.33771 2.2509 0.5
891 2.66968 13.0691 2.02345 0.5
892 5.87059 5.44314 5.00644 0.5
893 9.00994 6.40173 2.05932 0.5
894 6.66958 8.20642 5.79145 0.5
895 12.3881 3.36568 5.42098 0.5
896 11.5792 6.4075 7.12362 0.5
897 12.3405 8.8375 8.46017 0.5
898 12.8093 9.39218 0.0225913 0.5
899 0.868341 1.3333 8.63213 0.5
900 9.66212 1.31942 3.07678 0.5
901 6.65822 1.54954 2.38712 0.5
902 3.92602 11.5758 8.66207 0.5
903 10.753 9.40471 7.34883 0.5
904 0.126071 5.01956 10.0956 0.5
905 2.29325 3.53678 9.17226 0.5
906 0.521445 0.317441 11.0198 0.5
907 0.81688 1.47909 13.308 0.5
908 0.583285 9.97378 0.31184 0.5
909 0.715431 4.2438 10.4042 0.5
910 6.02045 10.9416 13.2572 0.5
911 8.54861 2.93309 1.75989 0.5
912 12.9267 8.31735 0.396173 0.5
913 1.42197 7.1661 3.34588 0.5
914 12.566 6.22028 2.88951 0.5
915 1.10625 12.4987 9.06953 0.5
916 8.19084 1.04017 10.6011 0.5
917 0.116582 7.38496 3.21218 0.5
918 9.96797 4.2563 3.91276 0.5
919 12.0195 2.27718 9.5107 0.5
920 7.77993 3.94875 7.98763 0.5
921 11.3358 3.42952 3.35914 0.5
922 10.026 7.70224 5.41556 0.5
923 9.90956 2.86582 0.122687 0.5
924 8.95144 4.90544 10.2454 0.5
925 1.81925 2.88207 7.62906 0.5
926 9.37278 2.86362 6.22331 0.5
927 3.39248 11.2236 9.5411 0.5
928 10.5417 9.18793 7.52247 0.5
929 11.6858 10.8933 5.4903 0.5
930 12.2212 7.46192 1.44211 0.5
931 6.72638 10.1352 9.69424 0.5
932 7.7178 2.28115 11.6376 0.5