ITEM: TIMESTEP
440000
ITEM: NUMBER OF ATOMS
1000
ITEM: BOX BOUNDS xy xz yz pp pp pp
0.0000000000000000e+00 1.3572088000000001e+01 0.0000000000000000e+00
0.0000000000000000e+00 1.3572088000000001e+01 0.0000000000000000e+00
0.0000000000000000e+00 1.3572088000000001e+01 0.0000000000000000e+00
ITEM: ATOMS id x y z radius
1 8.93461 9.17305 7.80762 0.5
2 0.969418 2.30574 5.29827 0.5
3 8.38602 2.62452 8.34944 0.5
4 6.89866 5.75107 10.287 0.5
5 5.01862 5.50092 6.22082 0.5
6 2.43799 3.30871 1.94447 0.5
7 0.503015 12.734 1.35665 0.5
8 2.48545 3.09593 8.09265 0.5
9 4.61749 8.71118 10.6626 0.5
10 10.5073 6.92746 11.1798 0.5
11 7.93811 0.541267 12.2842 0.5
12 9.48991 11.0349 7.81873 0.5
13 2.5433 5.76354 10.2646 0.5
14 2.33124 1.05593 2.82871 0.5
15 13.5608 11.1391 13.2877 0.5
16 5.82171 1.20817 5.88441 0.5
17 6.25577 7.83213 11.7 0.5
18 7.9423 8.95669 3.67656 0.5
19 13.1474 6.57333 4.00782 0.5
20 12.1537 2.68919 11.7827 0.5
21 11.1183 3.40493 10.2779 0.5
22 6.37188 9.7344 7.27044 0.5
23 10.2505 12.5569 5.32472 0.5
24 10.3525 3.72809 10.285 0.5
25 0.437851 8.38365 0.262087 0.5
26 7.80535 2.03036 7.2152 0.5
27 2.62718 8.19303 10.4431 0.5
28 5.76036 12.6216 1.49512 0.5
29 1.40624 8.62014 5.98372 0.5
30 8.74136 1.14523 3.06125 0.5
31 11.4762 0.239821 6.61397 0.5
32 8.03994 6.00005 1.7549 0.5
33 1.97226 6.83414 7.58018 0.5
34 9.47202 9.51143 12.8804 0.5
35 0.284457 4.91305 5.60865 0.5
36 2.33206 7.87664 7.06146 0.5
37 2.45381 0.225045 6.28857 0.5
38 0.70469 0.822424 9.60028 0.5
39 12.0379 3.08915 5.11678 0.5
40 8.87612 4.03183 13.0303 0.5
41 0.918974 5.67408 13.3074 0.5
42 4.88488 2.82951 0.420987 0.5
43 9.96176 3.57793 8.6418 0.5
44 13.2022 0.575802 2.6939 0.5
45 11.7796 8.06932 3.46225 0.5
46 0.34698 11.3714 3.70591 0.5
47 1.37628 7.13435 2.39586 0.5
48 9.8873 3.45429 11.316 0.5
49 3.438 7.06732 4.54522 0.5
50 3.00748 12.4512 3.20469 0.5
51 5.17483 10.4315 2.95354 0.5
52 9.26835 3.79619 8.30977 0.5
53 1.26988 12.1553 10.0721 0.5
54 12.0619 8.64252 5.36857 0.5
55 2.67502 7.79339 3.75674 0.5
56 10.3075 11.808 4.78112 0.5
57 5.57854 0.345532 11.0768 0.5
58 8.81575 10.3715 5.46055 0.5
59 6.37483 9.65568 9.76668 0.5
60 12.9696 5.38674 8.6233 0.5
61 0.836224 0.223584 7.51377 0.5
62 0.350877 4.30446 7.71976 0.5
63 0.816791 3.45162 0.283344 0.5
64 7.25772 8.00514 4.08982 0.5
65 2.88946 10.2915 12.4602 0.5
66 9.91661 11.7551 10.8827 0.5
67 4.07217 12.6261 10.8792 0.5
68 5.60767 10.6364 3.95166 0.5
69 7.4086 2.82009 8.75886 0.5
70 10.2421 10.6799 0.264807 0.5
71 2.98453 11.8825 7.85503 0.5
72 13.1407 13.2653 3.29807 0.5
73 1.19067 9.80757 5.16638 0.5
74 7.22114 1.6612 3.08552 0.5
75 11.4818 0.138722 9.95377 0.5
76 4.65354 7.27795 0.482647 0.5
77 11.9768 1.8375 1.93695 0.5
78 11.705 13.0585 10.4572 0.5
79 4.18222 8.19732 0.262235 0.5
80 10.718 8.33057 3.8189 0.5
81 13.2374 4.87417 11.895 0.5
82 9.91917 6.47036 9.54638 0.5
83 8.81576 6.22618 7.78289 0.5
84 9.40604 3.15245 2.79055 0.5
85 5.83731 8.81305 11.4455 0.5
86 11.7692 7.90411 8.97902 0.5
87 6.5963 11.1486 3.35419 0.5
88 4.633 7.44155 12.2554 0.5
89 3.04881 0.945923 10.8927 0.5
90 4.92218 5.70555 0.954043 0.5
91 9.63618 4.7303 8.31892 0.5
92 5.0644 1.45597 7.10752 0.5
93 13.3316 11.2315 10.7407 0.5
94 0.0918344 5.2159 0.301421 0.5
95 13.0268 11.41 2.92374 0.5
96 7.98301 0.895139 2.26198 0.5
97 9.30002 4.98005 12.1793 0.5
98 0.156366 6.37122 8.19104 0.5
99 8.98273 11.539 0.321816 0.5
100 9.189 11.1156 7.6344 0.5
101 0.454457 5.27381 13.5152 0.5
102 9.50965 4.55904 5.7704 0.5
103 -0.00155661 4.38101 4.01917 0.5
104 8.20769 5.13252 1.11529 0.5
105 2.69683 8.02087 7.66179 0.5
106 7.56968 7.57101 8.69234 0.5
107 11.4142 2.16838 13.1013 0.5
108 0.369001 4.24742 5.18515 0.5
109 0.313624 9.30596 1.08473 0.5
110 8.49864 9.98446 4.76133 0.5
111 4.91978 11.9304 9.34601 0.5
112 13.3895 6.16035 6.84808 0.5
113 11.352 1.99721 0.0660783 0.5
114 8.64214 11.776 11.3319 0.5
115 10.7751 6.35875 10.7372 0.5
116 5.15022 6.41842 10.8424 0.5
117 8.75337 2.86275 8.89215 0.5
118 12.3102 2.85055 7.79861 0.5
119 10.0273 0.863718 5.82511 0.5
120 1.07131 3.20853 1.84311 0.5
121 13.4077 6.72314 2.79932 0.5
122 2.91165 9.14341 4.98581 0.5
123 2.82734 10.7612 11.1132 0.5
124 3.76874 10.2658 3.27587 0.5
125 5.31424 7.60293 1.1433 0.5
126 5.12052 10.8874 3.66402 0.5
127 3.06393 4.22273 13.0648 0.5
128 11.3609 6.76825 2.60329 0.5
129 6.5432 0.681012 1.22422 0.5
130 7.4905 12.5482 10.0624 0.5
131 1.15039 4.73035 11.5303 0.5
132 9.28779 0.0432385 13.4438 0.5
133 4.94087 11.2277 6.92374 0.5
134 7.43181 7.15734 9.04314 0.5
135 5.36555 9.38987 0.64533 0.5
136 9.32163 8.72306 3.07889 0.5
137 8.18195 9.25874 10.8416 0.5
138 13.4666 4.86247 2.31904 0.5
139 6.14045 9.86604 2.31009 0.5
140 4.75225 6.3589 3.32652 0.5
141 7.61883 5.5998 12.3977 0.5
142 9.39538 3.00074 7.89228 0.5
143 11.5206 1.69743 11.071 0.5
144 7.3273 11.6257 10.3912 0.5
145 4.92817 4.35103 0.447103 0.5
146 8.21362 9.08655 12.28 0.5
147 8.37414 2.65398 7.37406 0.5
148 11.2822 7.3763 13.3581 0.5
149 9.67797 13.202 6.06012 0.5
150 6.70909 12.0787 2.8473 0.5
151 4.19744 10.8109 2.64887 0.5
152 8.99884 7.61543 4.72959 0.5
153 11.4174 4.79036 13.2996 0.5
154 6.79041 12.7735 10.7412 0.5
155 1.7128 7.95989 0.315336 0.5
156 5.16611 9.13631 0.341598 0.5
157 12.0211 4.13279 9.87172 0.5
158 10.4349 10.87 1.11988 0.5
159 3.00836 11.7292 8.42741 0.5
160 10.8207 0.174372 0.812029 0.5
161 12.0821 9.33937 4.79517 0.5
162 4.62054 10.4923 13.1721 0.5
163 3.0556 11.705 2.09557 0.5
164 1.47967 2.77161 8.55551 0.5
165 11.019 11.6672 2.07906 0.5
166 8.64578 8.44321 12.2732 0.5
167 6.058 3.67874 12.2609 0.5
168 11.4194 9.71624 6.91089 0.5
169 2.25865 5.76436 0.0559663 0.5
170 9.81711 10.7985 3.39715 0.5
171 5.5088 8.14861 7.77256 0.5
172 5.73312 0.682277 1.97168 0.5
173 9.5943 9.09126 12.5384 0.5
174 2.47944 0.549087 6.17832 0.5
175 5.91439 2.67454 11.9187 0.5
176 10.404 9.44641 13.2978 0.5
177 8.9644 0.265872 0.610082 0.5
178 7.99682 8.44279 4.8651 0.5
179 2.62883 1.24603 12.0877 0.5
180 6.58548 4.7572 2.00006 0.5
181 9.22017 1.22037 6.69051 0.5
182 1.91126 4.87345 2.09699 0.5
183 4.6461 10.1337 11.5233 0.5
184 8.81514 9.48557 8.60186 0.5
185 12.3664 0.692058 2.79055 0.5
186 2.1368 9.51376 7.7332 0.5
187 12.0215 3.54735 7.92293 0.5
188 5.44843 2.00174 12.4598 0.5
189 12.0501 3.42519 1.87598 0.5
190 2.39168 0.182423 3.09813 0.5
191 6.7171 13.4886 3.56197 0.5
192 5.28061 6.1573 4.92671 0.5
193 2.50436 8.72868 1.22716 0.5
194 3.07353 5.03717 12.6409 0.5
195 5.289 10.7052 9.70114 0.5
196 6.78617 4.29585 11.8462 0.5
197 4.0161 1.18258 2.31167 0.5
198 11.1345 8.56509 5.41102 0.5
199 1.94579 3.5991 1.4736 0.5
200 13.4763 5.23611 12.209 0.5
201 12.3507 3.9877 3.42277 0.5
202 0.119293 11.1 4.27811 0.5
203 7.45126 1.90701 8.02911 0.5
204 10.374 2.12585 4.40321 0.5
205 1.74981 12.9601 11.4221 0.5
206 6.04957 3.45883 7.38167 0.5
207 4.91242 5.49047 3.07199 0.5
208 5.60813 2.42201 6.16504 0.5
209 13.3941 5.12093 1.60314 0.5
210 0.177657 10.1973 11.5488 0.5
211 11.2185 8.37962 5.0547 0.5
212 11.7993 8.07268 13.4625 0.5
213 5.07302 11.5357 10.3531 0.5
214 10.2575 9.68018 10.9916 0.5
215 13.2631 4.10896 3.31525 0.5
216 8.57179 1.08602 12.2261 0.5
217 7.30782 2.37605 9.68571 0.5
218 5.44318 3.52181 6.83224 0.5
219 9.50233 4.03586 6.03596 0.5
220 2.83993 4.45442 10.0342 0.5
221 8.81896 3.9813 7.37835 0.5
222 8.68662 10.076 11.901 0.5
223 1.23022 11.4031 6.07932 0.5
224 5.72629 1.20341 0.285411 0.5
225 11.5162 5.7864 11.4113 0.5
226 2.46148 0.614724 2.62547 0.5
227 3.78295 0.498151 1.48513 0.5
228 0.0737578 8.76166 3.50184 0.5
229 8.68088 10.7638 11.161 0.5
230 10.0121 3.26584 4.2197 0.5
231 6.23092 10.7851 13.4847 0.5
232 9.59866 12.0104 2.84386 0.5
233 8.18376 4.72162 10.8149 0.5
234 0.851066 9.10307 10.0835 0.5
235 11.1241 7.00432 11.6927 0.5
236 9.87874 7.27432 11.4114 0.5
237 11.6232 10.4133 5.15538 0.5
238 12.3523 5.33059 7.32504 0.5
239 1.45585 12.9363 10.7827 0.5
240 1.49845 4.66203 0.548221 0.5
241 11.6153 11.4203 12.1366 0.5
242 10.8239 9.10952 4.52333 0.5
243 2.5147 3.64457 4.28146 0.5
244 4.14892 0.834164 7.24383 0.5
245 0.862069 4.06192 5.69459 0.5
246 13.0867 12.0053 9.60305 0.5
247 0.337601 12.8334 0.122981 0.5
248 9.85826 6.49686 1.51114 0.5
249 10.7051 2.12703 9.12885 0.5
250 11.2789 9.23563 7.50659 0.5
251 5.82612 2.61781 0.436297 0.5
252 5.46967 0.726519 7.20562 0.5
253 1.43725 4.62569 4.57515 0.5
254 7.40974 2.98591 4.17379 0.5
255 10.754 11.6353 13.5749 0.5
256 9.1933 11.838 4.39623 0.5
257 12.7659 7.90895 7.50533 0.5
258 9.47297 12.6189 7.36628 0.5
259 8.98371 3.39068 2.87418 0.5
260 3.55181 11.876 1.27532 0.5
261 2.31381 10.2999 10.1883 0.5
262 6.828 7.37564 4.06401 0.5
263 13.1718 1.94327 10.6077 0.5
264 7.35972 3.394 5.77144 0.5
265 9.36283 1.23324 13.1695 0.5
266 1.07414 13.0351 5.76173 0.5
267 7.97693 1.62202 3.62143 0.5
268 12.0265 12.1502 1.41945 0.5
269 7.17577 9.41288 0.601512 0.5
270 8.60966 6.33956 11.1777 0.5
271 12.2821 4.10933 4.83061 0.5
272 0.33696 0.585575 8.16846 0.5
273 9.07732 3.60253 9.51793 0.5
274 2.45424 7.08934 2.95518 0.5
275 4.81572 12.7982 8.2151 0.5
276 6.75597 12.6549 13.0064 0.5
277 4.21612 11.8449 12.5381 0.5
278 2.34089 10.0535 3.84742 0.5
279 8.07853 6.25042 6.47655 0.5
280 9.0918 5.20658 5.43563 0.5
281 0.225352 10.8715 12.7239 0.5
282 12.4959 11.5307 2.57333 0.5
283 10.2358 1.95422 5.0153 0.5
284 7.81117 6.11552 0.264886 0.5
285 2.89878 6.1325 3.85885 0.5
286 7.95106 12.8103 13.2314 0.5
287 1.57623 10.3401 7.13421 0.5
288 12.5555 11.265 12.77 0.5
289 0.559763 3.85666 5.95963 0.5
290 9.46282 5.5066 3.70581 0.5
291 2.79086 0.522013 2.88523 0.5
292 11.8489 6.64167 7.90659 0.5
293 9.90832 6.55184 0.701164 0.5
294 4.40504 10.6839 9.48254 0.5
295 1.0637 11.3566 13.3143 0.5
296 5.83118 2.19853 8.78365 0.5
297 7.93116 13.4373 2.02197 0.5
298 12.0079 5.15808 9.74362 0.5
299 10.3859 13.0936 2.68194 0.5
300 13.0729 10.9718 0.965574 0.5
301 0.791912 4.90865 3.24313 0.5
302 4.97841 9.29096 3.79461 0.5
303 11.7792 13.4272 7.03548 0.5
304 7.07033 3.10389 9.86806 0.5
305 12.7587 5.19044 7.72634 0.5
306 2.23142 0.739737 9.25474 0.5
307 0.114821 5.79745 1.6577 0.5
308 4.61593 1.26788 1.36634 0.5
309 3.15702 1.82364 1.81358 0.5
310 3.56538 7.34456 8.12892 0.5
311 6.27269 2.93007 11.8363 0.5
312 12.0485 3.55112 8.99441 0.5
313 1.64325 4.26106 0.525203 0.5
314 6.19653 0.265125 10.1376 0.5
315 8.04751 3.89407 13.4881 0.5
316 5.27158 4.74975 12.5391 0.5
317 12.3601 8.73338 13.4366 0.5
318 13.0341 8.75674 12.3741 0.5
319 13.1035 7.16798 3.73541 0.5
320 9.91968 2.0703 4.3244 0.5
321 6.08655 3.00704 12.0868 0.5
322 0.373808 5.40615 6.31771 0.5
323 9.05059 4.75481 0.0344596 0.5
324 5.38286 9.97352 11.5659 0.5
325 9.92981 7.13157 0.731858 0.5
326 11.6239 7.96545 12.0655 0.5
327 7.54069 12.5215 9.2451 0.5
328 1.71242 13.248 10.2201 0.5
329 3.10499 9.26545 8.53319 0.5
330 3.27823 3.83123 7.05454 0.5
331 3.42566 11.5698 0.824155 0.5
332 2.09457 4.46944 7.55433 0.5
333 2.1731 7.46925 4.98195 0.5
334 3.67416 11.8783 3.66689 0.5
335 1.50812 6.1287 3.9209 0.5
336 2.82201 6.99231 13.2054 0.5
337 8.01119 5.79094 0.000585611 0.5
338 9.70637 8.3037 11.8583 0.5
339 2.00233 0.117825 5.80815 0.5
340 3.07051 9.18509 10.3017 0.5
341 1.39825 0.641189 5.47866 0.5
342 5.23072 1.41618 11.9445 0.5
343 11.3765 3.1274 4.31407 0.5
344 10.8645 4.77054 5.61573 0.5
345 3.37884 12.9114 0.677394 0.5
346 10.6393 0.538754 4.45571 0.5
347 10.2634 4.50758 5.4679 0.5
348 6.85227 10.6613 4.55804 0.5
349 7.99605 7.21104 9.53198 0.5
350 1.54631 6.80944 13.1822 0.5
351 8.13624 5.6985 5.58272 0.5
352 3.93568 0.153206 0.257774 0.5
353 3.86711 5.93885 3.96488 0.5
354 11.9262 3.1677 6.11096 0.5
355 9.55548 5.42893 6.01002 0.5
356 12.6946 12.5834 11.6441 0.5
357 12.399 7.26744 9.41918 0.5
358 13.4479 4.17113 9.46517 0.5
359 13.0026 2.04868 12.4637 0.5
360 10.9883 10.6366 8.65944 0.5
361 6.13176 12.0689 2.62203 0.5
362 10.6667 6.56814 4.21151 0.5
363 8.65848 12.2622 12.5938 0.5
364 3.21666 2.90516 2.83142 0.5
365 11.7758 13.5243 9.27297 0.5
366 5.23879 0.623252 0.528038 0.5
367 7.73685 11.0285 7.31002 0.5
368 5.61481 2.54262 2.4173 0.5
369 3.02959 2.26055 2.45129 0.5
370 1.12846 11.2623 3.43737 0.5
371 7.14609 5.36085 5.15425 0.5
372 9.94501 8.88501 10.8577 0.5
373 7.81201 4.75236 10.9948 0.5
374 10.4185 12.7885 11.4701 0.5
375 7.27568 2.38319 12.4574 0.5
376 1.01057 9.44869 2.84809 0.5
377 4.05743 2.10299 2.48925 0.5
378 8.50983 1.13522 6.20508 0.5
379 7.12546 5.34312 8.23731 0.5
380 2.71864 5.27005 8.94271 0.5
381 0.250866 6.47207 2.61917 0.5
382 7.66976 9.16671 9.10979 0.5
383 0.987204 11.6167 11.1007 0.5
384 8.07125 4.90172 2.31756 0.5
385 2.2806 9.80231 2.89692 0.5
386 2.06716 4.90928 5.23607 0.5
387 6.02162 7.57892 5.20939 0.5
388 4.59053 4.36757 12.7394 0.5
389 8.94426 3.23716 0.842604 0.5
390 6.8568 4.87059 5.33584 0.5
391 13.5589 4.22973 6.23195 0.5
392 4.65886 2.65511 2.942 0.5
393 3.24296 3.39339 8.12653 0.5
394 12.0066 9.05916 12.6293 0.5
395 8.76066 0.94602 12.7321 0.5
396 11.6913 9.90118 13.3652 0.5
397 1.8395 6.03675 7.90636 0.5
398 7.67583 13.3764 8.95294 0.5
399 2.7054 1.84776 12.3743 0.5
400 9.53647 6.90924 6.89115 0.5
401 10.7437 5.48516 1.10274 0.5
402 0.214435 6.5773 1.34359 0.5
403 6.45924 0.0412144 12.4771 0.5
404 2.02055 9.31446 10.3007 0.5
405 9.942 9.24179 5.75465 0.5
406 10.2197 5.139 0.928681 0.5
407 6.09334 7.72393 8.66158 0.5
408 0.382586 6.10352 1.0221 0.5
409 2.97029 2.99473 5.148 0.5
410 3.24812 12.7684 0.656973 0.5
411 11.9559 13.5794 3.58059 0.5
412 5.83582 8.95191 13.5718 0.5
413 5.45505 8.05532 8.10306 0.5
414 11.4834 11.4925 0.614323 0.5
415 3.9391 6.38501 12.4386 0.5
416 1.53156 0.575376 7.69562 0.5
417 4.72344 1.1733 12.8537 0.5
418 5.41504 0.74122 2.57945 0.5
419 11.0222 8.82096 3.46534 0.5
420 8.69995 10.4077 11.7489 0.5
421 1.3947 10.5276 4.68555 0.5
422 3.57986 13.5161 11.2676 0.5
423 6.32775 12.2715 2.76636 0.5
424 0.499092 2.73495 7.82373 0.5
425 1.69331 1.07638 8.32747 0.5
426 11.0805 10.2 12.1632 0.5
427 9.03614 6.46254 12.5827 0.5
428 3.72118 12.859 2.99224 0.5
429 6.2117 5.88619 4.77089 0.5
430 10.4255 0.77553 13.3321 0.5
431 5.85475 5.55137 8.6841 0.5
432 10.9179 12.7953 7.43195 0.5
433 3.3526 1.16331 9.67462 0.5
434 4.3501 13.2391 12.7766 0.5
435 5.39299 1.60218 11.8801 0.5
436 6.1839 1.92893 0.580543 0.5
437 6.25776 1.11049 10.0413 0.5
438 7.22634 8.19644 3.00341 0.5
439 9.12198 0.287613 8.16685 0.5
440 0.422554 7.56596 12.3341 0.5
441 4.84533 7.0717 7.76082 0.5
442 8.11696 8.86424 5.69016 0.5
443 10.207 2.24547 9.77599 0.5
444 11.5787 10.7088 2.99383 0.5
445 9.87654 9.91073 0.332772 0.5
446 2.90442 12.4203 3.37337 0.5
447 8.47008 1.0407 13.1952 0.5
448 8.26343 10.4169 9.05013 0.5
449 6.47965 5.86594 1.80159 0.5
450 12.7057 8.18099 9.22819 0.5
451 11.0417 5.36116 0.247436 0.5
452 5.74463 12.8847 1.00315 0.5
453 0.51193 9.63589 7.23028 0.5
454 1.94212 10.9851 7.47975 0.5
455 6.73697 13.1636 7.02821 0.5
456 2.01769 1.83164 12.9475 0.5
457 8.41956 4.0667 11.4218 0.5
458 9.01901 0.150809 7.53738 0.5
459 0.700563 11.2791 7.78094 0.5
460 10.3326 11.4529 11.0272 0.5
461 1.72943 13.1806 0.998762 0.5
462 2.24495 9.94192 5.9336 0.5
463 3.5192 0.840556 4.80564 0.5
464 6.33346 2.37348 4.71112 0.5
465 4.56931 10.4108 3.19004 0.5
466 1.21355 13.0461 5.34359 0.5
467 6.63817 6.76443 9.80805 0.5
468 6.85051 6.03153 3.32028 0.5
469 4.74491 12.6331 8.85321 0.5
470 1.69965 11.1013 4.64986 0.5
471 5.4079 10.1723 3.14682 0.5
472 9.72715 12.6767 9.78114 0.5
473 8.04309 10.614 4.95781 0.5
474 10.2268 9.06019 4.87093 0.5
475 2.27873 1.18869 0.512375 0.5
476 10.0781 11.7143 12.779 0.5
477 9.88071 4.9032 3.51222 0.5
478 3.12909 9.00349 6.00523 0.5
479 13.0544 10.5538 6.80135 0.5
480 12.5643 6.21901 0.987542 0.5
481 0.563477 11.0389 6.33933 0.5
482 9.93671 9.44584 10.1986 0.5
483 12.3319 9.82578 9.34636 0.5
484 7.33719 11.1468 4.42333 0.5
485 1.36529 3.64749 2.41431 0.5
486 8.28265 13.432 7.59304 0.5
487 12.3085 1.60457 8.58362 0.5
488 7.8556 7.74828 1.44021 0.5
489 12.1636 3.23642 5.49234 0.5
490 13.041 11.5201 0.692536 0.5
491 5.76106 11.6445 6.4798 0.5
492 1.75733 8.85337 11.4293 0.5
493 10.1254 6.64738 8.99424 0.5
494 10.2888 5.08262 2.67519 0.5
495 7.6142 10.621 7.93998 0.5
496 8.93015 12.4496 4.01936 0.5
497 2.73901 9.03845 9.92887 0.5
498 4.08434 11.4173 12.1652 0.5
499 2.00515 2.2476 11.1036 0.5
500 8.55404 5.89934 0.594574 0.5
501 6.40079 8.38731 -0.00608335 0.5
502 3.38941 10.3401 11.3944 0.5
503 1.10759 0.128785 10.6897 0.5
504 9.50369 7.32773 3.48148 0.5
505 6.69616 9.52082 0.812746 0.5
506 7.27736 3.76082 0.544414 0.5
507 3.15214 7.48927 1.65061 0.5
508 4.25318 13.0693 3.3705 0.5
509 9.83531 10.7931 7.38993 0.5
510 10.4163 3.05815 11.2153 0.5
511 1.06552 0.614396 2.11367 0.5
512 2.94937 6.8757 5.24081 0.5
513 4.67818 3.95344 7.23356 0.5
514 7.68703 11.5635 4.13611 0.5
515 7.74984 4.58845 10.1454 0.5
516 7.18176 13.1987 12.0301 0.5
517 2.35693 4.20221 3.32499 0.5
518 4.78939 2.26745 8.09699 0.5
519 5.27085 5.11848 7.84652 0.5
520 9.5911 11.2458 3.33658 0.5
521 9.74876 0.973265 4.70036 0.5
522 2.41459 5.86504 8.45769 0.5
523 6.40362 7.11943 9.01461 0.5
524 12.531 6.69268 4.31578 0.5
525 2.31927 9.72623 1.1723 0.5
526 5.86692 7.25478 10.9226 0.5
527 9.77619 10.2906 0.415429 0.5
528 7.14086 0.333483 12.9116 0.5
529 3.19128 4.08778 2.70476 0.5
530 11.3191 5.83492 0.85225 0.5
531 7.17191 5.49568 6.43303 0.5
532 6.38543 12.0612 4.72944 0.5
533 2.93337 9.1151 3.08226 0.5
534 1.20625 10.5459 4.18219 0.5
535 3.89737 12.0826 4.52105 0.5
536 8.63314 0.341266 0.0230793 0.5
537 3.08549 12.5661 6.39507 0.5
538 8.54127 3.21274 6.10872 0.5
539 11.8794 13.105 10.3485 0.5
540 1.21434 8.77358 9.81856 0.5
541 0.176702 4.64428 5.3749 0.5
542 8.87573 3.65004 6.31968 0.5
543 12.1478 4.56271 9.97498 0.5
544 4.80567 1.84266 9.25605 0.5
545 1.50557 1.62352 3.19683 0.5
546 3.16194 2.16248 9.83185 0.5
547 7.4103 12.258 10.4154 0.5
548 12.914 2.66574 13.2536 0.5
549 4.24757 2.91749 7.90572 0.5
550 0.279409 11.5199 13.5432 0.5
551 7.98909 6.69423 4.58519 0.5
552 12.5909 7.42262 8.84182 0.5
553 5.69707 4.34959 4.42295 0.5
554 9.6307 8.46834 13.2256 0.5
555 10.1435 9.29136 2.27586 0.5
556 3.38326 3.59644 0.775356 0.5
557 1.00102 7.30209 10.5123 0.5
558 1.44582 13.1267 6.72607 0.5
559 7.7365 3.79417 2.17462 0.5
560 5.24611 10.2899 4.0109 0.5
561 5.02003 4.58315 3.27538 0.5
562 10.4225 13.5516 1.91388 0.5
563 0.796185 12.3347 6.49897 0.5
564 5.10627 8.12832 7.87334 0.5
565 4.59551 11.7386 12.7572 0.5
566 2.18149 5.12163 9.05979 0.5
567 11.1807 7.47963 12.8437 0.5
568 3.50224 0.175325 2.21621 0.5
569 5.60722 12.4458 0.27477 0.5
570 2.00056 12.4136 11.8458 0.5
571 11.9337 6.17197 4.1234 0.5
572 2.81446 13.6033 1.50588 0.5
573 9.05741 11.6253 2.58835 0.5
574 10.0246 9.52981 3.50909 0.5
575 8.84164 9.97731 9.12399 0.5
576 13.3645 5.99374 8.04499 0.5
577 11.9258 13.5226 1.71786 0.5
578 4.12314 8.31617 12.2713 0.5
579 12.3142 1.11329 10.6393 0.5
580 0.0716327 9.76372 12.559 0.5
581 9.81323 9.97696 0.556792 0.5
582 12.1891 6.06376 10.2931 0.5
583 11.2029 0.535023 11.6469 0.5
584 5.80873 4.65062 6.26499 0.5
585 1.39645 9.04865 8.318 0.5
586 1.01075 10.3131 8.38861 0.5
587 7.97081 8.42788 12.7607 0.5
588 9.97814 11.6151 7.10118 0.5
589 9.15108 6.07122 4.90379 0.5
590 12.3502 7.06693 2.79651 0.5
591 3.69836 9.80333 11.6929 0.5
592 9.64216 5.52091 7.25199 0.5
593 4.73628 6.98641 9.5298 0.5
594 3.53497 1.03948 7.2622 0.5
595 2.03509 3.77092 0.248328 0.5
596 10.977 4.58999 6.11484 0.5
597 7.76642 2.25456 11.1909 0.5
598 0.65271 4.51465 13.2402 0.5
599 10.7745 8.49293 8.50252 0.5
600 5.76913 10.6264 7.22031 0.5
601 10.3818 2.04212 0.367178 0.5
602 2.3685 12.6226 5.2724 0.5
603 12.9167 2.35442 2.66275 0.5
604 4.67022 0.27681 6.79904 0.5
605 10.4021 3.326 11.2508 0.5
606 0.763944 4.52116 0.480981 0.5
607 12.4356 1.66312 10.096 0.5
608 3.75633 11.2117 4.41641 0.5
609 13.5393 7.63263 7.81963 0.5
610 9.10392 7.4722 9.8949 0.5
611 10.7556 3.65709 6.73887 0.5
612 10.4982 5.74171 0.620238 0.5
613 11.9424 7.77932 0.33182 0.5
614 7.36457 4.30954 4.33844 0.5
615 1.50962 0.689483 7.68729 0.5
616 1.15686 12.8306 3.75591 0.5
617 0.726566 9.98309 6.99861 0.5
618 4.849 5.41309 4.69956 0.5
619 10.1493 3.66867 5.19405 0.5
620 10.4426 10.3994 13.2239 0.5
621 11.945 4.23697 10.8438 0.5
622 5.49771 1.5861 3.79781 0.5
623 4.45934 12.074 7.07434 0.5
624 9.75879 5.03007 12.2502 0.5
625 1.13551 4.46525 12.9031 0.5
626 13.0205 7.47427 4.32013 0.5
627 2.31654 2.23562 5.0238 0.5
628 8.75824 1.6775 8.28151 0.5
629 4.44488 10.9616 4.83992 0.5
630 4.29592 0.979942 1.48933 0.5
631 4.66987 6.27692 5.76142 0.5
632 9.72417 3.31515 4.2704 0.5
633 4.15669 4.6815 1.51717 0.5
634 11.1437 0.704091 12.2096 0.5
635 5.22069 0.35496 11.3442 0.5
636 8.9467 6.46135 2.62143 0.5
637 13.5623 9.86046 8.99689 0.5
638 0.759904 7.31847 4.49127 0.5
639 13.2468 11.0649 8.22723 0.5
640 1.29762 7.28941 6.2503 0.5
641 10.8247 8.27655 7.3602 0.5
642 12.7389 8.37465 2.87101 0.5
643 12.5363 3.32791 5.99294 0.5
644 6.01454 1.5677 13.4286 0.5
645 9.13742 3.73896 8.41517 0.5
646 6.90009 0.901391 12.2145 0.5
647 10.3583 3.4638 5.54037 0.5
648 8.98441 4.73488 1.54035 0.5
649 8.22312 8.96971 1.84053 0.5
650 3.6454 2.89039 1.60134 0.5
651 10.661 8.45809 1.95282 0.5
652 8.47741 10.3679 13.1907 0.5
653 3.40708 11.492 12.2324 0.5
654 5.39316 6.24727 0.788473 0.5
655 0.15401 0.148112 2.19848 0.5
656 12.8541 10.9803 1.07725 0.5
657 9.84104 12.3027 1.23503 0.5
658 5.05319 0.100449 4.34266 0.5
659 3.41818 1.71305 12.3516 0.5
660 0.502229 11.0834 2.2124 0.5
661 8.21972 9.19626 0.0993732 0.5
662 13.3903 7.57004 10.6579 0.5
663 8.70741 6.10096 7.25983 0.5
664 11.9508 5.11556 8.41096 0.5
665 6.27461 1.25975 10.5503 0.5
666 11.5744 8.5808 4.18841 0.5
667 12.7732 13.3047 5.15884 0.5
668 13.3022 13.4012 6.23926 0.5
669 0.51302 3.52402 3.75373 0.5
670 4.7052 2.81712 2.11066 0.5
671 5.02607 10.1817 4.30536 0.5
672 1.27212 10.248 10.0234 0.5
673 12.0854 3.99108 4.66909 0.5
674 12.9214 11.09 5.6927 0.5
675 3.25327 0.624329 8.15193 0.5
676 12.4345 1.72274 3.29254 0.5
677 2.7396 7.09291 4.51609 0.5
678 9.82823 4.08839 12.3639 0.5
679 7.0675 9.13752 1.8744 0.5
680 8.24901 9.54526 0.51322 0.5
681 9.89495 8.09936 5.85004 0.5
682 6.90974 9.27107 3.45876 0.5
683 9.19539 9.28315 0.10698 0.5
684 7.08023 5.96027 2.78294 0.5
685 5.07203 1.76776 0.902582 0.5
686 4.25998 12.2818 4.30366 0.5
687 11.098 10.0154 0.797605 0.5
688 11.9484 8.5313 3.5145 0.5
689 8.55793 10.7365 6.43491 0.5
690 10.4139 2.19447 10.0038 0.5
691 6.76318 11.1559 3.13491 0.5
692 8.0094 8.82576 8.54162 0.5
693 6.16066 11.9074 10.197 0.5
694 5.82398 7.62859 13.2535 0.5
695 1.0998 11.7948 8.45946 0.5
696 0.431178 10.4653 12.5017 0.5
697 9.8093 8.39475 8.82731 0.5
698 0.217177 5.87289 11.9698 0.5
699 0.786952 2.58128 3.72908 0.5
700 3.30048 3.85009 7.91314 0.5
701 8.13993 2.67112 12.8859 0.5
702 3.37865 9.24968 2.42534 0.5
703 3.64443 2.42741 5.99615 0.5
704 12.2682 7.38376 4.5731 0.5
705 6.46477 7.79154 6.59699 0.5
706 0.205064 6.88569 12.845 0.5
707 10.7418 7.4365 5.9693 0.5
708 12.8537 4.59337 3.20101 0.5
709 9.47592 0.781276 7.56303 0.5
710 0.467579 2.34469 7.62129 0.5
711 0.484145 0.975993 1.39672 0.5
712 5.72839 11.7068 12.6593 0.5
713 10.2212 7.42876 9.56179 0.5
714 3.15701 6.11089 9.11975 0.5
715 10.6277 12.4302 10.0397 0.5
716 3.66871 12.8893 12.5366 0.5
717 0.895229 6.35944 7.0245 0.5
718 9.3911 2.09377 10.4024 0.5
719 1.51032 11.1251 13.15 0.5
720 10.8376 4.64058 9.55512 0.5
721 11.2738 7.12041 7.16586 0.5
722 11.2187 1.00771 3.64826 0.5
723 9.22393 6.71038 10.3935 0.5
724 0.680927 0.332554 12.673 0.5
725 7.63388 5.87983 2.64163 0.5
726 9.41388 0.719974 4.52633 0.5
727 5.64946 2.45949 11.2401 0.5
728 11.5836 10.144 1.0569 0.5
729 8.22797 5.81075 10.388 0.5
730 3.50203 7.73436 10 0.5
731 12.3915 0.843698 1.37485 0.5
732 8.60019 6.1011 6.27929 0.5
733 0.177305 5.81463 0.497466 0.5
734 2.85677 8.11128 4.10963 0.5
735 10.4615 5.27974 11.3171 0.5
736 13.0142 13.1447 12.7433 0.5
737 8.63755 6.77911 4.08185 0.5
738 6.03882 5.2227 0.094713 0.5
739 10.5663 0.932224 9.72454 0.5
740 6.71146 1.34588 3.80547 0.5
741 6.08302 2.93907 9.47866 0.5
742 1.24576 2.3137 5.75823 0.5
743 4.12476 11.9657 8.01617 0.5
744 3.83582 9.36821 5.48789 0.5
745 12.499 0.617203 0.289746 0.5
746 5.04181 3.41877 2.52891 0.5
747 4.16689 3.92983 5.27492 0.5
748 0.244676 12.9091 1.46557 0.5
749 9.0718 6.57663 3.33583 0.5
750 8.44782 6.20474 10.4891 0.5
751 6.04139 6.31098 3.62471 0.5
752 13.271 0.464594 13.3181 0.5
753 1.14241 2.87259 0.471087 0.5
754 9.42073 6.47238 11.643 0.5
755 4.81494 4.9497 0.536683 0.5
756 5.24277 8.38824 1.1695 0.5
757 2.83595 6.7634 3.84376 0.5
758 9.58464 12.709 9.90302 0.5
759 11.0149 12.7133 0.37105 0.5
760 4.04345 9.8371 2.37636 0.5
761 8.0309 6.38621 9.21485 0.5
762 9.03053 10.9994 3.53013 0.5
763 12.9625 8.41762 4.32771 0.5
764 4.00777 3.53445 10.8204 0.5
765 9.96969 5.8801 10.551 0.5
766 11.9601 2.4589 12.5004 0.5
767 9.04976 3.74552 13.3845 0.5
768 11.0539 9.44017 0.476752 0.5
769 0.386955 3.46081 1.8219 0.5
770 12.5985 9.70142 7.92437 0.5
771 11.7601 5.69483 3.34467 0.5
772 9.25766 0.953499 0.880077 0.5
773 12.2221 12.7778 3.59976 0.5
774 7.96275 1.24422 11.8901 0.5
775 13.0626 7.94651 0.835469 0.5
776 1.98552 7.93585 7.56729 0.5
777 7.22239 4.40581 13.2192 0.5
778 12.3496 7.75395 10.0397 0.5
779 11.2195 9.1795 0.590497 0.5
780 11.378 6.85764 5.05992 0.5
781 11.6257 12.8963 10.4053 0.5
782 10.6585 12.5548 6.70501 0.5
783 2.56491 4.63237 1.16559 0.5
784 1.00892 11.5017 9.72835 0.5
785 10.9005 10.4875 6.02918 0.5
786 11.5321 4.59454 12.0471 0.5
787 7.75443 7.10588 9.36242 0.5
788 10.9097 3.94272 9.06819 0.5
789 9.15195 12.8379 9.80802 0.5
790 3.81596 9.98077 4.08021 0.5
791 7.05557 0.950208 13.0985 0.5
792 10.5701 8.14525 2.15998 0.5
793 4.96783 0.284383 8.02629 0.5
794 7.04677 11.4923 0.896603 0.5
795 2.85284 10.6243 0.845365 0.5
796 7.24568 11.9809 12.7501 0.5
797 7.78245 9.95646 2.97633 0.5
798 0.78568 13.5475 5.9116 0.5
799 3.57347 7.88959 9.1722 0.5
800 1.48883 5.82666 11.6963 0.5
801 6.12208 0.284753 8.52114 0.5
802 6.554 8.2988 5.25417 0.5
803 13.236 7.094 0.647752 0.5
804 1.40134 9.87121 2.57802 0.5
805 12.5221 10.244 12.6096 0.5
806 5.87124 13.0728 7.98989 0.5
807 12.562 4.34973 8.97504 0.5
808 0.727387 6.98892 1.66663 0.5
809 9.72737 8.32989 7.65155 0.5
810 2.33859 0.233013 12.7709 0.5
811 8.03812 9.01351 5.17394 0.5
812 1.13469 2.31039 11.7569 0.5
813 1.93438 0.946683 2.86942 0.5
814 9.55655 10.1969 4.84916 0.5
815 8.31878 5.86466 8.15116 0.5
816 0.267492 1.82606 3.65644 0.5
817 0.592477 2.17146 10.8548 0.5
818 11.6815 5.81523 9.22298 0.5
819 0.791784 12.4086 6.87197 0.5
820 12.789 11.3492 10.1569 0.5
821 1.87611 1.22305 4.10382 0.5
822 8.76656 5.41852 13.5067 0.5
823 4.56928 11.1628 5.57345 0.5
824 7.35038 7.07555 11.0726 0.5
825 3.48794 8.22619 10.602 0.5
826 8.62406 9.41994 1.74707 0.5
827 2.9331 8.41019 4.20699 0.5
828 5.1964 0.451812 8.35396 0.5
829 12.2268 5.80677 7.61906 0.5
830 11.4857 12.1094 8.70211 0.5
831 6.58845 2.2293 5.11423 0.5
832 11.6336 9.44963 11.6285 0.5
833 3.82579 4.96577 2.58636 0.5
834 6.55046 3.56273 4.58808 0.5
835 8.38391 11.622 12.9202 0.5
836 5.4586 10.2254 8.0653 0.5
837 11.966 6.47278 3.55059 0.5
838 11.4858 9.67417 10.7954 0.5
839 3.56527 1.33609 0.533514 0.5
840 11.1446 13.1244 7.13529 0.5
841 1.63904 4.46942 0.898109 0.5
842 0.910308 1.94213 11.2109 0.5
843 6.50644 2.92692 8.77113 0.5
844 2.05915 6.88 13.4095 0.5
845 12.6996 12.1289 2.97785 0.5
846 3.74983 7.84731 7.07354 0.5
847 1.33618 8.55515 12.9981 0.5
848 0.731146 9.41418 2.77578 0.5
849 4.9223 3.41719 1.61117 0.5
850 8.95633 5.3904 11.9701 0.5
851 13.2974 11.606 4.86436 0.5
852 0.992552 2.89066 10.7715 0.5
853 3.96211 9.27716 12.8182 0.5
854 7.7787 9.27815 9.51456 0.5
855 8.88462 12.779 6.1741 0.5
856 10.2641 11.3689 2.23769 0.5
857 8.14989 7.22281 11.8231 0.5
858 3.13484 2.09738 9.23847 0.5
859 3.09456 7.42677 4.96968 0.5
860 0.331147 9.51024 10.0119 0.5
861 6.44168 4.29127 13.0631 0.5
862 10.1121 2.2893 1.83101 0.5
863 2.3624 0.12208 7.72213 0.5
864 0.769704 2.70232 11.5654 0.5
865 12.4172 8.89189 8.70872 0.5
866 9.61561 12.7288 10.8074 0.5
867 10.6745 10.2842 1.27203 0.5
868 7.42557 0.838564 9.45305 0.5
869 1.90492 6.35592 9.77345 0.5
870 6.58187 7.41801 1.43143 0.5
871 12.3428 3.28557 12.6725 0.5
872 10.2548 8.91701 1.91221 0.5
873 2.90857 2.26918 11.7858 0.5
874 2.98026 9.16481 9.95245 0.5
875 11.2403 3.96534 3.32019 0.5
876 0.336199 2.668 9.01286 0.5
877 9.01777 10.5165 5.43914 0.5
878 1.17966 7.66273 7.21629 0.5
879 6.4031 10.0873 0.638988 0.5
880 7.93344 6.18135 10.5819 0.5
881 7.16071 7.13132 4.84854 0.5
882 5.47996 3.86593 5.94561 0.5
883 8.96087 5.7508 2.73857 0.5
884 9.98442 2.62484 12.351 0.5
885 9.74379 5.05098 1.73408 0.5
886 7.75692 10.3502 5.27033 0.5
887 1.49708 1.50638 11.5192 0.5
888 6.49496 3.62263 2.93959 0.5
889 0.4637 1.90208 9.86542 0.5
890 9.69679 11.2857 3.43633 0.5
891 3.65309 8.65753 9.97984 0.5
892 5.52728 10.1142 6.76408 0.5
893 7.82067 0.864916 10.3334 0.5
894 10.8848 5.28588 10.3111 0.5
895 0.557487 7.85693 10.0605 0.5
896 8.09552 9.54772 10.8132 0.5
897 13.357 1.48988 8.93247 0.5
898 9.03595 12.8434 2.06047 0.5
899 11.4063 4.31782 7.78603 0.5
900 0.404887 6.90827 10.0052 0.5
901 5.985 13.1839 7.01274 0.5
902 3.86719 5.36811 12.2784 0.5
903 6.29955 9.43346 0.856997 0.5
904 7.00659 11.8021 10.3841 0.5
905 0.553268 2.96224 8.83773 0.5
906 1.23066 1.84322 12.9866 0.5
907 0.103433 1.06349 6.17667 0.5
908 10.8949 8.44694 6.68716 0.5
909 7.03939 4.75329 8.05835 0.5
910 3.2933 12.3657 5.66864 0.5
911 5.74616 7.43444 4.49113 0.5
912 9.31171 0.427086 2.61189 0.5
913 1.91999 10.3172 5.44482 0.5
914 0.309343 10.0863 5.89718 0.5
915 0.218262 2.78958 1.40968 0.5
916 11.7942 3.75078 9.79025 0.5
917 9.32211 3.87121 11.3841 0.5
918 5.20766 5.50292 3.90158 0.5
919 2.37624 9.44492 5.69318 0.5
920 12.7617 3.30902 1.24439 0.5
921 10.8138 7.28493 5.30106 0.5
922 10.2655 5.80629 9.06109 0.5
923 1.45649 0.190929 1.31628 0.5
924 8.60955 8.14233 1.83234 0.5
925 12.9892 12.8997 12.9425 0.5
926 12.5277 4.28634 1.91571 0.5
927 3.97139 6.29421 10.8568 0.5
928 4.61443 10.3192 4.91592 0.5
929 1.74305 5.99327 3.40281 0.5
930 9.2239 9.11165 7.10578 0.5
931 11.9505 9.93237 2.93839 0.5
932 7.89996 4.56883 0.49277 0.5
933 12.1108 7.77049 4.78629 0.5