ITEM: TIMESTEP
320000
ITEM: NUMBER OF ATOMS
1000
ITEM: BOX BOUNDS xy xz yz pp pp pp
0.0000000000000000e+00 1.3572088000000001e+01 0.0000000000000000e+00
0.0000000000000000e+00 1.3572088000000001e+01 0.0000000000000000e+00
0.0000000000000000e+00 1.3572088000000001e+01 0.0000000000000000e+00
ITEM: ATOMS id x y z radius
1 12.1773 5.3112 13.4358 0.5
2 7.69554 6.96344 8.95224 0.5
3 11.3373 2.28054 4.80228 0.5
4 11.8692 13.5234 9.4345 0.5
5 2.7435 3.83965 5.84772 0.5
6 0.747839 11.6957 1.35878 0.5
7 1.26539 0.213167 6.15569 0.5
8 3.19441 0.760325 7.65967 0.5
9 5.3897 13.445 12.6366 0.5
10 7.4583 12.016 1.63653 0.5
11 8.84704 11.364 1.96679 0.5
12 0.645343 6.17218 1.6551 0.5
13 11.8035 2.70723 10.0856 0.5
14 4.60184 9.46162 5.53759 0.5
15 3.90456 8.22304 10.0543 0.5
16 12.8179 1.22259 1.31011 0.5
17 9.25472 10.3571 5.67325 0.5
18 8.34067 7.86526 1.3503 0.5
19 11.0449 12.8624 5.30101 0.5
20 0.000651282 8.54945 4.44234 0.5
21 1.34124 9.78874 5.96235 0.5
22 2.51602 3.95163 5.30686 0.5
23 13.54 0.0196946 10.5209 0.5
24 1.58067 9.14719 2.32167 0.5
25 11.7346 12.3514 1.29643 0.5
26 10.1564 7.44175 5.1379 0.5
27 9.45137 9.34322 10.5316 0.5
28 5.59168 0.569103 6.49073 0.5
29 4.3966 3.07222 5.98136 0.5
30 11.0802 2.58733 5.64195 0.5
31 1.08172 1.21618 7.56476 0.5
32 2.51318 8.40356 6.70834 0.5
33 2.64578 10.0682 11.3207 0.5
34 1.44516 3.51072 0.236657 0.5
35 12.2469 0.442653 1.17321 0.5
36 6.0579 6.46 2.32895 0.5
37 4.43348 4.07593 2.62559 0.5
38 12.9342 5.09657 6.57548 0.5
39 8.96348 0.138047 1.28005 0.5
40 10.6067 1.29844 7.86071 0.5
41 11.6099 6.33947 0.593101 0.5
42 1.68652 10.372 5.17324 0.5
43 11.1736 12.0418 1.98642 0.5
44 7.60206 11.9338 4.80682 0.5
45 9.68975 12.6463 0.689748 0.5
46 4.53741 8.37165 2.82194 0.5
47 11.3339 10.1482 3.90152 0.5
48 12.6477 0.589791 3.88593 0.5
49 3.58126 1.9987 8.66195 0.5
50 8.3879 9.4044 4.57685 0.5
51 7.62467 10.3188 12.6821 0.5
52 10.558 6.13376 8.55219 0.5
53 2.15167 6.70144 7.87742 0.5
54 13.494 7.57333 0.571311 0.5
55 1.97343 11.557 8.06301 0.5
56 5.0165 9.94679 13.3422 0.5
57 8.87222 1.39972 8.96966 0.5
58 6.56923 8.62296 0.158572 0.5
59 7.91787 7.15739 1.58194 0.5
60 5.29671 10.9171 2.82599 0.5
61 3.02506 10.7512 7.53967 0.5
62 0.389683 8.09431 2.93494 0.5
63 4.56767 7.27827 13.4644 0.5
64 8.55185 11.4467 2.03281 0.5
65 13.0018 5.78452 0.570205 0.5
66 8.15883 5.44534 11.136 0.5
67 12.7071 7.98758 12.7435 0.5
68 0.590616 7.72987 6.17539 0.5
69 9.6014 6.97955 8.58278 0.5
70 9.46884 0.0274069 12.286 0.5
71 12.2948 9.11877 7.52862 0.5
72 5.93063 0.944974 3.72088 0.5
73 6.95142 0.383009 1.14458 0.5
74 12.7244 4.70118 0.35573 0.5
75 7.24493 3.9108 9.07557 0.5
76 9.83858 2.10747 9.47176 0.5
77 7.08343 8.68577 13.3779 0.5
78 7.13099 2.06184 13.1429 0.5
79 1.94507 4.85315 6.54936 0.5
80 10.0476 10.5543 5.56555 0.5
81 3.92228 3.61021 9.85023 0.5
82 12.8456 13.1128 1.28039 0.5
83 7.93031 8.01465 13.3336 0.5
84 4.84943 6.09215 10.2905 0.5
85 6.91183 6.02722 10.6255 0.5
86 1.27134 3.48631 12.4077 0.5
87 5.7203 13.0056 0.48656 0.5
88 1.96646 4.76438 11.3452 0.5
89 9.39117 3.44411 10.7357 0.5
90 11.1105 1.17578 10.3273 0.5
91 4.81257 1.72753 3.95234 0.5
92 0.13066 13.5688 11.4128 0.5
93 5.05755 0.399906 0.314653 0.5
94 3.07884 10.7232 1.74977 0.5
95 9.65327 9.08454 0.699305 0.5
96 2.69276 10.3044 3.80935 0.5
97 11.4804 4.9577 5.19632 0.5
98 12.4235 13.0216 10.4881 0.5
99 8.76928 3.60856 7.02535 0.5
100 11.6784 9.01768 9.81916 0.5
101 12.6275 11.9229 10.3455 0.5
102 8.00276 6.3441 12.6484 0.5
103 6.98116 3.84668 0.100492 0.5
104 9.44183 0.667799 11.4266 0.5
105 3.76545 10.9112 5.50515 0.5
106 8.6458 11.4996 7.51403 0.5
107 8.15472 7.31888 10.2277 0.5
108 3.84567 3.49421 7.67097 0.5
109 11.9002 6.60984 2.88117 0.5
110 8.8602 7.43039 5.5217 0.5
111 5.1542 0.386023 0.632688 0.5
112 11.9382 0.341247 9.29426 0.5
113 2.9206 5.51958 11.9254 0.5
114 9.56756 2.30645 1.82966 0.5
115 4.25779 9.039 5.27788 0.5
116 10.7932 4.8245 5.62977 0.5
117 13.3864 7.47714 8.26697 0.5
118 1.08926 4.60147 0.0647371 0.5
119 0.431658 1.20305 1.4254 0.5
120 0.563691 6.32181 13.4954 0.5
121 7.74802 12.1044 2.25164 0.5
122 1.57139 8.90568 11.4552 0.5
123 1.23005 1.84382 2.67165 0.5
124 12.6018 2.48509 10.6951 0.5
125 4.64742 12.6153 6.88459 0.5
126 5.24138 12.3727 0.754251 0.5
127 13.3396 7.30036 3.69657 0.5
128 9.74746 7.8983 9.25258 0.5
129 5.28544 13.4225 2.74102 0.5
130 1.1525 3.858 7.71613 0.5
131 2.62582 11.6507 11.3104 0.5
132 9.13504 1.43363 3.06629 0.5
133 1.74802 9.26277 7.79604 0.5
134 1.93874 6.6312 6.80761 0.5
135 8.62901 8.39313 8.52393 0.5
136 3.65429 0.976713 12.5435 0.5
137 12.7709 5.12843 4.12454 0.5
138 10.9049 10.2082 1.25948 0.5
139 4.4413 12.595 5.04842 0.5
140 4.63252 6.8035 9.98827 0.5
141 9.38393 4.95627 3.88247 0.5
142 7.95179 11.4457 13.3153 0.5
143 11.267 11.9127 2.53038 0.5
144 1.83011 7.79135 3.58394 0.5
145 7.53931 5.09436 5.0004 0.5
146 12.7107 0.988625 1.51592 0.5
147 0.140205 0.740946 12.9623 0.5
148 9.33777 4.91956 8.5322 0.5
149 9.99218 7.2989 11.895 0.5
150 5.79673 0.428825 7.5645 0.5
151 10.6538 1.25259 5.43193 0.5
152 8.4515 10.3207 11.1527 0.5
153 2.48273 7.473 3.21635 0.5
154 2.90413 5.51687 0.582739 0.5
155 4.1052 5.33123 6.05757 0.5
156 4.81449 2.42814 10.1977 0.5
157 0.948131 9.46032 0.447935 0.5
158 0.808302 1.00089 2.90116 0.5
159 11.1601 11.3827 11.4663 0.5
160 3.19543 3.49469 3.01407 0.5
161 4.37251 0.939608 7.89519 0.5
162 7.23963 11.5038 12.4059 0.5
163 6.48967 4.43253 13.0018 0.5
164 6.31705 10.9437 3.67519 0.5
165 11.7977 2.74293 4.1831 0.5
166 8.72824 6.13165 9.38366 0.5
167 11.5649 5.14828 3.84203 0.5
168 12.975 0.838265 10.0351 0.5
169 5.21508 2.0349 4.22813 0.5
170 13.5191 13.1381 7.69816 0.5
171 5.2343 7.01812 10.8459 0.5
172 11.3897 6.61973 12.3408 0.5
173 0.321936 13.0358 2.58286 0.5
174 9.02241 11.2244 7.34673 0.5
175 10.6744 2.07451 10.4799 0.5
176 0.867263 9.53901 8.08636 0.5
177 6.57129 9.07808 5.9237 0.5
178 12.1621 10.5116 8.98634 0.5
179 8.25838 7.13748 13.2984 0.5
180 3.9865 9.44574 13.0579 0.5
181 0.549404 7.54839 7.14676 0.5
182 5.02048 4.34427 4.34859 0.5
183 0.934784 7.0886 7.71339 0.5
184 7.96517 5.26962 11.4921 0.5
185 13.1874 4.31623 7.70449 0.5
186 10.6857 3.17468 12.9904 0.5
187 3.86686 7.81563 1.09497 0.5
188 10.6147 9.0073 5.75191 0.5
189 9.24419 1.38736 13.3531 0.5
190 7.87635 5.04269 1.06706 0.5
191 13.5075 0.913835 9.70448 0.5
192 9.59663 4.28636 7.27753 0.5
193 1.96516 6.91114 10.9912 0.5
194 2.11216 12.1153 1.62477 0.5
195 9.4921 3.23449 2.78636 0.5
196 1.73898 7.66221 7.27383 0.5
197 4.42635 1.76294 8.41254 0.5
198 13.5385 7.53269 4.66731 0.5
199 5.77604 12.9395 9.45398 0.5
200 0.340396 11.1308 9.90937 0.5
201 0.277112 3.66285 9.28809 0.5
202 11.6197 11.9243 12.7864 0.5
203 8.59505 11.814 0.135333 0.5
204 11.9347 1.72005 6.66494 0.5
205 2.14903 10.959 4.36184 0.5
206 8.12837 2.93154 5.7391 0.5
207 8.43322 1.43599 10.9968 0.5
208 9.71078 8.7244 5.04821 0.5
209 9.91879 12.2978 2.65341 0.5
210 4.63045 4.95403 9.68351 0.5
211 7.86978 11.2915 7.55973 0.5
212 10.4312 0.49353 12.2752 0.5
213 6.14342 1.92224 2.70204 0.5
214 12.0951 6.78537 12.2643 0.5
215 3.9302 11.5791 0.0972453 0.5
216 4.34616 12.2129 3.19798 0.5
217 10.6137 11.7212 6.32475 0.5
218 2.92025 7.78591 3.13359 0.5
219 7.03142 3.504 11.8852 0.5
220 1.03515 11.4284 1.51789 0.5
221 8.97083 13.5364 7.20849 0.5
222 8.4806 2.16607 10.4468 0.5
223 11.9644 7.1625 6.19219 0.5
224 5.9145 2.58239 0.210653 0.5
225 5.31296 6.58707 3.66213 0.5
226 8.30597 9.24161 10.8093 0.5
227 9.18403 1.74512 6.51547 0.5
228 4.31163 1.51643 5.80582 0.5
229 4.6512 8.42906 1.64121 0.5
230 5.4543 6.65883 9.21876 0.5
231 12.9025 5.51431 4.91438 0.5
232 2.26324 13.2803 7.08225 0.5
233 10.6252 7.85464 2.05595 0.5
234 0.955113 12.247 5.19031 0.5
235 6.4332 0.377402 2.80683 0.5
236 7.05027 6.91546 7.1213 0.5
237 6.18353 0.179338 11.8089 0.5
238 5.40735 7.29783 12.3623 0.5
239 5.39392 6.42305 5.10413 0.5
240 7.20804 9.50399 9.43307 0.5
241 0.1105 6.0953 2.24296 0.5
242 9.94202 4.52012 11.4052 0.5
243 7.13919 11.316 11.4783 0.5
244 2.45037 6.17468 6.07985 0.5
245 2.46742 1.48576 0.0196824 0.5
246 3.81944 8.63277 0.427791 0.5
247 0.263262 4.98458 0.0760083 0.5
248 3.96445 5.64733 0.598419 0.5
249 2.10124 10.6874 4.21577 0.5
250 10.4352 1.20098 4.61545 0.5
251 0.803359 1.50742 12.3951 0.5
252 8.25949 6.20725 6.40465 0.5
253 12.6976 10.3953 3.85767 0.5
254 6.60144 2.0872 8.21054 0.5
255 10.0516 0.365493 11.7507 0.5
256 12.2148 6.94839 1.78788 0.5
257 12.0185 5.24438 1.60568 0.5
258 2.39241 11.5455 1.90562 0.5
259 12.5337 6.30276 2.01516 0.5
260 5.35995 0.736171 12.102 0.5
261 13.4656 6.34787 7.74113 0.5
262 5.28188 1.39593 5.68121 0.5
263 4.45686 5.0238 7.49311 0.5
264 3.70122 10.7897 5.43398 0.5
265 6.66395 8.09714 9.91223 0.5
266 13.4766 1.43551 12.7444 0.5
267 12.5124 1.29175 1.94652 0.5
268 7.67056 9.42317 0.162569 0.5
269 11.7498 8.36222 11.6833 0.5
270 6.28213 8.14067 2.06196 0.5
271 2.09961 3.83471 12.061 0.5
272 0.805594 7.75761 10.2802 0.5
273 5.38165 1.01509 5.80323 0.5
274 3.39577 4.60489 1.19198 0.5
275 8.00462 8.86794 4.02876 0.5
276 1.65128 0.493491 7.89187 0.5
277 5.91032 0.450647 0.918661 0.5
278 8.91102 13.2162 10.0194 0.5
279 11.2054 2.59146 6.7564 0.5
280 10.5334 6.86895 0.848563 0.5
281 4.1527 2.29266 7.69954 0.5
282 11.1114 9.86928 11.5612 0.5
283 12.6376 3.64633 5.19171 0.5
284 1.93785 0.240956 10.0111 0.5
285 11.0064 6.23821 4.7561 0.5
286 10.0437 3.96579 10.2307 0.5
287 11.0096 6.1251 8.50233 0.5
288 3.35978 5.11863 10.7116 0.5
289 10.054 2.71437 8.14923 0.5
290 7.99924 2.10446 9.28048 0.5
291 8.16647 3.88156 12.2117 0.5
292 10.4338 8.60329 0.719235 0.5
293 3.28366 3.36678 2.53334 0.5
294 9.73889 2.09557 5.07658 0.5
295 1.51383 1.51304 2.65819 0.5
296 4.63467 5.55487 2.04909 0.5
297 6.83672 4.53262 9.78407 0.5
298 1.4589 5.21109 8.32721 0.5
299 3.8209 6.43734 9.02316 0.5
300 13.5115 4.08695 8.14771 0.5
301 9.9598 13.2859 7.09867 0.5
302 9.5006 1.59336 6.8473 0.5
303 12.9782 4.2759 9.98387 0.5
304 3.15485 5.04435 7.63033 0.5
305 6.87519 11.4719 13.1754 0.5
306 5.78934 4.06982 12.4066 0.5
307 9.12055 7.91011 4.94273 0.5
308 2.21079 1.67924 4.9094 0.5
309 3.66514 12.7629 8.21044 0.5
310 12.3041 11.069 3.03561 0.5
311 1.54122 0.606053 0.0241312 0.5
312 7.2839 13.0727 6.45143 0.5
313 9.5414 11.96 8.56892 0.5
314 0.561502 12.1185 4.28397 0.5
315 0.164319 6.96747 6.05855 0.5
316 0.299171 2.81869 11.6748 0.5
317 2.2154 6.09406 11.7382 0.5
318 7.14701 4.23328 10.2094 0.5
319 11.2697 2.88887 11.3266 0.5
320 12.9909 9.34939 4.90919 0.5
321 11.2051 7.62544 8.51512 0.5
322 9.77981 1.78798 3.33474 0.5
323 6.11421 12.9134 11.7636 0.5
324 8.40508 9.06422 0.401438 0.5
325 6.99737 10.5361 11.4177 0.5
326 1.00199 8.52137 3.33095 0.5
327 3.90174 9.42656 1.68864 0.5
328 5.45432 10.3272 10.9702 0.5
329 5.47275 7.2124 9.51188 0.5
330 1.23924 0.168489 5.36427 0.5
331 8.47658 7.99525 5.3282 0.5
332 13.3309 1.93259 8.81856 0.5
333 2.29587 1.53627 2.80448 0.5
334 0.122196 0.510581 1.00936 0.5
335 9.01657 5.07903 8.62451 0.5
336 11.7565 12.9858 9.5203 0.5
337 1.26665 3.20309 12.4768 0.5
338 1.81202 13.0144 5.66861 0.5
339 10.2844 8.2331 3.67271 0.5
340 6.93686 5.35001 3.72061 0.5
341 1.38866 5.38422 8.94319 0.5
342 3.47732 8.37664 7.34985 0.5
343 11.5557 5.11413 12.3491 0.5
344 4.32558 4.43579 8.6131 0.5
345 0.946572 0.387523 7.51055 0.5
346 1.77887 6.74756 8.47682 0.5
347 6.24274 11.986 11.4664 0.5
348 5.04657 3.29696 7.59172 0.5
349 9.59606 13.2332 6.10568 0.5
350 0.266178 7.70147 4.65888 0.5
351 2.36817 11.7199 9.56323 0.5
352 4.90518 1.31334 5.84304 0.5
353 2.20137 8.68501 7.56205 0.5
354 12.87 6.31778 7.08009 0.5
355 5.87974 2.14999 6.5639 0.5
356 12.9847 1.12042 10.3625 0.5
357 0.983519 9.31676 4.11052 0.5
358 10.2236 11.397 12.3346 0.5
359 1.01263 5.1077 11.8512 0.5
360 13.2547 9.63355 13.4217 0.5
361 13.0675 0.651676 1.27172 0.5
362 0.735497 0.0709465 8.28131 0.5
363 6.05189 8.65864 2.254 0.5
364 8.30781 10.7435 4.50229 0.5
365 3.99818 4.56914 6.69559 0.5
366 6.09264 2.60669 2.40948 0.5
367 2.03921 0.468984 4.8981 0.5
368 10.0014 1.50452 12.6355 0.5
369 8.17029 11.4171 5.22628 0.5
370 7.39782 12.8239 0.0840751 0.5
371 7.52459 8.48956 8.6753 0.5
372 9.49912 0.957668 12.3528 0.5
373 6.96232 8.69603 11.512 0.5
374 6.56236 0.634712 9.57678 0.5
375 0.0256154 11.883 5.27177 0.5
376 0.924027 9.64667 4.18926 0.5
377 4.21781 5.24464 13.5107 0.5
378 13.3136 7.40386 7.57667 0.5
379 6.09849 2.0262 3.44423 0.5
380 0.431184 12.3956 6.12561 0.5
381 1.16339 11.4634 5.67528 0.5
382 11.4267 7.46495 10.2709 0.5
383 3.19512 2.32365 9.68863 0.5
384 9.13462 0.954284 12.636 0.5
385 12.3106 10.7074 5.64451 0.5
386 5.48661 12.389 5.72516 0.5
387 7.73412 6.86693 12.884 0.5
388 8.67167 11.1826 0.557589 0.5
389 11.4686 8.9486 6.83499 0.5
390 7.63235 12.3117 5.89398 0.5
391 11.31 5.62993 1.83569 0.5
392 9.44968 12.5769 5.9818 0.5
393 0.389968 7.17409 2.91863 0.5
394 8.85863 13.5428 7.68217 0.5
395 11.6262 10.5296 6.32878 0.5
396 6.95801 13.3623 4.3449 0.5
397 0.333757 0.658114 6.64294 0.5
398 12.2467 4.72266 9.05593 0.5
399 6.27252 3.37661 2.36688 0.5
400 2.60725 12.7608 4.23361 0.5
401 12.0716 5.55629 11.9925 0.5
402 11.4287 13.5426 5.36746 0.5
403 9.54232 7.30187 11.0401 0.5
404 12.6562 5.6248 6.73471 0.5
405 1.47873 3.32051 7.76764 0.5
406 7.09538 4.22055 2.88202 0.5
407 2.58793 12.4238 8.25465 0.5
408 5.37359 7.9442 1.60018 0.5
409 10.7439 13.2344 12.4398 0.5
410 4.72061 2.22328 0.94752 0.5
411 9.31002 3.8156 7.40518 0.5
412 12.3904 10.2382 10.1917 0.5
413 11.0413 11.7641 4.08626 0.5
414 2.2872 13.111 11.2565 0.5
415 9.54818 6.27763 5.90472 0.5
416 6.77706 13.0498 8.12035 0.5
417 13.2129 12.2132 9.93385 0.5
418 9.45667 4.03143 1.47475 0.5
419 8.50797 10.3839 7.48338 0.5
420 11.9098 0.209346 5.09522 0.5
421 10.8034 13.3735 1.28607 0.5
422 10.3156 4.77104 10.4722 0.5
423 2.57961 3.91729 1.6844 0.5
424 6.42672 0.0488321 8.1705 0.5
425 0.747744 3.44299 11.1828 0.5
426 0.520591 0.857789 10.5404 0.5
427 2.01852 8.08797 12.5757 0.5
428 1.34108 0.419829 3.65462 0.5
429 2.29 11.3204 9.82563 0.5
430 2.55789 12.7034 1.98937 0.5
431 9.74986 5.81084 3.14539 0.5
432 4.47204 11.6926 12.5071 0.5
433 11.1754 9.1533 12.4255 0.5
434 11.6248 4.96252 2.97863 0.5
435 11.9917 1.58713 10.8975 0.5
436 3.8955 11.4614 3.70624 0.5
437 12.3049 7.44791 9.39748 0.5
438 10.4667 0.636476 10.2278 0.5
439 1.606 5.0038 5.30599 0.5
440 12.7221 10.3891 5.68825 0.5
441 5.47253 13.4822 1.35174 0.5
442 9.32439 5.1888 7.59221 0.5
443 7.04535 7.36814 8.06311 0.5
444 8.13902 4.92307 4.27851 0.5
445 7.23167 5.94818 13.4051 0.5
446 12.5004 3.95578 5.50283 0.5
447 2.61287 5.26092 7.10181 0.5
448 8.76656 4.31862 5.65081 0.5
449 1.54296 8.61629 12.4188 0.5
450 0.727277 8.47498 3.2808 0.5
451 2.30569 12.99 1.6081 0.5
452 2.74733 10.0024 10.9607 0.5
453 12.3435 2.37149 1.01427 0.5
454 3.87446 3.27259 11.8435 0.5
455 13.0641 0.939516 12.0464 0.5
456 5.45601 4.98662 6.28218 0.5
457 1.585 10.2716 13.3246 0.5
458 10.5976 12.0514 9.76932 0.5
459 13.4739 11.1041 12.1007 0.5
460 10.3871 12.6987 5.36302 0.5
461 9.62146 10.5326 9.84616 0.5
462 12.2713 10.3077 0.340568 0.5
463 5.01299 12.3071 13.2632 0.5
464 8.46079 12.7463 12.7211 0.5
465 9.78284 2.53927 9.03444 0.5
466 9.45179 5.82416 8.56249 0.5
467 11.409 8.61895 12.5365 0.5
468 10.9416 4.35654 0.56938 0.5
469 1.90254 1.2349 9.89452 0.5
470 3.38642 4.01176 6.56003 0.5
471 4.93771 11.3369 2.10823 0.5
472 2.63267 8.57759 9.81599 0.5
473 11.7424 6.59212 13.3405 0.5
474 11.3917 9.35688 12.13 0.5
475 12.5674 5.36834 13.3913 0.5
476 8.37655 2.7204 0.794939 0.5
477 13.0158 5.55525 11.8994 0.5
478 5.42359 0.623014 2.8615 0.5
479 11.7844 8.94791 13.3673 0.5
480 6.80629 1.05648 10.1961 0.5
481 10.9737 12.1259 5.59638 0.5
482 11.9201 1.4546 0.0670609 0.5
483 9.18788 7.50208 3.87826 0.5
484 2.49958 3.38153 5.3954 0.5
485 13.0957 11.6242 12.949 0.5
486 0.66025 8.32592 12.2998 0.5
487 7.86698 4.64377 3.63759 0.5
488 3.4736 6.32119 2.57185 0.5
489 10.1691 0.560355 12.9755 0.5
490 9.94109 8.33308 0.0512937 0.5
491 4.95053 3.6921 8.30509 0.5
492 3.73445 7.89364 4.84251 0.5
493 5.26931 0.811164 1.90476 0.5
494 4.77659 9.53616 5.44531 0.5
495 5.41954 12.4355 2.65519 0.5
496 11.7965 11.2929 0.394046 0.5
497 5.35814 7.65316 4.33977 0.5
498 9.80687 13.4073 7.22975 0.5
499 8.32584 12.6789 4.82953 0.5
500 12.3388 10.139 4.60466 0.5
501 7.21825 0.415194 12.8626 0.5
502 5.40746 3.15837 5.24898 0.5
503 3.44833 12.9001 9.49736 0.5
504 3.31237 9.16422 3.96861 0.5
505 10.4157 13.0997 4.09766 0.5
506 12.1357 1.1978 4.59859 0.5
507 2.11242 10.4511 7.41331 0.5
508 3.24145 10.2826 9.60524 0.5
509 11.2201 0.241327 12.6737 0.5
510 5.09604 8.95897 1.2438 0.5
511 13.2964 10.2911 2.95488 0.5
512 6.76221 9.09563 2.11456 0.5
513 5.61389 10.2035 4.16476 0.5
514 0.117377 2.0457 12.5499 0.5
515 7.39463 4.58637 1.11014 0.5
516 12.163 7.44106 6.53887 0.5
517 10.9239 6.28669 10.9666 0.5
518 7.69489 6.03116 11.5351 0.5
519 4.4235 4.09554 10.908 0.5
520 6.13766 12.7455 13.0758 0.5
521 7.53745 2.35511 6.97333 0.5
522 1.08813 1.48167 2.95704 0.5
523 0.710294 2.71251 12.0807 0.5
524 4.81847 11.7136 3.41851 0.5
525 7.99671 7.97551 5.8146 0.5
526 12.0167 9.49056 10.1817 0.5
527 8.38736 8.65508 9.66168 0.5
528 3.12529 4.87137 3.93547 0.5
529 8.18399 13.5169 10.4288 0.5
530 9.54247 7.24465 1.61982 0.5
531 11.8695 11.3449 4.93654 0.5
532 6.86016 8.7279 10.5203 0.5
533 8.9942 8.88397 10.4908 0.5
534 0.919292 5.02824 8.35811 0.5
535 4.18442 3.26092 2.38636 0.5
536 4.25442 5.71377 5.3835 0.5
537 0.474045 13.0399 1.66809 0.5
538 5.81113 11.8483 2.33317 0.5
539 6.34388 6.49188 11.4287 0.5
540 11.3117 5.0497 7.39939 0.5
541 7.44748 8.09725 1.03385 0.5
542 2.45325 2.13471 1.40258 0.5
543 3.1138 10.5428 6.15914 0.5
544 7.79424 12.503 0.570376 0.5
545 9.73807 1.12163 7.63091 0.5
546 8.09927 6.36314 1.33359 0.5
547 10.2584 11.6106 10.0072 0.5
548 8.50203 4.86573 9.56615 0.5
549 4.54562 11.9791 2.32839 0.5
550 9.08554 0.218866 7.9204 0.5
551 2.30929 8.63507 7.27431 0.5
552 1.21664 12.7953 9.82675 0.5
553 13.0957 11.4422 11.7488 0.5
554 11.9832 3.16101 13.0084 0.5
555 8.23189 1.57694 11.2609 0.5
556 2.96338 3.60225 5.03829 0.5
557 9.2292 4.50948 5.29037 0.5
558 7.19163 9.09114 5.81675 0.5
559 2.71969 11.9079 8.74403 0.5
560 2.5176 9.51677 7.76722 0.5
561 13.5492 11.2009 11.2274 0.5
562 0.433715 2.08478 5.13573 0.5
563 0.999042 13.3306 1.83971 0.5
564 9.29725 6.48068 6.15056 0.5
565 7.87561 11.3226 5.62466 0.5
566 5.93716 2.74516 12.4438 0.5
567 10.0019 1.6743 8.45574 0.5
568 0.907777 5.4614 12.6676 0.5
569 12.5755 4.09862 10.84 0.5
570 8.31911 11.088 7.37771 0.5
571 1.78606 12.5887 5.11466 0.5
572 1.76049 9.50108 12.6095 0.5
573 9.65127 10.6925 1.38621 0.5
574 12.8041 8.55771 13.4252 0.5
575 1.15998 7.91123 5.3795 0.5
576 1.48448 8.01004 11.1465 0.5
577 3.72489 11.0484 9.37849 0.5
578 0.538804 9.86642 1.10201 0.5
579 11.1887 7.89958 7.64071 0.5
580 11.7194 0.320829 1.84876 0.5
581 10.6872 1.41 12.1609 0.5
582 2.50471 2.48208 10.4235 0.5
583 12.7628 6.98849 5.78145 0.5
584 0.265469 3.29417 13.09 0.5
585 10.7068 3.35192 2.55594 0.5
586 5.03317 11.6624 2.78591 0.5
587 9.89504 11.0461 0.0843127 0.5
588 0.799187 7.91232 3.21979 0.5
589 7.11961 6.84111 11.4208 0.5
590 4.07097 11.0924 12.9693 0.5
591 13.1234 2.66932 6.6734 0.5
592 0.267606 0.661784 4.76647 0.5
593 9.93877 9.6744 6.46579 0.5
594 10.3085 1.61776 6.0347 0.5
595 0.824081 2.04232 1.68711 0.5
596 11.2191 0.27126 11.1066 0.5
597 0.48904 9.86982 9.98813 0.5
598 8.57114 4.85064 0.897732 0.5
599 7.54589 5.56048 4.63063 0.5
600 1.84469 5.67556 8.18204 0.5
601 10.1978 4.01188 12.6015 0.5
602 12.2245 5.41836 12.7294 0.5
603 2.83157 7.90514 1.82178 0.5
604 9.48344 4.31128 2.3317 0.5
605 13.119 10.0411 12.4812 0.5
606 8.63729 12.2439 1.81433 0.5
607 8.82198 11.9198 3.47742 0.5
608 8.67764 2.31631 7.98624 0.5
609 11.4993 0.363918 8.3232 0.5
610 12.2469 10.6165 8.84588 0.5
611 9.64757 7.72413 7.86493 0.5
612 8.95445 3.11731 13.3618 0.5
613 7.1235 9.74572 3.47147 0.5
614 10.5221 0.262447 9.44925 0.5
615 12.0171 9.95882 4.05792 0.5
616 11.0707 0.336698 12.7612 0.5
617 8.30043 8.47662 1.30757 0.5
618 12.3647 0.411494 3.97591 0.5
619 4.34723 1.21729 9.01187 0.5
620 9.65684 10.9561 7.03828 0.5
621 4.00577 11.7629 2.28815 0.5
622 8.29504 2.91516 9.5925 0.5
623 0.369262 8.23349 2.02598 0.5
624 8.92236 3.03593 12.535 0.5
625 5.33036 6.62758 6.49421 0.5
626 4.37283 6.65993 10.4763 0.5
627 11.499 0.135246 12.0542 0.5
628 0.409952 7.85225 2.84358 0.5
629 13.4173 6.66353 6.0758 0.5
630 0.598457 11.0477 11.1826 0.5
631 6.55555 10.4769 2.72014 0.5
632 4.08252 5.74553 0.00600837 0.5
633 10.5803 9.41757 9.54201 0.5
634 1.60475 11.4437 0.636161 0.5
635 12.1228 9.89735 8.9888 0.5
636 4.51263 12.4376 4.89081 0.5
637 2.81976 12.6847 5.89559 0.5
638 10.2648 8.38455 5.92094 0.5
639 10.7046 6.44033 10.0925 0.5
640 9.60563 6.25573 10.6023 0.5
641 4.99584 3.15276 4.66751 0.5
642 2.87707 11.5899 11.472 0.5
643 0.423362 13.2243 8.07483 0.5
644 5.70719 6.07053 1.5695 0.5
645 1.26601 0.678903 11.1765 0.5
646 7.23094 8.63581 8.74419 0.5
647 13.1334 0.917453 4.28754 0.5
648 8.7807 2.36155 0.505014 0.5
649 2.71632 3.51986 3.03492 0.5
650 2.51691 4.20694 13.3487 0.5
651 1.84068 7.86689 3.93465 0.5
652 3.89071 5.80183 3.41053 0.5
653 7.04925 12.0222 10.0248 0.5
654 7.4232 10.2808 7.00908 0.5
655 6.82127 6.95865 7.91912 0.5
656 4.32397 1.84986 13.3826 0.5
657 6.28407 0.531816 5.99318 0.5
658 5.95316 3.00865 9.53514 0.5
659 6.7295 13.3601 9.9565 0.5
660 0.0517689 6.90164 5.4856 0.5
661 7.61389 8.12077 10.069 0.5
662 2.90623 5.8546 9.99882 0.5
663 3.59624 8.26599 12.8164 0.5
664 8.31806 2.63402 8.83937 0.5
665 13.2091 5.55963 1.70826 0.5
666 5.01004 7.1347 11.5979 0.5
667 3.64308 8.98912 9.06164 0.5
668 7.62714 12.8939 8.74417 0.5
669 1.23758 5.84766 4.93491 0.5
670 1.97773 4.2113 5.84624 0.5
671 2.12275 7.15174 1.87386 0.5
672 8.07791 0.0638797 7.1342 0.5
673 12.1355 8.98112 3.05966 0.5
674 7.83189 7.16285 8.2464 0.5
675 8.21104 9.84257 5.10926 0.5
676 7.55739 2.9973 5.76144 0.5
677 9.70305 12.7918 3.71865 0.5
678 0.474842 11.466 10.357 0.5
679 3.06134 9.05153 9.04538 0.5
680 12.3718 12.5367 6.42042 0.5
681 9.59137 9.00815 6.12934 0.5
682 7.13811 1.67443 9.89361 0.5
683 12.5663 10.6463 11.235 0.5
684 10.1774 1.4155 9.32396 0.5
685 6.35607 9.40606 8.69703 0.5
686 9.5758 9.98676 8.94818 0.5
687 5.2961 6.02013 9.68733 0.5
688 7.08122 0.367803 13.5165 0.5
689 12.7837 0.478892 0.840878 0.5
690 9.65113 8.45944 1.08419 0.5
691 1.65404 1.91515 1.63257 0.5
692 1.85115 6.9698 1.90734 0.5
693 11.5439 8.20757 2.62014 0.5
694 7.42436 6.23853 9.21762 0.5
695 11.9238 10.9859 1.90901 0.5
696 8.83151 10.0208 10.2742 0.5
697 10.2561 4.99371 2.33187 0.5
698 11.3953 2.17232 9.95111 0.5
699 8.9088 13.4195 3.18107 0.5
700 4.25218 3.20217 0.235359 0.5
701 2.13613 12.2297 3.13245 0.5
702 2.95311 12.7823 10.7775 0.5
703 1.20096 6.18461 3.15425 0.5
704 3.97905 1.56001 9.5191 0.5
705 10.8029 11.2323 6.18053 0.5
706 7.5013 8.33376 0.619168 0.5
707 8.68561 7.46889 5.94766 0.5
708 5.30506 10.2045 10.4827 0.5
709 3.98956 9.67133 7.01917 0.5
710 6.71383 2.07767 13.4289 0.5
711 5.5697 4.45864 11.9949 0.5
712 1.86833 9.29361 0.953752 0.5
713 6.44151 5.25487 10.2766 0.5
714 5.84267 3.9047 13.3717 0.5
715 4.03442 11.6041 1.07195 0.5
716 3.18492 0.99652 2.2458 0.5
717 12.9084 7.45541 2.89858 0.5
718 10.952 7.12755 3.31933 0.5
719 2.05347 5.80679 0.110025 0.5
720 4.06587 8.42427 8.24666 0.5
721 10.3463 7.55615 6.32338 0.5
722 1.37183 6.12184 7.6292 0.5
723 8.71246 7.45635 3.77677 0.5
724 3.34516 12.6033 11.7045 0.5
725 10.1395 3.34154 3.18727 0.5
726 0.208638 0.269333 11.629 0.5
727 7.95916 0.96719 10.1199 0.5
728 5.76681 3.12603 12.0281 0.5
729 12.4856 3.16208 2.6022 0.5
730 2.74933 2.88806 0.750246 0.5
731 1.36274 3.0533 13.4671 0.5
732 9.05247 3.57722 9.00155 0.5
733 0.628065 7.07306 1.18799 0.5
734 4.85829 3.6048 10.8802 0.5
735 9.66653 2.02071 4.6367 0.5
736 6.69732 10.2548 7.49425 0.5
737 10.9239 13.3415 0.127229 0.5
738 7.54422 7.67813 6.26915 0.5
739 4.72898 2.96412 4.06327 0.5
740 8.03894 10.0972 7.60398 0.5
741 3.99904 9.28209 13.5171 0.5
742 2.70771 7.59102 0.672375 0.5
743 4.66282 3.03248 10.036 0.5
744 8.36105 13.505 5.39272 0.5
745 3.71268 6.07167 2.94432 0.5
746 0.286118 0.319033 13.0654 0.5
747 -0.000680288 0.758428 2.75837 0.5
748 1.6049 2.13138 1.48194 0.5
749 4.81537 11.6608 4.2113 0.5
750 7.65454 4.60016 5.71153 0.5
751 3.33425 0.982529 0.541362 0.5
752 0.76393 3.6156 8.89369 0.5
753 8.90761 7.04402 12.6866 0.5
754 5.00385 7.37136 11.2331 0.5
755 11.394 2.51477 11.7989 0.5
756 5.48778 0.254366 13.1861 0.5
757 3.12338 0.732916 8.1049 0.5
758 8.49715 9.317 8.96947 0.5
759 2.89774 5.99632 6.34042 0.5
760 8.8476 1.80295 6.03936 0.5
761 0.734956 1.2486 12.9721 0.5
762 5.85148 8.84145 6.67369 0.5
763 5.9516 1.20683 10.1942 0.5
764 12.2423 1.52686 7.85996 0.5
765 6.64939 11.5295 3.20811 0.5
766 6.07276 5.66469 5.35035 0.5
767 8.69345 5.09569 8.68153 0.5
768 1.70597 6.56027 6.95656 0.5
769 1.61823 4.96279 7.87331 0.5
770 7.90634 12.1319 12.8985 0.5
771 12.32 13.2256 9.54566 0.5
772 2.28193 7.69097 13.4048 0.5
773 8.92652 4.43014 0.751779 0.5
774 9.81898 5.01568 3.16377 0.5
775 12.3293 7.03657 0.948502 0.5
776 9.0945 6.1825 12.8563 0.5
777 9.79066 11.8287 2.87629 0.5
778 3.33697 2.57685 5.54261 0.5
779 5.45517 3.38252 1.80786 0.5
780 2.57353 10.2521 10.8229 0.5
781 11.8748 5.37741 6.64024 0.5
782 2.38817 12.1331 11.8888 0.5
783 11.7936 7.45597 5.15225 0.5
784 6.53667 7.69479 12.4948 0.5
785 4.04837 3.61618 8.3035 0.5
786 6.2354 1.18938 5.48144 0.5
787 3.45846 9.12455 9.18921 0.5
788 3.29914 3.66522 11.7503 0.5
789 2.71466 8.12801 11.2148 0.5
790 7.80838 10.7007 11.9721 0.5
791 13.348 11.4859 4.48253 0.5
792 0.573423 10.056 9.88083 0.5
793 13.0376 6.0048 0.896647 0.5
794 8.56915 0.844349 2.34935 0.5
795 0.81256 5.76105 9.16881 0.5
796 7.6616 10.4245 2.80321 0.5
797 8.18276 1.56194 11.7803 0.5
798 0.0184374 3.02086 2.41066 0.5
799 7.47899 4.36427 1.59883 0.5
800 1.91682 12.5422 9.99019 0.5
801 10.317 12.7352 11.8402 0.5
802 7.88386 13.4364 2.91782 0.5
803 6.35713 2.91732 2.91472 0.5
804 5.23925 0.425268 9.21444 0.5
805 12.6069 6.45384 1.87274 0.5
806 9.60964 12.0777 6.32372 0.5
807 9.00649 9.18157 2.63361 0.5
808 1.56005 3.2325 5.37651 0.5
809 1.98367 1.65422 9.88341 0.5
810 2.68173 12.8276 9.64487 0.5
811 9.34591 2.90199 9.43683 0.5
812 2.10791 2.95748 6.83049 0.5
813 2.37467 0.633843 8.9371 0.5
814 8.65167 13.1786 7.56729 0.5
815 11.6782 8.39909 9.51399 0.5
816 5.09656 9.25586 5.19442 0.5
817 9.77298 3.97421 13.0564 0.5
818 7.29106 10.3664 13.2482 0.5
819 6.44928 1.18428 8.94382 0.5
820 7.93634 7.06524 5.73094 0.5
821 4.33689 9.37111 6.83342 0.5
822 11.733 9.33966 7.39291 0.5
823 11.0233 1.50696 9.73929 0.5
824 5.9595 9.24838 6.91189 0.5
825 4.04154 1.92133 0.719767 0.5
826 13.4986 6.82225 8.47707 0.5
827 8.86627 0.966651 0.264914 0.5
828 13.1832 7.86242 11.773 0.5
829 2.69801 10.7671 6.9947 0.5
830 13.4353 5.19852 10.5568 0.5
831 11.147 9.80366 11.7872 0.5
832 7.19039 9.61684 9.50427 0.5
833 5.02755 4.13142 7.65082 0.5
834 9.98266 2.98681 12.4142 0.5
835 11.7735 9.01642 6.46177 0.5
836 13.303 2.70759 11.8139 0.5
837 2.18812 7.60329 13.0233 0.5
838 10.3232 8.58403 1.54691 0.5
839 11.021 3.20856 6.55251 0.5
840 4.03361 10.1568 10.5243 0.5
841 4.69956 11.1765 0.0805424 0.5
842 11.9635 9.46106 6.71695 0.5
843 12.1226 5.11582 10.918 0.5
844 3.43979 9.98775 3.86423 0.5
845 1.69314 10.3512 1.73993 0.5
846 4.88066 0.137776 5.47945 0.5
847 3.35094 12.5665 12.1341 0.5
848 12.1638 11.078 5.09711 0.5
849 11.4927 9.00036 0.770063 0.5
850 8.85104 5.90227 7.96719 0.5
851 7.46737 4.89798 11.2578 0.5
852 8.50792 12.1057 5.01364 0.5
853 3.83619 6.46013 9.13853 0.5
854 6.63655 8.93984 0.820629 0.5
855 2.73103 9.77934 11.6448 0.5
856 1.48637 1.05207 10.5282 0.5
857 3.62523 7.36652 9.49348 0.5
858 9.68706 8.11614 3.03425 0.5
859 7.04485 10.1428 4.67695 0.5
860 2.10082 1.00411 5.8706 0.5
861 2.73737 3.51764 0.25839 0.5
862 3.55416 3.64491 8.25571 0.5
863 5.19295 0.16215 3.70565 0.5
864 5.56794 4.71349 1.65054 0.5
865 12.852 6.74889 4.68054 0.5
866 3.92385 7.44396 5.41307 0.5
867 0.473233 8.22973 2.19314 0.5
868 10.522 5.83069 12.7486 0.5
869 5.35394 10.0388 5.65056 0.5
870 4.01404 8.53136 2.98143 0.5
871 5.73258 10.9314 11.0162 0.5
872 10.5753 3.68833 9.96273 0.5
873 6.49396 4.13321 4.26691 0.5
874 10.9581 1.72132 8.85619 0.5
875 7.16544 7.84638 12.1178 0.5
876 12.3436 2.31335 3.02726 0.5
877 5.76183 5.63624 13.0523 0.5
878 11.7054 9.37744 9.5882 0.5
879 4.39161 6.24032 1.04603 0.5
880 5.11454 1.22 9.32312 0.5
881 4.03438 9.29559 8.8033 0.5
882 4.80728 5.56502 6.37017 0.5
883 6.65664 10.8742 8.15399 0.5
884 11.6509 4.85003 4.36703 0.5
885 8.72754 10.0029 2.83123 0.5
886 7.72792 7.97328 1.78305 0.5
887 0.988283 11.7715 4.56263 0.5
888 6.99797 11.9011 11.8249 0.5
889 10.844 2.20008 11.0796 0.5
890 11.3824 0.412482 0.0362414 0.5
891 10.0352 1.45449 1.77719 0.5
892 1.33281 4.55221 7.72782 0.5
893 8.82819 10.4618 6.72742 0.5
894 2.7262 11.0795 2.3947 0.5
895 9.92759 11.2955 7.18854 0.5
896 13.5006 0.861444 3.81677 0.5
897 7.89419 4.83677 13.1712 0.5
898 11.9772 6.43207 10.9018 0.5
899 10.5688 7.25757 11.5435 0.5
900 4.80081 9.96401 7.95274 0.5
901 5.21328 9.66608 2.70236 0.5
902 2.11668 2.06566 7.05959 0.5
903 13.3606 8.23566 7.78624 0.5
904 9.50411 1.83983 8.24875 0.5
905 4.77173 8.42341 3.31759 0.5
906 8.78736 3.67898 11.0993 0.5
907 9.09203 6.17144 0.965939 0.5
908 6.74965 6.98104 11.6211 0.5
909 12.7879 0.968641 5.01644 0.5
910 4.43513 1.05046 7.3111 0.5
911 13.3804 2.52495 7.68499 0.5
912 0.541641 2.95962 10.4013 0.5
913 5.6103 0.74227 4.81856 0.5
914 8.51003 5.36214 5.47726 0.5
915 3.01933 9.79088 5.33553 0.5
916 0.798162 0.618717 1.94143 0.5
917 8.67619 3.94109 7.5202 0.5
918 3.98103 7.31806 10.0964 0.5
919 7.55841 13.134 5.71413 0.5
920 1.39752 13.1403 4.63547 0.5
921 1.0736 7.36572 12.7729 0.5
922 10.7619 5.40993 4.80806 0.5
923 10.8172 2.69632 8.2286 0.5
924 7.68254 11.7613 4.76836 0.5
925 7.46239 3.95304 2.93241 0.5
926 4.06629 3.38571 10.0301 0.5
927 0.996207 8.94772 11.4291 0.5
928 7.92864 0.558846 4.01067 0.5
929 10.5116 6.22593 7.31437 0.5
930 6.25474 3.97963 3.1275 0.5
931 0.93132 5.84681 6.13021 0.5
932 9.94098 3.03531 11.8745 0.5