ITEM: TIMESTEP
400000
ITEM: NUMBER OF ATOMS
1000
ITEM: BOX BOUNDS xy xz yz pp pp pp
0.0000000000000000e+00 1.3572088000000001e+01 0.0000000000000000e+00
0.0000000000000000e+00 1.3572088000000001e+01 0.0000000000000000e+00
0.0000000000000000e+00 1.3572088000000001e+01 0.0000000000000000e+00
ITEM: ATOMS id x y z radius
1 8.93998 8.83495 0.0886316 0.5
2 2.52995 1.55603 5.48388 0.5
3 0.952131 4.02685 7.84075 0.5
4 11.7209 8.9459 4.34378 0.5
5 1.30574 8.7943 4.90463 0.5
6 2.54454 1.32168 10.8099 0.5
7 3.58164 8.17586 2.39563 0.5
8 6.65233 2.01941 7.52389 0.5
9 10.1563 5.70411 7.48368 0.5
10 2.18994 7.81786 0.141218 0.5
11 11.9468 4.17008 9.23997 0.5
12 11.3851 10.6985 8.4303 0.5
13 2.15313 2.07891 10.9727 0.5
14 4.0636 1.44833 12.7957 0.5
15 12.2005 3.33862 10.8213 0.5
16 1.09688 12.6024 8.33644 0.5
17 8.81334 8.25076 13.0835 0.5
18 3.6685 9.94387 1.37319 0.5
19 1.28766 7.85764 0.15683 0.5
20 10.1654 2.86174 10.1055 0.5
21 12.0139 10.2473 3.31262 0.5
22 5.27843 11.7689 11.9407 0.5
23 10.9298 7.15423 0.204352 0.5
24 13.4542 11.0688 12.131 0.5
25 13.547 4.90862 10.254 0.5
26 4.80332 8.06039 9.23017 0.5
27 11.1903 3.03127 5.35586 0.5
28 12.7563 5.60077 9.76595 0.5
29 11.4081 8.32628 8.40154 0.5
30 7.85318 4.40899 0.697174 0.5
31 11.3305 9.1859 11.7287 0.5
32 13.2851 9.77686 8.09494 0.5
33 12.0371 9.98277 6.80159 0.5
34 12.128 8.94473 2.10874 0.5
35 5.83494 9.23404 11.9591 0.5
36 5.97407 11.0293 7.80695 0.5
37 12.4382 12.5658 6.23353 0.5
38 0.904957 10.493 8.71631 0.5
39 9.72753 9.25017 1.69705 0.5
40 13.4135 10.7362 1.19889 0.5
41 10.5608 11.7924 2.18053 0.5
42 1.80991 5.60136 0.250059 0.5
43 8.65848 4.7883 12.1929 0.5
44 7.17053 12.4636 6.46037 0.5
45 0.0825747 7.0904 9.67237 0.5
46 9.44755 9.76668 0.241605 0.5
47 11.9666 3.98815 10.5638 0.5
48 2.29459 13.167 0.149377 0.5
49 8.61551 10.5294 11.2095 0.5
50 3.36196 4.95826 9.88937 0.5
51 4.79126 9.32441 8.78519 0.5
52 6.42029 4.70966 9.65378 0.5
53 10.4424 4.9257 8.62867 0.5
54 10.2186 12.245 8.55983 0.5
55 5.61458 8.80503 13.3854 0.5
56 10.414 1.63204 9.94823 0.5
57 5.82349 8.17229 7.43225 0.5
58 1.0056 8.68644 1.57026 0.5
59 11.1297 7.47853 12.2784 0.5
60 9.63023 6.06526 1.54297 0.5
61 11.0103 0.790855 5.51988 0.5
62 3.35485 9.66997 6.21201 0.5
63 2.57744 5.03324 2.16693 0.5
64 8.13507 10.0922 11.7818 0.5
65 12.1907 12.3623 12.6702 0.5
66 6.86157 7.94785 4.19681 0.5
67 0.841977 2.2214 11.5849 0.5
68 12.1896 10.3891 8.17478 0.5
69 13.0681 4.83617 11.7806 0.5
70 0.336483 11.4856 5.0073 0.5
71 6.12526 7.68781 6.64911 0.5
72 10.091 10.7622 13.4127 0.5
73 1.85666 8.09257 7.3864 0.5
74 8.12551 4.48549 11.9699 0.5
75 1.8931 11.3385 12.6196 0.5
76 0.838731 12.0561 6.39755 0.5
77 -0.0313146 8.0921 3.4028 0.5
78 2.21586 8.08357 8.04402 0.5
79 10.4847 11.9394 2.0389 0.5
80 6.37961 9.72533 4.59224 0.5
81 5.59213 13.0796 12.1496 0.5
82 6.28724 10.0231 4.31591 0.5
83 4.90636 11.1662 5.68151 0.5
84 13.1959 10.3479 7.63977 0.5
85 5.76336 10.5812 8.55877 0.5
86 3.87732 5.74055 6.00904 0.5
87 8.80895 12.9716 9.5171 0.5
88 7.96088 4.48294 7.83363 0.5
89 6.72256 12.3677 10.0882 0.5
90 3.66806 11.0675 5.22744 0.5
91 0.683548 8.64484 10.9815 0.5
92 0.105675 11.9953 5.72756 0.5
93 11.2611 -0.0113793 12.5543 0.5
94 2.41585 3.07547 4.99835 0.5
95 4.86536 13.2833 2.10673 0.5
96 12.7281 6.55551 2.98585 0.5
97 7.1098 2.6449 1.72377 0.5
98 1.83792 11.9753 11.5815 0.5
99 13.518 0.938448 4.63793 0.5
100 8.26882 8.28641 1.56291 0.5
101 5.71482 1.09433 1.41633 0.5
102 1.7214 12.236 7.17879 0.5
103 10.387 5.82574 3.85209 0.5
104 2.77168 13.4367 11.8768 0.5
105 5.78955 10.3615 10.96 0.5
106 1.5081 0.897497 9.0998 0.5
107 3.54363 13.001 13.3708 0.5
108 10.8743 4.80276 6.41995 0.5
109 5.39952 3.72378 0.183632 0.5
110 10.8963 7.99538 -0.00724279 0.5
111 10.7774 12.0689 13.4593 0.5
112 8.05776 5.08806 9.18362 0.5
113 12.1592 10.5407 2.81656 0.5
114 7.24429 1.74199 0.7709 0.5
115 6.84099 8.91224 0.760082 0.5
116 4.70965 11.933 8.01531 0.5
117 6.90558 4.20364 5.48661 0.5
118 11.9963 5.53629 4.08952 0.5
119 8.44371 0.091738 5.27526 0.5
120 10.6602 13.3039 6.60598 0.5
121 7.11311 8.46283 0.933335 0.5
122 12.3658 11.9972 11.3233 0.5
123 12.7294 4.68757 1.7325 0.5
124 5.70114 0.0198116 4.96447 0.5
125 6.76929 4.6145 0.540509 0.5
126 3.04616 4.07627 11.1828 0.5
127 11.0708 3.44885 8.13082 0.5
128 0.234831 9.84757 2.9859 0.5
129 13.3036 12.556 10.8654 0.5
130 1.44844 7.51493 6.40954 0.5
131 8.98652 1.12907 2.51588 0.5
132 5.43292 4.08003 8.68442 0.5
133 12.5421 4.54261 5.22946 0.5
134 6.63278 3.16454 3.64821 0.5
135 6.2788 7.89704 0.579619 0.5
136 7.46854 10.142 11.6217 0.5
137 3.5147 10.5434 2.28098 0.5
138 6.22036 2.37435 2.78643 0.5
139 12.3194 -0.000313513 8.2325 0.5
140 5.85057 0.91329 1.72982 0.5
141 8.476 13.4397 11.2877 0.5
142 5.71304 8.89937 0.185436 0.5
143 5.95396 12.761 11.8343 0.5
144 13.2403 11.4775 5.10952 0.5
145 5.76984 0.387013 2.41642 0.5
146 13.2254 7.37367 12.2113 0.5
147 0.0639943 3.56035 9.2026 0.5
148 10.218 5.98335 0.811693 0.5
149 1.47029 10.758 8.15521 0.5
150 6.89549 2.44903 11.2156 0.5
151 1.09382 0.127566 8.427 0.5
152 0.421043 12.8428 9.60636 0.5
153 8.10229 12.7484 12.9587 0.5
154 12.3382 9.79306 9.71755 0.5
155 1.90746 3.04105 11.1981 0.5
156 6.26226 7.38091 8.82051 0.5
157 6.96025 11.7186 12.4287 0.5
158 12.9359 5.78903 4.82323 0.5
159 4.21172 7.83774 12.2753 0.5
160 0.00104975 7.95972 0.270281 0.5
161 12.7124 8.15887 8.74612 0.5
162 11.9129 5.13257 4.74544 0.5
163 0.893811 13.4673 12.5274 0.5
164 9.19855 4.09767 9.14844 0.5
165 11.9189 2.71163 2.6744 0.5
166 6.9834 10.768 8.60324 0.5
167 9.07696 1.29052 3.85278 0.5
168 0.654868 13.5645 6.549 0.5
169 2.94905 4.59966 11.9366 0.5
170 4.59359 0.353273 7.06142 0.5
171 4.77472 1.08256 0.183442 0.5
172 12.5023 9.6486 1.17979 0.5
173 8.88136 10.0372 10.4327 0.5
174 4.88598 5.72229 4.40829 0.5
175 2.97546 4.172 9.06008 0.5
176 6.49096 11.4871 2.46633 0.5
177 10.5683 4.49835 6.13739 0.5
178 6.13567 3.64555 4.73369 0.5
179 7.48034 11.2374 9.95437 0.5
180 11.3825 0.11652 8.61039 0.5
181 12.7228 13.173 7.74166 0.5
182 12.4377 9.44881 1.82283 0.5
183 10.4268 1.19895 9.0767 0.5
184 13.1638 7.60603 12.69 0.5
185 8.75802 0.768663 1.27507 0.5
186 3.6105 9.56271 0.582861 0.5
187 7.57652 1.14856 12.0698 0.5
188 7.51258 6.97196 3.22007 0.5
189 0.621796 5.50596 4.42441 0.5
190 11.5804 0.0942587 2.47121 0.5
191 7.025 8.64182 1.57785 0.5
192 0.212331 2.39805 5.08033 0.5
193 9.00983 2.90878 8.61663 0.5
194 7.73929 2.37841 8.4357 0.5
195 6.57874 0.968374 0.0618219 0.5
196 12.8317 9.19207 4.05832 0.5
197 2.79117 7.18073 6.76857 0.5
198 11.2348 2.28815 7.13524 0.5
199 0.15799 6.99215 6.84801 0.5
200 10.3624 4.22454 0.876417 0.5
201 7.93263 11.2858 4.82361 0.5
202 7.28705 5.84178 6.80652 0.5
203 11.1487 11.9007 3.10098 0.5
204 13.1564 8.3503 10.7996 0.5
205 3.702 5.6617 6.53222 0.5
206 11.9763 2.72232 9.5106 0.5
207 8.86733 2.59189 11.5596 0.5
208 11.6448 8.16648 3.53443 0.5
209 6.57884 9.05056 5.65523 0.5
210 11.0008 11.9869 10.5755 0.5
211 1.54347 2.7446 11.9832 0.5
212 12.8623 10.4197 11.9492 0.5
213 5.356 7.50513 2.57119 0.5
214 2.19602 6.59961 0.733313 0.5
215 4.70649 8.42171 10.6079 0.5
216 9.18112 12.4434 5.16317 0.5
217 5.13282 5.85462 5.8612 0.5
218 11.5329 9.67522 1.08876 0.5
219 5.22964 13.3389 12.1049 0.5
220 7.84356 12.8832 9.22338 0.5
221 1.01644 2.30022 3.20175 0.5
222 6.95195 0.670354 1.9078 0.5
223 0.35422 7.98984 9.54896 0.5
224 13.1127 2.90039 2.13253 0.5
225 3.6251 5.98008 11.1996 0.5
226 9.21769 9.58248 7.16431 0.5
227 3.01606 5.92349 1.53083 0.5
228 0.0768239 2.16195 3.55466 0.5
229 1.40165 10.4972 9.87684 0.5
230 1.01386 4.32474 9.27188 0.5
231 9.32247 3.9856 9.75224 0.5
232 7.11057 2.22538 4.74734 0.5
233 9.54518 5.25579 6.69589 0.5
234 10.1919 7.54375 2.51 0.5
235 6.31911 0.293565 9.23525 0.5
236 6.40669 10.6239 4.40161 0.5
237 9.29931 7.92747 5.80501 0.5
238 9.44179 12.5782 9.26789 0.5
239 3.54833 8.92506 4.20007 0.5
240 3.5246 5.8617 13.1743 0.5
241 3.25495 5.1467 13.0475 0.5
242 5.63581 13.0428 9.63719 0.5
243 0.580816 9.08912 1.56053 0.5
244 10.3819 7.84737 12.7173 0.5
245 11.3902 11.7433 12.0873 0.5
246 10.7564 11.4853 13.4014 0.5
247 12.9611 12.2112 8.36561 0.5
248 13.3575 9.80656 9.60453 0.5
249 7.85071 5.63645 10.028 0.5
250 7.46132 3.35346 10.1234 0.5
251 3.32686 7.28356 12.4987 0.5
252 9.25758 12.228 6.7608 0.5
253 7.01594 2.23095 10.4947 0.5
254 8.4493 0.976768 5.5083 0.5
255 12.0519 7.79307 8.92867 0.5
256 9.44306 0.764417 5.55995 0.5
257 5.34369 8.08973 13.2784 0.5
258 13.1799 11.3938 5.62884 0.5
259 11.3003 2.31008 8.39024 0.5
260 7.33291 1.07501 8.0745 0.5
261 1.48964 1.51121 1.42056 0.5
262 7.20351 7.66136 4.54356 0.5
263 0.106269 6.20033 9.76218 0.5
264 6.26779 1.27121 3.96145 0.5
265 0.19367 2.06576 12.2268 0.5
266 1.96692 7.27696 13.3733 0.5
267 7.13734 9.73723 13.371 0.5
268 13.0212 12.7336 12.0896 0.5
269 1.09019 11.4361 11.2693 0.5
270 11.5893 2.61022 12.3613 0.5
271 7.3167 4.29873 0.684966 0.5
272 12.842 1.01577 7.24857 0.5
273 4.532 9.52353 10.5659 0.5
274 11.0877 13.2664 0.981563 0.5
275 7.60976 11.569 5.56779 0.5
276 9.47957 11.7934 8.56188 0.5
277 5.49315 9.89293 0.406593 0.5
278 10.2574 10.6403 5.7845 0.5
279 12.5984 10.994 9.43651 0.5
280 4.91075 3.29827 2.40298 0.5
281 3.53081 13.4485 11.2053 0.5
282 10.0959 9.57276 5.25019 0.5
283 2.1215 3.86855 8.7389 0.5
284 10.8666 6.09742 6.16641 0.5
285 5.5492 3.27412 4.76047 0.5
286 12.779 7.48854 1.08829 0.5
287 11.1031 9.51587 12.758 0.5
288 9.67471 11.2582 11.1313 0.5
289 9.38881 7.21754 4.09151 0.5
290 5.21633 12.9954 11.7955 0.5
291 5.81969 13.1471 4.73216 0.5
292 3.63605 10.5716 2.6297 0.5
293 7.05498 3.34572 12.4607 0.5
294 0.916482 12.7877 9.1597 0.5
295 10.7505 5.87677 3.81657 0.5
296 10.8062 13.0641 2.17922 0.5
297 6.24191 11.9382 6.32328 0.5
298 13.1839 2.49447 5.64753 0.5
299 4.60182 2.25045 11.786 0.5
300 4.41358 5.39943 6.44437 0.5
301 9.5539 11.677 0.522766 0.5
302 5.46928 12.7044 10.5281 0.5
303 10.64 8.30253 2.0113 0.5
304 3.38275 9.37404 8.82354 0.5
305 10.4678 10.2836 7.64469 0.5
306 6.21247 8.71737 0.568804 0.5
307 6.62798 5.47915 0.0595857 0.5
308 2.83136 0.785254 13.4219 0.5
309 7.56989 7.88614 7.14175 0.5
310 8.45356 9.37828 3.41183 0.5
311 0.888159 6.69605 7.46189 0.5
312 9.49726 5.64633 7.62746 0.5
313 7.42978 6.83509 1.38695 0.5
314 0.0629413 12.7389 1.46683 0.5
315 5.55627 7.87064 1.27817 0.5
316 13.6186 4.56778 2.2144 0.5
317 13.0767 5.66419 12.3145 0.5
318 4.86339 4.47355 10.8499 0.5
319 12.6156 4.29953 10.7101 0.5
320 5.00585 3.84884 8.82126 0.5
321 2.82457 1.35958 4.36003 0.5
322 7.70794 9.91604 4.71688 0.5
323 6.00892 7.4097 11.8106 0.5
324 3.69469 5.46113 0.159111 0.5
325 10.4792 9.9303 8.98379 0.5
326 1.65018 10.2585 5.13373 0.5
327 6.85062 5.83252 4.26436 0.5
328 1.55393 4.84814 9.89792 0.5
329 10.4763 12.5299 13.3395 0.5
330 9.10017 1.82491 7.65715 0.5
331 9.64259 2.84971 12.1866 0.5
332 11.0734 4.55533 8.83924 0.5
333 3.24662 9.27978 4.66113 0.5
334 0.15424 2.75976 2.98888 0.5
335 6.82463 12.1786 2.53262 0.5
336 11.7548 6.22214 0.330432 0.5
337 8.8151 7.29383 4.72662 0.5
338 9.52713 12.2978 11.1112 0.5
339 11.9552 4.0673 12.3879 0.5
340 3.61302 8.1705 1.25861 0.5
341 7.80224 6.58599 2.09017 0.5
342 3.94711 8.28916 3.46772 0.5
343 0.588829 4.83102 5.68159 0.5
344 9.64711 5.55941 11.1018 0.5
345 11.7757 4.81063 12.4556 0.5
346 7.05268 2.27483 6.48015 0.5
347 3.47231 8.24859 7.82481 0.5
348 11.6517 5.25569 12.5951 0.5
349 3.099 6.39425 3.45495 0.5
350 1.62952 5.6419 1.02216 0.5
351 6.21771 12.4636 4.94297 0.5
352 9.25877 4.5094 6.76768 0.5
353 8.07506 0.965996 0.882588 0.5
354 6.35023 0.0297355 5.51396 0.5
355 10.9558 4.27404 3.56138 0.5
356 5.78852 11.5701 7.79239 0.5
357 11.3717 7.97619 1.56248 0.5
358 3.05931 1.85322 5.69781 0.5
359 11.9803 4.75773 11.1764 0.5
360 9.40025 3.0044 4.78606 0.5
361 7.88916 8.10608 6.87334 0.5
362 7.59263 8.55947 11.0849 0.5
363 5.03286 11.3189 13.2842 0.5
364 1.85959 0.426876 9.74225 0.5
365 12.4592 6.53602 10.5033 0.5
366 2.41052 4.98345 9.66074 0.5
367 0.991691 7.64903 5.41697 0.5
368 12.3955 2.38845 7.47927 0.5
369 9.68571 4.56684 6.21569 0.5
370 7.16691 11.3426 13.1105 0.5
371 7.2049 3.6161 2.87672 0.5
372 10.0178 5.06965 10.0092 0.5
373 0.700012 8.16894 12.342 0.5
374 0.898674 10.1217 8.72226 0.5
375 9.55239 5.01567 1.79238 0.5
376 6.14624 6.42116 3.82491 0.5
377 2.8544 8.22686 3.83516 0.5
378 10.8546 7.85835 6.15528 0.5
379 9.34766 1.8273 5.63968 0.5
380 12.6975 9.15935 5.12303 0.5
381 12.8326 10.8838 7.65555 0.5
382 6.54637 2.54748 5.77075 0.5
383 7.63202 5.31122 12.0038 0.5
384 0.632427 3.00658 7.69798 0.5
385 5.55429 12.6086 3.54539 0.5
386 1.51803 13.5504 3.50495 0.5
387 9.27985 9.19393 11.3274 0.5
388 11.5863 10.3513 7.80952 0.5
389 9.19411 7.84737 0.17961 0.5
390 10.1965 4.87363 7.28805 0.5
391 3.7713 2.64246 7.11433 0.5
392 9.19665 10.396 1.3222 0.5
393 6.70497 2.37797 9.45554 0.5
394 11.002 2.65016 2.82136 0.5
395 1.68376 12.9603 0.644899 0.5
396 7.36269 12.3987 4.05912 0.5
397 0.469667 4.93797 3.43232 0.5
398 5.63347 13.5523 3.59892 0.5
399 3.75525 2.45135 7.77489 0.5
400 9.98612 5.58505 1.57975 0.5
401 8.14217 5.66108 13.3823 0.5
402 9.67584 3.3294 4.51038 0.5
403 3.9527 9.4907 4.40585 0.5
404 8.2864 2.30122 2.0484 0.5
405 9.49251 8.42586 6.61595 0.5
406 3.37563 5.60461 9.56931 0.5
407 5.44087 5.10746 9.86373 0.5
408 1.32452 7.55844 13.5775 0.5
409 3.50597 3.78984 7.22292 0.5
410 7.73186 7.02718 12.9349 0.5
411 2.41835 6.34182 0.337278 0.5
412 6.72931 13.527 6.24344 0.5
413 7.78488 0.622676 9.73597 0.5
414 7.40579 3.37548 13.4007 0.5
415 9.14592 6.24371 8.51282 0.5
416 8.66277 10.0471 11.113 0.5
417 9.40508 4.77601 12.1468 0.5
418 5.25108 3.40531 3.26725 0.5
419 11.5296 7.01546 1.47078 0.5
420 8.50359 12.2149 4.89981 0.5
421 6.41546 7.88046 6.95514 0.5
422 4.01337 8.75586 13.1206 0.5
423 4.24354 8.52742 8.4855 0.5
424 7.82053 12.0941 0.683735 0.5
425 8.8838 11.2055 5.78423 0.5
426 11.5418 1.40345 5.73452 0.5
427 10.9359 3.66825 2.54795 0.5
428 0.253087 5.32628 8.40619 0.5
429 5.83436 11.4712 2.93863 0.5
430 2.41549 4.0927 11.98 0.5
431 9.50032 7.69168 4.11409 0.5
432 3.58741 3.99217 5.81016 0.5
433 8.04662 9.3205 7.17377 0.5
434 4.14611 8.17596 7.7553 0.5
435 12.3835 1.76804 1.40791 0.5
436 7.11002 0.973228 1.92905 0.5
437 12.4433 6.92893 9.527 0.5
438 9.40829 1.84024 0.133627 0.5
439 5.36189 1.24267 11.2688 0.5
440 2.23869 12.3044 2.52646 0.5
441 5.31344 2.0801 1.50758 0.5
442 3.20618 11.2022 5.7575 0.5
443 11.5548 7.61789 4.15524 0.5
444 2.98877 7.89268 8.20538 0.5
445 5.42995 3.37373 1.83674 0.5
446 9.43026 9.33958 6.13275 0.5
447 4.99976 0.921153 5.22184 0.5
448 0.807838 0.599408 4.64317 0.5
449 11.3712 7.19327 13.0753 0.5
450 10.9791 6.95631 0.526211 0.5
451 10.7499 4.90049 0.445373 0.5
452 3.51011 3.42353 3.8824 0.5
453 8.83159 12.576 9.35668 0.5
454 10.7049 6.80894 7.43358 0.5
455 11.837 1.3411 8.88382 0.5
456 2.15242 7.48901 10.3124 0.5
457 4.86408 4.01697 11.2745 0.5
458 1.8828 3.4752 0.278734 0.5
459 0.911898 1.63667 12.6677 0.5
460 9.80315 4.15747 6.79876 0.5
461 7.56995 1.19155 1.51604 0.5
462 4.12303 2.09494 6.98718 0.5
463 13.2658 3.30512 9.45906 0.5
464 6.31108 5.55176 11.5592 0.5
465 11.1757 12.0096 4.49529 0.5
466 5.05326 12.338 4.59207 0.5
467 3.39295 12.8575 8.14838 0.5
468 7.08286 6.18186 8.91805 0.5
469 5.51289 9.23885 9.79831 0.5
470 7.00931 13.0227 4.82397 0.5
471 10.6867 2.48897 6.76175 0.5
472 9.86114 12.2152 7.89191 0.5
473 0.389178 10.3413 11.7582 0.5
474 8.6918 1.41976 1.47982 0.5
475 1.09237 4.08163 0.515796 0.5
476 7.11785 6.60335 9.35322 0.5
477 11.4908 3.77225 2.61348 0.5
478 8.27632 2.60807 5.79894 0.5
479 11.0378 2.16718 7.65066 0.5
480 3.68698 12.9442 1.43741 0.5
481 1.94219 4.15687 12.965 0.5
482 9.96088 12.2959 10.7141 0.5
483 4.8702 7.82126 12.3299 0.5
484 1.97006 8.87571 4.23594 0.5
485 10.025 10.6902 1.42074 0.5
486 4.34042 10.6098 1.05756 0.5
487 13.1487 13.5336 11.0901 0.5
488 10.4391 8.87627 8.85233 0.5
489 12.7398 2.11567 0.546725 0.5
490 11.2176 4.2862 5.87751 0.5
491 4.68156 1.01152 13.5301 0.5
492 9.17972 6.04099 3.68743 0.5
493 4.69917 7.59001 7.58268 0.5
494 7.97326 1.79365 10.5211 0.5
495 1.6517 13.2909 5.53768 0.5
496 0.9094 11.0681 5.03177 0.5
497 2.0743 9.86662 6.3023 0.5
498 0.127716 1.18 3.59427 0.5
499 5.7511 12.5328 10.8325 0.5
500 10.3601 3.69248 11.409 0.5
501 5.11696 4.01071 7.86411 0.5
502 12.9989 4.36786 1.87467 0.5
503 12.3932 7.69042 5.30876 0.5
504 2.83695 5.28286 1.80983 0.5
505 3.63028 8.26699 3.90465 0.5
506 7.4461 7.53579 12.5398 0.5
507 6.58345 4.52835 5.58394 0.5
508 6.86427 9.83793 6.65696 0.5
509 3.40752 6.57695 4.29542 0.5
510 12.4275 9.66135 0.821666 0.5
511 7.90966 1.13296 7.93692 0.5
512 6.58467 11.7616 0.160228 0.5
513 1.40465 11.8019 13.2732 0.5
514 1.61273 6.0642 4.20726 0.5
515 10.71 6.06211 11.2293 0.5
516 0.532011 3.48063 0.389527 0.5
517 4.86872 7.61898 4.84154 0.5
518 8.37235 0.732267 4.31039 0.5
519 6.11706 6.18351 0.834864 0.5
520 4.29658 8.3644 2.98112 0.5
521 12.1718 12.6406 3.39293 0.5
522 7.99679 3.13524 5.82816 0.5
523 1.47129 2.9709 11.3254 0.5
524 4.89107 5.62371 8.99716 0.5
525 13.0761 -0.0174702 10.3998 0.5
526 4.71967 4.34093 12.8986 0.5
527 9.6935 5.15524 10.6238 0.5
528 5.80218 2.3359 9.97226 0.5
529 2.66753 7.02177 13.1313 0.5
530 10.4793 7.22974 4.59463 0.5
531 3.47996 4.00895 2.34695 0.5
532 7.56099 0.21719 0.515588 0.5
533 4.60433 8.59335 7.28736 0.5
534 8.8163 1.51754 9.20005 0.5
535 10.7955 13.3369 10.1637 0.5
536 0.776972 6.93992 1.87813 0.5
537 5.85141 0.843929 10.4383 0.5
538 4.23818 1.82098 6.50244 0.5
539 5.79241 1.24457 7.98806 0.5
540 10.6889 10.9922 2.3266 0.5
541 1.24657 12.5885 12.975 0.5
542 11.0995 4.77582 2.4951 0.5
543 10.5868 6.9191 8.53568 0.5
544 6.9324 12.7607 6.26214 0.5
545 0.935283 5.89439 12.357 0.5
546 8.76846 2.24506 6.5209 0.5
547 9.90987 2.43478 4.74985 0.5
548 12.4077 10.8397 2.15648 0.5
549 10.2088 4.78611 8.20635 0.5
550 11.9352 7.07192 8.31057 0.5
551 12.6871 9.18812 11.3453 0.5
552 0.324018 3.78117 5.76914 0.5
553 1.52829 13.5638 9.07845 0.5
554 13.5076 0.620401 8.93726 0.5
555 6.08215 0.585607 6.69099 0.5
556 7.85582 1.41925 11.1695 0.5
557 5.46407 13.1133 1.18439 0.5
558 10.4988 2.11224 10.2293 0.5
559 8.17396 11.5256 10.801 0.5
560 12.1741 7.17865 6.01154 0.5
561 6.36885 1.56218 5.67997 0.5
562 8.30647 0.722319 1.55328 0.5
563 12.7221 13.1814 0.562246 0.5
564 8.82269 13.5164 8.92818 0.5
565 5.23346 13.2478 8.27075 0.5
566 11.8772 6.06212 2.96771 0.5
567 9.45144 12.3412 9.36082 0.5
568 7.13003 12.9598 4.9579 0.5
569 7.66245 8.86943 3.91678 0.5
570 13.1845 7.30017 6.05703 0.5
571 12.5643 3.49077 0.945889 0.5
572 11.5824 9.59187 0.782699 0.5
573 6.51773 6.32331 9.46571 0.5
574 12.3693 5.18612 6.44062 0.5
575 5.48651 8.82062 10.6018 0.5
576 4.27261 7.07804 1.33509 0.5
577 3.40572 2.42867 4.60467 0.5
578 1.88544 9.79417 13.4379 0.5
579 0.534001 7.96351 12.257 0.5
580 6.24488 0.632756 12.8785 0.5
581 4.20535 10.1024 1.10827 0.5
582 4.31874 12.5367 0.876292 0.5
583 0.139554 1.70921 7.60599 0.5
584 10.5038 2.1423 9.42065 0.5
585 4.02975 6.4245 1.93949 0.5
586 10.7204 1.34838 4.88884 0.5
587 9.47351 10.0262 8.94146 0.5
588 4.35047 2.98757 12.8002 0.5
589 6.97655 6.18889 7.45172 0.5
590 2.09001 5.91737 13.3782 0.5
591 5.89981 7.6271 0.2983 0.5
592 7.2981 4.45559 2.24091 0.5
593 0.821541 4.65177 2.29707 0.5
594 2.69359 2.34486 7.70063 0.5
595 3.71297 9.1238 12.8595 0.5
596 7.84333 9.70912 8.36707 0.5
597 8.57447 1.69544 3.12641 0.5
598 3.03549 2.86276 2.17709 0.5
599 5.43445 8.81338 10.2097 0.5
600 1.90765 6.57964 8.68689 0.5
601 1.32955 7.39362 0.0755719 0.5
602 2.52342 6.07211 11.7792 0.5
603 13.1545 13.5644 6.15093 0.5
604 2.33394 7.50799 10.5306 0.5
605 1.48671 3.6786 4.8721 0.5
606 8.61717 2.92212 0.69624 0.5
607 9.43657 0.792965 13.5548 0.5
608 7.65446 11.6788 4.02611 0.5
609 3.23069 6.5644 8.02114 0.5
610 13.3198 11.7068 7.66086 0.5
611 3.12495 11.3391 2.47356 0.5
612 0.512557 3.94107 4.21809 0.5
613 7.48777 13.1566 9.18752 0.5
614 12.1174 7.7304 0.161157 0.5
615 6.06512 13.4129 2.42441 0.5
616 6.95354 11.8456 8.33272 0.5
617 8.26822 0.804222 13.5239 0.5
618 10.99 7.69719 9.27123 0.5
619 6.08632 8.29599 0.419702 0.5
620 10.5696 9.41727 0.351161 0.5
621 7.38404 6.83311 2.88045 0.5
622 8.07544 8.14777 7.61869 0.5
623 3.0074 7.97883 10.7017 0.5
624 8.59173 12.9673 6.26478 0.5
625 10.799 10.6289 0.242301 0.5
626 2.37399 4.53743 6.59166 0.5
627 1.08083 12.3233 8.119 0.5
628 13.4197 5.41815 8.68005 0.5
629 3.78822 6.45325 0.112957 0.5
630 11.739 5.99164 10.7826 0.5
631 1.68906 12.9505 11.2109 0.5
632 1.22218 5.67091 10.0886 0.5
633 0.295985 12.165 6.92711 0.5
634 11.2962 1.30832 10.6598 0.5
635 10.5161 2.12909 2.05613 0.5
636 6.84916 3.52821 5.16831 0.5
637 0.288064 8.41314 0.223775 0.5
638 5.80766 6.25644 1.86766 0.5
639 4.56156 13.184 7.58094 0.5
640 13.2248 8.28819 2.60766 0.5
641 9.80326 0.442581 5.98628 0.5
642 6.14289 5.53883 0.0774541 0.5
643 8.1797 12.7962 9.07795 0.5
644 7.54505 3.0951 3.57075 0.5
645 10.3173 11.569 7.27317 0.5
646 3.74411 10.208 5.85448 0.5
647 11.6542 12.1758 2.97051 0.5
648 9.31757 1.29783 3.26276 0.5
649 1.98032 12.3966 12.2915 0.5
650 8.27476 1.20822 12.3899 0.5
651 1.45719 10.2335 5.14726 0.5
652 9.53205 4.67001 6.30572 0.5
653 12.8566 0.248152 12.0498 0.5
654 8.48926 3.18799 2.72504 0.5
655 1.17393 4.04184 5.85357 0.5
656 9.68189 10.9281 1.5898 0.5
657 4.0833 3.71272 1.84946 0.5
658 1.26894 9.06032 6.42174 0.5
659 4.12765 7.16425 11.6918 0.5
660 11.1532 5.08405 10.2908 0.5
661 6.88202 9.11689 3.14319 0.5
662 9.61836 13.3851 4.92367 0.5
663 10.1515 7.30581 12.6812 0.5
664 11.9535 9.61216 9.25557 0.5
665 0.724582 2.4165 0.789336 0.5
666 4.16985 9.81299 7.75594 0.5
667 6.76543 5.84817 11.0282 0.5
668 9.5892 3.44305 1.83356 0.5
669 1.98194 0.680963 6.28082 0.5
670 11.3791 11.0205 11.6765 0.5
671 9.9385 0.601877 7.23974 0.5
672 3.6377 4.9517 10.8852 0.5
673 9.20281 12.2719 2.55842 0.5
674 6.53313 1.99739 7.58531 0.5
675 1.45377 7.81411 6.07632 0.5
676 8.30985 6.82329 13.2149 0.5
677 11.6772 5.70245 6.72978 0.5
678 3.11987 5.11995 10.3153 0.5
679 2.93756 3.0723 12.9941 0.5
680 0.487285 11.4279 1.93638 0.5
681 10.6754 13.2518 10.0782 0.5
682 5.1983 3.16391 11.0791 0.5
683 3.17562 6.76523 2.23087 0.5
684 1.89677 11.7219 9.62041 0.5
685 4.26239 7.33275 12.6881 0.5
686 9.09332 0.827381 6.71588 0.5
687 1.61119 9.26283 3.11492 0.5
688 1.36181 6.04057 13.529 0.5
689 8.21595 12 10.9307 0.5
690 11.5842 8.52293 11.6316 0.5
691 5.2018 3.36422 4.02772 0.5
692 3.78638 12.704 12.8177 0.5
693 6.02295 11.4014 6.45445 0.5
694 3.46274 11.9428 10.26 0.5
695 4.87473 0.842809 10.1885 0.5
696 6.79583 9.09322 7.71415 0.5
697 13.3318 6.65085 2.88989 0.5
698 10.9661 6.08505 11.2722 0.5
699 11.534 11.6925 7.36491 0.5
700 13.4348 2.4755 8.70023 0.5
701 5.15276 3.13306 6.01908 0.5
702 2.52273 8.6895 9.07748 0.5
703 9.88878 12.6024 9.88442 0.5
704 9.00499 12.3442 9.47015 0.5
705 10.0148 3.48821 3.65687 0.5
706 10.9915 10.0105 1.32608 0.5
707 3.0828 12.3643 1.32322 0.5
708 1.90794 0.124399 7.15177 0.5
709 2.6101 0.957009 12.5551 0.5
710 11.5902 2.96609 4.68242 0.5
711 13.1071 11.8899 13.2958 0.5
712 1.13829 8.19244 6.27128 0.5
713 12.2955 10.3455 2.99171 0.5
714 13.2063 2.346 6.0465 0.5
715 12.5735 2.67908 10.9645 0.5
716 2.17846 3.94224 4.40537 0.5
717 8.14831 6.48502 7.23035 0.5
718 8.87693 7.08631 12.1512 0.5
719 12.1238 4.08366 5.74975 0.5
720 11.5885 6.01335 0.997408 0.5
721 11.7428 4.64546 6.17338 0.5
722 10.3803 12.5504 0.784515 0.5
723 5.52727 5.0409 3.44313 0.5
724 11.6652 -0.00721868 8.32867 0.5
725 7.46291 6.33132 7.9269 0.5
726 7.84045 12.072 3.09002 0.5
727 5.32466 4.29909 7.6378 0.5
728 9.57706 10.1479 0.789456 0.5
729 13.3966 0.576973 6.27583 0.5
730 2.18171 0.800996 3.94278 0.5
731 3.60021 9.1022 10.2692 0.5
732 10.0152 9.60911 9.40895 0.5
733 4.83418 8.64763 1.29528 0.5
734 4.95339 6.34015 9.6302 0.5
735 13.4957 4.52624 8.6207 0.5
736 4.4874 8.28374 13.1213 0.5
737 12.1541 11.9934 10.656 0.5
738 8.53527 1.06556 2.0373 0.5
739 12.3123 2.32037 9.25803 0.5
740 10.7892 1.5603 6.08377 0.5
741 1.44042 2.0568 3.63356 0.5
742 10.3647 0.237325 5.36443 0.5
743 7.75048 9.4681 10.8071 0.5
744 4.05913 1.10262 0.663698 0.5
745 11.7341 9.6946 0.40811 0.5
746 3.29403 5.34286 6.55735 0.5
747 2.65397 8.04753 11.0026 0.5
748 12.5929 7.74902 2.72296 0.5
749 1.03885 11.8485 6.61397 0.5
750 7.01385 3.82894 6.74834 0.5
751 5.62732 9.25717 3.4998 0.5
752 7.68963 4.69421 12.3921 0.5
753 4.86052 11.8054 11.3709 0.5
754 5.17945 6.31921 12.3524 0.5
755 1.2789 0.426486 0.525906 0.5
756 8.1309 11.1139 4.79064 0.5
757 13.2552 0.725332 13.1544 0.5
758 9.56402 8.88768 1.96411 0.5
759 4.13863 11.2854 7.72866 0.5
760 2.11772 4.38637 0.539289 0.5
761 9.63466 5.57494 4.92281 0.5
762 7.38498 5.80049 8.4177 0.5
763 11.4956 7.32213 8.72045 0.5
764 3.4671 6.95544 4.75074 0.5
765 3.29515 5.44182 5.28197 0.5
766 6.91339 9.95548 6.75576 0.5
767 4.93399 9.61445 11.7465 0.5
768 9.71071 10.0314 10.1703 0.5
769 11.4336 3.8047 0.473137 0.5
770 2.44009 9.58739 10.5171 0.5
771 8.11462 8.59335 7.92336 0.5
772 3.11125 2.91163 4.77634 0.5
773 6.01371 3.40736 13.291 0.5
774 9.28252 1.55568 8.03206 0.5
775 9.44812 3.33316 1.05226 0.5
776 0.146739 13.3568 11.9255 0.5
777 2.45433 7.90746 0.76639 0.5
778 10.7898 2.19757 13.1449 0.5
779 8.60154 2.81184 8.03022 0.5
780 0.560696 6.48121 12.4041 0.5
781 12.9661 7.43454 3.67508 0.5
782 9.92778 12.5217 9.60526 0.5
783 2.8722 9.18211 10.8381 0.5
784 2.77164 7.52868 2.65953 0.5
785 4.98694 11.5034 1.01473 0.5
786 10.9737 3.4922 2.64533 0.5
787 7.82516 12.7241 8.15845 0.5
788 2.91258 6.2264 1.97036 0.5
789 12.9521 2.65525 4.32642 0.5
790 8.03695 6.64028 1.08487 0.5
791 10.1579 8.662 4.94828 0.5
792 12.8321 4.64784 7.15016 0.5
793 7.93512 12.4226 12.0089 0.5
794 8.49106 4.47221 8.55672 0.5
795 8.98541 9.46082 10.2216 0.5
796 12.218 4.70991 6.38543 0.5
797 0.0135826 3.58608 3.14104 0.5
798 5.52529 12.0463 12.0805 0.5
799 0.103045 10.506 7.25839 0.5
800 8.51937 8.63084 1.15959 0.5
801 8.38199 9.7136 6.11789 0.5
802 10.1453 12.2679 4.08851 0.5
803 7.18569 1.77959 10.7767 0.5
804 0.679824 12.7645 12.4477 0.5
805 0.265446 5.82111 3.00458 0.5
806 12.4245 12.0194 0.0458964 0.5
807 10.704 6.8196 12.7608 0.5
808 6.73902 8.75706 0.245005 0.5
809 11.7813 10.6362 6.4375 0.5
810 1.86466 8.10989 11.5782 0.5
811 2.61284 8.86432 3.31139 0.5
812 10.8441 13.5334 6.18631 0.5
813 9.45342 6.25355 5.78197 0.5
814 11.3214 7.3104 12.434 0.5
815 8.7131 10.0979 3.21464 0.5
816 1.19329 11.0274 12.9318 0.5
817 6.14448 0.296333 2.87549 0.5
818 6.93523 1.79088 11.7057 0.5
819 12.0857 6.76939 9.28356 0.5
820 6.9489 7.64647 11.4622 0.5
821 9.63017 12.3776 9.8094 0.5
822 3.89294 4.73676 1.44386 0.5
823 10.0341 12.9644 7.48987 0.5
824 1.62239 4.10718 0.639149 0.5
825 2.15316 6.51491 12.6287 0.5
826 7.95789 6.49379 4.59189 0.5
827 2.3071 2.913 2.27747 0.5
828 5.29935 0.166662 5.93503 0.5
829 10.5057 13.1861 7.74015 0.5
830 12.0197 6.89976 7.8104 0.5
831 5.8098 6.75583 1.13557 0.5
832 8.74492 1.31762 6.48943 0.5
833 10.4572 1.26766 2.74721 0.5
834 8.73188 7.27399 0.30464 0.5
835 10.1452 0.492713 12.8234 0.5
836 6.91164 2.12184 5.85168 0.5
837 2.37473 4.56617 2.38296 0.5
838 2.33531 3.17848 1.21305 0.5
839 11.7812 4.90642 13.554 0.5
840 3.28828 13.2577 4.60017 0.5
841 2.05192 6.56673 8.12841 0.5
842 8.87193 2.64167 9.60901 0.5
843 4.3379 0.355854 12.3415 0.5
844 1.35289 8.51526 2.15621 0.5
845 2.48001 1.10164 10.8644 0.5
846 1.93087 12.5938 4.87414 0.5
847 4.62946 5.29592 4.16797 0.5
848 11.4712 2.24114 6.1746 0.5
849 3.39322 10.7024 13.3714 0.5
850 7.65234 3.58804 0.749237 0.5
851 3.68653 4.15766 5.85803 0.5
852 6.53722 6.64206 12.3263 0.5
853 5.20608 10.4182 9.95285 0.5
854 6.29408 8.08283 6.63108 0.5
855 0.349817 3.62579 6.88773 0.5
856 10.485 11.4803 11.2389 0.5
857 6.45619 10.0535 8.58374 0.5
858 0.880174 9.66543 13.0426 0.5
859 1.90609 9.28227 13.3754 0.5
860 5.29996 8.02499 0.100514 0.5
861 3.3814 2.40133 9.7017 0.5
862 1.67718 1.47603 5.23183 0.5
863 0.43855 8.25425 4.94393 0.5
864 12.7047 10.9679 11.9774 0.5
865 11.1169 11.3877 1.10682 0.5
866 8.42726 12.5619 12.9692 0.5
867 6.63684 3.6608 12.3608 0.5
868 8.01877 12.6246 4.82531 0.5
869 13.3735 10.738 5.0879 0.5
870 13.4838 11.4061 12.5677 0.5
871 8.80451 6.49437 8.59522 0.5
872 0.739475 9.10905 6.45778 0.5
873 1.1429 2.4821 8.37019 0.5
874 6.86661 11.1076 4.35789 0.5
875 8.99849 1.01881 13.1965 0.5
876 11.9241 10.6432 2.96336 0.5
877 5.89148 10.0684 6.56068 0.5
878 1.68314 6.09048 7.34982 0.5
879 11.0307 4.41936 11.3759 0.5
880 7.22171 10.8493 0.139284 0.5
881 6.53106 5.20206 7.69902 0.5
882 1.82115 9.68175 12.1396 0.5
883 7.6892 8.0539 8.63409 0.5
884 12.0182 12.4593 12.1482 0.5
885 7.9128 3.85044 13.1481 0.5
886 9.08286 2.65613 2.57496 0.5
887 11.3864 5.78511 4.56716 0.5
888 2.5015 2.3263 12.3889 0.5
889 3.35391 0.667605 7.58041 0.5
890 7.09891 9.8308 3.77169 0.5
891 4.32551 5.99145 4.56182 0.5
892 5.18983 4.27173 6.72712 0.5
893 11.6673 8.80198 9.75661 0.5
894 2.71628 0.952417 9.68751 0.5
895 9.71093 12.3309 12.7461 0.5
896 7.33855 5.51829 9.09189 0.5
897 10.7901 7.02397 7.23919 0.5
898 12.5046 6.5979 7.97292 0.5
899 12.138 5.42055 8.99385 0.5
900 12.4317 11.8809 13.1589 0.5
901 6.62413 6.04342 11.7056 0.5
902 4.34527 6.09202 1.65011 0.5
903 4.41237 7.29657 0.366668 0.5
904 8.42436 2.87488 5.38753 0.5
905 5.73714 5.76292 7.4871 0.5
906 10.6881 2.47031 3.04974 0.5
907 10.347 13.4685 7.48625 0.5
908 11.5837 4.06672 7.38516 0.5
909 12.8457 5.83662 3.65691 0.5
910 5.9328 10.0027 8.02092 0.5
911 5.11316 1.88514 11.4538 0.5
912 8.72588 9.8755 5.55269 0.5
913 1.21309 5.14328 3.76907 0.5
914 1.84592 2.28041 5.68953 0.5
915 1.24331 1.24135 0.907723 0.5
916 3.31488 6.48257 6.63173 0.5
917 8.81017 0.457379 10.0891 0.5
918 4.35284 8.77019 1.72541 0.5
919 4.68518 1.47636 5.51661 0.5
920 9.44472 1.20473 3.61705 0.5
921 5.59842 9.69335 0.912604 0.5
922 9.20033 10.4679 9.55762 0.5
923 4.22657 13.3825 12.9312 0.5
924 13.1162 13.0156 11.5359 0.5
925 8.02245 9.95749 6.92392 0.5
926 1.65356 3.08796 13.5706 0.5
927 0.654044 13.5238 8.87638 0.5
928 9.207 9.82374 8.25462 0.5
929 4.29971 12.4465 8.9354 0.5
930 4.56535 0.200607 5.56652 0.5
931 7.255 12.152 12.9905 0.5
932 4.41504 2.50843 8.97833 0.5
933 0.308673 2.32241 12.7304 0.5
934 8.2413 0.334008 7.094 0.5