ITEM: TIMESTEP
820000
ITEM: NUMBER OF ATOMS
1000
ITEM: BOX BOUNDS xy xz yz pp pp pp
0.0000000000000000e+00 1.3572088000000001e+01 0.0000000000000000e+00
0.0000000000000000e+00 1.3572088000000001e+01 0.0000000000000000e+00
0.0000000000000000e+00 1.3572088000000001e+01 0.0000000000000000e+00
ITEM: ATOMS id x y z radius
1 2.94935 10.3286 11.7589 0.5
2 5.57801 9.29591 12.182 0.5
3 3.13932 8.50004 11.4457 0.5
4 9.49181 10.4019 1.43746 0.5
5 12.8953 8.51678 1.79917 0.5
6 1.78835 4.05922 8.12666 0.5
7 10.8389 0.667673 3.08949 0.5
8 5.43795 4.0638 1.41769 0.5
9 8.43702 13.1772 5.79742 0.5
10 1.79858 13.3549 0.281484 0.5
11 9.79364 9.49112 9.94965 0.5
12 2.71309 8.39457 11.6474 0.5
13 6.13115 7.58535 10.85 0.5
14 1.004 8.30702 0.703756 0.5
15 11.9842 9.58578 4.10326 0.5
16 6.47113 9.96175 9.0288 0.5
17 1.09334 0.00385261 3.25634 0.5
18 3.43688 2.76387 9.90222 0.5
19 0.138229 6.29293 8.52972 0.5
20 6.34215 4.34347 0.0856547 0.5
21 9.49222 4.87694 10.2938 0.5
22 8.27981 9.69936 5.6472 0.5
23 2.27958 7.71852 9.55006 0.5
24 9.24587 6.72877 3.89013 0.5
25 3.43745 5.90174 1.97855 0.5
26 0.242664 10.0733 9.08292 0.5
27 0.402833 7.15693 6.71115 0.5
28 0.698584 4.55286 3.05478 0.5
29 6.89183 1.31941 3.01933 0.5
30 11.5261 6.40628 13.2862 0.5
31 4.51715 8.71405 4.77024 0.5
32 8.31228 1.37992 12.9419 0.5
33 0.687981 11.9143 10.3254 0.5
34 10.6218 5.41643 12.2908 0.5
35 1.31814 4.0014 0.446288 0.5
36 10.5175 7.79459 10.8955 0.5
37 8.74655 6.4696 13.5232 0.5
38 11.2573 11.0832 6.29432 0.5
39 10.0217 9.09065 13.1493 0.5
40 0.0943958 8.71814 5.855 0.5
41 13.5208 2.36165 11.5799 0.5
42 3.52321 3.83268 8.45699 0.5
43 12.019 9.23764 2.15167 0.5
44 10.8929 5.19182 12.6203 0.5
45 12.9366 10.965 8.95562 0.5
46 7.25252 10.2389 6.7538 0.5
47 8.28056 11.535 6.28524 0.5
48 1.57598 6.1292 3.19289 0.5
49 7.1907 8.03817 0.991949 0.5
50 12.9812 11.2604 6.74791 0.5
51 3.32432 2.57137 10.8271 0.5
52 3.28959 2.58358 9.73443 0.5
53 8.1909 4.69718 9.10325 0.5
54 0.736055 0.576404 2.31308 0.5
55 5.71747 6.23022 7.51422 0.5
56 8.64097 8.83934 7.01839 0.5
57 7.26643 9.24477 9.46277 0.5
58 6.25374 0.892275 7.69117 0.5
59 10.1938 9.2933 9.75841 0.5
60 8.54836 10.9837 3.92472 0.5
61 4.0865 9.529 11.332 0.5
62 0.992497 4.41527 11.9697 0.5
63 2.76702 9.84489 11.4026 0.5
64 1.93508 10.8076 3.1414 0.5
65 12.2408 9.28816 7.52909 0.5
66 6.42911 1.45217 10.429 0.5
67 12.4049 6.20097 7.25785 0.5
68 5.03676 11.793 7.62544 0.5
69 12.9759 5.97128 11.9268 0.5
70 4.55409 7.161 0.345774 0.5
71 13.27 11.3861 1.17338 0.5
72 2.81484 11.1662 11.67 0.5
73 10.1212 2.67736 11.4926 0.5
74 13.0699 8.57697 6.56656 0.5
75 9.15948 8.59246 12.1593 0.5
76 11.0298 8.41209 10.1702 0.5
77 0.0753306 9.80102 6.20897 0.5
78 12.0479 10.8566 10.2266 0.5
79 8.38578 3.86723 5.03046 0.5
80 12.3837 3.91449 5.11564 0.5
81 9.38839 4.15687 8.34534 0.5
82 8.43912 12.5597 0.368936 0.5
83 6.98793 13.3262 12.7995 0.5
84 9.03903 2.77642 2.83116 0.5
85 1.58944 10.7052 2.60742 0.5
86 3.50149 6.52317 10.389 0.5
87 12.5196 12.3083 11.3199 0.5
88 11.4771 0.0378143 7.88461 0.5
89 5.02071 12.92 1.19326 0.5
90 0.291605 8.97899 7.25374 0.5
91 2.57151 1.5138 13.5179 0.5
92 1.43031 9.92055 2.93308 0.5
93 6.33547 11.5694 7.06728 0.5
94 6.09877 8.69801 6.08002 0.5
95 10.802 5.9022 10.396 0.5
96 2.15221 9.14745 8.33749 0.5
97 6.07856 1.01299 0.813594 0.5
98 11.2445 8.37629 10.6182 0.5
99 10.0245 12.4936 5.82485 0.5
100 2.66406 11.9679 8.12799 0.5
101 9.94529 2.81766 8.95392 0.5
102 9.28965 2.74757 9.56315 0.5
103 1.8453 13.1351 11.2574 0.5
104 4.28857 1.15992 7.69634 0.5
105 2.19537 10.4704 9.35892 0.5
106 7.93132 1.24095 8.54966 0.5
107 9.88107 9.20522 6.20282 0.5
108 7.24647 12.8549 10.0146 0.5
109 2.48972 9.5832 1.27827 0.5
110 11.1257 2.78135 11.871 0.5
111 4.41213 12.6464 5.15244 0.5
112 0.0795538 5.39868 8.52244 0.5
113 1.84773 10.1876 3.41832 0.5
114 6.95697 9.80552 4.01959 0.5
115 0.912247 11.4899 8.83971 0.5
116 9.17252 6.52966 4.59781 0.5
117 9.42722 2.69935 4.57906 0.5
118 12.4137 6.65381 1.34783 0.5
119 13.4981 8.58907 12.0269 0.5
120 2.37649 0.819966 8.539 0.5
121 10.5779 11.0989 11.6958 0.5
122 13.5867 2.96222 4.43367 0.5
123 11.8203 4.53373 8.71123 0.5
124 10.7291 1.92585 4.36002 0.5
125 0.907816 6.14092 11.7607 0.5
126 10.6628 9.40245 6.99733 0.5
127 2.06041 9.10537 0.577615 0.5
128 3.67735 9.71201 2.93837 0.5
129 7.046 2.11346 10.2956 0.5
130 7.27183 0.567745 1.53706 0.5
131 12.9694 5.50886 1.58871 0.5
132 9.90618 8.86388 8.99629 0.5
133 5.11907 3.13856 3.35129 0.5
134 1.44624 9.38889 2.73891 0.5
135 3.36945 11.3978 8.20235 0.5
136 3.9741 3.87903 12.5139 0.5
137 1.86915 9.00893 5.04635 0.5
138 4.63543 5.18792 13.3161 0.5
139 10.9432 10.7893 2.54316 0.5
140 2.01279 9.95581 12.602 0.5
141 7.51035 3.45061 8.50556 0.5
142 6.48948 3.77304 2.91364 0.5
143 11.4771 3.91364 6.14769 0.5
144 3.55223 5.49516 13.537 0.5
145 7.18911 12.5647 9.68175 0.5
146 11.9926 13.1503 2.91823 0.5
147 12.278 2.43008 12.0802 0.5
148 10.0508 0.556298 4.64706 0.5
149 2.24379 3.33824 4.27991 0.5
150 10.0606 1.76683 7.32955 0.5
151 11.6944 10.3502 1.36305 0.5
152 11.6478 1.52453 13.2396 0.5
153 9.97803 12.0797 2.55008 0.5
154 1.21324 4.8899 0.832601 0.5
155 11.115 10.918 10.1017 0.5
156 9.8365 4.32106 8.77707 0.5
157 9.82469 6.50836 4.15518 0.5
158 4.47068 5.02218 5.59111 0.5
159 10.0622 2.54992 1.42839 0.5
160 4.90547 7.76989 8.7047 0.5
161 8.38485 11.8873 0.299382 0.5
162 3.41863 8.77748 6.0676 0.5
163 12.5328 5.21157 11.398 0.5
164 4.67742 13.074 10.1 0.5
165 8.5108 11.8808 3.7972 0.5
166 8.24917 6.13579 2.82668 0.5
167 12.2448 7.48657 3.74338 0.5
168 0.493442 6.37781 0.691562 0.5
169 7.85402 8.59381 13.2872 0.5
170 12.9387 2.92063 6.98728 0.5
171 12.5868 13.3855 5.97945 0.5
172 5.55929 9.78462 1.08684 0.5
173 10.3714 8.19344 1.59786 0.5
174 3.99869 5.82242 10.8529 0.5
175 6.56315 6.67257 7.94988 0.5
176 3.03879 5.20426 1.25735 0.5
177 13.1932 1.80966 6.59169 0.5
178 12.6983 11.5634 6.13794 0.5
179 11.2921 2.74705 1.59295 0.5
180 6.65836 0.845598 12.8067 0.5
181 5.52258 4.70969 2.16286 0.5
182 0.692255 9.95127 5.59888 0.5
183 3.69965 2.80414 8.45797 0.5
184 5.59645 11.5565 10.9659 0.5
185 9.51774 9.39234 5.47738 0.5
186 10.515 0.240339 11.2469 0.5
187 3.84865 12.667 11.6466 0.5
188 1.06328 2.51745 13.4405 0.5
189 0.894143 5.24764 9.79298 0.5
190 9.14758 6.02728 2.50458 0.5
191 11.1251 0.531372 11.6015 0.5
192 2.84103 3.13251 12.7897 0.5
193 11.0279 0.516349 10.166 0.5
194 8.41533 6.08761 4.04727 0.5
195 0.192244 6.43084 6.16542 0.5
196 6.58515 0.756322 11.0629 0.5
197 5.15297 6.6674 2.8541 0.5
198 2.38209 9.72853 7.65994 0.5
199 1.12935 9.10701 10.8198 0.5
200 1.9059 11.2325 1.39519 0.5
201 11.2966 4.92527 5.12257 0.5
202 6.2186 8.27199 8.78421 0.5
203 8.76868 6.76015 8.59501 0.5
204 4.66784 5.12875 0.997624 0.5
205 9.85949 8.68236 12.7016 0.5
206 2.79233 5.21833 5.3009 0.5
207 2.99065 10.9676 12.8723 0.5
208 10.5506 12.8161 6.31812 0.5
209 13.0711 4.42457 6.58855 0.5
210 12.1642 4.22997 5.65488 0.5
211 9.16404 2.28859 9.64631 0.5
212 3.7529 2.04022 8.07924 0.5
213 8.71968 2.954 10.4327 0.5
214 0.575857 1.67449 10.9628 0.5
215 4.46358 5.15745 0.889227 0.5
216 13.2053 12.9108 9.08504 0.5
217 2.13063 1.44042 11.5613 0.5
218 12.2946 10.4223 1.34608 0.5
219 12.1646 10.9251 13.3085 0.5
220 7.52808 8.96369 5.69758 0.5
221 0.244381 10.8638 10.714 0.5
222 10.1298 12.652 11.3838 0.5
223 9.15217 7.81657 3.07319 0.5
224 5.32645 2.04132 5.09513 0.5
225 2.88288 2.36868 9.08601 0.5
226 8.90011 13.3061 6.93834 0.5
227 1.82264 5.39404 4.36369 0.5
228 11.7848 0.769702 9.55909 0.5
229 8.77868 1.41638 10.6822 0.5
230 2.81028 0.158652 12.8194 0.5
231 8.30238 2.48564 9.26318 0.5
232 12.8853 7.51056 8.54096 0.5
233 8.63319 1.24991 13.4804 0.5
234 5.52861 0.394927 8.80167 0.5
235 9.59983 5.52377 6.9755 0.5
236 3.14044 4.84119 9.8222 0.5
237 0.00283265 4.46796 3.95319 0.5
238 5.66371 6.3362 13.5204 0.5
239 9.44334 9.00145 11.8587 0.5
240 7.44707 10.8976 9.14723 0.5
241 4.69734 10.9055 10.8632 0.5
242 0.881259 5.11951 6.17139 0.5
243 3.99459 9.79521 12.0668 0.5
244 7.34584 0.083999 1.92422 0.5
245 2.7146 5.12558 2.13924 0.5
246 0.0654973 1.9656 0.400618 0.5
247 8.47225 8.54525 5.79628 0.5
248 11.3528 7.01848 0.481838 0.5
249 13.4309 11.6623 11.7684 0.5
250 13.1411 1.9297 10.9395 0.5
251 9.13728 11.5856 2.92735 0.5
252 0.886248 12.7468 11.2327 0.5
253 2.69977 2.91639 0.197991 0.5
254 10.5977 5.6129 4.35908 0.5
255 11.5292 10.2992 12.1335 0.5
256 3.24252 7.42908 7.10097 0.5
257 8.94709 2.74345 6.07704 0.5
258 6.36496 1.78907 4.28684 0.5
259 1.34963 4.05732 8.73191 0.5
260 0.758598 1.50881 10.9906 0.5
261 0.419161 2.0092 13.1769 0.5
262 11.9811 9.23027 13.0672 0.5
263 12.1722 6.49914 4.46189 0.5
264 4.89185 0.985872 1.45051 0.5
265 1.84505 3.8803 4.28401 0.5
266 7.17259 7.35581 1.33874 0.5
267 0.624671 9.30134 1.67782 0.5
268 4.58128 12.5261 0.391765 0.5
269 8.15267 10.3454 0.889469 0.5
270 13.1738 3.15545 3.40657 0.5
271 0.464942 12.2645 6.01427 0.5
272 0.655115 12.4288 8.11653 0.5
273 8.89644 12.9432 13.5058 0.5
274 7.46591 9.93465 0.921606 0.5
275 12.5158 4.8807 0.345301 0.5
276 1.58546 10.2462 3.54452 0.5
277 0.758607 3.96129 9.97661 0.5
278 10.498 4.58198 5.32955 0.5
279 8.74119 3.66967 11.7202 0.5
280 12.9888 4.64519 1.39747 0.5
281 13.3869 10.0467 9.03585 0.5
282 4.68762 1.63115 4.23474 0.5
283 0.173573 12.1466 3.25454 0.5
284 5.1354 10.0292 2.5913 0.5
285 9.2146 5.94847 0.950053 0.5
286 5.6923 13.3492 2.11033 0.5
287 7.37252 3.02279 0.631166 0.5
288 1.45222 2.74363 3.92592 0.5
289 12.7228 13.0221 12.6995 0.5
290 12.8495 6.89073 7.41872 0.5
291 5.54906 13.1627 0.101757 0.5
292 1.00961 13.1002 9.67689 0.5
293 12.1344 9.45026 9.42684 0.5
294 11.691 5.59813 2.53899 0.5
295 2.0892 3.99868 5.84759 0.5
296 4.6681 8.53855 4.5857 0.5
297 8.4038 8.08479 0.192428 0.5
298 0.145772 7.72993 0.417362 0.5
299 7.01609 2.65115 10.2635 0.5
300 4.08849 13.0133 2.98646 0.5
301 4.11372 9.18034 2.91688 0.5
302 7.1001 7.99945 9.58654 0.5
303 9.20377 2.6315 2.04963 0.5
304 13.3682 13.1028 13.336 0.5
305 0.529885 0.352285 0.661971 0.5
306 4.69655 10.8002 3.52697 0.5
307 1.04993 7.59634 3.78623 0.5
308 4.1318 11.0923 9.83656 0.5
309 13.5063 11.4917 9.02875 0.5
310 11.1105 8.30174 6.59396 0.5
311 5.29606 3.23942 3.6542 0.5
312 10.3194 7.61837 4.34453 0.5
313 2.96597 7.3811 6.24747 0.5
314 0.478049 5.05739 11.8702 0.5
315 11.1245 0.713233 10.7584 0.5
316 7.48925 4.9242 5.97511 0.5
317 12.1943 4.83537 1.06731 0.5
318 1.0914 2.91739 2.99395 0.5
319 10.6604 0.974899 6.61305 0.5
320 10.8574 5.30759 8.0805 0.5
321 9.62681 2.16602 11.6801 0.5
322 1.26345 10.0437 13.2222 0.5
323 11.4456 1.21139 5.93833 0.5
324 1.7252 0.123456 7.87294 0.5
325 9.76029 12.4316 10.4025 0.5
326 3.68326 6.72111 3.13204 0.5
327 11.4636 8.76057 4.1947 0.5
328 6.35291 8.23816 2.98392 0.5
329 9.13245 6.26575 4.81837 0.5
330 12.6506 12.1388 6.42967 0.5
331 5.87881 5.947 12.1558 0.5
332 8.65823 7.38358 11.3394 0.5
333 6.8403 11.5432 0.429109 0.5
334 3.96751 10.8765 10.196 0.5
335 1.68334 1.29869 12.577 0.5
336 7.65842 11.1508 3.75066 0.5
337 5.47049 0.137582 6.56603 0.5
338 1.74862 4.06023 10.8642 0.5
339 4.50943 6.59346 9.62631 0.5
340 3.53114 8.78331 8.41864 0.5
341 7.85728 4.10584 13.1883 0.5
342 9.68913 7.76062 8.36873 0.5
343 3.96376 11.3723 3.01657 0.5
344 0.287305 6.3165 9.39361 0.5
345 8.97214 8.72872 9.12231 0.5
346 11.4475 3.58451 2.43731 0.5
347 7.35873 13.3111 5.33363 0.5
348 4.45866 2.20923 10.6476 0.5
349 10.972 8.79777 6.67369 0.5
350 4.75375 8.08057 9.7052 0.5
351 2.57716 0.00839631 9.19108 0.5
352 10.8771 5.68807 1.57541 0.5
353 9.94249 0.233159 3.85543 0.5
354 5.3155 10.4426 10.9314 0.5
355 7.80426 12.7579 9.56601 0.5
356 12.8581 2.79402 2.10554 0.5
357 5.65429 9.42322 13.4115 0.5
358 9.31858 9.67696 0.755825 0.5
359 4.33388 5.83765 7.65717 0.5
360 6.15517 0.355742 4.03427 0.5
361 7.04879 10.3895 0.129403 0.5
362 7.12732 8.41798 0.0957115 0.5
363 7.0571 10.2884 4.22572 0.5
364 7.54418 10.5497 10.2357 0.5
365 8.6892 7.03604 1.83381 0.5
366 12.6274 0.219883 5.74682 0.5
367 9.01891 12.7437 8.27687 0.5
368 2.67832 12.7394 1.49869 0.5
369 9.31029 11.7892 9.42337 0.5
370 10.243 5.39889 10.4266 0.5
371 3.26149 0.393844 5.85371 0.5
372 13.024 3.35304 6.53007 0.5
373 4.42494 10.9823 3.37556 0.5
374 6.26382 1.67418 5.99344 0.5
375 1.18441 2.22427 3.91546 0.5
376 7.48673 4.70842 1.66137 0.5
377 11.4233 3.44073 8.0409 0.5
378 1.54986 11.6739 4.07106 0.5
379 1.0658 10.8479 0.853102 0.5
380 7.98095 12.3991 1.12359 0.5
381 10.7612 10.0778 8.90268 0.5
382 0.713448 12.6767 5.9898 0.5
383 8.33317 6.87854 0.205744 0.5
384 0.433061 7.22676 9.24072 0.5
385 8.84003 8.03569 7.81533 0.5
386 6.96225 13.1981 5.79518 0.5
387 5.5225 12.8185 2.66007 0.5
388 3.53446 11.4078 11.3398 0.5
389 7.55113 7.56685 12.9594 0.5
390 2.78056 10.0946 8.02358 0.5
391 6.92871 8.11029 2.33518 0.5
392 4.34926 3.26849 13.5564 0.5
393 5.50847 2.57487 9.92504 0.5
394 0.69609 12.7927 8.28561 0.5
395 7.98266 5.54997 2.64695 0.5
396 1.23054 13.2004 0.219521 0.5
397 6.83523 10.6848 8.12834 0.5
398 13.4842 8.19726 3.21857 0.5
399 6.76859 8.80004 12.481 0.5
400 3.43603 3.60867 12.0903 0.5
401 7.36859 0.191513 6.92005 0.5
402 3.70529 13.078 11.4 0.5
403 4.45483 9.4738 2.55002 0.5
404 10.8102 10.8235 10.7755 0.5
405 2.16736 5.43469 2.09793 0.5
406 1.28624 4.69235 0.851032 0.5
407 5.51204 9.76044 2.19717 0.5
408 10.9842 2.51138 6.92521 0.5
409 6.3384 10.2544 8.41516 0.5
410 0.363248 2.81999 6.50283 0.5
411 8.05816 2.55815 3.591 0.5
412 0.712231 2.02931 1.6806 0.5
413 2.52994 4.16816 8.09793 0.5
414 5.15694 8.99478 1.32256 0.5
415 10.2611 4.14341 7.49728 0.5
416 0.386634 8.3108 12.583 0.5
417 12.4177 6.47842 10.9275 0.5
418 12.7667 11.4681 -0.050942 0.5
419 2.90162 12.5224 6.26517 0.5
420 9.19363 7.3099 9.48368 0.5
421 11.8524 3.24139 9.01965 0.5
422 12.1418 8.34672 12.9859 0.5
423 0.227555 0.477395 0.0484812 0.5
424 8.15717 7.32212 6.0713 0.5
425 6.27679 12.4503 1.10821 0.5
426 8.39355 10.664 11.8444 0.5
427 12.0052 6.34452 7.29297 0.5
428 11.4856 13.1835 4.48844 0.5
429 6.45383 13.4591 3.64154 0.5
430 8.38051 10.611 11.0178 0.5
431 13.5574 8.50725 6.96847 0.5
432 13.2794 10.1512 10.031 0.5
433 6.96631 10.4457 6.41776 0.5
434 9.10164 3.56807 4.85725 0.5
435 5.22763 6.74935 6.78182 0.5
436 13.4779 1.95837 8.23641 0.5
437 0.568727 2.85278 3.14425 0.5
438 8.01066 0.785298 9.95345 0.5
439 0.490698 4.67736 9.07568 0.5
440 11.6841 12.956 9.43863 0.5
441 7.89003 11.3207 9.14467 0.5
442 4.91067 1.04523 11.5469 0.5
443 11.8872 1.15062 6.64763 0.5
444 4.13114 2.30617 5.59937 0.5
445 13.3961 12.4185 9.41115 0.5
446 12.0671 10.9169 11.1325 0.5
447 10.9476 11.0231 6.55363 0.5
448 5.3559 12.3487 4.30747 0.5
449 2.38085 8.3405 1.08222 0.5
450 11.6072 12.3803 3.34942 0.5
451 9.05178 12.7021 3.20343 0.5
452 9.0379 1.77997 3.313 0.5
453 9.03901 11.1108 9.22824 0.5
454 4.4948 12.0857 10.3868 0.5
455 3.19 12.148 1.73049 0.5
456 5.13067 3.27292 4.98896 0.5
457 7.11406 7.5299 2.36517 0.5
458 1.7025 0.369504 1.16864 0.5
459 4.36573 13.3656 6.51634 0.5
460 2.45968 8.01958 11.1135 0.5
461 5.0436 6.14204 4.88702 0.5
462 5.19802 8.23892 3.29571 0.5
463 4.21601 1.26207 8.04472 0.5
464 5.42451 13.4376 4.73668 0.5
465 7.49824 10.3876 12.1677 0.5
466 6.12372 3.3177 5.75606 0.5
467 0.695641 8.84142 1.31947 0.5
468 10.5156 4.72786 11.1396 0.5
469 5.39745 1.1645 7.35041 0.5
470 7.01469 4.58169 7.12184 0.5
471 12.8223 2.11624 5.19137 0.5
472 0.641872 2.68512 6.58201 0.5
473 1.64337 6.70771 1.86702 0.5
474 12.2479 11.851 6.76796 0.5
475 4.94102 11.9992 3.60838 0.5
476 12.7604 7.39039 2.28135 0.5
477 0.216871 9.06546 2.79332 0.5
478 7.69792 7.56179 6.30355 0.5
479 1.41224 7.01224 9.86264 0.5
480 2.37433 9.36008 1.84025 0.5
481 12.8225 1.72786 8.14773 0.5
482 4.35065 4.74257 10.9969 0.5
483 0.433595 10.7106 3.9152 0.5
484 2.19781 13.0099 3.68973 0.5
485 5.74882 5.94603 7.83642 0.5
486 8.04216 7.57077 7.73196 0.5
487 10.1358 10.01 5.34731 0.5
488 13.1729 9.73694 2.92032 0.5
489 11.5805 4.74852 0.0273395 0.5
490 8.30964 8.72894 12.7015 0.5
491 2.38111 3.43694 8.85103 0.5
492 11.579 1.95896 6.05367 0.5
493 12.182 5.80468 10.3347 0.5
494 2.1002 3.64963 11.1416 0.5
495 3.67687 8.58943 4.8478 0.5
496 7.83874 8.44969 11.3813 0.5
497 0.346431 9.77391 4.19754 0.5
498 9.61719 5.88621 7.80524 0.5
499 8.85041 7.82764 12.9744 0.5
500 9.91143 10.6692 8.92545 0.5
501 1.08171 10.6329 9.88503 0.5
502 1.1316 7.45657 6.33538 0.5
503 4.18339 5.91489 5.30031 0.5
504 6.96001 8.68187 5.918 0.5
505 10.509 2.43079 5.93441 0.5
506 5.07804 6.26225 12.6296 0.5
507 2.48143 7.95596 1.94498 0.5
508 12.8479 3.73136 0.570675 0.5
509 0.284585 11.2992 2.75153 0.5
510 8.43104 5.4004 9.58687 0.5
511 5.16585 8.82674 0.30226 0.5
512 10.522 5.73555 12.113 0.5
513 12.6356 12.2872 10.1815 0.5
514 9.75667 2.55189 9.19132 0.5
515 3.15248 11.6387 3.68283 0.5
516 1.29555 8.49351 4.36776 0.5
517 0.165455 1.20804 1.04132 0.5
518 2.75903 11.116 8.17489 0.5
519 3.52852 3.40575 5.02066 0.5
520 0.179698 12.5025 12.0648 0.5
521 10.2014 11.8271 12.6559 0.5
522 12.5596 11.5648 4.89801 0.5
523 9.85914 4.84356 5.56373 0.5
524 3.65762 13.5232 3.75015 0.5
525 9.06353 4.89396 12.4746 0.5
526 2.11195 8.68416 8.75811 0.5
527 6.84644 -0.00903581 6.71104 0.5
528 6.4826 11.5302 5.76522 0.5
529 2.65315 7.88655 1.71241 0.5
530 6.33627 0.383554 0.45294 0.5
531 5.61359 13.3964 10.8295 0.5
532 4.91891 1.11537 13.0847 0.5
533 1.14284 9.22991 0.320982 0.5
534 6.50909 2.17654 3.05953 0.5
535 2.96195 2.7714 4.51146 0.5
536 1.957 12.2699 10.0729 0.5
537 1.51622 0.817461 1.8213 0.5
538 3.67075 2.52861 4.59559 0.5
539 10.0903 0.856036 9.49374 0.5
540 10.8254 6.13697 6.75092 0.5
541 12.8903 9.34835 11.3786 0.5
542 0.716404 8.28215 11.4945 0.5
543 10.4176 11.1162 11.5774 0.5
544 4.32109 3.50746 7.30056 0.5
545 10.7591 0.673996 6.12717 0.5
546 11.5144 2.96909 13.1738 0.5
547 1.69839 0.36638 3.60543 0.5
548 11.4168 9.94511 5.87046 0.5
549 3.9429 3.77199 2.30776 0.5
550 10.4462 9.54379 9.50678 0.5
551 13.0325 2.8925 12.8705 0.5
552 1.62537 0.969987 9.88351 0.5
553 6.96609 13.3521 12.2048 0.5
554 1.66521 6.2906 6.96363 0.5
555 4.66508 8.6219 6.28512 0.5
556 10.5724 4.67257 10.8581 0.5
557 5.98018 5.95942 1.29793 0.5
558 3.98718 9.76622 10.6555 0.5
559 5.54436 8.12332 11.9285 0.5
560 2.2643 8.03615 8.56205 0.5
561 6.87166 10.7834 11.2779 0.5
562 0.101974 4.9545 13.1299 0.5
563 3.61784 10.0971 6.25469 0.5
564 8.58993 13.1025 6.28195 0.5
565 0.415576 11.1395 0.60302 0.5
566 11.1607 1.79916 6.83144 0.5
567 2.28825 0.263482 5.32552 0.5
568 7.19896 1.3516 12.2629 0.5
569 9.07183 1.49587 10.5642 0.5
570 2.0742 7.11736 3.91995 0.5
571 3.91787 9.28301 13.2899 0.5
572 3.94853 5.64958 7.19796 0.5
573 4.77638 4.19163 9.97812 0.5
574 1.76711 0.0620652 8.62878 0.5
575 8.24728 0.151842 5.74938 0.5
576 4.77106 12.0553 10.9428 0.5
577 13.3469 12.9467 0.381378 0.5
578 7.50531 0.0558072 9.20816 0.5
579 7.75132 3.30278 3.69551 0.5
580 7.03623 7.34865 2.71962 0.5
581 11.6082 8.56006 12.7136 0.5
582 12.3588 9.13431 10.8846 0.5
583 0.73737 11.984 9.43286 0.5
584 2.46724 8.30908 13.0816 0.5
585 7.93074 3.63937 5.60252 0.5
586 3.35132 9.31737 0.0907127 0.5
587 13.4868 3.04541 7.23064 0.5
588 0.560032 0.605863 8.12009 0.5
589 11.8457 6.57394 5.61501 0.5
590 10.2089 2.5289 4.85343 0.5
591 4.74413 0.558308 1.72145 0.5
592 8.19944 4.19247 1.00747 0.5
593 12.4136 10.5954 10.8059 0.5
594 6.87017 10.9365 1.73796 0.5
595 5.21135 2.48884 1.30696 0.5
596 4.1986 4.62439 3.95266 0.5
597 6.40537 7.68913 2.33641 0.5
598 6.14246 3.56319 10.0922 0.5
599 0.0353949 4.00881 3.29438 0.5
600 1.95896 3.69263 11.0053 0.5
601 7.69309 3.76872 4.66122 0.5
602 5.23809 1.99758 2.47329 0.5
603 7.95487 7.60095 9.92444 0.5
604 4.87052 9.73567 10.1989 0.5
605 3.40081 2.07608 13.1698 0.5
606 8.68709 11.7035 12.32 0.5
607 6.54654 7.92231 7.10902 0.5
608 10.4084 10.6435 3.76527 0.5
609 2.31433 13.0254 8.48748 0.5
610 11.4113 13.3778 5.84724 0.5
611 9.62327 4.87815 9.18708 0.5
612 3.96868 10.0169 12.5372 0.5
613 5.32256 9.7428 5.73138 0.5
614 12.3706 7.56664 4.41437 0.5
615 10.872 12.3887 12.6415 0.5
616 12.6569 11.9326 8.74852 0.5
617 7.13565 11.7231 1.01375 0.5
618 2.48399 8.8891 11.7575 0.5
619 4.05461 10.4679 4.89702 0.5
620 11.361 9.21822 3.93168 0.5
621 9.08679 1.36843 8.78641 0.5
622 11.0215 3.85383 5.69516 0.5
623 7.75157 11.9982 13.4535 0.5
624 7.22165 3.92424 2.83288 0.5
625 12.4292 13.3359 2.66031 0.5
626 12.5947 5.95626 8.87512 0.5
627 8.15248 1.50444 6.2932 0.5
628 7.33406 5.54439 6.07956 0.5
629 4.80551 0.270603 11.1607 0.5
630 8.65113 13.2508 7.76059 0.5
631 4.72468 5.46741 3.857 0.5
632 4.49363 10.9483 6.37117 0.5
633 10.5953 7.88664 8.63528 0.5
634 12.6884 11.4868 3.50144 0.5
635 6.13856 10.2722 0.985812 0.5
636 12.2077 5.37422 10.2655 0.5
637 10.3469 5.63202 11.0603 0.5
638 2.86313 9.89443 10.9879 0.5
639 5.30645 12.9213 13.0376 0.5
640 13.4788 13.2431 6.01851 0.5
641 12.5055 13.0759 12.7219 0.5
642 3.33362 6.86908 5.06432 0.5
643 1.60501 4.48393 8.55022 0.5
644 5.8033 2.32102 11.6928 0.5
645 0.493145 13.5329 11.9569 0.5
646 8.97246 7.22291 10.5481 0.5
647 7.7583 0.60991 10.7626 0.5
648 12.2152 10.7489 10.9708 0.5
649 0.752434 9.79959 4.57286 0.5
650 3.81518 7.40419 6.79142 0.5
651 1.55525 8.67264 2.94509 0.5
652 0.780976 7.01637 12.8234 0.5
653 3.05624 10.3392 4.5475 0.5
654 11.8953 6.8191 0.236361 0.5
655 1.12095 1.2404 2.70339 0.5
656 12.2322 11.2758 8.33819 0.5
657 6.79226 6.40934 10.5022 0.5
658 11.4923 4.27032 11.5118 0.5
659 3.09745 11.0642 2.70859 0.5
660 10.2745 3.59792 9.76473 0.5
661 8.45196 8.76669 8.41304 0.5
662 11.2374 11.6653 0.236944 0.5
663 11.6137 11.0993 10.6807 0.5
664 10.2356 4.47592 10.3349 0.5
665 7.99597 6.59967 4.32357 0.5
666 5.88203 3.65145 1.14199 0.5
667 0.691774 9.83271 9.71375 0.5
668 3.98697 9.99196 11.5153 0.5
669 8.8404 7.82419 9.05771 0.5
670 6.75067 0.337289 9.44159 0.5
671 12.2974 0.125525 2.84672 0.5
672 7.70067 12.1645 7.8847 0.5
673 13.2163 1.96871 9.37837 0.5
674 9.96803 10.4808 4.33527 0.5
675 6.2581 10.0341 11.1304 0.5
676 8.62781 7.4532 11.5861 0.5
677 9.28211 4.81376 0.799802 0.5
678 1.68968 3.80071 11.7566 0.5
679 2.55437 3.77587 5.80128 0.5
680 1.2245 4.13417 9.80953 0.5
681 5.5383 5.0906 4.3327 0.5
682 11.6867 2.08482 3.48649 0.5
683 7.33024 10.6115 3.76678 0.5
684 8.09355 10.942 11.0898 0.5
685 2.42292 10.8863 9.23452 0.5
686 1.19851 10.4274 6.23787 0.5
687 4.61987 2.68995 6.62695 0.5
688 7.68086 2.53411 3.25259 0.5
689 7.03113 2.19452 1.47946 0.5
690 8.00403 7.14658 12.9268 0.5
691 7.92842 0.71457 0.536875 0.5
692 10.072 11.2997 4.83109 0.5
693 2.62636 7.75325 2.82323 0.5
694 11.8293 11.1165 5.32821 0.5
695 5.26303 1.66046 6.29765 0.5
696 4.58974 10.0266 8.11235 0.5
697 8.66068 2.49196 13.512 0.5
698 4.95683 4.99169 11.5222 0.5
699 7.26658 12.2482 10.7066 0.5
700 12.9694 4.18361 10.9992 0.5
701 3.65912 10.6942 8.35909 0.5
702 1.73854 9.16956 8.41885 0.5
703 9.25399 4.07802 13.3724 0.5
704 8.15556 3.02018 11.7877 0.5
705 12.8715 4.72848 11.5864 0.5
706 12.9504 0.556041 7.50168 0.5
707 12.0967 5.29424 12.1359 0.5
708 11.8108 8.86236 10.3264 0.5
709 0.030601 10.8349 5.21083 0.5
710 6.7541 2.44406 10.6831 0.5
711 6.47802 2.36655 0.70894 0.5
712 12.1682 2.686 5.79866 0.5
713 5.76219 6.42083 1.69707 0.5
714 11.9589 12.1108 12.1424 0.5
715 12.7303 12.9246 8.2291 0.5
716 10.0934 2.34376 9.11201 0.5
717 5.85838 8.84308 9.62747 0.5
718 7.39015 1.34897 9.39622 0.5
719 11.3161 7.20533 8.51351 0.5
720 4.20511 6.12037 0.452155 0.5
721 0.148167 10.2828 9.63546 0.5
722 8.3639 8.99395 8.01659 0.5
723 0.521777 2.97768 10.7285 0.5
724 9.70351 6.44842 0.986241 0.5
725 13.3129 12.8346 3.76991 0.5
726 6.74452 9.64925 7.2495 0.5
727 8.81783 10.8323 8.0348 0.5
728 10.3987 9.28752 9.94466 0.5
729 1.43065 12.2313 12.7159 0.5
730 8.88787 6.22905 2.61724 0.5
731 4.28391 11.3677 10.941 0.5
732 5.21074 0.267664 2.34727 0.5
733 12.513 5.2993 6.90825 0.5
734 13.4916 3.85168 11.4387 0.5
735 9.36843 4.74312 13.4097 0.5
736 12.6746 10.7153 0.161612 0.5
737 1.47588 0.257207 11.3522 0.5
738 2.79957 4.75204 4.75688 0.5
739 4.59954 2.5052 11.1865 0.5
740 2.15637 5.3327 2.65708 0.5
741 8.05068 5.22838 11.3363 0.5
742 8.54687 10.9795 2.87269 0.5
743 0.619424 10.4466 1.45343 0.5
744 10.5431 0.970479 4.4175 0.5
745 9.72103 0.6385 5.71902 0.5
746 9.00662 12.6882 9.01688 0.5
747 12.9478 4.78165 1.03948 0.5
748 11.1199 4.57656 11.4238 0.5
749 2.01686 4.76181 12.8106 0.5
750 2.52848 9.84911 6.57256 0.5
751 3.08697 4.66036 0.968167 0.5
752 6.32445 5.99588 4.60132 0.5
753 13.2923 5.76429 5.90617 0.5
754 11.0634 10.8518 0.519035 0.5
755 1.14264 0.0384094 4.15754 0.5
756 11.0369 12.7328 10.3324 0.5
757 8.5113 1.69622 3.90707 0.5
758 13.5194 13.4373 11.369 0.5
759 9.81945 1.13178 11.1808 0.5
760 1.25533 2.91552 6.20754 0.5
761 6.88939 0.539152 6.01997 0.5
762 4.191 8.58141 10.7607 0.5
763 1.52006 4.97565 10.1277 0.5
764 7.49587 0.282752 0.641884 0.5
765 4.67134 10.1864 5.46376 0.5
766 8.71257 9.60377 4.30176 0.5
767 1.98888 10.4329 3.16093 0.5
768 9.38304 3.95459 12.5442 0.5
769 12.8896 4.13244 6.31974 0.5
770 6.47471 13.0312 2.09985 0.5
771 0.462177 0.532838 6.34759 0.5
772 12.3137 5.39488 10.1956 0.5
773 10.1953 12.6015 10.5616 0.5
774 3.72626 2.07237 2.91037 0.5
775 3.49223 3.25278 11.8824 0.5
776 12.676 0.748836 0.768238 0.5
777 7.18077 12.9424 7.20797 0.5
778 7.59852 9.27112 9.6822 0.5
779 12.8762 3.98862 5.42974 0.5
780 0.924034 12.2726 7.13125 0.5
781 7.67649 3.32154 0.204506 0.5
782 6.35064 9.18298 3.57993 0.5
783 6.42728 11.861 11.0608 0.5
784 11.7986 6.67806 5.49135 0.5
785 8.13771 7.58166 13.5406 0.5
786 11.8297 6.45665 8.97536 0.5
787 6.6472 12.8808 6.60258 0.5
788 11.5085 2.56727 3.33893 0.5
789 11.7985 4.10903 12.7318 0.5
790 0.244469 4.31695 13.0086 0.5
791 12.6957 5.06404 10.5462 0.5
792 7.39918 10.1028 12.6831 0.5
793 10.3068 11.4001 0.0193023 0.5
794 0.864386 11.4646 3.2598 0.5
795 0.230375 4.57619 9.75305 0.5
796 4.95315 12.2669 13.1585 0.5
797 0.444917 11.3016 9.49446 0.5
798 11.1818 6.03915 12.6281 0.5
799 12.1382 8.48508 10.0396 0.5
800 2.3912 0.987079 1.36718 0.5
801 9.61644 10.4231 3.57873 0.5
802 7.15836 11.5731 11.6263 0.5
803 4.01707 8.18142 4.68817 0.5
804 6.93084 9.37245 6.94029 0.5
805 11.7971 7.81173 12.2182 0.5
806 1.97048 8.33545 12.724 0.5
807 7.36783 9.53725 9.22986 0.5
808 6.92666 3.88094 7.60137 0.5
809 9.94267 12.9692 6.29538 0.5
810 1.03841 0.563604 11.1393 0.5
811 12.422 2.63079 6.1461 0.5
812 11.7128 4.51402 4.99515 0.5
813 1.06553 2.21809 5.02858 0.5
814 12.1278 10.1076 5.28811 0.5
815 11.8775 2.11399 4.44456 0.5
816 8.29206 1.43346 8.34294 0.5
817 8.40885 5.84468 8.2496 0.5
818 13.0889 1.6128 0.159063 0.5
819 6.88561 11.8073 5.85598 0.5
820 0.195364 10.7765 10.9621 0.5
821 10.978 1.80386 2.54285 0.5
822 12.2799 2.40992 3.6639 0.5
823 3.8966 3.01532 1.74441 0.5
824 1.80623 7.43706 3.30179 0.5
825 10.7972 8.5769 1.80425 0.5
826 11.2905 10.7682 4.32736 0.5
827 1.14977 3.32214 7.15583 0.5
828 2.59058 6.97538 13.175 0.5
829 9.08947 10.9499 2.23774 0.5
830 8.5209 10.6874 7.50156 0.5
831 5.0567 0.340631 2.61058 0.5
832 0.738085 3.56882 1.43749 0.5
833 11.2924 2.15614 3.72888 0.5
834 5.45116 5.2483 7.45258 0.5
835 1.55046 0.94763 2.79766 0.5
836 3.68612 0.297949 10.8749 0.5
837 10.3676 0.897014 10.3881 0.5
838 8.45601 7.05622 9.30402 0.5
839 8.70798 0.0476901 8.62432 0.5
840 2.78324 10.5764 11.7225 0.5
841 7.22675 12.1794 2.65105 0.5
842 1.25367 2.30107 4.6651 0.5
843 1.86346 13.0051 2.55838 0.5
844 3.46365 8.80562 1.92867 0.5
845 5.34849 12.0197 4.35384 0.5
846 0.331662 1.47326 7.36946 0.5
847 1.04405 10.5418 1.34519 0.5
848 3.81727 8.03467 10.3275 0.5
849 0.567006 12.5457 9.10189 0.5
850 3.89123 4.52982 2.52537 0.5
851 12.4837 5.4549 10.748 0.5
852 2.01085 8.09554 6.33281 0.5
853 10.6547 8.3447 2.29365 0.5
854 5.36355 4.02722 4.6164 0.5
855 6.77293 6.80792 9.16952 0.5
856 12.145 6.15335 10.0638 0.5
857 1.98226 5.46444 7.8055 0.5
858 10.6236 8.4181 1.24174 0.5
859 5.80833 4.2195 4.50621 0.5
860 4.01085 6.85421 7.95407 0.5
861 5.74193 4.57231 4.94518 0.5
862 3.29884 8.8204 6.39481 0.5
863 10.7001 10.6101 12.7607 0.5
864 5.83596 7.703 2.28406 0.5
865 8.02168 12.9716 11.0346 0.5
866 11.5406 7.32195 13.3357 0.5
867 10.1765 7.88874 13.0434 0.5
868 1.52501 7.80094 10.7529 0.5
869 3.09141 5.23527 11.0314 0.5
870 12.5542 6.66742 0.548191 0.5
871 13.1687 3.54539 12.5899 0.5
872 7.6203 7.04065 11.9215 0.5
873 6.86134 0.87007 4.43961 0.5
874 0.0268348 11.975 9.53542 0.5
875 6.8555 9.72122 1.45125 0.5
876 1.85987 10.9695 3.70276 0.5
877 1.80724 7.78978 5.22486 0.5
878 12.2883 10.2527 10.5149 0.5
879 13.049 0.393586 10.0856 0.5
880 6.70751 11.994 6.63087 0.5
881 5.09863 7.72286 3.49827 0.5
882 4.02825 8.66634 11.2471 0.5
883 9.43565 10.895 0.716474 0.5
884 5.97657 5.84215 12.3086 0.5
885 1.4116 6.19603 10.6788 0.5
886 2.59718 0.188425 6.83936 0.5
887 1.68073 6.8018 9.54779 0.5
888 1.99931 9.38675 0.161057 0.5
889 3.35984 2.03907 0.435995 0.5
890 1.77031 0.126205 10.2474 0.5
891 12.265 12.9757 11.7007 0.5
892 5.60394 5.30844 2.37739 0.5
893 9.831 3.13838 4.49298 0.5
894 12.5903 3.72476 10.6473 0.5
895 3.12146 4.80118 3.11049 0.5
896 6.70312 9.74236 13.5209 0.5
897 4.11328 13.2853 11.8465 0.5
898 2.94135 12.8596 13.0831 0.5
899 2.45621 2.83657 5.66257 0.5
900 12.3308 2.03223 6.40489 0.5
901 9.03913 4.85638 7.83991 0.5
902 11.1873 1.276 4.64144 0.5
903 4.12078 10.5474 1.50077 0.5
904 5.13583 7.97667 11.3173 0.5
905 9.79938 9.05605 5.96359 0.5
906 13.0456 5.83529 2.12838 0.5
907 2.27112 3.86283 7.6678 0.5
908 2.07032 5.32415 1.15239 0.5
909 4.08359 11.8781 1.05932 0.5
910 0.60503 1.34093 1.62653 0.5
911 2.66782 3.71637 2.4347 0.5
912 12.5161 11.4419 8.12786 0.5
913 5.4276 3.40143 4.58461 0.5
914 8.45755 4.40929 11.0456 0.5
915 9.34525 12.7962 12.1914 0.5
916 10.2357 2.28385 11.3006 0.5
917 9.38507 11.564 4.50484 0.5
918 4.58675 6.56942 12.2724 0.5
919 7.73109 0.832058 2.61611 0.5
920 2.93769 7.52344 11.0834 0.5
921 3.58809 4.36913 3.16474 0.5
922 13.3906 7.95518 11.7296 0.5
923 11.3134 9.95006 12.8518 0.5
924 10.7332 9.52953 7.29623 0.5
925 10.9112 3.19567 2.36453 0.5
926 3.86779 10.8197 11.4792 0.5
927 9.7713 8.33187 4.20907 0.5
928 7.0482 9.30427 3.19131 0.5
929 1.34816 12.0854 10.634 0.5
930 3.56853 10.4241 4.68499 0.5
931 1.03565 12.6472 5.40582 0.5
932 7.91035 5.89521 7.67581 0.5