ITEM: TIMESTEP
370000
ITEM: NUMBER OF ATOMS
1000
ITEM: BOX BOUNDS xy xz yz pp pp pp
0.0000000000000000e+00 1.3572088000000001e+01 0.0000000000000000e+00
0.0000000000000000e+00 1.3572088000000001e+01 0.0000000000000000e+00
0.0000000000000000e+00 1.3572088000000001e+01 0.0000000000000000e+00
ITEM: ATOMS id x y z radius
1 10.8004 10.5002 6.84038 0.5
2 13.0845 7.02816 6.39656 0.5
3 0.011515 8.32327 7.77701 0.5
4 7.38483 10.0429 6.95107 0.5
5 10.1904 5.1232 10.1354 0.5
6 2.23034 7.11674 13.0687 0.5
7 12.6053 3.04481 5.28189 0.5
8 0.773604 8.92137 8.31942 0.5
9 -0.0380913 1.79881 5.04457 0.5
10 2.52583 3.54977 4.41333 0.5
11 10.7278 12.4208 0.807926 0.5
12 2.41153 2.0013 1.85983 0.5
13 12.2053 3.02771 7.37194 0.5
14 7.62505 10.31 4.03164 0.5
15 7.27605 10.248 9.30843 0.5
16 2.09985 2.59337 10.8629 0.5
17 11.5146 8.35581 1.87433 0.5
18 5.86523 6.1351 4.40786 0.5
19 2.13844 7.42406 11.0869 0.5
20 0.0386391 8.58035 2.74943 0.5
21 12.0438 13.3107 2.17832 0.5
22 2.12664 5.51506 10.1894 0.5
23 8.59769 4.67711 9.88753 0.5
24 1.22045 1.22025 10.7057 0.5
25 9.90517 5.97771 5.98699 0.5
26 8.05883 8.67718 4.67256 0.5
27 9.42519 9.6559 2.90194 0.5
28 8.6644 1.38173 7.66136 0.5
29 4.22051 11.2603 12.5897 0.5
30 13.0791 4.28017 2.53636 0.5
31 8.99985 6.75072 1.60175 0.5
32 3.85119 10.251 6.53586 0.5
33 0.0703225 9.89285 0.262469 0.5
34 13.4489 4.34296 1.60365 0.5
35 5.49306 5.55244 11.9425 0.5
36 3.03102 8.90698 9.03895 0.5
37 0.569962 12.627 1.25085 0.5
38 9.69183 9.1318 10.7366 0.5
39 11.3464 7.84467 12.9185 0.5
40 0.116738 9.40857 9.17256 0.5
41 4.39656 11.0879 2.58989 0.5
42 0.111754 7.84225 0.565626 0.5
43 9.24116 9.39675 7.05221 0.5
44 9.29976 8.75662 8.6129 0.5
45 12.391 9.25865 6.98071 0.5
46 1.71165 3.86813 10.4127 0.5
47 11.952 2.33668 1.44758 0.5
48 8.36238 7.28415 7.0874 0.5
49 6.04419 9.48904 13.1335 0.5
50 1.6986 2.63961 2.58153 0.5
51 2.86106 9.91835 10.5663 0.5
52 9.89548 11.6575 4.74266 0.5
53 2.2891 11.4027 5.49983 0.5
54 12.1463 0.323751 1.81375 0.5
55 2.97695 3.16254 11.0365 0.5
56 6.06703 2.25258 12.1089 0.5
57 12.8766 6.44614 3.61082 0.5
58 4.19094 13.4961 13.0345 0.5
59 8.42461 3.03003 11.2047 0.5
60 4.9482 12.2851 6.56902 0.5
61 4.91113 11.8895 5.28904 0.5
62 5.23123 10.0907 5.07004 0.5
63 12.5396 5.9947 10.0847 0.5
64 9.25863 2.46129 8.14009 0.5
65 11.8971 7.52504 2.99822 0.5
66 4.82422 13.3508 4.91546 0.5
67 1.919 6.13416 3.52942 0.5
68 9.53507 9.25635 8.88067 0.5
69 12.743 7.4922 7.27049 0.5
70 3.74586 8.2278 3.80496 0.5
71 7.52503 6.84127 3.09296 0.5
72 10.065 2.25828 11.5364 0.5
73 0.230513 4.09876 3.56844 0.5
74 12.1941 12.8759 9.34281 0.5
75 1.0363 3.31944 2.72352 0.5
76 0.56157 12.1367 8.29044 0.5
77 10.3813 3.57929 11.497 0.5
78 7.77464 0.899268 5.64739 0.5
79 1.95065 10.9074 3.25084 0.5
80 1.3294 11.6224 5.21933 0.5
81 1.18348 1.76962 0.808549 0.5
82 6.40617 5.89816 3.29393 0.5
83 4.57696 8.18421 2.18557 0.5
84 2.15517 7.62539 10.3994 0.5
85 8.66968 10.282 2.07149 0.5
86 2.75407 12.3914 4.41064 0.5
87 10.281 9.63723 10.6111 0.5
88 5.09377 5.9113 8.97163 0.5
89 3.62889 9.1968 12.1756 0.5
90 2.03308 1.42992 9.75189 0.5
91 6.78472 4.99394 10.3946 0.5
92 10.6406 9.27567 1.32285 0.5
93 9.37766 1.4094 0.0241787 0.5
94 12.8196 12.2994 12.7877 0.5
95 4.42949 0.20553 12.7557 0.5
96 12.5962 11.1475 10.3962 0.5
97 3.78057 1.02577 1.87148 0.5
98 5.2725 12.9926 9.1024 0.5
99 10.4121 0.809479 10.9633 0.5
100 13.3273 7.17707 11.4684 0.5
101 12.2467 4.08496 4.21943 0.5
102 6.25662 8.70589 11.6767 0.5
103 10.3395 0.321202 10.9762 0.5
104 5.1124 11.1591 0.929923 0.5
105 1.91502 12.261 6.88594 0.5
106 7.84017 9.46547 11.4286 0.5
107 10.5049 11.041 3.31024 0.5
108 7.76293 8.716 4.35512 0.5
109 6.38503 1.10042 11.6906 0.5
110 2.01057 9.2047 1.80967 0.5
111 11.1404 7.96639 13.4962 0.5
112 10.4058 4.49406 8.20969 0.5
113 11.8324 8.86787 2.72006 0.5
114 3.4127 6.09554 11.8126 0.5
115 4.98071 0.617316 2.45763 0.5
116 7.02125 0.423911 2.54414 0.5
117 5.40779 13.2999 4.94161 0.5
118 5.80356 3.52283 6.48986 0.5
119 3.7572 4.36053 9.1776 0.5
120 11.6254 9.06748 12.8733 0.5
121 0.236275 3.95524 8.25103 0.5
122 4.52055 6.67733 1.91038 0.5
123 11.7497 7.61408 13.3828 0.5
124 6.43575 7.46706 7.11822 0.5
125 3.46068 12.1304 12.0319 0.5
126 8.28155 2.90921 9.13646 0.5
127 11.7005 8.76625 13.4856 0.5
128 11.6644 12.5037 3.9475 0.5
129 10.7677 1.78011 9.84924 0.5
130 4.02282 5.30919 0.0357893 0.5
131 9.77614 12.1988 7.85707 0.5
132 4.0351 5.31627 11.8076 0.5
133 9.30421 10.1319 2.29564 0.5
134 5.20604 6.6882 3.85011 0.5
135 0.346699 0.854858 5.3425 0.5
136 10.6521 10.5333 12.1417 0.5
137 12.4749 2.32137 4.01191 0.5
138 5.1363 12.7194 13.4375 0.5
139 5.85689 11.496 2.17634 0.5
140 7.15821 3.19353 2.23828 0.5
141 7.88542 5.52883 7.5453 0.5
142 9.70805 0.0318119 11.1955 0.5
143 9.07387 1.75086 0.343319 0.5
144 1.82728 10.0311 6.26557 0.5
145 12.8491 1.13817 1.55373 0.5
146 10.7286 13.321 6.86801 0.5
147 11.159 3.33513 3.049 0.5
148 10.325 8.48631 7.2351 0.5
149 2.13445 6.94499 9.32729 0.5
150 6.88511 3.24503 9.7428 0.5
151 2.11473 11.5547 5.10118 0.5
152 1.94729 11.1213 6.82382 0.5
153 5.29594 9.43573 9.87241 0.5
154 7.65625 2.77904 13.2331 0.5
155 3.22315 8.9891 9.57282 0.5
156 4.83099 5.06379 4.49884 0.5
157 1.87543 3.05907 3.43242 0.5
158 1.50507 6.09473 8.89018 0.5
159 13.1133 0.207272 10.6335 0.5
160 12.0257 4.0284 2.78078 0.5
161 0.976426 10.3534 4.18047 0.5
162 12.7493 9.10598 4.82431 0.5
163 13.3482 1.07017 1.6994 0.5
164 5.42616 1.5148 13.5227 0.5
165 13.5333 2.53267 8.36765 0.5
166 3.08798 7.39087 4.55625 0.5
167 9.22934 12.8727 1.46053 0.5
168 6.62246 6.83967 4.90284 0.5
169 3.33978 10.8305 8.60088 0.5
170 7.88558 9.25283 4.48542 0.5
171 11.4101 2.0199 11.7285 0.5
172 13.3016 4.7659 0.00366039 0.5
173 0.754415 0.294628 6.36537 0.5
174 5.52904 7.73545 0.259435 0.5
175 7.25808 11.916 4.06596 0.5
176 8.03748 12.7064 8.54805 0.5
177 1.35831 8.57345 6.83468 0.5
178 8.34022 12.6944 11.9349 0.5
179 6.80396 6.71695 5.86417 0.5
180 11.283 9.9383 6.86881 0.5
181 8.36953 3.96273 8.44694 0.5
182 12.4868 5.62726 10.0346 0.5
183 12.0866 4.88484 9.17402 0.5
184 3.22342 13.4399 11.3975 0.5
185 10.6464 4.39214 10.2398 0.5
186 5.10788 7.31014 1.68104 0.5
187 5.7538 6.1049 4.37987 0.5
188 10.2258 4.97595 2.71701 0.5
189 8.64463 0.70599 10.1139 0.5
190 9.17088 4.92416 0.4337 0.5
191 7.56464 0.456973 12.885 0.5
192 3.76784 5.74854 9.07081 0.5
193 6.36189 2.64165 4.33184 0.5
194 0.864861 5.11743 3.88008 0.5
195 0.925672 5.48824 1.57252 0.5
196 0.345603 6.69507 7.03666 0.5
197 4.06017 9.62074 12.1964 0.5
198 9.23216 0.731827 1.77836 0.5
199 5.29989 1.9391 4.03297 0.5
200 1.46265 9.1659 1.94748 0.5
201 10.1409 0.489095 6.07266 0.5
202 2.11095 1.02315 4.24443 0.5
203 8.02516 9.6225 10.3462 0.5
204 7.2362 9.8896 8.20264 0.5
205 0.0632574 5.63792 0.255084 0.5
206 8.30927 2.84329 3.43893 0.5
207 12.3156 11.5103 7.79708 0.5
208 1.89366 8.85459 7.38207 0.5
209 4.27777 1.50617 5.27628 0.5
210 7.75122 0.296406 9.53875 0.5
211 7.37413 8.47457 11.2202 0.5
212 8.22787 12.318 5.08644 0.5
213 10.4549 8.4384 11.9611 0.5
214 3.74914 5.39328 6.81689 0.5
215 11.6281 8.79941 0.896913 0.5
216 5.51706 11.3161 5.01625 0.5
217 0.152655 11.4747 6.12907 0.5
218 1.79947 11.3114 5.81664 0.5
219 4.45772 9.72269 12.38 0.5
220 8.65482 1.86212 11.4861 0.5
221 3.41293 11.0776 2.28444 0.5
222 10.4245 2.15388 11.7913 0.5
223 1.43488 0.927311 0.374671 0.5
224 2.7286 0.904021 6.09354 0.5
225 2.48552 7.05399 8.43156 0.5
226 1.13389 11.0264 7.33809 0.5
227 3.50211 7.76105 12.1725 0.5
228 8.70206 11.884 10.8048 0.5
229 6.9711 7.82467 9.32952 0.5
230 2.1925 8.9655 6.53926 0.5
231 11.2703 13.1762 3.15276 0.5
232 2.79976 13.4603 11.9489 0.5
233 2.04543 4.75381 4.5997 0.5
234 7.90089 4.98554 3.87483 0.5
235 8.4734 3.17326 6.17497 0.5
236 4.90016 1.63417 0.753458 0.5
237 7.33762 5.4363 4.32968 0.5
238 5.69501 4.90765 6.87477 0.5
239 0.535366 2.8967 8.79137 0.5
240 1.31388 11.954 10.1317 0.5
241 10.1238 2.27575 6.37129 0.5
242 7.694 3.10581 8.34103 0.5
243 5.38864 11.3439 11.7274 0.5
244 11.5155 7.87282 10.5137 0.5
245 9.4992 12.9149 13.4249 0.5
246 1.20042 8.40257 12.7857 0.5
247 1.85259 2.12766 11.4358 0.5
248 1.37157 12.7375 7.0456 0.5
249 12.2213 8.7223 10.4504 0.5
250 3.13361 13.0824 11.1298 0.5
251 8.15483 8.40868 0.801516 0.5
252 0.471416 7.61181 4.41076 0.5
253 6.48102 12.6421 11.4706 0.5
254 1.84223 11.1294 11.0693 0.5
255 8.55152 7.91913 5.39669 0.5
256 3.82278 7.48995 5.1766 0.5
257 10.2963 12.8943 11.7042 0.5
258 8.37895 6.17237 3.984 0.5
259 6.38162 0.421521 1.28307 0.5
260 6.82222 5.54611 9.03041 0.5
261 4.45604 6.26801 1.58011 0.5
262 4.83285 9.80647 2.71142 0.5
263 7.49308 4.03462 9.86282 0.5
264 7.10371 10.9252 4.59274 0.5
265 8.16229 5.65196 8.52299 0.5
266 6.89007 0.219116 7.57222 0.5
267 11.7774 12.2874 10.6583 0.5
268 5.84506 6.6015 5.48824 0.5
269 7.50243 9.09167 9.03275 0.5
270 5.37294 3.9947 1.89284 0.5
271 9.40832 2.00968 10.197 0.5
272 4.6342 5.47469 3.16338 0.5
273 4.661 0.0731419 6.46592 0.5
274 6.08426 12.3056 13.3483 0.5
275 10.6483 4.82096 6.26745 0.5
276 9.13999 12.683 2.5059 0.5
277 0.741768 3.61618 0.135983 0.5
278 9.82205 11.6078 7.55001 0.5
279 1.7625 1.31698 10.6669 0.5
280 4.05697 1.77267 2.39595 0.5
281 11.0803 7.71841 4.59709 0.5
282 12.9061 11.9573 6.75539 0.5
283 5.91669 6.82913 2.99918 0.5
284 10.1989 7.27473 7.10203 0.5
285 8.31357 2.35485 5.75558 0.5
286 9.66827 3.24135 10.7373 0.5
287 12.5479 9.29417 10.3355 0.5
288 2.22917 6.9189 5.07095 0.5
289 6.16908 7.23292 9.16244 0.5
290 2.58038 3.55747 12.8159 0.5
291 8.73663 2.31762 5.47415 0.5
292 1.9691 9.18254 1.80208 0.5
293 12.9228 2.38982 1.36846 0.5
294 0.0753713 0.850988 10.1207 0.5
295 3.33581 0.732413 1.75534 0.5
296 12.4765 0.824647 10.9959 0.5
297 5.21841 4.5543 13.2312 0.5
298 9.41916 4.23111 5.49285 0.5
299 2.19828 0.158405 8.29259 0.5
300 12.8996 9.04586 9.68693 0.5
301 10.2884 7.28627 4.31367 0.5
302 2.04037 9.65544 1.73753 0.5
303 10.1176 9.6723 3.57487 0.5
304 4.09052 2.68784 9.31102 0.5
305 9.25237 0.806886 12.261 0.5
306 8.31182 2.72729 9.43054 0.5
307 9.12643 6.96306 11.1265 0.5
308 9.90222 7.04044 12.4101 0.5
309 3.57787 11.0516 12.9474 0.5
310 10.1273 9.08159 5.92763 0.5
311 5.78528 12.8053 2.80893 0.5
312 8.40507 3.19779 4.83323 0.5
313 7.15293 12.3991 12.8198 0.5
314 1.16509 8.98125 1.8068 0.5
315 7.14441 13.3448 0.714128 0.5
316 8.56284 4.73884 3.81344 0.5
317 5.34344 4.59642 1.78069 0.5
318 5.38739 11.1436 11.596 0.5
319 9.47653 6.83503 11.096 0.5
320 11.0922 2.48827 7.95176 0.5
321 8.24544 11.8648 0.295679 0.5
322 1.95329 1.5903 0.186869 0.5
323 4.33296 1.70779 1.32869 0.5
324 8.93363 0.562603 5.85416 0.5
325 11.4204 5.39983 12.7172 0.5
326 4.1736 11.2777 5.03634 0.5
327 12.9433 12.1261 10.3907 0.5
328 4.49646 8.8725 0.834528 0.5
329 1.8575 10.1596 3.7729 0.5
330 10.4112 1.54793 5.28255 0.5
331 5.96723 3.79606 7.56356 0.5
332 8.83868 3.45366 6.89194 0.5
333 1.19201 11.1176 9.68818 0.5
334 8.45774 5.35631 6.23133 0.5
335 5.03977 3.63535 6.30503 0.5
336 3.66685 5.1514 1.00998 0.5
337 0.566506 8.88426 7.8854 0.5
338 6.62263 10.9766 12.2354 0.5
339 12.533 3.33828 12.8648 0.5
340 9.66538 10.0557 0.481294 0.5
341 4.65571 5.07563 0.636641 0.5
342 2.87492 7.13187 11.3432 0.5
343 0.716702 6.28004 2.66946 0.5
344 2.21545 6.01715 6.42808 0.5
345 6.31881 2.54674 9.39387 0.5
346 9.85151 1.33586 13.3717 0.5
347 6.86351 0.601596 1.01393 0.5
348 12.197 8.42252 10.8929 0.5
349 1.12209 3.23412 10.3163 0.5
350 9.15715 1.5945 12.9666 0.5
351 4.18199 7.44344 8.42486 0.5
352 7.9747 4.90536 7.80998 0.5
353 7.5425 2.40846 7.49061 0.5
354 0.76619 12.8166 5.65818 0.5
355 2.64641 3.76356 10.6367 0.5
356 10.0356 11.8837 6.67501 0.5
357 0.846598 3.37732 0.963205 0.5
358 6.75085 8.89949 5.49205 0.5
359 11.3572 5.67124 0.188886 0.5
360 12.2905 10.3625 12.2893 0.5
361 3.16182 5.74787 10.2001 0.5
362 3.52739 9.14799 5.18852 0.5
363 5.98947 0.847675 5.70037 0.5
364 5.06699 10.2809 9.65698 0.5
365 7.61094 11.6308 11.7366 0.5
366 12.1302 1.00588 0.93902 0.5
367 10.9213 7.11322 4.00515 0.5
368 11.4753 4.75346 7.88247 0.5
369 3.31808 13.0792 4.94546 0.5
370 0.247333 4.432 7.73992 0.5
371 7.02534 6.8385 3.03239 0.5
372 10.3826 4.5869 3.7427 0.5
373 0.747002 6.82511 0.0338195 0.5
374 1.16207 11.4153 6.39095 0.5
375 7.5622 9.27171 4.56405 0.5
376 4.89909 1.23687 9.92398 0.5
377 1.64849 7.11724 8.0245 0.5
378 0.864318 0.0160986 11.1304 0.5
379 0.918396 6.53193 13.5392 0.5
380 5.46787 6.84959 7.99269 0.5
381 9.4627 4.39521 6.88303 0.5
382 5.25211 8.72137 5.60645 0.5
383 4.59664 13.3285 7.2419 0.5
384 12.359 9.98745 7.00313 0.5
385 7.23494 10.6842 7.8938 0.5
386 1.96881 2.36582 1.96424 0.5
387 13.3123 10.0801 8.90767 0.5
388 0.172686 7.42521 8.0562 0.5
389 10.8048 5.77558 2.7748 0.5
390 8.63872 4.99357 6.44751 0.5
391 2.09213 8.6446 0.95313 0.5
392 5.83289 11.845 5.35328 0.5
393 11.956 8.1216 0.325098 0.5
394 10.3533 4.36506 0.339284 0.5
395 7.55838 8.94379 6.15933 0.5
396 3.05909 2.83015 6.1086 0.5
397 7.77152 3.23963 11.2104 0.5
398 1.92775 2.4439 8.75714 0.5
399 9.4781 8.07492 11.008 0.5
400 10.3688 0.333355 5.44536 0.5
401 12.389 6.02167 3.23315 0.5
402 0.993645 9.06545 7.49864 0.5
403 2.96536 4.47909 2.66964 0.5
404 0.566146 9.43971 12.712 0.5
405 6.77486 8.18494 0.805533 0.5
406 10.1737 2.65293 3.30487 0.5
407 9.75978 3.01354 5.08683 0.5
408 4.14974 5.20658 12.7052 0.5
409 0.234666 0.413409 8.5517 0.5
410 6.24507 2.05794 1.46343 0.5
411 3.49525 7.92475 9.24327 0.5
412 9.71853 10.285 5.17112 0.5
413 12.2405 6.15699 12.4616 0.5
414 3.7403 13.2286 10.667 0.5
415 12.3233 7.49363 7.23457 0.5
416 7.5115 6.9944 8.39156 0.5
417 8.32228 0.991504 12.6062 0.5
418 1.2989 5.04413 7.25988 0.5
419 1.40613 1.70583 12.277 0.5
420 0.533103 0.150895 7.35762 0.5
421 7.10174 5.01148 1.76555 0.5
422 2.26487 1.32977 5.93358 0.5
423 8.9039 4.25228 5.58421 0.5
424 11.7698 5.29872 9.3668 0.5
425 0.91473 6.36756 13.1816 0.5
426 9.25995 4.11442 8.20103 0.5
427 0.414296 10.136 6.22256 0.5
428 12.3286 4.09922 5.06236 0.5
429 13.0516 7.98046 2.38064 0.5
430 0.857106 3.57327 11.16 0.5
431 10.4048 7.68941 2.78873 0.5
432 12.0225 2.62801 9.89724 0.5
433 8.35732 2.6981 12.455 0.5
434 12.6016 4.97235 11.5887 0.5
435 9.58402 3.35496 1.107 0.5
436 12.5288 9.22229 2.15219 0.5
437 13.4402 3.11359 11.584 0.5
438 0.18165 12.8881 5.05098 0.5
439 6.9944 5.53476 12.1105 0.5
440 1.10983 12.2066 7.54479 0.5
441 13.4521 12.1812 11.9279 0.5
442 0.953864 9.90838 6.38372 0.5
443 12.9546 10.8216 9.17616 0.5
444 11.7134 5.46083 0.750717 0.5
445 5.62562 9.05218 5.77791 0.5
446 9.16433 12.8232 5.98045 0.5
447 13.5343 11.3753 9.06456 0.5
448 12.2398 0.0365095 6.24672 0.5
449 3.04065 11.7701 6.86143 0.5
450 10.0263 11.6619 4.98929 0.5
451 6.43504 2.04913 10.0167 0.5
452 0.143692 2.87071 9.87269 0.5
453 10.9611 9.76576 6.44639 0.5
454 11.3437 8.31362 8.28901 0.5
455 0.835105 1.36253 0.980452 0.5
456 7.40252 9.37999 6.33523 0.5
457 6.5455 12.402 12.9791 0.5
458 4.48509 3.93702 1.97459 0.5
459 6.10474 4.80581 0.133607 0.5
460 7.16941 9.49658 0.223357 0.5
461 2.88386 3.17186 6.712 0.5
462 2.71288 3.7852 5.9074 0.5
463 2.98346 12.2323 1.14294 0.5
464 10.5645 9.77737 9.79557 0.5
465 13.5412 6.60728 6.15089 0.5
466 5.89895 1.67957 9.0668 0.5
467 5.39356 9.49895 4.90987 0.5
468 6.337 1.25712 9.00674 0.5
469 4.75368 12.8483 5.20584 0.5
470 6.62608 2.84773 5.90046 0.5
471 1.41744 4.51239 12.3035 0.5
472 5.23746 5.21254 11.2548 0.5
473 12.3893 1.37202 10.5519 0.5
474 6.48246 6.93704 5.88891 0.5
475 11.6431 5.50306 11.8594 0.5
476 8.95397 10.5698 12.7453 0.5
477 3.3933 2.0124 8.10282 0.5
478 6.85769 1.39789 6.03042 0.5
479 12.3378 13.5136 9.18012 0.5
480 6.63791 8.05531 0.989322 0.5
481 0.988772 13.1264 0.609337 0.5
482 2.45945 9.22694 10.6269 0.5
483 5.7171 8.6374 0.666516 0.5
484 3.55526 11.691 10.2732 0.5
485 9.1897 3.53454 9.43893 0.5
486 1.50912 2.71098 1.11984 0.5
487 1.47181 10.9361 10.3404 0.5
488 13.1724 10.4757 1.06971 0.5
489 12.8766 0.781 11.9142 0.5
490 12.7757 4.32414 13.1734 0.5
491 1.16702 12.5203 2.7738 0.5
492 7.78293 6.28054 4.09424 0.5
493 6.31582 13.1411 2.45569 0.5
494 3.29979 4.26677 3.19415 0.5
495 1.40975 2.59347 4.26774 0.5
496 2.13855 4.08394 9.46452 0.5
497 3.04662 10.7888 3.15899 0.5
498 0.657354 9.33271 5.09154 0.5
499 3.14471 13.2911 8.5299 0.5
500 5.16018 8.57482 13.1395 0.5
501 2.67809 9.63843 6.37155 0.5
502 7.36856 2.21892 9.1969 0.5
503 3.79842 10.5035 10.4199 0.5
504 0.317046 9.63495 2.03751 0.5
505 5.13829 11.9223 4.48276 0.5
506 12.0367 12.4019 9.00747 0.5
507 2.3159 11.2361 10.0166 0.5
508 7.5621 13.1689 1.88659 0.5
509 4.87648 1.35769 2.20847 0.5
510 11.3843 4.53362 7.63663 0.5
511 5.4866 5.92804 4.40032 0.5
512 12.1267 2.34513 0.243623 0.5
513 2.73142 9.03594 1.00497 0.5
514 5.37096 0.573971 2.98719 0.5
515 11.9729 3.3402 7.27381 0.5
516 2.01724 4.55091 12.109 0.5
517 9.07634 11.5009 1.73082 0.5
518 12.549 11.9434 0.54732 0.5
519 0.584567 1.32733 4.58887 0.5
520 1.25891 12.1323 4.12917 0.5
521 8.74836 13.2476 11.7105 0.5
522 8.52811 4.63192 12.8249 0.5
523 5.27655 3.34232 7.48174 0.5
524 8.17074 6.65019 4.74927 0.5
525 11.8677 2.94164 11.7454 0.5
526 7.16716 11.3528 11.2027 0.5
527 12.2232 3.66441 8.27246 0.5
528 6.07101 2.02304 8.30748 0.5
529 10.6097 9.9563 13.5007 0.5
530 5.29935 6.29973 9.71134 0.5
531 0.174179 13.103 1.67953 0.5
532 11.7207 8.16559 12.0551 0.5
533 6.99869 0.749659 10.4342 0.5
534 0.583858 5.70114 8.52635 0.5
535 5.86008 1.02638 4.45237 0.5
536 2.69433 5.00235 1.16358 0.5
537 3.10594 13.3422 8.13503 0.5
538 3.16667 1.31857 2.66334 0.5
539 13.5035 1.83009 9.07081 0.5
540 7.55341 8.02794 5.39495 0.5
541 4.58456 7.32647 12.9579 0.5
542 12.1871 0.124333 1.86932 0.5
543 11.8611 13.1249 5.43705 0.5
544 11.0782 11.2146 2.2717 0.5
545 1.68646 4.67056 5.21226 0.5
546 1.87945 3.47273 6.36105 0.5
547 5.57455 4.51923 12.1604 0.5
548 7.07877 10.183 4.2586 0.5
549 13.4833 9.14273 7.6897 0.5
550 12.0515 1.77864 3.18381 0.5
551 9.1011 7.01911 0.895653 0.5
552 6.14624 13.484 4.49883 0.5
553 1.95823 13.0585 9.58741 0.5
554 11.0936 5.6264 11.4175 0.5
555 8.13452 11.0332 12.9256 0.5
556 11.7018 4.88283 7.29922 0.5
557 3.38041 9.25754 4.36001 0.5
558 8.88369 13.3614 9.9224 0.5
559 1.29944 12.9045 5.7406 0.5
560 6.40688 10.2327 1.69555 0.5
561 7.84619 7.40278 7.86604 0.5
562 7.06744 1.61048 9.33737 0.5
563 3.68297 12.2017 4.10934 0.5
564 5.87384 6.28756 11.6119 0.5
565 3.9527 1.33293 4.86681 0.5
566 1.16448 3.78802 4.29979 0.5
567 1.27545 11.7958 8.07593 0.5
568 8.14515 2.65129 3.46124 0.5
569 10.4627 5.13501 6.36243 0.5
570 9.34097 11.1252 7.29891 0.5
571 5.29416 12.3367 8.46821 0.5
572 10.5999 1.45246 5.30632 0.5
573 9.16865 12.7557 10.3636 0.5
574 5.91005 0.768082 4.24321 0.5
575 11.3944 4.89647 5.94721 0.5
576 7.67765 6.84515 4.7433 0.5
577 6.39272 2.39995 12.754 0.5
578 0.915475 10.0154 13.5244 0.5
579 3.5738 4.7158 7.48766 0.5
580 7.34161 1.45857 8.11933 0.5
581 12.3768 11.6811 4.19065 0.5
582 9.93299 3.92464 9.00152 0.5
583 3.79576 2.22126 3.72177 0.5
584 12.755 2.84435 4.1917 0.5
585 2.63246 10.4075 2.53841 0.5
586 10.9727 6.86588 3.69536 0.5
587 5.95838 4.34528 0.099545 0.5
588 0.797888 13.0744 12.9413 0.5
589 5.03766 11.6637 10.2562 0.5
590 9.30078 7.62627 0.839086 0.5
591 7.41005 13.1006 2.18085 0.5
592 10.7472 13.4151 3.18993 0.5
593 2.76109 8.0334 4.61754 0.5
594 13.4845 0.40749 9.62045 0.5
595 0.502938 6.57892 12.6751 0.5
596 7.90886 10.9197 2.75338 0.5
597 9.49108 11.763 12.5053 0.5
598 1.75179 4.82214 5.91881 0.5
599 1.53348 9.9458 12.7215 0.5
600 6.20707 7.87258 9.08318 0.5
601 3.5286 4.25984 10.9322 0.5
602 4.94206 11.1203 3.12326 0.5
603 1.16799 13.311 2.31808 0.5
604 0.661922 7.19564 10.6019 0.5
605 6.0227 4.28551 9.24654 0.5
606 5.90315 5.05497 9.56322 0.5
607 11.5654 5.03141 2.31498 0.5
608 10.659 12.4981 3.30117 0.5
609 3.12265 3.05906 12.4803 0.5
610 0.651973 11.2695 5.52672 0.5
611 4.8192 3.93923 3.32128 0.5
612 1.07421 6.38264 13.5058 0.5
613 7.77821 0.381606 2.40871 0.5
614 5.60416 2.24665 3.56557 0.5
615 0.0694162 4.00976 2.30575 0.5
616 6.40753 11.5165 7.09102 0.5
617 0.965067 0.330977 11.6794 0.5
618 0.441635 11.755 1.01485 0.5
619 3.86705 11.632 0.272898 0.5
620 9.52257 1.9891 10.8324 0.5
621 1.35731 6.14092 7.1915 0.5
622 1.63089 8.04535 4.60585 0.5
623 6.08542 12.4842 10.4927 0.5
624 9.50088 9.75424 4.7767 0.5
625 10.9552 2.83085 5.63923 0.5
626 0.815239 6.15182 12.083 0.5
627 8.55326 12.9354 6.29198 0.5
628 1.64524 2.50764 11.7365 0.5
629 9.09895 5.92299 3.62429 0.5
630 2.61961 4.27299 10.5499 0.5
631 6.57066 9.52713 9.70507 0.5
632 11.9118 6.61264 8.48931 0.5
633 13.2055 1.87164 4.58167 0.5
634 12.9003 1.02422 7.89888 0.5
635 2.80756 3.05444 7.74022 0.5
636 0.125551 12.604 11.6089 0.5
637 12.787 7.34414 1.02372 0.5
638 3.83556 4.71011 10.3517 0.5
639 8.25816 9.24282 11.1691 0.5
640 2.90282 7.28302 2.43963 0.5
641 8.68625 1.77698 11.1248 0.5
642 6.28155 11.2133 0.709542 0.5
643 4.85078 13.0979 8.57106 0.5
644 2.93246 0.835698 0.800842 0.5
645 12.8702 9.02883 12.3754 0.5
646 8.84954 2.69448 10.616 0.5
647 2.19807 4.63831 12.0955 0.5
648 7.59106 5.39429 11.7755 0.5
649 2.78327 13.376 10.3803 0.5
650 0.937585 13.4584 2.22864 0.5
651 5.10204 8.94379 5.83114 0.5
652 5.45553 8.59152 3.07363 0.5
653 2.47717 0.738063 5.49862 0.5
654 7.43427 7.76583 4.99023 0.5
655 5.31331 5.78147 9.97503 0.5
656 5.08512 11.6419 0.347785 0.5
657 9.97155 7.64184 13.2803 0.5
658 1.87143 13.1994 2.54706 0.5
659 0.287965 2.83778 7.45928 0.5
660 5.27153 5.25425 2.15453 0.5
661 5.61112 12.305 2.24726 0.5
662 7.00096 11.668 0.324608 0.5
663 8.61757 10.9802 9.75055 0.5
664 12.3191 9.40112 6.9755 0.5
665 10.5134 12.2001 3.84955 0.5
666 13.2417 13.1453 9.10715 0.5
667 11.6076 9.09536 6.19252 0.5
668 11.0167 1.19786 8.77897 0.5
669 4.43452 2.60255 2.1753 0.5
670 10.6609 9.16374 1.20241 0.5
671 0.848404 6.6093 11.3731 0.5
672 13.3628 13.5437 12.1074 0.5
673 12.5545 5.9391 12.3986 0.5
674 3.64142 1.19129 12.3237 0.5
675 4.63157 7.49838 5.31767 0.5
676 0.295008 6.86747 1.87727 0.5
677 4.76122 9.14249 11.3482 0.5
678 4.63328 5.3209 0.774344 0.5
679 3.38211 6.89637 0.76669 0.5
680 4.59871 7.95235 6.25836 0.5
681 5.48256 3.90495 5.76274 0.5
682 7.05019 10.7496 1.27768 0.5
683 2.44397 5.43011 11.1269 0.5
684 0.994322 11.8556 1.29916 0.5
685 8.62454 8.50932 11.188 0.5
686 1.15565 11.0028 10.1337 0.5
687 0.0695997 0.054204 1.30944 0.5
688 5.50676 6.28287 11.4975 0.5
689 1.7745 11.3382 3.07231 0.5
690 3.37659 8.91359 13.3251 0.5
691 1.78672 1.33567 12.3065 0.5
692 1.84924 10.6025 2.19414 0.5
693 11.7453 2.51887 12.8637 0.5
694 2.41967 3.48132 12.0648 0.5
695 11.7669 8.53753 0.877937 0.5
696 13.3217 5.59682 9.40987 0.5
697 9.06811 5.38122 7.33212 0.5
698 0.437926 13.1306 5.25794 0.5
699 12.7651 7.03543 8.07193 0.5
700 2.08315 12.0007 11.4549 0.5
701 8.46463 4.43702 0.680836 0.5
702 5.14368 5.91316 4.8456 0.5
703 5.21249 5.21125 6.47522 0.5
704 3.17005 9.06073 0.875247 0.5
705 5.35802 0.704763 0.279133 0.5
706 1.47699 8.3252 0.484768 0.5
707 6.85515 6.39281 4.97028 0.5
708 0.375265 8.26607 6.41689 0.5
709 11.3238 1.33558 1.82077 0.5
710 7.25165 1.02644 1.30099 0.5
711 7.2409 11.9894 8.68909 0.5
712 5.50484 10.0222 13.0217 0.5
713 8.48878 9.52739 2.78195 0.5
714 3.56277 3.03632 6.82476 0.5
715 11.9268 7.88012 4.06844 0.5
716 8.15932 7.53077 5.59951 0.5
717 0.269327 8.97978 6.91876 0.5
718 11.3737 7.95049 10.926 0.5
719 8.87414 4.30289 13.557 0.5
720 8.92434 1.11549 5.96779 0.5
721 9.73636 2.9143 5.0614 0.5
722 4.27087 0.731349 11.4079 0.5
723 11.2884 8.73388 1.49374 0.5
724 1.36507 3.42957 5.65715 0.5
725 8.47455 9.42088 0.702106 0.5
726 13.1429 3.35552 5.35862 0.5
727 5.47761 9.83601 3.454 0.5
728 5.28463 8.02485 6.26266 0.5
729 11.4183 3.04995 10.6815 0.5
730 12.8347 0.382384 7.39603 0.5
731 7.30149 2.90503 7.82405 0.5
732 5.12158 4.39966 7.98274 0.5
733 7.39976 5.18909 5.17505 0.5
734 8.04393 4.09985 12.4519 0.5
735 8.79297 3.95992 1.12213 0.5
736 1.17188 6.15434 13.5721 0.5
737 10.5209 0.603456 4.28922 0.5
738 9.83485 12.0904 1.50683 0.5
739 9.47619 3.37682 12.7709 0.5
740 12.5175 8.42326 12.2704 0.5
741 0.0640462 11.6141 7.51733 0.5
742 13.1636 5.60601 5.43258 0.5
743 7.20804 12.6259 8.10364 0.5
744 3.18125 0.04962 8.00423 0.5
745 5.19358 12.9776 1.82302 0.5
746 4.97837 6.11891 7.63228 0.5
747 9.35375 4.82173 13.1861 0.5
748 4.4076 6.09471 4.26998 0.5
749 0.712035 2.94125 3.10126 0.5
750 6.08526 13.0246 9.95166 0.5
751 9.55088 9.16382 4.42769 0.5
752 6.63199 5.0121 10.2187 0.5
753 7.59239 12.7391 0.926344 0.5
754 6.5694 6.77559 2.21216 0.5
755 6.63765 0.0407802 1.3234 0.5
756 5.76177 1.15108 0.174357 0.5
757 5.58635 4.67247 0.470592 0.5
758 7.19646 5.3793 5.28855 0.5
759 4.81871 6.05745 12.4994 0.5
760 6.17514 13.204 8.31738 0.5
761 2.90803 8.18795 7.60572 0.5
762 11.5987 1.4277 10.6999 0.5
763 2.44401 9.59392 7.10922 0.5
764 8.19252 7.1379 2.13843 0.5
765 0.676056 9.62938 5.20299 0.5
766 9.11652 9.58216 7.1966 0.5
767 5.28808 5.55686 10.9428 0.5
768 0.266152 10.8075 6.13943 0.5
769 13.3431 10.1976 1.14348 0.5
770 10.1263 10.8424 4.94008 0.5
771 6.66226 8.25837 8.55472 0.5
772 6.75978 2.60572 1.88024 0.5
773 13.5329 5.3504 12.012 0.5
774 11.7455 3.06376 1.39933 0.5
775 11.966 12.66 9.22136 0.5
776 10.4041 6.15666 4.57635 0.5
777 7.82105 10.569 11.4811 0.5
778 12.2123 1.13686 10.6832 0.5
779 9.1603 5.39353 5.71445 0.5
780 4.33362 1.55319 11.4422 0.5
781 4.04762 5.5199 1.88197 0.5
782 3.32693 3.61283 10.3145 0.5
783 12.3963 3.5538 1.9767 0.5
784 11.7307 4.56941 12.4386 0.5
785 5.14851 11.7993 2.72479 0.5
786 13.1771 7.60363 0.899948 0.5
787 9.6129 1.33232 3.52676 0.5
788 12.358 3.8238 12.5983 0.5
789 9.89602 0.299992 11.3429 0.5
790 0.509925 0.859427 10.5379 0.5
791 7.30786 1.9283 7.82056 0.5
792 8.59208 11.8624 12.7418 0.5
793 9.33822 10.162 12.104 0.5
794 12.2886 0.700505 9.11261 0.5
795 13.3822 6.57594 5.35889 0.5
796 7.08377 8.26388 7.08647 0.5
797 3.17075 3.51609 4.85756 0.5
798 8.60449 10.0474 5.65041 0.5
799 0.61761 11.0671 9.30281 0.5
800 9.36782 7.70368 5.75792 0.5
801 7.06002 7.03532 2.3046 0.5
802 8.22718 0.46754 11.1834 0.5
803 2.21535 13.5196 5.08954 0.5
804 13.1547 12.263 0.12933 0.5
805 12.8346 0.82954 10.7014 0.5
806 12.9497 9.17395 4.12878 0.5
807 12.2806 3.8954 9.91081 0.5
808 13.2783 6.60758 8.41189 0.5
809 0.523724 1.51655 0.519791 0.5
810 9.85123 1.30069 8.20616 0.5
811 4.84354 5.59415 10.4203 0.5
812 11.9688 5.94262 2.83857 0.5
813 10.2517 10.2163 8.74976 0.5
814 8.64394 5.14187 5.33311 0.5
815 0.357835 11.4284 10.6347 0.5
816 11.4031 8.42158 8.31252 0.5
817 11.3967 8.48884 8.48169 0.5
818 8.80381 1.9406 12.9857 0.5
819 3.04666 3.07679 11.1122 0.5
820 9.58626 2.82825 11.4291 0.5
821 5.98279 10.6526 3.657 0.5
822 7.93707 6.18346 12.3433 0.5
823 2.66226 1.1435 4.29567 0.5
824 3.33219 4.24194 1.73366 0.5
825 0.253638 9.62336 11.8967 0.5
826 10.6169 6.93751 4.92121 0.5
827 10.7629 0.513184 11.2443 0.5
828 9.38474 4.43601 10.3038 0.5
829 3.76722 4.53585 9.21618 0.5
830 11.6106 2.78392 8.00778 0.5
831 12.9377 6.65926 3.16084 0.5
832 9.68723 10.3959 3.82974 0.5
833 10.6524 2.2547 0.0691585 0.5
834 9.60191 5.88246 8.64613 0.5
835 13.3349 1.74186 1.51664 0.5
836 7.23793 2.09257 8.45365 0.5
837 6.15971 12.4963 13.0019 0.5
838 0.0745506 3.41252 10.3085 0.5
839 12.2403 12.1545 12.369 0.5
840 1.53488 5.44523 0.506989 0.5
841 9.07695 13.545 7.56116 0.5
842 9.33576 5.33863 7.82195 0.5
843 2.25514 7.36558 9.46546 0.5
844 0.959794 1.36304 0.461417 0.5
845 4.76393 8.90545 5.77838 0.5
846 10.1899 3.9269 2.65236 0.5
847 0.343838 2.11302 7.9974 0.5
848 8.66514 8.2396 5.49922 0.5
849 2.73912 11.4209 6.61744 0.5
850 6.46619 0.33902 10.4832 0.5
851 13.56 6.80584 11.2166 0.5
852 10.5278 6.15728 12.9106 0.5
853 5.58347 7.7248 1.09677 0.5
854 2.59517 9.6437 4.50089 0.5
855 10.0128 8.90145 9.07628 0.5
856 10.1014 5.23832 11.9579 0.5
857 3.31396 3.17425 6.3415 0.5
858 13.294 5.55159 9.4015 0.5
859 10.9837 11.047 10.8061 0.5
860 8.06272 12.4796 1.50512 0.5
861 3.12876 9.58969 10.6138 0.5
862 12.1806 4.78409 13.172 0.5
863 1.77192 3.47432 11.9343 0.5
864 8.00744 10.7083 12.5776 0.5
865 2.43504 11.4721 0.775146 0.5
866 1.49611 0.973554 13.5757 0.5
867 9.15083 6.30713 10.1343 0.5
868 11.547 9.49965 9.43061 0.5
869 5.05364 10.6736 9.40198 0.5
870 12.3824 4.83853 10.4332 0.5
871 2.19208 10.9043 5.06457 0.5
872 13.0657 5.3073 12.9962 0.5
873 3.9563 2.90719 9.96387 0.5
874 9.85825 1.30671 11.7342 0.5
875 4.83905 6.53045 11.0082 0.5
876 12.4379 4.80301 0.707838 0.5
877 11.1031 12.4651 1.38432 0.5
878 12.3719 4.41192 1.73034 0.5
879 9.30523 5.80736 10.9972 0.5
880 10.7423 0.839731 9.50929 0.5
881 10.763 7.84246 4.65271 0.5
882 0.596965 10.8326 0.836459 0.5
883 10.7626 8.73852 7.39131 0.5
884 3.95628 6.43385 11.5094 0.5
885 1.77147 8.91544 4.69175 0.5
886 3.71916 0.954831 1.17253 0.5
887 8.26607 1.35473 3.79999 0.5
888 5.96902 5.22469 13.3943 0.5
889 8.64275 12.8153 10.6949 0.5
890 7.40256 9.48214 6.96029 0.5
891 5.35132 9.06212 5.23772 0.5
892 2.99529 11.9129 9.82115 0.5
893 4.29172 6.64739 0.287718 0.5
894 8.03243 6.25826 1.03949 0.5
895 4.4841 11.9901 10.4225 0.5
896 12.9383 6.37807 10.9908 0.5
897 10.3644 12.8085 5.86615 0.5
898 6.43564 3.4475 1.84768 0.5
899 0.140018 2.22813 12.6135 0.5
900 8.17438 9.10561 11.8567 0.5
901 5.21373 9.60063 2.78178 0.5
902 6.13356 10.4872 3.07586 0.5
903 6.97381 12.4063 11.2444 0.5
904 5.64382 5.02343 8.97497 0.5
905 4.50681 11.4041 6.29247 0.5
906 12.8157 5.58922 1.15164 0.5
907 0.263665 7.40229 12.6183 0.5
908 8.11184 7.98878 3.1349 0.5
909 4.1762 1.47426 3.22345 0.5
910 0.302468 10.9835 8.99077 0.5
911 9.99299 2.46633 7.95524 0.5
912 1.67694 10.0155 2.27202 0.5
913 9.27389 9.27418 3.53038 0.5
914 3.46698 6.73004 4.97075 0.5
915 1.543 2.46555 12.3741 0.5
916 13.3462 0.252608 6.8398 0.5
917 9.05029 0.153769 11.038 0.5
918 5.84845 9.61148 10.0456 0.5
919 5.68513 0.482895 4.24103 0.5
920 5.20033 0.446833 12.0809 0.5
921 2.09319 0.625673 2.42418 0.5
922 7.20873 3.46199 12.8228 0.5
923 7.6493 3.64634 2.79711 0.5
924 9.05529 6.43151 11.2974 0.5
925 12.9497 0.188407 11.7353 0.5
926 1.10283 3.32995 3.66079 0.5
927 0.0517542 12.2774 0.194357 0.5
928 5.59816 8.26938 5.40869 0.5
929 1.95868 11.9538 9.96284 0.5
930 4.28098 0.669754 7.83066 0.5
931 8.40165 4.25353 12.7741 0.5
932 11.2366 2.95387 12.4812 0.5
933 2.07267 5.38258 0.617089 0.5