LAMMPS Description

50 atoms

2 atom types
0 3.815714 xlo xhi
0 3.815714 ylo yhi
0 3.815714 zlo zhi

PairIJ Coeffs

1 1 morse 0.5 1 1 2
1 2 morse 0.5 1 0.75 1.5
2 2 morse 0.5 1 0.5 1

Atoms # sphere

1 2 0.5 2.35 2.20156 1.46138 0.670553
2 2 0.5 2.35 0.941184 0.987584 2.60086
3 1 1 2.35 3.57754 3.17615 0.144071
4 2 0.5 2.35 2.63096 2.45405 3.48864
5 2 0.5 2.35 1.56948 2.14871 2.10563
6 2 0.5 2.35 1.51771 0.885559 2.07548
7 2 0.5 2.35 0.48117 0.427351 1.29446
8 2 0.5 2.35 0.532263 2.48174 3.64243
9 2 0.5 2.35 3.55748 0.0164919 2.34685
10 2 0.5 2.35 3.53644 3.74927 3.07862
11 2 0.5 2.35 3.64996 2.7794 2.56206
12 2 0.5 2.35 0.492039 3.5692 0.192212
13 2 0.5 2.35 3.09743 0.37834 1.78462
14 2 0.5 2.35 3.00809 1.33592 0.180953
15 2 0.5 2.35 1.3724 2.41785 1.92754
16 2 0.5 2.35 0.413617 1.60463 0.83976
17 2 0.5 2.35 3.51504 3.17636 0.438186
18 2 0.5 2.35 0.779916 2.94794 2.93573
19 2 0.5 2.35 1.17152 0.0875883 1.26384
20 2 0.5 2.35 1.61315 2.94478 0.0164271
21 1 1 2.35 2.56337 0.185777 2.37222
22 2 0.5 2.35 3.25265 3.27684 2.59539
23 2 0.5 2.35 2.40273 1.79579 1.44102
24 2 0.5 2.35 0.374248 2.12577 0.73169
25 2 0.5 2.35 2.87968 1.82918 1.64523
26 2 0.5 2.35 1.21033 2.02902 3.81071
27 2 0.5 2.35 2.62493 2.19312 3.47386
28 2 0.5 2.35 0.48259 0.650771 0.826571
29 2 0.5 2.35 3.07213 0.93075 2.52267
30 2 0.5 2.35 0.0792005 2.73962 2.25285
31 2 0.5 2.35 0.623766 3.1366 1.65
32 2 0.5 2.35 3.76435 1.36034 0.993454
33 2 0.5 2.35 1.47129 1.53974 0.136745
34 2 0.5 2.35 2.20032 0.59118 0.105163
35 1 1 2.35 0.109029 0.368475 0.330171
36 2 0.5 2.35 0.303032 2.48846 3.74661
37 2 0.5 2.35 1.78344 0.999229 3.32457
38 1 1 2.35 0.749842 3.77344 2.16366
39 2 0.5 2.35 2.30097 3.62301 3.73692
40 2 0.5 2.35 1.60153 0.997601 0.0542013
41 2 0.5 2.35 1.92512 2.20887 3.00664
42 2 0.5 2.35 3.7739 1.76615 2.49983
43 1 1 2.35 2.42257 3.03787 1.63867
44 2 0.5 2.35 0.333911 2.72439 3.69876
45 2 0.5 2.35 1.59997 0.467435 2.72609
46 2 0.5 2.35 0.547871 0.940758 2.8398
47 2 0.5 2.35 3.42825 0.604288 2.79033
48 1 1 2.35 1.04905 1.42907 3.50716
49 2 0.5 2.35 0.87218 1.74827 3.28889
50 2 0.5 2.35 1.52761 1.6047 3.32961
