ITEM: TIMESTEP
50000
ITEM: NUMBER OF ATOMS
50
ITEM: BOX BOUNDS xy xz yz pp pp pp
0.0000000000000000e+00 3.9685030000000001e+00 0.0000000000000000e+00
0.0000000000000000e+00 3.9685030000000001e+00 0.0000000000000000e+00
0.0000000000000000e+00 3.9685030000000001e+00 0.0000000000000000e+00
ITEM: ATOMS id x y z radius
1 1.00215 0.299393 3.93361 0.5
2 2.23338 2.58731 3.79056 0.5
3 1.80316 3.56475 2.82902 0.5
4 2.24349 2.35937 1.15708 0.5
5 0.781191 2.73365 1.96199 0.5
6 3.30116 1.78142 2.16717 0.5
7 0.118564 0.00636703 0.136974 0.5
8 1.90928 2.75787 2.72542 0.5
9 1.61885 3.21861 0.94887 0.5
10 1.50328 1.16112 1.3531 0.5
11 1.17443 0.174709 3.09109 0.5
12 0.10193 3.05827 3.48747 0.5
13 0.824254 0.909264 0.509701 0.5
14 3.43258 2.02084 2.87445 0.5
15 1.506 2.18758 3.53269 0.5
16 1.83649 2.75745 0.321392 0.5
17 3.80435 0.764668 2.44241 0.5
18 1.12612 0.474376 1.87029 0.5
19 2.99851 3.17587 0.0563793 0.5
20 2.32315 1.87065 2.26108 0.5
21 2.3809 3.78102 0.532173 0.5
22 1.54798 0.514863 0.5292 0.5
23 1.69701 3.54912 3.69521 0.5
24 3.09514 0.361092 1.90031 0.5
25 0.0934901 0.19721 3.25718 0.5
26 3.61486 2.42704 1.29127 0.5
27 1.21091 2.11165 2.41401 0.5
28 0.450419 2.043 1.17763 0.5
29 2.97657 0.613565 0.920031 0.5
30 1.95011 0.135734 1.46136 0.5
31 3.93019 2.25232 2.34935 0.5
32 1.49774 1.13857 2.55424 0.5
33 2.01758 1.72449 3.25187 0.5
34 3.9579 0.600587 1.50945 0.5
35 3.12468 3.84966 2.73156 0.5
36 0.693799 2.01176 3.96204 0.5
37 3.30485 2.02959 0.52558 0.5
38 3.82398 1.54275 3.69293 0.5
39 0.722795 0.0292434 2.42042 0.5
40 0.811958 3.47219 0.401934 0.5
41 1.25759 1.8253 1.56492 0.5
42 1.61839 1.92878 0.620863 0.5
43 3.31359 3.82035 1.01739 0.5
44 0.573313 1.21813 2.67286 0.5
45 0.572235 2.04743 3.12782 0.5
46 1.11437 3.96859 1.11394 0.5
47 2.97675 2.86954 2.15531 0.5
48 0.870038 3.50198 3.43969 0.5
49 1.13524 3.12511 2.62944 0.5
50 0.798813 2.60601 3.16122 0.5
