ITEM: TIMESTEP
1000000
ITEM: NUMBER OF ATOMS
50
ITEM: BOX BOUNDS xy xz yz pp pp pp
0.0000000000000000e+00 3.9685030000000001e+00 0.0000000000000000e+00
0.0000000000000000e+00 3.9685030000000001e+00 0.0000000000000000e+00
0.0000000000000000e+00 3.9685030000000001e+00 0.0000000000000000e+00
ITEM: ATOMS id x y z radius
1 2.83533 2.63554 2.18723 0.5
2 3.25533 2.51984 0.694043 0.5
3 2.79896 0.815912 3.94215 0.5
4 2.65704 3.41677 3.40026 0.5
5 2.38204 2.36407 0.242716 0.5
6 0.43344 3.27779 0.493733 0.5
7 0.915822 1.41866 2.89854 0.5
8 1.07461 -0.00307179 1.82234 0.5
9 3.96298 3.6649 1.62988 0.5
10 3.21266 0.105229 1.91077 0.5
11 0.653738 2.90991 1.95314 0.5
12 1.83215 3.50081 2.93306 0.5
13 3.9667 3.06289 3.37044 0.5
14 0.826348 3.3789 3.67367 0.5
15 0.856901 1.51133 2.02732 0.5
16 2.35898 0.394211 1.34413 0.5
17 1.07789 0.0192366 3.10851 0.5
18 1.33261 2.61627 2.33522 0.5
19 1.01613 3.9186 0.828321 0.5
20 3.78477 3.68278 2.50072 0.5
21 1.94686 2.69207 3.3385 0.5
22 3.08965 0.671111 1.10917 0.5
23 2.85082 1.94932 3.16405 0.5
24 2.0347 2.31692 1.62553 0.5
25 1.09527 0.951742 3.6663 0.5
26 1.68319 0.850672 0.459541 0.5
27 0.104206 0.879559 2.35743 0.5
28 1.97694 3.98213 3.92096 0.5
29 1.91666 3.08554 0.703513 0.5
30 3.6593 2.86746 1.82807 0.5
31 3.786 1.97453 3.79287 0.5
32 3.05073 2.65219 3.77108 0.5
33 3.64532 0.168473 0.290797 0.5
34 3.56756 2.21808 2.78225 0.5
35 2.96873 1.19497 2.57315 0.5
36 1.14215 2.24667 3.16882 0.5
37 0.0924077 0.0759914 3.48406 0.5
38 3.45281 0.520293 2.7987 0.5
39 3.5431 3.32747 0.909935 0.5
40 3.75636 0.937925 3.5798 0.5
41 0.0485196 0.534024 1.45818 0.5
42 2.70123 2.18537 1.47094 0.5
43 0.485079 0.364344 0.435675 0.5
44 3.89147 2.00867 2.02092 0.5
45 0.84764 1.41555 0.509545 0.5
46 2.71105 3.15562 1.48343 0.5
47 1.31871 0.981358 1.29851 0.5
48 3.23857 1.27703 1.71912 0.5
49 2.48558 1.09031 3.21796 0.5
50 0.324446 1.40574 1.26543 0.5
