ITEM: TIMESTEP
240000
ITEM: NUMBER OF ATOMS
50
ITEM: BOX BOUNDS xy xz yz pp pp pp
0.0000000000000000e+00 3.9685030000000001e+00 0.0000000000000000e+00
0.0000000000000000e+00 3.9685030000000001e+00 0.0000000000000000e+00
0.0000000000000000e+00 3.9685030000000001e+00 0.0000000000000000e+00
ITEM: ATOMS id x y z radius
1 1.96264 3.76248 0.508115 0.5
2 2.89045 2.57576 0.231557 0.5
3 3.68045 0.0912374 2.67739 0.5
4 0.22767 1.55304 1.59721 0.5
5 0.9445 2.61884 0.804466 0.5
6 0.379938 3.39013 2.93033 0.5
7 3.54762 1.74756 1.98549 0.5
8 0.0917307 1.92202 3.74425 0.5
9 3.72801 2.94481 3.57682 0.5
10 1.53968 3.59032 2.96372 0.5
11 0.512117 2.55083 0.305739 0.5
12 2.95532 1.32849 3.43358 0.5
13 3.2697 1.77852 0.20676 0.5
14 0.227446 0.887415 0.119547 0.5
15 0.857825 2.97068 1.94995 0.5
16 3.80277 2.97974 0.703482 0.5
17 2.53416 3.14815 2.45186 0.5
18 3.95671 2.66202 2.72887 0.5
19 3.15583 2.94988 3.23553 0.5
20 2.17686 2.43482 1.96564 0.5
21 0.792226 3.52566 0.213805 0.5
22 2.48231 3.81099 1.80727 0.5
23 1.67727 3.50447 2.04209 0.5
24 3.138 2.20353 1.67884 0.5
25 3.83909 1.61119 3.03666 0.5
26 2.17425 0.534878 3.84922 0.5
27 3.12603 0.829585 0.819145 0.5
28 2.4775 3.56517 3.75946 0.5
29 0.531974 2.10299 2.50257 0.5
30 2.43404 2.19563 3.04054 0.5
31 3.88418 0.065488 0.403643 0.5
32 1.1638 1.33473 1.9146 0.5
33 0.160063 3.65222 1.33167 0.5
34 1.2542 0.533095 0.373634 0.5
35 3.9499 1.71555 0.579249 0.5
36 1.53173 2.23612 2.49037 0.5
37 3.21218 0.999222 0.104731 0.5
38 2.46322 0.899451 2.12116 0.5
39 1.72102 3.21761 1.19538 0.5
40 2.81435 3.52833 0.777344 0.5
41 0.624349 0.427169 2.688 0.5
42 0.61472 0.356833 0.657624 0.5
43 1.06854 0.225678 1.30525 0.5
44 1.11091 2.06671 3.27987 0.5
45 0.172386 2.49411 1.20745 0.5
46 3.0895 2.25068 2.5625 0.5
47 0.0267007 0.657801 1.09646 0.5
48 1.36447 0.932529 3.4713 0.5
49 0.288934 3.89675 3.52158 0.5
50 1.11473 3.83628 3.64319 0.5
