ITEM: TIMESTEP
800000
ITEM: NUMBER OF ATOMS
50
ITEM: BOX BOUNDS xy xz yz pp pp pp
0.0000000000000000e+00 3.9685030000000001e+00 0.0000000000000000e+00
0.0000000000000000e+00 3.9685030000000001e+00 0.0000000000000000e+00
0.0000000000000000e+00 3.9685030000000001e+00 0.0000000000000000e+00
ITEM: ATOMS id x y z radius
1 1.69592 1.13148 1.3156 0.5
2 0.191778 1.80363 1.68583 0.5
3 3.28667 3.5999 1.76456 0.5
4 3.67955 0.418397 0.546126 0.5
5 3.51457 3.47073 2.70802 0.5
6 1.28889 0.229895 3.22726 0.5
7 0.906266 2.04817 0.0848705 0.5
8 1.54263 3.44439 0.793835 0.5
9 0.46069 0.056115 0.601081 0.5
10 3.27361 1.84403 0.208072 0.5
11 2.0491 0.00861033 3.15243 0.5
12 2.42097 3.29767 3.6049 0.5
13 3.11461 1.17272 2.01625 0.5
14 0.837958 3.39088 3.91249 0.5
15 2.01244 2.61852 0.29213 0.5
16 2.92855 0.451238 2.23582 0.5
17 0.210553 2.38357 2.4087 0.5
18 2.31965 0.887421 2.8808 0.5
19 3.74719 0.195578 1.27737 0.5
20 3.59934 2.38466 3.0724 0.5
21 2.37776 3.18646 1.99384 0.5
22 1.22716 3.92341 2.26403 0.5
23 2.71626 1.39075 0.462885 0.5
24 1.46745 2.56945 0.974044 0.5
25 1.38512 0.512072 0.238794 0.5
26 0.37747 3.26195 2.5111 0.5
27 2.02916 0.252241 2.39395 0.5
28 0.917144 2.07965 3.19515 0.5
29 1.40444 0.7416 2.61951 0.5
30 3.08033 0.863605 3.82483 0.5
31 2.73196 2.55518 0.305016 0.5
32 2.50127 1.77079 3.54669 0.5
33 3.58866 1.65052 2.6651 0.5
34 0.693018 0.803701 3.80632 0.5
35 1.58961 2.2935 2.0796 0.5
36 0.340681 2.78047 3.4484 0.5
37 3.90273 2.81725 1.28946 0.5
38 1.83633 0.270907 1.45883 0.5
39 2.41092 2.75388 1.31564 0.5
40 0.77811 1.40352 2.59578 0.5
41 3.92918 0.042071 3.36418 0.5
42 3.18974 2.72592 0.918214 0.5
43 0.148388 1.46912 3.49907 0.5
44 1.38399 2.96622 2.90246 0.5
45 2.57512 0.530759 0.880646 0.5
46 0.264648 0.896056 1.18792 0.5
47 3.44632 1.25335 1.12886 0.5
48 0.841798 0.146292 1.41475 0.5
49 0.647246 3.5231 1.44687 0.5
50 3.84955 0.983291 2.04291 0.5
