ITEM: TIMESTEP
470000
ITEM: NUMBER OF ATOMS
50
ITEM: BOX BOUNDS xy xz yz pp pp pp
0.0000000000000000e+00 3.9685030000000001e+00 0.0000000000000000e+00
0.0000000000000000e+00 3.9685030000000001e+00 0.0000000000000000e+00
0.0000000000000000e+00 3.9685030000000001e+00 0.0000000000000000e+00
ITEM: ATOMS id x y z radius
1 0.691808 3.50384 3.36574 0.5
2 3.16133 3.00363 3.1618 0.5
3 3.12292 2.45658 1.61336 0.5
4 2.25007 0.988298 2.35819 0.5
5 0.677402 1.1886 0.250624 0.5
6 3.72453 3.85573 2.98595 0.5
7 1.80257 0.510528 3.74431 0.5
8 2.6865 2.21995 3.65715 0.5
9 3.53769 2.21795 3.43704 0.5
10 3.18784 1.34875 3.27274 0.5
11 3.95543 1.46679 2.68663 0.5
12 0.157602 2.87988 2.75322 0.5
13 0.919621 1.79816 1.78413 0.5
14 0.930976 0.085933 1.61716 0.5
15 3.22833 2.34342 2.56705 0.5
16 3.32911 1.75609 1.0814 0.5
17 0.278635 3.64068 1.30802 0.5
18 3.43893 2.94026 0.607946 0.5
19 2.34463 3.35895 2.92203 0.5
20 2.38402 0.0380777 1.9759 0.5
21 1.4959 1.45483 3.73414 0.5
22 2.1134 0.199014 2.81757 0.5
23 0.345396 1.57567 3.65868 0.5
24 1.48732 1.96872 2.72932 0.5
25 0.242868 0.74412 2.05829 0.5
26 1.08867 1.18215 2.74696 0.5
27 3.03064 0.317124 3.43065 0.5
28 3.6122 0.928126 1.48957 0.5
29 2.66987 1.55697 1.74842 0.5
30 1.02187 0.0643341 0.307131 0.5
31 2.70236 1.77606 2.82888 0.5
32 2.75002 0.263639 0.983018 0.5
33 1.93255 2.43301 0.504439 0.5
34 1.66364 0.664498 1.94855 0.5
35 2.93776 3.38162 1.32751 0.5
36 3.17559 3.31687 3.8067 0.5
37 1.67314 3.63224 2.03422 0.5
38 0.431232 2.41852 0.25923 0.5
39 3.45655 0.358902 1.76952 0.5
40 3.87955 3.70893 0.354076 0.5
41 0.55162 0.444674 0.874944 0.5
42 2.50739 1.20736 3.52422 0.5
43 3.4678 3.28988 2.26829 0.5
44 2.2628 2.43527 1.82886 0.5
45 2.04546 2.04283 3.50567 0.5
46 0.0468638 2.96594 1.37759 0.5
47 1.36187 0.677199 0.885873 0.5
48 3.82575 0.726947 3.06351 0.5
49 2.65179 3.12377 2.2258 0.5
50 2.4077 0.761873 0.258393 0.5
