ITEM: TIMESTEP
610000
ITEM: NUMBER OF ATOMS
50
ITEM: BOX BOUNDS xy xz yz pp pp pp
0.0000000000000000e+00 3.9685030000000001e+00 0.0000000000000000e+00
0.0000000000000000e+00 3.9685030000000001e+00 0.0000000000000000e+00
0.0000000000000000e+00 3.9685030000000001e+00 0.0000000000000000e+00
ITEM: ATOMS id x y z radius
1 2.19716 1.6209 0.800442 0.5
2 1.27562 3.81306 2.57774 0.5
3 0.671973 2.52791 1.17944 0.5
4 3.29094 1.95748 2.49656 0.5
5 2.63429 3.25588 2.61034 0.5
6 2.42846 0.749296 1.66311 0.5
7 1.32424 0.404417 3.30122 0.5
8 1.4526 2.87511 3.59248 0.5
9 0.0871877 2.13509 3.88898 0.5
10 2.67325 3.00759 3.57221 0.5
11 3.39599 2.90125 1.99613 0.5
12 0.670726 2.9468 2.38081 0.5
13 3.34878 0.518718 1.11907 0.5
14 1.67759 0.142051 1.61476 0.5
15 3.94983 3.76147 2.2206 0.5
16 3.74133 0.315468 3.5435 0.5
17 3.18591 3.74559 3.10486 0.5
18 0.454493 3.30873 1.08048 0.5
19 0.429618 3.67258 3.04407 0.5
20 1.56495 1.17653 3.35262 0.5
21 1.24742 1.44554 2.47367 0.5
22 2.81826 3.79665 3.87663 0.5
23 0.343078 1.32734 2.78726 0.5
24 2.72807 0.864778 3.64384 0.5
25 3.56796 3.22922 3.87414 0.5
26 3.38656 0.569091 2.11029 0.5
27 3.64072 -0.00703477 1.38422 0.5
28 1.77299 3.53409 0.0349686 0.5
29 2.58648 2.18022 3.24521 0.5
30 0.882671 0.272246 0.136105 0.5
31 2.50503 1.75757 1.88469 0.5
32 0.464631 1.63814 1.79977 0.5
33 0.931964 3.38795 1.72372 0.5
34 3.35996 2.95409 1.00357 0.5
35 1.55594 1.93974 1.64653 0.5
36 1.65652 2.62034 0.841371 0.5
37 0.468197 3.28103 0.0197966 0.5
38 3.65817 3.96894 0.373766 0.5
39 1.8099 3.45179 1.1218 0.5
40 0.608538 0.584122 2.94318 0.5
41 2.46841 3.12946 0.596535 0.5
42 2.48306 0.759946 0.830477 0.5
43 2.42009 3.94439 1.17135 0.5
44 2.05693 1.7431 3.89136 0.5
45 1.88631 2.38644 2.41214 0.5
46 1.5332 2.03371 3.23356 0.5
47 2.24896 1.34873 2.5833 0.5
48 3.04822 2.24272 0.242032 0.5
49 1.84366 1.10306 1.94235 0.5
50 0.275678 0.773888 0.564853 0.5
