ITEM: TIMESTEP
220000
ITEM: NUMBER OF ATOMS
50
ITEM: BOX BOUNDS xy xz yz pp pp pp
0.0000000000000000e+00 3.9685030000000001e+00 0.0000000000000000e+00
0.0000000000000000e+00 3.9685030000000001e+00 0.0000000000000000e+00
0.0000000000000000e+00 3.9685030000000001e+00 0.0000000000000000e+00
ITEM: ATOMS id x y z radius
1 1.59158 1.251 3.14958 0.5
2 3.61781 2.73765 0.876812 0.5
3 1.33708 3.68098 1.23282 0.5
4 2.57043 3.28192 2.3474 0.5
5 3.02485 3.6998 2.85818 0.5
6 3.38353 0.505694 0.648003 0.5
7 2.83909 2.62478 3.05906 0.5
8 3.64043 2.01161 3.19041 0.5
9 2.72431 2.36643 2.10459 0.5
10 1.83632 0.567386 2.96497 0.5
11 3.94656 3.75355 2.63893 0.5
12 3.44272 1.2893 2.73323 0.5
13 2.07475 1.95192 0.98225 0.5
14 0.884269 0.307056 3.22927 0.5
15 0.425589 1.35482 2.98968 0.5
16 0.616757 2.33244 0.684212 0.5
17 2.95906 2.78402 3.95622 0.5
18 0.156706 0.874086 2.61171 0.5
19 1.82451 1.21919 2.32215 0.5
20 0.837482 0.447211 0.945614 0.5
21 1.07879 3.92715 2.3178 0.5
22 3.53492 1.18317 -0.0421242 0.5
23 0.195322 0.333423 0.0951106 0.5
24 1.01719 1.44705 1.66253 0.5
25 0.419338 3.30439 1.07471 0.5
26 1.75539 3.87884 0.353686 0.5
27 1.38764 3.66526 3.57077 0.5
28 1.61351 2.10059 3.01337 0.5
29 1.49692 3.12757 2.7657 0.5
30 3.38035 1.06309 1.59435 0.5
31 2.4813 1.51814 1.48444 0.5
32 1.27497 2.94053 2.00184 0.5
33 2.51345 3.88661 3.60506 0.5
34 2.70803 0.680743 2.46487 0.5
35 2.65949 1.07365 3.46544 0.5
36 2.91101 1.71281 0.625925 0.5
37 2.45203 0.255544 0.93784 0.5
38 -0.0615997 1.76574 1.15839 0.5
39 1.58995 0.985675 0.58872 0.5
40 0.685614 2.55247 3.44808 0.5
41 2.1948 3.066 1.47111 0.5
42 2.90198 3.43067 1.17889 0.5
43 3.26366 0.0223144 2.05623 0.5
44 1.75762 2.32481 0.15542 0.5
45 -0.0369825 2.16275 3.95534 0.5
46 3.404 1.83706 2.11924 0.5
47 1.30775 2.19921 1.03683 0.5
48 0.732033 1.58115 0.778532 0.5
49 3.65068 3.59234 0.348188 0.5
50 2.7095 2.46912 0.783522 0.5
