ITEM: TIMESTEP
510000
ITEM: NUMBER OF ATOMS
50
ITEM: BOX BOUNDS xy xz yz pp pp pp
0.0000000000000000e+00 3.9685030000000001e+00 0.0000000000000000e+00
0.0000000000000000e+00 3.9685030000000001e+00 0.0000000000000000e+00
0.0000000000000000e+00 3.9685030000000001e+00 0.0000000000000000e+00
ITEM: ATOMS id x y z radius
1 0.756911 1.48418 1.80653 0.5
2 0.201845 0.686352 3.7491 0.5
3 1.97283 1.28021 0.258676 0.5
4 1.58047 2.18119 1.84429 0.5
5 2.83735 1.36551 0.569475 0.5
6 2.34005 2.8619 3.86115 0.5
7 3.17994 0.244711 3.90155 0.5
8 3.24109 3.63796 2.15287 0.5
9 2.54282 1.01809 1.3775 0.5
10 1.98698 3.30967 1.21954 0.5
11 0.228709 2.43169 1.08017 0.5
12 3.45645 0.430361 2.44917 0.5
13 1.88957 2.7571 2.55505 0.5
14 2.92902 2.0943 1.2145 0.5
15 0.708363 0.506336 0.839692 0.5
16 -0.0553438 3.35367 2.72941 0.5
17 1.21072 1.1701 2.5415 0.5
18 0.865346 1.01464 3.62292 0.5
19 0.0765634 3.12193 0.420412 0.5
20 2.85448 3.04562 2.93548 0.5
21 2.27641 1.74091 0.969938 0.5
22 3.24079 0.298089 1.67639 0.5
23 3.41012 0.967337 3.96204 0.5
24 0.895977 1.45489 0.672571 0.5
25 3.4375 1.24387 1.34052 0.5
26 3.52049 2.09272 2.68171 0.5
27 0.156174 2.22287 0.0980879 0.5
28 1.74002 0.310539 2.94057 0.5
29 1.23787 1.98758 3.00448 0.5
30 3.72347 0.705303 0.731705 0.5
31 3.29728 3.26673 3.88983 0.5
32 2.91847 0.461611 0.72712 0.5
33 2.37785 3.16502 1.86059 0.5
34 1.9853 0.361046 2.01394 0.5
35 0.290231 1.052 2.53216 0.5
36 2.06651 0.467529 3.93354 0.5
37 1.10998 0.734384 1.56769 0.5
38 3.4811 1.8041 3.76415 0.5
39 2.35427 3.97546 1.46304 0.5
40 -0.00606341 2.69123 1.98612 0.5
41 0.857478 3.05534 2.78541 0.5
42 1.91438 1.33112 3.25196 0.5
43 0.910315 3.96548 3.46139 0.5
44 2.90194 2.51015 0.414392 0.5
45 1.56991 3.51163 3.44218 0.5
46 0.505775 2.134 2.55351 0.5
47 2.11314 1.40156 1.99087 0.5
48 3.72832 1.86145 1.84237 0.5
49 3.58127 3.39349 1.18791 0.5
50 0.34354 3.02875 3.62526 0.5
