ITEM: TIMESTEP
250
ITEM: NUMBER OF ATOMS
50
ITEM: BOX BOUNDS xy xz yz pp pp pp
0.0000000000000000e+00 3.9685030000000001e+00 0.0000000000000000e+00
0.0000000000000000e+00 3.9685030000000001e+00 0.0000000000000000e+00
0.0000000000000000e+00 3.9685030000000001e+00 0.0000000000000000e+00
ITEM: ATOMS id x y z radius
1 3.20334 0.0829626 3.59798 0.5
2 2.29258 2.57275 1.05049 0.5
3 2.54165 1.23155 0.868047 0.5
4 1.35909 2.81377 0.873238 0.5
5 1.06972 2.65495 1.88584 0.5
6 0.948367 0.852369 3.30686 0.5
7 0.826435 1.23431 1.79985 0.5
8 3.58059 3.21978 3.85209 0.5
9 1.46015 3.89398 2.96995 0.5
10 0.579735 2.01585 1.1729 0.5
11 1.80367 1.01985 0.0803305 0.5
12 3.13339 0.466464 2.70439 0.5
13 0.330619 0.281905 1.88 0.5
14 0.405056 1.88859 2.37145 0.5
15 0.415108 1.68903 3.33713 0.5
16 0.296847 3.84424 0.418965 0.5
17 0.916836 1.69418 0.265001 0.5
18 1.52656 1.98281 1.45241 0.5
19 2.52793 1.48507 3.86672 0.5
20 2.06293 2.48775 2.01551 0.5
21 0.139642 1.21492 0.793584 0.5
22 1.13652 2.78451 3.91083 0.5
23 0.656946 2.64361 2.88239 0.5
24 2.33494 0.538956 3.24983 0.5
25 3.52374 3.50312 1.73199 0.5
26 0.011493 0.460306 3.61316 0.5
27 2.3462 1.06505 2.25804 0.5
28 1.72021 3.52059 3.88926 0.5
29 2.87012 1.98418 1.69378 0.5
30 2.39162 3.36313 1.73138 0.5
31 2.18249 0.0490546 2.34261 0.5
32 3.41059 3.50987 2.88054 0.5
33 2.41275 3.7 3.11498 0.5
34 0.262103 0.0627328 2.92722 0.5
35 2.98173 1.34984 2.93526 0.5
36 2.44202 0.445196 0.265463 0.5
37 0.933675 3.84103 3.66505 0.5
38 1.80098 2.02017 3.5107 0.5
39 3.76781 1.48743 1.75438 0.5
40 3.37299 0.92947 0.340187 0.5
41 3.6213 2.75053 2.55402 0.5
42 2.30016 0.425365 1.3417 0.5
43 0.860291 3.38171 1.23946 0.5
44 3.62394 2.39828 1.6249 0.5
45 3.55442 0.38207 1.00812 0.5
46 0.174043 0.966308 2.58193 0.5
47 2.69925 3.27686 0.145014 0.5
48 0.901605 0.661504 0.307083 0.5
49 0.154987 2.31515 0.162474 0.5
50 2.9063 2.74857 3.30742 0.5
