ITEM: TIMESTEP
560000
ITEM: NUMBER OF ATOMS
50
ITEM: BOX BOUNDS xy xz yz pp pp pp
0.0000000000000000e+00 3.9685030000000001e+00 0.0000000000000000e+00
0.0000000000000000e+00 3.9685030000000001e+00 0.0000000000000000e+00
0.0000000000000000e+00 3.9685030000000001e+00 0.0000000000000000e+00
ITEM: ATOMS id x y z radius
1 2.02288 3.85102 1.46153 0.5
2 0.540938 3.74551 2.54073 0.5
3 3.25847 0.0616435 2.31277 0.5
4 2.42625 1.67188 2.75461 0.5
5 3.67854 1.3003 0.151113 0.5
6 2.42362 3.98719 0.31727 0.5
7 0.746919 0.844603 0.259042 0.5
8 0.754878 2.92847 1.00365 0.5
9 2.80617 0.569507 2.0952 0.5
10 1.83931 2.45474 3.09504 0.5
11 1.72747 3.05649 3.70127 0.5
12 3.35517 0.105956 0.237775 0.5
13 1.33186 0.845639 3.46955 0.5
14 1.0101 3.90296 1.72936 0.5
15 2.85491 1.00125 0.603828 0.5
16 2.30172 3.11544 0.720361 0.5
17 0.432719 0.114149 0.837129 0.5
18 1.34692 1.74006 2.95301 0.5
19 1.64653 2.41318 0.963711 0.5
20 0.0307594 2.01819 3.76141 0.5
21 1.57423 0.0126207 3.69285 0.5
22 3.37079 1.71809 2.61155 0.5
23 1.98641 0.916256 2.93593 0.5
24 3.6979 0.567456 3.33233 0.5
25 3.02311 3.58644 3.5288 0.5
26 1.54042 1.67535 2.15383 0.5
27 0.521186 2.8908 0.151145 0.5
28 3.80652 0.891819 2.54056 0.5
29 3.44503 2.74939 2.91946 0.5
30 1.80111 0.564554 0.669542 0.5
31 3.69008 2.92895 3.72902 0.5
32 3.06032 3.13907 1.22589 0.5
33 2.33088 2.13758 1.86617 0.5
34 1.56881 3.35173 0.88986 0.5
35 0.173022 2.22384 0.656747 0.5
36 1.15065 1.52079 1.07879 0.5
37 2.1642 2.08495 0.0379349 0.5
38 1.85957 0.807953 1.43466 0.5
39 3.06295 3.15863 0.489343 0.5
40 3.15896 1.27948 3.41312 0.5
41 0.454688 1.20094 1.21737 0.5
42 0.838544 3.49516 3.39895 0.5
43 0.408762 1.6225 2.98985 0.5
44 0.927584 2.68061 2.77512 0.5
45 3.2253 2.19233 0.912688 0.5
46 2.33479 1.50459 0.826137 0.5
47 0.22271 2.28493 1.59175 0.5
48 3.77927 3.42272 2.29764 0.5
49 2.14453 0.879102 3.80911 0.5
50 2.85404 1.94336 1.45042 0.5
