ITEM: TIMESTEP
700000
ITEM: NUMBER OF ATOMS
50
ITEM: BOX BOUNDS xy xz yz pp pp pp
0.0000000000000000e+00 3.9685030000000001e+00 0.0000000000000000e+00
0.0000000000000000e+00 3.9685030000000001e+00 0.0000000000000000e+00
0.0000000000000000e+00 3.9685030000000001e+00 0.0000000000000000e+00
ITEM: ATOMS id x y z radius
1 0.273973 3.63781 3.89005 0.5
2 3.60158 1.1193 1.23031 0.5
3 2.409 1.97549 2.43622 0.5
4 0.544025 2.62235 1.56334 0.5
5 1.65151 -0.0353089 0.99923 0.5
6 1.35034 0.668367 1.8695 0.5
7 3.07328 1.97376 2.96967 0.5
8 0.275766 1.47863 1.96861 0.5
9 2.23625 1.94313 3.59068 0.5
10 2.38374 1.21007 1.91232 0.5
11 3.66062 3.4932 3.31717 0.5
12 2.9944 1.54965 0.282628 0.5
13 3.8104 2.71883 1.06811 0.5
14 0.397616 1.91417 0.861204 0.5
15 2.2967 2.16751 1.24768 0.5
16 0.3449 2.7718 0.170977 0.5
17 1.52074 1.75805 2.92679 0.5
18 1.08046 1.33429 1.34048 0.5
19 0.00446122 0.551858 1.67697 0.5
20 3.77244 2.07791 1.64103 0.5
21 2.90072 2.5385 0.37912 0.5
22 1.87039 3.83351 2.06302 0.5
23 3.89694 2.76994 3.14175 0.5
24 0.963678 3.58994 1.53594 0.5
25 1.56826 0.711703 0.0340267 0.5
26 0.700117 0.315351 3.40579 0.5
27 0.264124 2.01574 2.88064 0.5
28 3.50813 2.13946 3.62001 0.5
29 0.410796 3.85274 2.15487 0.5
30 2.04644 0.989835 0.758407 0.5
31 1.97623 0.867185 2.68898 0.5
32 0.759297 1.16301 0.0764073 0.5
33 3.97464 0.683072 2.57352 0.5
34 0.311198 1.17069 3.22259 0.5
35 0.808147 3.4714 0.586377 0.5
36 2.86751 3.502 1.69115 0.5
37 0.487231 0.673463 0.891036 0.5
38 2.46276 3.57895 2.93656 0.5
39 1.3165 1.79322 0.679069 0.5
40 2.57604 0.164001 1.46225 0.5
41 1.03303 3.41563 2.64678 0.5
42 0.858742 1.24407 2.6558 0.5
43 2.84457 2.73277 3.20975 0.5
44 1.85115 2.76471 3.44456 0.5
45 0.249162 2.61841 2.25773 0.5
46 3.65211 1.03462 0.270489 0.5
47 1.29081 2.70679 2.76325 0.5
48 2.5137 3.04289 0.00690335 0.5
49 3.31978 0.15113 2.81575 0.5
50 1.8111 2.69462 1.77944 0.5
