ITEM: TIMESTEP
330000
ITEM: NUMBER OF ATOMS
50
ITEM: BOX BOUNDS xy xz yz pp pp pp
0.0000000000000000e+00 3.9685030000000001e+00 0.0000000000000000e+00
0.0000000000000000e+00 3.9685030000000001e+00 0.0000000000000000e+00
0.0000000000000000e+00 3.9685030000000001e+00 0.0000000000000000e+00
ITEM: ATOMS id x y z radius
1 3.17061 1.94268 3.01995 0.5
2 1.29473 3.13573 1.04252 0.5
3 1.25077 0.384702 2.69705 0.5
4 3.88761 2.67443 3.27354 0.5
5 3.75755 3.91282 1.49591 0.5
6 3.92286 2.41667 1.21749 0.5
7 2.88336 1.39542 2.41652 0.5
8 0.184138 0.326956 2.50176 0.5
9 3.83739 3.31791 2.01652 0.5
10 1.54131 1.67172 1.96754 0.5
11 0.517397 0.69185 1.60954 0.5
12 3.09007 0.554061 3.09875 0.5
13 0.753398 1.83885 3.78027 0.5
14 3.80238 1.1717 3.04476 0.5
15 1.07234 1.17299 3.57161 0.5
16 1.03279 3.81523 1.87812 0.5
17 2.65876 2.1599 1.65721 0.5
18 3.15394 2.16207 3.67471 0.5
19 3.22526 3.1962 3.58825 0.5
20 0.542765 2.04879 2.30267 0.5
21 1.5492 1.65827 0.885584 0.5
22 0.165596 3.22585 1.03501 0.5
23 3.40103 0.745011 2.29299 0.5
24 2.8168 0.170766 2.00696 0.5
25 0.915785 3.79566 0.615032 0.5
26 0.394059 3.0732 0.225621 0.5
27 3.01719 1.11998 1.42351 0.5
28 3.5599 0.746118 0.628212 0.5
29 1.99295 0.343701 1.62741 0.5
30 3.79879 1.38728 1.53101 0.5
31 2.46512 0.652062 2.6471 0.5
32 2.08595 3.43945 2.93809 0.5
33 2.50815 3.55494 1.34856 0.5
34 3.59197 3.8483 0.437517 0.5
35 2.31807 2.55968 0.585811 0.5
36 1.36473 0.529488 1.19584 0.5
37 1.19603 1.25385 2.67029 0.5
38 2.38833 2.83045 3.81638 0.5
39 2.05955 0.48554 3.73095 0.5
40 1.01637 3.69471 3.54136 0.5
41 0.322695 2.15568 0.432493 0.5
42 3.41829 3.07347 0.706209 0.5
43 2.67194 3.74415 0.124835 0.5
44 1.89361 3.7318 0.460993 0.5
45 0.226653 0.814319 0.327006 0.5
46 1.83142 2.46492 2.05056 0.5
47 1.69365 3.33565 1.93971 0.5
48 0.965942 2.62809 2.99525 0.5
49 3.95296 3.68085 3.10908 0.5
50 3.48733 2.36327 2.37935 0.5
