ITEM: TIMESTEP
130000
ITEM: NUMBER OF ATOMS
50
ITEM: BOX BOUNDS xy xz yz pp pp pp
0.0000000000000000e+00 3.9685030000000001e+00 0.0000000000000000e+00
0.0000000000000000e+00 3.9685030000000001e+00 0.0000000000000000e+00
0.0000000000000000e+00 3.9685030000000001e+00 0.0000000000000000e+00
ITEM: ATOMS id x y z radius
1 2.40175 0.645569 3.64705 0.5
2 2.58962 0.775117 2.1828 0.5
3 2.7054 3.21347 1.27323 0.5
4 0.976934 1.36855 1.23647 0.5
5 0.492681 3.23266 3.20287 0.5
6 3.86827 1.80932 0.255121 0.5
7 3.12499 0.105545 0.221096 0.5
8 0.691439 0.282043 1.90764 0.5
9 1.28669 1.08022 3.0347 0.5
10 2.5612 2.48478 2.2038 0.5
11 1.43639 0.0037915 2.68737 0.5
12 2.05001 0.915972 2.6741 0.5
13 3.30513 0.49456 3.11338 0.5
14 1.53797 2.62968 1.02495 0.5
15 2.88408 1.19554 3.04738 0.5
16 2.71498 1.60935 0.383037 0.5
17 3.69882 1.66925 2.02776 0.5
18 1.85302 3.2532 3.07143 0.5
19 1.63861 3.25675 2.03075 0.5
20 2.18652 2.65898 0.627871 0.5
21 1.49248 0.158511 1.20444 0.5
22 3.40927 1.14305 -0.0651932 0.5
23 2.22967 0.0722194 1.71615 0.5
24 0.788359 3.03112 1.72234 0.5
25 0.558319 3.44963 2.37729 0.5
26 0.207171 2.24325 2.19735 0.5
27 1.9454 1.97121 2.7693 0.5
28 2.6846 3.69833 2.44648 0.5
29 3.23993 2.94884 0.326225 0.5
30 0.0871103 1.42244 3.301 0.5
31 1.79849 1.16089 0.685943 0.5
32 2.47187 3.75176 3.23782 0.5
33 1.95725 1.41786 3.65872 0.5
34 3.95352 1.26543 1.20237 0.5
35 2.97891 0.342703 1.10313 0.5
36 3.89692 3.05317 2.44615 0.5
37 1.11317 3.5569 0.797907 0.5
38 1.33744 3.36326 3.89602 0.5
39 2.81471 1.34604 1.18676 0.5
40 2.45385 0.633976 0.4409 0.5
41 0.332342 1.93181 1.37999 0.5
42 1.34235 2.32007 3.80753 0.5
43 1.11063 0.994056 0.0770114 0.5
44 2.34815 3.48072 0.231182 0.5
45 0.631892 2.16729 0.521402 0.5
46 1.01483 0.137176 3.40914 0.5
47 0.49507 2.96251 0.091976 0.5
48 0.185191 0.486823 3.20434 0.5
49 3.24017 1.8633 3.4102 0.5
50 0.62041 2.1645 2.95824 0.5
