ITEM: TIMESTEP
850000
ITEM: NUMBER OF ATOMS
50
ITEM: BOX BOUNDS xy xz yz pp pp pp
0.0000000000000000e+00 3.9685030000000001e+00 0.0000000000000000e+00
0.0000000000000000e+00 3.9685030000000001e+00 0.0000000000000000e+00
0.0000000000000000e+00 3.9685030000000001e+00 0.0000000000000000e+00
ITEM: ATOMS id x y z radius
1 -0.00116424 3.75395 1.08373 0.5
2 3.86279 3.41206 0.147827 0.5
3 1.60887 1.41014 0.47024 0.5
4 2.18626 2.11666 1.43772 0.5
5 3.63596 1.62518 2.13926 0.5
6 1.3639 2.24021 0.933463 0.5
7 0.837758 0.116105 2.09191 0.5
8 2.4471 2.58168 2.97752 0.5
9 0.842239 3.7867 3.15565 0.5
10 3.18619 1.54901 0.182947 0.5
11 0.531689 0.475384 3.3407 0.5
12 0.966297 3.96912 1.12274 0.5
13 0.967919 1.73879 0.353185 0.5
14 3.65298 2.63966 2.55445 0.5
15 2.54236 0.10406 1.07359 0.5
16 0.899742 3.11618 -0.0066123 0.5
17 2.13067 0.222084 3.17912 0.5
18 3.50385 1.95703 1.01224 0.5
19 0.376479 2.29836 0.702958 0.5
20 2.8965 2.64051 0.555834 0.5
21 1.63494 0.57194 2.21576 0.5
22 2.0768 2.25281 0.0472977 0.5
23 1.87937 3.62314 0.499243 0.5
24 1.28436 3.30862 2.02072 0.5
25 3.85002 3.63552 3.206 0.5
26 1.45248 1.3049 1.60168 0.5
27 1.088 1.00642 2.82322 0.5
28 3.17605 2.06189 3.16582 0.5
29 1.69839 1.13376 3.28562 0.5
30 0.695364 2.13339 1.60128 0.5
31 1.43245 2.52039 2.58838 0.5
32 1.8484 3.76332 1.4543 0.5
33 3.93531 3.94821 2.39398 0.5
34 2.47001 3.37903 3.67924 0.5
35 3.76197 1.15453 3.38092 0.5
36 3.16236 0.250684 3.5296 0.5
37 3.19839 3.6938 0.719794 0.5
38 0.967888 2.65556 3.35391 0.5
39 0.514806 2.04449 2.53572 0.5
40 0.105191 1.48162 0.569453 0.5
41 2.13649 0.630843 0.963554 0.5
42 2.63782 0.440592 0.318716 0.5
43 2.63947 1.25185 3.67601 0.5
44 0.799245 0.828477 0.355897 0.5
45 2.9159 1.65213 1.98122 0.5
46 2.74005 0.906265 2.49639 0.5
47 0.485235 3.15157 0.927386 0.5
48 1.46929 2.65094 0.255843 0.5
49 3.97464 0.950574 1.31854 0.5
50 2.24345 2.98858 2.18393 0.5
