ITEM: TIMESTEP
250000
ITEM: NUMBER OF ATOMS
50
ITEM: BOX BOUNDS xy xz yz pp pp pp
0.0000000000000000e+00 3.9685030000000001e+00 0.0000000000000000e+00
0.0000000000000000e+00 3.9685030000000001e+00 0.0000000000000000e+00
0.0000000000000000e+00 3.9685030000000001e+00 0.0000000000000000e+00
ITEM: ATOMS id x y z radius
1 2.108 0.879602 1.25108 0.5
2 2.34047 2.10753 1.65817 0.5
3 2.48874 1.21038 2.11677 0.5
4 0.383689 1.45235 2.99308 0.5
5 0.0445803 0.989795 1.58744 0.5
6 3.59956 2.86909 0.898086 0.5
7 0.61519 3.77219 2.0395 0.5
8 0.445328 1.58499 0.514855 0.5
9 1.41058 1.08901 1.89928 0.5
10 0.333962 2.5938 0.527982 0.5
11 0.115599 1.70545 2.17456 0.5
12 3.32992 2.40093 2.85073 0.5
13 2.76843 3.80662 2.22378 0.5
14 1.27808 3.93999 3.72119 0.5
15 3.26179 3.74404 1.39174 0.5
16 1.95616 1.82057 0.847839 0.5
17 1.00867 0.96136 3.28251 0.5
18 3.13295 0.657584 1.50441 0.5
19 2.12708 0.363451 3.36237 0.5
20 2.3734 1.6677 3.38471 0.5
21 3.21967 1.31565 3.29126 0.5
22 0.976683 2.16973 2.40573 0.5
23 0.365632 3.84606 1.05262 0.5
24 2.28057 2.2728 0.205455 0.5
25 3.13332 1.4911 1.8329 0.5
26 0.0617959 0.657377 2.64162 0.5
27 1.33207 3.23888 3.46072 0.5
28 2.90892 1.54751 0.849572 0.5
29 1.21369 0.661671 0.518779 0.5
30 0.665392 3.00887 2.32269 0.5
31 0.114373 1.92356 1.34023 0.5
32 1.85607 2.07045 2.31932 0.5
33 1.88357 -0.00262447 2.16276 0.5
34 2.82145 3.43724 2.9609 0.5
35 1.0732 2.41922 1.1985 0.5
36 2.32024 3.09167 2.25495 0.5
37 1.05563 2.16822 0.145079 0.5
38 2.45553 2.41855 2.83901 0.5
39 0.258301 3.37615 3.06411 0.5
40 3.90939 1.18109 3.39888 0.5
41 3.36734 0.441201 3.95931 0.5
42 3.57385 1.64031 0.0881902 0.5
43 3.08692 2.3895 0.0472848 0.5
44 0.809203 0.615038 2.13355 0.5
45 3.79149 2.35505 3.72855 0.5
46 3.19718 2.42618 1.90598 0.5
47 0.867503 3.20711 1.35464 0.5
48 1.92582 1.27618 2.68451 0.5
49 1.81949 1.03672 3.68311 0.5
50 1.30903 1.86329 3.45163 0.5
