ITEM: TIMESTEP
290000
ITEM: NUMBER OF ATOMS
50
ITEM: BOX BOUNDS xy xz yz pp pp pp
0.0000000000000000e+00 3.9685030000000001e+00 0.0000000000000000e+00
0.0000000000000000e+00 3.9685030000000001e+00 0.0000000000000000e+00
0.0000000000000000e+00 3.9685030000000001e+00 0.0000000000000000e+00
ITEM: ATOMS id x y z radius
1 2.94956 2.67185 3.38187 0.5
2 0.875953 3.02976 3.707 0.5
3 0.203868 2.69528 2.85252 0.5
4 0.596822 0.314974 1.6597 0.5
5 3.85916 0.562523 3.87516 0.5
6 1.57497 3.26863 2.66345 0.5
7 2.01184 2.57352 2.90478 0.5
8 2.65702 2.30593 2.0243 0.5
9 2.37088 2.35816 0.143981 0.5
10 0.260133 0.365163 2.51049 0.5
11 3.33684 3.50555 3.92299 0.5
12 2.88729 3.09844 0.833005 0.5
13 3.27326 0.292369 1.86813 0.5
14 2.13315 0.687486 0.348258 0.5
15 0.821707 2.40255 0.727792 0.5
16 2.84332 0.919261 1.92573 0.5
17 2.8628 0.352581 3.53795 0.5
18 1.01919 3.9383 2.41471 0.5
19 3.46403 2.59015 1.97134 0.5
20 1.48417 3.77012 1.54661 0.5
21 0.227875 2.2235 1.45742 0.5
22 1.01434 3.36558 1.05778 0.5
23 0.843879 3.12099 1.97041 0.5
24 1.27643 0.364522 0.431153 0.5
25 2.40104 3.52828 3.5364 0.5
26 1.07165 2.02848 2.79565 0.5
27 2.06918 1.79023 0.790838 0.5
28 3.18639 1.84122 3.11874 0.5
29 3.50323 3.60371 0.912906 0.5
30 3.3616 2.33667 2.81223 0.5
31 1.23626 0.760213 2.48398 0.5
32 0.72043 1.35985 1.01243 0.5
33 0.438288 0.400451 0.678835 0.5
34 3.07313 1.81219 1.60086 0.5
35 0.066268 3.56081 1.42594 0.5
36 3.17977 1.32824 0.0256516 0.5
37 1.44406 2.83905 0.247342 0.5
38 2.152 3.32327 2.07949 0.5
39 3.82206 1.93857 0.37306 0.5
40 0.832327 0.395161 3.3119 0.5
41 2.64373 0.189389 1.05891 0.5
42 3.93343 1.12882 2.87155 0.5
43 3.39804 3.5442 3.11402 0.5
44 1.80378 1.33525 3.4973 0.5
45 3.61068 2.64595 3.79145 0.5
46 1.0091 2.0585 1.89361 0.5
47 3.91881 3.01724 0.628402 0.5
48 2.11312 1.72607 1.88491 0.5
49 2.79432 3.43261 1.76314 0.5
50 2.04987 0.427101 2.11732 0.5
