ITEM: TIMESTEP
110000
ITEM: NUMBER OF ATOMS
50
ITEM: BOX BOUNDS xy xz yz pp pp pp
0.0000000000000000e+00 3.9685030000000001e+00 0.0000000000000000e+00
0.0000000000000000e+00 3.9685030000000001e+00 0.0000000000000000e+00
0.0000000000000000e+00 3.9685030000000001e+00 0.0000000000000000e+00
ITEM: ATOMS id x y z radius
1 1.34252 0.756359 3.3377 0.5
2 3.7242 3.84523 1.50005 0.5
3 0.718151 0.713633 3.93459 0.5
4 3.01092 0.973034 0.392641 0.5
5 2.44287 3.25343 2.77737 0.5
6 3.80748 2.26458 0.0146007 0.5
7 1.22131 3.11733 3.68234 0.5
8 0.904384 3.5532 1.69819 0.5
9 3.47116 1.94078 0.937635 0.5
10 2.06462 1.31254 2.07427 0.5
11 1.72107 0.104201 1.16176 0.5
12 1.29132 2.8636 0.591013 0.5
13 1.7482 2.78982 2.06494 0.5
14 2.71334 2.18942 3.2996 0.5
15 3.34451 2.71029 3.5824 0.5
16 3.23774 0.822671 1.26934 0.5
17 0.0776005 3.13717 2.0587 0.5
18 3.97566 1.2229 0.250167 0.5
19 3.36882 2.5146 2.50979 0.5
20 1.53609 0.0980466 3.87574 0.5
21 0.298744 3.49685 0.844658 0.5
22 3.75492 1.94112 3.06599 0.5
23 3.39656 1.69243 1.9617 0.5
24 3.36876 3.87194 0.379743 0.5
25 2.42949 0.958174 3.18295 0.5
26 1.14955 1.40795 2.688 0.5
27 2.0084 0.57139 1.7098 0.5
28 0.250833 1.09296 2.56406 0.5
29 2.77203 3.93786 1.16427 0.5
30 1.19018 0.564799 2.2714 0.5
31 0.316349 2.61651 1.0759 0.5
32 1.10065 2.5839 1.3999 0.5
33 0.761992 1.44521 0.815113 0.5
34 3.51903 0.562794 2.28033 0.5
35 1.56052 3.45261 2.20075 0.5
36 2.44494 3.03355 1.0041 0.5
37 0.829501 0.11168 0.578654 0.5
38 1.64631 3.21042 1.27 0.5
39 2.83799 0.804024 2.20937 0.5
40 0.232613 0.70823 1.54742 0.5
41 0.682851 2.94642 0.160224 0.5
42 2.64237 1.51844 1.44749 0.5
43 1.79696 2.22115 1.38369 0.5
44 1.98627 2.58958 0.235302 0.5
45 1.98574 0.999272 0.259835 0.5
46 2.40287 3.42139 2.03471 0.5
47 2.93694 2.52675 0.399692 0.5
48 3.3769 2.9988 0.931692 0.5
49 2.40379 3.37366 0.0454064 0.5
50 2.87497 2.28602 1.56441 0.5
