ITEM: TIMESTEP
190000
ITEM: NUMBER OF ATOMS
50
ITEM: BOX BOUNDS xy xz yz pp pp pp
0.0000000000000000e+00 3.9685030000000001e+00 0.0000000000000000e+00
0.0000000000000000e+00 3.9685030000000001e+00 0.0000000000000000e+00
0.0000000000000000e+00 3.9685030000000001e+00 0.0000000000000000e+00
ITEM: ATOMS id x y z radius
1 3.41705 2.19267 0.635937 0.5
2 0.237325 3.22692 2.40918 0.5
3 1.4477 2.82434 0.698699 0.5
4 0.951799 2.15091 3.0221 0.5
5 0.600451 1.75385 0.214404 0.5
6 2.79182 1.53783 3.35922 0.5
7 3.28589 2.81895 2.60879 0.5
8 0.175909 1.57848 3.0504 0.5
9 1.28435 2.98868 3.80536 0.5
10 1.77975 2.62273 2.6519 0.5
11 2.64876 2.5602 3.24767 0.5
12 2.0989 2.5099 1.58349 0.5
13 1.36099 0.898895 0.996133 0.5
14 1.84776 3.58035 0.867965 0.5
15 1.74998 1.47959 1.91496 0.5
16 3.7574 1.42462 1.05997 0.5
17 2.60946 1.87431 1.12325 0.5
18 3.04904 3.43658 2.80656 0.5
19 0.903143 0.379354 3.05065 0.5
20 1.24394 3.35105 2.83184 0.5
21 2.22295 2.25073 0.130864 0.5
22 2.28746 1.09606 2.51782 0.5
23 2.64703 3.26349 1.40415 0.5
24 3.39994 1.11526 2.71329 0.5
25 3.75992 1.13575 3.66144 0.5
26 1.29922 0.207353 1.74215 0.5
27 0.255646 0.951258 2.70658 0.5
28 0.0894799 2.18239 2.17788 0.5
29 0.647927 1.5612 1.66603 0.5
30 0.367096 2.96497 1.11493 0.5
31 3.11995 3.61457 4.04986 0.5
32 0.433815 3.89648 1.6408 0.5
33 2.78452 1.83899 2.59334 0.5
34 1.53739 0.15834 0.325835 0.5
35 3.36927 0.283347 0.75808 0.5
36 0.934278 2.5583 1.80449 0.5
37 3.96691 0.132329 2.23458 0.5
38 0.139605 2.49942 3.7363 0.5
39 3.27468 3.04644 0.911599 0.5
40 3.92419 0.109051 3.15174 0.5
41 0.528297 3.22782 3.45178 0.5
42 2.0989 3.42968 3.3972 0.5
43 0.0236145 0.0767365 3.82147 0.5
44 3.09492 2.36237 1.96032 0.5
45 0.309685 0.708876 0.640315 0.5
46 2.53989 0.0261916 0.599013 0.5
47 3.06979 0.172544 1.83994 0.5
48 0.372627 2.2206 1.07258 0.5
49 1.65873 2.01342 1.35074 0.5
50 1.37634 0.897521 2.41833 0.5
