ITEM: TIMESTEP
630000
ITEM: NUMBER OF ATOMS
50
ITEM: BOX BOUNDS xy xz yz pp pp pp
0.0000000000000000e+00 3.9685030000000001e+00 0.0000000000000000e+00
0.0000000000000000e+00 3.9685030000000001e+00 0.0000000000000000e+00
0.0000000000000000e+00 3.9685030000000001e+00 0.0000000000000000e+00
ITEM: ATOMS id x y z radius
1 2.58217 3.31681 2.19218 0.5
2 1.77005 0.224664 2.20386 0.5
3 3.15442 3.34797 1.46082 0.5
4 1.54152 1.68625 3.40919 0.5
5 3.62122 3.69234 0.918426 0.5
6 3.14095 0.228396 0.284698 0.5
7 3.29635 2.7063 3.2678 0.5
8 0.492657 2.39934 1.36697 0.5
9 1.47602 0.805481 1.42948 0.5
10 2.42353 0.800857 2.2451 0.5
11 0.685457 0.798631 1.4241 0.5
12 0.164337 3.46104 1.92997 0.5
13 3.89652 0.223482 1.42672 0.5
14 2.15427 0.640548 3.05472 0.5
15 0.197702 0.847418 0.364729 0.5
16 0.95402 0.97152 2.78112 0.5
17 1.27177 3.3295 1.888 0.5
18 2.6748 1.94794 3.75907 0.5
19 0.809623 0.0310063 0.803429 0.5
20 0.256932 1.30844 3.31688 0.5
21 2.37119 1.22306 0.350821 0.5
22 1.51116 1.82484 0.619482 0.5
23 0.684221 0.29489 2.14869 0.5
24 0.759438 0.225681 3.42758 0.5
25 3.72484 2.4572 2.52609 0.5
26 3.16971 2.27519 1.51183 0.5
27 2.91768 0.996636 1.18243 0.5
28 0.29949 2.68866 3.86498 0.5
29 0.808482 1.9278 2.81904 0.5
30 2.14999 0.217068 1.45562 0.5
31 1.23195 2.80639 0.830114 0.5
32 2.41069 3.86519 3.50131 0.5
33 3.59121 1.45464 2.79381 0.5
34 2.8401 1.14878 3.65837 0.5
35 3.79007 3.41137 0.0816031 0.5
36 2.21681 1.68008 1.49874 0.5
37 3.52993 3.35247 2.45527 0.5
38 0.196537 3.03955 2.91849 0.5
39 3.63345 1.39259 3.7573 0.5
40 1.96548 2.75361 1.69156 0.5
41 1.88436 2.92456 2.5447 0.5
42 3.26903 2.94424 0.329893 0.5
43 0.877098 2.23494 3.91298 0.5
44 1.34479 0.649419 3.66808 0.5
45 3.67534 1.65469 1.19289 0.5
46 2.9974 0.0938862 1.53709 0.5
47 1.23925 1.97239 1.96306 0.5
48 1.82747 2.22475 3.85185 0.5
49 3.63059 0.425322 2.43098 0.5
50 3.56894 0.326876 3.44853 0.5
