ITEM: TIMESTEP
180000
ITEM: NUMBER OF ATOMS
50
ITEM: BOX BOUNDS xy xz yz pp pp pp
0.0000000000000000e+00 3.9685030000000001e+00 0.0000000000000000e+00
0.0000000000000000e+00 3.9685030000000001e+00 0.0000000000000000e+00
0.0000000000000000e+00 3.9685030000000001e+00 0.0000000000000000e+00
ITEM: ATOMS id x y z radius
1 3.32399 1.13607 -0.0267179 0.5
2 3.21627 3.00773 2.53363 0.5
3 1.83951 2.21785 3.00105 0.5
4 1.62069 0.185265 0.55167 0.5
5 1.15311 1.53541 3.55219 0.5
6 1.43453 1.95972 1.25415 0.5
7 0.433166 2.97973 0.308789 0.5
8 2.91281 3.85655 2.59641 0.5
9 3.84873 3.91456 1.05306 0.5
10 1.23636 2.29226 0.275349 0.5
11 0.481285 1.86163 2.29186 0.5
12 3.75124 3.54785 3.80507 0.5
13 0.962856 0.930385 2.57099 0.5
14 2.37386 0.124255 1.09328 0.5
15 3.58087 0.456993 2.13312 0.5
16 2.63348 0.842052 1.76519 0.5
17 0.669885 0.0379947 2.02277 0.5
18 2.84715 2.69868 3.63174 0.5
19 2.38524 3.50316 1.83518 0.5
20 0.308615 3.17989 3.40165 0.5
21 1.08665 2.87661 1.68773 0.5
22 3.07276 0.269037 0.409899 0.5
23 2.09538 0.0789354 2.59768 0.5
24 0.204484 0.56165 0.308217 0.5
25 2.40313 3.59747 3.29511 0.5
26 2.60553 1.84305 0.727648 0.5
27 1.35812 0.82617 1.87427 0.5
28 1.56001 3.04721 2.23574 0.5
29 0.152407 1.49131 3.54799 0.5
30 1.11591 1.17802 1.19956 0.5
31 3.41595 1.30242 0.696727 0.5
32 1.80539 2.86817 3.03973 0.5
33 1.24761 3.35158 1.1366 0.5
34 3.8014 2.40443 0.74819 0.5
35 1.95289 1.17678 0.634761 0.5
36 0.585364 2.46926 1.31827 0.5
37 3.63916 2.42714 1.88325 0.5
38 1.9952 1.03287 3.65937 0.5
39 2.80451 0.627908 3.34735 0.5
40 2.10503 3.28879 3.86106 0.5
41 1.8626 1.45558 2.36222 0.5
42 2.89192 3.45352 0.460892 0.5
43 2.63837 2.72973 1.3368 0.5
44 2.39249 3.18024 2.61209 0.5
45 0.0307713 1.88029 1.32853 0.5
46 0.216011 2.83653 2.40618 0.5
47 1.92172 2.14462 1.96466 0.5
48 2.18769 1.91798 3.76507 0.5
49 3.33343 0.632719 1.25429 0.5
50 3.21696 1.94216 0.244592 0.5
