ITEM: TIMESTEP
740000
ITEM: NUMBER OF ATOMS
50
ITEM: BOX BOUNDS xy xz yz pp pp pp
0.0000000000000000e+00 3.9685030000000001e+00 0.0000000000000000e+00
0.0000000000000000e+00 3.9685030000000001e+00 0.0000000000000000e+00
0.0000000000000000e+00 3.9685030000000001e+00 0.0000000000000000e+00
ITEM: ATOMS id x y z radius
1 3.06596 0.0947871 3.40587 0.5
2 1.44924 3.39084 3.7282 0.5
3 2.15321 3.08287 1.29649 0.5
4 2.34617 0.440306 1.91536 0.5
5 0.190517 2.84535 1.10218 0.5
6 2.78857 1.11587 3.06379 0.5
7 3.60348 3.28018 2.85948 0.5
8 0.649053 0.502948 3.15739 0.5
9 0.648996 2.8386 2.36722 0.5
10 0.642726 0.328476 0.692372 0.5
11 1.62794 0.718385 0.134979 0.5
12 3.28648 2.79664 1.20628 0.5
13 0.935787 2.31247 1.41629 0.5
14 1.58666 0.771497 2.32953 0.5
15 0.534571 0.832798 2.27474 0.5
16 3.44228 0.701636 3.49282 0.5
17 3.579 0.401586 0.962029 0.5
18 0.776832 3.69202 2.5696 0.5
19 3.68266 2.72865 3.54044 0.5
20 0.0139729 1.65738 2.7507 0.5
21 0.119475 2.43892 0.228225 0.5
22 3.03383 1.71951 2.64995 0.5
23 2.94318 2.33165 3.28089 0.5
24 1.00416 2.91012 0.450513 0.5
25 0.725219 3.52681 1.82333 0.5
26 1.68472 1.62799 2.8234 0.5
27 3.9085 0.230519 2.65814 0.5
28 3.38126 2.04294 0.728068 0.5
29 0.378914 3.63143 3.96835 0.5
30 3.8039 3.35893 1.89231 0.5
31 1.47916 3.61217 0.905258 0.5
32 3.66147 0.963094 2.81156 0.5
33 3.46347 3.74231 0.147315 0.5
34 2.25629 1.44649 3.90854 0.5
35 2.64564 0.915805 0.732055 0.5
36 2.42433 0.240128 0.887756 0.5
37 2.71314 1.86235 1.36195 0.5
38 2.90497 2.38905 2.50079 0.5
39 3.70014 2.20024 1.9148 0.5
40 1.87647 2.34551 1.14824 0.5
41 0.506103 1.56556 1.91399 0.5
42 0.572909 1.28673 3.57322 0.5
43 1.13474 0.226927 2.01725 0.5
44 2.46288 3.22552 2.93047 0.5
45 1.56219 1.21603 1.76018 0.5
46 3.17554 1.58132 3.72248 0.5
47 2.61285 2.409 0.301007 0.5
48 3.64882 1.42011 1.18233 0.5
49 0.397865 1.17452 0.717211 0.5
50 3.49478 3.01674 0.358107 0.5
