ITEM: TIMESTEP
360000
ITEM: NUMBER OF ATOMS
50
ITEM: BOX BOUNDS xy xz yz pp pp pp
0.0000000000000000e+00 3.9685030000000001e+00 0.0000000000000000e+00
0.0000000000000000e+00 3.9685030000000001e+00 0.0000000000000000e+00
0.0000000000000000e+00 3.9685030000000001e+00 0.0000000000000000e+00
ITEM: ATOMS id x y z radius
1 1.43789 0.383939 0.594657 0.5
2 3.79895 3.61915 1.0342 0.5
3 0.777777 1.27964 3.25205 0.5
4 1.37449 2.38459 1.80496 0.5
5 0.528409 0.355549 2.83104 0.5
6 2.91296 2.75267 1.03246 0.5
7 2.96907 0.112534 3.35474 0.5
8 1.05792 2.48862 0.370304 0.5
9 2.34066 0.810264 1.09514 0.5
10 0.269053 2.11196 3.58555 0.5
11 0.25297 2.83297 1.79066 0.5
12 3.80966 1.60745 3.09708 0.5
13 2.96851 3.91142 1.20548 0.5
14 2.10803 1.5758 3.30201 0.5
15 1.51898 3.33795 0.420616 0.5
16 1.33686 3.92421 3.05817 0.5
17 3.62553 3.71408 2.54384 0.5
18 0.847492 3.12787 1.12467 0.5
19 0.103354 1.03263 3.616 0.5
20 0.0642953 2.70195 0.872923 0.5
21 3.09995 1.46205 3.46462 0.5
22 0.176591 3.35171 0.294181 0.5
23 1.99071 2.83916 1.12767 0.5
24 3.28305 2.35975 3.86006 0.5
25 0.820107 3.80755 0.103322 0.5
26 2.42908 1.84308 0.88953 0.5
27 1.20005 1.67104 2.31943 0.5
28 0.774891 1.23888 0.293751 0.5
29 0.864179 0.893707 1.60311 0.5
30 3.4849 3.28573 0.0987536 0.5
31 3.84635 0.839681 0.641208 0.5
32 0.570705 1.83226 2.58807 0.5
33 1.31751 1.96828 3.41865 0.5
34 2.40677 0.67474 2.31496 0.5
35 0.0954095 3.85175 3.47246 0.5
36 2.029 2.43074 0.0988439 0.5
37 0.633969 0.25424 1.01959 0.5
38 0.816679 1.71267 1.45227 0.5
39 2.41081 3.70703 2.6802 0.5
40 2.85159 0.401076 0.328046 0.5
41 3.82755 1.79482 0.383079 0.5
42 2.40555 2.36518 3.22692 0.5
43 1.10064 0.600011 3.58755 0.5
44 3.06137 0.314934 1.9778 0.5
45 0.363478 4.02215 1.93115 0.5
46 2.92228 2.33501 2.22085 0.5
47 1.68176 0.246806 2.26716 0.5
48 2.21677 0.134708 3.62498 0.5
49 2.12789 1.8535 1.89918 0.5
50 3.86303 1.00277 2.42098 0.5
