ITEM: TIMESTEP
100000
ITEM: NUMBER OF ATOMS
50
ITEM: BOX BOUNDS xy xz yz pp pp pp
0.0000000000000000e+00 3.9685030000000001e+00 0.0000000000000000e+00
0.0000000000000000e+00 3.9685030000000001e+00 0.0000000000000000e+00
0.0000000000000000e+00 3.9685030000000001e+00 0.0000000000000000e+00
ITEM: ATOMS id x y z radius
1 1.09304 0.0685226 2.83185 0.5
2 2.12292 3.48834 1.96005 0.5
3 1.67726 0.608415 1.55931 0.5
4 0.41097 2.4877 2.12462 0.5
5 0.346243 0.863713 0.727405 0.5
6 3.94649 2.4974 1.4915 0.5
7 0.2591 0.0728374 2.0134 0.5
8 0.615993 2.93277 1.13997 0.5
9 2.79845 1.59986 0.399707 0.5
10 3.64481 2.12194 2.5645 0.5
11 0.373625 3.81177 0.732382 0.5
12 2.47852 3.8751 0.968465 0.5
13 2.54915 0.181323 0.140972 0.5
14 0.844922 3.01809 3.09571 0.5
15 2.30321 1.82869 2.52875 0.5
16 0.11665 1.56971 2.34987 0.5
17 2.67728 3.43469 2.80378 0.5
18 3.7759 3.28574 1.31393 0.5
19 2.59036 0.710682 2.17256 0.5
20 3.34947 1.16606 2.76703 0.5
21 1.60592 1.28649 2.93398 0.5
22 0.107839 3.04584 3.06255 0.5
23 1.19112 3.80975 1.35835 0.5
24 1.03865 2.55765 0.532897 0.5
25 3.35641 3.43487 3.40356 0.5
26 2.87198 3.0682 0.923285 0.5
27 0.819765 1.02367 2.17693 0.5
28 1.89866 1.88802 3.94585 0.5
29 3.20497 2.72908 3.45128 0.5
30 1.61674 3.53403 3.80291 0.5
31 0.304927 3.75665 3.11004 0.5
32 0.390215 1.58516 1.54641 0.5
33 0.970562 1.96236 2.50776 0.5
34 0.427385 2.31431 3.13874 0.5
35 1.69692 2.01688 2.31863 0.5
36 0.179455 2.84862 3.72711 0.5
37 1.1985 2.11607 3.41392 0.5
38 3.56022 0.563509 0.148073 0.5
39 1.69056 3.1481 1.27212 0.5
40 2.01375 3.28394 0.483018 0.5
41 1.2701 3.43794 0.683545 0.5
42 3.5529 3.21899 2.32358 0.5
43 1.05506 1.00569 0.203028 0.5
44 1.78894 0.546677 0.266967 0.5
45 2.45446 1.06178 3.35568 0.5
46 3.65992 2.51582 0.430093 0.5
47 1.72298 3.19778 2.87474 0.5
48 2.20923 2.78885 3.44276 0.5
49 3.4532 3.59452 0.342584 0.5
50 3.48981 0.101121 2.69728 0.5
