ITEM: TIMESTEP
90000
ITEM: NUMBER OF ATOMS
50
ITEM: BOX BOUNDS xy xz yz pp pp pp
0.0000000000000000e+00 3.9685030000000001e+00 0.0000000000000000e+00
0.0000000000000000e+00 3.9685030000000001e+00 0.0000000000000000e+00
0.0000000000000000e+00 3.9685030000000001e+00 0.0000000000000000e+00
ITEM: ATOMS id x y z radius
1 2.97889 2.37434 0.709454 0.5
2 2.53969 2.39783 3.06017 0.5
3 3.6308 2.08546 0.108151 0.5
4 1.71871 3.31431 1.95159 0.5
5 3.30381 1.4827 0.456808 0.5
6 3.70691 0.487616 2.80565 0.5
7 3.54959 3.41186 3.96066 0.5
8 2.5738 0.4841 1.60905 0.5
9 0.70254 0.761079 0.702861 0.5
10 1.90935 1.83343 2.29925 0.5
11 1.57003 0.504098 0.91436 0.5
12 2.11478 0.213437 0.107411 0.5
13 0.299285 0.0869663 3.87149 0.5
14 3.97327 2.93479 1.62686 0.5
15 0.311407 1.50343 0.851226 0.5
16 1.55158 1.1545 1.76459 0.5
17 1.96237 2.68456 2.74503 0.5
18 0.637863 3.8744 2.65215 0.5
19 0.897372 1.94392 2.08517 0.5
20 3.09241 2.90948 1.93221 0.5
21 1.38138 2.18157 3.52108 0.5
22 0.951899 2.9746 1.27775 0.5
23 0.337778 1.0758 3.16525 0.5
24 0.485904 2.16858 1.26001 0.5
25 3.15589 1.06597 3.52069 0.5
26 2.64841 3.30722 0.157898 0.5
27 2.53124 3.50695 1.25886 0.5
28 1.36225 0.193936 3.17619 0.5
29 0.961063 3.28062 3.74715 0.5
30 1.43656 0.08778 2.06801 0.5
31 0.584331 1.06953 1.88665 0.5
32 1.42972 1.37795 2.71507 0.5
33 3.23738 0.0383898 1.75478 0.5
34 1.21147 2.58953 0.249942 0.5
35 3.12017 2.64106 2.92937 0.5
36 1.89998 0.407966 2.78923 0.5
37 2.57594 3.2387 2.6343 0.5
38 2.16624 1.81368 0.33623 0.5
39 0.815326 1.7332 3.5135 0.5
40 2.26724 1.78877 1.46243 0.5
41 1.45073 1.91702 0.948082 0.5
42 2.47752 1.3406 2.93694 0.5
43 0.0976166 2.75955 0.708621 0.5
44 3.66346 2.01761 2.29834 0.5
45 0.12024 3.21435 3.21067 0.5
46 2.89011 0.452773 2.68029 0.5
47 0.246206 3.73893 0.887271 0.5
48 3.07561 0.0692144 3.43528 0.5
49 1.45575 3.41429 0.600491 0.5
50 3.68211 3.28327 2.2189 0.5
