ITEM: TIMESTEP
410000
ITEM: NUMBER OF ATOMS
50
ITEM: BOX BOUNDS xy xz yz pp pp pp
0.0000000000000000e+00 3.9685030000000001e+00 0.0000000000000000e+00
0.0000000000000000e+00 3.9685030000000001e+00 0.0000000000000000e+00
0.0000000000000000e+00 3.9685030000000001e+00 0.0000000000000000e+00
ITEM: ATOMS id x y z radius
1 3.25803 1.64509 0.437115 0.5
2 3.46614 1.36145 1.62344 0.5
3 1.00248 2.45827 -0.0204419 0.5
4 3.6482 0.296155 1.69439 0.5
5 1.93496 3.35767 2.30713 0.5
6 3.87024 2.59262 1.77273 0.5
7 0.258516 1.9483 1.00913 0.5
8 1.82077 0.356884 0.775464 0.5
9 3.07022 1.70115 3.59999 0.5
10 3.00734 3.60294 1.55702 0.5
11 1.27257 1.62411 1.33931 0.5
12 2.83034 2.94167 2.10652 0.5
13 2.71349 2.72071 3.5019 0.5
14 3.82623 0.307973 0.766381 0.5
15 1.14475 3.67315 0.655441 0.5
16 0.324141 2.6371 2.85326 0.5
17 0.0763813 0.576108 3.34884 0.5
18 0.280873 2.26599 3.6863 0.5
19 0.159342 1.37104 0.068661 0.5
20 0.266747 1.01644 1.03543 0.5
21 1.56893 1.13243 0.211677 0.5
22 2.09498 1.62389 0.925154 0.5
23 0.329576 2.98801 0.549739 0.5
24 3.36202 1.96271 2.44976 0.5
25 3.10139 3.75098 0.13473 0.5
26 0.9172 0.728898 1.09279 0.5
27 0.847716 0.689377 0.2385 0.5
28 2.15213 3.57724 3.24348 0.5
29 3.40106 0.808236 3.88385 0.5
30 3.02784 2.45691 1.18533 0.5
31 1.58048 2.36348 0.496693 0.5
32 1.89536 3.40353 0.533182 0.5
33 1.24589 3.723 2.71542 0.5
34 2.42461 2.41094 0.174652 0.5
35 1.22841 2.93176 3.09077 0.5
36 3.54234 3.29102 1.26551 0.5
37 1.09677 3.24122 -0.00142434 0.5
38 1.14256 3.75482 1.73042 0.5
39 3.47789 1.15413 2.93492 0.5
40 3.76665 3.33718 2.24216 0.5
41 0.343422 0.0629798 1.87973 0.5
42 1.02502 0.942512 3.36036 0.5
43 2.52399 0.735868 0.186611 0.5
44 1.69198 0.164805 3.64315 0.5
45 0.76022 1.9267 2.52956 0.5
46 0.0078636 1.66665 2.98765 0.5
47 1.89016 2.84462 3.75281 0.5
48 1.39294 1.20826 2.45868 0.5
49 3.12942 3.40373 3.13794 0.5
50 3.54343 2.38795 0.506099 0.5
