ITEM: TIMESTEP
210000
ITEM: NUMBER OF ATOMS
50
ITEM: BOX BOUNDS xy xz yz pp pp pp
0.0000000000000000e+00 3.9685030000000001e+00 0.0000000000000000e+00
0.0000000000000000e+00 3.9685030000000001e+00 0.0000000000000000e+00
0.0000000000000000e+00 3.9685030000000001e+00 0.0000000000000000e+00
ITEM: ATOMS id x y z radius
1 0.0450033 2.16029 2.37884 0.5
2 0.89859 3.62 0.476091 0.5
3 3.27506 2.1678 0.552724 0.5
4 0.139668 3.26268 0.790229 0.5
5 3.93632 3.40368 2.90421 0.5
6 3.24176 1.21622 3.878 0.5
7 0.481586 1.65888 3.2809 0.5
8 1.10501 3.23648 2.1786 0.5
9 2.20746 3.33781 0.173366 0.5
10 0.815654 2.54751 2.77314 0.5
11 2.77851 1.8315 1.50882 0.5
12 0.133975 3.94557 1.50585 0.5
13 3.94684 1.80607 3.94752 0.5
14 2.633 1.53422 0.515974 0.5
15 2.89949 3.98268 0.629727 0.5
16 3.40586 3.05068 0.261791 0.5
17 2.57399 1.38942 2.28956 0.5
18 3.54466 0.467206 1.9782 0.5
19 0.653751 3.50526 3.41776 0.5
20 0.0793374 1.40801 0.703908 0.5
21 2.60565 2.47401 3.9328 0.5
22 3.8774 2.45666 3.15354 0.5
23 2.31059 1.21731 1.25762 0.5
24 3.4763 2.81155 1.29792 0.5
25 0.741322 0.853175 1.31691 0.5
26 0.799719 2.00494 0.791679 0.5
27 0.453109 2.8177 1.62002 0.5
28 3.04514 1.99803 3.52833 0.5
29 1.85169 1.93451 0.412408 0.5
30 2.59289 3.18543 1.75424 0.5
31 3.04234 3.12742 3.27635 0.5
32 1.45553 2.10218 3.50664 0.5
33 3.3607 1.32985 1.60396 0.5
34 2.02518 0.672744 0.242748 0.5
35 0.747703 1.67131 0.057574 0.5
36 0.101122 0.657635 2.94763 0.5
37 3.02666 0.90671 3.1929 0.5
38 1.54514 2.0887 2.39308 0.5
39 1.87461 0.104078 0.948441 0.5
40 0.96127 2.21872 2.07448 0.5
41 1.74015 1.35629 3.63945 0.5
42 3.47421 3.8418 1.14143 0.5
43 0.630158 2.55908 3.83008 0.5
44 1.09331 0.414366 2.70588 0.5
45 1.32324 1.49561 2.85083 0.5
46 3.2935 0.163783 3.63871 0.5
47 1.54523 1.05998 0.607377 0.5
48 0.626479 1.14083 2.11702 0.5
49 1.83516 2.33242 1.34119 0.5
50 2.49296 2.59992 2.23696 0.5
