ITEM: TIMESTEP
720000
ITEM: NUMBER OF ATOMS
50
ITEM: BOX BOUNDS xy xz yz pp pp pp
0.0000000000000000e+00 3.9685030000000001e+00 0.0000000000000000e+00
0.0000000000000000e+00 3.9685030000000001e+00 0.0000000000000000e+00
0.0000000000000000e+00 3.9685030000000001e+00 0.0000000000000000e+00
ITEM: ATOMS id x y z radius
1 2.36762 2.02452 2.92607 0.5
2 0.550534 1.97647 1.97232 0.5
3 2.74501 0.215622 2.35528 0.5
4 3.59696 3.34184 3.14166 0.5
5 1.91495 2.4397 2.45818 0.5
6 2.21378 3.08363 1.80146 0.5
7 1.35788 1.20877 0.689959 0.5
8 2.64172 0.330032 0.087519 0.5
9 3.19285 1.00049 0.935671 0.5
10 1.82684 3.74371 1.11995 0.5
11 3.22102 2.3976 3.48887 0.5
12 2.70448 3.72635 3.10188 0.5
13 2.63254 2.91436 2.90656 0.5
14 1.29767 1.05673 1.96564 0.5
15 3.25152 3.18386 0.193883 0.5
16 1.11234 3.22405 0.324583 0.5
17 2.40872 3.56313 0.642432 0.5
18 0.295947 0.106832 2.3684 0.5
19 1.66052 2.72702 3.26943 0.5
20 2.6558 1.62972 2.14395 0.5
21 0.558805 3.34652 1.51974 0.5
22 2.93454 2.47408 0.40446 0.5
23 0.973029 0.833228 3.49874 0.5
24 0.662512 1.10092 2.20172 0.5
25 1.38088 1.4974 3.57325 0.5
26 3.17338 2.49761 2.08578 0.5
27 0.362149 0.851604 1.24168 0.5
28 2.25508 3.13034 0.0333608 0.5
29 3.27461 3.9451 3.71396 0.5
30 1.83414 2.6073 0.480319 0.5
31 2.99525 3.45228 1.9511 0.5
32 0.455275 0.105063 0.462391 0.5
33 0.0564351 2.58445 2.03358 0.5
34 0.462966 1.73189 3.73679 0.5
35 3.92623 2.19939 3.0346 0.5
36 2.27901 1.09604 2.64367 0.5
37 2.27381 1.78674 0.66896 0.5
38 1.06891 0.211464 0.413864 0.5
39 3.89031 3.46618 2.22714 0.5
40 2.5292 2.50013 1.24426 0.5
41 0.943748 2.06056 1.29367 0.5
42 1.75741 3.9418 3.50892 0.5
43 3.51717 3.16826 1.34718 0.5
44 0.251546 0.968886 0.485375 0.5
45 3.75002 1.3995 3.58521 0.5
46 0.102247 2.65631 1.10937 0.5
47 2.98236 1.05528 1.76626 0.5
48 3.02138 1.42795 3.26483 0.5
49 0.208814 1.24131 3.01789 0.5
50 3.18259 3.86522 1.15316 0.5
