ITEM: TIMESTEP
350000
ITEM: NUMBER OF ATOMS
50
ITEM: BOX BOUNDS xy xz yz pp pp pp
0.0000000000000000e+00 3.9685030000000001e+00 0.0000000000000000e+00
0.0000000000000000e+00 3.9685030000000001e+00 0.0000000000000000e+00
0.0000000000000000e+00 3.9685030000000001e+00 0.0000000000000000e+00
ITEM: ATOMS id x y z radius
1 1.93658 1.63272 1.50559 0.5
2 0.42853 3.6107 3.0824 0.5
3 1.09298 0.995159 1.5847 0.5
4 2.08135 0.677285 1.69285 0.5
5 1.26739 3.73325 2.66755 0.5
6 1.28602 2.96405 1.41567 0.5
7 1.07945 0.319125 3.7489 0.5
8 0.564784 1.90823 2.86496 0.5
9 2.34078 0.122674 2.85248 0.5
10 1.52119 2.89729 3.6123 0.5
11 0.638157 3.19975 0.897518 0.5
12 3.74308 0.523338 0.0570968 0.5
13 2.81778 1.76349 1.52786 0.5
14 1.35353 1.60546 2.43223 0.5
15 0.450996 3.65529 0.0880068 0.5
16 3.73189 3.57127 3.48957 0.5
17 2.36072 3.18488 3.98846 0.5
18 2.52642 2.10579 2.1619 0.5
19 1.66398 2.83007 0.543783 0.5
20 2.21805 0.836005 3.4646 0.5
21 0.6035 1.6394 1.87622 0.5
22 0.700785 2.17258 1.08803 0.5
23 2.19236 2.49747 3.01832 0.5
24 3.58853 2.96031 1.79477 0.5
25 3.42896 3.66313 0.675216 0.5
26 0.52237 3.76121 1.95959 0.5
27 3.21734 1.35551 2.55918 0.5
28 2.85228 0.118728 0.155586 0.5
29 0.257281 1.90479 3.88348 0.5
30 1.34917 1.24027 3.50225 0.5
31 2.34579 1.86134 0.549334 0.5
32 3.29711 2.02747 0.495208 0.5
33 0.209274 0.470421 2.58645 0.5
34 2.68819 2.86535 1.54994 0.5
35 3.50796 3.62869 2.36647 0.5
36 1.14315 2.76751 2.65036 0.5
37 0.232166 0.96449 1.4445 0.5
38 1.55683 3.71601 0.198762 0.5
39 0.617307 2.84207 1.72741 0.5
40 2.90151 3.17306 3.20169 0.5
41 2.42496 1.63124 3.64887 0.5
42 2.26532 3.86202 1.87003 0.5
43 0.253277 0.956921 3.31957 0.5
44 3.86769 1.518 2.46525 0.5
45 1.32216 1.58684 0.484201 0.5
46 1.59942 0.528311 2.65545 0.5
47 0.664096 0.982114 0.255684 0.5
48 3.12857 0.705369 3.20416 0.5
49 3.26448 2.87738 0.0878074 0.5
50 1.67 0.714898 0.611199 0.5
