ITEM: TIMESTEP
790000
ITEM: NUMBER OF ATOMS
50
ITEM: BOX BOUNDS xy xz yz pp pp pp
0.0000000000000000e+00 3.9685030000000001e+00 0.0000000000000000e+00
0.0000000000000000e+00 3.9685030000000001e+00 0.0000000000000000e+00
0.0000000000000000e+00 3.9685030000000001e+00 0.0000000000000000e+00
ITEM: ATOMS id x y z radius
1 1.74617 0.590554 1.6664 0.5
2 2.17348 1.96293 0.618211 0.5
3 1.85683 0.396769 3.00255 0.5
4 0.263045 1.40878 1.63772 0.5
5 2.49763 2.59657 1.52518 0.5
6 1.06456 3.94684 3.0526 0.5
7 2.17786 2.52172 0.0365385 0.5
8 3.23125 3.42372 1.04542 0.5
9 2.53106 2.22787 2.24774 0.5
10 1.06013 2.29112 2.81217 0.5
11 2.22368 3.80939 2.58537 0.5
12 3.28614 1.5922 3.97287 0.5
13 1.10866 0.919472 0.32899 0.5
14 3.89557 2.07017 2.58609 0.5
15 0.296047 3.70394 2.32842 0.5
16 3.08929 3.2896 2.34247 0.5
17 0.860154 3.11263 2.47323 0.5
18 2.51186 1.08283 2.24684 0.5
19 1.89917 3.10589 0.956622 0.5
20 1.52453 0.398297 0.652723 0.5
21 0.89184 1.83165 1.37136 0.5
22 2.01204 2.13896 2.97884 0.5
23 2.40548 0.755778 0.816812 0.5
24 1.00764 0.0169902 1.47441 0.5
25 2.82388 1.77004 1.06566 0.5
26 3.26524 2.48055 0.961392 0.5
27 2.5224 3.52241 3.41364 0.5
28 1.80488 0.110336 3.85244 0.5
29 3.9492 3.67629 0.578926 0.5
30 1.41131 2.69369 1.73905 0.5
31 1.82381 1.10275 0.0586653 0.5
32 3.14588 1.19798 2.95341 0.5
33 3.181 1.01525 0.783615 0.5
34 1.23683 0.962854 1.35457 0.5
35 2.95067 2.9901 0.205694 0.5
36 2.46875 0.256357 1.73285 0.5
37 2.36244 1.65546 1.57663 0.5
38 0.620365 1.41999 3.16139 0.5
39 1.57236 1.66672 2.0825 0.5
40 0.777315 1.52974 0.499413 0.5
41 3.89853 2.75014 2.94537 0.5
42 2.64906 0.76714 0.140796 0.5
43 0.105166 0.868421 0.824119 0.5
44 1.35865 1.11931 3.14367 0.5
45 1.06517 1.78832 3.51182 0.5
46 0.802048 3.93482 0.171458 0.5
47 3.86629 0.936324 3.73886 0.5
48 2.45272 3.86699 0.477967 0.5
49 3.47089 1.63933 1.82304 0.5
50 3.48205 0.275739 0.101382 0.5
