ITEM: TIMESTEP
60000
ITEM: NUMBER OF ATOMS
50
ITEM: BOX BOUNDS xy xz yz pp pp pp
0.0000000000000000e+00 3.9685030000000001e+00 0.0000000000000000e+00
0.0000000000000000e+00 3.9685030000000001e+00 0.0000000000000000e+00
0.0000000000000000e+00 3.9685030000000001e+00 0.0000000000000000e+00
ITEM: ATOMS id x y z radius
1 0.546189 0.073606 2.3539 0.5
2 3.15194 0.12244 2.25887 0.5
3 1.5833 0.464129 0.141951 0.5
4 1.07839 0.708198 2.86774 0.5
5 1.77501 0.745947 2.9546 0.5
6 3.44258 2.30348 1.44252 0.5
7 2.32821 1.53074 2.73676 0.5
8 0.198172 3.47545 1.4274 0.5
9 3.66105 3.56477 2.88307 0.5
10 -0.00716816 1.65543 0.637484 0.5
11 2.27765 1.13195 2.11521 0.5
12 2.74095 0.93378 0.467949 0.5
13 2.62819 0.293449 1.70546 0.5
14 2.79099 1.92961 3.90158 0.5
15 0.628273 0.152652 1.01756 0.5
16 2.17454 3.3836 2.22442 0.5
17 0.309479 2.43005 0.850049 0.5
18 2.98982 3.0798 2.27863 0.5
19 3.4619 3.2055 1.07805 0.5
20 1.4531 3.33508 0.407034 0.5
21 3.80663 1.84417 3.4844 0.5
22 2.45921 2.65378 0.61827 0.5
23 0.39557 1.71844 1.38611 0.5
24 0.846875 1.03639 0.313524 0.5
25 3.30193 0.791659 2.90383 0.5
26 1.35122 1.52618 2.41855 0.5
27 0.0888364 3.67327 0.303282 0.5
28 2.97826 0.00971051 3.26302 0.5
29 3.63878 0.223714 1.62937 0.5
30 1.45408 2.36562 2.83026 0.5
31 0.4505 1.25916 3.18111 0.5
32 0.830434 1.98782 3.98575 0.5
33 1.12361 3.42785 1.4958 0.5
34 1.85753 0.0674887 1.54799 0.5
35 2.77763 1.31583 3.44265 0.5
36 2.08242 0.150512 2.44329 0.5
37 3.22227 2.52395 3.08863 0.5
38 1.95537 3.28913 1.11531 0.5
39 1.40395 2.53347 0.725489 0.5
40 1.52524 3.56466 2.49999 0.5
41 1.68328 2.45572 3.53937 0.5
42 0.253832 0.953511 2.22566 0.5
43 1.76556 3.43372 3.32138 0.5
44 3.55571 0.687607 0.20805 0.5
45 3.13876 1.78342 2.62712 0.5
46 3.48305 2.68156 0.0794764 0.5
47 2.31007 2.9208 2.87453 0.5
48 1.0132 3.46556 3.72372 0.5
49 2.30485 3.37528 0.275489 0.5
50 0.472757 2.95205 2.26173 0.5
