ITEM: TIMESTEP
990000
ITEM: NUMBER OF ATOMS
50
ITEM: BOX BOUNDS xy xz yz pp pp pp
0.0000000000000000e+00 3.9685030000000001e+00 0.0000000000000000e+00
0.0000000000000000e+00 3.9685030000000001e+00 0.0000000000000000e+00
0.0000000000000000e+00 3.9685030000000001e+00 0.0000000000000000e+00
ITEM: ATOMS id x y z radius
1 3.25121 1.00241 0.776732 0.5
2 1.83522 1.43639 3.14721 0.5
3 3.44405 1.58902 1.42389 0.5
4 3.92419 2.33932 0.965046 0.5
5 0.522275 0.522148 1.12526 0.5
6 2.32576 3.37845 2.87842 0.5
7 1.74774 0.702652 3.57072 0.5
8 2.68993 1.42777 3.72265 0.5
9 1.28397 0.808713 2.98951 0.5
10 3.16908 2.51376 1.69421 0.5
11 0.0573432 0.307472 3.09872 0.5
12 3.72104 0.0763666 0.836818 0.5
13 3.73271 0.609613 1.52683 0.5
14 3.97135 1.4518 0.678033 0.5
15 3.12504 1.69724 2.31876 0.5
16 3.22552 3.88491 3.1307 0.5
17 1.99629 2.44001 1.76784 0.5
18 0.311374 2.8479 1.69594 0.5
19 3.5339 1.43366 3.09019 0.5
20 1.80754 1.76837 1.03229 0.5
21 1.6968 3.621 1.15847 0.5
22 1.07633 1.98799 0.643244 0.5
23 1.33428 3.78562 3.51868 0.5
24 2.09877 1.14293 0.453461 0.5
25 1.04974 2.39266 1.94185 0.5
26 2.78978 2.5307 2.55225 0.5
27 2.79118 0.698963 2.8349 0.5
28 2.13917 3.11064 1.8475 0.5
29 0.620452 3.86377 0.155554 0.5
30 0.383062 0.961199 2.4407 0.5
31 1.45868 2.48422 1.13416 0.5
32 3.47157 0.868964 3.73112 0.5
33 0.242288 0.599116 3.92814 0.5
34 1.08151 1.50652 1.59124 0.5
35 2.14155 0.0652483 0.455317 0.5
36 1.44434 0.933147 1.94125 0.5
37 2.49119 0.570804 1.2682 0.5
38 1.44496 3.52488 2.16446 0.5
39 2.50218 2.91999 0.69263 0.5
40 2.59157 0.306704 3.69508 0.5
41 0.879712 2.64661 2.88168 0.5
42 0.848407 3.65585 0.967381 0.5
43 2.04837 0.27184 2.60433 0.5
44 2.45586 3.42201 3.84791 0.5
45 1.01275 2.88867 3.90044 0.5
46 3.4779 3.14568 0.895925 0.5
47 1.40785 0.355723 1.04848 0.5
48 0.853195 0.478065 1.76866 0.5
49 1.59757 1.66723 2.23081 0.5
50 1.60593 2.57847 3.76833 0.5
