ITEM: TIMESTEP
870000
ITEM: NUMBER OF ATOMS
50
ITEM: BOX BOUNDS xy xz yz pp pp pp
0.0000000000000000e+00 3.9685030000000001e+00 0.0000000000000000e+00
0.0000000000000000e+00 3.9685030000000001e+00 0.0000000000000000e+00
0.0000000000000000e+00 3.9685030000000001e+00 0.0000000000000000e+00
ITEM: ATOMS id x y z radius
1 1.56094 1.46252 3.52713 0.5
2 3.83526 0.438111 1.28847 0.5
3 1.71939 2.40568 1.35675 0.5
4 2.72846 3.4029 1.72032 0.5
5 0.525933 3.29362 3.64763 0.5
6 0.148787 3.049 0.499224 0.5
7 2.53954 2.40437 3.6349 0.5
8 2.37418 0.706904 3.35167 0.5
9 2.99981 1.80327 2.14554 0.5
10 0.0902072 2.56223 3.08697 0.5
11 2.98201 3.79772 0.938051 0.5
12 0.328719 1.92319 0.687154 0.5
13 2.58132 3.12069 1.00198 0.5
14 2.34862 1.88333 2.76958 0.5
15 1.49534 2.11833 2.34155 0.5
16 1.79882 1.15284 2.57808 0.5
17 3.21505 1.79652 1.24444 0.5
18 1.41815 3.05251 3.64397 0.5
19 3.15836 0.479169 3.91832 0.5
20 2.76219 3.10576 0.0701294 0.5
21 3.57177 3.10851 1.33873 0.5
22 1.15742 0.826721 3.11832 0.5
23 0.817346 0.969814 0.0208015 0.5
24 3.46412 3.82313 2.37902 0.5
25 3.20168 2.02431 2.97882 0.5
26 0.689948 0.365994 2.36208 0.5
27 0.240154 0.869094 3.14851 0.5
28 2.98325 2.93345 2.30347 0.5
29 1.13723 3.91873 0.178189 0.5
30 1.9509 3.71227 0.755725 0.5
31 0.853994 2.56687 2.8828 0.5
32 0.427203 0.951252 1.22388 0.5
33 0.911323 2.81869 0.972361 0.5
34 1.75526 3.79136 3.88661 0.5
35 0.528914 1.85692 3.89217 0.5
36 3.01308 0.401714 1.94519 0.5
37 3.52705 0.710957 0.619755 0.5
38 2.69503 1.0317 2.75669 0.5
39 0.833719 1.62906 2.84666 0.5
40 0.0306456 1.80053 1.82007 0.5
41 2.66363 2.36531 1.20325 0.5
42 0.657029 0.0119301 1.23052 0.5
43 1.71654 2.16677 0.499186 0.5
44 2.21775 1.49366 0.841829 0.5
45 2.23646 0.490919 1.39281 0.5
46 0.944721 2.25371 1.5893 0.5
47 1.23276 0.722697 1.70881 0.5
48 1.72361 0.760325 0.40549 0.5
49 1.4784 3.77148 2.13831 0.5
50 3.50349 1.05367 3.67217 0.5
