ITEM: TIMESTEP
640000
ITEM: NUMBER OF ATOMS
50
ITEM: BOX BOUNDS xy xz yz pp pp pp
0.0000000000000000e+00 3.9685030000000001e+00 0.0000000000000000e+00
0.0000000000000000e+00 3.9685030000000001e+00 0.0000000000000000e+00
0.0000000000000000e+00 3.9685030000000001e+00 0.0000000000000000e+00
ITEM: ATOMS id x y z radius
1 1.79131 2.87591 1.64689 0.5
2 2.12743 3.05844 3.44979 0.5
3 0.799775 0.114573 2.87328 0.5
4 1.47441 1.68713 0.429796 0.5
5 2.41372 3.41096 2.31754 0.5
6 0.585823 3.77365 3.66864 0.5
7 0.748002 2.1533 0.208485 0.5
8 3.55348 3.35228 0.654778 0.5
9 3.22722 0.868103 2.72298 0.5
10 2.43658 1.84998 3.55218 0.5
11 3.26159 1.69988 2.73779 0.5
12 3.54734 1.4067 1.15059 0.5
13 2.47272 1.22001 1.17285 0.5
14 3.00331 2.88797 2.9222 0.5
15 3.43333 3.28155 3.64276 0.5
16 0.489315 1.39709 1.68479 0.5
17 1.52971 2.16767 3.45216 0.5
18 1.89104 1.76218 3.04655 0.5
19 1.87058 0.822957 0.26651 0.5
20 1.94602 1.96256 1.6238 0.5
21 3.69365 2.66191 1.83284 0.5
22 1.34724 0.4214 3.51995 0.5
23 0.426174 3.20746 2.5942 0.5
24 2.82424 1.41199 3.97369 0.5
25 3.23362 0.674277 3.59896 0.5
26 1.95729 3.76083 0.377295 0.5
27 0.0453665 0.261653 2.25247 0.5
28 2.70334 0.460568 2.10229 0.5
29 3.04779 3.6708 1.5636 0.5
30 0.507088 3.70401 1.14047 0.5
31 0.986008 2.26521 1.58504 0.5
32 3.75619 1.92939 0.191629 0.5
33 0.219495 2.0732 2.39482 0.5
34 1.06369 0.350469 1.99512 0.5
35 2.33703 2.48906 2.67707 0.5
36 0.790677 2.47103 3.25027 0.5
37 2.08192 1.88938 0.463771 0.5
38 0.0124271 1.10005 3.76322 0.5
39 2.60627 2.74677 1.93952 0.5
40 0.641152 2.9263 1.71787 0.5
41 1.96018 3.90722 1.44614 0.5
42 1.01532 2.8749 0.0324911 0.5
43 1.57304 2.36689 0.863463 0.5
44 1.53602 1.43524 2.45892 0.5
45 2.55646 2.41893 1.11634 0.5
46 0.839563 1.11542 2.48707 0.5
47 1.17955 3.62992 0.245411 0.5
48 2.69383 3.23699 0.269547 0.5
49 1.83742 2.72562 0.316316 0.5
50 0.700768 1.15745 0.200751 0.5
