ITEM: TIMESTEP
320000
ITEM: NUMBER OF ATOMS
50
ITEM: BOX BOUNDS xy xz yz pp pp pp
0.0000000000000000e+00 3.9685030000000001e+00 0.0000000000000000e+00
0.0000000000000000e+00 3.9685030000000001e+00 0.0000000000000000e+00
0.0000000000000000e+00 3.9685030000000001e+00 0.0000000000000000e+00
ITEM: ATOMS id x y z radius
1 0.919278 0.547421 2.95615 0.5
2 2.77705 0.79424 1.38916 0.5
3 1.94706 2.81916 2.36925 0.5
4 2.08793 3.40802 0.141853 0.5
5 3.92255 2.89824 0.721806 0.5
6 2.96985 2.15024 1.05144 0.5
7 3.77639 0.886921 1.33504 0.5
8 1.85999 1.5042 0.842072 0.5
9 2.94849 1.74646 3.5472 0.5
10 3.0418 3.11244 2.26413 0.5
11 1.38273 3.50947 2.08363 0.5
12 1.96754 2.17084 2.1074 0.5
13 2.59175 2.91311 1.66041 0.5
14 2.17162 2.27858 0.357042 0.5
15 3.47424 1.89221 2.97967 0.5
16 3.69005 1.28831 3.83384 0.5
17 3.65933 3.63403 3.09153 0.5
18 2.13043 0.238429 3.68357 0.5
19 0.625711 0.175067 3.84144 0.5
20 3.01659 0.449458 0.402541 0.5
21 2.55312 1.41467 2.73041 0.5
22 0.523339 3.04286 3.45484 0.5
23 0.35607 1.73636 1.3739 0.5
24 3.00121 3.57251 3.7719 0.5
25 0.938382 3.20734 1.17359 0.5
26 3.28499 2.69814 3.74985 0.5
27 1.28841 1.71818 1.5827 0.5
28 1.58885 3.72239 0.95136 0.5
29 2.597 1.27181 0.540972 0.5
30 1.23281 3.72171 3.03003 0.5
31 0.689238 1.07401 0.837914 0.5
32 1.49164 0.73151 1.35094 0.5
33 0.701601 3.32848 2.52744 0.5
34 1.45703 0.899302 0.0622843 0.5
35 3.092 3.51401 1.35201 0.5
36 0.402819 3.69009 1.83114 0.5
37 2.64227 3.1615 0.651949 0.5
38 3.48029 1.68347 1.90186 0.5
39 1.02065 1.54162 3.50865 0.5
40 3.20798 0.599159 2.15882 0.5
41 2.04656 1.82776 3.43829 0.5
42 0.472318 0.977494 3.72603 0.5
43 0.716665 1.51518 2.80354 0.5
44 3.56939 1.58032 0.854869 0.5
45 2.79261 2.17714 2.45177 0.5
46 2.29367 1.28176 1.85821 0.5
47 0.60902 3.43461 0.508813 0.5
48 2.43316 0.0626772 1.09745 0.5
49 1.98628 3.61215 3.04121 0.5
50 1.25126 1.91365 0.581518 0.5
