ITEM: TIMESTEP
80000
ITEM: NUMBER OF ATOMS
50
ITEM: BOX BOUNDS xy xz yz pp pp pp
0.0000000000000000e+00 3.9685030000000001e+00 0.0000000000000000e+00
0.0000000000000000e+00 3.9685030000000001e+00 0.0000000000000000e+00
0.0000000000000000e+00 3.9685030000000001e+00 0.0000000000000000e+00
ITEM: ATOMS id x y z radius
1 0.912415 3.55349 2.09634 0.5
2 1.75119 1.0488 3.71168 0.5
3 0.0226069 2.66554 2.20446 0.5
4 3.80861 0.886497 1.64052 0.5
5 0.0141197 3.53448 1.89546 0.5
6 0.517311 0.215895 1.84985 0.5
7 3.95762 0.491935 2.4839 0.5
8 1.5422 1.39586 0.757321 0.5
9 1.26448 0.660729 1.4898 0.5
10 2.33239 1.0961 0.449202 0.5
11 3.66836 2.14022 0.693442 0.5
12 0.85337 2.9314 2.94206 0.5
13 2.40289 0.138139 3.62725 0.5
14 3.32278 2.5412 1.55797 0.5
15 2.9388 0.63127 1.14009 0.5
16 2.10551 0.673618 1.20872 0.5
17 0.905518 1.36646 0.168487 0.5
18 2.97969 2.76113 3.56437 0.5
19 2.20933 2.89446 2.39726 0.5
20 2.18598 1.81712 2.34446 0.5
21 1.16843 2.0903 2.50309 0.5
22 1.48614 3.06464 1.30456 0.5
23 0.69539 2.27982 3.70195 0.5
24 1.58915 0.0152841 0.78454 0.5
25 1.07669 1.32228 2.94702 0.5
26 0.0291221 1.47244 0.784085 0.5
27 3.08654 2.2803 2.47972 0.5
28 0.591343 1.2947 2.0386 0.5
29 2.31769 2.98835 1.44474 0.5
30 0.657055 0.607718 0.824589 0.5
31 3.58065 1.4548 2.84634 0.5
32 0.448392 3.06112 1.2121 0.5
33 1.16564 1.91516 1.06485 0.5
34 1.39899 0.502286 0.330304 0.5
35 2.84803 2.58992 0.744255 0.5
36 2.09413 2.19158 1.00213 0.5
37 3.0611 3.45081 1.32268 0.5
38 2.97353 3.24705 2.30702 0.5
39 1.76849 2.18743 0.0808594 0.5
40 2.63531 1.79223 3.6525 0.5
41 2.45435 3.42869 3.08645 0.5
42 0.947465 3.15704 3.90693 0.5
43 0.81023 2.3793 1.75018 0.5
44 2.79023 1.35127 2.7627 0.5
45 0.142902 -0.0418844 1.17655 0.5
46 0.541187 0.264407 3.82678 0.5
47 2.982 0.730613 3.73131 0.5
48 1.76004 1.19373 2.25416 0.5
49 2.40017 3.93545 1.7126 0.5
50 3.57993 1.57206 3.75719 0.5
