ITEM: TIMESTEP
70000
ITEM: NUMBER OF ATOMS
50
ITEM: BOX BOUNDS xy xz yz pp pp pp
0.0000000000000000e+00 3.9685030000000001e+00 0.0000000000000000e+00
0.0000000000000000e+00 3.9685030000000001e+00 0.0000000000000000e+00
0.0000000000000000e+00 3.9685030000000001e+00 0.0000000000000000e+00
ITEM: ATOMS id x y z radius
1 3.51842 2.26126 0.761611 0.5
2 0.56238 1.43806 0.417656 0.5
3 2.04321 0.38287 0.213199 0.5
4 1.51508 3.30293 2.89897 0.5
5 2.4263 0.893054 0.810946 0.5
6 3.18957 2.79125 3.2791 0.5
7 1.15924 2.767 1.18014 0.5
8 1.36515 3.4824 1.9974 0.5
9 3.83466 2.50506 1.61376 0.5
10 2.52906 0.502788 2.08009 0.5
11 0.488283 3.60004 1.81142 0.5
12 1.84338 2.97217 0.563803 0.5
13 0.977143 0.494547 1.16755 0.5
14 3.19832 1.99036 3.81522 0.5
15 3.03544 3.68145 3.03485 0.5
16 0.220759 1.09917 1.31572 0.5
17 3.94683 3.06539 1.1006 0.5
18 0.853101 2.4302 2.83015 0.5
19 0.291358 0.444295 2.16564 0.5
20 1.11802 3.78189 0.377879 0.5
21 0.470398 2.19909 1.23004 0.5
22 3.17622 1.44865 0.665096 0.5
23 2.28358 2.5259 2.05847 0.5
24 0.918062 0.410957 3.14502 0.5
25 3.61624 3.05713 0.31554 0.5
26 1.06528 1.23955 1.78803 0.5
27 2.22674 2.87695 3.35157 0.5
28 2.87304 1.21072 3.44042 0.5
29 0.11765 3.06553 3.39647 0.5
30 3.64702 1.60073 2.12196 0.5
31 2.88343 1.87368 2.67708 0.5
32 0.350911 1.7601 2.19344 0.5
33 1.78824 0.367362 2.76987 0.5
34 3.00293 3.22489 2.1712 0.5
35 2.74298 3.27972 0.0593617 0.5
36 2.75982 2.03237 1.37523 0.5
37 2.02388 1.80051 3.09909 0.5
38 2.81997 3.16125 1.11525 0.5
39 2.11391 1.48296 1.97968 0.5
40 1.75859 3.59277 1.17643 0.5
41 1.31612 1.24599 1.1051 0.5
42 1.35343 2.58164 3.81893 0.5
43 0.685627 3.05353 0.485402 0.5
44 1.74317 3.70111 3.60001 0.5
45 1.05619 0.137566 2.44938 0.5
46 0.0544216 1.29014 3.01009 0.5
47 0.469664 2.44981 0.42054 0.5
48 3.09369 0.877769 1.74108 0.5
49 1.44298 2.10203 2.08425 0.5
50 0.805619 3.56061 3.31518 0.5
