ITEM: TIMESTEP
450000
ITEM: NUMBER OF ATOMS
50
ITEM: BOX BOUNDS xy xz yz pp pp pp
0.0000000000000000e+00 3.9685030000000001e+00 0.0000000000000000e+00
0.0000000000000000e+00 3.9685030000000001e+00 0.0000000000000000e+00
0.0000000000000000e+00 3.9685030000000001e+00 0.0000000000000000e+00
ITEM: ATOMS id x y z radius
1 3.73957 2.84631 0.400226 0.5
2 2.27101 0.235871 1.09091 0.5
3 0.762204 3.96305 2.88227 0.5
4 0.824273 0.485468 0.551469 0.5
5 1.73172 0.372424 3.8967 0.5
6 3.28813 0.528038 0.765281 0.5
7 1.63128 2.29429 3.36306 0.5
8 0.422182 1.41683 0.0643926 0.5
9 1.83422 3.27258 0.0584 0.5
10 3.87591 1.97485 0.639553 0.5
11 0.804826 2.76663 0.977258 0.5
12 2.97677 2.22013 2.1374 0.5
13 2.98179 2.73142 2.92494 0.5
14 2.82199 2.20659 0.336454 0.5
15 2.29732 0.948864 3.56215 0.5
16 3.04848 1.48079 0.741643 0.5
17 3.77372 2.68628 2.17915 0.5
18 1.63585 0.836089 1.03738 0.5
19 2.44813 1.99523 2.71261 0.5
20 0.691855 3.27326 0.193269 0.5
21 1.73579 3.3548 1.05734 0.5
22 2.93438 3.34357 2.61147 0.5
23 3.69832 1.63994 3.9523 0.5
24 3.71795 3.71379 1.63466 0.5
25 0.587218 2.14688 3.99811 0.5
26 1.17784 3.25884 2.52111 0.5
27 2.35317 0.742532 0.266446 0.5
28 0.709943 0.644897 3.79387 0.5
29 1.51725 2.65088 0.493086 0.5
30 0.620202 0.140326 1.73265 0.5
31 3.34631 2.98664 3.6503 0.5
32 1.56682 3.96759 1.88758 0.5
33 2.45252 2.77679 3.79121 0.5
34 0.424067 3.6626 1.29073 0.5
35 3.58598 0.804917 0.0646545 0.5
36 1.99629 1.75584 0.872641 0.5
37 0.931084 1.38552 3.1402 0.5
38 3.22588 0.466903 1.8984 0.5
39 2.49614 3.48464 1.71089 0.5
40 3.32568 0.381749 3.30762 0.5
41 0.773993 2.32131 2.62803 0.5
42 3.80978 1.4982 2.20736 0.5
43 0.232838 2.63931 3.47582 0.5
44 1.09929 1.86574 1.00897 0.5
45 1.24981 1.37267 0.0773713 0.5
46 3.4733 0.56589 2.58963 0.5
47 0.251748 0.967062 3.09272 0.5
48 0.683621 2.19032 1.72791 0.5
49 3.12307 1.42129 3.39673 0.5
50 3.7195 2.47376 1.20061 0.5
