ITEM: TIMESTEP
900000
ITEM: NUMBER OF ATOMS
50
ITEM: BOX BOUNDS xy xz yz pp pp pp
0.0000000000000000e+00 3.9685030000000001e+00 0.0000000000000000e+00
0.0000000000000000e+00 3.9685030000000001e+00 0.0000000000000000e+00
0.0000000000000000e+00 3.9685030000000001e+00 0.0000000000000000e+00
ITEM: ATOMS id x y z radius
1 1.21031 3.14258 1.05774 0.5
2 3.28175 0.411606 0.497692 0.5
3 0.200072 2.22125 2.17713 0.5
4 1.18232 0.0234098 2.17923 0.5
5 0.437801 0.49199 0.691259 0.5
6 3.59113 1.7782 1.37862 0.5
7 2.39764 1.84251 0.584686 0.5
8 2.75232 1.24131 0.192692 0.5
9 1.30379 2.32496 2.18696 0.5
10 0.833939 3.02609 2.63232 0.5
11 2.58564 2.40803 3.87992 0.5
12 1.22028 2.02047 3.29255 0.5
13 1.75268 3.15009 2.19516 0.5
14 2.49017 0.806362 2.05601 0.5
15 3.26608 2.48611 1.45695 0.5
16 0.322432 1.48081 1.1613 0.5
17 0.523379 2.94602 0.634233 0.5
18 2.03292 2.83306 0.300028 0.5
19 2.61998 0.76224 1.23526 0.5
20 3.08939 2.16999 2.21338 0.5
21 2.19224 3.69122 0.700052 0.5
22 3.87458 2.05731 2.8895 0.5
23 2.1856 3.64085 1.47859 0.5
24 3.19097 1.79439 3.39375 0.5
25 0.95959 0.943937 2.97316 0.5
26 3.33203 1.10663 0.991047 0.5
27 1.42618 0.0859774 1.02702 0.5
28 1.92239 0.363089 3.07643 0.5
29 0.962273 3.00783 1.82536 0.5
30 2.15851 0.679731 0.214896 0.5
31 2.35061 2.69018 2.52988 0.5
32 0.329118 2.50222 1.2978 0.5
33 3.38386 2.66382 0.438362 0.5
34 1.90113 1.10588 1.62584 0.5
35 0.55996 3.05158 3.30781 0.5
36 3.32662 0.433853 2.76414 0.5
37 3.40862 1.07749 1.96556 0.5
38 3.82748 1.75262 3.86985 0.5
39 0.615438 3.84823 2.95426 0.5
40 3.53027 2.57343 3.40548 0.5
41 1.12258 1.37666 1.86985 0.5
42 1.38516 2.37245 3.85442 0.5
43 3.09234 3.59736 2.64288 0.5
44 0.761048 1.99398 0.374778 0.5
45 1.94426 1.83064 1.96555 0.5
46 2.42318 3.00053 3.33164 0.5
47 1.50589 2.9884 3.17148 0.5
48 0.570252 0.68859 1.64868 0.5
49 3.58037 3.53035 3.2019 0.5
50 1.79593 1.1439 2.77035 0.5
