ITEM: TIMESTEP
810000
ITEM: NUMBER OF ATOMS
50
ITEM: BOX BOUNDS xy xz yz pp pp pp
0.0000000000000000e+00 3.9685030000000001e+00 0.0000000000000000e+00
0.0000000000000000e+00 3.9685030000000001e+00 0.0000000000000000e+00
0.0000000000000000e+00 3.9685030000000001e+00 0.0000000000000000e+00
ITEM: ATOMS id x y z radius
1 1.87021 1.22767 1.61569 0.5
2 3.83017 1.92351 0.738229 0.5
3 1.8754 3.61155 2.3607 0.5
4 2.81199 3.26348 2.74891 0.5
5 1.2283 1.81407 1.99213 0.5
6 3.34542 1.22211 0.386284 0.5
7 1.05118 3.08596 3.45867 0.5
8 3.42405 3.73513 3.60897 0.5
9 3.04114 2.89322 1.67598 0.5
10 3.73626 1.11244 1.16888 0.5
11 0.12839 0.0904051 1.03961 0.5
12 1.71645 3.90062 0.673229 0.5
13 1.99274 3.25328 3.31726 0.5
14 3.29627 0.640234 2.56992 0.5
15 1.14049 3.52135 0.438302 0.5
16 0.579721 2.32532 1.67177 0.5
17 2.88426 3.32394 0.110814 0.5
18 2.01444 3.0438 0.362644 0.5
19 2.02139 0.0721476 1.66892 0.5
20 0.532984 2.62116 2.99454 0.5
21 1.22156 1.6392 2.87049 0.5
22 1.02122 3.56104 1.52281 0.5
23 2.87805 1.02288 3.41643 0.5
24 3.13282 1.87716 2.07918 0.5
25 2.33571 2.40477 2.50738 0.5
26 0.430961 3.18935 2.41535 0.5
27 2.65957 1.65647 0.879812 0.5
28 2.80705 1.9476 0.215026 0.5
29 1.77464 2.13492 0.8688 0.5
30 1.32268 2.78678 2.38231 0.5
31 2.57879 2.61885 3.6679 0.5
32 3.61206 3.11657 2.96479 0.5
33 1.33956 0.693711 1.25232 0.5
34 2.60488 3.66794 0.946162 0.5
35 3.49371 3.0549 0.898026 0.5
36 2.56558 0.729348 2.52806 0.5
37 0.516496 2.77907 0.0538849 0.5
38 2.7388 0.438792 1.02272 0.5
39 1.55356 0.811828 3.50264 0.5
40 0.855229 0.900979 1.98429 0.5
41 3.49748 2.50474 3.88177 0.5
42 2.07467 1.545 3.8659 0.5
43 3.82608 1.18238 2.50979 0.5
44 3.00952 0.792947 1.76473 0.5
45 3.83335 0.13273 2.27827 0.5
46 1.17329 0.591323 0.33649 0.5
47 1.42402 2.41932 1.51285 0.5
48 2.62716 2.73855 0.839057 0.5
49 3.27783 0.101876 0.33734 0.5
50 3.9104 3.40629 1.72039 0.5
