ITEM: TIMESTEP
30000
ITEM: NUMBER OF ATOMS
50
ITEM: BOX BOUNDS xy xz yz pp pp pp
0.0000000000000000e+00 3.9685030000000001e+00 0.0000000000000000e+00
0.0000000000000000e+00 3.9685030000000001e+00 0.0000000000000000e+00
0.0000000000000000e+00 3.9685030000000001e+00 0.0000000000000000e+00
ITEM: ATOMS id x y z radius
1 3.77897 2.13894 3.41588 0.5
2 0.360222 3.3192 2.27368 0.5
3 2.67519 0.686472 1.2894 0.5
4 0.864122 3.85002 1.52988 0.5
5 1.2259 1.57201 0.127037 0.5
6 0.122345 3.72569 3.25286 0.5
7 0.332207 0.80035 3.23564 0.5
8 3.63073 1.32023 1.88329 0.5
9 1.70785 0.361548 3.31905 0.5
10 1.05288 2.35164 3.58308 0.5
11 0.707081 2.1643 2.88755 0.5
12 1.09735 2.89883 1.9559 0.5
13 1.43569 2.62016 2.82824 0.5
14 3.40719 3.64235 1.93736 0.5
15 3.38962 0.548039 3.34878 0.5
16 3.69819 1.95291 2.48922 0.5
17 3.00897 0.714175 2.25247 0.5
18 1.14628 0.452436 1.0463 0.5
19 3.70964 1.60354 1.02521 0.5
20 2.79075 1.58147 0.913896 0.5
21 2.18051 0.928634 3.29074 0.5
22 2.79748 1.60997 1.72288 0.5
23 2.93911 2.92389 2.80669 0.5
24 3.77762 1.22618 3.90633 0.5
25 2.00756 3.22434 3.06632 0.5
26 1.04605 1.44286 0.984257 0.5
27 2.23361 1.23213 0.00979693 0.5
28 1.97441 1.88809 3.70824 0.5
29 0.964922 1.23288 2.51358 0.5
30 3.17145 1.42117 3.14592 0.5
31 3.08112 2.84191 3.68091 0.5
32 3.45671 2.89945 1.24502 0.5
33 3.34137 0.610733 0.859631 0.5
34 2.00139 2.66256 2.1897 0.5
35 2.52966 2.43282 1.11053 0.5
36 1.31737 3.26049 1.28435 0.5
37 1.99762 1.14433 1.88939 0.5
38 3.50123 3.64779 3.99676 0.5
39 1.29549 1.32828 3.30541 0.5
40 2.46029 2.4757 0.219976 0.5
41 3.63505 2.34107 0.432136 0.5
42 2.61973 2.10901 3.27502 0.5
43 1.91056 1.6506 1.21033 0.5
44 0.24559 0.165129 3.90023 0.5
45 2.10553 1.67188 2.71044 0.5
46 0.604115 1.19982 1.82433 0.5
47 0.468711 3.12283 0.136135 0.5
48 1.05127 3.9241 0.169014 0.5
49 2.71874 2.28053 2.13848 0.5
50 1.10556 1.95674 2.17316 0.5
