ITEM: TIMESTEP
400000
ITEM: NUMBER OF ATOMS
50
ITEM: BOX BOUNDS xy xz yz pp pp pp
0.0000000000000000e+00 3.9685030000000001e+00 0.0000000000000000e+00
0.0000000000000000e+00 3.9685030000000001e+00 0.0000000000000000e+00
0.0000000000000000e+00 3.9685030000000001e+00 0.0000000000000000e+00
ITEM: ATOMS id x y z radius
1 3.20342 0.417251 3.30469 0.5
2 1.55628 1.90549 0.959236 0.5
3 3.22053 1.90699 3.73537 0.5
4 2.93956 0.577718 2.37203 0.5
5 0.712619 1.95729 2.74637 0.5
6 0.703621 3.51023 3.14415 0.5
7 1.46393 2.50261 2.01482 0.5
8 2.48787 3.62028 3.15439 0.5
9 0.364328 0.555849 0.858921 0.5
10 1.89971 1.05225 0.325077 0.5
11 1.19884 0.894014 2.10651 0.5
12 0.952488 2.78009 1.27918 0.5
13 1.24381 1.55591 3.51537 0.5
14 1.71238 1.57493 2.76158 0.5
15 3.09817 3.55171 2.30667 0.5
16 1.45441 3.09262 3.21296 0.5
17 2.68975 3.1628 1.53504 0.5
18 0.879964 2.50703 3.54906 0.5
19 2.77499 0.196461 0.042023 0.5
20 2.00803 3.07559 0.166484 0.5
21 3.65839 1.63118 0.694192 0.5
22 3.72943 2.58856 3.06119 0.5
23 2.20293 0.530962 2.41666 0.5
24 3.41305 2.56323 1.10442 0.5
25 1.15215 2.7011 0.381013 0.5
26 0.260184 1.8598 3.18644 0.5
27 1.87818 3.721 3.76262 0.5
28 3.95665 1.69894 2.36516 0.5
29 0.727111 2.06895 1.75258 0.5
30 2.9906 1.65393 2.84447 0.5
31 2.45217 1.83355 1.9271 0.5
32 0.129926 2.07751 0.0745099 0.5
33 2.14459 3.63382 1.90636 0.5
34 1.24454 0.313165 1.11769 0.5
35 3.92045 0.252132 2.51498 0.5
36 2.08411 0.39247 3.26588 0.5
37 1.71621 2.18212 3.9334 0.5
38 1.03513 1.41666 0.547655 0.5
39 2.7684 2.5893 3.4892 0.5
40 2.21441 1.28049 3.48028 0.5
41 1.15023 0.875239 2.97548 0.5
42 0.377031 0.921701 3.36491 0.5
43 2.33866 0.144575 0.62954 0.5
44 3.09344 2.47614 2.40826 0.5
45 2.55322 0.31418 1.57421 0.5
46 2.61978 1.44903 0.968446 0.5
47 1.46951 3.31931 0.920493 0.5
48 0.0855817 3.93475 0.183301 0.5
49 2.30693 2.20175 2.74761 0.5
50 0.50629 2.16901 0.843914 0.5
