ITEM: TIMESTEP
280000
ITEM: NUMBER OF ATOMS
50
ITEM: BOX BOUNDS xy xz yz pp pp pp
0.0000000000000000e+00 3.9685030000000001e+00 0.0000000000000000e+00
0.0000000000000000e+00 3.9685030000000001e+00 0.0000000000000000e+00
0.0000000000000000e+00 3.9685030000000001e+00 0.0000000000000000e+00
ITEM: ATOMS id x y z radius
1 3.07563 0.708094 2.11813 0.5
2 3.34841 1.35242 3.68213 0.5
3 0.325559 1.00469 1.29654 0.5
4 1.21093 3.0895 3.01313 0.5
5 3.24915 2.04802 1.04895 0.5
6 2.84305 0.0153102 0.648575 0.5
7 0.360439 1.25576 0.447639 0.5
8 2.27975 1.32619 3.93857 0.5
9 1.89703 3.57371 0.741931 0.5
10 3.88218 3.54263 0.285876 0.5
11 2.23482 1.26436 1.48449 0.5
12 3.10583 0.985834 1.23789 0.5
13 2.66529 2.93796 1.28531 0.5
14 2.27552 3.34352 3.47712 0.5
15 1.87987 0.505726 0.308497 0.5
16 0.830755 0.105065 0.487682 0.5
17 3.82101 1.22972 2.74949 0.5
18 1.76737 0.966512 2.70136 0.5
19 1.11076 2.41491 3.52835 0.5
20 2.98127 0.0526236 2.91273 0.5
21 0.151821 3.04017 2.53546 0.5
22 2.43452 2.69813 2.61211 0.5
23 0.00294842 2.40028 1.5681 0.5
24 0.871406 2.94432 1.90719 0.5
25 3.64875 2.66837 3.82156 0.5
26 1.17419 2.26901 0.444386 0.5
27 2.89985 1.82999 1.79118 0.5
28 1.04186 1.69766 0.0916949 0.5
29 0.357063 3.82637 3.56513 0.5
30 1.48071 0.760217 3.3547 0.5
31 3.22668 2.95929 1.9226 0.5
32 2.29349 0.357572 1.53541 0.5
33 0.648853 2.96988 0.690216 0.5
34 1.33439 0.591362 1.1239 0.5
35 0.10355 0.47784 3.91951 0.5
36 3.28582 3.07543 3.14323 0.5
37 1.9234 2.27377 3.52199 0.5
38 0.740922 2.54144 2.68648 0.5
39 0.219614 1.3997 1.94439 0.5
40 0.935648 1.71482 1.50115 0.5
41 2.2601 3.91842 3.76874 0.5
42 0.859758 1.60297 2.84674 0.5
43 1.61817 3.64043 2.00378 0.5
44 0.781687 0.823385 3.72348 0.5
45 3.76812 0.488167 3.04071 0.5
46 3.09324 3.6266 3.99594 0.5
47 1.38226 3.04524 0.0900341 0.5
48 0.801172 0.892806 2.93736 0.5
49 3.47647 3.24179 1.32535 0.5
50 0.814424 3.66223 2.69351 0.5
