ITEM: TIMESTEP
340000
ITEM: NUMBER OF ATOMS
50
ITEM: BOX BOUNDS xy xz yz pp pp pp
0.0000000000000000e+00 3.9685030000000001e+00 0.0000000000000000e+00
0.0000000000000000e+00 3.9685030000000001e+00 0.0000000000000000e+00
0.0000000000000000e+00 3.9685030000000001e+00 0.0000000000000000e+00
ITEM: ATOMS id x y z radius
1 1.40529 0.250492 2.63377 0.5
2 2.92033 3.10275 0.79474 0.5
3 0.696374 2.20214 1.24646 0.5
4 2.5154 0.243965 2.19138 0.5
5 2.73315 1.13844 0.846506 0.5
6 1.02337 0.521768 0.102837 0.5
7 3.69284 2.35958 0.856231 0.5
8 1.94748 1.919 2.59912 0.5
9 2.09249 3.41387 0.98968 0.5
10 1.91027 0.0803065 0.100346 0.5
11 0.580726 3.65961 0.38777 0.5
12 0.748284 2.83814 2.78423 0.5
13 3.21859 1.18901 3.17345 0.5
14 1.71491 0.918611 2.03491 0.5
15 0.474418 0.804463 3.38099 0.5
16 0.382262 1.66863 3.5139 0.5
17 0.326097 1.97894 0.347807 0.5
18 1.7287 2.60519 3.55088 0.5
19 1.3215 3.72238 2.07 0.5
20 2.95141 1.96298 3.2886 0.5
21 1.78297 0.185513 1.27491 0.5
22 3.63841 3.38945 0.201956 0.5
23 2.91654 1.22632 3.90146 0.5
24 1.014 1.41675 2.83168 0.5
25 2.50706 2.73014 3.33965 0.5
26 1.54387 0.740199 3.39947 0.5
27 0.935924 0.584181 0.83991 0.5
28 2.85167 0.257457 0.186519 0.5
29 0.722094 3.24589 1.3208 0.5
30 1.7203 0.9051 0.419213 0.5
31 0.0715414 2.35418 3.20048 0.5
32 1.11015 2.19009 2.12382 0.5
33 0.402172 0.749035 0.224037 0.5
34 1.29376 2.68899 1.57467 0.5
35 3.15194 2.45415 0.207019 0.5
36 3.00168 0.3911 1.38878 0.5
37 3.61192 2.93008 1.71152 0.5
38 2.02679 2.59424 0.288665 0.5
39 1.31648 1.49282 3.97505 0.5
40 3.0995 0.598915 2.72538 0.5
41 0.637522 0.457181 2.26049 0.5
42 2.61928 3.9075 3.24159 0.5
43 2.63521 1.27629 2.50028 0.5
44 3.68087 1.37789 0.0483303 0.5
45 2.34976 1.78171 0.968503 0.5
46 2.86153 2.46794 2.26529 0.5
47 0.389654 3.88801 2.92259 0.5
48 -0.000140124 3.72713 1.91897 0.5
49 2.22349 1.75737 0.00750358 0.5
50 2.27565 0.877305 3.46428 0.5
