ITEM: TIMESTEP
620000
ITEM: NUMBER OF ATOMS
50
ITEM: BOX BOUNDS xy xz yz pp pp pp
0.0000000000000000e+00 3.9685030000000001e+00 0.0000000000000000e+00
0.0000000000000000e+00 3.9685030000000001e+00 0.0000000000000000e+00
0.0000000000000000e+00 3.9685030000000001e+00 0.0000000000000000e+00
ITEM: ATOMS id x y z radius
1 1.71845 1.53192 0.558141 0.5
2 0.880034 3.08582 1.62049 0.5
3 2.73737 2.46884 2.12965 0.5
4 3.10975 2.55449 1.17782 0.5
5 1.86465 3.51596 1.25965 0.5
6 0.0603157 2.41235 1.61911 0.5
7 0.944294 1.3208 0.630153 0.5
8 2.78793 0.619042 2.62706 0.5
9 3.47987 3.29575 3.19763 0.5
10 0.039418 3.21287 1.07403 0.5
11 2.83999 1.61862 2.91794 0.5
12 1.79053 0.707817 0.022813 0.5
13 2.3512 3.12726 2.69475 0.5
14 1.49507 3.32758 2.33991 0.5
15 3.48571 2.96573 2.31837 0.5
16 3.04176 3.61207 2.07541 0.5
17 1.3056 2.85908 0.849506 0.5
18 2.35422 0.669133 1.61149 0.5
19 3.79255 0.000694442 2.80323 0.5
20 2.13415 0.104172 0.761034 0.5
21 0.267914 0.089427 0.0742823 0.5
22 0.107344 3.5794 1.99271 0.5
23 2.48383 1.05348 0.728827 0.5
24 0.39317 0.73619 2.67778 0.5
25 2.17706 2.35473 0.711275 0.5
26 2.61277 2.62444 3.3642 0.5
27 3.56914 1.9946 2.88663 0.5
28 1.95055 2.6471 1.76481 0.5
29 3.03419 -0.000127601 3.54971 0.5
30 0.952585 1.93405 2.17657 0.5
31 2.62724 1.55173 0.000397455 0.5
32 0.875315 0.055562 2.00357 0.5
33 0.675656 2.1839 1.10709 0.5
34 3.14376 1.89654 3.54653 0.5
35 3.05163 0.409656 0.446048 0.5
36 2.02202 2.07057 3.33285 0.5
37 3.39821 0.448764 1.99238 0.5
38 0.702237 3.15069 0.168614 0.5
39 3.35028 2.44131 0.372406 0.5
40 3.60486 3.64491 0.275297 0.5
41 1.12609 0.748233 2.9455 0.5
42 3.67541 1.31939 2.09625 0.5
43 3.25107 0.861124 1.13664 0.5
44 1.54753 2.03749 1.28502 0.5
45 0.692361 3.27992 2.79529 0.5
46 1.75652 2.32831 2.60004 0.5
47 1.28292 2.54133 3.54568 0.5
48 0.986933 2.09294 0.212199 0.5
49 2.99628 3.33664 0.362288 0.5
50 0.184764 2.73791 3.21881 0.5
