ITEM: TIMESTEP
390000
ITEM: NUMBER OF ATOMS
50
ITEM: BOX BOUNDS xy xz yz pp pp pp
0.0000000000000000e+00 3.9685030000000001e+00 0.0000000000000000e+00
0.0000000000000000e+00 3.9685030000000001e+00 0.0000000000000000e+00
0.0000000000000000e+00 3.9685030000000001e+00 0.0000000000000000e+00
ITEM: ATOMS id x y z radius
1 1.28817 2.75076 3.3222 0.5
2 1.09823 1.97441 0.0184463 0.5
3 0.833896 3.29588 2.95453 0.5
4 0.823616 1.98887 1.40881 0.5
5 3.16372 2.39588 2.96412 0.5
6 1.64275 1.2761 3.35304 0.5
7 0.301189 2.81892 0.0950904 0.5
8 3.14094 0.411209 3.79933 0.5
9 1.94681 2.9407 2.6341 0.5
10 3.89094 2.48759 1.36114 0.5
11 2.49947 1.85789 1.1926 0.5
12 1.93729 1.32796 2.32736 0.5
13 0.543071 0.118464 3.48357 0.5
14 0.40675 1.13223 0.555629 0.5
15 1.37074 0.196082 0.951673 0.5
16 2.70226 0.557912 1.97465 0.5
17 3.33043 1.5151 3.1028 0.5
18 1.96107 2.39829 0.465603 0.5
19 1.9432 1.01353 1.14939 0.5
20 1.72809 3.3877 0.463412 0.5
21 2.57999 0.336555 1.17976 0.5
22 2.40284 0.629216 3.0404 0.5
23 3.18033 2.99354 3.92663 0.5
24 3.13476 3.51987 0.694647 0.5
25 3.29655 2.09586 2.07529 0.5
26 3.25768 3.66945 3.43609 0.5
27 1.05177 1.07606 0.840686 0.5
28 0.900262 2.76975 2.19043 0.5
29 0.487346 0.807619 1.48421 0.5
30 0.951303 1.16396 3.94034 0.5
31 2.61539 3.37823 3.00886 0.5
32 3.81423 3.7554 2.56222 0.5
33 2.63604 1.4018 0.441103 0.5
34 1.94356 2.76187 1.48677 0.5
35 3.27935 1.42513 1.49164 0.5
36 3.81321 3.20208 1.10414 0.5
37 1.14869 3.57825 2.08277 0.5
38 3.72709 0.232422 0.904926 0.5
39 2.72899 2.70211 1.04939 0.5
40 0.506384 3.35374 1.14897 0.5
41 2.13622 2.19592 2.99131 0.5
42 0.795933 0.395962 1.75102 0.5
43 2.61916 1.37642 1.83563 0.5
44 1.5031 0.493282 2.2279 0.5
45 2.67569 2.42054 3.80548 0.5
46 0.269718 2.44743 2.90408 0.5
47 3.42117 3.71079 1.72144 0.5
48 2.1678 2.96428 3.50084 0.5
49 2.2126 3.50307 1.16972 0.5
50 2.8712 2.92262 1.98922 0.5
