ITEM: TIMESTEP
910000
ITEM: NUMBER OF ATOMS
50
ITEM: BOX BOUNDS xy xz yz pp pp pp
0.0000000000000000e+00 3.9685030000000001e+00 0.0000000000000000e+00
0.0000000000000000e+00 3.9685030000000001e+00 0.0000000000000000e+00
0.0000000000000000e+00 3.9685030000000001e+00 0.0000000000000000e+00
ITEM: ATOMS id x y z radius
1 3.20587 3.95952 1.39895 0.5
2 3.65728 0.90015 1.72255 0.5
3 2.93872 3.81896 2.94029 0.5
4 3.63248 0.238304 0.269735 0.5
5 1.66679 3.68524 0.554734 0.5
6 3.33059 3.49716 3.77692 0.5
7 3.82181 0.232977 2.71345 0.5
8 3.72036 1.86442 0.863644 0.5
9 1.98604 2.52512 1.61455 0.5
10 3.5071 1.23392 2.68726 0.5
11 2.74085 3.63845 0.70005 0.5
12 1.79131 3.37111 3.38138 0.5
13 3.33586 2.04242 3.21314 0.5
14 1.21421 0.442606 1.96011 0.5
15 0.157317 3.91501 3.64976 0.5
16 3.19819 3.0386 2.37374 0.5
17 3.621 0.849318 1.0626 0.5
18 0.252664 3.80807 1.51888 0.5
19 3.12573 2.33984 1.70963 0.5
20 1.73761 0.706173 0.593559 0.5
21 3.21235 0.378328 3.45316 0.5
22 1.85833 2.86948 0.234596 0.5
23 0.778505 3.67417 2.87744 0.5
24 2.26031 2.98391 2.60374 0.5
25 0.733937 2.386 1.26521 0.5
26 3.954 0.735764 3.51199 0.5
27 1.55412 1.91275 0.481454 0.5
28 1.69078 1.809 3.47646 0.5
29 0.0569239 1.55898 3.4255 0.5
30 3.59382 2.87768 1.01431 0.5
31 3.7631 2.49002 0.131057 0.5
32 0.300747 1.80534 1.81357 0.5
33 1.45347 0.282418 2.69286 0.5
34 0.420605 2.7617 1.67464 0.5
35 2.17252 0.312206 3.00356 0.5
36 3.75737 3.41146 2.95853 0.5
37 0.631274 1.3714 0.633183 0.5
38 1.14153 2.99093 2.22564 0.5
39 2.68857 0.670406 0.981967 0.5
40 2.62842 2.99388 1.5062 0.5
41 0.394275 0.938704 2.24298 0.5
42 0.631147 2.33753 2.57205 0.5
43 1.06789 3.75723 1.14793 0.5
44 3.41019 1.09273 0.0507237 0.5
45 0.846259 2.92392 3.28544 0.5
46 3.68933 2.03087 2.25515 0.5
47 3.55016 3.15192 1.75048 0.5
48 2.25432 3.90975 1.27347 0.5
49 0.277163 3.25915 0.574577 0.5
50 1.23631 1.28071 1.77211 0.5
