ITEM: TIMESTEP
140000
ITEM: NUMBER OF ATOMS
50
ITEM: BOX BOUNDS xy xz yz pp pp pp
0.0000000000000000e+00 3.9685030000000001e+00 0.0000000000000000e+00
0.0000000000000000e+00 3.9685030000000001e+00 0.0000000000000000e+00
0.0000000000000000e+00 3.9685030000000001e+00 0.0000000000000000e+00
ITEM: ATOMS id x y z radius
1 3.61039 3.87677 2.22533 0.5
2 2.0841 3.69267 3.89656 0.5
3 3.27734 1.94619 2.76776 0.5
4 0.749186 3.95476 3.6544 0.5
5 0.162109 3.50252 0.0408556 0.5
6 0.419045 3.3982 1.74483 0.5
7 1.85507 0.310781 1.81267 0.5
8 0.0469663 1.61349 0.297636 0.5
9 2.72454 0.203133 2.53348 0.5
10 3.53895 3.73225 3.3375 0.5
11 0.137828 1.27823 1.10535 0.5
12 1.79229 0.750894 3.65891 0.5
13 2.86392 0.780402 1.63749 0.5
14 0.969387 3.31991 2.74187 0.5
15 0.0846864 2.39452 0.960899 0.5
16 1.90638 0.521327 0.615832 0.5
17 3.42194 3.27485 1.19463 0.5
18 0.779209 0.971188 0.0528237 0.5
19 1.80341 3.01532 2.38641 0.5
20 0.735857 3.02241 0.888383 0.5
21 2.51784 2.43772 2.12717 0.5
22 0.244364 2.75981 3.29951 0.5
23 1.9603 0.503469 2.65337 0.5
24 0.678164 3.91302 0.521184 0.5
25 2.78921 3.53292 3.93906 0.5
26 2.11705 3.75855 2.90979 0.5
27 0.727172 0.0545242 2.11321 0.5
28 0.235651 0.273994 2.97946 0.5
29 1.54318 3.08114 1.48817 0.5
30 0.967406 1.70595 2.41746 0.5
31 1.75544 1.95831 1.80127 0.5
32 1.15882 0.238489 1.12141 0.5
33 3.02116 2.69983 0.662866 0.5
34 0.798344 1.8813 0.622529 0.5
35 2.6866 0.0488297 0.688061 0.5
36 3.5403 0.983262 3.15957 0.5
37 2.31592 1.12955 2.25412 0.5
38 0.25012 0.370333 1.34358 0.5
39 2.45596 1.04539 0.95299 0.5
40 1.77512 3.66195 0.765396 0.5
41 1.23625 0.0927957 3.1336 0.5
42 3.61928 2.58293 0.167336 0.5
43 3.43559 0.440954 0.0166347 0.5
44 0.0112922 3.08725 2.4985 0.5
45 2.64956 3.74627 1.7617 0.5
46 0.746038 2.62759 2.43111 0.5
47 2.87066 1.73471 0.398562 0.5
48 0.660376 1.73694 3.21954 0.5
49 3.39935 0.808699 0.704248 0.5
50 3.67789 0.703935 1.92144 0.5
