ITEM: TIMESTEP
120000
ITEM: NUMBER OF ATOMS
50
ITEM: BOX BOUNDS xy xz yz pp pp pp
0.0000000000000000e+00 3.9685030000000001e+00 0.0000000000000000e+00
0.0000000000000000e+00 3.9685030000000001e+00 0.0000000000000000e+00
0.0000000000000000e+00 3.9685030000000001e+00 0.0000000000000000e+00
ITEM: ATOMS id x y z radius
1 2.00444 1.39981 2.54018 0.5
2 1.73189 1.35143 0.37665 0.5
3 2.50113 3.63764 3.95684 0.5
4 1.82036 0.801692 1.26237 0.5
5 3.46568 1.81135 3.11169 0.5
6 3.71642 0.0894727 1.03681 0.5
7 2.59289 1.03713 3.87673 0.5
8 0.949609 2.61131 3.39182 0.5
9 2.43825 3.79837 1.95827 0.5
10 0.167912 1.70664 1.8959 0.5
11 0.742264 3.85708 3.78453 0.5
12 2.01813 3.57026 1.431 0.5
13 3.30512 0.282919 2.50794 0.5
14 2.94635 2.27396 2.31798 0.5
15 1.21712 1.42457 1.21945 0.5
16 0.268759 2.29375 2.54357 0.5
17 2.85713 2.63365 1.42305 0.5
18 3.43222 3.85782 3.90879 0.5
19 2.19729 2.03038 1.03807 0.5
20 2.45072 2.97736 3.33381 0.5
21 2.13119 0.625627 2.70097 0.5
22 2.84387 3.79806 2.9555 0.5
23 1.81551 2.71965 1.26194 0.5
24 1.53789 1.01786 1.9631 0.5
25 3.50392 0.907464 3.72654 0.5
26 0.195605 2.0004 0.859143 0.5
27 3.47361 2.88232 2.85088 0.5
28 0.78205 2.20184 1.32621 0.5
29 2.48902 0.813075 0.798492 0.5
30 3.41074 1.85369 0.0483879 0.5
31 1.02589 1.69234 3.5422 0.5
32 1.78418 2.30979 3.05968 0.5
33 1.78728 2.78535 0.116601 0.5
34 3.06906 3.39692 1.36124 0.5
35 1.53551 3.40741 2.83779 0.5
36 0.636927 1.0783 0.878095 0.5
37 3.14465 2.59906 3.63374 0.5
38 2.39376 3.04199 2.06868 0.5
39 0.828421 3.75783 1.24639 0.5
40 0.120777 3.14717 3.64131 0.5
41 1.1569 2.3947 0.55572 0.5
42 0.652339 3.4378 2.32396 0.5
43 2.0424 2.25023 1.99055 0.5
44 0.720047 0.420007 2.08614 0.5
45 3.84205 3.42785 1.84659 0.5
46 1.68921 3.50685 0.733126 0.5
47 1.91867 0.424528 3.69046 0.5
48 0.572361 3.02221 0.89281 0.5
49 2.90314 3.88135 0.580874 0.5
50 3.88183 2.78596 1.03934 0.5
