ITEM: TIMESTEP
480000
ITEM: NUMBER OF ATOMS
50
ITEM: BOX BOUNDS xy xz yz pp pp pp
0.0000000000000000e+00 3.9685030000000001e+00 0.0000000000000000e+00
0.0000000000000000e+00 3.9685030000000001e+00 0.0000000000000000e+00
0.0000000000000000e+00 3.9685030000000001e+00 0.0000000000000000e+00
ITEM: ATOMS id x y z radius
1 3.06332 2.34398 3.47346 0.5
2 3.48572 2.92944 2.5274 0.5
3 2.32773 3.43297 3.92961 0.5
4 3.66428 3.63145 0.230526 0.5
5 1.32741 2.89134 1.60464 0.5
6 3.02431 2.00615 0.312757 0.5
7 0.712198 2.35027 2.20987 0.5
8 1.12526 3.34553 2.71694 0.5
9 1.93339 3.39011 2.50787 0.5
10 0.606141 1.98311 3.6522 0.5
11 2.63178 0.443983 3.81079 0.5
12 2.62303 2.67195 2.72903 0.5
13 2.83642 0.297793 2.8365 0.5
14 3.01682 1.03504 3.54826 0.5
15 2.80232 0.745013 1.26661 0.5
16 2.54716 1.32536 2.00788 0.5
17 3.94428 2.92842 1.21648 0.5
18 3.3327 1.27417 1.37681 0.5
19 1.03583 -0.0276094 3.3541 0.5
20 2.88362 2.01647 2.59013 0.5
21 1.0503 3.79952 2.02689 0.5
22 1.34883 1.79541 2.66497 0.5
23 2.23106 1.58101 3.20959 0.5
24 3.08102 0.484569 2.04635 0.5
25 1.22746 2.48288 0.367732 0.5
26 2.61626 3.62072 0.851399 0.5
27 1.32715 0.844969 2.67275 0.5
28 0.874571 3.53487 1.03302 0.5
29 2.28031 0.139222 1.92843 0.5
30 1.23011 0.791866 1.63916 0.5
31 1.43599 1.34822 0.615607 0.5
32 0.361838 0.238725 1.63977 0.5
33 1.78644 2.60206 2.60119 0.5
34 1.32867 1.85385 3.43408 0.5
35 1.5137 3.10513 3.46023 0.5
36 0.127791 1.2831 2.85018 0.5
37 2.05526 0.669705 2.68976 0.5
38 1.47468 0.152006 0.0448764 0.5
39 2.2255 2.63466 0.391359 0.5
40 1.96872 2.00262 2.24684 0.5
41 0.123991 2.78381 3.95538 0.5
42 3.07333 2.90316 1.02097 0.5
43 0.463627 0.148882 2.74363 0.5
44 1.63937 2.14261 1.08093 0.5
45 2.44754 2.43224 1.75483 0.5
46 1.86616 3.95216 3.10082 0.5
47 3.47189 1.99702 0.937268 0.5
48 3.61428 0.30696 2.985 0.5
49 1.46822 1.11933 3.54556 0.5
50 2.07468 1.42547 0.0599956 0.5
