ITEM: TIMESTEP
680000
ITEM: NUMBER OF ATOMS
50
ITEM: BOX BOUNDS xy xz yz pp pp pp
0.0000000000000000e+00 3.9685030000000001e+00 0.0000000000000000e+00
0.0000000000000000e+00 3.9685030000000001e+00 0.0000000000000000e+00
0.0000000000000000e+00 3.9685030000000001e+00 0.0000000000000000e+00
ITEM: ATOMS id x y z radius
1 1.9832 1.85302 3.06191 0.5
2 2.37395 2.29847 0.0523912 0.5
3 1.55488 2.80845 2.47125 0.5
4 2.37654 2.69988 2.71632 0.5
5 2.0685 0.746851 2.69042 0.5
6 1.81299 2.87557 0.846624 0.5
7 3.93862 1.67017 3.00912 0.5
8 2.79208 1.28012 1.4768 0.5
9 2.43742 3.5566 2.11311 0.5
10 0.520408 3.18876 2.95111 0.5
11 1.38598 2.64827 0.158703 0.5
12 3.65318 1.23987 2.07144 0.5
13 1.48377 1.10847 1.95982 0.5
14 2.00198 1.39955 3.76805 0.5
15 1.37557 0.202736 0.514912 0.5
16 3.35768 2.09374 3.68648 0.5
17 3.50302 3.53034 3.68236 0.5
18 0.443496 2.82653 0.0432013 0.5
19 1.17637 1.10159 3.27327 0.5
20 2.80739 2.86081 3.75376 0.5
21 3.27566 3.41554 1.93898 0.5
22 1.91291 1.02903 0.409205 0.5
23 0.149899 4.00578 2.90232 0.5
24 0.61649 3.08653 1.01002 0.5
25 1.0038 1.79291 2.55875 0.5
26 3.61926 0.119679 0.235826 0.5
27 0.496899 2.48081 2.07736 0.5
28 2.56456 1.78745 3.29038 0.5
29 2.144 0.589611 1.55281 0.5
30 2.72865 1.92366 0.846305 0.5
31 2.65132 3.12266 1.40327 0.5
32 3.83713 3.51618 0.736432 0.5
33 0.894725 2.30944 3.35285 0.5
34 3.60827 2.45831 0.300698 0.5
35 1.04965 0.402345 1.54193 0.5
36 1.62865 1.91249 0.174992 0.5
37 2.03089 3.43521 3.87813 0.5
38 2.95323 3.12115 0.685954 0.5
39 0.503506 1.62949 0.851413 0.5
40 0.291252 0.748898 3.24674 0.5
41 3.2041 0.381957 2.51073 0.5
42 3.68751 1.23485 3.82492 0.5
43 0.498355 0.76593 0.911831 0.5
44 3.06387 0.149174 1.42884 0.5
45 3.09436 2.17654 2.17079 0.5
46 2.14196 0.523371 3.90962 0.5
47 3.93946 2.5564 1.45123 0.5
48 2.49801 0.743583 3.24917 0.5
49 1.48368 1.20609 1.1782 0.5
50 0.0619024 0.576871 1.63267 0.5
