LAMMPS Description

1000 atoms

2 atom types
0 10.357442 xlo xhi
0 10.357442 ylo yhi
0 10.357442 zlo zhi


Atoms # sphere

1 1 1 2.35 1.12018 5.36452 2.41298
2 1 1 2.35 2.83401 6.03342 1.62674
3 2 0.5 2.35 6.09871 2.31252 10.1486
4 2 0.5 2.35 1.13974 1.32702 4.78475
5 2 0.5 2.35 9.67991 3.47197 6.62488
6 2 0.5 2.35 0.274987 3.81217 8.99084
7 2 0.5 2.35 4.39997 9.74344 4.39811
8 2 0.5 2.35 0.271339 5.85746 2.3514
9 2 0.5 2.35 8.63812 0.493587 2.81318
10 2 0.5 2.35 8.57867 7.84996 5.72738
11 2 0.5 2.35 10.0414 9.21998 2.0625
12 2 0.5 2.35 8.08779 2.51501 0.777268
13 2 0.5 2.35 5.30099 8.18701 4.08811
14 2 0.5 2.35 3.58015 1.54284 0.994362
15 2 0.5 2.35 0.181166 6.2506 6.42798
16 2 0.5 2.35 0.10444 8.48034 7.91187
17 1 1 2.35 6.77074 1.17884 7.79636
18 2 0.5 2.35 2.83631 8.68973 8.22685
19 2 0.5 2.35 6.34355 4.213 8.08332
20 2 0.5 2.35 1.51912 0.903666 1.53188
21 2 0.5 2.35 0.818743 1.60459 8.97791
22 2 0.5 2.35 5.4019 9.45255 4.46686
23 2 0.5 2.35 3.64692 1.84309 1.07052
24 2 0.5 2.35 2.72255 3.27877 5.72918
25 2 0.5 2.35 7.04409 1.00967 5.27984
26 2 0.5 2.35 4.66137 3.84622 8.66372
27 2 0.5 2.35 2.12311 7.73921 9.29459
28 2 0.5 2.35 9.87751 7.11965 7.86771
29 2 0.5 2.35 1.3575 10.2891 4.96543
30 2 0.5 2.35 0.237351 7.98488 6.7723
31 2 0.5 2.35 0.922558 7.50465 4.63194
32 2 0.5 2.35 8.17689 7.44102 1.74791
33 2 0.5 2.35 9.81533 10.1244 2.34322
34 2 0.5 2.35 0.0150298 3.00055 9.06015
35 2 0.5 2.35 6.98209 2.72187 1.07269
36 2 0.5 2.35 8.93437 0.284416 10.1049
37 2 0.5 2.35 2.68518 7.02305 3.28106
38 2 0.5 2.35 6.30786 10.2096 1.16037
39 2 0.5 2.35 4.88152 2.69138 3.91855
40 2 0.5 2.35 6.52023 4.4719 6.39131
41 2 0.5 2.35 7.32836 9.03772 4.64106
42 1 1 2.35 5.74516 7.69739 3.07834
43 2 0.5 2.35 1.14397 7.7699 5.00143
44 2 0.5 2.35 10.0787 1.05514 4.34946
45 2 0.5 2.35 6.12827 7.09264 8.22424
46 2 0.5 2.35 1.73061 9.28491 5.92334
47 2 0.5 2.35 4.524 9.09896 2.90866
48 2 0.5 2.35 10.333 0.13502 4.70907
49 2 0.5 2.35 7.14872 5.37894 7.98819
50 2 0.5 2.35 9.2604 10.1848 3.61307
51 2 0.5 2.35 9.01956 10.2813 1.09864
52 2 0.5 2.35 5.35035 7.90399 1.0842
53 2 0.5 2.35 7.8314 6.49841 2.52371
54 2 0.5 2.35 4.27893 4.42272 8.12524
55 2 0.5 2.35 6.59171 6.02949 6.27169
56 2 0.5 2.35 6.13758 2.51326 9.89083
57 2 0.5 2.35 4.35869 1.00408 9.22018
58 2 0.5 2.35 7.45423 4.95955 0.655786
59 2 0.5 2.35 5.69384 8.56103 7.48323
60 2 0.5 2.35 6.43679 7.10921 8.74612
61 2 0.5 2.35 3.52229 10.0793 8.92116
62 2 0.5 2.35 0.606747 5.86248 6.01586
63 2 0.5 2.35 0.473509 4.74151 3.83298
64 2 0.5 2.35 8.54135 1.92617 2.52165
65 2 0.5 2.35 7.26681 7.43328 6.64554
66 2 0.5 2.35 4.69722 9.7856 4.58115
67 2 0.5 2.35 9.93966 5.15878 9.8398
68 2 0.5 2.35 6.58275 10.2275 2.25145
69 2 0.5 2.35 2.81677 5.74604 2.0718
70 2 0.5 2.35 3.66086 4.30303 2.59322
71 2 0.5 2.35 9.91589 7.3723 1.41165
72 2 0.5 2.35 6.4377 3.56139 4.96562
73 1 1 2.35 0.559766 9.13551 8.27766
74 2 0.5 2.35 3.45008 6.73475 1.65247
75 2 0.5 2.35 2.46564 4.80796 8.87651
76 2 0.5 2.35 3.61802 7.64126 8.74622
77 2 0.5 2.35 6.35884 5.23795 8.49352
78 2 0.5 2.35 4.90777 0.164624 0.257829
79 2 0.5 2.35 1.64788 5.27227 7.71808
80 2 0.5 2.35 9.03647 10.2146 9.75031
81 2 0.5 2.35 0.443523 6.55969 9.21265
82 2 0.5 2.35 2.18179 9.59393 0.00879752
83 2 0.5 2.35 0.589584 7.46234 0.970672
84 2 0.5 2.35 5.89077 8.63612 4.00881
85 2 0.5 2.35 4.51332 5.92443 0.437594
86 1 1 2.35 9.99573 4.30549 2.41786
87 2 0.5 2.35 2.43417 6.07816 8.23151
88 2 0.5 2.35 1.78991 4.5146 6.5843
89 2 0.5 2.35 10.1291 4.1334 0.649839
90 1 1 2.35 6.6942 8.75198 3.22627
91 2 0.5 2.35 2.965 8.40845 3.07916
92 2 0.5 2.35 8.46003 0.185548 2.3435
93 2 0.5 2.35 8.26381 1.16341 8.48938
94 2 0.5 2.35 1.52885 1.88348 1.6476
95 2 0.5 2.35 8.8601 8.76141 7.43919
96 2 0.5 2.35 8.13265 1.83839 6.83858
97 2 0.5 2.35 5.77175 9.08206 6.02907
98 2 0.5 2.35 8.99221 9.97427 7.30359
99 1 1 2.35 4.69452 2.15016 7.98151
100 2 0.5 2.35 3.75364 2.95454 6.02438
101 1 1 2.35 5.55619 4.53255 9.93517
102 1 1 2.35 3.94506 5.02076 8.14069
103 2 0.5 2.35 6.78924 9.75704 0.426889
104 2 0.5 2.35 1.29927 1.0385 0.306276
105 2 0.5 2.35 1.54159 4.77457 3.70586
106 2 0.5 2.35 5.64216 6.50077 6.58667
107 2 0.5 2.35 6.42069 0.332479 7.65964
108 2 0.5 2.35 1.39529 2.48514 2.13174
109 2 0.5 2.35 7.31073 2.54098 2.46351
110 2 0.5 2.35 5.93927 0.573568 6.57837
111 2 0.5 2.35 2.28691 5.77202 9.53472
112 2 0.5 2.35 3.41368 6.62996 4.76802
113 2 0.5 2.35 0.248361 10.0487 4.0997
114 2 0.5 2.35 8.72901 6.42876 0.36968
115 2 0.5 2.35 6.01986 2.79794 1.66855
116 2 0.5 2.35 0.905046 3.09894 3.42419
117 1 1 2.35 6.87568 3.61758 3.87839
118 2 0.5 2.35 4.98738 7.96854 3.27907
119 2 0.5 2.35 10.2766 3.11705 4.66485
120 2 0.5 2.35 2.18193 4.86785 9.73801
121 1 1 2.35 6.90617 1.64422 6.31026
122 2 0.5 2.35 1.91039 3.1814 2.87458
123 2 0.5 2.35 8.94735 9.82108 0.279382
124 2 0.5 2.35 8.27736 6.83057 0.0206939
125 2 0.5 2.35 1.87828 8.98319 3.18632
126 2 0.5 2.35 6.0508 7.30244 1.65543
127 2 0.5 2.35 5.10605 7.90462 1.57275
128 2 0.5 2.35 8.00043 8.96037 4.76876
129 2 0.5 2.35 1.12492 4.88363 3.9488
130 2 0.5 2.35 8.6923 0.265813 1.38511
131 2 0.5 2.35 7.37603 2.67366 3.19657
132 2 0.5 2.35 8.63816 4.22305 7.37066
133 2 0.5 2.35 8.62716 10.0012 0.25474
134 2 0.5 2.35 6.12985 1.31628 1.2001
135 1 1 2.35 6.27235 0.439504 8.21685
136 2 0.5 2.35 0.367622 9.90208 9.07331
137 2 0.5 2.35 1.43739 8.53588 0.855325
138 2 0.5 2.35 7.82839 4.54708 7.54154
139 1 1 2.35 8.45679 2.8659 8.9666
140 2 0.5 2.35 3.36435 8.72196 4.62327
141 2 0.5 2.35 2.8363 2.61695 1.74133
142 2 0.5 2.35 2.29138 3.7013 5.48075
143 2 0.5 2.35 6.86477 10.1211 3.49272
144 2 0.5 2.35 8.58248 8.50277 1.9834
145 2 0.5 2.35 4.29557 8.68206 5.23631
146 2 0.5 2.35 7.57172 7.05479 3.77185
147 2 0.5 2.35 3.06587 4.79228 3.1794
148 2 0.5 2.35 2.273 2.03358 9.62129
149 2 0.5 2.35 1.01508 8.44896 9.20648
150 2 0.5 2.35 4.34125 5.0229 7.31323
151 2 0.5 2.35 7.38459 0.383364 1.20469
152 2 0.5 2.35 4.13681 9.44423 8.96531
153 2 0.5 2.35 5.37675 1.72203 8.20479
154 2 0.5 2.35 6.37761 1.95495 7.16776
155 2 0.5 2.35 4.94132 4.65261 1.91173
156 2 0.5 2.35 10.3278 7.49691 6.56904
157 2 0.5 2.35 4.2793 1.18209 4.60101
158 2 0.5 2.35 9.98927 8.79535 7.94373
159 2 0.5 2.35 3.6531 0.9724 4.95398
160 2 0.5 2.35 2.03772 3.68661 6.90625
161 2 0.5 2.35 2.76864 10.0896 8.85048
162 1 1 2.35 2.53058 1.00312 6.56997
163 2 0.5 2.35 7.08279 7.35018 2.97932
164 2 0.5 2.35 7.43028 10.107 8.20941
165 2 0.5 2.35 10.2504 2.245 9.37271
166 2 0.5 2.35 7.94222 4.27438 8.23121
167 2 0.5 2.35 7.53164 9.84633 3.83835
168 2 0.5 2.35 9.49762 7.90582 10.0921
169 2 0.5 2.35 8.59293 5.98273 6.75935
170 2 0.5 2.35 3.00701 9.46019 9.27353
171 2 0.5 2.35 3.18562 9.31482 7.74484
172 2 0.5 2.35 8.48742 6.35328 7.55443
173 2 0.5 2.35 0.861551 1.22232 3.1409
174 2 0.5 2.35 4.23293 2.04102 6.53645
175 2 0.5 2.35 9.74085 3.18853 6.35792
176 2 0.5 2.35 2.87171 5.47428 9.7028
177 2 0.5 2.35 8.58152 6.10168 7.30591
178 2 0.5 2.35 6.83593 1.2098 4.72513
179 2 0.5 2.35 1.8388 10.111 7.71613
180 1 1 2.35 6.47258 7.43054 3.94747
181 2 0.5 2.35 2.12684 6.4975 5.41313
182 2 0.5 2.35 6.64574 1.32215 2.89582
183 2 0.5 2.35 0.0305934 9.86168 2.65194
184 2 0.5 2.35 10.1776 5.62417 0.464973
185 2 0.5 2.35 9.95839 9.3906 6.1853
186 2 0.5 2.35 3.30687 7.826 8.81219
187 2 0.5 2.35 3.69332 2.71105 10.0749
188 2 0.5 2.35 4.30129 3.20885 8.10503
189 2 0.5 2.35 0.0819819 10.3316 5.40226
190 2 0.5 2.35 3.82583 7.28466 1.92849
191 2 0.5 2.35 5.85621 3.18048 9.79995
192 2 0.5 2.35 8.92124 8.24753 6.93011
193 2 0.5 2.35 4.066 1.11208 8.61456
194 2 0.5 2.35 4.96339 8.30896 8.79077
195 2 0.5 2.35 6.6814 5.27717 10.0151
196 2 0.5 2.35 5.79125 1.28795 0.345341
197 1 1 2.35 9.92133 6.10121 6.16252
198 1 1 2.35 8.38989 1.43694 7.15853
199 2 0.5 2.35 6.46372 0.412096 9.74699
200 2 0.5 2.35 6.96965 2.26926 6.61151
201 2 0.5 2.35 5.23399 7.51881 6.41475
202 2 0.5 2.35 4.73232 7.21569 4.13745
203 2 0.5 2.35 4.42927 9.38951 1.86804
204 2 0.5 2.35 0.534595 4.74813 6.2136
205 2 0.5 2.35 3.35153 9.7164 6.15473
206 2 0.5 2.35 0.880427 3.16817 4.63175
207 1 1 2.35 1.15512 4.2972 4.77618
208 2 0.5 2.35 2.56662 6.80634 4.59914
209 2 0.5 2.35 7.14741 7.36203 3.84305
210 2 0.5 2.35 3.90337 0.392667 7.30419
211 2 0.5 2.35 2.79564 3.44788 1.45751
212 1 1 2.35 0.555666 3.77076 1.84428
213 2 0.5 2.35 0.12906 5.63922 3.41496
214 2 0.5 2.35 3.15354 6.46972 5.0134
215 2 0.5 2.35 9.86372 10.3081 0.0977792
216 2 0.5 2.35 7.57673 1.68408 10.2063
217 2 0.5 2.35 0.80433 7.76704 5.08065
218 1 1 2.35 2.36359 1.58913 2.97739
219 2 0.5 2.35 2.42173 5.51522 5.52847
220 2 0.5 2.35 7.15514 8.73314 3.79305
221 2 0.5 2.35 8.81925 6.55429 6.02457
222 2 0.5 2.35 8.76441 6.85626 7.99401
223 2 0.5 2.35 5.49358 10.3 6.07515
224 2 0.5 2.35 8.71632 5.22785 7.00457
225 2 0.5 2.35 8.07493 3.08363 4.45319
226 2 0.5 2.35 5.25443 9.42197 6.81466
227 2 0.5 2.35 5.82798 9.24556 2.34778
228 2 0.5 2.35 6.35142 2.55616 0.213199
229 2 0.5 2.35 4.35255 3.61212 2.56438
230 2 0.5 2.35 9.10465 8.06282 5.71481
231 2 0.5 2.35 7.42916 5.08648 9.25364
232 2 0.5 2.35 6.17917 7.5956 3.06433
233 1 1 2.35 8.58278 0.969226 8.31757
234 2 0.5 2.35 2.60515 0.180415 0.516308
235 2 0.5 2.35 0.826654 8.23977 5.94133
236 2 0.5 2.35 1.68768 4.57027 10.0066
237 2 0.5 2.35 7.47946 0.325336 3.36438
238 2 0.5 2.35 0.991247 5.86224 4.53402
239 2 0.5 2.35 9.86862 5.91136 8.13681
240 1 1 2.35 0.585211 7.97992 1.51256
241 2 0.5 2.35 1.87668 8.13604 0.999247
242 2 0.5 2.35 4.01708 8.41254 5.73602
243 2 0.5 2.35 2.56269 4.4425 8.62926
244 2 0.5 2.35 0.854055 0.235019 6.9131
245 2 0.5 2.35 6.79043 8.18703 5.80995
246 2 0.5 2.35 1.72487 8.00664 8.98361
247 2 0.5 2.35 3.89938 4.93543 0.926547
248 2 0.5 2.35 4.66834 3.37897 8.68762
249 2 0.5 2.35 5.84182 4.71798 7.69608
250 2 0.5 2.35 7.46712 1.59262 7.40118
251 2 0.5 2.35 1.64809 2.17498 6.06897
252 2 0.5 2.35 8.06188 7.94688 7.9258
253 2 0.5 2.35 6.65178 8.87222 6.65059
254 2 0.5 2.35 1.23039 8.63113 2.08066
255 2 0.5 2.35 1.74693 9.19831 0.154523
256 2 0.5 2.35 4.39842 5.18946 2.6996
257 2 0.5 2.35 0.0627461 0.109352 0.704922
258 2 0.5 2.35 4.78162 4.37244 5.61052
259 2 0.5 2.35 0.600212 9.73358 4.09511
260 2 0.5 2.35 10.3519 0.843126 1.60642
261 2 0.5 2.35 6.69025 6.42165 8.28194
262 2 0.5 2.35 5.92484 4.53439 4.19381
263 2 0.5 2.35 8.68242 9.53128 8.3517
264 1 1 2.35 7.58162 0.935609 9.55504
265 2 0.5 2.35 1.95865 3.53219 1.28929
266 2 0.5 2.35 4.97898 4.29493 0.961443
267 2 0.5 2.35 1.55451 10.351 5.3009
268 2 0.5 2.35 3.72235 8.22928 6.13001
269 2 0.5 2.35 8.62244 9.17641 7.14408
270 2 0.5 2.35 4.68681 8.25882 6.92993
271 2 0.5 2.35 2.48042 10.3203 0.964957
272 2 0.5 2.35 3.85141 7.41094 6.49846
273 2 0.5 2.35 8.67015 3.71784 6.90143
274 2 0.5 2.35 2.60625 7.0812 3.88182
275 2 0.5 2.35 9.56999 8.27358 3.01732
276 2 0.5 2.35 8.50154 0.196606 8.11339
277 1 1 2.35 2.0656 9.6172 8.2713
278 2 0.5 2.35 3.78879 5.46902 8.30041
279 2 0.5 2.35 2.99527 9.45699 9.0728
280 2 0.5 2.35 2.64865 9.87777 9.40651
281 2 0.5 2.35 3.5043 6.59422 9.89089
282 2 0.5 2.35 5.95425 9.49607 3.28503
283 2 0.5 2.35 8.83729 3.7833 9.52851
284 2 0.5 2.35 0.491106 6.86567 0.215345
285 2 0.5 2.35 8.43263 8.8069 9.86981
286 2 0.5 2.35 8.48627 1.06057 1.2555
287 2 0.5 2.35 1.91314 7.28558 3.16751
288 2 0.5 2.35 0.902173 4.17725 4.98143
289 2 0.5 2.35 9.83097 1.67495 2.69515
290 2 0.5 2.35 8.4169 4.17152 2.96283
291 2 0.5 2.35 8.40583 2.51725 1.65776
292 2 0.5 2.35 3.10119 9.56649 0.130579
293 1 1 2.35 4.88694 3.33095 7.55515
294 2 0.5 2.35 8.73461 7.21131 3.54879
295 1 1 2.35 7.39069 1.45593 7.5903
296 2 0.5 2.35 2.07631 3.57542 5.77357
297 2 0.5 2.35 0.302326 8.25126 4.7906
298 2 0.5 2.35 3.0767 9.01313 9.95798
299 2 0.5 2.35 0.726107 5.12944 0.777578
300 2 0.5 2.35 1.81654 0.382532 2.46914
301 2 0.5 2.35 5.59374 8.14586 9.5918
302 2 0.5 2.35 5.6155 4.45137 6.25394
303 1 1 2.35 9.38453 5.85182 0.464408
304 2 0.5 2.35 6.22091 3.71532 0.899151
305 2 0.5 2.35 1.34981 7.59974 1.72088
306 2 0.5 2.35 0.593259 7.81378 9.27302
307 2 0.5 2.35 0.615124 0.250023 0.868629
308 2 0.5 2.35 0.0609521 5.37246 5.34846
309 2 0.5 2.35 8.84841 2.62493 7.9995
310 2 0.5 2.35 5.85828 6.43766 6.15627
311 2 0.5 2.35 9.76832 8.68188 0.52284
312 1 1 2.35 8.69942 0.580141 8.4103
313 2 0.5 2.35 10.1217 7.2525 1.74627
314 2 0.5 2.35 0.937911 3.44135 2.85622
315 1 1 2.35 2.22952 0.0593861 9.61045
316 2 0.5 2.35 8.10696 4.51779 10.1792
317 2 0.5 2.35 7.19229 0.742632 7.84959
318 2 0.5 2.35 9.93722 7.51451 9.79419
319 2 0.5 2.35 0.120041 8.73102 4.00735
320 2 0.5 2.35 1.52224 3.0495 10.224
321 2 0.5 2.35 4.21261 2.06864 3.05248
322 2 0.5 2.35 1.29215 7.13237 4.76818
323 1 1 2.35 7.04789 1.21572 8.45931
324 2 0.5 2.35 5.83328 1.52627 4.74714
325 2 0.5 2.35 8.21465 4.12632 2.41337
326 2 0.5 2.35 9.88309 0.531609 4.35013
327 2 0.5 2.35 2.71888 8.51627 6.47276
328 2 0.5 2.35 6.71921 2.35859 1.58792
329 1 1 2.35 8.18592 6.70372 5.90758
330 2 0.5 2.35 7.60415 9.05542 2.70802
331 2 0.5 2.35 7.73494 10.1014 3.88292
332 2 0.5 2.35 7.05826 6.63137 10.2548
333 2 0.5 2.35 9.31354 8.14328 9.72488
334 2 0.5 2.35 7.43166 6.40617 2.53402
335 2 0.5 2.35 7.11347 5.06258 0.60587
336 2 0.5 2.35 0.0561327 5.70764 3.18972
337 2 0.5 2.35 4.01825 5.76824 8.88329
338 2 0.5 2.35 5.32552 7.32174 2.08493
339 2 0.5 2.35 3.82036 3.7814 8.51775
340 2 0.5 2.35 0.66733 4.58306 7.58816
341 2 0.5 2.35 4.06264 5.15838 3.91611
342 2 0.5 2.35 10.1343 3.577 5.82775
343 2 0.5 2.35 0.383025 1.44916 3.75372
344 2 0.5 2.35 4.95727 9.04226 3.54558
345 2 0.5 2.35 7.55735 4.63276 1.63574
346 2 0.5 2.35 0.479163 2.0542 7.57017
347 2 0.5 2.35 2.49056 2.7783 9.26742
348 2 0.5 2.35 7.36783 6.95841 0.982851
349 2 0.5 2.35 5.37105 1.15797 7.2855
350 2 0.5 2.35 1.80727 4.08565 7.31222
351 2 0.5 2.35 5.93729 4.69611 5.12785
352 2 0.5 2.35 9.20415 8.53986 0.244335
353 2 0.5 2.35 9.11817 2.29665 5.25093
354 2 0.5 2.35 10.1119 4.43357 1.49743
355 2 0.5 2.35 3.21036 1.57134 2.58096
356 2 0.5 2.35 4.51477 8.31012 9.59419
357 2 0.5 2.35 2.63231 6.97593 5.36596
358 2 0.5 2.35 3.82225 7.54589 0.0113006
359 1 1 2.35 8.52904 7.45306 0.543025
360 2 0.5 2.35 3.55346 8.76385 8.24834
361 2 0.5 2.35 9.73474 1.04116 6.60783
362 2 0.5 2.35 9.6476 8.01327 9.35206
363 2 0.5 2.35 6.5626 3.3765 3.57993
364 2 0.5 2.35 8.84514 7.3084 3.24551
365 2 0.5 2.35 7.50741 8.90167 6.23509
366 2 0.5 2.35 9.37054 5.39647 1.94159
367 2 0.5 2.35 3.2341 0.0106445 8.21685
368 2 0.5 2.35 8.44779 6.07292 8.23256
369 1 1 2.35 7.84582 3.93445 5.80417
370 1 1 2.35 4.91881 1.71811 7.84045
371 1 1 2.35 8.63949 7.72446 2.18352
372 1 1 2.35 1.92122 2.56751 4.44875
373 2 0.5 2.35 3.37177 9.82988 8.49059
374 2 0.5 2.35 2.6502 9.56231 9.77871
375 2 0.5 2.35 5.87294 10.1255 2.76953
376 2 0.5 2.35 0.778536 5.08161 4.6586
377 2 0.5 2.35 9.9165 7.21335 9.30324
378 2 0.5 2.35 9.98466 8.7953 2.72502
379 2 0.5 2.35 10.0199 4.7364 6.36374
380 2 0.5 2.35 3.92662 2.63109 4.34385
381 1 1 2.35 7.97459 5.67416 3.02898
382 2 0.5 2.35 2.94214 8.33091 9.30461
383 2 0.5 2.35 6.04763 9.80015 9.04343
384 2 0.5 2.35 1.99082 8.25462 7.13017
385 2 0.5 2.35 0.275183 5.91153 4.76469
386 2 0.5 2.35 2.5328 5.56756 6.77221
387 2 0.5 2.35 2.01152 6.73797 6.85637
388 2 0.5 2.35 5.00089 2.79718 3.28632
389 2 0.5 2.35 7.76119 1.62977 0.348342
390 2 0.5 2.35 3.87519 2.84162 0.18211
391 2 0.5 2.35 4.49171 8.93896 7.28714
392 2 0.5 2.35 0.872891 4.57214 4.44016
393 2 0.5 2.35 10.3024 8.80511 9.1354
394 2 0.5 2.35 10.0979 0.594619 6.18885
395 2 0.5 2.35 0.735592 4.93029 3.26061
396 2 0.5 2.35 1.88769 10.1526 9.03514
397 2 0.5 2.35 5.1072 4.07352 3.29236
398 2 0.5 2.35 9.30686 4.7892 9.05252
399 2 0.5 2.35 1.74416 9.22791 8.04924
400 2 0.5 2.35 8.8643 2.57288 1.82369
401 2 0.5 2.35 1.83398 8.10254 10.2485
402 2 0.5 2.35 3.68861 5.51521 7.74608
403 2 0.5 2.35 7.26703 5.38479 0.786116
404 2 0.5 2.35 8.56571 3.44565 2.43351
405 2 0.5 2.35 2.95862 5.39541 8.95321
406 2 0.5 2.35 6.33958 9.63411 7.03204
407 2 0.5 2.35 6.6007 7.02448 8.68654
408 2 0.5 2.35 9.1453 9.99248 2.59298
409 2 0.5 2.35 9.63015 8.12509 3.43833
410 2 0.5 2.35 4.57698 1.89915 5.88323
411 2 0.5 2.35 8.15705 9.54587 8.90662
412 2 0.5 2.35 3.85212 1.62226 8.19278
413 2 0.5 2.35 6.0223 3.32816 3.96198
414 2 0.5 2.35 7.32872 5.90862 3.77069
415 1 1 2.35 5.02754 0.42015 3.56972
416 2 0.5 2.35 9.62491 2.53739 0.378566
417 1 1 2.35 4.31275 7.94389 4.49824
418 1 1 2.35 1.04236 0.921085 6.02442
419 2 0.5 2.35 8.22173 10.1279 3.58517
420 2 0.5 2.35 5.65069 9.87476 9.22777
421 2 0.5 2.35 8.91311 5.71843 8.52741
422 2 0.5 2.35 2.39604 7.78216 1.71217
423 2 0.5 2.35 2.42392 3.886 1.51457
424 2 0.5 2.35 0.478544 0.480272 9.46923
425 2 0.5 2.35 1.56215 10.089 3.10057
426 2 0.5 2.35 2.64435 1.6568 2.50775
427 2 0.5 2.35 6.98818 3.45402 7.47132
428 2 0.5 2.35 6.6562 7.86521 3.00005
429 2 0.5 2.35 7.04006 9.20545 9.13139
430 2 0.5 2.35 8.68085 9.5807 5.07277
431 2 0.5 2.35 6.60755 9.0765 9.76256
432 2 0.5 2.35 2.60056 7.44257 7.86004
433 2 0.5 2.35 2.59431 0.76633 4.48036
434 2 0.5 2.35 5.69998 10.1887 8.10303
435 2 0.5 2.35 9.56808 5.97566 7.76175
436 2 0.5 2.35 7.49921 5.40393 1.18894
437 2 0.5 2.35 1.60446 4.86476 9.29566
438 2 0.5 2.35 7.55817 2.93397 7.38183
439 1 1 2.35 9.42888 9.35943 4.66735
440 1 1 2.35 1.90666 2.8747 7.34276
441 2 0.5 2.35 0.911038 4.50373 1.71312
442 2 0.5 2.35 5.17401 7.2844 0.468171
443 2 0.5 2.35 8.73305 8.72732 3.65049
444 2 0.5 2.35 0.670056 4.20102 0.66666
445 2 0.5 2.35 5.86663 6.42223 2.88964
446 2 0.5 2.35 6.87771 4.00472 6.31048
447 2 0.5 2.35 7.4821 5.06243 0.54506
448 1 1 2.35 3.67287 0.25453 3.84831
449 2 0.5 2.35 10.0491 10.0423 6.36225
450 2 0.5 2.35 1.71252 2.09317 2.88548
451 2 0.5 2.35 2.69011 4.20461 0.000670467
452 2 0.5 2.35 5.01974 2.7591 4.73075
453 2 0.5 2.35 7.1586 3.89445 1.02894
454 2 0.5 2.35 2.67125 5.98851 7.4617
455 2 0.5 2.35 1.95889 5.82313 6.55232
456 2 0.5 2.35 4.77314 1.20582 2.96652
457 1 1 2.35 9.48239 9.77626 1.69529
458 2 0.5 2.35 1.60414 7.30001 6.14211
459 2 0.5 2.35 0.81621 2.40611 5.73968
460 2 0.5 2.35 1.92762 7.19478 6.61619
461 2 0.5 2.35 4.44217 5.05645 0.333649
462 2 0.5 2.35 4.23542 5.85927 1.14361
463 2 0.5 2.35 1.86773 9.46937 3.50154
464 2 0.5 2.35 8.19974 0.940583 2.81188
465 2 0.5 2.35 6.7533 5.8082 3.60618
466 1 1 2.35 4.96213 5.19982 6.28827
467 2 0.5 2.35 3.94796 5.73504 5.13576
468 2 0.5 2.35 2.49324 2.15777 0.869893
469 2 0.5 2.35 5.38907 1.44468 1.95319
470 2 0.5 2.35 3.0973 0.741931 1.58076
471 2 0.5 2.35 10.3108 0.0649353 4.52266
472 2 0.5 2.35 0.696199 1.94791 7.61739
473 2 0.5 2.35 3.68407 7.43063 7.96023
474 2 0.5 2.35 8.90989 4.20209 3.20058
475 2 0.5 2.35 9.51393 6.4059 4.44142
476 2 0.5 2.35 4.90077 6.37346 0.0537318
477 2 0.5 2.35 7.7699 7.94912 3.26164
478 1 1 2.35 8.23995 7.18654 9.57028
479 2 0.5 2.35 5.80694 0.0891234 1.74907
480 2 0.5 2.35 2.88832 8.16161 8.37125
481 2 0.5 2.35 5.04082 8.61356 1.02053
482 2 0.5 2.35 8.6552 8.80221 5.816
483 1 1 2.35 7.04811 9.88864 1.1368
484 2 0.5 2.35 9.9855 3.12682 5.25711
485 2 0.5 2.35 8.35729 3.14308 3.26555
486 2 0.5 2.35 4.36691 9.15807 3.28092
487 2 0.5 2.35 3.16391 3.1096 0.311279
488 2 0.5 2.35 5.66696 8.17452 2.79636
489 2 0.5 2.35 7.73084 6.69677 3.91691
490 2 0.5 2.35 3.70108 4.40311 6.53552
491 2 0.5 2.35 9.72052 9.26695 7.28676
492 2 0.5 2.35 7.99503 2.2274 0.778638
493 2 0.5 2.35 0.0667474 3.73861 6.057
494 2 0.5 2.35 7.64672 4.0394 6.68915
495 2 0.5 2.35 8.56516 3.52264 7.46888
496 2 0.5 2.35 3.31396 1.50405 7.49485
497 2 0.5 2.35 3.55163 2.97603 8.05439
498 2 0.5 2.35 8.3608 1.73587 7.90134
499 2 0.5 2.35 2.22964 0.522782 0.640021
500 2 0.5 2.35 5.04618 7.43321 8.01205
501 2 0.5 2.35 0.107021 9.68477 3.98397
502 2 0.5 2.35 9.9977 5.48381 5.80773
503 2 0.5 2.35 5.56971 7.60698 3.37581
504 2 0.5 2.35 5.17736 7.88352 0.462026
505 1 1 2.35 7.62386 2.09033 5.46075
506 2 0.5 2.35 6.51031 0.174511 6.73455
507 2 0.5 2.35 6.06536 6.96693 3.16571
508 2 0.5 2.35 6.05987 8.63688 6.44547
509 2 0.5 2.35 1.59049 9.68127 6.03071
510 2 0.5 2.35 5.14854 2.99909 4.05096
511 2 0.5 2.35 4.94641 8.84015 7.83186
512 2 0.5 2.35 1.72923 4.28113 2.06004
513 2 0.5 2.35 1.92239 4.76887 0.113321
514 2 0.5 2.35 2.56668 9.74552 5.53144
515 1 1 2.35 0.845084 1.6955 6.72706
516 1 1 2.35 5.30167 9.835 6.09277
517 2 0.5 2.35 9.08045 6.24943 5.05758
518 2 0.5 2.35 1.82476 0.230281 10.11
519 2 0.5 2.35 0.0686442 10.1073 4.34026
520 2 0.5 2.35 5.54915 1.8236 7.92666
521 2 0.5 2.35 0.0158844 4.7097 5.2351
522 2 0.5 2.35 1.13107 9.94896 3.90532
523 2 0.5 2.35 1.55733 3.9704 6.47518
524 2 0.5 2.35 8.14681 1.73308 3.93953
525 2 0.5 2.35 2.63694 6.47925 5.97074
526 2 0.5 2.35 2.24646 5.24323 7.85264
527 1 1 2.35 6.64322 7.88273 3.45949
528 2 0.5 2.35 6.65466 7.54283 4.3174
529 2 0.5 2.35 5.30859 4.78254 2.53598
530 2 0.5 2.35 0.368649 7.78564 1.7291
531 2 0.5 2.35 0.161454 3.61507 7.696
532 2 0.5 2.35 2.5439 6.96188 8.68423
533 2 0.5 2.35 9.41455 1.79845 6.3023
534 2 0.5 2.35 9.41291 4.58567 4.83447
535 2 0.5 2.35 6.94977 7.26953 7.91111
536 2 0.5 2.35 4.82245 9.71275 1.28378
537 2 0.5 2.35 7.07274 0.0402803 3.10806
538 2 0.5 2.35 8.77299 4.50621 7.93479
539 1 1 2.35 8.96314 2.95182 5.43066
540 2 0.5 2.35 6.28656 0.407778 8.63622
541 2 0.5 2.35 8.91559 9.60054 1.05813
542 2 0.5 2.35 9.23226 8.65986 7.6201
543 2 0.5 2.35 7.9917 4.09787 5.23142
544 2 0.5 2.35 0.852924 1.88978 5.72446
545 2 0.5 2.35 9.79775 9.55511 5.015
546 2 0.5 2.35 10.0361 0.330952 7.55387
547 2 0.5 2.35 10.1056 4.39178 3.2446
548 2 0.5 2.35 9.43639 4.87799 9.71955
549 2 0.5 2.35 1.60339 9.48766 9.98247
550 2 0.5 2.35 0.183334 8.76451 2.65517
551 2 0.5 2.35 2.57265 7.23345 2.30718
552 2 0.5 2.35 8.17379 0.0221224 6.00918
553 2 0.5 2.35 4.71665 3.04279 5.28067
554 2 0.5 2.35 8.78179 4.75596 5.16998
555 2 0.5 2.35 5.9102 10.2093 0.468708
556 2 0.5 2.35 2.51333 9.07299 6.53952
557 2 0.5 2.35 2.19868 9.72134 7.38429
558 2 0.5 2.35 1.68489 3.07842 6.68765
559 2 0.5 2.35 8.82603 1.48449 10.1471
560 2 0.5 2.35 2.32462 6.95599 4.06344
561 2 0.5 2.35 1.84686 2.36273 2.13069
562 2 0.5 2.35 6.00861 5.45625 0.181812
563 2 0.5 2.35 5.64072 0.214526 7.38556
564 2 0.5 2.35 1.43936 1.01222 6.31314
565 2 0.5 2.35 2.94269 2.00691 3.63806
566 2 0.5 2.35 7.83413 5.65083 9.97361
567 2 0.5 2.35 2.90291 5.21209 8.81916
568 2 0.5 2.35 8.04118 2.43534 3.96945
569 1 1 2.35 8.18803 4.39169 9.19439
570 2 0.5 2.35 5.32608 1.39977 2.44429
571 2 0.5 2.35 1.96548 3.06703 0.887786
572 2 0.5 2.35 8.90813 1.90077 7.98453
573 2 0.5 2.35 10.0544 6.48853 4.00866
574 2 0.5 2.35 0.959409 0.900198 5.42903
575 2 0.5 2.35 5.42254 3.1787 4.68281
576 2 0.5 2.35 6.35604 2.1904 10.1532
577 2 0.5 2.35 1.22196 7.8284 4.27241
578 1 1 2.35 1.33257 6.52226 0.408335
579 2 0.5 2.35 4.52679 5.40951 5.16312
580 2 0.5 2.35 6.47353 9.10539 4.4817
581 2 0.5 2.35 6.134 7.6536 8.35107
582 2 0.5 2.35 8.08716 4.42059 7.33691
583 2 0.5 2.35 0.426679 5.95007 6.27941
584 2 0.5 2.35 5.59327 5.66149 2.51714
585 2 0.5 2.35 6.35347 8.35662 0.169986
586 2 0.5 2.35 3.07307 1.86687 4.71932
587 2 0.5 2.35 6.90432 0.0441149 5.59681
588 2 0.5 2.35 2.6743 1.36339 9.17164
589 2 0.5 2.35 0.762484 2.96055 2.55707
590 2 0.5 2.35 7.23576 7.11622 5.27161
591 2 0.5 2.35 2.8564 0.85414 5.71015
592 2 0.5 2.35 7.67627 5.21247 3.28135
593 2 0.5 2.35 5.65474 10.3044 6.35809
594 2 0.5 2.35 10.1045 6.69262 10.2431
595 2 0.5 2.35 0.0243776 1.59898 7.2543
596 2 0.5 2.35 9.42678 9.56331 1.59474
597 2 0.5 2.35 5.55369 9.78315 3.08334
598 2 0.5 2.35 5.54439 7.61372 1.25756
599 2 0.5 2.35 9.03199 1.81062 2.36642
600 2 0.5 2.35 3.21708 8.74727 1.43995
601 2 0.5 2.35 6.79453 7.08638 3.47033
602 2 0.5 2.35 5.57737 8.20893 3.81945
603 2 0.5 2.35 2.22652 7.1681 6.16672
604 2 0.5 2.35 1.33051 0.499724 1.91334
605 2 0.5 2.35 1.22003 7.06711 1.72651
606 2 0.5 2.35 2.06944 1.92175 6.17834
607 2 0.5 2.35 1.34705 2.22828 7.593
608 1 1 2.35 5.72625 6.70185 5.21716
609 2 0.5 2.35 3.97602 4.89457 10.1391
610 1 1 2.35 7.63419 5.86587 2.05815
611 2 0.5 2.35 0.634611 9.46573 8.04745
612 1 1 2.35 7.29388 10.3398 3.87078
613 2 0.5 2.35 9.18363 2.4232 1.83142
614 2 0.5 2.35 9.24022 7.45453 0.604744
615 2 0.5 2.35 6.02735 3.62099 8.95153
616 2 0.5 2.35 1.05518 2.16699 6.13854
617 2 0.5 2.35 2.03305 3.55785 6.54729
618 2 0.5 2.35 8.15518 3.07911 3.02648
619 2 0.5 2.35 1.6386 8.21064 1.25196
620 2 0.5 2.35 7.78139 5.58966 3.37895
621 2 0.5 2.35 7.42088 6.83413 1.74645
622 2 0.5 2.35 7.82812 8.00881 7.84267
623 1 1 2.35 7.38733 4.42723 6.7615
624 2 0.5 2.35 7.16225 10.1145 7.5623
625 2 0.5 2.35 5.49928 0.451368 9.0965
626 2 0.5 2.35 2.80253 4.05233 5.66363
627 2 0.5 2.35 8.2886 5.85935 3.20799
628 2 0.5 2.35 0.487348 0.593133 0.946366
629 2 0.5 2.35 7.86743 9.80255 0.303811
630 2 0.5 2.35 6.80979 8.03848 1.34951
631 2 0.5 2.35 8.557 2.4208 4.34884
632 2 0.5 2.35 2.35749 2.91425 9.85967
633 2 0.5 2.35 2.08533 2.49831 9.04266
634 1 1 2.35 5.30392 7.85889 7.53863
635 2 0.5 2.35 8.96483 5.80427 7.15995
636 2 0.5 2.35 9.68063 6.95654 0.310916
637 2 0.5 2.35 7.2832 8.76035 6.219
638 1 1 2.35 1.39185 9.56634 4.19713
639 2 0.5 2.35 7.14266 4.39243 4.01678
640 2 0.5 2.35 8.78401 0.579806 7.1156
641 2 0.5 2.35 3.76218 5.27019 3.46625
642 2 0.5 2.35 0.833699 10.3453 4.8903
643 2 0.5 2.35 1.78426 2.22725 9.90189
644 1 1 2.35 6.80652 0.133457 6.54886
645 2 0.5 2.35 2.62776 4.29062 0.513224
646 2 0.5 2.35 6.85675 7.06024 5.34766
647 2 0.5 2.35 4.2536 6.84951 6.44888
648 2 0.5 2.35 7.94671 0.779539 7.69045
649 2 0.5 2.35 4.85537 5.29856 7.9475
650 2 0.5 2.35 6.15458 0.69641 3.0952
651 2 0.5 2.35 6.73986 8.84664 8.06499
652 2 0.5 2.35 1.77389 5.59076 7.37466
653 2 0.5 2.35 0.566877 5.25479 5.82968
654 2 0.5 2.35 1.23725 7.61527 6.25052
655 2 0.5 2.35 0.343183 3.68895 2.44699
656 2 0.5 2.35 4.5785 5.3656 6.68128
657 2 0.5 2.35 9.27151 9.30469 5.88497
658 2 0.5 2.35 7.59988 4.27994 0.239475
659 2 0.5 2.35 8.43745 0.918708 5.32339
660 1 1 2.35 1.82741 6.36186 6.43629
661 2 0.5 2.35 2.69417 7.09194 1.97081
662 2 0.5 2.35 9.23237 7.88253 7.97816
663 2 0.5 2.35 2.19383 10.2387 9.21325
664 2 0.5 2.35 1.60772 3.15998 10.1405
665 2 0.5 2.35 7.78619 7.05298 10.0652
666 2 0.5 2.35 6.70917 1.25968 7.54507
667 2 0.5 2.35 8.18756 3.17454 2.56677
668 2 0.5 2.35 8.04864 3.11549 3.96503
669 1 1 2.35 4.12227 7.16972 7.51377
670 2 0.5 2.35 0.819707 4.67957 7.11521
671 1 1 2.35 0.441184 6.46547 4.69857
672 2 0.5 2.35 3.39285 6.14045 2.89422
673 2 0.5 2.35 4.37475 9.75693 0.769023
674 2 0.5 2.35 5.47999 4.32183 8.03861
675 2 0.5 2.35 0.677273 6.22848 8.72507
676 1 1 2.35 5.25871 1.47049 9.90928
677 2 0.5 2.35 8.97257 2.11441 4.74858
678 1 1 2.35 9.96354 0.16384 7.03965
679 2 0.5 2.35 1.17212 2.16025 7.7963
680 2 0.5 2.35 3.72883 5.08154 0.916808
681 2 0.5 2.35 10.2684 9.51401 8.8069
682 2 0.5 2.35 1.94441 8.54607 3.86312
683 2 0.5 2.35 1.07961 2.72222 9.90743
684 2 0.5 2.35 2.62682 8.30155 6.88889
685 2 0.5 2.35 8.79302 0.534922 6.31034
686 2 0.5 2.35 6.82685 0.0986773 6.01856
687 2 0.5 2.35 0.496339 3.78089 6.39755
688 2 0.5 2.35 8.06682 8.72219 1.16898
689 2 0.5 2.35 2.87433 2.91675 5.07022
690 2 0.5 2.35 10.1289 8.91542 10.0642
691 2 0.5 2.35 10.219 9.07535 5.14285
692 2 0.5 2.35 1.94914 6.3747 2.96731
693 2 0.5 2.35 9.67103 6.2411 3.12219
694 2 0.5 2.35 2.58358 3.82195 9.38522
695 2 0.5 2.35 8.49677 1.89767 4.05379
696 2 0.5 2.35 4.86092 1.47304 5.72296
697 2 0.5 2.35 2.05726 9.62235 7.12322
698 2 0.5 2.35 9.98604 5.59661 1.71171
699 2 0.5 2.35 2.40821 7.97518 3.7345
700 2 0.5 2.35 7.3633 8.67342 2.26419
701 2 0.5 2.35 3.03109 7.58671 5.2161
702 2 0.5 2.35 4.81038 4.07301 5.53638
703 2 0.5 2.35 2.29144 9.17524 0.00725052
704 2 0.5 2.35 8.62974 2.66533 0.00155709
705 2 0.5 2.35 4.5982 5.92112 7.79332
706 2 0.5 2.35 7.34743 0.957733 7.82564
707 2 0.5 2.35 3.51576 7.2338 5.81563
708 2 0.5 2.35 5.74087 4.6637 4.8953
709 1 1 2.35 1.14968 3.10455 2.37578
710 2 0.5 2.35 9.65161 4.61437 4.07859
711 2 0.5 2.35 8.56132 4.69503 9.90448
712 2 0.5 2.35 3.15154 9.28639 2.88256
713 2 0.5 2.35 1.94917 5.04361 3.88017
714 2 0.5 2.35 1.41145 9.63223 3.25687
715 2 0.5 2.35 3.29947 4.27579 6.02427
716 2 0.5 2.35 9.12571 9.81868 0.643336
717 2 0.5 2.35 3.35091 5.57382 5.47463
718 1 1 2.35 4.77097 3.88946 5.54137
719 2 0.5 2.35 4.43275 3.13692 6.03375
720 2 0.5 2.35 5.04116 1.6817 4.93238
721 2 0.5 2.35 2.37834 9.05152 5.27669
722 2 0.5 2.35 3.88574 4.6901 2.76146
723 2 0.5 2.35 6.91191 5.23487 6.10027
724 2 0.5 2.35 8.40493 1.46248 9.81218
725 2 0.5 2.35 4.06261 9.77743 6.20526
726 2 0.5 2.35 3.98027 4.81526 2.87983
727 2 0.5 2.35 3.35601 4.60091 3.31381
728 1 1 2.35 2.32708 8.30093 9.0095
729 2 0.5 2.35 7.95358 1.80288 6.13083
730 2 0.5 2.35 8.39262 1.41926 8.44207
731 2 0.5 2.35 1.46134 4.68365 10.0982
732 2 0.5 2.35 5.05553 8.82691 5.18554
733 2 0.5 2.35 9.45188 0.808723 3.06854
734 2 0.5 2.35 8.14942 6.66757 5.91167
735 2 0.5 2.35 2.84909 10.3421 5.50686
736 2 0.5 2.35 9.79186 6.76407 7.41874
737 2 0.5 2.35 1.69142 5.70999 5.30209
738 2 0.5 2.35 6.35414 9.02211 8.43678
739 2 0.5 2.35 3.1687 3.65616 8.52809
740 2 0.5 2.35 8.01733 7.98836 10.0581
741 2 0.5 2.35 7.0312 4.49419 3.13875
742 2 0.5 2.35 4.52793 1.34921 9.24815
743 2 0.5 2.35 10.2231 0.367881 2.69798
744 1 1 2.35 2.18881 3.12197 4.6716
745 2 0.5 2.35 1.91372 4.91714 5.22804
746 2 0.5 2.35 7.41853 6.78151 2.31198
747 2 0.5 2.35 7.03719 2.38273 0.570991
748 2 0.5 2.35 6.65374 10.0385 9.93953
749 2 0.5 2.35 6.72838 2.89579 9.1481
750 2 0.5 2.35 2.02507 1.38257 7.19619
751 2 0.5 2.35 2.09939 2.48248 3.7769
752 2 0.5 2.35 9.49636 1.02787 3.48105
753 1 1 2.35 10.1496 3.75325 8.12534
754 2 0.5 2.35 6.89136 1.75582 6.41619
755 2 0.5 2.35 9.1272 2.76777 1.60592
756 2 0.5 2.35 5.79672 1.91593 9.64087
757 1 1 2.35 0.640122 2.24836 4.24719
758 2 0.5 2.35 2.29331 0.13366 2.84933
759 2 0.5 2.35 5.92146 3.48243 7.40149
760 2 0.5 2.35 6.18222 0.662845 4.44575
761 2 0.5 2.35 6.93376 5.19422 5.91805
762 2 0.5 2.35 0.136228 5.12289 6.70811
763 1 1 2.35 7.5618 5.22864 6.84957
764 2 0.5 2.35 5.40326 5.77131 2.80985
765 2 0.5 2.35 6.63289 8.22849 8.38132
766 2 0.5 2.35 3.07795 5.23924 3.73468
767 2 0.5 2.35 7.59844 4.23723 3.95091
768 1 1 2.35 4.5662 3.01424 6.89032
769 2 0.5 2.35 10.2545 3.14101 9.54667
770 1 1 2.35 5.42199 6.46497 6.19856
771 2 0.5 2.35 7.29917 8.75126 0.180863
772 1 1 2.35 7.76981 9.56065 7.1111
773 2 0.5 2.35 7.38569 5.157 1.48137