ITEM: TIMESTEP
770000
ITEM: NUMBER OF ATOMS
1000
ITEM: BOX BOUNDS xy xz yz pp pp pp
0.0000000000000000e+00 1.0357442000000001e+01 0.0000000000000000e+00
0.0000000000000000e+00 1.0357442000000001e+01 0.0000000000000000e+00
0.0000000000000000e+00 1.0357442000000001e+01 0.0000000000000000e+00
ITEM: ATOMS id x y z radius
1 1.17031 4.47305 2.8118 0.5
2 2.18626 7.78511 2.81414 0.5
3 5.31421 2.27988 1.00918 0.25
4 0.477621 2.8273 4.34695 0.25
5 9.4344 3.82637 7.58908 0.25
6 0.524627 2.73567 10.0951 0.25
7 4.25807 0.806877 3.51114 0.25
8 8.66951 4.06436 2.18154 0.25
9 10.0308 1.37192 1.53785 0.25
10 8.54677 6.94129 3.56469 0.25
11 10.3223 8.61041 1.04806 0.25
12 8.03971 2.31695 0.0824817 0.25
13 3.63784 7.34457 6.09718 0.25
14 4.80188 2.09761 10.3216 0.25
15 8.73797 5.89503 6.38971 0.25
16 8.65531 8.64021 6.54245 0.25
17 5.19748 9.03143 8.5436 0.5
18 2.86292 8.43812 9.95643 0.25
19 6.92731 4.09683 4.98283 0.25
20 9.30421 1.13176 1.06679 0.25
21 0.629108 10.2586 9.526 0.25
22 4.39737 0.371224 3.79839 0.25
23 4.47207 4.12573 3.11011 0.25
24 2.73908 2.30023 4.11685 0.25
25 7.22353 1.8429 5.81509 0.25
26 5.33429 2.91214 8.30267 0.25
27 1.83192 8.01483 0.266427 0.25
28 8.7428 6.18285 6.74928 0.25
29 3.31227 7.34503 5.68979 0.25
30 0.817855 9.12984 7.66228 0.25
31 0.752865 7.09416 5.0303 0.25
32 9.16181 6.61271 1.52133 0.25
33 10.2716 9.00843 1.36084 0.25
34 10.2648 3.25051 10.0188 0.25
35 8.03909 1.95973 10.0977 0.25
36 8.63061 9.09148 9.90205 0.25
37 4.0442 5.3044 5.71613 0.25
38 7.29756 0.471001 0.684043 0.25
39 6.08807 4.14831 5.06976 0.25
40 8.59944 4.52233 4.47227 0.25
41 7.91175 6.78479 4.12756 0.25
42 6.40857 8.63613 2.51858 0.5
43 0.306024 8.55948 5.89278 0.25
44 3.23394 10.2022 5.23902 0.25
45 7.43189 7.1628 8.35284 0.25
46 0.998233 9.04324 7.22162 0.25
47 4.35781 8.50621 3.44523 0.25
48 3.08776 9.81185 5.50631 0.25
49 4.38597 5.87555 9.25283 0.25
50 10.3196 9.57736 3.23133 0.25
51 9.19087 8.49376 1.47058 0.25
52 6.07309 7.01761 0.714975 0.25
53 6.58988 5.64082 1.80469 0.25
54 4.75839 4.78697 8.11993 0.25
55 6.30303 7.21107 6.6117 0.25
56 5.41263 1.45671 0.953172 0.25
57 4.73291 2.41496 0.348869 0.25
58 6.14562 4.292 0.642989 0.25
59 4.00445 7.62122 9.21359 0.25
60 7.09751 7.32853 7.95663 0.25
61 2.87545 0.138514 8.76356 0.25
62 9.17517 6.50855 6.87974 0.25
63 0.545956 5.65176 4.83897 0.25
64 10.0872 1.60043 1.98638 0.25
65 6.52384 6.33176 6.60546 0.25
66 4.23359 0.332821 3.3016 0.25
67 8.77761 5.02145 9.12189 0.25
68 6.19639 10.3106 0.0331292 0.25
69 2.64876 7.82685 3.38319 0.25
70 4.45781 5.48933 4.07867 0.25
71 1.59804 7.77128 2.22369 0.25
72 5.36441 6.82011 3.67336 0.25
73 9.05265 8.63874 7.22771 0.5
74 2.25868 7.49356 3.43869 0.25
75 0.823495 5.86679 0.601606 0.25
76 1.64736 8.09508 10.1028 0.25
77 7.06028 6.88075 8.23579 0.25
78 4.10754 9.78772 1.54713 0.25
79 0.983602 5.30377 9.64855 0.25
80 8.35363 8.65247 10.0427 0.25
81 8.28949 9.44728 7.41595 0.25
82 1.96799 0.736737 2.17571 0.25
83 1.59809 8.33701 2.75456 0.25
84 5.28192 9.44635 5.44927 0.25
85 3.9923 6.32124 1.81193 0.25
86 9.73286 4.29579 1.8795 0.5
87 1.28874 5.44396 8.39398 0.25
88 2.86126 3.92985 8.2381 0.25
89 0.779037 9.93438 9.904 0.25
90 7.0332 10.206 1.69286 0.5
91 4.66392 8.29366 3.84282 0.25
92 9.35957 1.06191 1.9189 0.25
93 8.37767 1.16327 8.05548 0.25
94 0.871707 4.16318 2.16824 0.25
95 7.54549 8.77075 5.8513 0.25
96 7.79486 1.25562 6.97904 0.25
97 5.67976 9.70935 5.43518 0.25
98 0.199903 0.28391 5.94797 0.25
99 5.2357 2.2338 8.10452 0.5
100 5.72644 2.76888 5.5545 0.25
101 5.23106 2.1035 9.70112 0.5
102 4.21912 5.14256 8.46809 0.5
103 6.67766 0.412723 1.23386 0.25
104 1.22286 0.0972773 10.3433 0.25
105 1.98333 4.98901 3.31346 0.25
106 5.77665 6.56337 6.33133 0.25
107 5.745 10.2067 8.51605 0.25
108 2.03712 3.87874 2.28227 0.25
109 7.02504 2.18788 2.44822 0.25
110 5.81697 9.92812 5.85562 0.25
111 1.66177 5.57969 0.405159 0.25
112 3.55988 5.40667 5.75589 0.25
113 2.22664 0.0796141 4.55772 0.25
114 8.65213 6.20824 0.348821 0.25
115 4.58099 3.42458 2.08629 0.25
116 0.0778146 1.82455 3.75606 0.25
117 7.44061 2.83536 2.69381 0.5
118 6.76204 8.01937 2.42724 0.25
119 9.89656 2.69739 4.27284 0.25
120 1.67729 5.52577 10.2832 0.25
121 7.63809 2.02774 5.2463 0.5
122 1.89158 4.78954 2.56835 0.25
123 9.42342 8.74028 0.770391 0.25
124 8.45649 6.12436 0.776808 0.25
125 1.82807 9.84695 4.19956 0.25
126 6.11878 7.52263 0.66027 0.25
127 6.08589 7.26717 0.234354 0.25
128 9.43557 9.59944 4.10511 0.25
129 1.60882 5.2205 3.44571 0.25
130 9.09993 8.81822 1.11632 0.25
131 6.86958 2.35279 2.90119 0.25
132 8.42262 4.86925 4.74488 0.25
133 8.11142 9.13539 10.1191 0.25
134 4.29887 4.46059 2.84193 0.25
135 6.12296 9.49889 8.40377 0.5
136 8.32173 9.0643 7.14934 0.25
137 1.61305 9.61012 1.93574 0.25
138 7.17289 4.05475 4.59478 0.25
139 7.41787 4.29597 7.82283 0.5
140 4.10195 8.56433 3.01063 0.25
141 1.85827 1.75919 2.1295 0.25
142 2.8573 2.84464 4.84058 0.25
143 7.83052 1.54751 3.58841 0.25
144 10.1836 6.83693 2.03619 0.25
145 3.72688 7.71154 5.7264 0.25
146 7.6052 9.02198 2.58247 0.25
147 4.02153 5.81951 4.0431 0.25
148 2.8187 1.80074 10.1374 0.25
149 9.94653 7.4564 8.84818 0.25
150 4.41518 4.84431 7.82003 0.25
151 6.94514 9.87914 9.86373 0.25
152 4.5226 9.8677 1.26248 0.25
153 5.21757 2.10062 7.40751 0.25
154 5.41311 9.4972 8.09034 0.25
155 3.50704 6.07462 1.02506 0.25
156 0.787885 8.63123 7.49832 0.25
157 5.60123 0.980793 3.0426 0.25
158 8.69627 9.53673 6.64472 0.25
159 3.31478 2.82101 5.14405 0.25
160 2.6037 3.55948 8.06144 0.25
161 2.93212 0.206001 9.28792 0.25
162 3.96341 2.13482 5.83428 0.5
163 7.01942 10.1498 2.48587 0.25
164 5.09723 8.27704 8.15154 0.25
165 0.383619 3.20387 10.1072 0.25
166 6.95641 4.56646 6.8131 0.25
167 9.18406 9.95329 3.90906 0.25
168 9.98788 8.19058 9.18605 0.25
169 9.17716 6.39212 7.69476 0.25
170 3.50441 0.359613 8.17738 0.25
171 1.19981 8.35407 7.57029 0.25
172 9.6905 6.5878 7.06776 0.25
173 0.786182 1.71817 4.40424 0.25
174 4.64119 1.9868 6.22106 0.25
175 9.82712 3.57567 7.84281 0.25
176 0.796046 6.34951 0.576747 0.25
177 9.76947 6.10243 7.24762 0.25
178 7.29038 1.37071 5.10983 0.25
179 2.60221 9.50187 7.89148 0.25
180 7.11559 8.96609 2.00361 0.5
181 0.961601 4.10829 5.77231 0.25
182 7.4001 1.28399 3.41596 0.25
183 2.91018 9.73056 4.62821 0.25
184 8.77065 5.32002 9.55159 0.25
185 8.78924 9.13118 6.37918 0.25
186 2.71255 7.66391 9.78953 0.25
187 3.13804 3.71551 0.656296 0.25
188 5.1048 2.59442 7.51081 0.25
189 0.0110167 0.745427 5.78221 0.25
190 2.62921 7.41466 3.71615 0.25
191 5.22484 2.65519 9.1026 0.25
192 8.73581 9.36642 7.18526 0.25
193 5.25987 2.22647 8.84401 0.25
194 4.01775 9.80027 1.03515 0.25
195 5.46611 5.23385 9.59721 0.25
196 4.9428 2.55689 10.2707 0.25
197 9.21478 5.64831 6.9395 0.5
198 7.22365 1.78406 6.99428 0.5
199 6.93725 0.0138359 9.82149 0.25
200 7.36974 0.795952 6.37274 0.25
201 6.14383 6.71534 6.62792 0.25
202 3.00804 7.55611 5.3799 0.25
203 3.74871 9.75491 0.276514 0.25
204 0.345876 3.50256 6.23688 0.25
205 3.97898 0.42444 6.66324 0.25
206 0.520128 1.79688 4.00151 0.25
207 1.15762 5.21338 4.0029 0.5
208 4.0567 4.79937 5.89838 0.25
209 7.56888 9.47416 2.32701 0.25
210 4.10802 0.00145569 6.46474 0.25
211 1.52128 5.03713 2.43461 0.25
212 0.290627 3.94825 1.82656 0.5
213 8.93367 4.28049 1.82348 0.25
214 3.27226 4.96921 5.88509 0.25
215 10.0143 0.576592 8.62624 0.25
216 5.23983 1.52508 0.447111 0.25
217 0.303436 8.04335 5.97076 0.25
218 2.19764 1.27204 1.60898 0.5
219 0.717812 4.26095 6.17229 0.25
220 6.58521 9.41552 2.29902 0.25
221 8.48859 7.43772 3.68312 0.25
222 8.89841 6.3367 7.20375 0.25
223 5.60402 9.34323 5.08734 0.25
224 9.51215 3.86614 7.13276 0.25
225 8.17354 1.39942 5.34727 0.25
226 6.43586 8.82155 4.99634 0.25
227 7.16294 0.382653 1.13562 0.25
228 4.86668 2.26081 0.777115 0.25
229 2.0741 2.39325 1.50406 0.25
230 7.90412 7.268 4.28525 0.25
231 7.3012 3.60715 6.99146 0.25
232 7.03749 9.699 2.23521 0.25
233 8.24897 1.88605 9.36354 0.5
234 4.45662 9.06783 0.912472 0.25
235 1.20549 8.59082 7.13602 0.25
236 1.44611 5.12938 0.630704 0.25
237 7.86159 1.0553 3.65906 0.25
238 1.12172 5.88694 4.29298 0.25
239 0.922867 2.6818 9.75543 0.25
240 1.66009 8.93674 2.35406 0.5
241 2.05772 9.54818 2.17793 0.25
242 3.87018 8.12437 5.93532 0.25
243 1.65014 5.9369 0.786022 0.25
244 1.7412 1.10165 6.94667 0.25
245 6.63715 6.82198 6.71525 0.25
246 2.13873 8.04354 10.2395 0.25
247 2.96382 7.65091 2.98718 0.25
248 5.55344 2.626 8.66989 0.25
249 6.8457 3.66039 4.66621 0.25
250 7.52402 1.2673 6.53703 0.25
251 1.15275 1.65045 6.55405 0.25
252 6.97276 6.25003 8.96049 0.25
253 3.98603 7.22026 8.49282 0.25
254 1.40406 9.94885 2.17545 0.25
255 1.56628 0.902341 1.94906 0.25
256 3.5156 5.16902 4.31353 0.25
257 0.938951 0.0838687 9.9227 0.25
258 4.61979 5.38305 7.0344 0.25
259 1.96 10.3496 4.15849 0.25
260 0.935632 9.69653 10.3033 0.25
261 6.64711 7.09748 8.11862 0.25
262 5.83283 6.71462 3.64879 0.25
263 8.58639 8.64727 9.60593 0.25
264 7.56672 9.40231 9.73766 0.5
265 4.01496 3.48414 2.74314 0.25
266 4.14913 2.98845 2.69958 0.25
267 3.1273 7.19107 6.16381 0.25
268 3.66254 7.79038 6.23986 0.25
269 8.04066 8.74481 5.71957 0.25
270 3.4132 7.46104 6.54982 0.25
271 3.76628 9.49532 1.25701 0.25
272 6.68402 6.32713 5.36334 0.25
273 9.80524 3.08378 6.68337 0.25
274 3.60296 4.57361 5.90584 0.25
275 10.1061 6.70074 2.99301 0.25
276 8.28497 1.13587 8.56134 0.25
277 2.89232 10.188 8.05596 0.5
278 4.43862 5.92746 8.37201 0.25
279 2.59761 0.383548 8.47802 0.25
280 3.29497 0.515495 9.44646 0.25
281 4.5045 8.00611 3.44155 0.25
282 4.83079 1.32334 3.12503 0.25
283 9.72 0.546226 9.37555 0.25
284 1.71266 5.10665 0.247957 0.25
285 8.73893 6.75482 1.42027 0.25
286 0.0587576 1.64082 1.61227 0.25
287 1.36867 7.86122 2.64474 0.25
288 1.00783 5.61374 4.68761 0.25
289 9.61095 0.724427 1.10235 0.25
290 9.04785 3.82383 2.44272 0.25
291 8.23307 2.38991 9.95089 0.25
292 4.28375 9.43681 1.22086 0.25
293 4.38163 2.72259 7.0295 0.5
294 0.152975 6.50849 2.68625 0.25
295 7.14281 0.877141 7.02747 0.5
296 2.79283 2.76318 4.33299 0.25
297 0.438352 8.22755 5.51657 0.25
298 4.32202 10.1956 0.977417 0.25
299 9.03036 5.04859 9.90037 0.25
300 2.14912 9.53302 4.35126 0.25
301 4.61112 8.23245 7.9498 0.25
302 4.87773 4.84487 7.64383 0.25
303 8.6644 5.59001 10.2454 0.5
304 4.65062 3.9298 2.19412 0.25
305 1.7656 8.14359 2.41486 0.25
306 10.0976 7.9417 8.74191 0.25
307 1.25501 10.0496 10.0698 0.25
308 9.16926 6.2001 6.45992 0.25
309 8.24788 1.54219 8.27509 0.25
310 6.52784 6.05068 6.17886 0.25
311 2.35724 0.562511 2.37425 0.25
312 8.96306 0.963467 8.4932 0.5
313 1.73049 8.22051 1.90863 0.25
314 1.09082 3.81118 1.88991 0.25
315 2.85282 0.922442 9.01833 0.5
316 7.04668 4.71729 7.29106 0.25
317 6.21018 10.2023 8.65843 0.25
318 0.0615711 8.19469 8.94887 0.25
319 0.00710748 9.76613 3.7297 0.25
320 0.100638 3.35999 9.15563 0.25
321 1.82041 1.96628 1.63768 0.25
322 1.14389 7.01344 4.66735 0.25
323 6.43737 10.1015 9.31586 0.5
324 7.90862 2.36438 2.49338 0.25
325 9.15961 3.90303 2.01576 0.25
326 2.76199 10.1588 5.51751 0.25
327 1.24012 9.12907 7.92646 0.25
328 4.26765 3.77291 2.37387 0.25
329 8.65573 6.91179 4.22365 0.5
330 9.64535 6.65138 2.764 0.25
331 9.3173 0.043926 4.07358 0.25
332 6.57322 7.69507 0.697283 0.25
333 9.99626 7.77203 9.55806 0.25
334 6.82033 5.24376 1.52495 0.25
335 5.79949 4.611 0.512137 0.25
336 9.16842 3.92515 1.54467 0.25
337 4.75374 5.64784 8.50344 0.25
338 6.78113 8.29074 1.98144 0.25
339 3.92736 5.87587 8.56502 0.25
340 0.236083 3.41979 9.62898 0.25
341 3.72444 5.64647 4.41879 0.25
342 9.85811 3.09062 7.21323 0.25
343 9.95147 1.85133 3.96917 0.25
344 4.21691 0.790546 3.04172 0.25
345 6.3601 4.21302 0.130256 0.25
346 1.99896 2.1008 7.68416 0.25
347 3.35647 4.31087 0.0881019 0.25
348 5.8829 7.74478 0.233196 0.25
349 4.88626 1.79449 7.63375 0.25
350 2.66096 3.14966 8.30632 0.25
351 5.02415 6.40072 3.71706 0.25
352 8.34529 6.59197 1.64036 0.25
353 9.50924 3.37406 6.93975 0.25
354 9.94824 3.56367 2.05319 0.25
355 2.86067 1.55603 1.70985 0.25
356 4.26095 0.0965287 0.514779 0.25
357 3.08614 4.53346 5.82001 0.25
358 3.90078 10.1166 0.640955 0.25
359 9.12502 6.51552 0.787438 0.5
360 4.19076 0.0484942 6.91865 0.25
361 0.121195 0.665825 6.22655 0.25
362 0.044021 8.10869 9.46386 0.25
363 6.81252 2.60994 2.44049 0.25
364 10.1111 6.80913 2.5184 0.25
365 5.99512 9.05081 4.90513 0.25
366 9.08317 4.33606 2.28221 0.25
367 3.49168 0.621496 8.63477 0.25
368 9.64741 6.5341 7.56249 0.25
369 9.23941 4.49033 4.73751 0.5
370 4.7395 1.68226 6.92761 0.5
371 9.52208 6.4775 2.10946 0.5
372 1.07521 2.37756 4.18414 0.5
373 3.40148 0.0672379 8.57958 0.25
374 3.28725 0.330193 8.96328 0.25
375 5.21553 1.2264 2.84931 0.25
376 0.654228 5.77152 4.35014 0.25
377 10.2198 7.71729 9.13007 0.25
378 9.35371 8.31821 1.05248 0.25
379 0.200785 3.98617 6.11393 0.25
380 1.79235 2.06987 4.24834 0.25
381 7.0585 5.14581 2.15649 0.5
382 2.21654 7.72782 9.89299 0.25
383 5.4897 8.44224 8.33869 0.25
384 1.80654 6.81949 7.61215 0.25
385 1.26992 7.03381 5.16548 0.25
386 1.48354 5.61981 7.62525 0.25
387 1.29449 6.12974 7.64222 0.25
388 2.50115 2.31424 1.22957 0.25
389 5.6541 1.67499 0.597023 0.25
390 3.00969 4.2008 0.499616 0.25
391 3.69971 0.210409 6.26201 0.25
392 0.92362 5.67286 5.14864 0.25
393 9.10972 8.84556 6.58603 0.25
394 0.0556537 0.0964355 6.39113 0.25
395 1.86738 4.58174 3.02392 0.25
396 2.8004 0.519217 9.65087 0.25
397 7.50763 2.14835 2.27372 0.25
398 9.54389 4.7296 9.27935 0.25
399 2.45079 9.79045 7.50947 0.25
400 7.62267 2.56725 0.147122 0.25
401 5.46461 6.42473 3.45718 0.25
402 4.32847 5.70921 8.83246 0.25
403 5.97169 5.09329 0.389718 0.25
404 7.71731 3.52411 10.2659 0.25
405 1.26346 5.60893 0.699431 0.25
406 6.45611 9.26099 5.05463 0.25
407 6.70907 6.95075 8.59224 0.25
408 9.90392 8.91511 1.006 0.25
409 10.2471 6.39184 2.25317 0.25
410 5.47241 1.41539 4.22581 0.25
411 7.79291 8.72198 9.41025 0.25
412 4.75396 2.2646 7.44639 0.25
413 7.19273 2.49458 2.05419 0.25
414 6.97932 5.71501 2.72872 0.25
415 4.91104 0.597972 3.17848 0.5
416 10.0865 0.658924 9.12427 0.25
417 3.08093 7.94567 5.99078 0.5
418 0.620641 1.13583 6.59686 0.5
419 9.08238 0.0165109 3.62212 0.25
420 5.37997 8.67256 7.89586 0.25
421 8.98467 5.98939 7.58884 0.25
422 2.31373 7.10274 3.10373 0.25
423 1.61577 5.02917 2.95086 0.25
424 0.128309 0.0313759 9.59958 0.25
425 2.38406 9.72052 4.76352 0.25
426 2.67841 1.82528 1.30344 0.25
427 7.09492 1.28035 6.35944 0.25
428 7.42368 9.64223 1.9272 0.25
429 5.14692 9.12342 7.78456 0.25
430 9.91677 9.32198 3.22764 0.25
431 7.27778 10.3539 0.85815 0.25
432 3.0496 7.93977 10.0241 0.25
433 2.94105 2.52183 5.2056 0.25
434 5.84748 9.92502 8.86739 0.25
435 0.943054 2.57075 10.2494 0.25
436 6.4949 4.63437 10.2264 0.25
437 0.698259 5.98092 10.1339 0.25
438 7.81773 0.947277 6.57075 0.25
439 9.69236 10.0501 3.4715 0.5
440 2.25731 2.86107 7.75344 0.5
441 1.19782 3.8112 2.35574 0.25
442 6.91982 7.32643 0.816058 0.25
443 9.93097 9.66829 4.00927 0.25
444 1.58089 3.68037 2.10834 0.25
445 5.08506 6.72603 3.30701 0.25
446 8.34681 4.87037 4.24186 0.25
447 6.45219 5.01026 0.195897 0.25
448 4.84065 1.12091 3.88801 0.5
449 0.493802 0.624138 5.98325 0.25
450 2.74487 0.831272 2.09631 0.25
451 3.00296 3.64293 10.1732 0.25
452 5.78828 4.25525 4.71725 0.25
453 7.20333 3.80739 8.3279 0.25
454 1.61679 5.79495 8.40966 0.25
455 1.41592 6.20847 8.15769 0.25
456 2.2095 1.95264 1.30961 0.25
457 9.87238 8.38962 1.66395 0.5
458 1.51421 5.95658 7.2244 0.25
459 1.00166 1.70511 6.96077 0.25
460 1.9732 6.16447 7.06619 0.25
461 3.45284 5.80175 1.438 0.25
462 3.8641 5.83358 1.70594 0.25
463 1.7283 10.1794 4.60165 0.25
464 9.60587 1.47922 1.81133 0.25
465 6.76976 5.81107 2.27053 0.25
466 4.83639 5.52108 7.78634 0.5
467 3.26713 5.19375 5.41133 0.25
468 2.70434 1.37034 2.14338 0.25
469 4.6235 4.10594 2.62708 0.25
470 4.10271 3.71951 3.16352 0.25
471 3.28459 9.78711 4.96519 0.25
472 1.98743 2.61617 7.06946 0.25
473 2.42926 7.82614 9.489 0.25
474 9.41099 4.0798 2.49796 0.25
475 8.68458 7.42626 4.85419 0.25
476 4.25114 6.10051 1.45748 0.25
477 10.1074 9.36873 3.61385 0.25
478 8.78082 5.97101 1.41117 0.5
479 6.85553 10.3147 0.992855 0.25
480 2.58202 8.0361 9.94683 0.25
481 4.75414 9.41942 1.16515 0.25
482 6.57834 9.69792 5.29773 0.25
483 6.91887 10.3314 0.197638 0.5
484 9.71245 3.47761 7.36176 0.25
485 8.1043 3.17499 10.2972 0.25
486 4.47353 8.26299 3.01464 0.25
487 3.49529 4.06748 0.527389 0.25
488 6.62819 9.58511 1.88057 0.25
489 9.27062 7.39123 4.04091 0.25
490 2.60067 3.50094 7.55335 0.25
491 8.63297 9.06225 6.81464 0.25
492 7.71516 2.2943 10.1021 0.25
493 10.151 3.46445 7.49664 0.25
494 8.53945 4.42497 4.97009 0.25
495 9.89438 3.9118 7.43277 0.25
496 4.2597 1.68517 6.38114 0.25
497 3.36932 3.92859 10.0738 0.25
498 8.44392 1.2554 8.99793 0.25
499 4.00303 9.32245 0.83443 0.25
500 4.26298 7.26642 8.92387 0.25
501 2.78533 0.0552664 5.05648 0.25
502 9.53983 6.25736 6.78035 0.25
503 6.9465 8.25664 2.83563 0.25
504 6.51363 7.27705 0.488022 0.25
505 7.63337 1.16451 5.78594 0.5
506 5.67501 10.1744 5.36182 0.25
507 7.11345 8.34144 2.32747 0.25
508 4.66898 8.606 8.81864 0.25
509 1.52413 8.99353 7.18848 0.25
510 5.62321 3.96895 5.05544 0.25
511 3.72264 0.0149538 6.72719 0.25
512 1.81713 4.93218 3.79978 0.25
513 1.40187 5.3729 9.82899 0.25
514 3.56864 2.00974 5.20802 0.25
515 1.77688 1.83959 6.92021 0.5
516 6.09837 9.16913 5.62629 0.5
517 9.07787 7.52155 4.46032 0.25
518 2.52789 0.970747 9.75126 0.25
519 3.06589 10.1884 4.68925 0.25
520 5.0554 2.40752 7.02706 0.25
521 1.29448 4.48372 5.58522 0.25
522 2.59568 10.139 4.6874 0.25
523 2.21746 3.40867 8.29401 0.25
524 8.24289 2.08387 4.80584 0.25
525 2.2996 6.70486 7.52864 0.25
526 1.77071 5.35024 8.58173 0.25
527 7.00826 9.45661 2.86043 0.5
528 7.58352 8.55842 2.35467 0.25
529 4.46864 6.41226 1.10901 0.25
530 2.15438 8.33412 2.18575 0.25
531 0.682702 2.29617 10.0001 0.25
532 2.18706 8.23225 0.337695 0.25
533 9.1539 9.49951 3.69406 0.25
534 8.76966 4.99257 4.47317 0.25
535 7.39935 6.5949 8.98048 0.25
536 3.69335 9.69222 0.746647 0.25
537 7.35745 1.13957 2.98177 0.25
538 7.44068 3.64638 7.44326 0.25
539 10.1882 3.6527 6.79947 0.5
540 6.10201 10.1768 8.19554 0.25
541 9.57503 8.70326 1.20128 0.25
542 7.30753 9.16335 6.02194 0.25
543 9.25838 4.46735 3.96407 0.25
544 1.50592 2.05057 7.6039 0.25
545 0.061297 10.0761 3.33588 0.25
546 10.3361 0.919918 6.65046 0.25
547 9.518 3.63949 1.72737 0.25
548 9.06547 4.59497 9.17807 0.25
549 1.85738 1.23294 2.25229 0.25
550 9.85761 8.42246 0.915667 0.25
551 3.07414 7.50604 3.48328 0.25
552 9.07102 9.27588 6.83116 0.25
553 5.54757 3.16927 5.77009 0.25
554 8.80979 4.67264 4.094 0.25
555 5.65171 9.14642 7.91485 0.25
556 1.65077 8.5119 7.41575 0.25
557 2.94553 9.61668 7.54645 0.25
558 3.02124 3.70496 7.83014 0.25
559 9.67567 0.86546 8.39542 0.25
560 3.70419 5.00755 5.63725 0.25
561 0.912774 4.2813 1.65283 0.25
562 5.40593 4.72966 9.39001 0.25
563 5.64026 9.99414 8.06359 0.25
564 1.57694 1.2801 7.40232 0.25
565 2.33455 1.01252 2.25372 0.25
566 9.25056 6.71888 7.31243 0.25
567 1.16174 6.10007 0.890308 0.25
568 7.81327 1.28139 5.04944 0.25
569 6.77732 4.01178 7.30986 0.5
570 4.26925 4.30159 2.36457 0.25
571 4.12196 3.25492 3.18884 0.25
572 8.5778 1.56552 8.63018 0.25
573 0.854888 6.79421 5.41244 0.25
574 10.3068 1.11364 6.15891 0.25
575 5.93956 3.62281 4.31713 0.25
576 5.16264 1.82685 0.81563 0.25
577 0.471918 7.99834 5.10648 0.25
578 0.997962 5.34513 0.0567926 0.5
579 4.96467 5.04341 7.1954 0.25
580 8.40234 7.03941 5.00567 0.25
581 6.84741 7.23793 8.98795 0.25
582 7.11528 4.51422 4.70326 0.25
583 9.19423 5.72735 6.22057 0.25
584 5.22075 7.19014 3.41516 0.25
585 6.83336 0.360873 0.800001 0.25
586 1.64739 2.30736 4.67058 0.25
587 6.1647 9.93568 5.5201 0.25
588 2.94649 1.69685 9.31624 0.25
589 10.006 3.64507 1.53182 0.25
590 8.82228 7.61948 4.00476 0.25
591 3.73359 2.52568 5.18561 0.25
592 6.49732 5.60557 2.55374 0.25
593 5.51269 9.52498 5.93016 0.25
594 8.97742 6.29972 0.0191143 0.25
595 1.74533 2.39801 7.46544 0.25
596 9.76616 9.11968 1.44008 0.25
597 4.52737 1.09545 2.77263 0.25
598 6.42564 7.25043 0.982544 0.25
599 9.94107 1.88857 1.58087 0.25
600 4.06092 9.308 1.61776 0.25
601 7.4392 9.93827 2.31537 0.25
602 6.61909 8.31601 3.20992 0.25
603 2.40282 6.37516 7.18376 0.25
604 8.84213 0.979489 1.24575 0.25
605 2.06875 7.88176 2.08496 0.25
606 1.79175 1.67128 7.66456 0.25
607 2.24311 2.28969 7.26038 0.25
608 5.74187 6.09867 5.72063 0.5
609 3.52194 6.1732 1.81851 0.25
610 6.38825 4.938 0.958792 0.5
611 8.33143 8.62445 7.42971 0.25
612 8.60223 10.2808 4.1451 0.5
613 8.34902 2.73708 10.2921 0.25
614 9.62062 6.69324 1.39926 0.25
615 6.73139 4.6745 7.68996 0.25
616 1.27345 1.34249 6.99945 0.25
617 2.91377 3.23418 7.84986 0.25
618 7.6249 3.06969 0.0314687 0.25
619 1.66811 9.68382 2.45862 0.25
620 6.6606 6.04589 2.77153 0.25
621 6.60632 4.80082 1.65012 0.25
622 7.28771 7.07373 9.20205 0.25
623 7.88529 4.42778 4.61188 0.5
624 4.67688 8.55827 8.31415 0.25
625 5.14322 1.70642 10.3507 0.25
626 2.35365 2.69866 4.10745 0.25
627 6.74073 5.24728 2.86793 0.25
628 1.29323 9.99667 0.196956 0.25
629 7.37394 10.1151 9.99591 0.25
630 5.63195 7.81764 0.67426 0.25
631 8.36302 1.86111 5.26202 0.25
632 3.22112 3.83929 0.216562 0.25
633 2.91579 4.10177 10.3201 0.25
634 4.4368 7.88891 8.56453 0.5
635 9.33812 6.26713 7.23657 0.25
636 8.52826 4.98026 9.87201 0.25
637 6.38018 9.17427 4.59573 0.25
638 2.05966 10.1754 5.23877 0.5
639 6.93156 2.91793 2.07821 0.25
640 7.44076 1.6763 7.68696 0.25
641 3.59803 5.51435 3.93757 0.25
642 3.91291 7.50716 6.52822 0.25
643 3.07253 1.95834 9.70152 0.25
644 6.01835 9.81965 4.81133 0.5
645 3.1565 3.36622 0.2416 0.25
646 8.21805 7.42613 4.67073 0.25
647 6.46498 6.06236 5.65646 0.25
648 7.09461 1.30636 7.63491 0.25
649 4.73598 5.97494 8.85273 0.25
650 7.81465 1.26881 3.17998 0.25
651 4.87861 8.67409 7.88081 0.25
652 1.16773 5.94343 8.49623 0.25
653 0.833469 4.58441 5.77746 0.25
654 1.60005 6.44625 7.33375 0.25
655 10.1189 4.03686 1.26299 0.25
656 4.42738 5.08276 7.36413 0.25
657 8.3119 9.48128 6.95403 0.25
658 7.11512 3.59302 7.86682 0.25
659 9.21837 9.97608 4.38005 0.25
660 2.02862 6.09385 7.793 0.5
661 2.69876 7.376 3.22189 0.25
662 7.76317 9.18671 5.73413 0.25
663 3.58493 0.738033 9.15946 0.25
664 10.13 3.29322 9.55587 0.25
665 8.42313 6.5279 1.14551 0.25
666 5.45427 9.82322 8.52532 0.25
667 7.78305 3.1701 9.90758 0.25
668 6.98037 1.57777 5.4531 0.25
669 3.24962 7.61837 9.28752 0.5
670 0.900475 3.02603 10.1377 0.25
671 0.806609 6.36139 4.83481 0.5
672 5.87765 6.85529 5.48446 0.25
673 4.53792 9.53845 1.61262 0.25
674 7.1825 4.37556 4.21194 0.25
675 8.06055 9.04515 7.58275 0.25
676 5.47983 2.29432 0.306844 0.5
677 9.38987 3.05614 7.3668 0.25
678 9.81711 0.517035 6.27365 0.5
679 2.35137 2.38286 6.75096 0.25
680 3.11121 7.19275 3.07636 0.25
681 7.86361 9.28356 7.12744 0.25
682 2.82138 7.28573 5.7994 0.25
683 0.0945146 2.88373 10.3402 0.25
684 1.4802 8.64269 7.90478 0.25
685 8.91462 9.91087 3.48954 0.25
686 6.73112 9.53458 4.80916 0.25
687 9.82093 3.13106 7.67636 0.25
688 5.33664 7.72156 0.257574 0.25
689 2.23688 2.20426 4.07472 0.25
690 9.87514 7.36985 9.3412 0.25
691 0.73567 8.24851 5.85352 0.25
692 1.20917 4.40945 6.07937 0.25
693 9.54361 2.08263 3.69168 0.25
694 3.5886 3.56968 0.417797 0.25
695 8.1828 1.62333 4.87908 0.25
696 5.533 0.899019 3.53715 0.25
697 1.21239 8.85993 7.55834 0.25
698 8.81511 5.81952 0.623294 0.25
699 3.43367 7.71318 5.30199 0.25
700 5.5683 8.14415 0.294747 0.25
701 3.36381 4.72254 5.45026 0.25
702 6.36234 3.52294 4.55381 0.25
703 2.32458 0.639253 1.85953 0.25
704 6.94599 4.20877 8.48126 0.25
705 3.88993 5.80476 9.05125 0.25
706 7.56855 1.27505 7.47167 0.25
707 6.2585 6.93857 5.24457 0.25
708 5.55998 6.86571 3.19276 0.25
709 1.54592 4.44211 2.00025 0.5
710 1.25855 4.87439 5.84716 0.25
711 7.33831 4.42653 7.07451 0.25
712 4.82579 8.36371 3.33767 0.25
713 1.54208 4.75073 3.40344 0.25
714 2.12681 10.0212 4.48693 0.25
715 2.59584 3.96132 7.82623 0.25
716 9.29589 8.95452 1.51916 0.25
717 3.13927 4.85911 5.06381 0.25
718 5.87378 3.33749 5.09929 0.5
719 5.4689 2.68368 5.18543 0.25
720 5.59576 0.990298 4.02738 0.25
721 3.62263 7.89738 6.71094 0.25
722 4.3727 5.25317 4.5512 0.25
723 5.88291 7.03066 6.34562 0.25
724 9.62913 0.79674 8.93026 0.25
725 4.4276 0.358996 6.61392 0.25
726 3.9805 5.29792 4.20491 0.25
727 4.16619 5.71258 4.48196 0.25
728 2.58312 7.66324 0.215496 0.5
729 7.72007 1.91292 5.94042 0.25
730 8.06152 1.53704 8.72457 0.25
731 1.08287 5.77192 9.81459 0.25
732 4.10693 7.67984 6.04756 0.25
733 9.7327 2.36469 4.61009 0.25
734 8.33598 7.51168 4.13793 0.25
735 3.34783 2.41255 5.41291 0.25
736 8.4905 5.71935 6.76673 0.25
737 0.796496 4.28998 5.35808 0.25
738 5.02643 8.34125 8.6464 0.25
739 3.68019 3.89626 0.0838487 0.25
740 8.79824 6.55552 1.86834 0.25
741 6.66173 2.80734 2.85865 0.25
742 4.91331 1.93355 0.394811 0.25
743 9.72094 1.85948 4.43353 0.25
744 2.36965 2.25352 4.77132 0.5
745 0.482044 4.21228 5.74412 0.25
746 7.0332 4.79949 1.4034 0.25
747 7.6294 1.99038 9.78905 0.25
748 7.21956 10.0449 9.48386 0.25
749 6.67158 4.35634 8.04253 0.25
750 4.27977 2.13922 6.56811 0.25
751 1.76545 2.23275 3.79158 0.25
752 9.66341 2.26664 4.14556 0.25
753 0.172402 2.66777 9.54396 0.5
754 8.13391 1.76775 5.70262 0.25
755 7.90666 2.73675 10.1049 0.25
756 5.37054 1.81872 1.29892 0.25
757 0.0870859 2.19359 4.44067 0.5
758 1.87772 9.71899 4.70479 0.25
759 4.8532 2.83761 8.21688 0.25
760 4.91778 0.32628 3.91009 0.25
761 5.65526 6.83679 5.94456 0.25
762 0.503581 3.88738 6.51133 0.25
763 6.47435 4.25829 4.38001 0.5
764 4.88449 6.90416 3.72194 0.25
765 7.04114 6.54045 8.61574 0.25
766 1.21022 5.14291 3.23355 0.25
767 7.40203 2.93526 1.9672 0.25
768 5.09532 2.48358 5.86061 0.5
769 0.591597 3.21845 9.25762 0.25
770 6.47315 6.77489 5.99277 0.5
771 5.66278 7.39342 10.3351 0.25
772 7.10945 9.15392 5.31949 0.5
773 5.88894 4.22196 0.244505 0.25
774 7.19204 8.7019 2.68751 0.25
775 9.73864 7.81623 9.11656 0.25
776 4.02949 10.2173 0.152651 0.25
777 1.32526 8.21296 2.28708 0.25
778 3.07812 0.462485 8.47114 0.25
779 9.48689 7.37418 9.05408 0.25
780 5.1588 4.91035 9.81581 0.25
781 5.74049 7.18232 3.55528 0.25
782 9.47119 6.23888 1.3511 0.25
783 4.03434 8.16265 3.32494 0.25
784 3.49103 3.45489 10.2586 0.25
785 8.5705 9.0801 7.5854 0.25
786 6.27136 6.1334 5.17111 0.25
787 5.94098 6.53662 5.08175 0.25
788 5.30669 0.554149 3.83517 0.25
789 6.37935 4.86235 2.08145 0.25
790 4.78197 2.32942 6.58369 0.25
791 8.77611 5.39587 6.45656 0.25
792 4.72781 3.45091 2.85112 0.5
793 10.3393 0.302806 8.86869 0.25
794 2.2608 1.52623 2.35994 0.25
795 1.28124 9.34115 7.48515 0.25
796 2.6152 10.0436 3.99559 0.5
797 10.003 9.72244 2.88367 0.25
798 9.19972 4.9454 4.15562 0.25
799 2.95221 6.33925 1.3633 0.5
800 9.88483 1.10052 1.95768 0.25
801 6.03041 10.3121 9.92884 0.25
802 6.36963 7.61423 0.20995 0.25
803 9.20212 5.06035 9.43121 0.25
804 4.10595 5.27401 7.71457 0.25
805 8.84079 4.19914 4.14232 0.25
806 2.21407 9.86566 7.96118 0.25
807 2.91368 4.86685 5.51104 0.25
808 8.35429 5.02219 9.4146 0.25
809 1.59268 5.76682 9.89685 0.25
810 7.3882 1.69598 6.27437 0.25
811 9.26352 4.63412 9.65652 0.25
812 3.74608 6.20184 1.40696 0.25
813 1.62509 3.90812 2.53537 0.25
814 0.857303 9.86603 0.394444 0.25
815 3.8117 5.31072 5.01586 0.5
816 6.46253 0.23409 9.97443 0.25
817 4.51076 9.6972 0.476175 0.5
818 9.18123 5.91068 0.320673 0.25
819 4.01912 6.19665 1.01034 0.25
820 7.40324 4.25013 8.60123 0.25
821 7.9059 8.76243 7.1804 0.25
822 3.97817 4.20353 3.17392 0.25
823 1.94574 9.17579 7.77149 0.5
824 7.52687 4.01412 7.17642 0.25
825 8.00745 9.06628 6.42516 0.5
826 7.22495 3.31965 2.21671 0.25
827 8.62507 5.93804 7.21996 0.25
828 9.67404 3.82771 1.28986 0.25
829 0.902632 8.00016 4.90625 0.25
830 4.09024 6.56905 1.38767 0.25
831 2.73652 7.2597 2.79148 0.25
832 4.13656 5.40532 9.1875 0.25
833 6.10488 6.24406 6.37983 0.25
834 8.58667 4.09572 4.57606 0.25
835 1.42345 1.26153 6.56516 0.25
836 6.38443 5.37718 2.11713 0.25
837 3.79843 7.18256 8.97005 0.25
838 2.56691 9.2907 7.40418 0.25
839 0.00776737 2.85621 4.167 0.25
840 9.6817 4.73445 4.14963 0.25
841 5.81388 4.83414 10.0836 0.5
842 6.92281 6.76364 9.0407 0.25
843 1.2248 9.47817 2.21225 0.25
844 6.37128 5.20969 1.7099 0.25
845 8.37715 4.39303 4.02359 0.25
846 0.61893 5.27213 4.51079 0.25
847 7.85872 2.43803 9.6797 0.25
848 3.22286 1.2091 9.77659 0.5
849 6.40147 5.08565 2.53722 0.25
850 4.59365 8.74335 3.08184 0.25
851 3.6514 6.62138 1.59946 0.25
852 5.59765 1.38852 3.74261 0.25
853 9.64346 10.0236 4.19164 0.25
854 2.20631 3.61341 7.82484 0.25
855 3.91971 5.73899 1.2062 0.25
856 9.37067 3.35824 7.76779 0.25
857 6.47715 3.79628 5.00045 0.25
858 8.16759 6.68128 3.68936 0.25
859 9.6446 1.07151 1.4772 0.25
860 3.32871 9.91544 4.39915 0.25
861 4.52593 9.08667 1.4715 0.25
862 7.58956 1.1875 8.21685 0.5
863 0.583502 2.88539 0.137143 0.25
864 4.51631 2.97726 2.30495 0.25
865 0.389558 6.85917 5.265 0.25
866 2.55307 1.39206 10.0001 0.25
867 2.62724 8.08989 9.11824 0.25
868 9.21123 1.29535 1.4853 0.25
869 0.619683 8.43236 5.12948 0.25
870 7.2111 6.98999 8.70175 0.25
871 6.7726 3.11807 2.4827 0.25
872 8.22113 1.61072 7.5009 0.5
873 5.32434 9.80648 5.14397 0.25
874 6.77573 8.98612 4.74524 0.25
875 3.06707 8.00928 5.25473 0.25
876 3.64832 6.57674 1.10951 0.25
877 0.413988 2.18396 3.68959 0.25
878 0.390119 0.136325 9.14088 0.25
879 0.641224 7.59183 4.86573 0.25
880 5.56604 3.79809 4.5839 0.25
881 4.19826 6.51621 8.81733 0.5
882 10.1897 10.2748 5.8954 0.25
883 5.2542 3.05796 5.41851 0.25
884 2.51035 2.11317 1.99475 0.5
885 8.75532 9.62762 3.814 0.25
886 9.46276 9.1399 1.04124 0.25
887 1.48831 6.55711 7.83537 0.25
888 1.84914 0.572279 1.67592 0.25
889 4.94263 5.16001 8.4368 0.25
890 0.669105 3.79733 6.05497 0.25
891 4.12372 3.31043 2.31706 0.25
892 6.88601 8.72854 3.12016 0.25
893 8.00179 2.81 0.287588 0.25
894 1.92434 8.47312 0.0512205 0.25
895 9.20351 3.48907 7.32067 0.25
896 9.63113 1.5374 1.2844 0.25
897 4.04606 7.97808 6.4302 0.25
898 0.970636 4.96111 5.10444 0.5
899 0.314941 1.07299 5.91991 0.25
900 8.61005 7.67909 4.46469 0.25
901 0.925786 8.16218 5.36863 0.25
902 5.66509 1.96631 0.942439 0.25
903 8.03756 6.95685 4.6333 0.25
904 1.30776 6.17048 0.130125 0.5
905 9.27105 0.753534 1.47244 0.25
906 9.65374 9.34804 3.71211 0.25