ITEM: TIMESTEP
650000
ITEM: NUMBER OF ATOMS
1000
ITEM: BOX BOUNDS xy xz yz pp pp pp
0.0000000000000000e+00 1.0357442000000001e+01 0.0000000000000000e+00
0.0000000000000000e+00 1.0357442000000001e+01 0.0000000000000000e+00
0.0000000000000000e+00 1.0357442000000001e+01 0.0000000000000000e+00
ITEM: ATOMS id x y z radius
1 1.26529 4.43983 2.7173 0.5
2 2.02908 7.70243 2.57509 0.5
3 4.67577 1.94494 0.928591 0.25
4 0.729667 2.27477 4.59141 0.25
5 10.2224 3.41902 7.77842 0.25
6 0.341328 2.76298 9.29101 0.25
7 4.47768 0.371563 3.71747 0.25
8 8.69623 4.05602 1.77598 0.25
9 9.73842 1.45184 1.77522 0.25
10 9.09926 7.09284 3.86815 0.25
11 9.8409 9.23693 1.87344 0.25
12 7.54325 2.71824 9.93509 0.25
13 3.65069 8.08288 5.89859 0.25
14 5.3871 1.71266 10.3326 0.25
15 8.61826 6.14981 6.386 0.25
16 8.83128 8.80856 6.43973 0.25
17 5.53207 8.78289 8.42587 0.5
18 3.07809 7.96426 10.102 0.25
19 7.23418 4.02353 4.61578 0.25
20 9.12242 1.02769 1.45991 0.25
21 0.419242 0.208523 9.66065 0.25
22 4.68318 0.0478449 3.38227 0.25
23 4.81275 4.14405 2.77799 0.25
24 2.80056 2.52179 4.05245 0.25
25 7.02409 1.98069 6.13039 0.25
26 5.38215 2.77707 8.30217 0.25
27 2.06598 8.15093 0.330064 0.25
28 8.81987 6.49784 6.68296 0.25
29 3.41278 7.90765 5.4434 0.25
30 0.881149 9.40464 7.454 0.25
31 0.214556 7.38178 4.95551 0.25
32 8.90994 6.85371 1.23841 0.25
33 9.88947 8.74108 1.89566 0.25
34 1.23252 2.66868 9.82108 0.25
35 7.74922 2.6301 9.41076 0.25
36 8.15501 8.47916 9.26193 0.25
37 4.26105 4.98466 5.66021 0.25
38 7.48265 0.188914 1.23754 0.25
39 6.36828 3.53711 4.68109 0.25
40 8.65774 4.46642 4.62414 0.25
41 8.70126 7.94937 4.02923 0.25
42 6.7311 8.42488 2.22761 0.5
43 0.379689 8.47159 5.77121 0.25
44 3.11192 10.1438 4.90093 0.25
45 6.89238 6.49084 8.21506 0.25
46 1.00338 9.14343 7.02213 0.25
47 3.96941 8.47841 3.54191 0.25
48 3.04978 9.83352 5.23179 0.25
49 4.64172 5.88379 9.27248 0.25
50 10.005 9.50696 3.89523 0.25
51 9.64514 9.05317 0.720188 0.25
52 5.77503 7.43351 0.909387 0.25
53 6.46161 5.52477 1.86675 0.25
54 4.59234 4.78496 8.0577 0.25
55 5.40577 6.54732 6.58207 0.25
56 5.48153 2.30229 1.30005 0.25
57 5.08407 1.56206 0.339772 0.25
58 5.83998 4.33991 0.580611 0.25
59 3.95665 7.95019 9.04615 0.25
60 6.69641 6.12489 8.50948 0.25
61 3.09307 10.2558 8.8075 0.25
62 9.37106 6.48201 6.5897 0.25
63 0.812423 5.24462 4.30185 0.25
64 10.1842 1.52569 1.60882 0.25
65 6.13401 6.95921 6.7731 0.25
66 4.26881 0.341713 3.26984 0.25
67 9.17935 5.14914 9.17311 0.25
68 6.41151 0.177301 10.2058 0.25
69 2.59327 7.2363 2.7026 0.25
70 3.63613 6.01374 4.25059 0.25
71 1.32352 7.88408 2.65499 0.25
72 5.5348 6.85185 3.7632 0.25
73 9.14466 8.75681 7.18208 0.5
74 2.75748 7.7142 2.69164 0.25
75 0.956979 5.6778 0.445211 0.25
76 1.73558 8.28481 10.3236 0.25
77 7.10486 6.24562 8.60842 0.25
78 3.8566 9.18997 1.05073 0.25
79 0.689798 5.47355 9.46662 0.25
80 8.44686 8.49959 9.68898 0.25
81 8.25171 9.34656 7.36428 0.25
82 1.93763 0.660661 1.95557 0.25
83 1.84272 8.34747 2.17833 0.25
84 5.23574 9.35146 5.56995 0.25
85 3.50376 6.44474 1.72615 0.25
86 9.75718 4.24717 2.15095 0.5
87 1.47368 6.00249 8.26986 0.25
88 2.73261 3.77365 8.42633 0.25
89 0.909567 0.276599 9.83353 0.25
90 6.97205 10.2251 1.6596 0.5
91 3.91974 7.9936 3.53585 0.25
92 9.59449 1.48963 0.992153 0.25
93 8.38657 1.38837 8.37177 0.25
94 0.989778 4.3749 1.99798 0.25
95 7.84685 8.90844 5.6427 0.25
96 7.65748 1.28818 7.26537 0.25
97 5.55225 9.68088 5.55671 0.25
98 10.1132 1.13786 6.08539 0.25
99 5.14833 2.054 8.18098 0.5
100 5.50568 2.84294 5.38511 0.25
101 5.21797 2.04026 9.67186 0.5
102 4.13655 5.10956 8.55338 0.5
103 6.66188 0.333287 1.10022 0.25
104 1.0208 9.9649 10.2317 0.25
105 2.08495 5.08407 3.06583 0.25
106 6.15154 6.21478 6.40011 0.25
107 6.03966 9.9146 8.67881 0.25
108 1.74646 3.42837 2.31545 0.25
109 7.21711 2.41639 3.13271 0.25
110 5.57419 9.88764 6.01363 0.25
111 1.74912 5.65792 0.443967 0.25
112 3.86014 5.33781 5.65585 0.25
113 2.1016 0.210921 4.39297 0.25
114 8.37336 6.18205 0.180629 0.25
115 3.85939 3.52061 2.41041 0.25
116 0.145614 2.36121 3.55883 0.25
117 7.40059 2.04355 2.44729 0.5
118 7.12088 7.9902 2.69495 0.25
119 10.0519 2.41461 4.5378 0.25
120 1.60515 5.40453 10.355 0.25
121 7.44256 2.19966 5.56093 0.5
122 2.03758 4.25302 2.6592 0.25
123 9.12544 9.18101 1.35302 0.25
124 8.18654 6.22011 0.623116 0.25
125 1.49834 10.0824 4.36637 0.25
126 6.02288 7.67901 0.610033 0.25
127 5.81478 7.24221 0.423837 0.25
128 9.13303 9.51808 3.9381 0.25
129 1.69798 5.37246 3.12279 0.25
130 9.19615 8.97831 0.893067 0.25
131 7.69185 2.37805 3.00761 0.25
132 8.55835 4.7891 5.02622 0.25
133 8.27022 8.9388 9.51488 0.25
134 4.5273 4.39605 3.0727 0.25
135 6.20838 9.4718 8.05009 0.5
136 8.45774 9.03561 7.06352 0.25
137 1.19221 9.69054 1.95293 0.25
138 7.16684 4.44641 4.74991 0.25
139 6.92816 4.44684 7.80748 0.5
140 4.10272 8.93142 3.46436 0.25
141 2.04685 1.78102 1.38095 0.25
142 2.87777 2.89055 4.847 0.25
143 7.51137 1.04674 3.67601 0.25
144 9.56022 6.61573 2.38492 0.25
145 3.21339 7.8662 5.93023 0.25
146 6.81864 9.30659 3.0078 0.25
147 3.83147 5.59231 3.95934 0.25
148 3.09554 1.58314 9.93076 0.25
149 9.83092 7.55946 9.54251 0.25
150 4.17628 4.77213 7.84215 0.25
151 7.0687 9.84646 9.89515 0.25
152 4.099 9.62432 0.83681 0.25
153 5.30684 1.91448 7.47201 0.25
154 5.47924 9.48103 8.2598 0.25
155 4.0947 5.89147 1.16588 0.25
156 0.640403 8.9155 7.32475 0.25
157 5.32264 1.3163 3.10683 0.25
158 8.66821 9.59817 6.62489 0.25
159 3.27396 2.80228 5.14877 0.25
160 2.62315 3.41345 8.07552 0.25
161 3.27058 0.0356623 9.35515 0.25
162 3.90523 2.23649 5.88842 0.5
163 6.62072 10.0318 2.30646 0.25
164 5.33371 8.27618 7.95019 0.25
165 0.866661 3.02732 9.79853 0.25
166 6.75638 4.15295 6.75991 0.25
167 8.88001 10.2514 3.94534 0.25
168 10.1593 7.93936 8.89682 0.25
169 9.55765 6.7475 7.38466 0.25
170 3.5469 0.0442894 8.06602 0.25
171 0.908623 8.51843 7.58941 0.25
172 9.8152 6.33178 6.76246 0.25
173 0.727077 1.62385 3.80666 0.25
174 4.60469 2.13531 6.18873 0.25
175 9.95562 3.06842 7.59271 0.25
176 0.628341 5.91128 0.174634 0.25
177 9.88061 6.01403 7.12644 0.25
178 7.15552 1.50611 5.39856 0.25
179 2.6523 9.19026 7.74918 0.25
180 7.29818 9.15127 2.42976 0.5
181 1.03317 4.22234 5.73012 0.25
182 8.02628 1.14179 3.68939 0.25
183 2.54177 9.6672 4.6156 0.25
184 8.95881 5.29851 9.54898 0.25
185 8.85978 9.29834 6.29872 0.25
186 2.48658 7.33222 9.87833 0.25
187 3.01396 3.98679 10.1947 0.25
188 5.28258 2.68099 7.84416 0.25
189 9.88025 1.53218 6.34813 0.25
190 3.04354 7.27297 2.80863 0.25
191 5.2861 2.67546 9.13588 0.25
192 8.73245 9.39866 7.15308 0.25
193 5.15926 2.24677 8.95572 0.25
194 4.32983 9.19461 0.952552 0.25
195 5.35041 5.22077 9.72771 0.25
196 4.83723 1.66624 10.2161 0.25
197 9.14217 5.91596 6.96314 0.5
198 7.2931 1.92006 7.36903 0.5
199 7.06321 10.2634 9.77908 0.25
200 6.92585 1.01436 6.72237 0.25
201 5.84607 6.53263 6.6631 0.25
202 3.26164 7.65473 5.05336 0.25
203 4.69824 10.0605 0.201272 0.25
204 0.328703 3.60529 6.13834 0.25
205 4.03893 0.350505 6.75556 0.25
206 0.570023 2.05043 3.57158 0.25
207 1.13954 5.40059 3.65305 0.5
208 4.11095 4.53904 5.96513 0.25
209 6.83994 9.71037 2.68011 0.25
210 4.29766 0.0234624 6.48124 0.25
211 1.90678 4.71501 2.3705 0.25
212 0.328457 4.01386 1.8118 0.5
213 9.01517 4.17522 2.1298 0.25
214 3.46224 5.14161 5.94591 0.25
215 10.0715 0.577168 8.9195 0.25
216 5.73039 2.29428 0.444531 0.25
217 0.560859 7.94721 5.892 0.25
218 2.38018 1.11097 1.62911 0.5
219 0.678471 4.34656 6.06722 0.25
220 6.69153 9.1995 1.97578 0.25
221 8.81893 6.83108 3.50943 0.25
222 9.17669 6.66827 7.04178 0.25
223 5.48572 9.41346 5.17251 0.25
224 10.3231 3.78781 7.45278 0.25
225 7.85384 1.7061 5.93339 0.25
226 6.42767 8.92944 5.10487 0.25
227 7.10862 0.509963 1.20098 0.25
228 5.11752 1.74997 0.800846 0.25
229 2.94551 2.07596 1.35183 0.25
230 8.58448 7.59877 4.37999 0.25
231 7.54538 4.60538 6.90776 0.25
232 6.86586 9.6563 2.15664 0.25
233 8.15919 2.08142 9.16865 0.5
234 4.52272 9.67988 1.59161 0.25
235 1.01172 8.60566 7.0509 0.25
236 1.32435 5.41168 0.388971 0.25
237 7.79971 0.865953 4.02055 0.25
238 0.846513 6.06738 3.88175 0.25
239 0.40255 2.88501 9.74601 0.25
240 1.39772 8.95471 2.14795 0.5
241 1.66178 9.62586 1.87591 0.25
242 3.23188 7.65172 6.42827 0.25
243 1.33467 6.37833 0.747205 0.25
244 1.19112 1.64512 6.55664 0.25
245 5.64006 6.98458 6.77673 0.25
246 2.19257 8.04172 10.287 0.25
247 2.29323 7.15771 3.07076 0.25
248 5.52292 2.44336 8.6966 0.25
249 6.84317 4.25153 4.38534 0.25
250 7.27476 1.42979 6.86885 0.25
251 1.1325 1.35849 7.33652 0.25
252 7.89935 6.86024 8.93854 0.25
253 4.17267 7.14253 8.85886 0.25
254 1.03465 10.0207 2.27016 0.25
255 1.77868 0.584464 1.55103 0.25
256 4.38037 5.31283 4.4711 0.25
257 0.692894 10.2499 9.99452 0.25
258 4.64853 5.00729 7.11493 0.25
259 1.72385 0.081227 4.11025 0.25
260 1.15615 10.0654 0.325324 0.25
261 6.76631 6.1885 9.02474 0.25
262 5.37257 6.73956 4.19802 0.25
263 8.11049 8.14429 9.5923 0.25
264 7.69885 9.35729 9.88354 0.5
265 4.56381 3.40664 2.95376 0.25
266 4.50019 2.98612 2.67075 0.25
267 3.99692 7.89013 5.50059 0.25
268 3.64034 7.76402 6.22368 0.25
269 7.72859 9.4078 5.79286 0.25
270 4.09327 7.81895 6.00915 0.25
271 4.15266 8.94164 1.38457 0.25
272 6.42209 7.32523 5.52135 0.25
273 9.56535 3.24333 6.77105 0.25
274 3.59476 4.64161 6.05023 0.25
275 0.0467115 6.7762 2.36275 0.25
276 8.28977 0.939087 8.64238 0.25
277 3.02194 9.80627 8.11838 0.5
278 4.52224 6.05193 8.3885 0.25
279 2.65833 10.346 8.43394 0.25
280 3.56657 0.407453 9.34071 0.25
281 4.07102 8.20604 3.10806 0.25
282 4.47399 1.19995 3.34518 0.25
283 9.48004 0.130076 9.25365 0.25
284 1.4206 4.95701 0.188437 0.25
285 8.43804 6.89196 1.23268 0.25
286 10.1548 1.54954 2.0734 0.25
287 1.59171 8.32367 2.62401 0.25
288 1.16665 5.95877 4.21507 0.25
289 8.89864 1.51164 1.4019 0.25
290 8.75134 3.71994 2.1711 0.25
291 8.01921 2.52458 9.80233 0.25
292 4.19989 9.43576 1.32736 0.25
293 4.51305 2.73696 7.10562 0.5
294 10.0265 6.51175 2.58811 0.25
295 7.02466 0.953349 7.40342 0.5
296 2.86383 2.90024 4.36765 0.25
297 0.340101 8.1056 5.402 0.25
298 4.37644 9.35993 0.491841 0.25
299 9.10207 5.04662 9.9416 0.25
300 1.69824 9.70575 4.5706 0.25
301 4.84881 8.10423 7.97621 0.25
302 5.06001 4.8446 7.89581 0.25
303 8.65962 5.56196 10.226 0.5
304 3.85277 3.98364 2.52465 0.25
305 1.40501 8.0967 2.18874 0.25
306 9.81936 7.57915 9.01851 0.25
307 1.1557 0.0711795 10.2576 0.25
308 9.0557 6.18011 6.30282 0.25
309 8.19727 1.85923 8.45498 0.25
310 6.52471 7.01257 6.43236 0.25
311 1.79295 0.698221 2.39891 0.25
312 9.06241 1.09716 8.64143 0.5
313 0.988076 7.92628 2.31512 0.25
314 0.655521 4.27861 2.34808 0.25
315 2.92464 0.572554 8.9273 0.5
316 6.59261 4.04832 7.23784 0.25
317 6.49451 9.9116 8.57899 0.25
318 10.2525 7.40521 8.77921 0.25
319 10.2383 9.89329 4.12186 0.25
320 0.955266 2.34565 0.162724 0.25
321 2.54296 1.73437 1.2671 0.25
322 0.597526 7.03114 4.88728 0.25
323 6.57863 9.94756 9.27628 0.5
324 6.96681 1.53482 2.87625 0.25
325 9.15028 3.81542 1.92323 0.25
326 2.85589 10.3259 5.30893 0.25
327 1.25132 9.19729 7.76507 0.25
328 4.1136 3.66077 2.85176 0.25
329 8.34367 7.3047 3.77688 0.5
330 10.181 7.01376 1.94016 0.25
331 9.10882 10.1911 4.43058 0.25
332 6.53113 7.54257 0.683894 0.25
333 0.0871546 8.00944 9.29572 0.25
334 6.69295 5.169 1.52425 0.25
335 5.73252 4.85818 0.642819 0.25
336 9.16056 4.18345 1.59088 0.25
337 4.72808 5.58641 8.46659 0.25
338 7.44742 8.39896 2.50555 0.25
339 4.18813 5.7471 8.36715 0.25
340 1.06794 2.78265 10.2403 0.25
341 3.98487 5.22498 4.22345 0.25
342 9.60299 3.61949 7.08465 0.25
343 10.0406 2.26568 3.7086 0.25
344 4.18573 0.775073 3.05309 0.25
345 6.35504 4.54109 10.3561 0.25
346 1.58214 2.12103 7.03853 0.25
347 3.17716 3.3503 0.349295 0.25
348 5.78497 7.60912 0.147229 0.25
349 4.9268 1.6443 7.5527 0.25
350 2.92802 3.38401 7.72006 0.25
351 5.18992 7.10645 3.50309 0.25
352 8.13743 6.65093 1.5542 0.25
353 9.78796 4.0175 7.32695 0.25
354 9.99739 3.63157 1.8351 0.25
355 2.51077 1.34315 2.36757 0.25
356 4.19088 10.1278 0.82197 0.25
357 3.15031 4.76442 6.04207 0.25
358 4.3796 9.84345 0.475125 0.25
359 8.6371 6.79086 0.568799 0.5
360 4.51772 0.282726 6.82629 0.25
361 0.0274937 0.911637 6.46824 0.25
362 0.268115 7.72243 8.87245 0.25
363 7.34226 2.69383 2.76197 0.25
364 10.11 6.53004 2.08585 0.25
365 5.95496 9.1401 5.02309 0.25
366 9.1637 3.75992 2.42244 0.25
367 3.59734 0.302351 8.49045 0.25
368 9.93796 6.53297 7.21674 0.25
369 9.20705 4.09793 4.41069 0.5
370 4.93028 1.90175 6.83094 0.5
371 9.52097 6.71257 1.66908 0.5
372 1.20028 2.17519 4.03232 0.5
373 3.51592 10.1585 8.51365 0.25
374 3.524 0.132778 8.91794 0.25
375 4.82348 1.37873 2.97681 0.25
376 0.720275 5.72177 4.1907 0.25
377 10.2598 7.59355 9.23638 0.25
378 9.43193 9.40529 1.03651 0.25
379 0.266721 4.06756 6.02334 0.25
380 1.93727 2.09408 4.17714 0.25
381 7.08675 5.27847 2.11102 0.5
382 2.04024 7.68035 10.0138 0.25
383 5.819 8.39102 7.91722 0.25
384 1.82982 6.80236 7.31225 0.25
385 0.692018 7.05393 4.41434 0.25
386 1.69815 5.6258 7.57401 0.25
387 1.40107 6.02807 7.40362 0.25
388 3.13874 1.91727 1.79255 0.25
389 5.46522 2.51106 0.848006 0.25
390 2.82373 3.61732 0.177418 0.25
391 3.82428 10.2585 6.6263 0.25
392 0.623192 5.59362 4.6709 0.25
393 9.2276 9.11026 6.57196 0.25
394 10.3345 0.693243 6.00102 0.25
395 1.96286 4.65948 2.9175 0.25
396 3.2144 0.417544 9.65694 0.25
397 6.93929 2.01273 3.0839 0.25
398 9.80258 4.66373 9.49288 0.25
399 2.41222 9.5984 7.76458 0.25
400 7.55328 3.18759 9.97842 0.25
401 5.04672 6.75067 3.8462 0.25
402 4.40005 5.74403 8.77964 0.25
403 6.09942 5.10765 0.480144 0.25
404 8.12167 3.28325 0.50601 0.25
405 1.32886 5.83589 0.675099 0.25
406 6.37064 9.39347 5.14786 0.25
407 7.15229 6.5462 8.98806 0.25
408 9.50411 9.00143 1.65306 0.25
409 9.76747 6.19276 2.30937 0.25
410 5.32941 1.4214 4.28248 0.25
411 7.89597 8.70126 10.2634 0.25
412 4.85918 2.1176 7.52024 0.25
413 6.88353 2.44372 2.76601 0.25
414 7.06457 5.76068 2.62872 0.25
415 4.91236 0.629665 3.11812 0.5
416 9.98451 0.280768 9.31037 0.25
417 3.60178 7.30639 5.75971 0.5
418 0.711343 1.14388 6.76778 0.5
419 9.11263 0.258921 4.12619 0.25
420 5.42621 8.71642 7.73885 0.25
421 9.18319 6.42094 7.47663 0.25
422 2.54121 7.99988 3.0751 0.25
423 1.72371 5.04732 2.73246 0.25
424 0.355447 10.2959 9.22573 0.25
425 2.12469 9.81582 4.80308 0.25
426 2.94126 1.48804 1.98528 0.25
427 6.83522 1.506 6.84281 0.25
428 7.36498 9.68552 1.9967 0.25
429 5.52275 9.26167 7.83169 0.25
430 9.54578 9.38718 3.64151 0.25
431 7.07482 0.071917 0.889452 0.25
432 2.9151 7.55461 9.90773 0.25
433 2.8453 2.53023 5.17336 0.25
434 6.29768 9.47712 8.76583 0.25
435 0.087689 3.15237 9.51185 0.25
436 6.53136 4.82841 0.378357 0.25
437 0.998269 5.77088 9.73188 0.25
438 7.46872 1.01018 6.83366 0.25
439 9.5714 10.0794 3.84979 0.5
440 2.46912 2.78851 7.53856 0.5
441 0.988629 3.88581 2.17537 0.25
442 6.63823 7.04951 0.516151 0.25
443 9.31113 9.70759 4.40047 0.25
444 1.35923 3.54321 2.00756 0.25
445 5.27187 6.6084 3.37974 0.25
446 8.51295 4.9258 4.53681 0.25
447 6.26346 5.04144 0.0147724 0.25
448 4.81169 0.936131 4.01753 0.5
449 10.3535 1.3392 6.45936 0.25
450 2.18545 0.987346 2.32642 0.25
451 3.272 4.15769 0.575114 0.25
452 6.03721 4.36857 4.73713 0.25
453 7.52711 4.35077 8.22838 0.25
454 1.78184 5.30532 8.57027 0.25
455 1.26233 6.22943 7.86442 0.25
456 2.98655 1.57719 1.49842 0.25
457 10.1781 9.09015 1.2472 0.5
458 1.79706 5.95207 7.16453 0.25
459 1.31422 0.935934 7.22763 0.25
460 2.57749 6.41853 7.37269 0.25
461 3.68984 5.65148 1.50123 0.25
462 3.65402 5.98888 1.91781 0.25
463 1.60203 0.177861 4.60408 0.25
464 9.87589 1.26929 1.34541 0.25
465 6.5693 5.75658 2.34673 0.25
466 4.58122 5.46775 7.77256 0.5
467 3.41057 5.25569 5.47482 0.25
468 2.0189 1.50123 2.22229 0.25
469 4.29217 4.17247 2.64713 0.25
470 4.9449 3.68787 2.91199 0.25
471 3.04009 9.70708 4.76862 0.25
472 2.33211 2.03439 7.43128 0.25
473 2.60555 7.6646 9.501 0.25
474 9.07406 3.36013 2.21461 0.25
475 7.94226 7.00202 4.29471 0.25
476 4.01348 6.31501 1.83265 0.25
477 9.86626 9.65745 4.34567 0.25
478 8.6343 6.14504 1.27599 0.5
479 6.96337 0.591477 0.748075 0.25
480 2.51847 7.84076 10.0015 0.25
481 4.13214 9.91689 1.25409 0.25
482 6.54459 9.83031 5.33388 0.25
483 7.10247 0.0766431 0.109251 0.5
484 9.91506 3.56715 7.43366 0.25
485 7.96436 2.88297 0.293848 0.25
486 4.36354 8.62595 3.23015 0.25
487 3.18726 3.48523 10.236 0.25
488 7.00713 9.46637 1.74874 0.25
489 8.04811 6.71208 3.46802 0.25
490 2.16463 3.33714 7.98486 0.25
491 8.73497 9.15201 6.76081 0.25
492 7.87957 2.97267 9.68676 0.25
493 9.90109 3.26999 7.10322 0.25
494 8.57487 4.03875 4.84888 0.25
495 0.0192701 3.33579 7.30512 0.25
496 4.28971 1.77261 6.43893 0.25
497 3.48484 3.70792 0.59175 0.25
498 8.6986 1.53636 9.19093 0.25
499 4.58211 9.15377 1.44033 0.25
500 4.04128 7.48738 9.22802 0.25
501 2.79259 0.108966 4.81697 0.25
502 9.54583 6.13895 6.35315 0.25
503 6.71052 8.26185 2.90762 0.25
504 6.19091 7.18413 0.728734 0.25
505 7.22601 1.29247 6.14947 0.5
506 5.43571 10.1338 5.57335 0.25
507 7.11704 8.46206 2.85433 0.25
508 5.06637 8.25916 8.83344 0.25
509 1.41772 8.90851 7.08161 0.25
510 6.20424 3.63179 5.16411 0.25
511 4.18047 10.2837 6.98144 0.25
512 1.87509 5.1841 3.57105 0.25
513 1.50425 5.10098 10.0113 0.25
514 3.5712 2.04074 5.22897 0.25
515 1.743 1.54974 7.55612 0.5
516 6.03228 9.30834 5.72376 0.5
517 8.05485 6.62989 3.99012 0.25
518 2.78896 0.72299 9.65669 0.25
519 2.80872 10.0361 4.49874 0.25
520 5.2146 2.40962 7.41835 0.25
521 1.31883 4.58568 5.51059 0.25
522 2.40403 10.206 4.58661 0.25
523 2.91873 3.06798 8.08758 0.25
524 8.07831 2.14695 5.23901 0.25
525 2.28704 6.843 7.43227 0.25
526 1.42819 5.48656 8.33286 0.25
527 6.27836 9.34645 2.54285 0.5
528 7.16636 8.89717 3.08925 0.25
529 4.26532 6.7246 1.60786 0.25
530 0.995565 8.29335 2.02227 0.25
531 10.3346 2.64936 9.59954 0.25
532 2.54685 8.27094 0.288026 0.25
533 8.82263 9.87627 3.6971 0.25
534 9.00494 4.82485 4.74895 0.25
535 7.63148 6.99857 8.50495 0.25
536 4.74442 9.56123 0.209458 0.25
537 8.15218 1.61425 3.8441 0.25
538 7.56076 4.71797 7.39016 0.25
539 10.1778 3.77227 6.69167 0.5
540 6.2225 10.1752 8.24911 0.25
541 9.54629 9.02987 1.20434 0.25
542 7.48584 8.98184 5.96206 0.25
543 9.33576 4.65502 3.92114 0.25
544 2.39465 1.60574 7.20418 0.25
545 10.2836 9.85973 3.61975 0.25
546 10.2658 0.39369 6.41128 0.25
547 9.54785 3.8287 1.63498 0.25
548 9.38928 4.66782 9.16913 0.25
549 1.4477 0.708415 2.01339 0.25
550 9.55539 9.44307 1.48342 0.25
551 2.75753 7.00578 3.13363 0.25
552 9.11244 9.50205 6.79903 0.25
553 5.28132 3.25269 5.53608 0.25
554 8.92113 4.77919 4.25796 0.25
555 5.85989 8.88613 7.71805 0.25
556 1.3688 8.50488 7.42157 0.25
557 2.81062 9.59489 7.47151 0.25
558 2.36628 3.82962 8.07984 0.25
559 9.79952 1.00274 8.84791 0.25
560 3.79964 4.89026 5.66796 0.25
561 1.09147 3.92064 1.69069 0.25
562 5.21207 4.75069 9.62709 0.25
563 5.75471 9.8781 8.34348 0.25
564 1.62769 1.74136 6.75865 0.25
565 1.77794 1.11933 2.06163 0.25
566 9.63558 6.75353 6.88975 0.25
567 0.884934 6.1514 0.60705 0.25
568 7.64095 1.44127 5.57501 0.25
569 7.32393 3.98375 7.19185 0.5
570 4.01216 4.14092 3.03878 0.25
571 4.98431 3.17742 2.73665 0.25
572 8.65396 1.78887 8.73299 0.25
573 1.05331 7.09952 4.67758 0.25
574 0.135121 0.572353 6.82508 0.25
575 5.80323 4.02284 4.35476 0.25
576 5.52016 2.03737 0.850419 0.25
577 0.384513 7.84363 4.95674 0.25
578 0.809004 5.23947 10.2138 0.5
579 5.0399 5.05022 7.40642 0.25
580 8.08136 7.53208 4.47127 0.25
581 6.9643 7.00291 8.85373 0.25
582 7.39941 4.17639 5.09699 0.25
583 8.825 5.7297 6.33742 0.25
584 5.75842 6.54653 3.50481 0.25
585 7.40768 0.469792 0.800332 0.25
586 1.65897 2.44089 4.55205 0.25
587 5.90988 10.0626 5.65784 0.25
588 2.84796 1.43312 9.12667 0.25
589 9.9719 3.92291 1.46764 0.25
590 8.44891 6.58372 3.71275 0.25
591 3.67205 2.52862 5.26046 0.25
592 6.60282 5.44278 2.69697 0.25
593 5.38109 9.45607 6.06818 0.25
594 8.88002 6.19763 0.140803 0.25
595 2.06904 1.93859 7.03852 0.25
596 9.67639 8.57044 1.44422 0.25
597 4.41199 1.20133 2.85003 0.25
598 6.2322 7.55729 1.0755 0.25
599 10.0708 1.1141 1.77978 0.25
600 3.80756 9.25802 1.58189 0.25
601 7.16783 9.96481 2.38758 0.25
602 6.25278 8.11224 2.69332 0.25
603 2.5024 6.75504 7.00594 0.25
604 9.04127 0.779859 1.01337 0.25
605 1.35771 7.55294 2.2789 0.25
606 1.96602 1.43082 6.8999 0.25
607 1.94444 2.3049 7.33397 0.25
608 6.77003 6.39826 6.01832 0.5
609 3.33555 6.05167 1.50651 0.25
610 6.36074 4.64901 1.07294 0.5
611 8.45659 8.56594 7.30926 0.25
612 8.42375 0.523608 3.89246 0.5
613 7.82738 2.50027 10.3068 0.25
614 9.28191 7.00148 0.959278 0.25
615 6.66293 3.74798 7.63813 0.25
616 1.44183 1.34167 6.94141 0.25
617 2.48 3.57622 7.66166 0.25
618 7.76723 3.31734 0.104723 0.25
619 1.429 9.65031 2.38784 0.25
620 6.60692 5.87093 2.81408 0.25
621 6.28713 4.50097 1.84817 0.25
622 7.25118 7.29647 8.57252 0.25
623 7.93181 4.45743 4.71905 0.5
624 4.93973 8.41246 8.3688 0.25
625 5.60434 2.1429 0.014338 0.25
626 2.41675 2.85161 4.1165 0.25
627 7.04643 5.25947 2.80181 0.25
628 1.3119 9.63688 0.129224 0.25
629 7.45843 10.0459 9.95587 0.25
630 5.73185 8.03478 0.431845 0.25
631 8.18246 2.01959 5.72455 0.25
632 3.21873 3.85031 0.209578 0.25
633 3.00866 3.73262 0.642401 0.25
634 4.58194 7.74511 8.62994 0.5
635 9.51732 6.38148 7.09309 0.25
636 8.63063 4.99925 9.73165 0.25
637 6.33052 9.26014 4.71855 0.25
638 2.13294 0.185282 5.16044 0.5
639 6.99465 2.76701 2.41648 0.25
640 7.4534 1.77518 8.06828 0.25
641 4.28652 5.47325 3.95586 0.25
642 3.90272 8.10646 6.41055 0.25
643 3.084 1.78774 9.45216 0.25
644 5.90277 9.89691 4.93444 0.5
645 3.33323 4.31941 0.0733573 0.25
646 8.36785 7.19226 4.54263 0.25
647 6.6195 7.09819 5.91073 0.25
648 7.1202 1.4318 7.99959 0.25
649 4.80073 6.00897 8.81879 0.25
650 7.73306 1.36799 3.91917 0.25
651 4.95544 8.57731 7.92396 0.25
652 1.8327 5.81367 8.5034 0.25
653 0.843156 4.66659 5.65967 0.25
654 1.66246 6.37907 7.15851 0.25
655 10.1553 4.35735 1.4463 0.25
656 4.64846 4.79495 7.59626 0.25
657 8.32748 9.51305 6.89095 0.25
658 7.65833 4.38983 7.76067 0.25
659 8.69546 10.3251 4.32903 0.25
660 1.9826 6.2648 7.81015 0.5
661 2.62751 7.48731 3.06129 0.25
662 7.40554 9.43749 6.14558 0.25
663 3.69425 0.614656 8.91635 0.25
664 1.26501 2.27399 10.1132 0.25
665 8.07068 6.58383 1.02744 0.25
666 5.82037 9.46253 8.61292 0.25
667 8.26921 3.17859 0.00633503 0.25
668 6.79278 1.75979 5.7325 0.25
669 3.38583 7.71956 9.38236 0.5
670 0.424359 3.3385 9.85126 0.25
671 0.769229 6.35685 4.63097 0.5
672 6.18954 6.42043 5.50068 0.25
673 3.74721 9.60159 1.22349 0.25
674 7.27932 4.63085 5.16641 0.25
675 8.07182 8.92796 7.42384 0.25
676 4.93131 2.27059 0.320879 0.5
677 9.43453 3.71489 7.56186 0.25
678 9.72884 0.794896 6.57062 0.5
679 2.05535 2.17261 7.76775 0.25
680 2.50366 7.26801 3.49066 0.25
681 7.97621 9.19623 7.04474 0.25
682 3.74193 7.71931 5.13664 0.25
683 0.858884 2.71374 9.41705 0.25
684 1.268 8.70459 7.89711 0.25
685 9.09791 0.247338 3.62896 0.25
686 6.65271 9.63159 4.85558 0.25
687 9.52962 3.25028 7.42303 0.25
688 5.36121 7.82204 0.150153 0.25
689 2.32056 2.35138 3.93842 0.25
690 10.263 7.81563 9.70142 0.25
691 0.772421 8.24297 5.56128 0.25
692 1.1219 4.56789 6.06381 0.25
693 9.6612 2.68502 4.43879 0.25
694 3.52616 3.89494 10.1664 0.25
695 8.01034 1.68056 5.39358 0.25
696 5.39947 1.01675 3.5264 0.25
697 1.12576 8.92943 7.47261 0.25
698 8.59643 5.96767 0.532076 0.25
699 3.02267 7.65075 5.5178 0.25
700 5.47864 7.54808 10.0972 0.25
701 3.34239 4.77089 5.57208 0.25
702 6.30991 4.04716 4.42076 0.25
703 2.24638 0.454948 2.19296 0.25
704 7.19034 3.92415 8.27653 0.25
705 3.88703 5.77414 8.78992 0.25
706 7.546 1.33313 7.77271 0.25
707 6.50492 6.98774 5.11553 0.25
708 5.38682 6.3992 3.81758 0.25
709 1.73133 4.12978 1.98489 0.5
710 1.24354 4.97733 5.74515 0.25
711 6.71579 4.4881 7.10667 0.25
712 4.39727 8.18365 3.55751 0.25
713 1.62144 4.90115 3.20025 0.25
714 1.91768 10.1592 4.57197 0.25
715 2.306 3.43548 8.46619 0.25
716 9.56809 8.63712 0.966624 0.25
717 3.04066 4.93597 5.21277 0.25
718 5.59834 3.35615 4.81814 0.5
719 5.37185 2.61055 5.01755 0.25
720 5.50336 1.01958 3.99469 0.25
721 4.03155 7.58692 6.42479 0.25
722 3.73253 5.77506 4.68373 0.25
723 5.65414 6.29001 6.24276 0.25
724 9.57134 0.618254 9.08473 0.25
725 4.32287 0.517396 6.38154 0.25
726 4.05739 5.69168 4.38041 0.25
727 3.58942 5.47192 4.35653 0.25
728 2.59122 7.59737 0.224569 0.5
729 7.49311 1.97466 6.21577 0.25
730 8.31751 1.41989 8.80782 0.25
731 1.46904 5.61253 9.86429 0.25
732 3.38202 8.13011 6.36894 0.25
733 9.82615 1.94005 4.42767 0.25
734 8.83249 6.72347 3.99192 0.25
735 3.25766 2.39081 5.4172 0.25
736 8.44108 6.21388 6.84022 0.25
737 0.978708 4.31208 5.26321 0.25
738 5.198 8.059 8.3813 0.25
739 3.6201 3.55834 0.151043 0.25
740 8.65894 6.70986 1.67491 0.25
741 7.81298 2.63753 2.61894 0.25
742 5.50847 1.837 0.412889 0.25
743 9.77851 1.90559 3.95223 0.25
744 2.40918 2.30262 4.6524 0.5
745 0.575828 4.21256 5.60358 0.25
746 6.73833 4.68072 1.71963 0.25
747 8.21213 2.79139 9.39966 0.25
748 7.36131 9.95679 9.51561 0.25
749 7.11233 3.69978 7.89989 0.25
750 4.39075 2.26825 6.55602 0.25
751 1.84844 2.28089 3.72906 0.25
752 9.83623 2.3342 4.13321 0.25
753 0.570604 2.31494 9.93471 0.5
754 7.95718 2.19122 6.10334 0.25
755 7.89911 2.93814 10.1449 0.25
756 5.26319 1.83557 1.25988 0.25
757 0.1747 1.98003 4.1793 0.5
758 1.59941 10.0637 4.89164 0.25
759 4.90276 2.77553 8.15966 0.25
760 4.95258 0.239409 3.79879 0.25
761 6.03181 6.1452 5.90749 0.25
762 0.499633 3.99032 6.40215 0.25
763 6.65151 4.16175 5.09282 0.5
764 5.617 6.98023 3.29665 0.25
765 7.58489 6.53815 8.63959 0.25
766 1.28777 5.17185 2.93549 0.25
767 6.72556 2.38095 2.31364 0.25
768 4.94291 2.52344 5.66195 0.5
769 0.629412 2.70371 0.215463 0.25
770 5.92599 6.93231 6.05179 0.5
771 5.37614 7.29491 0.164633 0.25
772 7.06097 9.288 5.47074 0.5
773 6.03304 4.18191 0.105412 0.25
774 6.75185 8.80266 2.85272 0.25
775 9.93973 7.97327 9.35015 0.25
776 4.57719 10.2928 0.629229 0.25
777 1.08136 8.343 2.52223 0.25
778 3.12662 0.154173 8.384 0.25
779 9.78444 8.01461 9.78764 0.25
780 4.96057 5.03583 9.90746 0.25
781 5.81492 6.55248 3.98137 0.25
782 9.21978 6.47384 0.970816 0.25
783 3.88647 8.67189 3.10566 0.25
784 3.66383 4.03671 0.294277 0.25
785 8.57344 9.04177 7.52538 0.25
786 6.78108 6.96244 5.45194 0.25
787 6.62042 6.5282 5.23506 0.25
788 5.38133 0.555705 3.75219 0.25
789 6.56895 4.71249 2.22245 0.25
790 4.83559 2.55756 6.45632 0.25
791 8.49872 5.77733 6.71642 0.25
792 4.56056 3.65118 2.26245 0.5
793 10.2708 0.0455321 8.94951 0.25
794 1.79022 1.62247 1.80907 0.25
795 1.37011 9.39827 7.28256 0.25
796 2.18112 9.8113 4.02717 0.5
797 9.94736 9.57706 3.34919 0.25
798 9.37078 4.82386 4.35919 0.25
799 3.41065 5.71578 0.87819 0.5
800 9.79423 1.75162 1.42571 0.25
801 6.18782 10.3204 9.79754 0.25
802 6.27059 7.3605 0.302671 0.25
803 9.42927 5.04615 9.52141 0.25
804 4.2024 4.93266 7.37088 0.25
805 8.87507 4.46795 3.85428 0.25
806 2.40234 9.3139 8.133 0.25
807 2.96609 5.10867 5.69015 0.25
808 8.68353 5.0739 9.21207 0.25
809 1.17949 5.29359 9.63212 0.25
810 7.22076 1.8232 6.60738 0.25
811 9.36252 4.59499 9.69569 0.25
812 3.78028 6.15218 1.44517 0.25
813 1.33208 3.68307 2.48233 0.25
814 1.50368 10.0535 10.2605 0.25
815 3.84269 5.09424 4.96067 0.5
816 6.7125 0.219619 9.76816 0.25
817 4.84868 9.71106 0.930585 0.5
818 9.03628 6.13898 0.636094 0.25
819 4.25393 6.29848 1.39602 0.25
820 7.14978 4.35904 8.50682 0.25
821 8.08545 8.64025 6.96477 0.25
822 4.88804 4.03021 3.27683 0.25
823 1.91294 9.0123 7.65978 0.5
824 7.15088 4.70175 7.141 0.25
825 8.17151 9.0572 6.28876 0.5
826 7.11219 2.5355 1.99748 0.25
827 8.72101 6.46718 7.19898 0.25
828 9.62795 4.30696 1.41937 0.25
829 0.845631 7.9231 4.67478 0.25
830 3.84361 6.60844 1.41049 0.25
831 2.23305 7.6428 3.29062 0.25
832 4.2378 5.61135 9.18458 0.25
833 6.34917 6.59598 6.53747 0.25
834 8.46201 4.02047 4.3647 0.25
835 1.19666 1.75838 7.06411 0.25
836 6.42437 5.23637 2.29679 0.25
837 3.76713 7.08886 9.13349 0.25
838 2.40303 9.34259 7.30571 0.25
839 0.226563 2.49339 4.6467 0.25
840 9.76464 4.55623 4.12995 0.25
841 5.57371 4.77785 10.2884 0.5
842 7.41976 6.96545 8.91385 0.25
843 0.956486 9.56391 2.37599 0.25
844 6.37703 5.02933 1.83407 0.25
845 8.5114 4.5209 4.22487 0.25
846 1.07597 5.60151 4.50125 0.25
847 8.28344 2.97321 9.9084 0.25
848 3.40762 1.11319 9.46083 0.5
849 6.71973 4.98061 2.63389 0.25
850 4.39252 8.65024 3.76295 0.25
851 3.45448 6.39202 1.23282 0.25
852 5.32726 1.43164 3.7805 0.25
853 8.85533 9.82426 4.18793 0.25
854 2.4475 3.00131 8.26531 0.25
855 4.06926 5.86666 1.64557 0.25
856 9.76637 3.4234 7.88239 0.25
857 6.05772 3.62928 4.27485 0.25
858 8.98652 7.5578 4.06001 0.25
859 9.39335 1.4194 1.44321 0.25
860 2.89522 9.60257 4.26994 0.25
861 3.99504 9.71112 1.67814 0.25
862 7.63831 1.32402 8.52791 0.5
863 0.595827 3.18846 9.41638 0.25
864 4.10789 3.02175 2.26151 0.25
865 0.984732 6.85877 5.16336 0.25
866 2.77793 1.1723 9.92415 0.25
867 2.72418 8.06116 9.19748 0.25
868 9.48934 1.0217 1.1278 0.25
869 0.218732 8.33847 5.0107 0.25
870 7.17772 6.76983 8.52669 0.25
871 7.49496 2.75835 2.2472 0.25
872 8.17801 1.65414 7.69622 0.5
873 5.14532 9.82068 5.3181 0.25
874 6.75165 9.176 4.8117 0.25
875 3.02827 7.26081 5.19098 0.25
876 3.93143 6.30928 1.02739 0.25
877 0.53184 2.51786 3.78677 0.25
878 0.105017 0.380728 9.23812 0.25
879 0.661649 7.4499 4.67194 0.25
880 5.89787 4.07074 5.16628 0.25
881 4.16354 6.38699 8.97253 0.5
882 9.86065 0.779963 5.80858 0.25
883 5.06064 3.00182 5.1066 0.25
884 2.4256 2.02055 1.93703 0.5
885 8.77077 10.2794 3.47495 0.25
886 9.20398 8.67471 1.34754 0.25
887 1.42718 6.55942 7.4871 0.25
888 2.27736 0.36667 1.71279 0.25
889 4.86525 5.09692 8.31772 0.25
890 0.734025 3.83906 5.96801 0.25
891 4.1174 3.21927 2.7532 0.25
892 6.3018 8.63872 2.77621 0.25
893 7.51938 2.90816 0.0770535 0.25
894 2.18588 8.48279 10.3043 0.25
895 9.92124 3.89298 7.78983 0.25
896 9.57951 0.978468 1.62036 0.25
897 3.62034 7.798 6.72274 0.25
898 0.973721 5.10786 5.0768 0.5
899 -0.00449951 1.09096 6.92994 0.25
900 8.40937 6.76058 4.26502 0.25
901 0.691385 8.21562 5.08989 0.25
902 5.07817 2.21377 1.04111 0.25
903 8.23208 7.95258 4.26498 0.25
904 1.28457 6.10634 0.0132907 0.5
905 9.10997 1.28214 1.04994 0.25
906 9.57175 9.34597 4.14236 0.25
907 4.45312 3.897 3.00341 0.25