ITEM: TIMESTEP
440000
ITEM: NUMBER OF ATOMS
1000
ITEM: BOX BOUNDS xy xz yz pp pp pp
0.0000000000000000e+00 1.0357442000000001e+01 0.0000000000000000e+00
0.0000000000000000e+00 1.0357442000000001e+01 0.0000000000000000e+00
0.0000000000000000e+00 1.0357442000000001e+01 0.0000000000000000e+00
ITEM: ATOMS id x y z radius
1 1.51651 4.42131 2.94958 0.5
2 2.28107 7.65401 2.46405 0.5
3 5.21981 1.63947 1.01617 0.25
4 0.732189 2.58904 4.67209 0.25
5 9.28521 3.34075 6.96714 0.25
6 0.390578 2.61401 9.52974 0.25
7 4.87426 0.786462 2.83413 0.25
8 9.09868 4.46244 2.11048 0.25
9 9.98529 1.20676 1.50384 0.25
10 8.70976 6.9767 4.53568 0.25
11 10.0009 8.55086 1.71448 0.25
12 8.28025 2.98148 9.91166 0.25
13 3.85707 7.57191 5.90683 0.25
14 5.53634 2.23456 0.0373554 0.25
15 8.64392 5.86507 6.05109 0.25
16 8.95607 8.78795 6.24415 0.25
17 5.53525 8.90071 8.52017 0.5
18 2.63057 7.66945 9.45305 0.25
19 7.15574 4.60199 4.41038 0.25
20 9.40948 1.13906 0.959105 0.25
21 0.243902 0.287554 9.63442 0.25
22 4.68871 1.22403 2.65259 0.25
23 4.84057 3.82545 2.21732 0.25
24 2.95718 2.57707 4.2721 0.25
25 7.1813 1.89334 6.22797 0.25
26 5.33404 2.78339 8.26276 0.25
27 1.20115 8.61593 9.85173 0.25
28 9.05259 6.06507 6.18272 0.25
29 3.61296 7.5941 5.4246 0.25
30 0.955597 9.16688 7.4449 0.25
31 1.20392 7.38057 5.14314 0.25
32 9.07757 6.72761 1.09922 0.25
33 9.9082 8.30833 1.32564 0.25
34 1.24524 2.92436 10.0285 0.25
35 8.50112 3.27525 9.56042 0.25
36 8.56222 9.07599 9.83391 0.25
37 4.25405 4.88099 5.92176 0.25
38 7.35408 0.0708866 1.29348 0.25
39 6.08896 3.90144 5.25554 0.25
40 8.64063 4.24587 4.70895 0.25
41 8.81483 6.53541 3.73673 0.25
42 6.87458 8.59781 1.89018 0.5
43 0.234037 8.5565 5.18751 0.25
44 3.14276 10.1612 4.60244 0.25
45 7.19086 6.84663 9.16437 0.25
46 1.15035 9.00984 6.95057 0.25
47 4.29667 8.28272 3.57157 0.25
48 2.98464 9.99247 5.1455 0.25
49 4.1752 5.93665 9.26132 0.25
50 10.1961 9.48759 3.52201 0.25
51 9.63588 9.35593 0.939427 0.25
52 6.24179 6.8943 0.419893 0.25
53 6.48628 4.77999 2.12008 0.25
54 4.36654 4.84832 8.13084 0.25
55 5.86017 7.04644 6.59817 0.25
56 4.89601 1.97631 1.28321 0.25
57 5.73203 1.95479 0.394422 0.25
58 5.84687 4.58122 0.523246 0.25
59 4.07968 7.62147 9.08979 0.25
60 7.32542 6.38413 9.24697 0.25
61 3.25288 0.131454 8.75826 0.25
62 9.30146 5.83571 6.53132 0.25
63 0.597461 5.4008 4.33734 0.25
64 10.0579 1.52518 1.88805 0.25
65 6.49051 7.27654 5.98037 0.25
66 4.39408 0.836483 2.77494 0.25
67 9.84346 5.16652 9.40076 0.25
68 6.16521 0.175968 0.0607926 0.25
69 2.6849 7.71432 3.07514 0.25
70 4.25451 5.89422 4.02173 0.25
71 1.22761 8.00722 2.35899 0.25
72 5.69581 6.90465 3.52078 0.25
73 9.01714 8.66848 7.41842 0.5
74 2.25961 7.9564 3.10961 0.25
75 1.17441 6.20148 0.742278 0.25
76 2.19896 8.31338 0.287015 0.25
77 7.00026 6.44501 8.92473 0.25
78 4.5767 9.18877 1.5345 0.25
79 0.896588 5.28872 9.59116 0.25
80 8.27506 8.60376 9.88312 0.25
81 8.36172 9.10028 7.51309 0.25
82 1.65157 0.99331 2.35251 0.25
83 1.87977 8.00348 1.95352 0.25
84 5.33216 9.46985 5.74626 0.25
85 4.03656 6.49346 1.07129 0.25
86 9.68415 3.80872 1.36072 0.5
87 1.28358 5.18705 8.36371 0.25
88 2.6724 3.8612 8.12738 0.25
89 0.617377 0.000534923 9.86139 0.25
90 6.83776 10.1817 1.81173 0.5
91 4.7014 8.17064 3.81191 0.25
92 9.17908 1.38567 1.71213 0.25
93 8.26868 1.20247 8.53079 0.25
94 0.880899 4.47599 1.86582 0.25
95 7.7691 8.94153 5.56056 0.25
96 7.59799 1.1802 7.25695 0.25
97 5.58801 9.76449 5.49546 0.25
98 10.0481 0.36541 6.02319 0.25
99 5.31034 2.05059 8.25546 0.5
100 5.19595 2.93335 5.33121 0.25
101 5.33788 2.13136 9.68574 0.5
102 3.86666 5.21724 8.52977 0.5
103 7.20846 0.474879 0.973969 0.25
104 1.1075 10.1234 10.0734 0.25
105 2.09811 5.34727 3.16015 0.25
106 6.34093 6.38189 6.38101 0.25
107 5.88849 9.92248 8.8702 0.25
108 1.99136 3.7162 2.16746 0.25
109 7.48293 1.97903 2.75558 0.25
110 5.56133 10.2045 5.67966 0.25
111 1.5695 5.91783 0.965364 0.25
112 3.83973 5.123 5.63283 0.25
113 2.42837 10.2715 4.08172 0.25
114 8.72657 6.04295 10.2596 0.25
115 4.17943 4.1585 3.16962 0.25
116 0.408591 2.03074 3.65053 0.25
117 7.00094 2.63762 2.85427 0.5
118 7.47692 8.13864 1.98084 0.25
119 10.2017 2.40514 4.43815 0.25
120 1.73024 5.78396 0.399415 0.25
121 7.5283 2.13836 5.59093 0.5
122 2.15481 4.5483 2.57075 0.25
123 9.16758 9.40076 1.1645 0.25
124 8.45058 6.13585 0.315501 0.25
125 1.36058 10.2178 4.51902 0.25
126 6.1622 7.40125 0.562349 0.25
127 5.95505 7.25116 0.137234 0.25
128 9.33877 9.34567 3.50723 0.25
129 1.57354 5.49919 3.26761 0.25
130 9.22311 9.15366 0.678639 0.25
131 7.0874 1.88206 3.04889 0.25
132 8.83483 3.88333 5.01045 0.25
133 8.13801 9.02674 10.132 0.25
134 5.17548 3.70084 2.54228 0.25
135 5.96857 9.73214 8.11355 0.5
136 8.47225 8.86957 7.04326 0.25
137 1.11949 9.30202 1.73432 0.25
138 7.13674 4.09963 4.4284 0.25
139 6.97325 4.58219 7.79315 0.5
140 3.91416 8.51576 3.31527 0.25
141 2.14155 1.87825 2.3236 0.25
142 3.03574 2.89826 5.12324 0.25
143 8.291 1.41419 3.88152 0.25
144 10.1055 6.40625 2.16472 0.25
145 3.83528 8.02666 5.70691 0.25
146 7.10837 9.34857 3.09343 0.25
147 3.89365 6.16847 4.21881 0.25
148 2.98905 1.81057 10.1005 0.25
149 9.76765 7.85208 9.12999 0.25
150 4.11027 5.09309 7.80313 0.25
151 6.92142 9.87922 10.1194 0.25
152 4.29981 9.32369 1.13854 0.25
153 5.34828 1.65584 7.61625 0.25
154 5.31754 9.60355 8.33608 0.25
155 3.59436 6.03949 2.05275 0.25
156 0.947582 8.70701 7.23939 0.25
157 4.74529 1.32278 4.07706 0.25
158 8.96684 9.27373 6.39968 0.25
159 3.46353 2.7646 5.39003 0.25
160 2.43469 3.43518 7.97384 0.25
161 3.04945 0.0439539 9.18199 0.25
162 4.09806 2.04594 5.9146 0.5
163 6.90946 10.188 2.51453 0.25
164 5.50882 8.32257 8.02092 0.25
165 0.831879 3.15068 9.92566 0.25
166 6.71036 4.19706 6.70646 0.25
167 9.0298 10.1011 3.79684 0.25
168 0.193674 7.86312 8.80442 0.25
169 9.4607 6.66404 7.4305 0.25
170 3.52036 0.206044 8.3248 0.25
171 1.27417 8.40318 7.52336 0.25
172 9.30606 5.85477 7.07874 0.25
173 0.99567 2.2076 4.84009 0.25
174 4.76571 1.84306 6.24478 0.25
175 9.36004 3.60829 7.41358 0.25
176 0.819954 5.95671 0.40409 0.25
177 9.19889 6.23324 7.43605 0.25
178 7.17023 1.46826 5.38517 0.25
179 2.73853 9.47864 7.89495 0.25
180 7.44482 9.17225 2.43795 0.5
181 0.800246 4.16153 5.61091 0.25
182 7.79418 1.20965 3.92984 0.25
183 2.55942 9.56395 4.5098 0.25
184 9.24115 4.73659 9.83323 0.25
185 9.19575 8.88637 6.70303 0.25
186 2.74996 8.14065 9.55999 0.25
187 3.46317 4.44438 0.281365 0.25
188 5.07127 2.55105 7.787 0.25
189 9.49727 0.169948 6.01895 0.25
190 2.50525 7.74204 3.55453 0.25
191 5.06081 2.67252 8.66768 0.25
192 8.72584 9.52173 6.78418 0.25
193 5.28916 2.35817 8.94771 0.25
194 4.54241 9.69493 1.37557 0.25
195 5.01306 4.71787 9.69252 0.25
196 5.75565 1.82147 10.2183 0.25
197 8.68935 6.10632 6.80141 0.5
198 7.22173 1.84363 7.34141 0.5
199 6.88427 10.3602 9.97319 0.25
200 6.98928 1.0847 6.62982 0.25
201 6.28593 6.79362 6.59845 0.25
202 3.39227 7.09338 5.34344 0.25
203 4.17944 9.95507 0.127269 0.25
204 0.291199 3.99846 6.21597 0.25
205 3.82301 0.216869 6.36268 0.25
206 0.867957 1.93141 3.83302 0.25
207 1.26294 5.3759 3.94935 0.5
208 4.06484 4.56747 6.29169 0.25
209 6.94902 9.72582 2.75458 0.25
210 3.88156 10.2836 6.75205 0.25
211 1.82136 4.91133 2.4593 0.25
212 0.232363 4.08734 1.90436 0.5
213 9.07929 3.56952 1.90367 0.25
214 3.39614 5.02487 5.90776 0.25
215 10.0705 0.746855 8.92036 0.25
216 4.86401 2.22805 0.487413 0.25
217 0.694438 8.23099 5.15856 0.25
218 2.28252 1.22232 2.006 0.5
219 1.02207 4.247 6.02985 0.25
220 6.42092 9.62009 2.12076 0.25
221 8.23642 7.16576 4.64414 0.25
222 9.3935 6.34131 6.50299 0.25
223 5.51768 9.31099 5.2707 0.25
224 9.72677 3.31757 6.73292 0.25
225 8.00748 1.5026 5.62879 0.25
226 6.41593 8.88908 5.16984 0.25
227 7.01741 0.431783 1.39371 0.25
228 5.59035 1.95415 0.859624 0.25
229 1.9972 2.24852 1.48307 0.25
230 8.93934 6.97055 3.66762 0.25
231 7.54869 4.1888 6.88035 0.25
232 6.87274 9.6762 2.30107 0.25
233 7.82928 1.8587 8.77615 0.5
234 3.73554 9.72883 1.64048 0.25
235 1.35472 8.52673 7.00607 0.25
236 1.29822 5.82456 0.544128 0.25
237 8.19913 1.00999 4.2114 0.25
238 1.22828 5.95458 4.30409 0.25
239 0.390894 2.90936 9.85343 0.25
240 1.27744 8.80202 2.2844 0.5
241 1.23995 9.83577 1.70768 0.25
242 3.75082 8.33916 6.10984 0.25
243 1.3084 6.6565 0.594526 0.25
244 0.964103 1.44727 7.20926 0.25
245 6.32256 7.21604 6.38637 0.25
246 1.61811 8.74514 10.1404 0.25
247 3.00562 7.63355 2.75895 0.25
248 5.71153 2.18807 8.91091 0.25
249 7.14783 4.32185 4.84887 0.25
250 7.31316 1.35587 6.85344 0.25
251 1.4992 1.26 6.5794 0.25
252 6.58684 6.74311 8.04402 0.25
253 3.93519 7.35279 8.69824 0.25
254 1.1942 9.60772 2.15036 0.25
255 1.664 0.466807 2.49794 0.25
256 3.77959 5.19636 4.14147 0.25
257 0.952708 10.2092 9.56653 0.25
258 4.73251 5.18547 7.23805 0.25
259 2.16004 0.0789351 4.45233 0.25
260 1.12757 0.219439 0.355277 0.25
261 7.32578 6.10629 8.83553 0.25
262 5.71678 7.40075 3.45504 0.25
263 8.55639 8.74665 9.45748 0.25
264 7.54728 9.43397 9.99091 0.5
265 4.21262 3.39943 2.65229 0.25
266 3.6994 3.45457 2.60035 0.25
267 3.42388 7.31313 5.72573 0.25
268 3.68018 7.87291 6.20627 0.25
269 7.71035 9.28754 5.88472 0.25
270 3.542 7.37098 6.22197 0.25
271 4.49689 9.54262 1.86106 0.25
272 5.79722 6.90395 5.19163 0.25
273 9.95407 3.51131 7.91898 0.25
274 3.52847 4.70554 6.30734 0.25
275 10.156 6.20575 2.60454 0.25
276 8.15943 0.739351 8.63782 0.25
277 2.97123 10.0844 8.18564 0.5
278 4.62851 6.01852 8.5296 0.25
279 2.7569 0.14283 8.73674 0.25
280 3.3201 0.293435 9.5867 0.25
281 4.73937 8.54452 3.51359 0.25
282 4.70553 0.598201 3.64273 0.25
283 9.62302 0.0807469 8.79448 0.25
284 1.58853 5.44529 0.644312 0.25
285 8.65708 6.87389 0.948339 0.25
286 0.0798206 1.39485 1.61995 0.25
287 1.82915 8.11639 2.87301 0.25
288 1.39395 5.66857 4.66141 0.25
289 9.32561 0.749159 1.23583 0.25
290 9.55991 4.39378 2.27883 0.25
291 8.32935 3.44032 10.0042 0.25
292 4.14409 9.46032 1.56006 0.25
293 4.65144 2.55584 7.09318 0.5
294 10.313 6.69433 2.55803 0.25
295 6.97744 0.902109 7.42212 0.5
296 2.99804 2.91314 4.65182 0.25
297 0.664564 7.91524 5.51502 0.25
298 4.69958 9.61674 0.909711 0.25
299 9.03626 5.04141 9.50679 0.25
300 1.76812 9.80791 5.05565 0.25
301 4.73355 8.12988 7.86072 0.25
302 4.86525 4.79233 8.0804 0.25
303 8.7949 5.31393 10.1514 0.5
304 4.59009 4.19729 2.98442 0.25
305 1.64371 8.13675 2.37652 0.25
306 10.1793 8.11877 9.09132 0.25
307 0.842172 0.0631291 10.3157 0.25
308 8.94707 5.59873 6.3132 0.25
309 8.40836 1.47439 8.92256 0.25
310 6.58419 6.90958 5.67291 0.25
311 1.5514 0.418945 1.70734 0.25
312 8.91191 0.940917 8.70887 0.5
313 1.3601 8.25908 2.77957 0.25
314 0.892547 4.30552 2.35935 0.25
315 2.92078 0.745642 9.11167 0.5
316 6.37724 4.03205 7.00304 0.25
317 6.36304 9.7336 8.78373 0.25
318 10.3384 8.25614 8.60507 0.25
319 0.014358 9.69103 3.95333 0.25
320 1.28413 2.63177 0.0612505 0.25
321 1.94859 1.92368 1.8895 0.25
322 0.869842 7.00796 5.2425 0.25
323 6.44345 10.117 9.45048 0.5
324 7.28593 2.14264 3.37822 0.25
325 9.29439 3.99944 2.12958 0.25
326 2.91285 0.0705077 4.95274 0.25
327 1.35747 9.1504 7.7676 0.25
328 4.43712 3.76978 2.96037 0.25
329 8.28418 6.9527 3.93249 0.5
330 9.83979 6.55582 2.47277 0.25
331 9.26354 9.91119 4.20158 0.25
332 6.57346 7.66428 0.499587 0.25
333 10.2642 7.45348 8.70518 0.25
334 6.29541 4.90661 1.66069 0.25
335 5.7543 5.07532 0.651261 0.25
336 9.37819 3.2186 1.71577 0.25
337 4.54315 5.52734 8.53911 0.25
338 7.57671 8.61687 1.9209 0.25
339 4.20407 5.86949 8.31968 0.25
340 0.939561 3.02636 0.0675819 0.25
341 3.79705 5.68874 4.2202 0.25
342 10.1022 3.2831 7.466 0.25
343 10.3558 1.79204 3.8262 0.25
344 4.07801 0.795991 3.13489 0.25
345 6.52844 4.39413 10.1876 0.25
346 1.37902 1.36261 7.5135 0.25
347 2.93507 3.95423 10.2203 0.25
348 5.75008 7.65807 0.362447 0.25
349 4.83004 1.69739 7.74616 0.25
350 2.28552 3.48968 7.47737 0.25
351 5.94318 6.54489 3.29008 0.25
352 8.3013 6.65285 1.12744 0.25
353 10.0662 3.02907 7.05034 0.25
354 9.80402 4.02019 2.05955 0.25
355 2.90468 1.50203 1.66652 0.25
356 3.92986 9.27008 0.76519 0.25
357 3.23859 4.58166 5.82795 0.25
358 4.42703 9.36644 0.631745 0.25
359 9.09693 6.58715 0.371163 0.5
360 3.42803 10.2916 6.57092 0.25
361 10.0803 0.884914 6.16011 0.25
362 10.336 7.81349 8.34374 0.25
363 7.428 2.27582 2.36163 0.25
364 9.69946 7.03416 2.34356 0.25
365 5.97683 9.11858 5.08207 0.25
366 9.03618 4.05883 1.69421 0.25
367 3.52857 0.542176 8.70335 0.25
368 9.69147 6.16079 7.33506 0.25
369 9.20079 3.99246 4.35909 0.5
370 4.83112 1.53566 7.02958 0.5
371 9.50666 6.65431 1.71373 0.5
372 1.33643 2.37632 4.24054 0.5
373 3.77582 0.0783487 8.79498 0.25
374 3.5235 0.327301 9.13343 0.25
375 4.46223 0.871855 3.99178 0.25
376 0.731924 5.8739 4.22108 0.25
377 10.0428 7.85668 8.73168 0.25
378 9.53961 9.23114 1.44904 0.25
379 0.707373 4.20213 6.40194 0.25
380 2.05077 2.2039 4.34617 0.25
381 6.67188 5.45911 2.08937 0.5
382 2.31819 8.3207 9.75022 0.25
383 5.85667 8.58606 7.79679 0.25
384 1.98744 6.70774 7.59207 0.25
385 0.513144 6.84161 4.95432 0.25
386 1.24102 5.51165 7.46248 0.25
387 1.14973 6.32968 7.75216 0.25
388 2.38805 2.09844 1.16391 0.25
389 4.67487 2.29914 0.944005 0.25
390 2.94381 4.37538 0.15954 0.25
391 4.22349 10.2995 6.36363 0.25
392 0.475388 5.73317 4.7067 0.25
393 8.78249 8.59127 6.62243 0.25
394 0.0547488 0.131809 6.12277 0.25
395 2.06046 4.9087 2.91509 0.25
396 3.11082 0.662578 9.84192 0.25
397 7.64437 2.29683 3.16131 0.25
398 9.58756 4.49064 8.98475 0.25
399 2.65259 9.7226 7.51705 0.25
400 7.80442 2.81486 9.80815 0.25
401 5.77718 7.00172 3.09169 0.25
402 4.23437 5.76723 8.83319 0.25
403 6.15385 4.94258 0.328234 0.25
404 7.82128 2.54279 0.310777 0.25
405 1.639 6.25669 0.58573 0.25
406 6.42636 9.3317 5.20676 0.25
407 7.22409 6.37144 8.47579 0.25
408 9.60919 8.7157 1.49563 0.25
409 10.0611 6.85306 2.12812 0.25
410 5.86973 0.919551 3.87559 0.25
411 7.65097 8.91522 9.40654 0.25
412 4.54132 2.01008 7.46796 0.25
413 7.79049 2.38351 2.6795 0.25
414 6.65329 5.19591 2.83009 0.25
415 4.61922 1.31321 3.37394 0.5
416 9.96309 0.259637 9.10723 0.25
417 3.09424 7.89832 5.94995 0.5
418 0.748033 1.08827 6.62659 0.5
419 9.17155 0.0523902 4.11594 0.25
420 5.27834 8.72824 7.80639 0.25
421 9.14924 6.75398 6.76996 0.25
422 2.30384 7.45544 3.1636 0.25
423 1.6426 5.17418 2.88718 0.25
424 0.444745 0.321615 9.1243 0.25
425 2.16498 9.70506 4.79537 0.25
426 2.57484 1.68121 1.37181 0.25
427 6.98602 1.59039 6.59317 0.25
428 7.26333 9.67212 1.98776 0.25
429 5.3801 9.30954 7.90231 0.25
430 9.8191 9.44288 3.19045 0.25
431 7.04813 0.828075 0.681788 0.25
432 2.28462 8.02439 9.41645 0.25
433 3.10523 2.45412 5.30683 0.25
434 5.97507 9.44107 8.76437 0.25
435 0.0692437 3.00251 9.53374 0.25
436 6.61714 4.71456 0.167771 0.25
437 1.68672 5.61419 9.87823 0.25
438 7.46669 0.932853 6.81858 0.25
439 9.69531 10.0385 3.63467 0.5
440 2.09624 2.77538 7.71606 0.5
441 1.20569 3.94659 2.45773 0.25
442 6.66897 7.77645 0.0287922 0.25
443 9.48294 9.43827 4.02267 0.25
444 1.46887 3.67043 2.13613 0.25
445 5.46907 6.61922 3.17137 0.25
446 8.43734 4.7289 4.73726 0.25
447 6.28342 4.87394 10.2214 0.25
448 5.33492 0.688781 3.39821 0.5
449 9.64932 0.680472 6.01941 0.25
450 3.03277 1.20203 2.0243 0.25
451 3.16078 3.72474 0.621713 0.25
452 5.69645 4.35294 4.67788 0.25
453 7.35176 4.17391 8.24987 0.25
454 1.70528 5.96265 8.42798 0.25
455 1.34193 6.17797 8.12812 0.25
456 2.13701 1.76507 1.43365 0.25
457 10.2026 8.97425 1.13725 0.5
458 1.2627 6.05811 7.3439 0.25
459 1.27262 1.62629 6.31841 0.25
460 1.64768 6.21224 7.02889 0.25
461 4.22697 6.70908 1.8574 0.25
462 4.41398 6.59248 1.41613 0.25
463 1.6635 0.194214 4.64896 0.25
464 9.62643 1.54589 1.60466 0.25
465 6.76939 4.80022 2.50093 0.25
466 4.68966 5.53828 7.8806 0.5
467 3.34672 5.30331 5.50508 0.25
468 2.99722 1.65486 2.12113 0.25
469 4.83479 4.0685 2.65016 0.25
470 4.50809 3.41068 2.15366 0.25
471 3.02522 9.67644 4.71851 0.25
472 2.08229 2.01238 7.69407 0.25
473 3.19803 8.25385 9.66926 0.25
474 9.45668 4.33674 1.77432 0.25
475 8.36914 7.51156 3.50837 0.25
476 4.23103 6.09672 1.30831 0.25
477 9.97937 9.39032 4.05175 0.25
478 8.75198 6.05552 1.0533 0.5
479 6.91233 0.0555466 1.11389 0.25
480 2.41711 7.90719 9.84285 0.25
481 3.79963 9.33962 1.25598 0.25
482 6.46371 9.74732 5.50211 0.25
483 6.87742 0.124887 0.323785 0.5
484 9.70986 3.33868 7.23653 0.25
485 7.81104 3.0156 0.22243 0.25
486 4.00448 8.63818 3.7976 0.25
487 3.33121 4.25859 10.2298 0.25
488 6.84726 9.37902 1.93956 0.25
489 7.6876 7.40122 4.02099 0.25
490 2.1587 3.26118 8.26689 0.25
491 8.74842 9.0551 6.78141 0.25
492 7.97599 3.27452 9.6313 0.25
493 9.81746 3.7307 7.48352 0.25
494 8.52938 3.773 4.59253 0.25
495 9.58211 3.76341 6.97524 0.25
496 4.34091 1.5709 6.48715 0.25
497 3.07362 3.54615 0.152598 0.25
498 7.64484 1.30768 9.22496 0.25
499 4.17701 9.9338 1.71142 0.25
500 4.34738 7.21908 8.94415 0.25
501 2.66508 0.0713081 4.52763 0.25
502 9.05572 5.47428 6.78475 0.25
503 7.101 8.11097 2.36565 0.25
504 6.48813 7.27404 0.1778 0.25
505 7.4664 1.26245 6.08054 0.5
506 5.34554 10.1224 5.25552 0.25
507 7.46797 8.40682 2.35974 0.25
508 5.14906 7.91703 8.09279 0.25
509 1.63158 8.95745 7.00855 0.25
510 5.45334 4.05553 4.98313 0.25
511 3.78328 10.1238 6.27339 0.25
512 1.90836 5.45175 3.64661 0.25
513 1.91373 5.37228 0.27874 0.25
514 3.75391 2.00703 5.22941 0.25
515 2.03458 1.51871 7.11429 0.5
516 6.04197 9.22729 5.79532 0.5
517 8.05098 7.68749 3.88564 0.25
518 2.98629 0.922764 10.2769 0.25
519 2.77332 9.94238 4.33295 0.25
520 5.05936 2.11367 7.51736 0.25
521 1.00015 4.42146 5.23231 0.25
522 2.33982 10.017 4.46095 0.25
523 2.65526 3.16565 7.63877 0.25
524 8.13912 2.26379 5.20535 0.25
525 2.43345 6.43366 7.37897 0.25
526 1.7355 5.45993 8.29709 0.25
527 6.50274 9.11913 2.65545 0.5
528 7.07041 8.84966 3.01449 0.25
529 3.93289 5.66005 1.26664 0.25
530 1.56857 7.73545 2.16091 0.25
531 10.3543 2.66179 9.87867 0.25
532 1.24045 8.46314 -0.0126529 0.25
533 9.03247 9.74953 3.39498 0.25
534 8.93613 4.68739 4.60969 0.25
535 6.68032 7.05257 8.44784 0.25
536 4.57979 9.81248 0.481071 0.25
537 7.61843 0.859893 3.6192 0.25
538 7.41195 4.26568 7.36103 0.25
539 10.3186 3.68767 6.89115 0.5
540 5.80268 10.3526 8.53518 0.25
541 9.41984 8.94961 1.08037 0.25
542 7.53744 8.82747 6.0322 0.25
543 9.23631 4.37078 3.65648 0.25
544 1.62435 2.16106 7.47479 0.25
545 0.0863376 9.92681 3.53473 0.25
546 0.0895373 0.599135 6.33169 0.25
547 9.57753 3.59327 2.04783 0.25
548 9.7181 4.94164 8.94955 0.25
549 1.86186 0.598973 2.06445 0.25
550 9.88673 8.98483 1.84129 0.25
551 2.69479 7.33617 3.43232 0.25
552 9.15118 9.27756 6.94108 0.25
553 5.42201 2.5222 5.12463 0.25
554 9.06206 4.62843 4.08242 0.25
555 5.73715 9.01687 7.79637 0.25
556 1.69022 8.58581 7.31375 0.25
557 3.1467 9.58911 7.62576 0.25
558 2.18242 3.75105 8.23389 0.25
559 9.62303 1.07234 9.00689 0.25
560 3.75955 4.67134 5.85001 0.25
561 0.988639 3.9278 1.99208 0.25
562 5.00505 5.22738 9.86517 0.25
563 5.41473 10.0179 8.61985 0.25
564 1.31671 1.84089 7.281 0.25
565 2.83268 1.31593 2.47914 0.25
566 9.67695 6.0534 6.84875 0.25
567 0.83224 6.50443 0.485902 0.25
568 7.65686 1.43335 5.31986 0.25
569 6.98786 3.70589 7.246 0.5
570 4.94575 3.76392 2.98672 0.25
571 3.98623 3.39747 2.18669 0.25
572 8.13253 1.50122 9.37871 0.25
573 0.569733 6.87741 4.49816 0.25
574 0.167061 0.62288 6.81163 0.25
575 5.56505 3.8802 4.48502 0.25
576 5.12859 2.08967 0.891457 0.25
577 1.05598 7.85894 5.27834 0.25
578 1.16249 5.33725 0.0609706 0.5
579 5.05258 4.92067 7.59523 0.25
580 8.63639 7.1952 3.25498 0.25
581 7.48799 6.82093 8.34081 0.25
582 7.36934 4.32715 4.02234 0.25
583 8.433 5.58973 6.30725 0.25
584 5.20379 6.80892 3.53734 0.25
585 6.7545 0.555161 0.964625 0.25
586 1.85084 2.47433 4.75575 0.25
587 5.98956 9.92114 5.7239 0.25
588 2.81861 1.43352 9.41784 0.25
589 10.0632 3.59126 2.01234 0.25
590 8.097 7.52351 4.35115 0.25
591 3.93738 2.505 5.30001 0.25
592 7.09947 5.18463 2.58018 0.25
593 5.6003 9.79812 5.99041 0.25
594 9.00985 5.99146 9.82455 0.25
595 1.64617 1.73815 7.72556 0.25
596 9.6381 8.51425 1.0167 0.25
597 4.20816 0.682242 3.58437 0.25
598 6.58512 7.23414 0.664243 0.25
599 10.0898 1.65875 1.41509 0.25
600 4.22355 9.08206 1.88181 0.25
601 7.33089 9.97342 2.37973 0.25
602 6.6359 7.93965 2.18484 0.25
603 2.21608 6.12081 7.00163 0.25
604 9.0276 1.34031 0.843171 0.25
605 1.54586 7.80743 2.66653 0.25
606 1.59965 2.07829 6.91221 0.25
607 2.45512 2.13313 7.36125 0.25
608 6.50549 6.11433 5.66525 0.5
609 4.01203 6.87465 1.43668 0.25
610 6.41871 4.76887 0.92335 0.5
611 8.23045 8.62026 7.38068 0.25
612 8.49128 0.300523 3.91226 0.5
613 8.29914 3.10727 0.0490955 0.25
614 9.49942 6.89207 0.984782 0.25
615 6.40909 4.11012 7.50009 0.25
616 1.31509 1.62773 6.81287 0.25
617 1.95925 3.53582 7.83546 0.25
618 7.57758 2.76981 10.2753 0.25
619 1.5284 9.46784 1.87176 0.25
620 6.50547 5.69668 2.8063 0.25
621 7.01859 4.85061 1.31841 0.25
622 7.19932 7.23384 8.40282 0.25
623 7.86113 4.25909 4.51899 0.5
624 5.04238 8.44782 8.1184 0.25
625 5.04564 2.31995 0.0242775 0.25
626 2.5652 2.90478 4.40814 0.25
627 7.3609 5.5662 2.47658 0.25
628 1.16802 10.1344 0.205364 0.25
629 7.32541 10.1549 10.1774 0.25
630 5.76629 7.54272 0.875678 0.25
631 8.28118 1.93331 5.587 0.25
632 3.21855 3.98828 0.264967 0.25
633 2.77445 3.89934 0.369625 0.25
634 4.59679 7.86219 8.57927 0.5
635 9.37644 6.37202 7.01041 0.25
636 9.10849 5.55683 9.56497 0.25
637 6.34802 9.24405 4.75233 0.25
638 2.25412 0.0310678 5.16322 0.5
639 7.19964 2.73906 2.15822 0.25
640 7.494 1.68695 8.04106 0.25
641 4.00257 5.50944 3.75341 0.25
642 3.95764 7.60344 6.39893 0.25
643 2.88895 1.90413 9.60745 0.25
644 5.96917 9.86078 4.9669 0.5
645 3.5023 4.09333 0.624139 0.25
646 8.86084 7.44831 3.65242 0.25
647 6.30745 6.81254 5.28016 0.25
648 7.02842 1.48453 7.88775 0.25
649 4.62261 6.02646 9.02818 0.25
650 8.12694 0.961312 3.68637 0.25
651 5.19363 8.24828 7.67462 0.25
652 1.32984 5.71935 8.29557 0.25
653 0.93828 4.63846 5.67181 0.25
654 1.51203 6.52187 7.41821 0.25
655 10.2991 3.42717 1.63251 0.25
656 4.55849 4.87026 7.67392 0.25
657 8.72497 9.29787 7.23549 0.25
658 7.50123 4.03215 7.74547 0.25
659 8.75985 10.0278 4.16788 0.25
660 1.88855 5.93276 7.70279 0.5
661 1.82401 7.67561 3.06247 0.25
662 7.45655 9.23198 6.28906 0.25
663 3.54217 0.70571 9.50365 0.25
664 1.24284 2.46321 9.88839 0.25
665 8.35807 6.54977 0.640574 0.25
666 5.52163 9.57735 8.75313 0.25
667 7.36538 2.78924 0.334317 0.25
668 6.92052 1.73957 5.77016 0.25
669 3.35767 7.68341 9.27594 0.5
670 0.356049 3.39819 9.83434 0.25
671 0.942366 6.28449 4.90195 0.5
672 5.77453 6.12026 5.8385 0.25
673 4.11928 8.9278 1.44421 0.25
674 6.86139 4.30814 4.10693 0.25
675 7.9156 8.89293 7.57367 0.25
676 5.12923 1.57707 0.257488 0.5
677 9.71018 2.8698 7.42875 0.25
678 9.83961 0.35412 6.68787 0.5
679 2.01278 2.24809 7.22306 0.25
680 2.70107 7.209 2.95154 0.25
681 8.34514 9.30174 7.02553 0.25
682 2.94791 7.23872 5.64113 0.25
683 0.877307 2.78508 9.647 0.25
684 1.55973 8.70613 7.81746 0.25
685 9.15386 0.196216 3.68929 0.25
686 6.64834 9.6296 4.99668 0.25
687 9.648 3.27771 7.69817 0.25
688 5.32662 7.52791 0.618842 0.25
689 2.42026 2.51159 4.17856 0.25
690 9.8359 7.41717 8.96025 0.25
691 0.315775 8.23393 4.82126 0.25
692 1.28596 4.26367 5.59632 0.25
693 9.7469 2.35017 4.31296 0.25
694 3.70052 4.06185 0.152992 0.25
695 8.07376 1.74745 5.19316 0.25
696 5.20334 1.3436 3.78343 0.25
697 1.35488 8.87789 7.39412 0.25
698 8.87466 5.87137 0.326903 0.25
699 3.15541 7.50013 5.29955 0.25
700 5.34615 7.76521 0.167514 0.25
701 3.47096 4.81518 5.46389 0.25
702 6.04758 3.68978 4.48634 0.25
703 1.56939 0.883318 1.81057 0.25
704 6.84064 4.0961 8.32101 0.25
705 3.77287 5.92432 8.96764 0.25
706 7.44668 1.27699 7.74269 0.25
707 6.09188 6.68731 4.84683 0.25
708 5.32431 7.11244 3.19865 0.25
709 1.62663 4.38916 2.03795 0.5
710 1.3808 4.71788 5.41976 0.25
711 6.63415 4.45742 7.12003 0.25
712 4.46809 8.64423 3.89982 0.25
713 1.76519 5.02307 3.33947 0.25
714 1.82618 10.0439 4.62789 0.25
715 2.6138 3.50262 8.43713 0.25
716 9.63885 8.88694 0.660655 0.25
717 3.10844 4.99246 5.13516 0.25
718 5.64302 3.29962 4.96308 0.5
719 5.67979 2.77326 5.51251 0.25
720 5.68281 1.33818 3.68311 0.25
721 3.53219 7.75923 6.62639 0.25
722 4.17626 5.86999 4.48695 0.25
723 5.87885 6.53991 6.57219 0.25
724 9.60689 0.572072 8.92476 0.25
725 3.63151 0.33972 6.80853 0.25
726 4.21205 5.40381 4.20205 0.25
727 3.62518 5.99051 4.59103 0.25
728 1.64243 8.06711 9.79978 0.5
729 7.69277 1.99612 6.25884 0.25
730 8.0762 1.12787 8.98606 0.25
731 1.86106 5.72825 10.3127 0.25
732 4.11794 7.94519 6.09646 0.25
733 9.93319 1.98025 4.55649 0.25
734 8.61818 7.4307 4.44823 0.25
735 3.48758 2.26733 5.48545 0.25
736 8.63068 6.36802 6.03621 0.25
737 0.56207 4.56117 5.40595 0.25
738 5.3164 8.17207 8.45963 0.25
739 3.43418 3.77117 10.2044 0.25
740 8.7275 6.66493 1.44133 0.25
741 7.04473 1.97053 2.54539 0.25
742 5.34731 2.25457 0.449788 0.25
743 10.1535 1.55096 4.24618 0.25
744 2.59211 2.33336 4.87451 0.5
745 0.55348 4.36432 5.92772 0.25
746 6.71619 5.2363 1.44364 0.25
747 8.25673 3.68375 9.56351 0.25
748 7.17516 10.034 9.72707 0.25
749 6.62544 3.89382 7.9181 0.25
750 4.45056 2.03727 6.57214 0.25
751 2.00199 2.49082 3.94601 0.25
752 10.0168 1.98835 4.1027 0.25
753 0.594297 2.40654 10.2838 0.5
754 8.06379 1.81927 5.99413 0.25
755 7.90724 3.18755 10.1159 0.25
756 5.39159 1.95495 1.37149 0.25
757 0.347378 1.99034 4.40882 0.5
758 1.50415 10.2597 5.03235 0.25
759 4.81963 2.58193 8.20911 0.25
760 5.12622 1.2092 2.8652 0.25
761 5.99261 6.14733 6.26174 0.25
762 0.571769 3.71139 6.51158 0.25
763 6.42767 4.30571 4.68328 0.5
764 5.55718 6.45125 3.60702 0.25
765 6.72904 6.52367 8.46781 0.25
766 1.27691 5.0925 3.2475 0.25
767 7.64162 2.75417 2.38417 0.25
768 5.16958 2.34247 5.84633 0.5
769 0.55882 3.03328 0.481179 0.25
770 5.89424 6.81446 5.92915 0.5
771 5.37838 7.26528 0.203092 0.25
772 7.01628 9.20853 5.62816 0.5
773 6.07041 4.44015 10.0329 0.25
774 7.06511 8.56917 2.61025 0.25
775 10.2163 7.65432 9.15147 0.25
776 4.11494 9.52787 0.378894 0.25
777 1.46732 8.13642 1.89331 0.25
778 3.06759 0.456888 8.43565 0.25
779 9.85671 7.47834 9.45423 0.25
780 5.37625 5.09647 9.56961 0.25
781 5.33057 7.3056 3.70236 0.25
782 9.44793 6.37008 1.03623 0.25
783 4.32684 8.78637 3.48112 0.25
784 3.54161 3.63544 0.311449 0.25
785 8.33081 8.73306 7.87011 0.25
786 6.42001 6.40813 5.02189 0.25
787 6.10064 6.04093 5.03798 0.25
788 5.32056 1.37716 3.30215 0.25
789 7.14708 5.10644 1.69764 0.25
790 4.97341 2.12419 6.59179 0.25
791 8.25417 6.05073 6.27085 0.25
792 4.1463 4.08442 2.38345 0.5
793 0.02358 0.438467 8.81796 0.25
794 2.61055 1.76828 2.41212 0.25
795 1.41507 9.33873 7.23954 0.25
796 1.72847 10.0679 3.93476 0.5
797 10.1738 9.80812 3.08818 0.25
798 9.42355 4.75198 4.42326 0.25
799 3.50718 6.85361 2.00562 0.5
800 9.69422 1.16053 1.89059 0.25
801 5.97888 10.2545 10.0279 0.25
802 6.18967 7.70311 0.165731 0.25
803 9.49552 4.78782 9.39381 0.25
804 4.28953 5.11132 7.33924 0.25
805 8.7543 4.32103 3.86707 0.25
806 2.33423 9.79249 7.87014 0.25
807 2.98798 4.94383 5.62654 0.25
808 9.41623 5.17521 9.70438 0.25
809 1.39338 5.19995 9.76442 0.25
810 7.47082 1.82051 6.64637 0.25
811 9.2043 4.86206 9.0355 0.25
812 3.97444 6.42497 1.52688 0.25
813 1.65844 3.7976 2.58223 0.25
814 1.38039 0.138245 10.2703 0.25
815 3.73123 5.29835 4.87307 0.5
816 6.41905 0.221366 10.0294 0.25
817 4.04271 9.95895 0.994824 0.5
818 9.22235 5.88518 10.3443 0.25
819 3.91983 5.92735 1.6838 0.25
820 7.10563 4.48093 8.53531 0.25
821 7.99797 8.99481 7.12647 0.25
822 5.01277 3.36027 2.20376 0.25
823 2.07468 9.20893 7.56038 0.5
824 7.10749 4.3578 7.00364 0.25
825 8.19476 9.03387 6.3703 0.5
826 6.6952 2.7437 2.13271 0.25
827 9.02036 6.54325 6.29391 0.25
828 9.86036 3.20403 1.80674 0.25
829 0.346001 7.58917 5.50295 0.25
830 3.76267 6.10744 1.2128 0.25
831 2.90188 7.17386 2.47857 0.25
832 3.96772 5.51893 9.20283 0.25
833 6.58899 6.79849 6.1822 0.25
834 8.49511 4.07661 4.21934 0.25
835 1.3351 1.14433 7.05075 0.25
836 7.0473 4.82856 2.14985 0.25
837 3.86359 7.16792 9.15504 0.25
838 2.81137 9.23764 7.43767 0.25
839 0.240609 2.70413 4.58381 0.25
840 9.57616 4.52205 3.98847 0.25
841 5.51977 4.89084 10.2899 0.5
842 7.03984 6.76687 8.19894 0.25
843 1.63704 9.49899 2.35534 0.25
844 6.756 4.82605 1.7003 0.25
845 8.6276 4.53499 4.31165 0.25
846 0.943009 5.65459 4.55185 0.25
847 7.88642 3.6483 9.92015 0.25
848 3.40837 1.37114 9.78545 0.5
849 7.38326 5.20748 2.15757 0.25
850 4.2178 8.25301 4.05362 0.25
851 3.60055 6.60878 1.29861 0.25
852 5.49722 1.06774 4.04997 0.25
853 9.01298 9.60727 3.87774 0.25
854 2.64272 3.03712 8.15593 0.25
855 4.00055 6.28168 1.9744 0.25
856 9.30262 3.13738 7.41598 0.25
857 6.34147 3.65169 4.91508 0.25
858 8.98299 6.74947 4.16245 0.25
859 9.52521 1.14394 1.41353 0.25
860 2.41087 9.75017 4.04122 0.25
861 3.75407 9.22149 1.7291 0.25
862 7.50178 1.08975 8.45287 0.5
863 0.54325 3.09822 9.47228 0.25
864 3.65671 4.01907 2.99828 0.25
865 0.976137 7.0306 4.80164 0.25
866 2.82854 1.40129 10.288 0.25
867 3.41783 7.90863 10.0054 0.25
868 9.2423 1.56563 1.27796 0.25
869 0.256762 7.94986 5.80273 0.25
870 7.11173 6.81864 8.67296 0.25
871 6.93382 2.2852 2.19358 0.25
872 8.18284 1.45253 7.79292 0.5
873 5.20113 9.68293 5.27145 0.25
874 6.79472 9.14629 4.93917 0.25
875 3.11177 7.19 6.13096 0.25
876 3.54107 6.25827 1.61228 0.25
877 0.684495 2.38175 3.80998 0.25
878 10.3308 0.537073 9.27804 0.25
879 0.80847 7.43048 5.47922 0.25
880 5.82393 4.30709 5.1842 0.25
881 4.133 6.55244 8.71924 0.5
882 10.2857 0.0846309 5.70146 0.25
883 5.39026 3.11779 5.74739 0.25
884 2.60417 2.22266 1.83642 0.5
885 8.93298 10.2874 3.34794 0.25
886 9.2465 8.61347 0.701608 0.25
887 1.56753 6.60379 7.86262 0.25
888 1.37026 0.606551 2.13541 0.25
889 4.63095 5.06118 8.47808 0.25
890 0.685784 3.86571 5.99301 0.25
891 3.98714 3.63758 3.03384 0.25
892 6.61989 8.3512 2.51831 0.25
893 8.03561 2.72631 10.2778 0.25
894 1.72901 8.34373 0.0581026 0.25
895 9.54741 2.95793 7.02761 0.25
896 9.72844 1.49825 1.10028 0.25
897 3.91996 8.1107 6.53919 0.25
898 0.857155 5.1418 5.03062 0.5
899 10.3306 1.03181 6.54936 0.25
900 8.52582 7.62062 3.99717 0.25
901 0.253822 8.03866 5.30072 0.25
902 4.76931 1.81603 0.835926 0.25
903 8.65929 6.68259 3.30894 0.25
904 1.32233 6.1995 10.2952 0.5
905 9.04152 1.10929 1.28642 0.25
906 9.76387 9.2697 3.6212 0.25