ITEM: TIMESTEP
30000
ITEM: NUMBER OF ATOMS
1000
ITEM: BOX BOUNDS xy xz yz pp pp pp
0.0000000000000000e+00 1.0357442000000001e+01 0.0000000000000000e+00
0.0000000000000000e+00 1.0357442000000001e+01 0.0000000000000000e+00
0.0000000000000000e+00 1.0357442000000001e+01 0.0000000000000000e+00
ITEM: ATOMS id x y z radius
1 1.03896 4.47927 2.75253 0.5
2 2.45736 7.18633 2.71293 0.5
3 5.84037 2.03384 10.1267 0.25
4 0.0976556 3.1052 4.37177 0.25
5 10.1451 2.92696 6.87516 0.25
6 9.96475 3.27817 8.84969 0.25
7 4.83227 1.4115 3.21542 0.25
8 8.74265 4.28838 1.5245 0.25
9 0.112531 0.664853 2.43032 0.25
10 8.50783 7.70547 4.54453 0.25
11 9.08919 9.73403 1.56389 0.25
12 8.09449 2.36337 10.2465 0.25
13 3.8838 8.29568 5.3367 0.25
14 4.90205 2.09612 1.28686 0.25
15 9.03524 5.77123 6.65474 0.25
16 9.04447 9.19691 7.05691 0.25
17 7.0163 0.483589 8.28375 0.5
18 3.27685 7.97462 9.9135 0.25
19 7.37653 4.48054 6.26169 0.25
20 10.1282 1.29397 1.09855 0.25
21 0.648658 1.18239 9.91874 0.25
22 4.317 1.2872 3.27417 0.25
23 4.63142 2.85063 1.43756 0.25
24 2.63041 2.61207 4.49606 0.25
25 7.64603 1.67101 5.61341 0.25
26 5.11757 2.70054 8.71938 0.25
27 2.61013 8.77952 0.200504 0.25
28 9.5785 5.79857 6.81847 0.25
29 3.52756 8.09423 5.08429 0.25
30 1.53687 8.68018 7.25364 0.25
31 0.782573 7.37944 5.33153 0.25
32 8.88614 7.23561 1.41742 0.25
33 9.21776 9.22584 1.57609 0.25
34 0.411376 3.03171 9.27133 0.25
35 7.89375 3.58308 0.574028 0.25
36 7.90835 8.79583 9.24997 0.25
37 2.31243 5.39082 6.33663 0.25
38 7.26156 9.89758 1.55376 0.25
39 5.97179 3.46503 4.37352 0.25
40 7.56744 4.2541 4.47212 0.25
41 8.73023 7.8417 5.3262 0.25
42 5.80334 8.40782 3.03896 0.5
43 0.902696 7.66251 5.75229 0.25
44 2.40652 10.2392 3.70416 0.25
45 6.78478 6.46012 9.11523 0.25
46 1.37009 8.84414 7.72095 0.25
47 4.25951 8.85589 2.71785 0.25
48 2.29274 9.82387 4.02372 0.25
49 4.28377 5.66122 9.29902 0.25
50 9.65494 8.62567 3.30715 0.25
51 9.75307 9.62361 0.420872 0.25
52 5.70982 8.07332 0.761779 0.25
53 6.95333 4.72256 1.26942 0.25
54 4.24003 5.75444 7.25594 0.25
55 6.62303 6.61555 6.70175 0.25
56 6.20777 2.33782 9.97491 0.25
57 5.65222 1.29949 1.1434 0.25
58 6.08656 4.41373 0.0836152 0.25
59 4.34873 7.7057 8.85828 0.25
60 6.52733 6.00065 9.00613 0.25
61 4.35929 0.615856 7.74886 0.25
62 8.58125 5.89184 6.82211 0.25
63 0.217467 4.96145 3.87568 0.25
64 10.2129 0.571571 2.8265 0.25
65 6.14469 7.28833 6.39642 0.25
66 4.16395 0.831575 3.28741 0.25
67 9.40215 5.64537 9.63414 0.25
68 7.21887 10.1138 0.63156 0.25
69 3.04365 6.74324 3.05387 0.25
70 3.25038 4.68365 3.2078 0.25
71 0.906843 7.38581 1.79849 0.25
72 5.60747 5.96588 3.60266 0.25
73 9.63866 8.85841 7.37885 0.5
74 3.18405 7.17903 3.02833 0.25
75 2.33311 4.99202 0.0346946 0.25
76 2.79637 7.96573 0.437983 0.25
77 6.56799 6.35659 8.65277 0.25
78 5.04655 9.57164 0.152423 0.25
79 1.16017 6.03235 9.50811 0.25
80 8.08464 8.38908 9.41247 0.25
81 9.55423 9.15228 8.07118 0.25
82 1.41853 9.60111 2.25212 0.25
83 1.35107 7.12846 2.01254 0.25
84 5.07992 9.63271 5.41252 0.25
85 4.21784 6.57537 1.7491 0.25
86 9.79912 4.24855 1.57252 0.5
87 1.04401 6.09228 8.98189 0.25
88 2.90422 3.74508 8.00498 0.25
89 1.47153 1.45369 9.84082 0.25
90 6.64138 9.32811 2.2772 0.5
91 3.98134 8.72805 3.12753 0.25
92 10.2614 1.10032 2.23173 0.25
93 8.67908 0.692997 8.42108 0.25
94 1.37791 3.61267 1.23643 0.25
95 7.8823 9.03367 6.12794 0.25
96 7.76951 0.923354 7.36098 0.25
97 5.57053 9.68172 5.57324 0.25
98 9.72422 0.63214 5.47797 0.25
99 5.09571 2.93583 8.03131 0.5
100 5.44466 3.1348 5.91694 0.25
101 5.00138 3.69627 9.28537 0.5
102 4.46817 5.3182 7.95678 0.5
103 6.81534 10.0892 1.48995 0.25
104 1.91277 0.461122 0.702952 0.25
105 1.7036 4.65671 3.02055 0.25
106 6.50574 6.82561 5.88754 0.25
107 6.35731 0.278658 8.56293 0.25
108 1.64822 3.56901 1.63219 0.25
109 7.35019 2.47493 2.07255 0.25
110 5.5171 9.8906 6.07733 0.25
111 0.613767 6.06589 0.54268 0.25
112 2.90118 4.79006 5.41418 0.25
113 1.64755 10.2406 4.39781 0.25
114 8.18069 6.85013 0.49455 0.25
115 4.51214 3.61582 2.01537 0.25
116 10.0299 2.18716 3.76653 0.25
117 7.54712 2.4589 2.79754 0.5
118 5.61257 7.72055 3.2765 0.25
119 9.61351 3.41881 3.92366 0.25
120 1.29646 5.60275 0.366146 0.25
121 6.9392 1.88734 5.55483 0.5
122 1.46601 4.5971 2.08817 0.25
123 9.23827 9.47214 0.290972 0.25
124 7.93856 7.12138 0.875546 0.25
125 2.71839 0.0322479 5.09637 0.25
126 5.34351 7.38552 0.82678 0.25
127 5.68311 7.62536 0.561846 0.25
128 9.26923 9.50623 3.93148 0.25
129 1.35437 5.44408 3.14368 0.25
130 9.67362 9.20506 0.176467 0.25
131 7.08434 2.81267 2.367 0.25
132 8.00125 4.43248 5.54025 0.25
133 7.81787 8.66097 9.72123 0.25
134 5.05141 2.8033 1.72725 0.25
135 6.23225 0.92447 8.75314 0.5
136 9.15063 8.84509 7.98506 0.25
137 0.883713 8.39854 1.85924 0.25
138 7.12306 4.26738 5.92544 0.25
139 7.48425 4.139 8.59283 0.5
140 3.57982 9.00311 3.19132 0.25
141 2.24782 1.64245 1.67144 0.25
142 2.63249 3.0556 4.65412 0.25
143 8.02142 0.773637 2.78547 0.25
144 8.83467 6.41566 2.47483 0.25
145 3.38303 8.35585 5.53158 0.25
146 7.24604 7.82898 3.43296 0.25
147 2.94945 4.30037 3.19577 0.25
148 2.9269 1.44498 9.45082 0.25
149 0.390755 8.03655 10.0122 0.25
150 4.74368 5.52677 7.24248 0.25
151 6.77627 9.63927 0.110362 0.25
152 5.12658 9.63406 0.654825 0.25
153 4.80824 2.32805 7.58357 0.25
154 6.82137 1.18251 8.34848 0.25
155 3.37558 5.59565 0.919725 0.25
156 1.02018 8.70892 7.3121 0.25
157 5.37044 0.849309 4.06064 0.25
158 9.13471 8.71884 6.8121 0.25
159 2.89446 2.07108 5.14141 0.25
160 2.40823 3.64442 8.06259 0.25
161 3.95792 0.466572 7.98687 0.25
162 3.90991 2.30881 5.63964 0.5
163 7.28548 8.96283 2.61442 0.25
164 5.12237 8.1774 7.92646 0.25
165 10.2249 3.02193 9.26684 0.25
166 6.90483 3.5815 7.59769 0.25
167 7.9065 0.0983785 4.0852 0.25
168 0.0579393 8.02836 9.23341 0.25
169 10.1212 6.34705 7.4935 0.25
170 4.25644 0.107528 7.72403 0.25
171 1.61017 9.08698 6.93609 0.25
172 9.32841 6.33394 7.94551 0.25
173 0.257029 1.98564 4.44503 0.25
174 4.63548 2.30744 6.0148 0.25
175 9.61219 2.79499 6.93483 0.25
176 2.53638 4.67566 10.0435 0.25
177 9.68233 6.62618 7.62974 0.25
178 7.64156 2.13052 5.58235 0.25
179 2.22899 9.96919 8.34581 0.25
180 6.70683 7.9544 2.84536 0.5
181 0.913632 4.31059 6.0166 0.25
182 7.21474 0.733306 2.4293 0.25
183 1.15666 9.77156 4.86915 0.25
184 9.52357 6.24034 0.105853 0.25
185 9.62434 8.65043 6.61927 0.25
186 2.95766 8.14276 10.3383 0.25
187 2.01974 3.34258 0.31447 0.25
188 5.57959 2.72901 7.49414 0.25
189 10.0079 0.568154 5.07683 0.25
190 2.85357 7.47978 3.68301 0.25
191 5.10569 2.94881 9.16448 0.25
192 9.71389 9.04305 6.305 0.25
193 4.93242 2.9992 9.65104 0.25
194 4.72839 9.36302 0.463326 0.25
195 5.06043 4.89708 9.53725 0.25
196 5.37947 1.75298 1.21995 0.25
197 9.08639 6.21573 7.24078 0.5
198 8.02445 1.64679 7.21663 0.5
199 7.21072 9.87606 9.7809 0.25
200 6.94115 1.72472 6.61823 0.25
201 6.55078 6.99706 6.31845 0.25
202 4.02178 7.3578 4.99459 0.25
203 3.88998 0.511545 0.630203 0.25
204 0.387907 3.93257 6.43655 0.25
205 4.06186 0.279129 5.99053 0.25
206 0.088041 1.99748 3.95205 0.25
207 0.652044 5.3093 3.42668 0.5
208 2.26229 4.99465 6.02028 0.25
209 7.33585 8.25738 3.22384 0.25
210 3.88278 0.346703 6.4482 0.25
211 0.960755 4.7475 2.03714 0.25
212 0.142843 3.45182 1.2606 0.5
213 8.77497 4.3594 1.02964 0.25
214 3.11416 5.04274 5.79182 0.25
215 0.130336 0.466585 8.44585 0.25
216 6.42634 1.59957 0.217333 0.25
217 0.713923 7.87011 5.35217 0.25
218 2.91698 1.64009 2.05324 0.5
219 0.513193 4.22662 5.71993 0.25
220 7.09855 9.30492 2.9412 0.25
221 8.20827 7.4118 4.21633 0.25
222 9.52189 5.86807 7.84141 0.25
223 5.39154 9.21607 5.50127 0.25
224 0.124475 4.05792 6.83273 0.25
225 7.42361 2.38997 5.24291 0.25
226 6.47429 8.87571 6.31546 0.25
227 6.95986 9.96792 1.94819 0.25
228 6.42066 2.11747 0.410576 0.25
229 2.51255 2.29289 2.79658 0.25
230 8.7682 7.53041 4.89068 0.25
231 7.71624 4.06099 7.49758 0.25
232 6.88468 8.6502 2.48736 0.25
233 8.86042 1.4227 8.43339 0.5
234 3.86862 9.30077 1.67299 0.25
235 1.30965 9.13004 7.34867 0.25
236 1.6191 5.97078 0.522302 0.25
237 8.08031 1.15206 3.13254 0.25
238 0.603853 6.05494 3.7185 0.25
239 9.89634 3.93381 9.36386 0.25
240 1.34552 7.87765 2.21171 0.5
241 0.908879 8.52147 2.32185 0.25
242 3.40665 8.24838 6.05613 0.25
243 2.61695 5.40227 0.0904693 0.25
244 1.28631 1.88331 6.8887 0.25
245 6.33495 7.01108 6.76523 0.25
246 2.17505 8.64378 0.037046 0.25
247 3.15363 6.94375 2.61186 0.25
248 5.04922 3.49187 8.54124 0.25
249 6.89635 4.49975 6.32976 0.25
250 7.28843 1.66221 6.97461 0.25
251 0.996738 1.0942 7.39538 0.25
252 7.50346 7.10957 8.26077 0.25
253 4.23672 7.76902 8.15339 0.25
254 0.816575 7.90621 1.76339 0.25
255 1.50632 9.10435 2.35334 0.25
256 3.53925 4.81196 4.12897 0.25
257 2.20556 0.177034 0.982575 0.25
258 4.72442 5.24337 6.41664 0.25
259 2.04618 0.0683544 4.60122 0.25
260 2.31812 0.193845 0.512163 0.25
261 6.64913 5.87217 8.5814 0.25
262 5.9701 5.94618 3.25048 0.25
263 7.89592 8.38537 8.96931 0.25
264 7.30378 9.17167 9.52561 0.5
265 4.17252 3.52759 2.36223 0.25
266 3.74841 3.9581 1.78857 0.25
267 4.01142 7.84844 5.06782 0.25
268 3.77693 8.10977 6.30132 0.25
269 7.86702 9.48969 6.35379 0.25
270 3.83059 7.63292 6.41608 0.25
271 3.49115 9.4766 1.96061 0.25
272 6.11178 6.03942 5.74844 0.25
273 9.32856 3.47872 6.27367 0.25
274 2.38258 5.50343 5.89128 0.25
275 9.3665 6.88839 2.93738 0.25
276 9.18389 0.649203 7.58044 0.25
277 2.98225 10.1538 8.2949 0.5
278 4.09094 5.78678 8.40373 0.25
279 4.44368 0.361598 8.13947 0.25
280 3.58775 0.239464 8.26566 0.25
281 4.41073 8.92126 3.17499 0.25
282 4.94572 0.513155 3.30968 0.25
283 0.766643 10.2785 10.0008 0.25
284 0.970646 6.39513 0.657172 0.25
285 7.78567 7.731 1.46814 0.25
286 0.303147 0.3468 2.70673 0.25
287 2.03525 7.74863 2.48355 0.25
288 0.880484 5.72889 4.02917 0.25
289 9.79335 1.68793 1.15243 0.25
290 9.39862 3.65821 1.87109 0.25
291 7.80395 1.99246 0.111965 0.25
292 3.38214 9.32172 1.52366 0.25
293 5.36246 3.00343 6.71149 0.5
294 9.77336 6.83655 2.73882 0.25
295 7.13003 1.27225 7.59742 0.5
296 2.9424 2.98985 4.29283 0.25
297 0.315938 8.13959 5.15232 0.25
298 4.2321 0.192577 0.788602 0.25
299 9.13359 5.9059 0.0189058 0.25
300 2.35698 10.2614 5.36743 0.25
301 4.55382 7.95035 8.47582 0.25
302 4.48849 5.53451 6.83304 0.25
303 8.94892 6.47114 0.52082 0.5
304 4.96031 3.45443 2.20752 0.25
305 1.82521 7.30682 2.25992 0.25
306 0.258329 7.70075 9.57836 0.25
307 1.87395 0.12368 0.358417 0.25
308 8.4839 6.37495 6.784 0.25
309 9.03038 0.813715 8.80287 0.25
310 6.19222 7.17579 5.91748 0.25
311 1.61119 9.33249 1.43799 0.25
312 9.48648 0.800588 8.2844 0.5
313 0.927736 7.22799 2.25862 0.25
314 0.378926 3.62934 1.91828 0.25
315 4.12968 0.51015 8.75825 0.5
316 8.1378 3.32785 8.474 0.25
317 6.64878 0.349435 8.94666 0.25
318 0.44384 7.78901 9.11969 0.25
319 10.0129 8.98421 3.15897 0.25
320 0.84287 3.18416 9.43311 0.25
321 2.6253 2.3133 2.30835 0.25
322 0.422873 7.19453 5.00604 0.25
323 6.63264 10.1756 9.45889 0.5
324 7.94846 1.96821 1.93641 0.25
325 9.09617 4.04407 1.22298 0.25
326 2.70411 9.87638 3.81728 0.25
327 2.01038 8.76092 7.03197 0.25
328 4.54498 3.18847 2.23962 0.25
329 8.12046 7.15826 4.88329 0.5
330 8.94409 6.84653 2.56317 0.25
331 8.68287 10.2973 4.00925 0.25
332 4.93689 7.61562 0.839888 0.25
333 0.186302 8.50615 9.40478 0.25
334 6.51806 4.66467 1.46834 0.25
335 5.70779 4.60264 0.292732 0.25
336 9.28307 4.39449 0.911439 0.25
337 4.46654 6.05925 8.23084 0.25
338 5.97837 7.66661 2.9147 0.25
339 3.92154 5.35303 9.03779 0.25
340 10.2681 4.19591 9.23354 0.25
341 3.16978 4.55062 3.99796 0.25
342 9.40247 3.54338 6.77443 0.25
343 9.53348 2.334 3.88868 0.25
344 4.49657 0.479845 3.34968 0.25
345 6.78212 4.33118 10.2006 0.25
346 1.55242 1.90554 7.31355 0.25
347 2.67827 3.19281 10.2028 0.25
348 5.5437 7.17008 0.399163 0.25
349 4.65691 2.73345 7.52395 0.25
350 1.94535 3.57095 7.95226 0.25
351 5.62507 5.56067 3.90032 0.25
352 7.60144 7.35446 1.18331 0.25
353 10.1581 3.84259 7.1697 0.25
354 9.77277 3.58332 1.13003 0.25
355 2.85263 1.10698 2.47297 0.25
356 4.68506 0.370831 0.711442 0.25
357 2.85607 5.5378 5.73869 0.25
358 4.31431 0.705035 0.799953 0.25
359 8.64766 7.36198 0.729389 0.5
360 3.86203 0.82073 6.31414 0.25
361 9.75993 0.273159 5.78866 0.25
362 0.497087 8.27733 9.0871 0.25
363 7.61253 2.89384 2.17761 0.25
364 9.76212 6.74577 2.30021 0.25
365 6.4249 8.8164 5.828 0.25
366 9.14986 4.51335 1.39352 0.25
367 4.53546 10.2374 8.06565 0.25
368 9.8794 6.28171 7.93778 0.25
369 8.21315 4.87086 4.88949 0.5
370 4.54527 2.45537 6.83295 0.5
371 9.15106 6.67144 1.84475 0.5
372 0.628392 2.57761 4.19336 0.5
373 4.70015 10.1987 7.6067 0.25
374 4.02758 0.0377943 8.1723 0.25
375 5.17444 0.490451 3.76831 0.25
376 0.166296 5.86804 3.52531 0.25
377 0.452501 8.11209 9.5262 0.25
378 9.30187 9.89517 0.60774 0.25
379 0.132336 4.01897 6.00794 0.25
380 1.28735 2.86339 5.01742 0.25
381 6.82175 5.07614 1.9901 0.5
382 2.98092 8.47454 0.289007 0.25
383 5.05305 8.70849 7.94681 0.25
384 2.16059 6.77117 7.29258 0.25
385 0.815306 7.11202 4.1538 0.25
386 1.48049 5.81424 8.03593 0.25
387 2.57891 6.80288 7.56479 0.25
388 2.44535 1.85423 3.01176 0.25
389 6.19036 1.8299 9.84967 0.25
390 2.25764 3.46229 10.3029 0.25
391 3.62908 0.520543 6.00178 0.25
392 0.0511618 5.43099 3.81981 0.25
393 8.82006 8.81153 7.18763 0.25
394 9.7004 1.07749 5.69363 0.25
395 1.72317 4.68229 2.47309 0.25
396 3.3656 0.303947 8.72815 0.25
397 7.57423 2.03406 2.17609 0.25
398 9.29004 5.21992 9.61164 0.25
399 2.88944 9.32276 8.27686 0.25
400 8.26105 1.89253 10.3095 0.25
401 6.06417 5.74741 3.70577 0.25
402 4.58701 5.70854 8.57444 0.25
403 5.94508 4.89263 0.0721918 0.25
404 8.93514 1.55432 0.277302 0.25
405 2.56233 5.22962 10.007 0.25
406 6.53632 9.27847 5.97674 0.25
407 6.95992 6.27465 8.37022 0.25
408 8.9369 9.45027 1.21811 0.25
409 9.36159 6.55145 2.51169 0.25
410 5.15495 1.11109 4.45218 0.25
411 7.07564 8.55837 9.1144 0.25
412 4.81515 3.0718 7.23881 0.25
413 7.83616 2.44669 2.15858 0.25
414 7.25935 4.74524 2.55609 0.25
415 4.64224 1.0216 3.85327 0.5
416 1.18059 0.0570418 9.76779 0.25
417 3.65475 7.62356 5.67671 0.5
418 1.0752 1.17386 6.6228 0.5
419 8.25963 10.2131 3.76859 0.25
420 5.53048 8.82417 8.20499 0.25
421 9.97783 5.88529 7.63252 0.25
422 2.9111 7.0524 3.39894 0.25
423 1.31672 5.02803 2.34049 0.25
424 0.879301 0.849243 9.6803 0.25
425 2.33391 10.055 4.88053 0.25
426 2.67584 1.46726 2.75639 0.25
427 6.8064 1.76004 7.13063 0.25
428 6.41459 8.62474 2.57086 0.25
429 5.46364 8.98634 7.77115 0.25
430 9.07816 9.01657 3.93001 0.25
431 6.44408 9.86531 1.72755 0.25
432 2.98893 7.96826 9.509 0.25
433 2.63474 2.78767 4.99093 0.25
434 6.57393 10.2738 8.65403 0.25
435 9.70622 3.67922 9.01601 0.25
436 6.45071 4.7075 10.3631 0.25
437 1.0491 5.45675 10.2939 0.25
438 6.88599 1.34537 6.94905 0.25
439 9.30323 9.3064 3.23441 0.5
440 2.25794 2.9372 7.70499 0.5
441 0.731524 3.29985 1.70413 0.25
442 5.40306 8.34977 0.427467 0.25
443 9.56941 9.17702 3.91178 0.25
444 0.937757 3.43656 1.24561 0.25
445 5.39613 5.20429 3.62279 0.25
446 7.58193 4.75054 4.43768 0.25
447 6.11453 4.71157 9.99602 0.25
448 5.42741 1.03906 3.29354 0.5
449 10.0511 0.197216 5.40941 0.25
450 2.38338 1.14941 2.43437 0.25
451 3.13041 2.54966 9.96931 0.25
452 5.17934 3.69825 3.83221 0.25
453 8.25478 4.17908 8.62275 0.25
454 1.71516 5.92713 8.45326 0.25
455 1.35355 6.26611 8.27236 0.25
456 2.78744 1.93526 2.63489 0.25
457 9.72944 9.64586 1.20273 0.5
458 1.7571 6.94868 7.54425 0.25
459 1.73943 0.827223 7.27749 0.25
460 1.65115 6.67978 7.18017 0.25
461 4.37695 6.432 2.18263 0.25
462 4.13074 6.08181 1.85195 0.25
463 2.71937 9.92937 5.14282 0.25
464 10.2139 1.02898 2.69903 0.25
465 7.58053 4.98558 2.87567 0.25
466 4.83534 4.82491 7.08556 0.5
467 3.36239 4.97789 5.35779 0.25
468 1.7724 1.48442 1.82157 0.25
469 4.77753 3.2389 1.80465 0.25
470 4.72238 2.41541 1.67481 0.25
471 2.0142 9.9962 3.61219 0.25
472 1.89767 2.2453 7.47946 0.25
473 3.69129 7.67602 9.98451 0.25
474 9.14942 4.05538 1.70159 0.25
475 8.78487 5.53572 2.67907 0.25
476 4.6212 6.21342 1.77668 0.25
477 9.94546 9.38405 3.57402 0.25
478 8.18991 7.09904 1.61276 0.5
479 7.16587 10.1118 1.12938 0.25
480 2.79611 7.83242 9.91821 0.25
481 5.29137 9.92965 0.282486 0.25
482 6.3923 9.72966 6.02019 0.25
483 6.74855 9.58868 0.913519 0.5
484 9.76767 3.24544 6.86069 0.25
485 8.58578 1.45992 0.611274 0.25
486 4.02408 9.20397 2.99253 0.25
487 2.55971 3.36189 0.324893 0.25
488 6.02569 8.83977 2.37268 0.25
489 7.842 6.98855 4.17988 0.25
490 2.68281 3.43925 7.72222 0.25
491 9.36375 9.13604 6.6595 0.25
492 7.94467 1.98936 9.93577 0.25
493 9.4082 3.10772 6.57068 0.25
494 8.02073 4.21397 4.71524 0.25
495 9.8623 2.88236 6.53049 0.25
496 4.37423 2.03824 6.22205 0.25
497 3.13887 2.98168 10.2533 0.25
498 8.45121 1.33728 9.04979 0.25
499 3.55739 8.99168 1.87199 0.25
500 4.26209 7.16971 8.93223 0.25
501 2.06705 10.2415 4.07536 0.25
502 8.35358 6.14024 7.19397 0.25
503 5.93518 8.19281 3.75554 0.25
504 5.53519 7.91581 0.244125 0.25
505 7.60119 1.98326 6.36484 0.5
506 5.59161 10.1957 5.68263 0.25
507 6.10284 7.81448 3.39262 0.25
508 4.67057 7.95615 7.99283 0.25
509 1.53227 9.29972 7.76413 0.25
510 5.47183 4.08215 3.93586 0.25
511 4.09179 0.787053 5.86143 0.25
512 1.55608 5.11069 2.74811 0.25
513 1.10199 5.94821 0.662747 0.25
514 2.79008 2.50236 5.32348 0.25
515 1.99939 1.43346 7.62513 0.5
516 5.82975 9.19116 6.14233 0.5
517 9.216 5.30421 2.86865 0.25
518 3.76783 1.09579 9.04988 0.25
519 1.7713 9.89129 4.07149 0.25
520 5.11371 2.63763 7.32634 0.25
521 0.5818 5.30739 5.1752 0.25
522 2.01503 9.91478 4.48484 0.25
523 2.27663 3.66112 7.56571 0.25
524 7.16384 2.14546 4.91967 0.25
525 1.46923 6.22099 7.34009 0.25
526 1.93777 5.59715 8.12013 0.25
527 6.72969 8.7805 3.21239 0.5
528 6.95212 8.16664 3.51312 0.25
529 3.76824 5.23212 0.958016 0.25
530 1.41361 7.17343 2.50924 0.25
531 10.0407 3.43242 9.27841 0.25
532 1.93079 8.49567 9.95917 0.25
533 7.87669 0.255207 4.50357 0.25
534 7.98548 4.88198 4.14359 0.25
535 7.0649 7.09616 8.45299 0.25
536 4.00023 0.0876201 0.328777 0.25
537 7.63178 1.01919 3.08114 0.25
538 7.46688 4.24274 7.86264 0.25
539 10.0477 3.60956 6.42585 0.5
540 6.17001 0.160315 8.95589 0.25
541 9.09217 9.53373 0.767831 0.25
542 7.88488 8.64499 6.37603 0.25
543 8.80979 4.86112 4.36184 0.25
544 1.8196 1.13074 6.85162 0.25
545 9.70674 8.76308 2.85617 0.25
546 10.0713 0.330179 6.19039 0.25
547 9.35362 3.65676 1.38076 0.25
548 8.95884 5.53473 9.60843 0.25
549 1.70574 9.34326 1.9503 0.25
550 9.05443 9.9054 1.08771 0.25
551 3.28656 7.36501 3.47614 0.25
552 9.23308 9.28808 6.18215 0.25
553 5.23909 3.52655 5.65107 0.25
554 8.41962 4.63145 4.13295 0.25
555 5.49494 8.5135 7.87895 0.25
556 1.66967 9.50941 7.34145 0.25
557 2.44734 9.56847 8.42707 0.25
558 2.69931 3.26766 8.23056 0.25
559 10.1957 0.777629 8.23924 0.25
560 2.60901 5.10112 5.69761 0.25
561 1.54515 3.18116 1.27708 0.25
562 5.12277 4.49173 9.25627 0.25
563 6.25514 0.51211 8.13235 0.25
564 1.64769 1.58591 7.00647 0.25
565 2.63626 0.944638 2.03793 0.25
566 9.96492 5.83502 8.15395 0.25
567 2.81268 4.96427 0.0316073 0.25
568 7.58771 2.22765 4.76927 0.25
569 7.53257 3.46538 7.97258 0.5
570 4.96966 2.95947 2.16566 0.25
571 3.68529 3.74785 2.27341 0.25
572 8.89271 1.15208 9.15029 0.25
573 1.03808 7.02521 4.5998 0.25
574 0.586102 1.18073 6.02585 0.25
575 5.10328 3.41071 4.21211 0.25
576 6.32188 1.97102 10.3032 0.25
577 1.22485 7.23181 5.01503 0.25
578 1.07541 6.20772 10.3287 0.5
579 4.89132 4.78573 6.35982 0.25
580 8.65523 7.36958 5.35003 0.25
581 7.39014 6.37938 8.61032 0.25
582 7.57965 4.52561 5.81686 0.25
583 8.82797 6.18711 6.5134 0.25
584 5.24303 5.63809 3.56296 0.25
585 6.87037 9.60419 1.61031 0.25
586 1.18411 2.99594 4.56175 0.25
587 5.9784 9.88522 5.82397 0.25
588 3.99411 0.821127 9.43298 0.25
589 0.282086 4.08027 1.68887 0.25
590 8.13597 6.64826 4.33762 0.25
591 3.38402 1.93273 5.2483 0.25
592 6.3852 4.92863 2.5326 0.25
593 5.22535 9.55299 5.87805 0.25
594 8.33643 6.44316 0.174442 0.25
595 1.9949 1.94499 7.07884 0.25
596 9.29162 9.10742 1.09492 0.25
597 4.7261 0.295388 3.70743 0.25
598 5.28588 7.94379 0.649429 0.25
599 0.275228 0.814967 2.84277 0.25
600 3.51623 9.96826 2.01372 0.25
601 7.23554 8.49349 2.73146 0.25
602 5.41821 8.07191 3.57648 0.25
603 1.32594 6.69827 7.57926 0.25
604 0.132728 1.413 0.754934 0.25
605 1.72696 7.48215 2.72881 0.25
606 1.40489 0.940426 7.61446 0.25
607 2.1531 2.14889 7.89512 0.25
608 5.86789 6.68088 5.41997 0.5
609 4.28636 6.90988 2.09896 0.25
610 6.33082 4.74226 0.744161 0.5
611 9.33241 8.39992 7.92165 0.25
612 7.89754 0.447217 3.44198 0.5
613 8.21737 2.21948 0.351059 0.25
614 9.2031 6.94823 1.16485 0.25
615 7.77495 3.73209 9.17782 0.25
616 1.44288 1.1735 7.1603 0.25
617 2.21243 3.33081 8.34524 0.25
618 8.45682 1.44361 0.164577 0.25
619 0.620865 8.16012 2.1805 0.25
620 6.79082 4.84704 2.72956 0.25
621 6.46605 5.52583 1.53344 0.25
622 7.46785 6.83461 8.68921 0.25
623 7.42682 4.29999 5.10001 0.5
624 5.29116 8.37541 8.2821 0.25
625 5.33176 2.20549 1.0508 0.25
626 2.41554 2.96622 4.21226 0.25
627 7.13516 5.18148 2.74776 0.25
628 1.72191 0.0324352 0.819649 0.25
629 7.1991 9.56505 10.2232 0.25
630 5.94921 6.80996 0.485703 0.25
631 6.88817 2.50354 5.13723 0.25
632 2.70266 2.71007 10.233 0.25
633 2.91899 3.00616 9.83698 0.25
634 4.72285 7.22439 8.40695 0.5
635 9.64435 6.21929 7.54476 0.25
636 8.7114 6.11888 10.284 0.25
637 6.80023 9.08049 5.63436 0.25
638 2.75412 10.2927 4.40204 0.5
639 7.00219 3.07175 2.7558 0.25
640 8.37332 1.3993 7.87824 0.25
641 3.42479 4.80481 3.65227 0.25
642 3.95192 8.29132 4.80866 0.25
643 3.42535 1.40517 9.68402 0.25
644 6.16103 9.30052 5.32243 0.5
645 3.39539 2.937 9.78237 0.25
646 8.62862 6.78446 4.50971 0.25
647 5.62456 6.04914 5.75036 0.25
648 7.8657 1.21679 7.79658 0.25
649 4.69243 5.69863 8.99638 0.25
650 7.74212 0.660276 2.40173 0.25
651 4.80005 8.36487 8.26004 0.25
652 1.49669 6.23037 8.79831 0.25
653 0.180538 5.06016 5.08971 0.25
654 2.20104 7.10047 7.66819 0.25
655 10.2833 3.73192 1.88304 0.25
656 5.0003 5.49766 6.79391 0.25
657 9.27864 8.80636 6.33208 0.25
658 8.13233 3.82397 8.33188 0.25
659 8.35617 0.324724 4.03741 0.25
660 1.98293 6.37139 7.88395 0.5
661 2.94724 7.54202 3.2053 0.25
662 7.85286 9.06857 6.6641 0.25
663 3.65857 10.2518 8.5763 0.25
664 0.600104 2.997 9.8046 0.25
665 8.03544 7.58332 1.0575 0.25
666 6.50327 0.952806 8.02106 0.25
667 8.80759 1.09125 0.32413 0.25
668 7.58973 1.90737 5.14287 0.25
669 3.72715 7.78411 9.24636 0.5
670 9.90415 4.1832 8.90054 0.25
671 0.726616 6.35083 4.44456 0.5
672 5.16202 6.3777 5.12414 0.25
673 5.16432 9.89893 10.1761 0.25
674 7.15028 4.82721 6.5795 0.25
675 9.2591 8.47862 8.39725 0.25
676 5.77169 1.79393 0.530758 0.5
677 9.71977 3.53904 7.20685 0.25
678 0.0151439 0.774772 5.68309 0.5
679 2.34301 2.14837 7.39882 0.25
680 2.87527 6.56124 2.65094 0.25
681 8.93039 9.08922 7.5675 0.25
682 3.55949 7.15278 5.04041 0.25
683 0.731444 2.68692 9.44876 0.25
684 2.04935 9.27013 7.10913 0.25
685 7.99465 0.61339 4.16673 0.25
686 6.39519 9.97537 5.53658 0.25
687 9.33389 3.16755 7.09755 0.25
688 6.37875 6.93103 0.245985 0.25
689 1.15651 2.51388 4.72403 0.25
690 0.305377 8.49673 9.88301 0.25
691 1.07537 8.11978 5.60321 0.25
692 0.905049 4.45179 5.53985 0.25
693 9.15704 3.17671 3.82031 0.25
694 2.32569 2.94561 0.116746 0.25
695 7.27872 2.63796 4.79668 0.25
696 5.2996 1.29625 3.98947 0.25
697 1.77907 9.05089 7.45143 0.25
698 8.27441 6.75162 0.933277 0.25
699 3.58623 7.61519 4.924 0.25
700 6.29788 7.07454 0.701367 0.25
701 2.94991 5.26313 5.33384 0.25
702 5.6212 3.14345 4.24891 0.25
703 1.20217 9.34343 2.62458 0.25
704 8.02101 4.52762 8.89862 0.25
705 4.19196 5.69811 8.84444 0.25
706 7.63254 0.769613 7.8326 0.25
707 5.88817 5.74211 6.0695 0.25
708 5.73151 5.53656 3.42494 0.25
709 1.0365 3.9594 1.82286 0.5
710 0.146338 5.53626 5.09522 0.25
711 7.7283 3.42219 8.75955 0.25
712 4.01642 9.0238 3.49095 0.25
713 1.37115 4.99074 3.21205 0.25
714 2.30422 0.229481 4.95696 0.25
715 3.07984 3.71961 7.5382 0.25
716 9.94993 9.15486 0.657547 0.25
717 3.38186 5.41559 5.10332 0.25
718 5.45484 3.56475 4.88247 0.5
719 4.85664 3.33405 5.30835 0.25
720 5.57588 1.62825 3.7848 0.25
721 3.69452 7.98052 6.77444 0.25
722 2.95438 4.71175 3.58702 0.25
723 6.7512 6.54682 6.22984 0.25
724 10.092 0.629902 8.70477 0.25
725 4.30447 0.575208 6.28925 0.25
726 3.1148 5.06612 3.8998 0.25
727 3.27317 4.29271 3.55165 0.25
728 2.67693 8.53089 9.86219 0.5
729 7.37145 1.34003 5.94004 0.25
730 8.57316 0.892418 8.8778 0.25
731 0.786215 5.62678 0.311748 0.25
732 3.83978 8.30053 5.81515 0.25
733 9.48905 3.01395 4.1631 0.25
734 8.42238 6.94035 4.10112 0.25
735 3.17704 2.26266 5.53833 0.25
736 9.68777 6.30315 6.73842 0.25
737 0.996764 3.98406 5.63591 0.25
738 5.06734 7.91319 8.33133 0.25
739 2.82074 2.8937 0.254841 0.25
740 7.52306 7.34267 1.69372 0.25
741 6.80329 2.59738 2.84681 0.25
742 5.25618 1.38178 0.84265 0.25
743 9.31782 2.57259 4.32985 0.25
744 1.92144 2.61561 4.69696 0.5
745 0.612382 3.86842 6.01422 0.25
746 6.24086 5.02661 1.46116 0.25
747 7.79593 3.18341 0.310247 0.25
748 6.81722 9.63315 9.93589 0.25
749 8.06336 4.11138 9.11189 0.25
750 3.91492 2.19382 6.39225 0.25
751 1.30805 2.16361 4.40214 0.25
752 9.17194 2.68642 3.91965 0.25
753 0.236415 3.64681 9.61689 0.5
754 7.0142 1.55135 6.21924 0.25
755 8.16267 1.69725 0.420911 0.25
756 6.0669 2.38682 0.064403 0.25
757 10.0524 2.51238 4.40453 0.5
758 2.29523 9.77706 5.33558 0.25
759 5.80714 3.08535 7.36014 0.25
760 4.55549 1.6689 3.53906 0.25
761 6.50669 6.36773 5.7762 0.25
762 0.0267706 4.28967 6.42938 0.25
763 7.06442 4.99815 5.82082 0.5
764 5.17348 5.42548 3.99822 0.25
765 6.72084 6.73496 8.30728 0.25
766 1.12501 5.2283 2.83534 0.25
767 7.46239 3.08923 2.59269 0.25
768 4.6849 3.06219 5.92123 0.5
769 0.0934875 3.33972 8.9664 0.25
770 5.9907 6.52979 6.36132 0.5
771 6.02438 7.25863 0.315862 0.25
772 7.17317 9.05668 6.24764 0.5
773 6.29666 4.26194 10.0958 0.25
774 6.38106 8.18412 3.50364 0.25
775 0.0379504 8.08301 9.71548 0.25
776 4.30779 0.436864 0.368162 0.25
777 0.672214 7.66823 2.1679 0.25
778 4.75183 0.276735 7.81225 0.25
779 10.31 8.30285 10.1753 0.25
780 4.77934 4.46283 9.58731 0.25
781 5.47841 5.80503 3.12932 0.25
782 8.73278 6.78593 1.18126 0.25
783 4.49158 9.28184 2.91208 0.25
784 3.04754 2.50528 0.133429 0.25
785 9.6448 8.657 8.10649 0.25
786 5.2725 6.8217 4.9207 0.25
787 5.62973 6.85215 4.65082 0.25
788 5.06937 1.563 3.65059 0.25
789 6.67692 5.34319 2.63018 0.25
790 5.05427 2.43771 6.27905 0.25
791 9.34599 6.09861 6.52101 0.25
792 3.94233 3.21656 1.78243 0.5
793 1.21174 0.563513 9.92166 0.25
794 2.23099 1.29144 1.98326 0.25
795 1.80639 8.90861 7.93304 0.25
796 1.65779 10.216 5.15517 0.5
797 9.29593 8.55476 2.99685 0.25
798 8.74619 5.2884 4.56721 0.25
799 3.60866 6.52029 2.2219 0.5
800 9.98377 0.751589 2.39283 0.25
801 6.92953 10.0207 10.189 0.25
802 5.19134 7.53299 0.379851 0.25
803 9.45756 5.94562 10.0474 0.25
804 5.18138 5.09962 6.50998 0.25
805 8.43495 4.24693 4.43639 0.25
806 2.47491 9.90161 8.81175 0.25
807 3.381 5.41694 5.62272 0.25
808 9.0907 6.33171 10.1557 0.25
809 1.22923 5.63978 9.83544 0.25
810 7.85628 1.35414 5.99958 0.25
811 9.23695 5.51701 10.065 0.25
812 3.67981 5.93582 1.69639 0.25
813 1.21219 3.31758 1.59611 0.25
814 2.11247 10.1344 0.663857 0.25
815 3.06415 4.91489 4.65844 0.5
816 7.17543 9.81325 0.302315 0.25
817 4.59016 10.0734 0.329193 0.5
818 8.43834 6.93923 0.0998846 0.25
819 3.69334 5.5492 1.35088 0.25
820 7.94861 4.08203 7.96109 0.25
821 8.83129 8.47537 8.1201 0.25
822 5.04423 2.56287 1.29208 0.25
823 2.26624 9.46813 7.77664 0.5
824 7.00523 3.99224 7.95315 0.25
825 8.56076 9.10676 6.45987 0.5
826 7.34518 3.17683 3.08273 0.25
827 9.86747 6.04551 7.13624 0.25
828 9.50738 3.95816 0.937107 0.25
829 0.526391 6.99649 4.57668 0.25
830 4.04049 5.91054 1.40383 0.25
831 2.9001 6.81301 2.20157 0.25
832 4.04744 5.33142 8.54712 0.25
833 6.95131 6.93394 6.5786 0.25
834 8.14246 4.11445 5.20534 0.25
835 1.23377 1.52984 7.31958 0.25
836 6.70436 5.13836 1.28653 0.25
837 4.04877 7.50812 8.56454 0.25
838 2.85085 9.57767 8.72546 0.25
839 10.0063 3.1823 4.09784 0.25
840 8.43223 5.15993 4.19533 0.25
841 5.5143 4.4374 9.90608 0.5
842 7.19858 6.67638 8.2454 0.25
843 0.478763 8.6633 2.09027 0.25
844 6.3264 5.38801 1.04335 0.25
845 7.99023 4.4206 4.29077 0.25
846 0.339289 5.80041 4.00074 0.25
847 7.71657 3.70293 0.133119 0.25
848 3.23995 0.722771 9.3672 0.5
849 7.13058 5.59199 2.45727 0.25
850 3.74778 8.88075 2.72351 0.25
851 3.83954 6.33217 1.5318 0.25
852 5.78133 1.14509 3.95353 0.25
853 8.29686 10.264 4.28697 0.25
854 2.66974 3.5055 7.28565 0.25
855 3.34893 5.18778 1.15953 0.25
856 9.79622 3.04408 7.28649 0.25
857 5.77343 3.96275 4.36802 0.25
858 8.73698 8.03506 4.8166 0.25
859 0.321433 1.42485 2.10518 0.25
860 1.18806 10.1954 4.5779 0.25
861 3.61793 9.74119 1.58967 0.25
862 7.95492 1.05134 8.50144 0.5
863 0.128195 2.85272 9.65952 0.25
864 4.24431 3.90479 1.68164 0.25
865 0.857665 6.93352 4.9971 0.25
866 3.39354 1.43433 9.19828 0.25
867 3.52518 7.23201 9.77061 0.25
868 10.3478 1.48583 2.51058 0.25
869 0.842543 8.32277 5.19199 0.25
870 6.99158 6.66392 8.71432 0.25
871 6.99501 2.8279 3.16449 0.25
872 8.42869 0.758088 7.66615 0.5
873 5.88229 10.0057 5.37074 0.25
874 6.77252 9.57467 5.73907 0.25
875 3.96963 7.01304 5.34047 0.25
876 3.56684 6.00167 1.19169 0.25
877 0.0432735 2.428 3.78076 0.25
878 0.817506 0.379543 9.81036 0.25
879 1.21262 7.62868 5.37277 0.25
880 5.23519 3.88152 4.3107 0.25
881 4.37697 6.36142 8.93295 0.5
882 9.57962 0.20787 5.29268 0.25
883 5.25052 3.06528 5.44422 0.25
884 2.0631 1.83194 2.4063 0.5
885 9.41318 8.69408 3.74249 0.25
886 9.47298 9.19446 0.651384 0.25
887 2.48521 6.39155 7.28818 0.25
888 1.47165 9.70418 1.7574 0.25
889 4.32006 5.29454 7.2289 0.25
890 0.449579 4.30927 6.18466 0.25
891 4.0852 3.93103 2.1466 0.25
892 6.17468 8.62841 3.68039 0.25
893 8.61185 1.8927 0.31779 0.25
894 2.17312 8.14447 10.2472 0.25
895 10.1758 3.35023 7.14384 0.25
896 0.327378 1.12825 2.46842 0.25
897 3.40997 8.3292 6.59652 0.25
898 0.513643 5.31062 4.46239 0.5
899 10.2233 0.0317591 5.83619 0.25
900 8.92821 5.56194 3.19937 0.25
901 1.5043 7.6432 4.9344 0.25
902 6.06655 1.5648 10.2373 0.25
903 8.2663 7.64573 5.44008 0.25
904 1.86223 5.58295 10.2523 0.5
905 10.311 1.74058 1.06456 0.25