ITEM: TIMESTEP
230000
ITEM: NUMBER OF ATOMS
1000
ITEM: BOX BOUNDS xy xz yz pp pp pp
0.0000000000000000e+00 1.0357442000000001e+01 0.0000000000000000e+00
0.0000000000000000e+00 1.0357442000000001e+01 0.0000000000000000e+00
0.0000000000000000e+00 1.0357442000000001e+01 0.0000000000000000e+00
ITEM: ATOMS id x y z radius
1 1.41274 4.43641 2.82159 0.5
2 2.15944 7.31159 2.40404 0.5
3 5.50366 2.08037 1.1864 0.25
4 0.678479 2.05557 3.69821 0.25
5 10.1732 3.21622 7.55501 0.25
6 0.437552 2.58991 9.36845 0.25
7 4.97565 0.420691 2.97624 0.25
8 9.19246 3.94838 2.57483 0.25
9 10.1892 1.18408 1.77124 0.25
10 8.89086 7.56788 4.32211 0.25
11 10.1896 8.78263 1.64609 0.25
12 8.30477 2.63429 0.198272 0.25
13 3.11838 7.81731 5.9573 0.25
14 4.9047 2.03857 0.156533 0.25
15 8.65123 5.88165 6.72889 0.25
16 8.67893 8.62307 6.51951 0.25
17 5.31098 9.31691 8.41261 0.5
18 2.57686 8.04285 9.29196 0.25
19 6.96664 4.68113 4.84076 0.25
20 9.47801 0.788388 1.25642 0.25
21 0.27904 0.0620872 9.79445 0.25
22 5.25464 0.629665 2.67682 0.25
23 4.92519 3.45389 2.28863 0.25
24 2.95097 2.33667 4.31961 0.25
25 7.80131 2.42882 6.09267 0.25
26 5.48391 2.61394 8.55952 0.25
27 1.16134 7.95906 0.157329 0.25
28 8.97819 6.0383 6.39635 0.25
29 3.1565 7.54068 5.53642 0.25
30 1.16168 8.43642 7.411 0.25
31 0.228653 7.39663 4.86377 0.25
32 8.96693 6.68482 1.08662 0.25
33 9.76117 8.94206 1.96851 0.25
34 1.06295 2.69849 10.0522 0.25
35 8.10744 2.30755 0.504639 0.25
36 8.49746 8.91091 9.28819 0.25
37 3.73253 4.40996 6.50211 0.25
38 7.11366 0.100208 1.31513 0.25
39 5.48719 3.70209 4.59524 0.25
40 8.18918 4.14273 4.50081 0.25
41 9.14694 6.98713 3.78268 0.25
42 6.28487 8.95874 2.50516 0.5
43 0.516532 8.42275 5.54378 0.25
44 3.13322 9.952 4.81826 0.25
45 6.61085 7.19471 8.38988 0.25
46 0.893564 8.82286 7.6117 0.25
47 4.19099 8.82716 3.63116 0.25
48 3.07019 0.133375 4.83491 0.25
49 4.536 6.19426 9.0399 0.25
50 10.2117 9.71558 3.77292 0.25
51 9.31105 8.90832 0.797736 0.25
52 6.11347 7.0703 0.15048 0.25
53 7.04319 4.69949 1.82712 0.25
54 4.54756 4.62311 8.10759 0.25
55 5.8183 6.7767 6.8134 0.25
56 5.59975 1.59696 1.32714 0.25
57 4.86701 2.32729 0.605592 0.25
58 5.90085 4.68311 0.376023 0.25
59 3.84661 7.2145 9.25393 0.25
60 6.98852 7.5392 8.51463 0.25
61 3.58537 10.2266 8.26804 0.25
62 9.0783 5.90902 6.89146 0.25
63 0.709764 5.15672 4.2387 0.25
64 10.3221 1.65684 1.76039 0.25
65 5.70813 6.10556 6.30412 0.25
66 4.70801 0.541943 2.55765 0.25
67 9.53784 5.20815 9.21224 0.25
68 6.16527 0.0678586 10.3302 0.25
69 2.94249 7.31963 2.37691 0.25
70 4.21868 5.69756 4.12773 0.25
71 1.19755 7.71563 2.004 0.25
72 5.75283 6.55039 3.60441 0.25
73 8.91028 8.96387 7.20939 0.5
74 2.75179 7.62137 2.77484 0.25
75 0.88363 5.89871 0.562455 0.25
76 2.08278 8.55894 0.0665349 0.25
77 6.96087 7.10125 8.75031 0.25
78 3.54177 9.27479 1.14479 0.25
79 1.01124 5.0652 9.48047 0.25
80 8.58431 8.94597 9.76952 0.25
81 8.26214 9.15879 7.2289 0.25
82 1.43932 0.545883 2.02959 0.25
83 1.58656 7.72799 2.29557 0.25
84 5.12548 9.69163 5.38291 0.25
85 3.61484 6.15907 1.033 0.25
86 9.51688 4.26329 1.65262 0.5
87 0.942916 5.65868 8.39201 0.25
88 2.70477 3.92524 8.37347 0.25
89 0.668685 10.0327 9.75272 0.25
90 6.96688 9.83765 1.67328 0.5
91 4.19167 8.34654 3.44585 0.25
92 9.42017 1.53982 1.58525 0.25
93 8.23696 1.21879 8.40714 0.25
94 0.974789 4.30331 1.7597 0.25
95 7.51645 8.80943 5.80583 0.25
96 7.63537 1.20817 7.2028 0.25
97 5.57959 9.84167 5.50977 0.25
98 10.0366 0.653741 6.2151 0.25
99 5.22289 1.96471 8.45046 0.5
100 5.42721 2.59269 5.46918 0.25
101 5.30629 2.15457 9.87823 0.5
102 4.41652 5.33068 8.42437 0.5
103 7.34573 10.3198 0.85704 0.25
104 1.11568 10.3223 0.0320431 0.25
105 1.95833 4.4429 3.37912 0.25
106 5.72324 6.84731 5.96006 0.25
107 5.71426 9.91676 8.42625 0.25
108 1.92845 4.09032 1.92273 0.25
109 7.51514 2.22537 2.91981 0.25
110 5.69648 10.0189 5.97155 0.25
111 1.80327 4.72996 0.364307 0.25
112 3.65692 4.87404 5.65997 0.25
113 2.16736 9.79675 4.8766 0.25
114 8.42388 6.01148 0.0137501 0.25
115 4.05122 4.19201 2.75201 0.25
116 0.257532 2.49744 4.74509 0.25
117 6.96318 2.71164 2.91163 0.5
118 6.10414 8.22056 2.39415 0.25
119 10.0954 2.20339 3.76438 0.25
120 1.57736 5.59975 0.337733 0.25
121 8.10571 2.21044 5.40562 0.5
122 2.08237 4.74735 2.58408 0.25
123 9.26735 9.37134 0.885972 0.25
124 8.24802 6.21941 0.399787 0.25
125 1.90821 10.1582 3.76142 0.25
126 6.00085 7.38151 0.549293 0.25
127 6.15483 7.5178 0.0659591 0.25
128 9.55643 10.0296 4.36462 0.25
129 1.92571 5.30444 3.3355 0.25
130 8.82758 9.12824 0.885358 0.25
131 7.12151 1.98129 2.655 0.25
132 8.48119 4.80289 5.05274 0.25
133 8.26265 9.25371 9.55749 0.25
134 5.20522 3.87521 2.23332 0.25
135 6.18974 9.31129 8.19089 0.5
136 8.35429 8.89809 6.78985 0.25
137 1.02456 9.16401 2.40301 0.25
138 7.11163 4.20805 4.72801 0.25
139 6.93136 4.56233 7.32186 0.5
140 4.2168 8.00977 3.78929 0.25
141 2.82787 2.04946 2.14685 0.25
142 3.06115 2.83597 4.39845 0.25
143 7.98107 0.992811 3.09921 0.25
144 10.0643 6.60672 1.96306 0.25
145 3.26205 7.36742 6.01196 0.25
146 7.71807 8.65325 2.4892 0.25
147 3.77907 5.83656 4.05127 0.25
148 2.56796 1.5049 10.0221 0.25
149 9.72493 7.54858 9.28656 0.25
150 4.5105 5.00707 7.74765 0.25
151 6.87735 9.87361 9.92875 0.25
152 4.00023 9.12118 1.05538 0.25
153 5.37162 2.02917 7.64947 0.25
154 5.56293 9.38862 7.69153 0.25
155 4.28542 6.203 2.0078 0.25
156 0.895242 8.76869 7.15064 0.25
157 4.78335 1.53298 3.73375 0.25
158 8.89532 8.91463 6.12525 0.25
159 3.50711 2.86666 5.30021 0.25
160 2.58036 3.48333 8.1187 0.25
161 3.2768 0.246823 8.48937 0.25
162 4.09643 2.25152 6.05372 0.5
163 7.16705 9.77435 2.4981 0.25
164 5.32092 8.44122 8.273 0.25
165 0.762475 2.99513 9.92065 0.25
166 7.68502 4.68438 8.21674 0.25
167 8.76787 10.1619 4.0526 0.25
168 9.92724 8.15193 8.72716 0.25
169 9.45131 7.05475 7.14003 0.25
170 3.4557 10.207 8.78106 0.25
171 1.18259 9.10464 6.90584 0.25
172 9.42525 6.26123 6.97722 0.25
173 0.848816 2.48276 3.47813 0.25
174 4.62857 1.83123 6.37787 0.25
175 9.76381 3.01285 7.56427 0.25
176 0.741584 5.55748 0.197874 0.25
177 9.36309 6.59734 7.36778 0.25
178 7.48443 2.38063 5.72438 0.25
179 2.86921 9.63691 7.54802 0.25
180 7.09218 8.70506 1.9958 0.5
181 0.672744 4.04043 5.66582 0.25
182 7.34979 1.07111 3.78412 0.25
183 2.08957 0.194951 4.94535 0.25
184 9.3928 5.04414 9.99955 0.25
185 9.18969 8.74337 6.52052 0.25
186 2.42138 8.05747 9.7643 0.25
187 2.87562 3.92816 0.020854 0.25
188 5.0453 2.40728 7.86962 0.25
189 9.97272 0.169131 6.01898 0.25
190 2.75977 7.88088 3.24905 0.25
191 5.07747 2.59896 8.83981 0.25
192 9.20195 9.18821 6.49528 0.25
193 5.18817 2.64258 9.31674 0.25
194 3.88677 9.17622 1.56708 0.25
195 5.28687 5.42493 9.96525 0.25
196 4.93841 2.54176 0.138332 0.25
197 8.94071 6.65151 6.77696 0.5
198 7.41426 1.89732 7.15215 0.5
199 6.86169 10.3584 9.76454 0.25
200 7.16353 0.995766 6.45922 0.25
201 5.67508 6.59235 6.3719 0.25
202 3.69291 8.09459 5.14738 0.25
203 4.99835 9.43955 0.47041 0.25
204 10.2969 3.89644 6.12836 0.25
205 3.74255 0.31707 6.6558 0.25
206 0.696132 2.67115 4.65135 0.25
207 1.35928 5.21848 3.89748 0.5
208 3.35081 4.2695 6.20289 0.25
209 7.65394 9.08821 2.27265 0.25
210 3.99064 0.0685933 6.26853 0.25
211 1.78417 5.10317 2.75913 0.25
212 0.307089 4.15389 1.96681 0.5
213 8.85661 3.98582 1.84836 0.25
214 3.50587 5.09109 6.05632 0.25
215 9.88522 0.815774 9.11956 0.25
216 5.49943 1.54285 0.55906 0.25
217 0.63782 8.06938 5.2136 0.25
218 2.10262 1.90817 2.03701 0.5
219 0.787288 4.04685 6.1124 0.25
220 6.68123 9.5996 2.67909 0.25
221 8.43537 7.58195 4.51837 0.25
222 9.44215 6.04152 6.57869 0.25
223 5.47779 9.35819 5.36945 0.25
224 10.3033 4.07088 7.48771 0.25
225 7.69981 1.55546 5.51855 0.25
226 6.26164 8.85514 5.34725 0.25
227 7.41401 0.387277 1.05864 0.25
228 5.031 2.07805 1.02794 0.25
229 2.72407 2.64854 1.4282 0.25
230 8.95236 7.198 3.46528 0.25
231 7.15541 3.94275 8.26527 0.25
232 6.8698 9.43832 2.25315 0.25
233 7.96354 1.91691 8.54804 0.5
234 4.14204 9.9689 1.50788 0.25
235 0.964309 9.24478 7.34306 0.25
236 1.15499 5.50547 0.504967 0.25
237 8.06565 1.20417 3.56414 0.25
238 1.13178 5.87631 4.0795 0.25
239 0.29993 2.94942 9.72518 0.25
240 1.2607 8.35551 2.48999 0.5
241 1.31435 9.00169 2.06666 0.25
242 3.5606 7.31648 6.39973 0.25
243 1.06634 6.36768 0.545556 0.25
244 1.07516 1.63993 7.45634 0.25
245 5.81841 6.33994 6.75156 0.25
246 1.26353 8.13071 9.9863 0.25
247 2.71366 7.14222 1.96334 0.25
248 5.43942 1.91205 9.17126 0.25
249 7.03132 4.33054 5.1685 0.25
250 7.43553 1.32473 6.73417 0.25
251 1.70166 1.37277 6.74258 0.25
252 7.05313 6.13562 9.06701 0.25
253 3.54985 7.7442 8.61869 0.25
254 1.1903 8.99996 2.80538 0.25
255 1.18068 0.130813 2.19361 0.25
256 4.06424 4.88085 4.31432 0.25
257 1.07364 10.1925 9.8924 0.25
258 4.98067 4.67598 7.22436 0.25
259 2.36026 9.8201 4.40261 0.25
260 1.41891 10.0139 10.1745 0.25
261 7.40575 7.31691 8.69864 0.25
262 5.61116 6.43916 4.04421 0.25
263 8.52071 8.48163 9.60679 0.25
264 7.5383 9.37291 9.69204 0.5
265 4.65077 3.71825 3.06635 0.25
266 4.14707 3.48989 3.1999 0.25
267 3.23947 8.0326 5.52399 0.25
268 3.48021 7.77141 6.2568 0.25
269 7.91136 8.69383 5.50554 0.25
270 3.45797 8.22154 5.96696 0.25
271 3.5128 9.47633 1.59915 0.25
272 6.93426 6.17492 5.96161 0.25
273 9.39479 3.66672 6.85193 0.25
274 3.34918 4.75915 6.41461 0.25
275 10.1939 6.30969 2.33092 0.25
276 8.60318 1.0638 8.09464 0.25
277 2.86856 9.97803 8.25206 0.5
278 4.02563 5.99662 8.4212 0.25
279 3.73577 0.225758 8.56736 0.25
280 2.81836 0.301819 8.68259 0.25
281 4.50181 8.21269 3.06109 0.25
282 4.27159 0.827639 3.29554 0.25
283 9.56699 0.0974066 8.79653 0.25
284 1.50788 5.12968 0.579959 0.25
285 8.63869 6.96308 0.769388 0.25
286 0.313555 1.29121 1.87331 0.25
287 2.4091 7.8996 2.85489 0.25
288 1.3731 5.69166 4.55351 0.25
289 9.28569 0.705632 1.70311 0.25
290 9.65182 3.81512 2.34693 0.25
291 7.90533 2.33461 0.0535096 0.25
292 3.894 9.57299 1.29605 0.25
293 4.45006 2.44893 7.35613 0.5
294 10.1677 6.76912 2.41744 0.25
295 6.96833 0.96303 7.2151 0.5
296 3.22058 2.54337 4.01117 0.25
297 0.937097 7.87247 4.82818 0.25
298 4.35931 8.85937 0.866702 0.25
299 8.98074 4.95092 9.76546 0.25
300 2.18851 0.207653 3.90684 0.25
301 4.59205 8.38974 7.98792 0.25
302 5.28828 4.79802 7.65227 0.25
303 8.84594 5.3814 10.3348 0.5
304 4.3994 4.18406 2.38698 0.25
305 1.94809 7.95217 2.62381 0.25
306 9.52791 7.92947 8.97456 0.25
307 0.896037 9.90671 10.1846 0.25
308 8.63795 6.06914 7.15598 0.25
309 8.42584 1.47583 8.82957 0.25
310 5.78553 6.35468 5.89365 0.25
311 1.84209 10.309 1.6981 0.25
312 8.79788 0.902841 8.83168 0.5
313 1.14527 7.61209 2.49123 0.25
314 0.912469 4.52212 2.23615 0.25
315 3.39491 0.540547 9.16932 0.5
316 7.90748 4.08706 7.07665 0.25
317 5.89726 9.71705 8.84218 0.25
318 9.55579 7.94064 8.46625 0.25
319 10.2099 10.082 3.41402 0.25
320 0.937002 2.39487 0.0526792 0.25
321 2.63577 2.44228 1.89302 0.25
322 0.984675 6.92036 4.77402 0.25
323 6.39602 10.1254 9.30723 0.5
324 7.05621 2.09153 3.14622 0.25
325 9.17621 3.78572 2.13248 0.25
326 3.49476 10.2747 4.59657 0.25
327 1.6212 8.52281 7.40628 0.25
328 4.57844 4.14164 2.83208 0.25
329 8.45807 7.01141 4.04045 0.5
330 9.82794 6.15759 1.96616 0.25
331 9.02116 0.190376 3.93195 0.25
332 6.44633 7.41588 0.800621 0.25
333 10.3196 7.83721 8.77957 0.25
334 6.58969 4.6898 1.64817 0.25
335 6.07761 5.14163 0.35245 0.25
336 9.18235 3.57648 1.68267 0.25
337 4.47706 6.18971 8.56189 0.25
338 6.30459 8.39992 1.9742 0.25
339 3.81132 5.7685 8.84801 0.25
340 0.71921 2.87001 0.0543003 0.25
341 3.82755 5.35923 4.22354 0.25
342 9.42321 3.7663 7.35157 0.25
343 10.1411 2.65046 4.56589 0.25
344 4.3055 0.819675 2.78057 0.25
345 6.37084 3.92402 0.048422 0.25
346 1.50833 1.4006 7.5998 0.25
347 3.6501 4.16163 10.1005 0.25
348 5.82438 7.81382 0.334664 0.25
349 5.23613 1.60744 7.76311 0.25
350 2.87111 3.32722 7.78598 0.25
351 6.1298 6.79382 3.49808 0.25
352 8.23457 6.95386 1.01299 0.25
353 9.84082 4.02698 7.4263 0.25
354 10.0057 3.76249 1.952 0.25
355 2.10144 1.56711 1.3424 0.25
356 4.09434 9.81353 0.564999 0.25
357 3.01304 5.00648 6.13443 0.25
358 4.15072 9.28164 0.596224 0.25
359 8.96035 6.43049 0.418403 0.5
360 3.52519 0.0124264 6.27789 0.25
361 0.0494042 0.694922 6.57187 0.25
362 10.0373 7.78627 8.37788 0.25
363 7.39294 2.31178 2.41982 0.25
364 9.81919 7.01454 2.21087 0.25
365 5.87113 9.04629 5.15469 0.25
366 8.95082 4.2938 2.24086 0.25
367 4.0789 0.362654 9.39664 0.25
368 9.64623 6.2298 7.39004 0.25
369 9.12334 4.69475 4.83877 0.5
370 5.03431 1.77661 7.03797 0.5
371 9.30962 6.74406 1.75864 0.5
372 1.22158 2.32076 4.1518 0.5
373 3.82544 0.0375996 9.02517 0.25
374 3.0342 10.3196 8.88834 0.25
375 4.40766 1.26153 3.51444 0.25
376 0.660432 5.63041 4.08609 0.25
377 9.81609 7.63637 8.79457 0.25
378 9.81221 8.9021 0.709638 0.25
379 0.376417 3.91606 6.42714 0.25
380 1.9823 2.37637 4.23942 0.25
381 6.64767 5.22907 2.18572 0.5
382 2.16516 8.45983 9.95218 0.25
383 5.6093 8.41852 7.80707 0.25
384 1.45226 6.66866 7.37704 0.25
385 1.23393 6.73732 5.14633 0.25
386 1.06769 5.90525 7.61486 0.25
387 1.382 6.16387 7.3389 0.25
388 2.33238 2.52073 1.09149 0.25
389 5.63795 1.2546 0.964905 0.25
390 3.17019 3.9461 9.93767 0.25
391 4.16036 0.452386 6.40011 0.25
392 0.539742 5.44713 4.56597 0.25
393 8.44739 8.43527 6.91566 0.25
394 10.3655 0.934588 5.95341 0.25
395 2.17025 4.36489 2.90178 0.25
396 2.7327 0.735195 8.94188 0.25
397 7.43783 2.27248 3.4272 0.25
398 9.36519 4.41182 9.43261 0.25
399 2.66088 9.27133 7.92007 0.25
400 8.08537 3.07486 0.260777 0.25
401 5.86742 6.89023 3.96548 0.25
402 4.2893 5.8423 8.82573 0.25
403 6.34346 4.76785 0.133499 0.25
404 8.3022 3.37458 9.84652 0.25
405 1.37068 5.93632 0.686481 0.25
406 6.26354 9.34128 5.29495 0.25
407 7.33057 6.82307 8.67002 0.25
408 9.9075 9.16214 1.54866 0.25
409 10.0527 7.06498 1.75443 0.25
410 5.2698 0.956133 4.36683 0.25
411 7.84649 8.79572 10.1406 0.25
412 4.91441 2.0042 7.74237 0.25
413 7.75742 2.59812 2.64951 0.25
414 6.56 5.86937 2.59396 0.25
415 4.89379 1.19151 2.98096 0.5
416 9.842 0.29576 9.28426 0.25
417 3.85827 7.73174 5.71565 0.5
418 0.974956 1.28588 6.74831 0.5
419 9.02174 0.362084 3.42723 0.25
420 5.3268 8.77626 7.92768 0.25
421 9.64237 6.51033 6.56812 0.25
422 2.80542 7.14269 2.84811 0.25
423 2.04307 4.85115 3.08966 0.25
424 0.353247 0.383532 9.33522 0.25
425 2.2771 0.273351 4.42645 0.25
426 2.04191 2.11052 1.28564 0.25
427 6.93618 1.45954 6.69163 0.25
428 6.57922 9.29444 1.88398 0.25
429 5.70342 8.93528 7.78877 0.25
430 9.55095 9.55134 4.19317 0.25
431 7.41938 0.380218 0.612111 0.25
432 2.60195 7.63273 9.63969 0.25
433 3.09429 2.93103 4.98052 0.25
434 5.41899 9.93318 8.85336 0.25
435 0.206051 3.09482 9.283 0.25
436 6.62352 4.36988 0.153549 0.25
437 1.6169 5.57339 9.79139 0.25
438 7.5693 0.89151 6.78854 0.25
439 9.55094 10.1363 3.67859 0.5
440 2.34589 2.81467 7.82966 0.5
441 1.12287 4.10768 2.14711 0.25
442 6.59277 6.84866 0.194612 0.25
443 9.95258 10.2827 4.29899 0.25
444 1.43824 4.05643 1.72635 0.25
445 5.68149 7.02587 3.51382 0.25
446 8.23728 4.56776 4.30595 0.25
447 6.29561 4.406 10.1352 0.25
448 4.90771 0.723926 3.72939 0.5
449 10.1112 0.267049 6.49139 0.25
450 2.43358 1.34061 1.72744 0.25
451 3.53729 3.555 0.263753 0.25
452 5.87947 3.9568 5.35833 0.25
453 6.68859 3.90839 7.37732 0.25
454 1.8415 5.95551 8.59494 0.25
455 1.06054 6.10107 8.05918 0.25
456 2.25295 2.4882 1.57358 0.25
457 9.59754 8.47929 1.33621 0.5
458 1.51127 5.69999 7.50246 0.25
459 1.49581 1.58858 6.35857 0.25
460 1.88054 5.89912 7.20648 0.25
461 3.85982 6.90977 1.39739 0.25
462 3.87103 6.60699 0.957044 0.25
463 2.2402 9.78074 3.93296 0.25
464 9.95193 1.48142 1.4701 0.25
465 6.83071 5.54541 2.84658 0.25
466 4.98491 5.43237 7.48023 0.5
467 3.60558 5.38925 5.66309 0.25
468 2.79178 1.59965 1.96821 0.25
469 4.6827 3.90623 2.10924 0.25
470 4.86784 3.35984 2.75506 0.25
471 2.85665 10.1524 5.16587 0.25
472 1.95024 2.16993 7.64948 0.25
473 2.92569 8.01204 9.72995 0.25
474 9.45058 4.28787 2.32902 0.25
475 8.12683 7.36992 3.41441 0.25
476 4.13269 6.1546 1.07355 0.25
477 10.2741 10.1781 3.93563 0.25
478 8.41478 6.29562 1.19914 0.5
479 6.8661 10.1814 0.925088 0.25
480 2.41165 7.71236 10.0897 0.25
481 3.9547 9.9858 1.05332 0.25
482 6.44004 9.80013 5.37294 0.25
483 6.91626 10.3491 0.175151 0.5
484 9.82599 3.51801 7.4684 0.25
485 8.0086 2.94742 9.80033 0.25
486 4.4326 8.50085 3.84615 0.25
487 3.16415 4.3558 10.2537 0.25
488 6.4158 9.64948 2.2089 0.25
489 7.70181 7.15213 4.24336 0.25
490 2.06628 3.49258 8.11077 0.25
491 8.74817 9.07525 6.55823 0.25
492 7.8198 2.67681 0.424028 0.25
493 9.48057 3.30814 7.17532 0.25
494 8.4908 4.49711 4.67708 0.25
495 9.8687 3.02712 7.12748 0.25
496 4.37594 1.92623 6.74312 0.25
497 3.86863 3.915 0.138838 0.25
498 7.60102 1.52703 9.05423 0.25
499 3.99526 9.62594 1.75816 0.25
500 4.21362 7.31353 8.91984 0.25
501 2.61994 9.95123 4.79585 0.25
502 9.10928 6.15899 7.36825 0.25
503 6.36553 8.2736 2.84541 0.25
504 6.49991 7.32267 0.312929 0.25
505 7.38005 1.70637 6.08505 0.5
506 5.68363 10.2969 5.54646 0.25
507 6.58521 8.27272 2.37462 0.25
508 4.80152 7.92276 7.88675 0.25
509 1.22638 9.18448 7.73691 0.25
510 6.20178 3.61953 5.10496 0.25
511 3.68119 0.446537 6.19462 0.25
512 1.95574 4.90447 3.58644 0.25
513 1.90234 5.23985 0.293346 0.25
514 3.8134 2.05252 5.41479 0.25
515 2.2081 1.56964 7.21833 0.5
516 6.00434 9.28891 5.89366 0.5
517 7.81438 7.33908 3.82785 0.25
518 2.85079 1.1813 9.18126 0.25
519 2.35393 10.1996 5.15531 0.25
520 5.17532 2.40861 7.40038 0.25
521 0.813011 4.53949 5.42331 0.25
522 2.24291 10.2138 4.67242 0.25
523 2.87774 3.11674 8.27951 0.25
524 7.7332 1.63148 5.06588 0.25
525 2.38815 6.60539 7.57771 0.25
526 1.76515 5.60332 8.32316 0.25
527 7.19676 9.09923 2.86732 0.5
528 7.35247 8.37058 2.5914 0.25
529 4.281 5.72052 1.2513 0.25
530 1.55099 7.65315 2.79159 0.25
531 10.316 2.70585 9.45253 0.25
532 1.33018 7.62454 10.1807 0.25
533 9.12784 9.83217 4.19965 0.25
534 8.68208 4.72961 4.25597 0.25
535 6.75406 6.27707 8.7007 0.25
536 4.65989 9.08089 0.519432 0.25
537 7.80347 1.15256 3.94217 0.25
538 6.94925 4.34211 8.01143 0.25
539 10.1235 3.66642 6.88743 0.5
540 5.84633 10.1883 8.83909 0.25
541 9.67668 9.1246 1.12613 0.25
542 7.51101 9.30665 5.79512 0.25
543 9.58419 4.28439 4.41769 0.25
544 1.72662 2.05779 7.21339 0.25
545 9.98918 9.58871 3.37682 0.25
546 0.396906 0.943413 6.34776 0.25
547 9.56188 3.49431 2.00519 0.25
548 9.40499 4.72691 9.07937 0.25
549 1.66539 0.161413 2.13861 0.25
550 10.1577 8.94271 1.15335 0.25
551 2.90148 7.4345 3.24442 0.25
552 8.88714 9.51488 6.70412 0.25
553 5.91271 2.67378 5.41593 0.25
554 9.13269 4.48824 4.1497 0.25
555 6.10166 8.62298 7.87655 0.25
556 1.48219 9.30311 7.24426 0.25
557 2.27257 9.53772 8.17735 0.25
558 2.35364 3.90461 8.00863 0.25
559 9.43518 0.969592 9.33282 0.25
560 3.26524 4.66045 5.89256 0.25
561 0.936939 3.83321 1.74101 0.25
562 5.35183 5.16722 9.56555 0.25
563 6.05711 10.0448 8.12167 0.25
564 1.48009 1.63288 7.15284 0.25
565 2.47646 1.31715 2.22656 0.25
566 9.87503 6.19882 6.93139 0.25
567 0.593138 6.28745 0.373934 0.25
568 7.43166 1.95305 5.35538 0.25
569 7.67237 4.08255 7.77476 0.5
570 4.8929 4.26502 2.41788 0.25
571 4.51599 3.2478 3.09555 0.25
572 8.12118 1.64701 9.21635 0.25
573 0.72636 6.69778 5.16689 0.25
574 0.829722 0.694979 6.37453 0.25
575 5.88731 3.78054 4.35002 0.25
576 5.27622 1.66252 0.981905 0.25
577 0.248406 7.74289 5.22412 0.25
578 1.27523 5.02967 10.266 0.5
579 4.77458 5.02624 6.85486 0.25
580 8.51429 7.07213 3.29035 0.25
581 7.31236 6.5884 8.22929 0.25
582 7.01348 4.57175 4.38549 0.25
583 8.29215 6.25411 6.87058 0.25
584 5.33458 6.74015 3.3576 0.25
585 6.98043 0.30687 0.868272 0.25
586 1.72854 2.53321 4.64317 0.25
587 6.05003 9.94425 5.61317 0.25
588 3.34424 0.902491 9.85673 0.25
589 10.1525 3.91485 1.50844 0.25
590 8.05161 7.57003 4.25434 0.25
591 3.88869 2.52588 5.38178 0.25
592 7.30463 4.93104 2.20106 0.25
593 5.35081 9.63581 5.84242 0.25
594 8.5254 5.83568 9.88243 0.25
595 1.54955 1.84548 7.63253 0.25
596 9.4696 9.22215 1.6035 0.25
597 4.22331 1.24061 3.03484 0.25
598 6.32144 6.97405 0.588076 0.25
599 0.0885708 1.31997 1.39527 0.25
600 3.19601 9.82193 1.50481 0.25
601 7.32398 9.43383 2.17413 0.25
602 6.10103 8.59735 3.13979 0.25
603 2.18268 6.30741 7.20056 0.25
604 9.12272 1.03548 1.00464 0.25
605 1.99466 7.69409 3.07634 0.25
606 2.05259 2.1377 6.80666 0.25
607 2.45842 2.2139 7.53693 0.25
608 6.07389 6.67715 5.33516 0.5
609 3.44682 6.64011 1.18549 0.25
610 6.4703 4.67089 0.858165 0.5
611 8.1478 8.74059 7.21097 0.25
612 8.34174 0.516352 3.71819 0.5
613 8.18735 2.53615 10.0347 0.25
614 9.45476 6.58459 1.01925 0.25
615 7.37616 4.0351 7.06598 0.25
616 1.6191 1.87307 6.74632 0.25
617 2.39745 3.53554 7.68827 0.25
618 7.93589 3.28478 10.174 0.25
619 1.52757 9.13033 2.51667 0.25
620 6.80706 5.97092 2.13348 0.25
621 6.91243 4.93976 1.43861 0.25
622 6.97802 6.18854 8.24487 0.25
623 7.71136 4.61794 4.75035 0.5
624 4.92628 8.68134 8.21489 0.25
625 5.24236 1.68625 0.154092 0.25
626 2.77301 2.70854 4.07093 0.25
627 7.13574 5.69394 1.90311 0.25
628 1.48464 10.1321 0.355088 0.25
629 7.30708 10.1179 9.9367 0.25
630 5.51756 7.54616 0.576353 0.25
631 8.1224 1.49575 5.36681 0.25
632 3.35063 3.90302 0.0405135 0.25
633 3.62338 3.65583 10.0791 0.25
634 4.21172 7.80774 8.3189 0.5
635 9.72583 6.63706 7.06651 0.25
636 8.7731 5.40235 9.60585 0.25
637 6.31128 9.11061 4.89448 0.25
638 2.86013 10.2944 4.16913 0.5
639 7.50571 2.86118 2.38504 0.25
640 7.50373 1.82763 7.9394 0.25
641 4.30961 5.20425 4.04168 0.25
642 3.20198 8.04887 6.41802 0.25
643 2.8453 1.21623 10.3621 0.25
644 5.8027 9.74763 4.89875 0.5
645 3.06723 3.73089 0.41933 0.25
646 8.58084 7.56312 3.57046 0.25
647 6.58759 6.13151 5.56686 0.25
648 7.44791 1.37946 7.68019 0.25
649 4.80256 5.87634 8.76242 0.25
650 7.68504 0.898907 3.46776 0.25
651 5.12319 8.31321 7.86486 0.25
652 1.40681 5.93516 8.38107 0.25
653 1.13135 4.81514 5.70413 0.25
654 1.69735 6.37246 7.02149 0.25
655 10.1755 4.41671 1.46062 0.25
656 4.783 4.64734 7.66198 0.25
657 8.81598 9.41042 6.1623 0.25
658 6.9275 3.89083 7.79181 0.25
659 8.73552 0.270128 4.28163 0.25
660 1.80824 6.25778 7.86885 0.5
661 2.44466 7.46412 3.14127 0.25
662 7.73644 9.076 5.44569 0.25
663 2.74194 0.249217 9.18923 0.25
664 1.00792 2.21368 9.91673 0.25
665 8.27789 6.68515 0.589551 0.25
666 5.63091 9.84165 7.96886 0.25
667 7.82492 3.4252 9.7087 0.25
668 7.73777 2.81234 5.71224 0.25
669 3.18611 7.52736 9.24492 0.5
670 0.475073 3.375 9.70721 0.25
671 0.834408 6.19256 4.66858 0.5
672 6.55537 6.98423 5.79274 0.25
673 3.79265 9.52382 0.793523 0.25
674 6.68209 4.88239 4.50696 0.25
675 7.8594 8.95605 7.57091 0.25
676 5.57303 2.32025 0.521086 0.5
677 9.61069 3.81205 7.81035 0.25
678 0.28833 0.279465 6.02247 0.5
679 2.14907 2.31952 7.22062 0.25
680 2.75456 6.86432 2.42728 0.25
681 8.40109 9.3671 6.77834 0.25
682 3.81396 7.64785 4.95482 0.25
683 0.919823 2.62414 9.59016 0.25
684 1.64752 8.92164 7.065 0.25
685 8.75303 10.2957 3.55148 0.25
686 6.16696 10.2583 5.25983 0.25
687 9.41084 3.38265 7.66829 0.25
688 5.32237 7.73203 0.128736 0.25
689 2.48665 2.31045 4.08623 0.25
690 10.2124 7.50558 9.13052 0.25
691 0.211614 8.23167 5.15111 0.25
692 1.11703 4.24725 5.71888 0.25
693 9.66334 2.21894 4.03439 0.25
694 3.13353 4.19885 0.380426 0.25
695 7.27256 1.43997 5.30251 0.25
696 5.24668 1.37337 3.63143 0.25
697 1.29663 8.87976 7.35749 0.25
698 8.54691 5.81398 0.49595 0.25
699 3.36321 7.74579 5.16105 0.25
700 5.38892 8.03269 0.531353 0.25
701 3.18332 5.08571 5.64627 0.25
702 5.67419 4.1565 4.505 0.25
703 1.77171 0.449006 1.69851 0.25
704 6.26267 4.22136 7.35063 0.25
705 4.15654 5.96478 9.27447 0.25
706 7.55993 0.877656 7.68951 0.25
707 7.10916 6.18868 5.50776 0.25
708 5.39061 6.78095 3.84877 0.25
709 1.57625 4.76451 1.99055 0.5
710 1.25572 4.45826 5.30911 0.25
711 7.62247 4.50926 7.09322 0.25
712 4.64342 8.13365 3.533 0.25
713 1.48873 4.67476 3.52536 0.25
714 2.21592 10.1984 4.15288 0.25
715 2.29328 3.73645 8.51777 0.25
716 8.92242 8.66889 1.08269 0.25
717 3.12203 5.51769 5.47767 0.25
718 5.54894 3.29067 5.22346 0.5
719 5.62191 2.85268 5.79994 0.25
720 5.4865 1.13498 3.97817 0.25
721 3.75252 8.10674 6.44907 0.25
722 3.92023 5.73631 4.5494 0.25
723 5.86903 7.1101 6.42938 0.25
724 9.45446 0.518797 9.06299 0.25
725 3.83042 10.1448 6.64759 0.25
726 4.23998 5.31944 4.50009 0.25
727 3.45405 5.60606 4.36014 0.25
728 1.79997 7.83704 9.63132 0.5
729 8.10296 2.04177 6.08659 0.25
730 8.06275 1.25278 8.90709 0.25
731 1.78485 5.53818 10.2447 0.25
732 3.09162 7.53937 6.43649 0.25
733 9.92972 2.59123 4.08189 0.25
734 8.53002 7.72934 4.03412 0.25
735 3.49516 2.40369 5.55502 0.25
736 8.81487 6.39407 6.07353 0.25
737 0.74343 4.51276 5.93603 0.25
738 4.89095 8.19316 8.29032 0.25
739 3.6113 4.33762 0.222335 0.25
740 8.69735 7.03409 1.3 0.25
741 6.90447 2.26904 2.26692 0.25
742 5.02119 1.82095 0.575833 0.25
743 10.0777 3.09256 4.27124 0.25
744 2.46579 2.61498 4.76048 0.5
745 0.332489 4.18944 5.98072 0.25
746 6.41146 5.13447 1.49401 0.25
747 7.98375 1.89337 0.243032 0.25
748 7.10097 10.0047 9.48082 0.25
749 6.93578 3.90131 6.91928 0.25
750 4.10301 2.33067 6.76179 0.25
751 2.29131 2.76373 4.0891 0.25
752 9.67106 2.45767 4.46953 0.25
753 0.325966 2.35838 10.0274 0.5
754 8.09413 1.59722 5.8249 0.25
755 7.86156 2.79166 10.2444 0.25
756 5.19042 1.82685 1.43898 0.25
757 0.303333 2.65511 3.99491 0.5
758 2.36369 10.1786 3.63219 0.25
759 4.99872 2.61065 8.29037 0.25
760 5.3826 0.65882 3.14571 0.25
761 6.13604 7.16357 5.99371 0.25
762 0.1789 3.46283 6.29245 0.25
763 6.36605 4.24099 4.79105 0.5
764 5.81642 6.69619 3.1351 0.25
765 6.96148 6.61792 8.91274 0.25
766 1.58654 5.03264 3.27817 0.25
767 7.62014 3.05351 2.84615 0.25
768 5.21394 2.30591 6.17588 0.5
769 0.524706 2.4855 0.341538 0.25
770 6.36982 6.48275 6.30486 0.5
771 5.79866 7.72557 10.2092 0.25
772 6.95408 9.15934 5.35657 0.5
773 5.9521 4.06306 10.1565 0.25
774 6.82042 8.46489 2.75068 0.25
775 10.0036 7.92604 9.17289 0.25
776 4.51356 9.59022 0.413744 0.25
777 0.750631 7.85132 2.17621 0.25
778 4.10319 0.431783 8.83531 0.25
779 10.1533 7.65068 9.572 0.25
780 4.95323 5.0023 9.86972 0.25
781 5.24105 6.39122 3.73066 0.25
782 9.11402 6.22147 1.13891 0.25
783 4.59748 8.5911 3.40247 0.25
784 3.50782 3.93193 0.530024 0.25
785 8.33373 8.96267 7.68003 0.25
786 6.81965 6.43496 5.2235 0.25
787 6.79197 6.93851 5.33483 0.25
788 5.53638 1.01343 3.50277 0.25
789 7.3773 5.40593 2.21939 0.25
790 5.04771 2.50675 6.8722 0.25
791 8.49826 6.17793 6.38837 0.25
792 4.16894 3.52602 2.48776 0.5
793 10.2569 0.447677 9.10067 0.25
794 2.70382 1.68013 2.45985 0.25
795 1.31832 8.65779 7.83 0.25
796 1.6141 10.1823 4.39282 0.5
797 9.81551 9.47144 3.82507 0.25
798 9.54187 4.75621 4.18551 0.25
799 3.35839 6.79291 1.93251 0.5
800 9.80608 1.48234 1.91732 0.25
801 5.98392 10.3139 9.88261 0.25
802 6.33516 7.7703 0.487151 0.25
803 9.35484 4.86218 9.54085 0.25
804 4.53958 4.87056 7.261 0.25
805 9.10419 4.08983 4.45354 0.25
806 2.5508 9.24752 7.43565 0.25
807 3.18088 5.45286 5.94099 0.25
808 9.27418 5.35667 9.6475 0.25
809 1.46768 5.11778 9.58613 0.25
810 7.85942 2.10563 6.50399 0.25
811 8.96505 4.66148 9.36533 0.25
812 3.80889 6.43381 1.39471 0.25
813 1.60646 4.03627 2.23428 0.25
814 1.16648 9.78807 0.182966 0.25
815 3.63117 5.18529 4.964 0.5
816 6.44355 0.241573 9.9739 0.25
817 4.57034 9.49528 1.16044 0.5
818 8.83343 6.12802 10.1077 0.25
819 4.218 6.16941 1.53783 0.25
820 6.5212 4.20071 7.75812 0.25
821 7.92121 9.13004 6.82605 0.25
822 5.28626 3.59937 2.63705 0.25
823 1.93046 9.07821 7.79606 0.5
824 7.27448 4.70654 7.93921 0.25
825 8.11098 9.01148 6.13943 0.5
826 7.0613 3.1565 2.22563 0.25
827 9.31135 6.34519 6.18128 0.25
828 9.75589 3.59981 1.55765 0.25
829 1.17496 7.40461 4.7276 0.25
830 3.83851 5.87628 1.37506 0.25
831 2.5717 6.68089 1.98573 0.25
832 4.09589 5.46865 9.11227 0.25
833 5.34159 6.44293 6.01594 0.25
834 8.68185 4.03266 4.71288 0.25
835 1.5669 1.11802 7.15736 0.25
836 7.23148 5.16803 1.73401 0.25
837 3.77299 7.30648 8.74464 0.25
838 2.36616 9.63177 7.68513 0.25
839 0.159601 1.95676 3.78068 0.25
840 9.06912 4.99878 4.14158 0.25
841 5.68866 4.79789 10.0915 0.5
842 7.23396 6.34011 8.64439 0.25
843 1.23989 9.51372 2.71353 0.25
844 6.93404 4.43188 1.3797 0.25
845 8.70218 4.2758 4.28944 0.25
846 0.932659 5.555 4.4071 0.25
847 7.62874 2.20581 0.480655 0.25
848 2.61514 0.753427 9.7651 0.5
849 7.21019 5.23087 2.63817 0.25
850 3.95227 8.47178 3.88404 0.25
851 3.38108 6.22969 1.46064 0.25
852 5.01738 1.32908 4.11905 0.25
853 9.16088 10.3165 4.32911 0.25
854 2.34979 3.21386 8.4455 0.25
855 4.06578 6.64865 1.76207 0.25
856 9.85286 3.36317 7.94918 0.25
857 6.13494 3.43355 4.68081 0.25
858 9.17445 7.16219 4.25248 0.25
859 9.62649 1.11978 1.66913 0.25
860 1.89477 10.1423 5.09766 0.25
861 3.4893 9.75478 1.11581 0.25
862 7.48644 1.13041 8.40489 0.5
863 0.684648 3.03775 9.4214 0.25
864 3.76376 3.83715 3.04771 0.25
865 0.49941 6.96432 4.78735 0.25
866 2.74377 1.46929 9.57117 0.25
867 3.31303 7.88086 9.96593 0.25
868 9.53445 1.29907 1.19479 0.25
869 1.08805 8.10606 5.23521 0.25
870 6.89169 6.7114 8.41673 0.25
871 7.12927 2.64542 2.19626 0.25
872 8.14229 1.48978 7.72081 0.5
873 5.29847 10.1627 5.22059 0.25
874 6.52738 9.59226 4.93051 0.25
875 3.55992 8.3955 5.49966 0.25
876 3.82108 6.15757 1.80471 0.25
877 0.531608 2.19076 4.52225 0.25
878 10.3294 0.0799365 9.34863 0.25
879 0.433782 7.82054 4.81974 0.25
880 5.55755 4.05625 5.00178 0.25
881 3.90577 6.55264 8.94675 0.5
882 9.90536 1.10639 6.02446 0.25
883 5.12454 2.87089 5.71713 0.25
884 2.74539 1.9487 1.36173 0.5
885 9.20623 9.48783 3.79962 0.25
886 9.15452 9.03914 1.25998 0.25
887 1.05466 6.38626 7.64282 0.25
888 1.37438 0.149213 1.6991 0.25
889 4.88784 4.93183 8.00863 0.25
890 0.388462 3.7045 5.9515 0.25
891 4.21967 3.96542 3.14673 0.25
892 6.60198 8.67101 3.12591 0.25
893 8.32994 3.00245 10.2247 0.25
894 1.63796 7.93189 10.3475 0.25
895 10.13 3.71031 7.70446 0.25
896 9.94828 1.05655 1.32325 0.25
897 3.50394 7.78549 6.71209 0.25
898 1.10376 5.10256 4.98555 0.5
899 0.503262 0.638901 6.72683 0.25
900 8.17598 7.66029 3.75442 0.25
901 0.343725 7.96584 5.62837 0.25
902 5.8158 1.7437 0.907928 0.25
903 8.88435 6.69844 3.4621 0.25
904 1.21785 6.0239 10.2522 0.5
905 9.16452 1.08898 1.47469 0.25
906 10.0262 9.78182 4.21298 0.25
907 4.85257 3.81981 2.58028 0.25