ITEM: TIMESTEP
50000
ITEM: NUMBER OF ATOMS
1000
ITEM: BOX BOUNDS xy xz yz pp pp pp
0.0000000000000000e+00 1.0357442000000001e+01 0.0000000000000000e+00
0.0000000000000000e+00 1.0357442000000001e+01 0.0000000000000000e+00
0.0000000000000000e+00 1.0357442000000001e+01 0.0000000000000000e+00
ITEM: ATOMS id x y z radius
1 1.21644 4.6102 3.12822 0.5
2 2.39002 7.49251 2.54447 0.5
3 5.29896 1.31245 0.493247 0.25
4 0.358318 2.80887 4.67908 0.25
5 10.1738 3.12273 7.39121 0.25
6 10.177 2.92614 9.67685 0.25
7 5.1964 0.312565 3.64591 0.25
8 8.56881 3.62201 2.14873 0.25
9 0.0903762 1.4262 1.77611 0.25
10 8.7379 7.34388 4.44603 0.25
11 8.46996 9.86149 0.414587 0.25
12 7.57375 2.59005 0.523134 0.25
13 3.71517 8.1275 5.83325 0.25
14 4.82612 2.49959 1.70633 0.25
15 9.06551 6.7193 6.3323 0.25
16 8.34403 9.0127 6.72108 0.25
17 7.09354 0.712697 8.38124 0.5
18 2.91497 7.97495 9.55845 0.25
19 7.70204 4.79508 5.73589 0.25
20 9.30726 1.22665 1.41993 0.25
21 0.730386 1.0391 9.59838 0.25
22 5.10855 0.178267 3.15109 0.25
23 4.47985 3.17454 2.41338 0.25
24 2.90251 2.01823 4.44569 0.25
25 8.12828 1.50778 5.79494 0.25
26 5.53118 2.42354 8.6152 0.25
27 1.63563 8.37393 9.63338 0.25
28 8.82456 6.53634 6.74863 0.25
29 3.32645 8.0205 5.49514 0.25
30 1.23104 8.42672 7.44085 0.25
31 0.390817 7.72501 5.30994 0.25
32 9.4061 7.01231 1.06494 0.25
33 8.60837 9.98549 0.931486 0.25
34 0.555147 2.67151 10.124 0.25
35 8.46846 3.72951 9.66422 0.25
36 7.72202 8.61857 9.36408 0.25
37 2.3647 4.09623 6.20395 0.25
38 6.977 0.222594 1.40006 0.25
39 6.1967 3.26997 4.73342 0.25
40 8.73963 3.87065 4.69571 0.25
41 8.76064 7.58198 4.82962 0.25
42 6.07941 8.68599 2.83656 0.5
43 0.266749 8.48537 5.3495 0.25
44 2.42576 0.256084 3.41693 0.25
45 6.7866 6.47353 8.31171 0.25
46 1.20607 8.59977 7.92303 0.25
47 4.75933 8.2052 3.7836 0.25
48 2.15652 10.111 3.49075 0.25
49 4.28699 5.39913 9.58242 0.25
50 9.66339 8.99702 3.29935 0.25
51 9.48014 9.23208 0.48917 0.25
52 5.45196 7.7612 0.823551 0.25
53 7.06131 4.88703 1.57368 0.25
54 4.49725 5.63661 7.63405 0.25
55 6.51604 6.99045 6.85581 0.25
56 5.39874 1.60434 0.0898511 0.25
57 4.58774 2.13662 1.41554 0.25
58 5.98784 4.54091 0.471327 0.25
59 4.1926 7.03328 9.28169 0.25
60 6.73009 5.94754 8.39221 0.25
61 4.22218 9.99447 8.13305 0.25
62 9.53927 6.82789 6.23252 0.25
63 0.704481 5.43557 4.19102 0.25
64 0.340532 0.96464 1.79181 0.25
65 5.80916 7.11949 6.24504 0.25
66 4.63435 0.225725 3.02229 0.25
67 9.0646 5.17461 9.50673 0.25
68 6.601 0.238466 0.498378 0.25
69 2.8639 7.03262 2.91723 0.25
70 3.92392 5.46762 4.16888 0.25
71 0.870122 7.73717 2.27814 0.25
72 5.63567 6.37608 4.12955 0.25
73 8.87734 9.22665 7.17712 0.5
74 3.06841 7.49175 2.83619 0.25
75 2.45663 5.50608 0.258232 0.25
76 2.36007 8.53407 10.1582 0.25
77 7.12193 6.14078 8.5496 0.25
78 3.74518 9.13458 1.58348 0.25
79 1.11785 5.75989 9.43198 0.25
80 7.32142 8.44569 9.04826 0.25
81 8.80936 9.12392 7.89981 0.25
82 1.15563 9.59455 0.969299 0.25
83 1.34011 7.53777 2.33457 0.25
84 5.05031 9.82782 5.86949 0.25
85 4.47898 6.43241 1.67204 0.25
86 9.53594 4.21097 1.97327 0.5
87 1.04919 5.84551 8.94538 0.25
88 2.95085 3.5288 8.05072 0.25
89 1.12019 0.351142 9.92385 0.25
90 6.67641 9.59965 1.84535 0.5
91 4.54729 8.62054 3.82765 0.25
92 10.0828 1.39308 1.45037 0.25
93 8.43433 1.22445 8.75847 0.25
94 0.806686 4.35192 1.50324 0.25
95 7.30255 9.07892 5.66574 0.25
96 7.8663 0.965216 7.46848 0.25
97 5.45998 9.72569 5.98034 0.25
98 9.92393 0.0846409 6.01885 0.25
99 5.0733 2.61859 8.06148 0.5
100 4.98059 3.02555 5.88014 0.25
101 5.38246 3.35096 9.24697 0.5
102 4.49152 5.16822 8.20953 0.5
103 6.51993 0.149007 1.24669 0.25
104 1.77173 10.241 0.109144 0.25
105 1.88851 4.37476 3.35116 0.25
106 6.60968 6.89188 6.28922 0.25
107 6.46087 0.333677 8.16047 0.25
108 1.25243 4.20965 1.68025 0.25
109 7.63489 2.67705 2.69652 0.25
110 5.59499 9.41492 6.30317 0.25
111 0.900867 6.17123 0.512889 0.25
112 3.2726 4.4826 5.46463 0.25
113 1.66976 0.147746 4.00151 0.25
114 8.422 6.38569 0.553649 0.25
115 3.94925 4.0274 2.58134 0.25
116 0.0829951 1.95661 3.83599 0.25
117 7.06919 2.22213 2.51612 0.5
118 5.97085 7.96791 2.96548 0.25
119 9.81066 2.56894 4.47698 0.25
120 1.2692 5.53777 0.302366 0.25
121 7.52745 1.41586 5.31694 0.5
122 1.54483 4.59925 2.45573 0.25
123 9.25581 8.88899 0.79256 0.25
124 8.34277 6.7616 1.03785 0.25
125 2.86511 10.3145 4.6505 0.25
126 5.8727 7.11461 0.735831 0.25
127 5.77238 7.5185 0.485954 0.25
128 9.80534 10.0207 3.94406 0.25
129 2.01389 5.30021 3.48788 0.25
130 9.72198 9.0455 0.883844 0.25
131 7.38296 2.87364 2.28191 0.25
132 8.36363 4.73324 4.88395 0.25
133 7.19248 8.74179 9.46153 0.25
134 4.76025 3.47711 2.11704 0.25
135 6.00973 0.824475 8.31975 0.5
136 8.44669 8.80508 7.72291 0.25
137 0.783175 8.52871 1.89461 0.25
138 7.84727 4.36581 5.5397 0.25
139 7.3383 4.46119 8.1761 0.5
140 4.30491 8.71792 4.26843 0.25
141 1.87854 1.64849 1.88041 0.25
142 3.09748 2.39887 4.20984 0.25
143 7.98665 1.07168 2.92601 0.25
144 9.55345 6.92585 2.04088 0.25
145 3.27057 8.02857 6.00748 0.25
146 7.51033 7.87051 2.42563 0.25
147 4.34627 5.26935 4.36486 0.25
148 3.08711 1.34997 9.70317 0.25
149 9.8748 7.61071 9.03103 0.25
150 4.89506 5.40227 7.71282 0.25
151 6.25451 9.95636 10.348 0.25
152 4.05419 9.52807 1.65312 0.25
153 4.95353 2.04546 7.49697 0.25
154 6.5871 1.15518 8.02461 0.25
155 3.41411 5.71533 1.32027 0.25
156 0.827372 8.69045 7.60714 0.25
157 5.07116 1.37522 3.8016 0.25
158 8.46987 8.67294 6.33855 0.25
159 3.02765 2.32127 5.13832 0.25
160 2.6488 3.2758 8.29843 0.25
161 3.72203 10.0556 8.18346 0.25
162 4.01402 2.15474 5.70535 0.5
163 7.32812 9.28421 2.20961 0.25
164 4.92908 8.04185 7.95314 0.25
165 0.0827016 2.92984 10.1581 0.25
166 6.69041 4.46585 7.19808 0.25
167 8.58796 10.3099 3.9488 0.25
168 0.0578758 8.00813 9.45173 0.25
169 9.23753 5.67029 7.61782 0.25
170 4.01789 10.0754 8.59166 0.25
171 0.900227 9.13424 7.41375 0.25
172 9.58892 6.40433 7.55053 0.25
173 0.874727 1.91338 4.39978 0.25
174 4.49249 1.79122 6.23692 0.25
175 9.61779 3.07072 7.42123 0.25
176 2.07529 5.77138 0.460813 0.25
177 9.5889 5.89867 7.38251 0.25
178 7.96122 1.96188 5.64685 0.25
179 2.29195 9.73013 8.07764 0.25
180 6.79014 8.21688 2.24467 0.5
181 0.802651 4.46678 6.08958 0.25
182 7.14856 1.0045 2.79674 0.25
183 0.994788 10.0351 4.23742 0.25
184 9.51229 5.64112 10.2676 0.25
185 8.84761 8.87706 6.59815 0.25
186 2.56618 8.22736 9.81473 0.25
187 3.61185 4.1984 0.352069 0.25
188 5.23185 2.54683 7.30421 0.25
189 9.69892 0.480881 6.16979 0.25
190 2.84012 7.75147 3.59155 0.25
191 5.69688 2.73343 8.96444 0.25
192 9.01952 9.28187 6.40171 0.25
193 5.78638 2.74764 9.48023 0.25
194 3.53563 9.56664 1.71416 0.25
195 5.33261 4.55881 9.52464 0.25
196 5.01553 1.99566 1.69275 0.25
197 9.51821 6.35366 6.82297 0.5
198 8.04649 1.62423 7.09161 0.5
199 6.89248 10.0535 9.85984 0.25
200 7.04512 1.44707 6.3905 0.25
201 6.22989 7.23067 6.4582 0.25
202 3.88062 7.4155 5.22214 0.25
203 4.72173 9.52817 0.254306 0.25
204 0.505351 3.81878 6.55138 0.25
205 3.55035 0.0913965 5.86919 0.25
206 0.561537 1.9401 4.0111 0.25
207 1.35179 5.48591 3.83376 0.5
208 2.46899 4.27708 5.78713 0.25
209 7.54287 8.36663 2.47535 0.25
210 3.92776 10.1509 5.80155 0.25
211 1.14237 4.89619 2.45207 0.25
212 0.118204 3.96959 1.50897 0.5
213 8.41153 3.99867 1.76376 0.25
214 3.29852 4.38857 5.91558 0.25
215 9.76997 0.0343171 8.56736 0.25
216 5.26398 2.09383 0.891176 0.25
217 0.749621 8.48075 5.29819 0.25
218 1.88462 2.31924 1.92244 0.5
219 0.404132 4.21542 5.83535 0.25
220 7.01091 9.55162 2.50602 0.25
221 8.94962 7.07163 4.07144 0.25
222 9.19108 6.67011 7.4791 0.25
223 5.2467 9.43876 5.56692 0.25
224 0.240108 3.8358 7.01088 0.25
225 7.48247 2.11893 5.50694 0.25
226 6.28226 9.21243 5.0684 0.25
227 6.61836 10.3501 1.72015 0.25
228 4.90563 2.02335 0.558858 0.25
229 2.70045 1.58472 2.26787 0.25
230 8.44248 7.14502 4.75263 0.25
231 7.59912 4.09819 7.02391 0.25
232 7.02035 8.95204 1.9954 0.25
233 8.71654 1.83149 8.46435 0.5
234 3.61441 10.257 1.18776 0.25
235 1.0008 9.03698 7.91552 0.25
236 1.61885 5.9356 0.305967 0.25
237 8.24566 1.28553 3.24218 0.25
238 1.66034 6.12741 4.22417 0.25
239 0.112054 3.73423 9.5434 0.25
240 1.34847 8.29635 2.14518 0.5
241 0.984614 8.89416 2.23045 0.25
242 3.20406 7.71677 6.35728 0.25
243 2.07786 5.28043 0.49504 0.25
244 1.09745 1.70789 7.22898 0.25
245 6.01853 7.19662 6.93842 0.25
246 1.45633 8.03008 9.99023 0.25
247 3.05389 7.22519 2.43606 0.25
248 5.05894 3.15805 8.60177 0.25
249 7.40899 4.43571 5.7965 0.25
250 7.241 1.60526 6.89765 0.25
251 1.65322 0.95828 7.03434 0.25
252 7.42152 7.26134 9.14053 0.25
253 4.21116 7.75246 8.6163 0.25
254 0.5964 8.11896 2.09666 0.25
255 1.51205 9.20459 1.01704 0.25
256 3.5844 5.76787 4.86246 0.25
257 1.56497 0.288085 10.204 0.25
258 4.99008 5.17407 6.8957 0.25
259 2.1281 0.036949 4.27163 0.25
260 2.01914 0.307087 0.0531376 0.25
261 6.91575 5.81448 8.89189 0.25
262 5.71121 6.55784 3.67699 0.25
263 7.73884 8.57054 8.85033 0.25
264 6.90531 9.40248 9.47561 0.5
265 4.08662 4.18209 3.05473 0.25
266 3.33704 3.71152 3.06346 0.25
267 3.78661 7.91933 5.38197 0.25
268 3.66947 7.53156 6.58106 0.25
269 7.58152 9.20462 5.27015 0.25
270 3.57267 7.09751 6.57446 0.25
271 3.49652 9.93092 1.96355 0.25
272 6.45531 6.03498 6.19802 0.25
273 9.56179 3.37965 6.45089 0.25
274 2.49492 4.59876 6.14832 0.25
275 10.1536 6.95455 2.50435 0.25
276 9.13137 0.753391 8.19226 0.25
277 2.91934 10.0858 8.19978 0.5
278 4.08092 5.65637 8.65667 0.25
279 4.03187 0.0843879 8.24244 0.25
280 3.54747 0.0435968 8.45103 0.25
281 4.35613 8.71151 3.41981 0.25
282 4.47212 0.779509 3.68031 0.25
283 10.3275 0.561801 8.62135 0.25
284 1.35177 6.38536 0.481076 0.25
285 8.33338 7.40438 1.55487 0.25
286 0.502938 1.34796 2.09552 0.25
287 2.16066 8.1294 2.06441 0.25
288 1.68841 5.69676 4.52509 0.25
289 9.29332 1.67385 1.19775 0.25
290 9.6306 3.50404 2.11387 0.25
291 7.24695 2.37194 0.234614 0.25
292 3.35621 9.93505 1.4539 0.25
293 4.78686 2.76025 6.65407 0.5
294 10.3118 6.47865 2.42293 0.25
295 7.13106 1.20658 7.55609 0.5
296 3.24959 1.96035 4.05558 0.25
297 0.949083 8.38682 4.86749 0.25
298 4.55324 9.56921 0.713584 0.25
299 9.14506 5.3025 10.3193 0.25
300 2.62438 10.1098 5.07401 0.25
301 4.72433 7.81599 8.72698 0.25
302 4.49613 5.00315 6.99584 0.25
303 9.12175 6.02724 0.387171 0.5
304 4.36374 4.14796 2.26152 0.25
305 1.83117 7.79381 2.17915 0.25
306 10.2114 7.57112 9.44344 0.25
307 1.86598 10.3248 10.0334 0.25
308 9.80474 6.41484 6.08182 0.25
309 8.64042 1.43652 9.14224 0.25
310 6.17648 6.92171 6.01864 0.25
311 0.76954 8.79378 0.749144 0.25
312 9.22504 1.00967 8.81326 0.5
313 1.17213 7.86927 2.70496 0.25
314 0.205001 3.77572 2.22289 0.25
315 3.96267 0.348069 8.90925 0.5
316 7.20774 3.44262 8.19827 0.25
317 6.49312 0.454639 8.72426 0.25
318 10.1219 7.91766 9.8534 0.25
319 9.59225 9.36136 3.01233 0.25
320 0.777245 2.70873 9.74201 0.25
321 2.17084 1.63585 2.26666 0.25
322 0.528203 7.61187 4.8757 0.25
323 6.5241 0.00260767 9.30331 0.5
324 7.60465 2.29648 3.50059 0.25
325 8.85755 3.7115 1.79922 0.25
326 2.51025 10.24 3.1515 0.25
327 1.60201 8.75494 7.19532 0.25
328 4.46197 3.99882 2.76142 0.25
329 8.16968 7.23819 3.97888 0.5
330 9.97234 7.06039 2.05358 0.25
331 8.18028 0.206287 4.05804 0.25
332 5.41704 6.74668 0.685997 0.25
333 10.1839 8.35262 9.09826 0.25
334 6.62639 4.75287 1.74718 0.25
335 5.70623 4.93964 0.561368 0.25
336 8.81364 4.18694 1.68072 0.25
337 4.54893 5.83763 8.37448 0.25
338 6.114 7.97334 2.49002 0.25
339 3.98832 5.16814 9.34022 0.25
340 0.482356 3.58203 9.233 0.25
341 4.03353 5.56186 4.63642 0.25
342 9.61812 3.67681 6.87647 0.25
343 9.95069 1.97328 3.85888 0.25
344 4.3743 0.613238 3.1902 0.25
345 6.62547 4.23157 0.177852 0.25
346 1.58696 1.77037 7.42066 0.25
347 3.04568 3.73362 10.351 0.25
348 6.04328 7.11788 0.263533 0.25
349 4.52414 2.19458 7.72354 0.25
350 2.28859 3.01178 8.50987 0.25
351 5.66379 5.87989 4.14998 0.25
352 8.13583 7.00645 1.44145 0.25
353 10.0495 3.89747 6.97419 0.25
354 9.66272 3.88364 1.3575 0.25
355 2.32887 2.51291 1.43692 0.25
356 4.43095 9.14045 0.952715 0.25
357 3.02036 4.68528 6.22204 0.25
358 4.75239 9.11233 0.587983 0.25
359 8.88688 6.99276 0.527224 0.5
360 3.9634 0.164222 6.12013 0.25
361 10.1391 0.54106 5.83022 0.25
362 10.1297 8.37565 9.62413 0.25
363 7.23927 2.92608 2.76991 0.25
364 10.2368 6.2551 1.96132 0.25
365 6.39911 9.62399 4.78314 0.25
366 8.78151 4.05701 2.14005 0.25
367 4.46482 0.345932 8.34781 0.25
368 9.55428 6.00962 7.85055 0.25
369 8.43758 4.72786 4.16987 0.5
370 4.33723 2.01378 7.03914 0.5
371 9.85037 6.58124 1.44728 0.5
372 1.01078 2.61928 4.23215 0.5
373 4.43288 10.2828 8.48352 0.25
374 3.51839 10.0494 8.69713 0.25
375 4.6374 1.24893 3.77545 0.25
376 1.25659 6.2227 3.97864 0.25
377 9.93071 8.01714 9.34832 0.25
378 9.13148 9.30537 0.108048 0.25
379 0.170748 3.88121 6.11723 0.25
380 1.73716 2.64081 3.8724 0.25
381 6.88692 5.19975 2.2696 0.5
382 2.17674 8.47457 9.66458 0.25
383 5.01673 8.50736 8.0987 0.25
384 1.99406 6.20938 7.03434 0.25
385 1.38031 7.2022 4.89277 0.25
386 1.28991 5.48172 8.00706 0.25
387 1.84936 5.70075 7.05355 0.25
388 2.95048 1.90261 1.9978 0.25
389 5.74902 1.56754 0.505545 0.25
390 3.13303 4.08961 0.379491 0.25
391 3.75548 10.1696 6.26841 0.25
392 0.880393 5.96222 4.24038 0.25
393 8.5398 8.57675 6.87617 0.25
394 10.2771 10.2544 6.35011 0.25
395 1.89976 4.54058 2.84507 0.25
396 3.25992 0.448782 8.52358 0.25
397 7.62446 2.30854 3.02924 0.25
398 9.14854 4.70696 9.50573 0.25
399 2.28236 10.0025 7.67869 0.25
400 7.95833 2.71421 0.208285 0.25
401 5.97016 6.1267 3.82006 0.25
402 4.54351 5.53483 8.82859 0.25
403 6.17621 4.98841 0.354373 0.25
404 8.28367 2.01235 0.416631 0.25
405 1.67889 5.52187 0.577929 0.25
406 6.1995 9.65845 5.23697 0.25
407 7.10339 6.27219 9.04111 0.25
408 8.58922 9.54426 0.768112 0.25
409 9.91961 6.58209 2.17963 0.25
410 5.49785 1.51577 3.51785 0.25
411 7.10766 9.20502 8.74578 0.25
412 4.80284 2.45546 7.35958 0.25
413 7.29894 2.63064 3.14418 0.25
414 7.35906 5.21688 2.83699 0.25
415 5.05557 0.885893 3.19308 0.5
416 0.236505 0.184314 8.8324 0.25
417 3.4962 7.36517 5.85379 0.5
418 0.928614 1.20009 6.67999 0.5
419 8.58111 0.43938 4.01275 0.25
420 5.52012 8.51463 8.18342 0.25
421 8.80991 6.45337 7.72525 0.25
422 2.74454 7.38814 3.24826 0.25
423 1.66836 5.0051 2.7352 0.25
424 0.822803 0.724285 9.17178 0.25
425 2.23619 9.86972 4.37911 0.25
426 2.5884 2.15273 1.74009 0.25
427 6.87684 1.79475 6.62817 0.25
428 6.62046 8.97047 2.26259 0.25
429 5.3042 8.85257 7.84755 0.25
430 9.90597 9.49731 3.87481 0.25
431 6.27524 10.103 1.4707 0.25
432 2.81132 7.46843 9.48854 0.25
433 3.16595 2.81634 4.43346 0.25
434 6.75571 0.0621666 8.5578 0.25
435 10.0952 3.41321 9.42287 0.25
436 6.49186 4.62592 0.442808 0.25
437 1.14587 5.26429 10.2685 0.25
438 6.8799 1.27767 6.85111 0.25
439 9.28715 9.64167 3.53034 0.5
440 2.29872 2.73265 7.85029 0.5
441 0.648355 3.6338 2.00249 0.25
442 4.96599 7.51313 0.731428 0.25
443 9.96157 9.85166 3.50195 0.25
444 0.82748 3.92764 1.61109 0.25
445 5.24551 5.7148 3.87957 0.25
446 8.51601 4.03259 4.278 0.25
447 6.33595 4.65994 0.0401379 0.25
448 4.97338 0.69566 4.15866 0.5
449 9.84687 0.94735 6.0038 0.25
450 2.36949 2.01904 1.35103 0.25
451 2.83811 2.91764 0.0721215 0.25
452 5.93276 4.26347 4.62361 0.25
453 7.86466 3.92497 8.26287 0.25
454 1.56762 5.65042 8.31677 0.25
455 1.17175 5.93119 8.14695 0.25
456 2.49347 2.03171 2.19221 0.25
457 9.21862 9.93317 0.439786 0.5
458 2.3497 6.30354 7.34812 0.25
459 1.50733 1.23439 6.19605 0.25
460 2.03895 6.65418 7.28668 0.25
461 4.19649 6.96818 2.26257 0.25
462 4.12194 6.50986 2.05258 0.25
463 2.65701 9.84514 4.62128 0.25
464 10.2284 0.967056 1.71053 0.25
465 7.61988 5.34796 2.3564 0.25
466 4.99188 4.70017 7.40637 0.5
467 3.70852 4.62458 5.69018 0.25
468 1.74308 1.35531 1.52515 0.25
469 4.34234 3.69165 2.39079 0.25
470 5.00992 3.21678 2.4361 0.25
471 2.03371 0.156812 3.2374 0.25
472 1.95211 2.0563 7.56825 0.25
473 3.42073 8.14128 9.63963 0.25
474 9.0788 3.62297 2.18764 0.25
475 10.1657 6.46604 3.48576 0.25
476 4.3016 6.02892 1.85957 0.25
477 9.93036 9.72857 3.00878 0.25
478 8.89223 6.90051 1.55264 0.5
479 6.85062 0.116822 0.937646 0.25
480 2.65236 7.73937 9.93171 0.25
481 4.27844 9.09661 1.46622 0.25
482 6.2928 9.77215 5.70724 0.25
483 6.256 10.0292 0.769101 0.5
484 9.87103 3.40601 7.17156 0.25
485 7.86839 1.8624 0.192732 0.25
486 4.29865 8.22889 4.04575 0.25
487 3.48519 3.98713 10.3003 0.25
488 6.17697 9.19987 2.20619 0.25
489 8.72945 7.15103 3.66606 0.25
490 2.59092 3.34683 7.84745 0.25
491 8.56482 9.21193 6.40611 0.25
492 7.4748 2.75996 0.0726156 0.25
493 9.47157 3.18918 6.92588 0.25
494 8.69643 4.35275 4.73506 0.25
495 9.8666 2.90079 7.03062 0.25
496 4.01847 1.95347 6.4052 0.25
497 2.96832 3.28873 10.12 0.25
498 8.12405 2.08077 8.80926 0.25
499 3.83172 9.99132 1.57281 0.25
500 3.96571 6.98046 8.83779 0.25
501 2.11136 0.161263 3.77651 0.25
502 10.0019 6.70745 6.3791 0.25
503 6.31801 8.24496 3.27814 0.25
504 5.29835 7.56547 0.352532 0.25
505 7.56552 1.91656 6.26029 0.5
506 5.58537 9.82724 6.47464 0.25
507 6.4121 7.90411 2.92032 0.25
508 4.53983 7.90586 8.24853 0.25
509 1.46671 8.97795 7.97687 0.25
510 6.34694 4.1391 4.8419 0.25
511 3.56863 0.341158 6.34035 0.25
512 1.95554 4.89322 3.15683 0.25
513 1.29348 5.9114 0.621509 0.25
514 3.17831 2.78221 4.92914 0.25
515 2.1852 1.55383 7.04621 0.5
516 5.91094 9.15133 5.72293 0.5
517 10.154 6.0515 3.2542 0.25
518 3.77056 1.10282 9.21313 0.25
519 1.69308 10.2463 3.60195 0.25
520 5.05211 2.13725 7.03735 0.25
521 0.815676 5.04993 5.39976 0.25
522 1.91804 10.0491 3.95079 0.25
523 2.16137 3.42373 8.15589 0.25
524 7.86203 2.04576 5.19887 0.25
525 1.7472 6.82031 7.61758 0.25
526 1.76468 5.33543 7.96109 0.25
527 7.11096 8.87028 2.7878 0.5
528 7.24496 8.14463 2.81619 0.25
529 3.78611 5.34228 1.32624 0.25
530 1.70288 7.83386 2.63957 0.25
531 0.0268719 3.29955 9.83782 0.25
532 1.50989 7.51037 10.0252 0.25
533 8.61389 9.81127 3.78846 0.25
534 8.85013 4.17648 3.89087 0.25
535 7.47218 6.98095 8.7362 0.25
536 4.25326 9.62914 0.315039 0.25
537 7.85882 0.992931 3.45008 0.25
538 7.55132 4.3917 7.46166 0.25
539 10.2598 3.30383 6.61017 0.5
540 6.26386 0.0840997 8.53104 0.25
541 9.00469 9.26884 0.666404 0.25
542 7.27936 9.43172 6.00217 0.25
543 9.21309 4.94865 4.06935 0.25
544 1.92905 1.25552 6.33619 0.25
545 9.19458 9.11593 3.08311 0.25
546 0.309253 0.614221 5.84776 0.25
547 9.35138 3.59315 1.73164 0.25
548 8.7387 4.89612 9.67794 0.25
549 1.13587 9.14898 0.742068 0.25
550 8.69697 9.44322 0.263342 0.25
551 3.20553 7.54816 3.317 0.25
552 8.73527 9.38688 5.99772 0.25
553 5.09251 2.89496 5.43287 0.25
554 9.24492 4.43882 4.0792 0.25
555 5.32859 8.32765 7.79351 0.25
556 1.2618 9.37426 7.64033 0.25
557 2.59701 9.69087 7.69192 0.25
558 2.96254 3.03566 8.02137 0.25
559 9.33563 0.345475 8.47253 0.25
560 2.87353 4.56919 5.76111 0.25
561 1.29129 3.72215 1.49612 0.25
562 5.36598 4.0872 9.61701 0.25
563 6.18029 0.31128 7.73508 0.25
564 1.43398 1.73964 6.91744 0.25
565 1.9925 2.24572 1.14409 0.25
566 9.29167 6.47234 7.94587 0.25
567 2.43104 5.51733 0.742194 0.25
568 7.78454 2.41005 5.63933 0.25
569 7.10513 3.81111 7.45475 0.5
570 4.79964 3.93465 2.34715 0.25
571 3.6894 3.96878 3.36683 0.25
572 8.46923 1.95683 9.17526 0.25
573 1.00137 7.05204 5.18492 0.25
574 0.504694 0.967549 6.10439 0.25
575 5.61312 3.8871 4.76498 0.25
576 5.29224 1.75048 0.541403 0.25
577 0.546325 7.70148 5.78823 0.25
578 1.06001 6.00227 10.1863 0.5
579 5.4709 4.96764 7.00888 0.25
580 7.93329 7.20985 4.72301 0.25
581 6.77863 6.63497 9.06264 0.25
582 7.97869 4.77943 5.26855 0.25
583 9.33579 6.39928 6.04693 0.25
584 5.19388 6.0999 4.15203 0.25
585 6.76807 10.0921 1.2646 0.25
586 1.6805 2.3615 4.24822 0.25
587 5.90767 9.80559 6.06823 0.25
588 3.84922 0.706298 9.54892 0.25
589 10.2947 4.15048 2.22606 0.25
590 8.49063 6.79789 3.44035 0.25
591 3.30275 2.02631 5.43038 0.25
592 6.46702 4.99391 2.79823 0.25
593 5.18047 9.31065 6.021 0.25
594 8.42928 5.94159 0.165676 0.25
595 1.71237 2.10231 7.14158 0.25
596 8.9705 9.65692 1.0769 0.25
597 4.35503 1.16825 3.34016 0.25
598 5.37804 7.24918 0.774126 0.25
599 0.00883543 1.19323 2.16775 0.25
600 3.33892 0.027802 2.14494 0.25
601 7.39469 8.69652 2.12592 0.25
602 5.8243 8.17998 3.37026 0.25
603 2.24425 6.69343 7.66513 0.25
604 9.47702 0.870129 1.08213 0.25
605 2.04429 8.15327 2.51716 0.25
606 2.01452 0.955796 6.69216 0.25
607 2.47412 2.10225 7.54545 0.25
608 6.5895 6.47898 5.61328 0.5
609 4.27486 6.88868 1.76592 0.25
610 6.31862 4.807 1.07694 0.5
611 8.94875 8.64522 7.70628 0.25
612 8.33522 0.485464 3.33423 0.5
613 7.54439 2.07907 0.546233 0.25
614 9.55954 6.64331 0.669363 0.25
615 6.99703 4.06903 8.66872 0.25
616 1.62575 1.31908 6.71469 0.25
617 2.70539 2.83071 8.45678 0.25
618 8.14248 2.2717 0.0321002 0.25
619 0.619633 8.53495 2.38192 0.25
620 6.90682 5.12753 3.04317 0.25
621 6.4643 5.60959 1.7706 0.25
622 7.01698 7.11906 8.87167 0.25
623 8.03859 4.09924 4.94261 0.5
624 5.32705 8.05619 8.18624 0.25
625 5.4129 1.92675 1.36093 0.25
626 2.79131 2.10053 3.96928 0.25
627 7.07836 5.57614 2.9879 0.25
628 1.61518 0.292156 0.387597 0.25
629 6.71272 9.77108 10.1833 0.25
630 6.37123 7.03891 0.591373 0.25
631 7.39432 2.06462 5.01492 0.25
632 3.15362 3.30892 0.203996 0.25
633 2.65244 3.44077 0.107262 0.25
634 4.6395 7.13002 8.61923 0.5
635 9.21491 6.18676 7.54023 0.25
636 8.6648 5.57178 10.3408 0.25
637 6.39002 10.0917 5.00842 0.25
638 2.73145 10.2089 3.93881 0.5
639 6.89795 2.9221 2.43905 0.25
640 8.16237 1.73146 7.86533 0.25
641 3.79264 5.87211 4.43125 0.25
642 3.66915 8.39744 5.39879 0.25
643 3.15303 0.912115 9.96464 0.25
644 5.67486 10.0718 5.41253 0.5
645 2.44642 3.13086 10.1826 0.25
646 8.15825 6.78505 4.5406 0.25
647 5.97301 6.1094 5.94564 0.25
648 7.82049 1.38448 7.77545 0.25
649 4.62093 5.73793 9.30664 0.25
650 7.55426 1.08095 2.60038 0.25
651 4.89746 8.21254 8.4442 0.25
652 1.3765 5.95535 8.63883 0.25
653 0.393942 5.1758 5.12474 0.25
654 2.26565 5.84948 7.28399 0.25
655 10.1077 3.65601 2.08295 0.25
656 4.75897 5.39714 7.2507 0.25
657 8.78943 8.93124 6.04932 0.25
658 7.50575 3.75828 8.02566 0.25
659 8.22645 10.1903 3.67471 0.25
660 1.76867 6.09442 7.75593 0.5
661 2.85591 7.85742 3.11413 0.25
662 7.52764 9.54053 5.61335 0.25
663 3.24915 0.0803427 8.85584 0.25
664 1.26197 2.88613 9.89645 0.25
665 8.38628 7.28478 1.09281 0.25
666 6.5727 0.697499 7.80675 0.25
667 8.31914 1.7645 10.3479 0.25
668 8.26323 1.71963 5.34932 0.25
669 3.55222 7.55031 9.23257 0.5
670 0.0836006 3.54007 9.04773 0.25
671 1.1686 6.54059 4.64498 0.5
672 6.6185 6.93418 5.02464 0.25
673 4.44654 9.57328 1.24545 0.25
674 7.21773 4.87808 5.94882 0.25
675 8.75542 8.67267 8.14219 0.25
676 4.78208 1.53704 1.08086 0.5
677 9.77457 3.88629 7.35488 0.25
678 10.3142 0.675437 6.53882 0.5
679 2.1208 2.35493 7.20154 0.25
680 2.82711 6.82227 2.41613 0.25
681 8.24217 8.8413 7.19719 0.25
682 3.50909 7.19499 5.09185 0.25
683 0.986602 2.40514 9.98536 0.25
684 1.35337 9.22136 7.13683 0.25
685 8.65948 10.1778 3.47175 0.25
686 6.20865 10.1752 5.94898 0.25
687 9.44912 3.52008 7.34218 0.25
688 6.54115 7.16575 0.181335 0.25
689 1.69391 2.82893 4.333 0.25
690 9.80855 8.11144 8.88487 0.25
691 0.548593 8.54653 5.80045 0.25
692 0.693113 4.55784 5.59359 0.25
693 9.43812 2.55206 4.13357 0.25
694 3.4783 3.70069 0.316739 0.25
695 7.58134 2.48585 5.18645 0.25
696 5.51811 1.11263 3.80678 0.25
697 1.26629 8.91218 7.52882 0.25
698 8.74062 6.42836 0.965891 0.25
699 3.44649 7.66571 5.16599 0.25
700 6.65475 7.45181 0.575925 0.25
701 3.30033 4.85851 5.78294 0.25
702 5.74305 3.42806 4.5363 0.25
703 1.45348 9.52275 1.4275 0.25
704 7.99623 4.4279 8.37876 0.25
705 4.19459 5.54851 9.12206 0.25
706 7.7403 0.938066 7.94975 0.25
707 6.03405 5.80825 6.31885 0.25
708 5.51469 6.10072 3.7195 0.25
709 0.714277 4.35897 2.22614 0.5
710 0.485621 5.44661 5.49284 0.25
711 6.99605 3.89212 8.21802 0.25
712 4.06237 8.56561 3.79606 0.25
713 1.69127 4.88041 3.55651 0.25
714 2.36838 10.2643 4.69426 0.25
715 2.71309 3.83709 7.70369 0.25
716 9.81938 9.52814 0.648064 0.25
717 3.75874 5.09818 5.91022 0.25
718 5.71214 3.28463 5.23682 0.5
719 5.47569 2.57279 5.38871 0.25
720 5.7328 0.905863 4.16075 0.25
721 3.44219 7.36134 7.00059 0.25
722 3.92191 5.05728 4.52597 0.25
723 6.89125 6.7449 6.65815 0.25
724 9.77604 0.562084 8.56206 0.25
725 3.71988 0.560329 5.89502 0.25
726 3.55048 5.45188 4.5132 0.25
727 4.31528 5.21473 4.81315 0.25
728 2.06383 7.78239 9.5086 0.5
729 7.76553 1.29299 6.01169 0.25
730 8.19791 1.60588 9.0398 0.25
731 0.814238 5.70323 0.513366 0.25
732 3.61724 7.96255 6.32999 0.25
733 9.74366 2.11663 4.23037 0.25
734 8.70165 6.68321 3.91201 0.25
735 3.41732 2.51229 5.32295 0.25
736 8.84223 6.03599 6.79877 0.25
737 0.887811 4.10071 5.70919 0.25
738 4.99335 7.75211 8.32772 0.25
739 3.45055 3.49463 10.2161 0.25
740 8.22182 7.00657 1.91187 0.25
741 7.06151 2.73162 1.96092 0.25
742 5.06101 2.24975 1.31456 0.25
743 9.59257 1.68501 4.06175 0.25
744 2.33838 2.55259 4.29325 0.5
745 0.683422 3.9845 6.13448 0.25
746 6.31027 5.14416 1.7496 0.25
747 8.66254 3.30907 9.42987 0.25
748 6.40035 9.8557 9.86621 0.25
749 7.75236 4.09819 8.70813 0.25
750 4.05042 2.46419 6.44491 0.25
751 1.46489 2.95554 4.79193 0.25
752 9.49918 2.13384 3.814 0.25
753 0.686646 3.399 9.998 0.5
754 7.26674 1.28547 5.97178 0.25
755 7.67979 2.30417 0.135965 0.25
756 4.90214 1.57298 0.292978 0.25
757 0.0632318 2.13481 4.51677 0.5
758 2.22637 9.80046 4.8664 0.25
759 5.41225 2.99788 7.54516 0.25
760 5.58748 0.416242 3.26167 0.25
761 6.80533 6.39986 6.335 0.25
762 0.0428968 3.99494 6.57763 0.25
763 7.24647 4.75896 5.15262 0.5
764 5.27147 5.67051 4.38661 0.25
765 7.48953 6.48009 8.8143 0.25
766 1.63127 5.21836 3.20711 0.25
767 6.84213 2.76366 2.94553 0.25
768 4.92621 2.2727 5.80272 0.5
769 0.305641 2.85967 9.72681 0.25
770 6.06094 6.48979 6.60746 0.5
771 6.23692 7.53364 0.329567 0.25
772 6.90129 9.60164 5.31856 0.5
773 6.1748 4.25369 0.120018 0.25
774 6.73024 8.26507 2.97117 0.25
775 10.2607 7.86846 9.01137 0.25
776 4.313 9.19137 0.448071 0.25
777 0.787241 8.14139 2.58528 0.25
778 4.4329 0.00626941 7.97216 0.25
779 10.0307 7.7701 8.5759 0.25
780 4.93896 4.35187 9.74171 0.25
781 5.20056 6.43892 3.81253 0.25
782 9.24441 6.49223 1.00132 0.25
783 4.33284 8.25751 3.54933 0.25
784 3.35934 3.01279 10.2474 0.25
785 9.35801 8.99379 7.74823 0.25
786 6.17376 6.93512 5.11995 0.25
787 6.99504 7.04448 5.34697 0.25
788 5.61641 0.652794 3.70867 0.25
789 6.54433 5.46577 2.86832 0.25
790 4.86768 2.02626 6.52106 0.25
791 8.92393 6.2606 6.33798 0.25
792 4.00559 3.40961 2.98204 0.5
793 0.531189 0.362994 9.20795 0.25
794 1.91925 1.79209 1.39008 0.25
795 1.62217 8.60685 7.65936 0.25
796 1.61333 10.1553 4.67062 0.5
797 9.28769 8.90961 3.58858 0.25
798 8.8631 5.16493 3.6846 0.25
799 3.46895 6.82663 1.91426 0.5
800 0.187591 1.16975 1.40725 0.25
801 6.52692 10.2528 10.0908 0.25
802 5.56364 7.08158 0.335554 0.25
803 9.35302 5.35321 9.84908 0.25
804 5.21828 5.35666 7.28807 0.25
805 9.12381 4.63978 4.51781 0.25
806 2.64873 9.36556 8.01425 0.25
807 3.5676 4.6786 6.18249 0.25
808 9.08957 5.70882 10.0669 0.25
809 1.21868 5.43333 9.75796 0.25
810 8.15193 1.45364 6.3055 0.25
811 9.12843 4.9404 9.94386 0.25
812 3.84562 6.17484 1.81701 0.25
813 1.12017 3.81432 1.95553 0.25
814 2.06815 0.0277318 0.512089 0.25
815 3.65027 5.10804 5.16858 0.5
816 6.68204 10.1505 0.158863 0.25
817 3.80164 9.50268 0.975318 0.5
818 8.54062 6.43295 0.0442041 0.25
819 3.83501 5.76743 1.62966 0.25
820 7.80437 4.0321 7.71068 0.25
821 8.60175 8.33355 7.80448 0.25
822 4.74806 2.95715 2.05643 0.25
823 2.03146 9.26764 7.49888 0.5
824 7.04943 4.57953 7.50107 0.25
825 7.99739 9.14698 5.9636 0.5
826 6.46272 2.62421 2.61348 0.25
827 8.86834 6.34481 7.26056 0.25
828 9.13963 3.8874 1.40151 0.25
829 0.910332 7.29779 4.78816 0.25
830 4.20499 6.08394 1.38891 0.25
831 2.79691 7.15825 2.00768 0.25
832 4.07526 5.18598 8.82418 0.25
833 6.81731 7.27078 6.62248 0.25
834 8.81824 4.89226 4.80064 0.25
835 1.4544 1.33129 7.17584 0.25
836 6.73716 5.26291 1.54202 0.25
837 3.8991 7.39872 8.57719 0.25
838 2.78321 10.0233 7.42613 0.25
839 10.2547 2.86877 4.45185 0.25
840 9.01303 4.63447 3.68929 0.25
841 5.58956 4.56388 10.2041 0.5
842 7.23891 6.77244 9.11236 0.25
843 0.524076 8.92457 2.11374 0.25
844 6.31902 5.46155 1.3193 0.25
845 8.97947 4.18097 4.38829 0.25
846 1.29113 5.87345 4.40051 0.25
847 8.93058 3.45739 9.87879 0.25
848 3.10482 0.737267 9.22946 0.5
849 6.84757 5.79996 2.59297 0.25
850 4.72506 8.42068 4.34551 0.25
851 4.06254 6.54211 1.52551 0.25
852 5.38461 1.33759 4.18593 0.25
853 8.25327 9.95505 4.15133 0.25
854 2.19856 3.55604 7.70436 0.25
855 3.41281 5.97691 1.74259 0.25
856 9.85536 3.47768 7.60998 0.25
857 6.3466 3.69896 5.07796 0.25
858 8.58703 7.77002 4.35309 0.25
859 9.67126 1.57934 1.55355 0.25
860 1.18631 0.100158 4.12188 0.25
861 3.07886 10.1358 1.80474 0.25
862 7.77012 1.50872 8.48552 0.5
863 0.982803 2.77745 10.2441 0.25
864 3.45046 3.85148 2.57124 0.25
865 0.576271 7.28298 5.26788 0.25
866 3.37438 1.43344 9.29661 0.25
867 3.61328 7.79043 10.0096 0.25
868 9.72773 1.06913 1.51547 0.25
869 1.24256 8.50047 5.24937 0.25
870 7.09129 6.65275 8.68114 0.25
871 6.60346 2.65289 2.07407 0.25
872 8.45647 1.01712 7.96654 0.5
873 5.67667 10.2096 6.14899 0.25
874 6.42719 10.1262 5.45764 0.25
875 3.82274 6.91268 5.33842 0.25
876 3.70423 6.16387 1.35509 0.25
877 0.370284 2.36245 3.89254 0.25
878 0.445941 0.666421 8.83415 0.25
879 0.518485 8.14131 5.56373 0.25
880 5.96944 3.98351 5.09832 0.25
881 4.30675 6.30596 8.97627 0.5
882 9.73137 0.49158 5.71616 0.25
883 5.40927 2.85717 5.78634 0.25
884 2.51024 1.39588 1.61043 0.5
885 9.73619 9.04254 3.73288 0.25
886 9.38904 9.38755 0.90102 0.25
887 1.49155 6.12272 7.05094 0.25
888 0.694071 9.34929 0.868892 0.25
889 4.42051 5.15779 7.49812 0.25
890 0.348627 4.27193 6.32383 0.25
891 3.6156 4.10692 2.925 0.25
892 6.6275 8.61683 3.34901 0.25
893 7.96133 2.32362 0.533972 0.25
894 1.84968 7.79901 10.2731 0.25
895 10.2658 3.62571 7.35636 0.25
896 9.95814 1.34191 1.94378 0.25
897 3.37166 7.80264 6.78649 0.25
898 0.976307 5.51391 4.88192 0.5
899 0.0217599 0.991294 5.87529 0.25
900 9.91575 6.10042 3.74852 0.25
901 0.787768 8.06502 5.98387 0.25
902 5.49989 1.61657 0.95151 0.25
903 8.29481 7.5455 4.65533 0.25
904 1.84817 5.40783 10.1638 0.5
905 9.65782 1.3547 1.10362 0.25