ITEM: TIMESTEP
900000
ITEM: NUMBER OF ATOMS
1000
ITEM: BOX BOUNDS xy xz yz pp pp pp
0.0000000000000000e+00 1.0357442000000001e+01 0.0000000000000000e+00
0.0000000000000000e+00 1.0357442000000001e+01 0.0000000000000000e+00
0.0000000000000000e+00 1.0357442000000001e+01 0.0000000000000000e+00
ITEM: ATOMS id x y z radius
1 1.42097 4.32586 2.99554 0.5
2 1.8857 7.71548 2.54749 0.5
3 5.13328 2.11544 1.36005 0.25
4 0.580104 2.49548 4.55595 0.25
5 9.53603 2.81375 6.8844 0.25
6 0.35251 3.19403 9.74239 0.25
7 4.44297 0.813037 3.13684 0.25
8 9.16648 4.36998 1.89484 0.25
9 9.68722 1.42456 1.83539 0.25
10 9.04555 7.387 4.60831 0.25
11 9.16553 9.22165 0.96878 0.25
12 8.29403 2.56373 9.7916 0.25
13 3.73677 7.88352 6.15102 0.25
14 5.19003 1.88771 0.180018 0.25
15 9.08648 5.83769 6.1644 0.25
16 8.44238 8.39868 6.6652 0.25
17 5.11867 9.1467 8.28294 0.5
18 2.91382 8.3539 10.0527 0.25
19 7.24554 4.47251 5.01523 0.25
20 9.19725 0.790417 1.34455 0.25
21 0.467983 10.1616 9.51267 0.25
22 4.24581 1.04987 3.52098 0.25
23 4.70265 3.72374 3.19268 0.25
24 2.7706 2.57672 4.11712 0.25
25 6.89535 1.66521 5.78667 0.25
26 5.36766 2.9429 8.44703 0.25
27 1.75627 8.29263 10.1588 0.25
28 9.36614 6.12409 6.43242 0.25
29 3.76312 7.87012 5.65455 0.25
30 1.3209 8.38287 7.64276 0.25
31 1.44176 7.24954 5.02973 0.25
32 9.05515 6.79946 1.18766 0.25
33 8.95176 8.77043 1.03019 0.25
34 1.09861 2.79729 9.62939 0.25
35 8.11012 2.16221 10.0389 0.25
36 8.46883 8.76888 9.35802 0.25
37 4.2616 4.75144 5.65261 0.25
38 7.27935 0.281636 0.680202 0.25
39 6.23295 4.20752 5.29113 0.25
40 8.74401 4.40275 4.46401 0.25
41 9.28883 7.06689 3.83036 0.25
42 6.39597 8.55563 2.36327 0.5
43 0.226617 8.45424 5.62109 0.25
44 3.16161 9.76573 4.87537 0.25
45 6.95638 6.70639 8.20748 0.25
46 0.998985 8.76066 7.75664 0.25
47 4.12223 8.43265 3.68738 0.25
48 2.93014 9.49023 5.21506 0.25
49 4.44627 5.90519 9.37758 0.25
50 9.91179 9.58387 4.04687 0.25
51 9.81033 8.97006 1.94975 0.25
52 6.39937 7.19959 0.630594 0.25
53 6.75455 5.493 1.72693 0.25
54 4.8831 4.92476 8.17497 0.25
55 5.78152 6.24319 6.57085 0.25
56 5.09792 1.32038 1.03488 0.25
57 4.92837 2.12789 0.589335 0.25
58 6.42716 4.03481 0.544343 0.25
59 3.86168 8.02762 8.97072 0.25
60 7.06304 7.11999 7.99963 0.25
61 2.98204 0.00701844 8.83214 0.25
62 9.52901 5.90136 6.91157 0.25
63 0.650259 5.53471 4.89425 0.25
64 10.1594 1.49365 1.736 0.25
65 5.86822 7.07188 6.27116 0.25
66 4.16595 0.534843 3.27894 0.25
67 9.1281 4.98096 9.09647 0.25
68 6.23584 0.103044 10.2822 0.25
69 2.04638 7.40341 3.27723 0.25
70 4.20096 5.90604 3.89431 0.25
71 1.00865 8.23717 2.15297 0.25
72 5.4881 6.50108 3.55865 0.25
73 9.05851 8.61695 7.32001 0.5
74 2.23486 7.12894 2.48731 0.25
75 0.957297 6.00332 0.939018 0.25
76 2.04401 8.21288 0.227035 0.25
77 7.02459 7.15155 8.49939 0.25
78 3.60455 9.61513 1.35602 0.25
79 0.947854 5.61524 9.90271 0.25
80 8.68487 9.12853 9.63088 0.25
81 8.69053 9.58352 7.20919 0.25
82 2.19113 0.396341 1.63698 0.25
83 1.0503 8.35607 2.63362 0.25
84 5.08125 9.32793 5.52085 0.25
85 3.39595 6.22495 1.35578 0.25
86 9.78812 3.50971 1.88239 0.5
87 1.59698 5.36915 8.62297 0.25
88 3.04818 3.86922 7.88687 0.25
89 0.507399 0.0195677 9.94632 0.25
90 7.00816 10.1491 1.62246 0.5
91 4.19717 8.92118 3.69539 0.25
92 9.64127 1.38303 1.0233 0.25
93 8.3645 0.956648 8.29025 0.25
94 0.86602 3.97339 2.53556 0.25
95 7.64768 8.9077 5.78036 0.25
96 7.7864 1.35154 6.90357 0.25
97 5.45072 9.66278 5.48051 0.25
98 0.0898758 0.174781 6.20413 0.25
99 5.30128 2.17085 8.21289 0.5
100 5.41156 2.86006 5.21895 0.25
101 5.17229 2.18548 9.73359 0.5
102 4.22897 5.24862 8.53072 0.5
103 7.42218 10.31 1.04149 0.25
104 1.17976 9.86968 9.90482 0.25
105 1.88025 4.82715 3.23791 0.25
106 6.55403 6.57695 6.48206 0.25
107 5.70961 10.1853 8.42519 0.25
108 1.88546 3.72453 2.00088 0.25
109 7.39813 2.16974 2.19228 0.25
110 5.48673 10.0003 5.8029 0.25
111 1.65181 5.55475 0.485616 0.25
112 3.83326 5.01612 5.4515 0.25
113 1.81787 0.220285 4.56283 0.25
114 8.60268 6.38798 10.3437 0.25
115 4.09801 3.11218 2.34996 0.25
116 0.144943 1.97168 3.49249 0.25
117 7.09471 2.57959 2.80744 0.5
118 6.78151 7.97651 2.61623 0.25
119 10.03 2.55753 4.43937 0.25
120 1.62436 5.55538 0.00715679 0.25
121 7.28132 1.99042 5.19914 0.5
122 1.73544 4.71529 2.45889 0.25
123 9.99908 9.02834 1.18011 0.25
124 8.48548 6.4632 0.43405 0.25
125 1.72417 9.78788 4.48289 0.25
126 6.2475 7.60908 0.365438 0.25
127 6.02263 7.19346 0.250041 0.25
128 8.95432 9.79939 4.11813 0.25
129 1.55951 4.79532 3.60429 0.25
130 10.0906 8.76783 1.6231 0.25
131 6.95364 2.28318 2.0697 0.25
132 8.58619 4.82706 4.37286 0.25
133 8.26182 9.20038 9.38428 0.25
134 5.08607 3.4192 3.17308 0.25
135 6.10757 9.46203 8.4 0.5
136 8.47691 9.1432 7.1443 0.25
137 1.2423 9.69852 1.96842 0.25
138 7.28356 4.12568 4.69509 0.25
139 7.16646 4.72815 7.62003 0.5
140 4.36103 8.63018 3.3014 0.25
141 2.90452 1.44663 1.75736 0.25
142 2.90178 2.89218 4.91849 0.25
143 7.53704 1.63248 3.01593 0.25
144 9.7981 6.60714 2.33816 0.25
145 3.32378 7.85696 5.9444 0.25
146 7.27438 9.1329 2.84286 0.25
147 3.68857 5.89187 3.78726 0.25
148 3.24098 1.60772 10.2321 0.25
149 0.267442 8.06627 9.02964 0.25
150 4.47489 4.93838 7.87106 0.25
151 6.84756 9.79205 9.88775 0.25
152 4.02732 9.9524 1.34368 0.25
153 5.42357 1.67358 7.50448 0.25
154 5.61847 9.37297 7.83042 0.25
155 4.33168 5.92018 1.36813 0.25
156 0.920272 8.49264 7.34385 0.25
157 5.52746 0.789614 4.07749 0.25
158 8.70644 9.1593 6.38404 0.25
159 3.33962 2.7148 5.20528 0.25
160 2.72422 3.4916 7.87373 0.25
161 2.89364 0.0904285 9.33354 0.25
162 3.94707 2.06942 5.8559 0.5
163 6.69656 10.0702 2.27613 0.25
164 5.0316 8.43164 8.23903 0.25
165 0.784356 3.09562 9.47963 0.25
166 7.15083 3.91707 6.83793 0.25
167 8.78043 10.2262 3.9448 0.25
168 9.89189 7.89372 9.38077 0.25
169 9.53915 6.6499 7.33952 0.25
170 3.58532 0.192315 8.25584 0.25
171 1.17216 8.69983 6.94392 0.25
172 9.54628 5.80958 7.44044 0.25
173 0.627531 1.42565 4.11997 0.25
174 4.59972 2.0595 5.97142 0.25
175 9.17965 3.13896 6.84391 0.25
176 1.11591 6.44859 0.948254 0.25
177 9.09957 5.95092 7.60335 0.25
178 7.33651 1.26344 5.03253 0.25
179 2.65829 9.50259 7.80351 0.25
180 7.24244 8.91853 2.15042 0.5
181 1.08231 4.04059 5.86775 0.25
182 7.26376 1.97365 2.99881 0.25
183 2.47777 9.52664 4.53489 0.25
184 9.07483 5.27715 9.52366 0.25
185 8.67914 8.66593 6.30532 0.25
186 2.7696 7.49256 9.84572 0.25
187 3.72809 3.82686 0.222773 0.25
188 5.12985 2.59018 7.63 0.25
189 0.0303929 0.465718 5.83821 0.25
190 1.98927 7.09057 2.91764 0.25
191 5.26842 2.6963 9.22488 0.25
192 8.94784 9.24266 6.8882 0.25
193 5.27948 2.23704 8.96776 0.25
194 3.88073 9.56509 0.990373 0.25
195 5.15562 4.91611 10.0249 0.25
196 5.18103 2.3791 0.153296 0.25
197 8.77559 6.09165 6.85426 0.5
198 7.19446 1.79854 7.01002 0.5
199 6.84614 10.2385 9.7966 0.25
200 7.23338 0.778227 6.47958 0.25
201 6.06593 6.64225 6.59692 0.25
202 3.73414 7.58647 5.28477 0.25
203 4.63087 9.12588 0.453835 0.25
204 0.449567 3.49833 6.41641 0.25
205 4.12957 0.230787 6.70352 0.25
206 0.53279 1.74624 3.70958 0.25
207 1.19075 5.40574 3.92471 0.5
208 4.07055 4.50226 6.10571 0.25
209 7.33022 9.5441 2.5531 0.25
210 3.67862 0.393087 6.4833 0.25
211 1.32539 4.96318 2.6582 0.25
212 0.403136 3.91582 1.9055 0.5
213 9.52471 4.1989 2.23425 0.25
214 3.44991 4.92073 5.789 0.25
215 10.054 0.772597 8.56209 0.25
216 5.60364 1.66424 0.341464 0.25
217 0.394638 8.00118 5.77446 0.25
218 2.21174 1.37061 2.12468 0.5
219 0.93957 4.21063 6.32853 0.25
220 6.60907 9.22996 2.05186 0.25
221 8.70778 7.63014 4.37488 0.25
222 9.54156 6.42083 6.83701 0.25
223 5.47329 9.23316 5.21092 0.25
224 10.0188 3.07151 6.89763 0.25
225 7.81566 1.7971 5.60911 0.25
226 6.43521 8.89718 5.33141 0.25
227 6.92849 0.0391256 0.901476 0.25
228 4.79101 2.33092 1.04981 0.25
229 2.81144 2.32964 1.93734 0.25
230 8.91052 7.39851 3.63914 0.25
231 7.86215 3.79952 7.53475 0.25
232 6.95073 9.60597 2.165 0.25
233 8.05525 1.98408 9.2705 0.5
234 4.45656 9.2484 1.53388 0.25
235 0.92586 8.96784 7.28705 0.25
236 1.3812 5.18006 0.665941 0.25
237 7.44944 1.82375 3.46236 0.25
238 1.0246 5.45986 4.62315 0.25
239 0.338983 3.09851 10.2251 0.25
240 1.4145 8.96818 2.30708 0.5
241 1.7645 9.60746 2.04381 0.25
242 2.99515 7.59123 6.27404 0.25
243 1.76564 5.80931 0.866197 0.25
244 1.53584 1.0618 6.54233 0.25
245 5.56266 6.62753 6.44293 0.25
246 2.20503 8.1017 10.1464 0.25
247 2.40934 7.77358 3.14771 0.25
248 5.56216 2.5722 8.766 0.25
249 6.99829 4.05977 5.129 0.25
250 7.4139 1.30275 6.54086 0.25
251 0.809279 1.72031 6.76426 0.25
252 7.23074 6.93945 9.42392 0.25
253 4.29241 7.26735 8.87111 0.25
254 1.0192 10.0207 2.23329 0.25
255 2.04173 0.716628 2.00897 0.25
256 3.5683 5.0965 3.99621 0.25
257 0.947638 10.3188 9.68831 0.25
258 4.45636 5.56636 7.28933 0.25
259 1.5757 10.1956 4.26695 0.25
260 0.523945 10.0523 10.3384 0.25
261 7.42229 7.38473 8.30869 0.25
262 5.76487 6.13898 3.3526 0.25
263 8.59878 8.66074 9.79677 0.25
264 7.61394 9.38844 9.71128 0.5
265 4.55885 3.88115 2.3812 0.25
266 4.10047 3.9884 2.20869 0.25
267 4.15902 7.67254 5.9402 0.25
268 3.47592 7.51999 6.30752 0.25
269 7.2476 9.26762 6.40095 0.25
270 3.97092 7.49833 6.39297 0.25
271 3.69036 9.18667 1.28462 0.25
272 6.1489 6.70295 5.1303 0.25
273 10.162 3.68945 7.48596 0.25
274 3.6039 4.607 6.12598 0.25
275 9.93585 6.17203 2.50238 0.25
276 8.19608 0.902785 8.85592 0.25
277 2.97026 10.0579 8.14186 0.5
278 4.62303 5.98155 8.55414 0.25
279 2.68484 0.299639 8.52306 0.25
280 3.27473 0.297829 9.54554 0.25
281 4.14551 7.9043 3.60846 0.25
282 5.27618 0.727009 3.24415 0.25
283 9.73645 0.444694 9.24486 0.25
284 1.54398 5.12026 0.215804 0.25
285 8.60534 6.91592 1.1697 0.25
286 10.0472 1.44711 2.19496 0.25
287 1.18655 7.90538 2.47759 0.25
288 1.16194 5.66869 5.06679 0.25
289 8.87424 1.19635 1.36761 0.25
290 8.77733 4.03518 1.70088 0.25
291 7.785 2.47345 9.89277 0.25
292 4.07183 9.47059 1.43935 0.25
293 4.89131 2.5662 6.91957 0.5
294 10.2517 6.52828 2.46825 0.25
295 7.29432 0.826648 7.14265 0.5
296 2.87036 2.91313 4.41677 0.25
297 0.27057 8.04214 5.27632 0.25
298 4.00519 9.71331 0.530712 0.25
299 9.42813 5.11401 9.86274 0.25
300 2.48563 10.0515 4.56298 0.25
301 4.95164 8.09265 7.87034 0.25
302 4.98957 4.95229 7.66027 0.25
303 9.05863 5.79704 10.1147 0.5
304 4.40071 2.98387 2.74851 0.25
305 1.46318 8.25952 2.39019 0.25
306 10.3093 8.15739 9.39616 0.25
307 0.679897 9.94317 9.90397 0.25
308 9.22059 5.64539 6.58759 0.25
309 7.93232 1.68297 8.60446 0.25
310 6.16692 7.2365 5.93293 0.25
311 1.724 0.57682 1.63655 0.25
312 8.96164 1.0819 8.66406 0.5
313 1.91823 8.47692 2.5042 0.25
314 0.991679 3.56946 2.24548 0.25
315 2.9319 0.791839 9.05982 0.5
316 6.93194 4.34825 6.9781 0.25
317 6.15689 10.1858 8.577 0.25
318 10.1551 7.77749 9.75023 0.25
319 9.7914 10.0089 4.26241 0.25
320 0.932832 2.32064 0.0208023 0.25
321 2.83234 1.84879 1.9886 0.25
322 1.50262 6.72704 4.97623 0.25
323 6.36632 10.07 9.23413 0.5
324 7.60551 2.18546 3.19219 0.25
325 9.2444 3.95648 1.51292 0.25
326 2.92667 9.99007 5.23865 0.25
327 1.73286 8.55732 7.46965 0.25
328 4.56377 3.33883 2.49024 0.25
329 8.65782 6.90692 4.2057 0.5
330 9.67657 5.98279 2.10767 0.25
331 9.08347 0.111038 4.19431 0.25
332 6.60252 7.71503 0.0476739 0.25
333 9.92514 7.6012 8.99112 0.25
334 6.98548 5.13765 1.38575 0.25
335 5.92121 4.27441 0.630714 0.25
336 9.62302 4.13135 1.77178 0.25
337 4.88777 5.64238 8.72296 0.25
338 6.98565 8.18541 2.1689 0.25
339 4.12146 5.92526 8.60918 0.25
340 1.04088 2.73782 10.1641 0.25
341 3.41395 5.56455 4.05898 0.25
342 9.63939 3.62396 7.33485 0.25
343 9.9999 1.95804 3.72124 0.25
344 4.57763 0.271884 3.24102 0.25
345 6.43636 4.14749 10.3571 0.25
346 2.09587 1.892 7.33218 0.25
347 3.07978 4.07834 10.0785 0.25
348 5.79646 7.65358 0.262675 0.25
349 4.95799 1.75884 7.71499 0.25
350 2.9272 3.14807 7.60253 0.25
351 4.98207 6.50811 3.46746 0.25
352 8.27456 6.6063 1.31055 0.25
353 9.97507 3.26295 7.3802 0.25
354 9.88328 3.46585 1.14483 0.25
355 1.78239 1.68266 1.60406 0.25
356 4.41127 9.9206 0.302258 0.25
357 3.31634 4.45255 5.74172 0.25
358 4.31488 9.42869 0.234202 0.25
359 8.9172 6.99774 0.518571 0.5
360 3.77873 0.485367 6.96309 0.25
361 0.117303 0.671344 6.34874 0.25
362 9.97245 7.42917 9.4477 0.25
363 7.26914 2.67686 2.08009 0.25
364 9.41997 6.30008 2.38848 0.25
365 5.93689 9.04753 5.12123 0.25
366 9.18494 3.91514 2.00474 0.25
367 3.59826 0.426093 8.7163 0.25
368 9.51044 6.25954 7.70392 0.25
369 9.31956 4.75389 4.55325 0.5
370 4.74298 1.68699 7.05917 0.5
371 9.52973 6.55103 1.66527 0.5
372 1.0771 2.10294 4.15663 0.5
373 3.48731 10.2774 8.64724 0.25
374 3.3245 0.189374 9.03758 0.25
375 5.48894 0.446163 3.62209 0.25
376 0.648882 5.6411 4.41603 0.25
377 0.0112692 7.70159 9.24547 0.25
378 9.91906 9.30564 1.59717 0.25
379 0.307965 3.7603 6.01781 0.25
380 1.68897 2.43155 4.58474 0.25
381 7.17053 5.02523 2.20062 0.5
382 2.29872 7.71819 9.87599 0.25
383 5.41717 8.50972 8.55042 0.25
384 1.35143 6.54727 7.635 0.25
385 1.08529 6.87447 5.215 0.25
386 1.71684 5.47867 7.77255 0.25
387 1.26524 5.76033 7.76344 0.25
388 2.29069 2.48479 1.82454 0.25
389 5.5532 1.37701 0.774774 0.25
390 3.53708 4.23662 10.3012 0.25
391 4.09735 0.440223 6.23011 0.25
392 0.757844 5.76794 5.35346 0.25
393 8.90196 8.41234 6.61933 0.25
394 10.2538 0.307987 6.65088 0.25
395 2.0848 4.66039 2.81647 0.25
396 2.82762 0.459692 9.73041 0.25
397 7.55994 2.02774 2.63282 0.25
398 9.96813 4.8483 9.18195 0.25
399 2.56142 9.84647 7.48846 0.25
400 8.40053 2.94754 10.1026 0.25
401 5.32101 6.29903 3.09651 0.25
402 4.46094 5.74857 8.93487 0.25
403 5.9681 4.75278 0.577201 0.25
404 7.66092 3.63923 9.7319 0.25
405 1.33319 5.65816 0.862529 0.25
406 6.32817 9.31938 5.19554 0.25
407 7.4848 7.07161 8.72046 0.25
408 9.51089 8.85476 1.01934 0.25
409 10.1778 6.79995 2.09201 0.25
410 4.65183 1.78576 3.84899 0.25
411 8.07846 9.12205 10.229 0.25
412 4.81896 2.22969 7.63743 0.25
413 7.66777 2.49999 2.39415 0.25
414 7.22517 5.67554 2.57165 0.25
415 4.80896 0.693179 3.82152 0.5
416 10.1356 0.71065 9.04925 0.25
417 3.57062 7.14445 5.82858 0.5
418 0.718921 1.04194 6.51311 0.5
419 8.96021 0.269066 3.73609 0.25
420 5.51523 8.57353 8.06375 0.25
421 9.1771 6.66898 7.05647 0.25
422 2.6818 7.40774 2.51013 0.25
423 1.74933 5.08114 2.8389 0.25
424 0.106655 0.125812 9.6031 0.25
425 2.34258 0.198109 4.36741 0.25
426 1.92864 2.07405 1.88515 0.25
427 6.9634 1.18947 6.48017 0.25
428 7.41499 9.65267 2.08208 0.25
429 5.43424 8.90372 7.6576 0.25
430 10.1041 9.56348 3.62391 0.25
431 6.72636 0.413495 1.21698 0.25
432 3.08634 7.85689 9.90306 0.25
433 2.92134 2.49647 5.21765 0.25
434 5.77643 10.0157 8.80907 0.25
435 10.3161 3.08062 9.97096 0.25
436 6.49349 4.62566 10.2535 0.25
437 0.693336 6.34002 0.102379 0.25
438 7.70478 0.968998 6.52038 0.25
439 9.43982 10.0184 3.63901 0.5
440 2.23165 2.93392 7.79274 0.5
441 1.28902 3.75699 2.57686 0.25
442 6.34237 7.65553 0.845003 0.25
443 9.45257 9.60794 4.18801 0.25
444 1.48458 3.49276 2.18454 0.25
445 5.28307 6.79459 3.20877 0.25
446 8.45204 4.33304 4.07831 0.25
447 6.42156 4.86717 0.348514 0.25
448 4.91318 1.36863 3.30053 0.5
449 0.438632 0.335655 6.4977 0.25
450 1.66162 1.12469 1.61864 0.25
451 3.06582 4.01674 0.596544 0.25
452 5.99851 4.57104 5.00663 0.25
453 7.07364 4.60802 8.3299 0.25
454 1.4305 5.84838 8.64571 0.25
455 1.09946 5.88641 8.25535 0.25
456 2.41467 2.05675 2.07555 0.25
457 9.06744 9.12919 1.66811 0.5
458 1.63762 5.81196 7.4099 0.25
459 1.02086 1.47498 7.06549 0.25
460 2.07555 5.9372 7.31024 0.25
461 3.93181 5.55277 1.31967 0.25
462 3.51471 5.75022 1.52788 0.25
463 1.72139 10.1705 4.81028 0.25
464 9.89367 1.22019 1.42458 0.25
465 6.93617 5.69094 2.13828 0.25
466 4.82896 5.62622 7.94012 0.5
467 3.40085 5.24112 5.38677 0.25
468 2.03835 1.2987 1.38448 0.25
469 4.65913 3.36397 3.49411 0.25
470 4.68466 4.10606 2.89582 0.25
471 2.90119 9.39117 4.67268 0.25
472 1.6345 2.56366 7.63258 0.25
473 2.68458 7.82564 9.51297 0.25
474 9.05151 3.58389 1.65362 0.25
475 8.05604 6.90485 3.74134 0.25
476 3.671 6.21292 1.72969 0.25
477 9.62871 9.30096 3.78309 0.25
478 8.8022 6.15932 1.00136 0.5
479 7.19 0.405232 1.12805 0.25
480 2.64018 8.02731 9.93524 0.25
481 4.39771 9.74606 1.71471 0.25
482 6.32747 9.75664 5.45458 0.25
483 6.87335 10.3266 0.138471 0.5
484 9.60353 3.21916 7.07474 0.25
485 7.82232 3.22646 9.56893 0.25
486 4.50312 8.18715 3.43321 0.25
487 3.47718 3.79115 10.1235 0.25
488 6.8581 9.43543 1.67807 0.25
489 8.10989 7.22475 4.68239 0.25
490 2.26125 3.62841 7.80884 0.25
491 8.66989 8.86436 6.77585 0.25
492 8.09068 2.60107 10.278 0.25
493 9.41252 3.60376 6.83501 0.25
494 8.64368 4.71419 4.85108 0.25
495 9.6233 3.1623 6.60707 0.25
496 4.52463 1.68841 6.23869 0.25
497 2.76001 3.96289 0.100124 0.25
498 8.35186 1.35176 9.08406 0.25
499 4.13683 9.11063 1.0928 0.25
500 4.10005 7.62364 9.1462 0.25
501 2.93094 10.1689 4.77743 0.25
502 9.19246 5.65638 7.1557 0.25
503 6.72694 8.35181 2.97635 0.25
504 6.54352 7.26165 0.188289 0.25
505 7.39109 1.09259 5.83255 0.5
506 5.37741 10.0886 5.29767 0.25
507 7.04883 8.364 2.60981 0.25
508 4.5702 8.70454 8.35948 0.25
509 1.22712 9.18727 7.62767 0.25
510 5.75868 4.31008 5.31795 0.25
511 4.0439 0.768278 6.65402 0.25
512 1.04674 4.8168 3.48098 0.25
513 1.31491 5.26036 10.0861 0.25
514 3.4841 1.86537 5.20103 0.25
515 1.39788 2.07938 7.18505 0.5
516 5.87963 9.2975 5.81684 0.5
517 7.96788 7.11533 4.20526 0.25
518 2.65557 0.948193 9.77964 0.25
519 2.8704 9.81932 4.43788 0.25
520 5.25413 2.12785 7.44352 0.25
521 1.36041 4.39848 5.58853 0.25
522 1.90927 0.131581 4.08681 0.25
523 2.89359 3.1762 8.19683 0.25
524 7.71011 1.57733 4.81101 0.25
525 1.83262 6.72498 7.53423 0.25
526 1.89386 5.73414 8.64472 0.25
527 6.61324 9.51779 2.76656 0.5
528 7.41776 8.64342 2.75779 0.25
529 3.94327 6.67513 1.82715 0.25
530 1.80496 8.31835 2.02863 0.25
531 10.3479 3.06029 9.44761 0.25
532 1.83671 7.90331 9.8673 0.25
533 8.71813 9.81209 3.74078 0.25
534 8.83582 4.59356 3.97577 0.25
535 6.9831 6.61558 9.14541 0.25
536 4.13818 9.22236 0.596094 0.25
537 6.7757 1.98049 3.11944 0.25
538 7.68863 4.18061 7.86614 0.25
539 10.1255 3.74628 6.74129 0.5
540 6.10107 10.1315 8.05627 0.25
541 9.66929 8.91671 1.48601 0.25
542 7.32286 8.87329 6.14177 0.25
543 9.474 4.04354 4.22024 0.25
544 1.78581 1.61435 7.63273 0.25
545 10.2031 9.95503 3.89715 0.25
546 10.3246 1.19585 6.37504 0.25
547 9.72738 3.96826 1.34021 0.25
548 9.4867 4.70478 9.14463 0.25
549 2.53146 0.760576 1.79274 0.25
550 9.59493 9.32208 1.21581 0.25
551 2.53722 7.32139 3.38773 0.25
552 9.09292 8.86803 6.55816 0.25
553 5.60922 2.91025 5.69439 0.25
554 9.00857 4.19971 4.11334 0.25
555 5.85975 8.94843 7.94299 0.25
556 1.3712 9.13661 7.1251 0.25
557 3.04045 9.65037 7.47595 0.25
558 2.64739 3.94012 7.59893 0.25
559 9.66167 1.06173 8.47297 0.25
560 3.80042 4.56712 5.67053 0.25
561 1.17991 3.64368 1.795 0.25
562 5.53388 5.14336 9.75238 0.25
563 5.6033 9.862 8.0639 0.25
564 1.72273 1.52131 6.71829 0.25
565 2.12347 0.879619 1.54705 0.25
566 9.79723 6.23654 7.2531 0.25
567 1.40651 6.07696 1.05961 0.25
568 7.7302 1.44123 5.29607 0.25
569 7.08904 3.80359 7.54577 0.5
570 4.68812 3.27044 3.0153 0.25
571 4.28901 4.26953 2.58826 0.25
572 8.43874 1.72048 8.65454 0.25
573 0.633356 6.93917 4.94497 0.25
574 0.233637 0.909415 5.99225 0.25
575 5.90267 3.83578 4.51908 0.25
576 4.92345 1.83445 0.991868 0.25
577 0.416375 7.81816 4.81915 0.25
578 0.863923 5.59772 0.276372 0.5
579 4.96782 5.33735 7.24378 0.25
580 8.4661 6.7138 3.53505 0.25
581 7.60409 6.59271 8.63105 0.25
582 7.50937 4.05767 5.14627 0.25
583 8.76901 5.53107 6.38263 0.25
584 5.66976 6.96835 3.44756 0.25
585 6.87854 0.51157 0.72233 0.25
586 1.96526 2.75556 4.2445 0.25
587 5.82675 9.96758 5.47782 0.25
588 3.24459 1.45118 9.36386 0.25
589 10.1918 3.83687 1.25523 0.25
590 8.234 7.53106 4.31478 0.25
591 3.7371 2.33655 5.1652 0.25
592 6.71148 5.55207 2.55096 0.25
593 5.21571 9.54645 5.91202 0.25
594 9.02436 6.59097 10.2208 0.25
595 1.91293 2.1387 7.76452 0.25
596 9.36392 8.55834 1.30354 0.25
597 5.08065 0.268274 3.26477 0.25
598 6.67163 7.63824 0.529063 0.25
599 9.96877 1.02679 1.90319 0.25
600 3.69437 9.28724 1.78114 0.25
601 7.19796 9.97863 2.40611 0.25
602 6.26404 8.3805 3.14964 0.25
603 2.18825 6.38226 7.44551 0.25
604 9.27258 0.700131 0.858505 0.25
605 1.40034 7.96503 2.01379 0.25
606 1.85342 1.44891 7.1668 0.25
607 2.4034 2.21869 7.61362 0.25
608 6.89572 6.93191 5.92688 0.5
609 3.49841 5.80803 1.08474 0.25
610 6.56228 4.64922 1.02029 0.5
611 8.46941 8.91 7.55488 0.25
612 8.37724 0.421024 4.12363 0.5
613 7.86857 2.7233 9.46803 0.25
614 9.45485 7.10578 1.03304 0.25
615 6.58337 4.18684 7.29258 0.25
616 1.42265 1.23454 7.00717 0.25
617 2.57795 3.49019 7.41406 0.25
618 8.08217 3.39444 9.9582 0.25
619 1.41199 9.72027 2.40257 0.25
620 6.91576 6.00898 2.52205 0.25
621 6.6647 4.48921 1.84999 0.25
622 7.25412 6.25499 8.86445 0.25
623 7.98747 4.41885 4.69928 0.5
624 4.64569 8.50862 7.93233 0.25
625 5.58851 2.13564 0.0120353 0.25
626 2.43026 3.00617 4.24103 0.25
627 6.94649 5.3147 2.86524 0.25
628 0.942933 9.80361 10.3236 0.25
629 7.30105 10.0491 9.88524 0.25
630 5.93864 7.94993 0.652661 0.25
631 8.01982 2.24222 5.39915 0.25
632 3.21709 3.91798 0.139305 0.25
633 3.09325 4.33837 0.193851 0.25
634 4.48449 8.001 8.50818 0.5
635 9.3287 6.20582 7.20237 0.25
636 8.89707 5.05942 9.92243 0.25
637 6.3388 9.05245 4.81511 0.25
638 2.35539 0.14294 5.09334 0.5
639 7.5082 3.00081 2.30755 0.25
640 7.5054 1.81603 7.70712 0.25
641 3.5204 5.4266 3.58142 0.25
642 3.7011 7.73551 6.6945 0.25
643 3.51263 1.66508 9.76827 0.25
644 5.86101 9.70399 4.81766 0.5
645 3.36265 3.65654 0.563711 0.25
646 8.46008 7.22129 3.58251 0.25
647 6.30745 7.0277 5.46245 0.25
648 7.23249 1.43419 7.68549 0.25
649 4.88656 6.00568 9.04788 0.25
650 7.08499 1.62514 3.3017 0.25
651 5.13195 8.55898 7.79974 0.25
652 1.11636 5.48398 8.55207 0.25
653 0.95342 4.5511 5.85025 0.25
654 1.2388 6.11897 7.43746 0.25
655 10.0807 4.15103 1.61987 0.25
656 4.54357 5.1252 7.45335 0.25
657 8.50363 9.41194 6.72571 0.25
658 7.29591 4.22866 8.15398 0.25
659 8.85722 10.1875 4.42887 0.25
660 1.85775 6.16244 8.04705 0.5
661 2.42448 7.37497 2.91271 0.25
662 7.59234 9.31488 6.00049 0.25
663 3.61367 0.536589 9.2592 0.25
664 1.17492 2.35464 9.97591 0.25
665 8.29364 6.66054 0.843039 0.25
666 5.46856 9.75545 8.53714 0.25
667 7.61575 3.24128 10.0186 0.25
668 6.87234 1.40597 5.31297 0.25
669 3.33728 7.6031 9.26569 0.5
670 0.397543 3.3879 9.28744 0.25
671 0.927646 6.24128 4.79299 0.5
672 6.65115 6.26351 5.68123 0.25
673 3.8743 9.76364 1.77123 0.25
674 7.28736 4.64823 4.54096 0.25
675 8.31715 9.40002 7.54847 0.25
676 5.58607 2.19186 0.792367 0.5
677 9.51154 3.20609 7.58515 0.25
678 9.77703 0.622336 6.1785 0.5
679 2.0425 2.40605 7.34565 0.25
680 2.87389 7.49394 3.04348 0.25
681 8.17035 9.51756 7.09109 0.25
682 4.1697 7.51064 5.53885 0.25
683 0.819051 2.63167 9.17746 0.25
684 1.69889 8.79264 7.02224 0.25
685 8.69999 10.2719 3.52028 0.25
686 6.65426 9.65816 5.06222 0.25
687 9.19765 3.41186 7.25328 0.25
688 5.51833 7.70617 0.686877 0.25
689 2.33254 2.52528 4.01998 0.25
690 0.0486949 7.66625 8.74904 0.25
691 0.682074 8.28916 5.4887 0.25
692 1.3777 4.34027 6.07597 0.25
693 9.60419 2.287 3.57778 0.25
694 3.35896 3.43577 0.0987788 0.25
695 8.03184 1.82854 5.14329 0.25
696 5.32655 1.22855 3.93225 0.25
697 1.3558 8.76699 7.35649 0.25
698 8.5869 5.98923 0.317291 0.25
699 3.28894 7.71162 5.42105 0.25
700 5.5869 8.12894 0.375301 0.25
701 3.45526 4.74005 5.29595 0.25
702 6.27714 3.67858 4.7335 0.25
703 1.55767 0.838624 2.04744 0.25
704 6.62184 4.7129 8.10984 0.25
705 3.99585 5.83102 9.05614 0.25
706 7.71416 1.40109 7.44724 0.25
707 5.89817 6.24697 5.12623 0.25
708 5.70448 6.57278 3.10973 0.25
709 1.36251 4.29446 2.05912 0.5
710 1.40978 4.80406 5.88404 0.25
711 7.41997 4.3395 6.95755 0.25
712 4.46435 8.09598 3.93679 0.25
713 1.39486 5.0168 3.18192 0.25
714 2.05034 10.1857 4.4656 0.25
715 2.57541 3.90418 8.10725 0.25
716 9.65187 8.53052 1.75846 0.25
717 2.99884 5.48527 5.04746 0.25
718 5.7375 3.55719 5.21694 0.5
719 5.13427 3.13465 5.53529 0.25
720 5.15316 1.76625 3.85014 0.25
721 3.6459 7.19959 6.63319 0.25
722 4.19272 5.62107 4.31312 0.25
723 6.25882 6.18552 6.50765 0.25
724 9.64678 0.808074 8.91549 0.25
725 3.72767 10.3332 6.79029 0.25
726 3.89328 5.47912 3.95531 0.25
727 3.80225 5.86892 4.27362 0.25
728 2.61059 7.70143 0.220213 0.5
729 7.38251 1.8733 5.89631 0.25
730 7.87158 1.26992 8.91442 0.25
731 0.939103 6.07584 10.1038 0.25
732 3.31071 7.97268 6.46302 0.25
733 9.79466 2.12606 4.57317 0.25
734 8.55162 7.62379 3.9189 0.25
735 3.29543 2.27416 5.3582 0.25
736 8.90339 6.31794 6.21218 0.25
737 0.875164 4.27623 5.48358 0.25
738 4.94974 8.54653 8.69102 0.25
739 3.00351 3.63115 10.18 0.25
740 8.75681 6.57358 1.55456 0.25
741 6.77403 2.71161 2.05325 0.25
742 5.18048 1.64654 0.649269 0.25
743 9.77365 1.80922 4.15573 0.25
744 2.37577 2.38783 4.73959 0.5
745 0.596767 4.17545 5.90914 0.25
746 7.06512 4.69901 1.58136 0.25
747 7.71534 2.26522 -0.0312397 0.25
748 7.10448 9.94957 9.45506 0.25
749 6.55153 4.31966 7.78118 0.25
750 4.40776 2.05667 6.48048 0.25
751 1.70886 1.9379 4.4623 0.25
752 9.77207 2.28042 4.08968 0.25
753 0.413792 2.46503 9.86146 0.5
754 7.73692 2.246 5.81548 0.25
755 7.96826 2.92417 9.92301 0.25
756 4.9655 1.65947 1.47282 0.25
757 0.114932 1.95667 4.29375 0.5
758 2.13578 9.82564 4.73773 0.25
759 4.85986 2.70904 8.41354 0.25
760 4.38701 1.38083 3.88211 0.25
761 6.65556 6.22385 6.16526 0.25
762 0.457274 4.01909 6.39539 0.25
763 6.6051 4.34245 4.5677 0.5
764 5.2399 6.90442 3.70756 0.25
765 7.06992 7.03719 8.96653 0.25
766 1.74968 5.23088 3.43387 0.25
767 7.77549 2.975 2.70044 0.25
768 5.1254 2.58239 5.97906 0.5
769 0.65378 2.83023 0.0591315 0.25
770 6.042 6.48539 5.86749 0.5
771 5.53712 7.26497 0.426988 0.25
772 6.90064 9.28271 5.70053 0.5
773 6.04818 3.98616 0.190085 0.25
774 6.92984 8.76922 2.86908 0.25
775 10.1079 8.05563 8.95697 0.25
776 4.78993 9.57809 0.225628 0.25
777 1.36215 8.43368 1.90018 0.25
778 3.17696 0.307575 8.55915 0.25
779 0.0665802 8.09136 8.55906 0.25
780 5.30162 4.6713 9.63065 0.25
781 5.9703 6.57915 3.53554 0.25
782 9.43852 6.56379 0.988949 0.25
783 4.06802 8.24377 3.1635 0.25
784 2.92827 3.57936 0.360764 0.25
785 8.80132 9.21559 7.5557 0.25
786 6.39132 6.34588 4.88375 0.25
787 6.31635 6.20271 5.3182 0.25
788 4.8532 1.41162 4.07624 0.25
789 6.44488 4.75098 2.20519 0.25
790 4.86028 2.03469 6.40497 0.25
791 8.56726 5.93388 6.16075 0.25
792 4.08023 3.60186 2.90886 0.5
793 0.0231746 0.374701 8.77622 0.25
794 2.53961 1.18071 1.53405 0.25
795 1.48402 8.7639 7.86504 0.25
796 2.22488 9.83951 3.93952 0.5
797 10.181 10.0549 3.44295 0.25
798 9.34685 4.43048 3.86848 0.25
799 4.14627 5.80196 0.614157 0.5
800 9.76509 1.68922 1.43539 0.25
801 6.00013 10.2913 9.90001 0.25
802 6.13353 7.51668 10.288 0.25
803 9.55048 5.16341 9.32943 0.25
804 4.22142 5.33987 7.69898 0.25
805 9.05378 4.00861 4.54361 0.25
806 2.28104 9.83539 7.94147 0.25
807 3.03148 4.91497 5.56982 0.25
808 8.75426 4.96543 9.44958 0.25
809 1.34331 5.81523 10.0309 0.25
810 7.1286 1.61964 6.27788 0.25
811 9.71682 4.78291 9.58429 0.25
812 3.85925 6.04537 1.31536 0.25
813 1.77444 3.83062 2.47145 0.25
814 1.38802 10.012 10.367 0.25
815 3.67777 5.29398 4.71415 0.5
816 6.43361 0.186709 9.87719 0.25
817 4.60181 9.7206 0.93111 0.5
818 8.95191 6.29763 0.289311 0.25
819 4.15219 6.31447 1.58629 0.25
820 6.91446 5.06675 8.23484 0.25
821 8.02529 9.01434 7.28103 0.25
822 5.10389 3.90849 3.12231 0.25
823 1.99467 9.24112 7.53406 0.5
824 7.67819 4.21988 7.3715 0.25
825 7.95096 8.98918 6.53492 0.5
826 7.36443 3.28081 2.68756 0.25
827 9.17778 6.59006 6.52222 0.25
828 10.007 4.11352 2.09004 0.25
829 0.873893 7.87804 4.6785 0.25
830 3.79505 6.51777 1.36386 0.25
831 2.61318 7.8369 2.69562 0.25
832 4.21983 5.43431 9.32404 0.25
833 6.35301 7.02042 6.38169 0.25
834 8.76113 4.2277 4.91162 0.25
835 1.2681 1.49851 6.65136 0.25
836 6.53043 5.30349 2.13627 0.25
837 3.86087 7.16107 8.99494 0.25
838 2.70081 9.33087 7.34849 0.25
839 0.120369 2.70296 4.47287 0.25
840 9.18091 4.92023 3.79967 0.25
841 5.77941 4.61208 10.2693 0.5
842 7.4531 6.7112 9.06971 0.25
843 0.96291 9.55731 2.35516 0.25
844 6.6489 4.97807 1.74236 0.25
845 8.60271 3.9837 4.40867 0.25
846 0.639224 5.19888 4.52764 0.25
847 7.60689 2.78423 10.2683 0.25
848 3.39974 0.926268 9.90025 0.5
849 6.52296 5.09434 2.63246 0.25
850 4.61263 8.55178 3.74514 0.25
851 3.69289 6.2781 0.945453 0.25
852 5.56337 1.49106 3.62349 0.25
853 9.30851 10.0374 4.40709 0.25
854 2.46708 3.45928 8.24976 0.25
855 3.97762 5.82528 1.71792 0.25
856 9.22363 2.93332 7.2901 0.25
857 6.50607 3.87176 5.11756 0.25
858 9.36676 7.13561 4.3491 0.25
859 9.39965 1.30985 1.43016 0.25
860 2.77536 9.42683 4.1676 0.25
861 4.12103 9.36341 1.92225 0.25
862 7.64989 1.11993 8.17571 0.5
863 0.413127 2.89032 9.28451 0.25
864 3.87639 3.53921 2.21863 0.25
865 1.07723 7.05691 4.74108 0.25
866 2.82657 1.35968 10.0915 0.25
867 2.82684 8.12366 9.13122 0.25
868 9.60958 0.91133 1.1456 0.25
869 0.128399 8.25465 4.83715 0.25
870 7.09898 6.65657 8.66747 0.25
871 7.0226 3.11883 2.25812 0.25
872 8.31399 1.62801 7.92207 0.5
873 5.14653 9.64898 5.1047 0.25
874 6.74888 9.14817 5.0035 0.25
875 3.40684 7.26862 5.18398 0.25
876 4.18368 6.40553 1.1142 0.25
877 0.46382 2.25435 3.67085 0.25
878 0.304016 0.0651428 9.09026 0.25
879 0.678432 7.41748 4.66812 0.25
880 5.62067 4.24312 4.81083 0.25
881 4.36775 6.52585 8.98158 0.5
882 10.0588 10.2674 6.35928 0.25
883 5.46022 3.31166 5.89152 0.25
884 2.47898 1.9302 1.34597 0.5
885 8.31023 10.1547 3.76751 0.25
886 9.85661 8.52662 1.2541 0.25
887 1.10954 6.24176 7.88776 0.25
888 1.82196 0.743363 2.44823 0.25
889 4.93987 5.16442 8.57377 0.25
890 0.779502 3.73269 6.13008 0.25
891 4.29652 3.5704 2.14077 0.25
892 6.48946 8.81746 3.10935 0.25
893 8.26765 3.02996 9.61714 0.25
894 1.87431 7.81926 10.3976 0.25
895 9.76175 2.81944 7.33639 0.25
896 9.57684 0.948926 1.67527 0.25
897 3.21814 7.52198 6.7557 0.25
898 0.940978 5.00119 5.26137 0.5
899 0.461773 0.451498 6.02984 0.25
900 8.07799 7.41368 3.81814 0.25
901 0.621818 8.20853 4.96825 0.25
902 5.35181 1.67133 1.17668 0.25
903 8.95855 6.92764 3.47971 0.25
904 1.45544 6.25836 0.326548 0.5
905 9.2113 1.13714 0.998171 0.25
906 9.10729 9.4427 3.83506 0.25
907 4.85775 3.63374 2.73796 0.25
908 7.38417 6.86311 8.29268 0.25