ITEM: TIMESTEP
170000
ITEM: NUMBER OF ATOMS
1000
ITEM: BOX BOUNDS xy xz yz pp pp pp
0.0000000000000000e+00 1.0357442000000001e+01 0.0000000000000000e+00
0.0000000000000000e+00 1.0357442000000001e+01 0.0000000000000000e+00
0.0000000000000000e+00 1.0357442000000001e+01 0.0000000000000000e+00
ITEM: ATOMS id x y z radius
1 1.46978 4.23801 3.03613 0.5
2 2.27802 7.28791 2.34777 0.5
3 5.03522 2.09127 1.02888 0.25
4 0.813552 1.99522 3.81156 0.25
5 10.1271 3.14971 7.55528 0.25
6 0.149053 2.92541 9.69716 0.25
7 4.89761 0.946933 2.7731 0.25
8 8.78471 4.22165 2.18773 0.25
9 9.98766 0.960269 1.49183 0.25
10 8.87301 6.91927 4.34164 0.25
11 9.74043 8.29651 0.582723 0.25
12 8.08158 3.15836 0.226531 0.25
13 3.25131 7.53932 5.98936 0.25
14 5.37379 1.81603 10.238 0.25
15 8.66287 6.21463 6.27442 0.25
16 8.51181 8.55853 6.76513 0.25
17 5.33847 9.35311 8.19842 0.5
18 2.84519 8.02449 9.55224 0.25
19 7.1643 4.03468 4.60618 0.25
20 9.2152 1.12187 1.06971 0.25
21 0.422459 10.1265 9.71164 0.25
22 4.58428 1.30975 2.61178 0.25
23 3.74308 3.64797 2.56041 0.25
24 2.99188 2.40036 4.60891 0.25
25 7.78302 2.33787 6.04225 0.25
26 5.73776 2.06253 8.91082 0.25
27 1.76602 8.55616 9.78353 0.25
28 8.63594 6.41725 6.71157 0.25
29 3.25267 7.4102 5.47862 0.25
30 0.991645 9.17486 7.24596 0.25
31 0.813526 7.81862 4.86271 0.25
32 8.94041 6.62941 1.30891 0.25
33 9.6452 8.78794 0.380378 0.25
34 0.69116 2.4784 10.2573 0.25
35 8.10053 2.96105 0.727464 0.25
36 8.38333 8.96948 9.32148 0.25
37 2.78515 4.58095 6.31792 0.25
38 7.34634 0.667989 1.23634 0.25
39 6.2106 3.4258 4.7385 0.25
40 8.1836 4.53961 4.01242 0.25
41 8.847 6.81391 3.44482 0.25
42 6.30947 8.98975 2.65979 0.5
43 0.975482 8.51472 5.46263 0.25
44 1.46108 10.2234 3.76907 0.25
45 6.8059 6.96502 9.17658 0.25
46 1.22254 8.71886 7.09934 0.25
47 3.96181 8.90018 3.36572 0.25
48 1.65985 0.267128 4.04372 0.25
49 4.23464 5.91681 9.17576 0.25
50 10.1714 9.54588 3.76096 0.25
51 9.41957 9.01725 1.64012 0.25
52 5.67717 7.53419 0.699182 0.25
53 6.18904 4.83757 1.49871 0.25
54 4.82758 4.67478 7.84851 0.25
55 5.89336 6.60518 6.64097 0.25
56 5.41264 1.95849 1.30636 0.25
57 4.97483 1.65718 0.155865 0.25
58 5.72942 4.7422 0.247884 0.25
59 4.01988 7.18674 9.02828 0.25
60 6.86311 6.57115 9.40657 0.25
61 3.57794 0.0923896 8.38573 0.25
62 9.08166 6.36145 6.4051 0.25
63 0.823056 5.3554 4.21652 0.25
64 10.0935 1.1741 1.91377 0.25
65 6.58032 7.09098 6.59093 0.25
66 4.40263 0.836674 2.67163 0.25
67 9.5587 5.28687 9.31463 0.25
68 6.24135 0.0561017 0.101019 0.25
69 2.97359 7.39334 2.53151 0.25
70 3.98599 5.66022 3.75512 0.25
71 0.971858 8.15306 2.21326 0.25
72 5.44744 6.75842 3.30717 0.25
73 8.55388 9.33068 7.46491 0.5
74 2.6432 7.69807 2.8225 0.25
75 0.824577 6.03452 0.563062 0.25
76 2.40262 8.46052 0.0147364 0.25
77 6.79094 6.55785 8.9305 0.25
78 3.91061 9.31333 1.78333 0.25
79 1.17527 4.96974 9.58131 0.25
80 8.38955 8.82893 9.79063 0.25
81 8.6063 8.68424 7.80678 0.25
82 1.54779 0.139612 2.30055 0.25
83 1.4078 7.85136 2.16516 0.25
84 5.1655 9.94006 5.60109 0.25
85 4.18647 6.47972 0.984093 0.25
86 9.90524 4.35763 2.05816 0.5
87 0.951825 5.46085 8.28314 0.25
88 3.09327 3.81282 8.18218 0.25
89 1.09564 0.232174 10.005 0.25
90 6.90597 9.91221 1.82345 0.5
91 4.03989 8.63317 3.77032 0.25
92 9.25505 0.903716 1.84644 0.25
93 8.44344 1.19403 8.41001 0.25
94 0.992572 3.71521 1.71397 0.25
95 7.36792 8.9913 5.90417 0.25
96 7.82661 1.23584 7.20817 0.25
97 5.59698 9.8916 5.38692 0.25
98 0.0814164 0.164918 6.12593 0.25
99 5.27493 2.15402 8.30134 0.5
100 5.11761 2.72715 5.39722 0.25
101 5.36684 2.20782 9.62669 0.5
102 4.53413 5.36262 8.06321 0.5
103 6.97892 0.49728 0.988743 0.25
104 1.12462 9.87262 0.0640649 0.25
105 2.07178 4.72215 3.18888 0.25
106 6.53428 6.38021 6.1047 0.25
107 5.77205 9.91409 8.54092 0.25
108 1.474 3.89133 1.81845 0.25
109 7.15728 2.19021 2.46747 0.25
110 5.8403 10.2846 5.53844 0.25
111 1.78447 4.91131 0.160484 0.25
112 3.39764 4.72062 5.1755 0.25
113 2.67407 9.82932 4.11229 0.25
114 8.51337 6.04404 0.141738 0.25
115 4.93181 3.60908 2.80305 0.25
116 0.102719 2.3957 4.7215 0.25
117 7.12594 2.77361 2.85846 0.5
118 6.04554 8.33381 2.45915 0.25
119 10.2371 1.81292 3.71502 0.25
120 1.4949 5.80377 0.174202 0.25
121 8.09601 2.24053 5.31552 0.5
122 1.61854 4.74933 2.43336 0.25
123 8.92018 8.88714 1.47485 0.25
124 8.24179 6.13619 0.567992 0.25
125 2.53588 10.0391 5.36066 0.25
126 5.9635 7.52235 0.261614 0.25
127 6.07159 7.86003 0.643022 0.25
128 9.31516 9.6613 4.5438 0.25
129 1.82572 5.20067 3.22346 0.25
130 9.07498 9.39373 1.55157 0.25
131 6.6815 2.37078 2.36547 0.25
132 8.09607 4.18608 4.8462 0.25
133 8.31367 9.31138 9.73402 0.25
134 3.69717 3.87983 3.01199 0.25
135 6.24523 9.53578 8.01689 0.5
136 8.55074 8.64999 7.23141 0.25
137 1.05283 8.69837 2.2179 0.25
138 7.01351 4.72286 4.03823 0.25
139 7.26778 4.80529 7.71365 0.5
140 4.51688 8.84947 3.99077 0.25
141 1.88449 1.56077 2.36121 0.25
142 3.08237 2.86206 4.77404 0.25
143 7.94196 0.894435 3.33786 0.25
144 9.89477 7.02817 2.38868 0.25
145 3.6729 7.35001 5.79626 0.25
146 7.71761 8.57764 2.12215 0.25
147 4.29033 5.9015 4.02511 0.25
148 2.65911 1.56191 10.2996 0.25
149 9.9717 7.35013 9.34773 0.25
150 4.59598 4.92485 7.49096 0.25
151 6.98034 9.96525 10.0113 0.25
152 4.19588 9.25989 1.44832 0.25
153 5.41193 1.9319 7.58006 0.25
154 5.65292 9.76679 7.62948 0.25
155 3.44979 5.58226 1.36478 0.25
156 0.895279 8.71752 7.5352 0.25
157 5.01873 1.24362 3.9403 0.25
158 8.70828 8.9212 6.50472 0.25
159 3.20143 2.49925 5.57264 0.25
160 2.75325 3.49702 8.06743 0.25
161 3.28551 0.442745 8.64053 0.25
162 4.08653 1.91359 6.13957 0.5
163 7.11565 9.85955 2.59853 0.25
164 5.47785 8.64815 8.16469 0.25
165 0.553053 2.63307 9.78582 0.25
166 6.65082 4.34416 6.69232 0.25
167 8.82148 10.1393 4.00459 0.25
168 10.1661 7.96113 8.75958 0.25
169 9.72062 5.96678 7.25607 0.25
170 3.4474 10.355 8.88672 0.25
171 1.21989 8.69032 7.93446 0.25
172 9.53163 6.46037 6.63769 0.25
173 0.977408 2.46862 3.67534 0.25
174 5.10183 1.70984 6.35906 0.25
175 9.64766 3.01764 7.56516 0.25
176 0.69151 5.55209 0.442584 0.25
177 9.7787 6.03474 6.74991 0.25
178 7.42492 2.36967 5.67954 0.25
179 3.12235 9.78746 7.73892 0.25
180 6.98193 8.86907 2.00484 0.5
181 0.598679 4.20833 5.54666 0.25
182 7.45006 1.15587 3.96141 0.25
183 2.67149 0.27132 4.29659 0.25
184 9.34245 4.90087 10.0446 0.25
185 8.79934 9.3322 6.76376 0.25
186 2.55536 8.20513 9.94897 0.25
187 3.53136 3.67966 9.98933 0.25
188 5.19065 2.41757 7.61999 0.25
189 10.0119 0.121334 5.94151 0.25
190 2.70862 7.56379 3.31035 0.25
191 5.75723 2.56324 8.74954 0.25
192 8.27789 9.50657 6.76034 0.25
193 5.55972 2.82351 9.17938 0.25
194 4.22758 9.7057 1.67499 0.25
195 5.01305 5.29172 9.62712 0.25
196 4.82608 1.94288 10.1345 0.25
197 9.08433 5.79421 6.7822 0.5
198 7.58286 1.98647 7.17451 0.5
199 6.91323 0.103703 9.97216 0.25
200 7.24508 1.05199 6.5621 0.25
201 6.43719 6.64271 6.55603 0.25
202 3.38919 8.08635 4.92035 0.25
203 4.98185 9.33129 0.153296 0.25
204 0.0361544 3.94493 6.1282 0.25
205 4.0415 10.2885 6.4871 0.25
206 0.552875 2.68023 4.62829 0.25
207 1.44976 5.45234 3.86005 0.5
208 2.70473 4.63345 5.81661 0.25
209 7.62794 8.99739 2.37919 0.25
210 3.51741 0.0281985 6.48932 0.25
211 1.20235 4.91903 2.73594 0.25
212 0.372902 3.58636 2.23234 0.5
213 8.89124 4.12736 1.69388 0.25
214 3.48169 4.58836 5.58329 0.25
215 10.0347 0.705292 9.23872 0.25
216 5.66464 2.2829 0.599458 0.25
217 0.682784 8.25289 5.74807 0.25
218 2.31949 2.15312 2.18702 0.5
219 0.788694 4.16939 5.97608 0.25
220 6.64932 9.69936 2.84865 0.25
221 8.75652 7.3832 4.36975 0.25
222 9.10317 6.61366 6.80784 0.25
223 5.27493 9.49501 5.43221 0.25
224 10.3477 4.0916 7.47085 0.25
225 7.74172 1.60489 5.52631 0.25
226 6.38984 9.07369 5.75248 0.25
227 7.13117 0.25931 1.44789 0.25
228 5.06095 1.76832 0.650938 0.25
229 2.78824 1.10525 2.16014 0.25
230 8.5335 7.19232 3.56585 0.25
231 7.45779 4.00309 6.9849 0.25
232 6.8358 9.46964 2.41832 0.25
233 8.17917 1.90412 8.48627 0.5
234 3.74828 10.0367 1.0665 0.25
235 1.31561 8.4327 7.5278 0.25
236 1.16765 5.69544 0.50304 0.25
237 8.28326 1.16409 3.47434 0.25
238 1.3766 6.09058 4.22114 0.25
239 0.610221 3.065 9.54905 0.25
240 1.37239 8.29368 2.75496 0.5
241 1.42048 8.95893 2.48533 0.25
242 4.08296 7.43865 6.10265 0.25
243 0.888015 6.52858 0.36594 0.25
244 0.8311 1.51807 7.38494 0.25
245 6.17079 6.9045 6.83712 0.25
246 1.54414 8.19403 10.1038 0.25
247 2.93939 7.2068 1.99624 0.25
248 4.92841 2.21759 8.97014 0.25
249 7.0112 4.32879 4.29105 0.25
250 7.49959 1.39486 6.79197 0.25
251 1.57911 1.34595 7.04644 0.25
252 6.91745 6.83616 7.94503 0.25
253 3.77557 7.69236 8.50006 0.25
254 0.686337 8.50217 2.49231 0.25
255 1.34484 10.0607 2.52386 0.25
256 3.30324 5.7648 4.26252 0.25
257 0.913508 0.0325465 0.0441092 0.25
258 5.2103 4.68393 6.93939 0.25
259 2.40169 9.73558 4.4908 0.25
260 1.27899 10.1583 0.352149 0.25
261 7.15584 6.25087 9.06577 0.25
262 5.09127 6.97934 3.56443 0.25
263 8.1678 8.55933 9.45697 0.25
264 7.63985 9.64148 9.81758 0.5
265 4.39045 4.1237 2.44433 0.25
266 4.95833 3.73945 1.95045 0.25
267 3.12814 7.87227 5.68627 0.25
268 3.68152 7.71297 6.12747 0.25
269 7.68325 8.80986 5.52241 0.25
270 3.31475 8.02974 6.14618 0.25
271 3.74738 9.85839 1.81118 0.25
272 5.97691 6.57213 5.5282 0.25
273 9.49473 3.58796 6.67843 0.25
274 2.92407 4.99027 6.08213 0.25
275 10.1343 6.5855 2.57594 0.25
276 8.73699 1.01628 8.05864 0.25
277 2.94542 10.273 8.20823 0.5
278 4.3122 6.05748 8.22997 0.25
279 3.75127 0.371602 8.80748 0.25
280 2.82992 0.557412 8.75449 0.25
281 3.96902 8.15279 3.60533 0.25
282 4.67741 0.596441 3.51296 0.25
283 9.85507 0.0295695 8.72885 0.25
284 1.61446 5.35159 0.435267 0.25
285 8.57627 6.83904 1.06933 0.25
286 0.117552 1.14429 1.6434 0.25
287 2.15722 7.95177 2.76957 0.25
288 1.51836 5.73071 4.59269 0.25
289 9.12113 0.683137 0.988706 0.25
290 9.55306 3.84882 2.42979 0.25
291 8.44039 2.81444 0.298514 0.25
292 3.83564 9.64138 1.39928 0.25
293 4.55307 2.29692 7.095 0.5
294 9.79256 6.29474 2.82205 0.25
295 7.08485 1.01948 7.28915 0.5
296 3.30147 2.72471 4.36477 0.25
297 1.08199 8.04248 5.62433 0.25
298 4.9733 9.53758 0.558566 0.25
299 8.95486 5.03113 9.76606 0.25
300 2.6204 0.104036 5.14494 0.25
301 4.57356 8.51383 8.07327 0.25
302 5.42931 4.91877 7.34472 0.25
303 8.98326 5.43778 0.0789766 0.5
304 4.44657 3.47439 2.98735 0.25
305 1.82729 7.84241 2.3824 0.25
306 9.8702 7.52718 8.82882 0.25
307 1.36716 10.2736 10.2728 0.25
308 9.00166 5.99522 6.04901 0.25
309 8.66544 1.47155 8.78712 0.25
310 6.79713 6.82658 6.17939 0.25
311 1.24473 10.0543 1.66251 0.25
312 9.01726 0.856775 8.7457 0.5
313 1.05918 7.66449 2.43727 0.25
314 0.583034 3.94022 1.64232 0.25
315 3.41115 0.655146 9.32496 0.5
316 6.81873 3.76202 8.07847 0.25
317 5.91292 9.49566 8.72704 0.25
318 10.2146 7.5603 8.47258 0.25
319 10.3534 9.95777 3.88552 0.25
320 0.837691 2.62159 0.297055 0.25
321 2.38719 1.39936 2.40395 0.25
322 0.982819 7.36911 4.86577 0.25
323 6.42351 10.1812 9.4415 0.5
324 7.14836 1.99658 2.93492 0.25
325 9.20984 3.99315 2.02825 0.25
326 1.17682 0.0809252 4.06577 0.25
327 1.34036 9.39245 7.56632 0.25
328 4.56625 3.94849 2.88313 0.25
329 8.13905 7.04017 4.17841 0.5
330 9.93819 6.64901 2.08595 0.25
331 8.95271 0.187201 4.20545 0.25
332 5.67647 7.81533 10.2494 0.25
333 0.137707 7.94676 9.09853 0.25
334 6.41506 5.24429 1.29284 0.25
335 5.74757 5.235 0.30103 0.25
336 9.40496 4.11639 1.60655 0.25
337 4.7219 6.05465 8.43414 0.25
338 6.22082 8.58671 2.01822 0.25
339 3.95325 5.79228 8.38352 0.25
340 0.987466 2.78864 9.84823 0.25
341 3.836 5.86439 4.20504 0.25
342 9.5252 3.76506 7.16803 0.25
343 10.0438 2.32973 4.45106 0.25
344 4.23178 0.665619 3.15912 0.25
345 6.46419 4.31414 10.1679 0.25
346 1.26251 1.49799 7.74073 0.25
347 3.39316 3.92003 0.433662 0.25
348 6.41207 7.6388 0.407501 0.25
349 5.1858 1.55372 7.8429 0.25
350 2.36939 3.69441 7.81738 0.25
351 5.46283 6.21975 3.28049 0.25
352 8.10668 6.77637 1.24862 0.25
353 9.90793 4.01548 7.40056 0.25
354 10.0808 3.62011 1.85941 0.25
355 2.64063 2.00887 1.53061 0.25
356 4.21638 9.15336 0.597502 0.25
357 3.45942 4.89767 5.95436 0.25
358 4.71709 9.13851 0.586713 0.25
359 8.99343 6.38189 0.652561 0.5
360 3.86976 0.397874 6.57034 0.25
361 0.286387 0.61353 6.03496 0.25
362 0.285089 7.77115 8.68508 0.25
363 7.12997 2.51052 2.09463 0.25
364 9.42163 6.20664 2.52927 0.25
365 5.95558 9.06752 5.48763 0.25
366 9.17267 4.44411 1.92151 0.25
367 4.03142 0.268925 9.64303 0.25
368 9.92186 6.42469 7.00754 0.25
369 8.78099 3.9887 4.68214 0.5
370 5.04829 1.51871 7.10906 0.5
371 9.25369 6.73166 1.93611 0.5
372 1.22579 2.39696 4.35057 0.5
373 3.80047 0.0194382 9.22478 0.25
374 3.03385 0.148308 8.94489 0.25
375 4.83869 0.799577 3.8439 0.25
376 0.868217 5.88537 4.10344 0.25
377 10.3388 7.50051 8.98889 0.25
378 9.30684 8.58269 1.42739 0.25
379 0.476538 3.9303 6.36212 0.25
380 2.00052 2.41089 4.54446 0.25
381 6.69739 5.25645 1.95919 0.5
382 2.32123 8.61627 9.84049 0.25
383 5.80113 8.4425 7.81593 0.25
384 1.85104 6.3837 7.32274 0.25
385 0.574502 6.71245 5.33718 0.25
386 1.18516 5.84874 7.39733 0.25
387 1.6179 5.96749 7.15584 0.25
388 3.07611 1.39621 1.85975 0.25
389 5.8444 2.11584 1.0567 0.25
390 3.74529 3.76351 0.0847274 0.25
391 3.81094 0.185904 6.10182 0.25
392 0.558685 5.72458 4.45723 0.25
393 8.88642 8.85507 6.92043 0.25
394 10.1194 0.160615 6.50065 0.25
395 2.05445 4.60177 2.66562 0.25
396 2.72445 0.917925 9.06713 0.25
397 7.21342 2.1957 3.39777 0.25
398 9.26523 4.44602 9.26569 0.25
399 2.76525 9.50816 7.91894 0.25
400 7.65498 3.05689 0.00352667 0.25
401 5.2202 6.51368 3.66465 0.25
402 4.34257 5.80677 8.66525 0.25
403 6.13728 5.0208 0.0319625 0.25
404 7.8975 3.18856 9.59193 0.25
405 1.27997 6.19446 0.432677 0.25
406 6.31484 9.45185 5.34975 0.25
407 7.20646 6.53846 8.66804 0.25
408 9.32534 8.55884 0.592112 0.25
409 9.65472 6.67726 2.58371 0.25
410 5.81244 0.912065 3.97576 0.25
411 7.5906 8.88982 9.94639 0.25
412 4.97704 1.99582 7.67829 0.25
413 7.55982 2.2167 2.74926 0.25
414 7.05997 5.83141 2.27571 0.25
415 4.55597 1.28141 3.32277 0.5
416 9.99097 0.17842 9.19968 0.25
417 3.79092 8.00762 5.56554 0.5
418 0.877304 1.3074 6.7083 0.5
419 9.02252 0.108262 3.72844 0.25
420 5.5105 8.79074 7.68054 0.25
421 9.21936 6.67563 7.33465 0.25
422 2.69303 7.25347 2.94239 0.25
423 1.6759 4.88929 2.90198 0.25
424 0.28512 0.224032 9.65153 0.25
425 2.38354 0.185225 4.71215 0.25
426 2.88732 1.81236 1.87575 0.25
427 7.03255 1.54514 6.72955 0.25
428 6.46542 9.35765 2.03641 0.25
429 5.74281 9.23715 7.63377 0.25
430 9.33705 9.33085 4.16645 0.25
431 6.96191 10.3088 1.12835 0.25
432 2.83536 7.54146 9.50524 0.25
433 3.17159 2.91536 5.25717 0.25
434 5.82362 9.91393 9.03658 0.25
435 0.183939 3.15161 9.25514 0.25
436 6.52664 4.76813 0.0109302 0.25
437 1.33159 5.8144 9.62179 0.25
438 7.69924 0.93786 6.79591 0.25
439 9.64817 10.1029 4.0475 0.5
440 2.29983 2.9578 7.72493 0.5
441 1.02187 3.75756 2.55301 0.25
442 5.18233 7.65754 0.630595 0.25
443 9.74004 9.47569 4.41592 0.25
444 1.15742 3.59876 2.10674 0.25
445 5.68538 6.46841 3.60204 0.25
446 8.34895 4.89782 4.3781 0.25
447 6.25193 4.76915 9.93333 0.25
448 5.38114 0.914705 3.31902 0.5
449 10.2778 0.413539 5.69723 0.25
450 2.11759 2.00945 1.50043 0.25
451 3.06531 3.18374 0.170121 0.25
452 5.68281 4.25146 4.85475 0.25
453 7.73847 4.21852 7.89557 0.25
454 1.72069 6.05292 8.48939 0.25
455 1.1782 6.06481 7.84965 0.25
456 2.8218 1.56866 2.25211 0.25
457 9.93928 8.88034 1.03626 0.5
458 2.52165 5.81522 7.30107 0.25
459 1.61257 1.39613 6.53994 0.25
460 2.33683 6.27739 7.37105 0.25
461 4.04201 6.30027 1.79057 0.25
462 4.39707 6.32606 1.44727 0.25
463 2.0657 9.83254 5.20177 0.25
464 9.67972 1.25096 1.71268 0.25
465 6.56028 5.88555 2.26075 0.25
466 4.99556 5.38686 7.04403 0.5
467 3.87779 4.80485 5.25857 0.25
468 1.65779 1.79052 1.4492 0.25
469 3.95327 3.41563 2.9787 0.25
470 3.99728 3.9614 2.20011 0.25
471 1.98559 10.3272 3.83896 0.25
472 1.74294 2.37427 7.73874 0.25
473 3.32841 8.16933 9.5442 0.25
474 9.23616 4.30359 2.43082 0.25
475 7.87212 7.69611 4.12443 0.25
476 4.33834 6.02701 1.05949 0.25
477 10.1958 9.56194 4.21605 0.25
478 8.43594 6.10491 1.29894 0.5
479 7.36736 0.612102 0.725976 0.25
480 2.69842 7.73781 9.96547 0.25
481 3.939 9.26076 1.01426 0.25
482 6.50867 9.74273 4.98283 0.25
483 6.99043 0.126438 0.31392 0.5
484 9.80698 3.4708 7.41988 0.25
485 8.1665 2.90013 9.81198 0.25
486 4.41013 8.8355 3.54144 0.25
487 3.47116 4.09912 10.3046 0.25
488 6.32643 9.69196 2.42048 0.25
489 8.14429 7.24699 4.94426 0.25
490 2.69099 3.1584 8.37644 0.25
491 8.42371 9.0465 6.86773 0.25
492 7.94057 2.7182 0.336298 0.25
493 9.51699 3.23566 7.08717 0.25
494 8.3234 4.39174 4.41843 0.25
495 9.92012 3.05965 7.11076 0.25
496 4.67338 1.37603 6.48328 0.25
497 3.02773 3.57354 0.486534 0.25
498 7.90852 1.42764 9.02656 0.25
499 3.94156 10.1397 1.47087 0.25
500 4.41968 7.26627 8.66835 0.25
501 2.22204 9.98272 4.08157 0.25
502 9.50079 6.12921 6.30143 0.25
503 6.43468 8.28164 2.78508 0.25
504 5.62463 7.89429 0.401999 0.25
505 7.38572 1.71156 6.13331 0.5
506 5.76122 10.1927 5.07088 0.25
507 6.52911 8.33528 2.32029 0.25
508 4.81442 8.28414 7.75887 0.25
509 1.69705 8.67197 7.2944 0.25
510 5.84173 3.93611 5.2273 0.25
511 4.24477 0.351609 6.24379 0.25
512 2.14313 5.09777 2.77978 0.25
513 1.81642 5.40024 10.2799 0.25
514 4.15354 2.4303 5.55634 0.25
515 1.93282 1.62229 7.60827 0.5
516 5.81141 9.57689 5.94859 0.5
517 7.98653 7.55019 4.59564 0.25
518 3.00491 1.29329 9.37188 0.25
519 2.51009 10.3134 3.87585 0.25
520 5.2208 2.17716 7.18574 0.25
521 0.790887 4.57094 5.28906 0.25
522 2.47817 10.1991 4.3829 0.25
523 2.78935 3.46836 7.59563 0.25
524 7.69059 1.59001 5.05743 0.25
525 1.9269 6.85646 7.23341 0.25
526 1.8296 5.58411 8.45627 0.25
527 7.16645 9.19222 2.96867 0.5
528 7.42909 8.52008 2.59063 0.25
529 4.05153 5.69118 0.762446 0.25
530 1.51184 7.53115 2.47459 0.25
531 0.230722 3.35886 9.67777 0.25
532 1.48206 7.64319 10.0891 0.25
533 9.02347 9.68573 4.09708 0.25
534 8.73002 4.69711 4.61312 0.25
535 6.90034 7.18501 8.29176 0.25
536 4.73591 9.82271 0.191309 0.25
537 7.88791 1.09137 3.79531 0.25
538 7.331 4.43312 7.15388 0.25
539 10.2521 3.6281 6.88097 0.5
540 6.0297 10.3285 8.78004 0.25
541 9.13109 8.72592 1.00541 0.25
542 7.47538 9.48992 6.02731 0.25
543 9.38595 4.06927 4.26253 0.25
544 1.57184 2.16329 7.23143 0.25
545 10.0772 9.97738 3.43448 0.25
546 0.261691 0.903122 6.52391 0.25
547 9.61354 3.72154 1.91883 0.25
548 9.32784 4.94365 9.02179 0.25
549 1.58156 10.0854 2.06381 0.25
550 9.43415 8.28963 1.01865 0.25
551 3.1129 7.51749 3.00423 0.25
552 7.98658 9.25006 7.05477 0.25
553 5.48259 2.41947 5.378 0.25
554 9.20681 4.53588 4.33508 0.25
555 6.0272 8.87971 7.61175 0.25
556 1.69222 8.66186 7.77069 0.25
557 2.55906 9.91848 7.75018 0.25
558 2.76448 3.61708 8.53211 0.25
559 9.54541 0.80383 9.29251 0.25
560 3.0753 4.84786 5.56148 0.25
561 0.93044 3.23726 1.80918 0.25
562 5.0996 4.92343 9.30321 0.25
563 6.09385 10.2496 8.31878 0.25
564 1.28212 1.69019 7.28298 0.25
565 1.70236 2.21225 1.69399 0.25
566 9.59884 6.77108 6.98046 0.25
567 1.24836 6.07256 0.887196 0.25
568 7.37981 1.91834 5.39779 0.25
569 6.75062 4.05665 7.36996 0.5
570 4.16538 3.86142 3.1839 0.25
571 4.52683 3.94858 2.05159 0.25
572 8.34696 1.63094 9.16571 0.25
573 0.575129 7.00125 4.89613 0.25
574 0.114735 1.33539 6.43442 0.25
575 5.60715 3.982 4.4617 0.25
576 5.42672 1.93727 0.8447 0.25
577 0.340872 7.89487 4.9841 0.25
578 1.07554 5.17958 10.3124 0.5
579 4.83447 4.84881 6.61251 0.25
580 8.09342 7.13535 3.52616 0.25
581 7.50808 6.96032 8.75464 0.25
582 6.8362 4.71983 4.49478 0.25
583 8.57719 5.70608 6.25413 0.25
584 5.84187 6.92085 3.49496 0.25
585 7.3717 0.207622 1.00813 0.25
586 1.72674 2.41379 4.9198 0.25
587 6.12937 9.92865 5.31163 0.25
588 3.24665 0.857544 10.083 0.25
589 0.0396291 3.89515 1.62886 0.25
590 8.46253 7.54927 4.69322 0.25
591 3.63729 2.22925 5.61737 0.25
592 6.56221 4.75273 2.49064 0.25
593 5.48018 10.251 5.84265 0.25
594 8.64775 5.8999 9.98315 0.25
595 1.31253 2.05853 7.62865 0.25
596 9.35829 9.04983 0.671508 0.25
597 4.24595 0.718507 3.68447 0.25
598 5.4535 7.50165 0.220929 0.25
599 10.0918 1.42845 1.48607 0.25
600 3.22576 9.8699 1.88219 0.25
601 7.34163 9.44053 2.33287 0.25
602 6.24286 8.43517 3.25672 0.25
603 2.20231 6.60244 7.64858 0.25
604 8.80086 1.35971 1.26055 0.25
605 1.78583 7.66742 2.83404 0.25
606 2.02713 2.02152 6.94955 0.25
607 2.22254 2.22361 7.88294 0.25
608 6.72802 6.5299 5.39153 0.5
609 4.03797 6.71353 1.42763 0.25
610 6.20419 4.8558 0.732648 0.5
611 8.96203 8.72135 7.45128 0.25
612 8.31589 0.42754 3.8001 0.5
613 8.44631 3.10341 10.2181 0.25
614 9.42057 6.54619 1.19472 0.25
615 7.02314 3.98718 8.45547 0.25
616 1.57787 1.79257 6.9086 0.25
617 2.357 3.52226 8.29382 0.25
618 7.69133 2.7726 9.87998 0.25
619 0.942077 8.92696 2.63892 0.25
620 7.20678 5.5261 2.56718 0.25
621 6.64819 4.7917 1.36465 0.25
622 7.34629 7.34312 8.51449 0.25
623 7.62261 4.7026 4.53514 0.5
624 5.05097 8.74881 7.90464 0.25
625 5.70089 2.15068 0.0413632 0.25
626 2.7946 2.77374 4.36301 0.25
627 6.85528 5.11232 2.67961 0.25
628 1.33572 9.66716 0.483574 0.25
629 7.38712 10.279 10.0238 0.25
630 6.33009 7.17207 0.334579 0.25
631 8.16173 1.52538 5.29398 0.25
632 3.27832 3.65497 0.0477256 0.25
633 3.4873 3.44518 0.376544 0.25
634 4.45271 7.77726 8.18188 0.5
635 9.46039 6.32138 7.07687 0.25
636 8.82812 5.52057 9.75229 0.25
637 6.39438 8.94431 5.22648 0.25
638 1.71533 10.1247 4.53322 0.5
639 7.50355 2.55524 2.37 0.25
640 7.7371 1.76393 7.92466 0.25
641 3.50977 5.81782 3.82786 0.25
642 3.36911 7.66821 6.51578 0.25
643 2.72036 1.17498 0.216488 0.25
644 5.80508 9.39895 4.85791 0.5
645 3.1213 3.33337 10.0649 0.25
646 8.20693 7.58605 3.72895 0.25
647 6.13506 6.95319 5.27743 0.25
648 7.60812 1.3589 7.64326 0.25
649 4.64304 6.05252 9.0013 0.25
650 7.57193 0.762994 3.65205 0.25
651 5.29192 8.37034 7.79181 0.25
652 1.36267 5.80412 8.26263 0.25
653 0.940892 4.90799 5.58607 0.25
654 2.09778 5.95346 7.086 0.25
655 0.262938 4.26023 1.90533 0.25
656 5.01367 4.64618 7.39891 0.25
657 8.53833 9.40376 6.3737 0.25
658 7.42731 4.05011 7.52945 0.25
659 8.5628 10.3398 4.3903 0.25
660 1.90927 5.8789 7.79858 0.5
661 2.24307 7.55093 3.06606 0.25
662 7.7272 9.26664 5.66869 0.25
663 2.71258 0.442996 9.23965 0.25
664 0.362991 2.46314 0.15965 0.25
665 8.20961 6.62274 0.760103 0.25
666 5.68843 10.0569 8.06827 0.25
667 7.90424 2.74347 9.40628 0.25
668 7.72796 2.76213 5.71086 0.25
669 3.38958 7.6096 9.06564 0.5
670 0.398417 2.68058 9.32226 0.25
671 0.960233 6.31982 4.74375 0.5
672 6.07704 6.16047 5.30487 0.25
673 4.43021 9.02999 0.998113 0.25
674 7.0705 4.38949 4.85445 0.25
675 9.04028 8.43654 7.86376 0.25
676 5.03418 2.39093 0.32416 0.5
677 9.62219 3.76921 7.68682 0.25
678 9.97847 0.796302 6.23473 0.5
679 2.09345 2.32846 7.36479 0.25
680 3.06282 6.90119 2.37301 0.25
681 8.10319 8.73035 7.06117 0.25
682 3.47178 7.55772 5.03254 0.25
683 0.19359 2.57509 10.1062 0.25
684 1.5489 9.09394 7.95831 0.25
685 8.65392 10.2049 3.53608 0.25
686 6.13291 10.0596 4.78702 0.25
687 9.32922 3.41604 7.52942 0.25
688 6.67689 7.33017 0.669061 0.25
689 2.50805 2.39141 4.39661 0.25
690 0.0140241 7.60933 9.48859 0.25
691 0.509597 8.55749 5.35756 0.25
692 1.06279 4.41185 5.66662 0.25
693 9.8052 1.69776 3.98345 0.25
694 3.07135 3.87904 10.0764 0.25
695 7.30813 1.41934 5.39311 0.25
696 5.16151 1.61086 3.62144 0.25
697 1.35522 8.92494 7.53865 0.25
698 8.5538 5.74687 0.594757 0.25
699 3.12912 7.81665 5.22665 0.25
700 6.70886 7.37504 0.164221 0.25
701 3.53663 5.07383 5.46238 0.25
702 5.85474 3.57229 4.42025 0.25
703 1.48749 0.133821 1.85449 0.25
704 7.8094 4.58291 8.20197 0.25
705 3.89459 5.78951 8.85136 0.25
706 7.77344 0.903786 7.53165 0.25
707 5.6446 6.91098 5.38219 0.25
708 5.52687 6.86831 3.7992 0.25
709 1.0384 4.37362 2.10041 0.5
710 1.2477 4.6987 5.27562 0.25
711 6.86805 4.28122 8.10747 0.25
712 4.45151 8.37166 3.72563 0.25
713 1.7077 4.82773 3.49049 0.25
714 2.39617 10.0612 4.87499 0.25
715 3.15839 3.35643 8.35907 0.25
716 9.52919 9.46207 1.35715 0.25
717 3.98493 5.32222 5.44482 0.25
718 5.6069 3.16596 5.10711 0.5
719 5.50726 2.76538 5.71428 0.25
720 5.62658 1.62206 3.44092 0.25
721 3.73344 8.07163 6.38525 0.25
722 4.14534 5.46098 4.19889 0.25
723 6.06509 6.3627 6.3025 0.25
724 9.64591 0.429213 8.99975 0.25
725 3.79783 0.0643821 6.88888 0.25
726 3.63165 5.4138 4.03825 0.25
727 4.23683 5.81734 4.50385 0.25
728 2.08112 7.90801 9.6059 0.5
729 8.09135 2.02722 6.05127 0.25
730 8.28984 1.19877 8.8817 0.25
731 1.57333 5.71614 10.0351 0.25
732 3.584 7.25643 6.26424 0.25
733 10.0198 2.19779 3.9632 0.25
734 8.69406 7.55512 3.90105 0.25
735 3.98042 1.97714 5.40244 0.25
736 8.4437 6.13869 7.07209 0.25
737 0.632366 4.63522 5.83808 0.25
738 5.03248 8.36378 8.24016 0.25
739 2.95388 3.98671 0.135211 0.25
740 8.53868 6.79799 1.60372 0.25
741 6.74139 2.86205 2.18928 0.25
742 5.45392 1.86104 0.376066 0.25
743 9.81753 2.60649 4.06616 0.25
744 2.39955 2.73442 5.06684 0.5
745 0.334253 4.30024 5.97415 0.25
746 6.8551 5.17275 1.14672 0.25
747 8.52966 2.82202 0.807804 0.25
748 7.19701 10.2056 9.60822 0.25
749 7.38876 4.30179 8.31591 0.25
750 4.33731 1.62463 6.76049 0.25
751 2.24671 2.83357 4.36628 0.25
752 9.62597 2.1584 4.25473 0.25
753 0.518521 3.18622 10.3181 0.5
754 8.1299 1.57567 5.81209 0.25
755 8.05563 2.78503 10.2682 0.25
756 5.13418 1.61741 1.16169 0.25
757 0.232087 2.4879 3.98584 0.5
758 2.11927 10.3136 5.14337 0.25
759 5.08781 2.7479 7.98218 0.25
760 5.05067 1.36932 2.76571 0.25
761 6.12762 6.24097 5.80603 0.25
762 0.220627 3.52664 6.24612 0.25
763 6.36584 4.16467 4.66994 0.5
764 5.88859 6.56164 3.18938 0.25
765 6.79495 6.70501 8.43053 0.25
766 1.3235 5.01225 3.21917 0.25
767 7.82675 2.59359 2.73871 0.25
768 4.90041 2.43432 5.999 0.5
769 1.16075 2.7026 10.3021 0.25
770 6.07005 7.04707 6.04593 0.5
771 6.44279 7.74239 0.914597 0.25
772 7.03561 9.30776 5.36759 0.5
773 6.00752 4.33691 9.91119 0.25
774 6.90901 8.51848 2.69444 0.25
775 10.0248 7.83195 9.20566 0.25
776 4.498 9.42246 0.271847 0.25
777 0.688967 7.99796 2.52302 0.25
778 4.1286 0.382168 9.16182 0.25
779 9.92853 7.79448 9.64106 0.25
780 4.81339 4.85882 9.65686 0.25
781 5.52163 7.23952 3.46155 0.25
782 9.16553 6.20129 1.41319 0.25
783 4.15768 8.49404 3.29874 0.25
784 2.79141 3.52432 0.0182048 0.25
785 9.0268 8.95494 7.91326 0.25
786 6.27101 6.78545 4.80624 0.25
787 6.28814 6.26537 4.8358 0.25
788 5.21061 1.62165 3.16047 0.25
789 6.35905 5.16633 2.65103 0.25
790 5.18184 2.1173 6.6701 0.25
791 8.38622 5.99801 6.61325 0.25
792 4.41359 3.31624 2.28639 0.5
793 0.0770842 0.377685 9.21535 0.25
794 1.82175 1.75155 1.89573 0.25
795 1.52078 9.1088 7.1159 0.25
796 3.05246 10.066 4.76864 0.5
797 9.8183 9.57686 3.47862 0.25
798 9.49826 4.34086 4.65223 0.25
799 3.3441 6.57969 1.76321 0.5
800 9.74001 0.809821 1.87827 0.25
801 6.05901 10.3074 10.0709 0.25
802 6.09248 7.98751 0.163326 0.25
803 9.36463 4.88551 9.53093 0.25
804 4.71162 4.66309 7.03173 0.25
805 9.00876 4.18999 3.99818 0.25
806 2.7789 9.60241 7.4414 0.25
807 3.89813 4.88092 5.7242 0.25
808 9.31712 5.34826 9.81123 0.25
809 1.48461 5.33759 9.67363 0.25
810 7.91931 2.14165 6.50726 0.25
811 8.92858 4.79273 9.32226 0.25
812 3.91625 6.22922 1.34393 0.25
813 1.48999 3.87197 2.33575 0.25
814 1.58338 9.8847 0.075887 0.25
815 3.65996 5.36914 4.77114 0.5
816 6.44397 0.313693 10.1021 0.25
817 4.44112 9.81454 0.907473 0.5
818 8.93348 6.18032 10.2681 0.25
819 3.88797 5.77288 1.23777 0.25
820 7.77066 4.31949 7.35509 0.25
821 8.70407 8.2806 7.51072 0.25
822 3.8812 4.13433 2.64371 0.25
823 2.09753 9.2824 7.57068 0.5
824 6.91466 4.70538 6.99079 0.25
825 7.96311 8.94893 6.34553 0.5
826 7.71394 3.00493 2.42703 0.25
827 8.90596 6.33416 7.17536 0.25
828 9.85849 3.87164 1.53683 0.25
829 0.967182 6.94771 5.17691 0.25
830 3.84596 6.11431 0.878702 0.25
831 2.70268 6.79805 2.06313 0.25
832 4.00335 5.37139 8.64726 0.25
833 6.14925 6.43055 6.98432 0.25
834 8.47422 4.13062 3.98721 0.25
835 1.25317 1.20974 7.38188 0.25
836 6.45661 4.53556 1.77842 0.25
837 3.94078 7.2686 8.55193 0.25
838 2.90406 10.119 7.47239 0.25
839 0.353208 1.73338 3.82777 0.25
840 9.19272 4.66984 4.82994 0.25
841 5.53069 4.91004 9.94657 0.5
842 7.28484 6.85896 8.31432 0.25
843 0.598113 8.90349 2.24497 0.25
844 6.3862 4.37595 1.30798 0.25
845 8.69167 4.54464 4.14409 0.25
846 1.08092 5.69387 4.42713 0.25
847 8.20058 2.45367 0.687526 0.25
848 2.55803 0.904521 9.88661 0.5
849 6.22281 5.54219 2.39216 0.25
850 4.09174 9.12925 3.82624 0.25
851 3.63451 6.55378 1.12365 0.25
852 5.52381 1.34339 3.94676 0.25
853 9.05345 10.1219 4.43038 0.25
854 2.9771 3.13479 7.93223 0.25
855 3.67375 5.92884 1.67926 0.25
856 9.70452 3.33527 7.90035 0.25
857 6.23015 3.6132 5.19858 0.25
858 8.70738 6.60329 3.93385 0.25
859 9.49864 0.873289 1.40768 0.25
860 2.95829 10.2426 4.10683 0.25
861 3.45655 9.48741 1.67869 0.25
862 7.72161 1.09441 8.30575 0.5
863 0.0586297 2.44282 9.64124 0.25
864 5.11525 3.52498 2.37512 0.25
865 0.471931 7.47334 4.78495 0.25
866 2.83232 1.56804 9.81379 0.25
867 3.62879 7.83615 9.77291 0.25
868 9.23408 1.28719 1.51654 0.25
869 0.724372 7.91969 6.13171 0.25
870 7.03668 6.97817 8.74386 0.25
871 7.26969 2.94719 2.16122 0.25
872 8.36019 1.48417 7.63384 0.5
873 5.31537 9.88046 5.07466 0.25
874 6.49165 9.25351 4.8592 0.25
875 3.09511 8.30984 5.3467 0.25
876 3.46017 6.05607 1.22055 0.25
877 0.5334 2.1951 4.63279 0.25
878 10.3546 10.2289 9.39714 0.25
879 0.761438 8.13148 5.26648 0.25
880 5.40189 3.85898 4.9327 0.25
881 4.07228 6.51665 8.76589 0.5
882 10.1636 10.0918 6.25152 0.25
883 5.15547 3.10774 5.76007 0.25
884 2.33401 1.33365 1.64751 0.5
885 9.33637 9.50217 3.68503 0.25
886 9.22076 9.14533 1.12879 0.25
887 1.38378 6.28849 7.46504 0.25
888 1.10045 10.26 2.10987 0.25
889 5.06608 5.1036 7.67896 0.25
890 0.450063 3.82214 5.88595 0.25
891 4.87182 3.95256 2.40122 0.25
892 6.72859 8.56155 3.13026 0.25
893 7.9796 3.23185 10.093 0.25
894 1.88159 7.88437 0.00487578 0.25
895 10.1239 3.6573 7.70271 0.25
896 9.6546 1.29748 1.20533 0.25
897 3.88048 7.58127 6.54784 0.25
898 0.973469 5.27577 4.96017 0.5
899 0.404242 1.0738 6.12232 0.25
900 8.35769 7.68995 4.23323 0.25
901 0.301456 8.13304 5.40426 0.25
902 5.45244 2.40983 1.06578 0.25
903 8.40346 6.7255 3.50644 0.25
904 0.902193 6.02276 10.1957 0.5
905 8.93528 0.903494 1.40045 0.25
906 9.77233 9.39705 3.94376 0.25