ITEM: TIMESTEP
400000
ITEM: NUMBER OF ATOMS
1000
ITEM: BOX BOUNDS xy xz yz pp pp pp
0.0000000000000000e+00 1.0357442000000001e+01 0.0000000000000000e+00
0.0000000000000000e+00 1.0357442000000001e+01 0.0000000000000000e+00
0.0000000000000000e+00 1.0357442000000001e+01 0.0000000000000000e+00
ITEM: ATOMS id x y z radius
1 1.29838 4.35876 2.73588 0.5
2 2.10727 7.4862 2.30493 0.5
3 5.05736 2.3463 1.20017 0.25
4 0.715769 2.85781 4.44994 0.25
5 9.2294 3.47349 7.01017 0.25
6 0.18439 2.7995 9.67228 0.25
7 4.57199 0.87185 3.06546 0.25
8 8.78775 4.01739 2.1419 0.25
9 9.67023 1.49949 1.74002 0.25
10 8.43729 7.6432 3.62586 0.25
11 10.211 8.81196 1.24863 0.25
12 7.71828 3.15188 0.14816 0.25
13 3.21633 7.77518 6.05974 0.25
14 5.09456 1.69963 0.161183 0.25
15 8.8188 6.00861 6.1933 0.25
16 8.9234 8.70566 6.28203 0.25
17 5.21671 8.98912 8.50196 0.5
18 2.77404 7.63332 9.47814 0.25
19 7.28296 4.57522 5.23363 0.25
20 8.98469 1.03984 1.50055 0.25
21 0.0760475 0.0849744 9.75668 0.25
22 4.07972 0.91672 3.14414 0.25
23 4.04504 4.37233 3.04771 0.25
24 2.98877 2.52717 4.39531 0.25
25 7.26397 2.2138 6.0118 0.25
26 5.32889 2.62828 8.41096 0.25
27 1.13695 8.15026 10.0236 0.25
28 9.31717 6.24123 6.1762 0.25
29 3.17784 7.48675 5.58181 0.25
30 0.773017 9.05241 7.35447 0.25
31 0.655883 7.34703 4.61833 0.25
32 9.18293 6.53656 1.07921 0.25
33 10.0607 8.87892 0.774329 0.25
34 1.02055 2.66561 9.748 0.25
35 7.35035 3.4887 10.3491 0.25
36 8.10307 8.61939 9.21841 0.25
37 3.50444 5.07133 6.5611 0.25
38 7.18396 0.18539 0.714706 0.25
39 6.14806 4.06721 5.39735 0.25
40 8.61986 4.10722 4.62811 0.25
41 9.13235 7.04686 3.35035 0.25
42 7.08895 8.8114 1.9669 0.5
43 0.261818 8.43445 5.33078 0.25
44 2.5102 10.1765 3.78494 0.25
45 6.77064 6.40498 8.83578 0.25
46 0.910266 8.8738 6.91048 0.25
47 4.77813 8.36089 3.68498 0.25
48 3.00932 10.1389 3.90456 0.25
49 4.24139 5.85728 9.20958 0.25
50 9.79042 9.07558 3.57905 0.25
51 9.04486 9.03289 1.2125 0.25
52 6.28755 7.08412 0.312265 0.25
53 6.30668 5.40512 2.22844 0.25
54 4.46006 4.71621 7.7951 0.25
55 5.76004 7.02033 6.74315 0.25
56 5.44741 2.24851 1.50423 0.25
57 4.73639 1.76203 0.524452 0.25
58 5.88792 4.585 0.790515 0.25
59 3.93246 7.10709 9.25632 0.25
60 7.01511 6.04396 8.64058 0.25
61 3.35326 10.3793 8.47861 0.25
62 9.23295 5.87409 6.5259 0.25
63 0.591856 5.15974 4.44182 0.25
64 10.1685 1.28923 1.7586 0.25
65 6.59685 6.95917 6.69803 0.25
66 4.34501 0.441869 3.15982 0.25
67 9.39219 5.05628 8.92409 0.25
68 6.02805 10.2364 10.2613 0.25
69 2.78759 7.44941 2.76025 0.25
70 4.26461 5.82585 3.83881 0.25
71 1.36072 8.13767 2.58003 0.25
72 5.3856 7.18044 3.52421 0.25
73 9.03421 8.83526 7.28663 0.5
74 2.38581 7.5115 2.97767 0.25
75 1.03283 6.09885 0.49044 0.25
76 2.17 8.45377 0.290373 0.25
77 7.05173 6.51627 8.46794 0.25
78 3.93859 8.99948 1.25827 0.25
79 1.00637 5.05396 9.53357 0.25
80 8.43694 8.75521 9.58161 0.25
81 8.32877 9.17689 7.28883 0.25
82 1.62474 0.91428 2.35782 0.25
83 1.5665 8.11139 2.03239 0.25
84 5.14472 9.58267 5.3117 0.25
85 3.89876 6.66635 0.994054 0.25
86 9.6384 4.11007 1.51035 0.5
87 1.39515 5.41676 8.29897 0.25
88 2.83781 3.83754 8.23634 0.25
89 0.41389 10.1069 9.94835 0.25
90 7.00957 10.2973 1.47183 0.5
91 4.5523 8.53744 4.11599 0.25
92 9.72929 0.92635 1.14197 0.25
93 8.24442 1.23033 8.46459 0.25
94 0.824835 4.32405 1.58724 0.25
95 7.43367 8.91975 5.97653 0.25
96 7.84388 1.17192 7.16334 0.25
97 5.57619 9.70902 5.45908 0.25
98 10.1694 0.589798 5.82058 0.25
99 5.11543 1.89561 8.4207 0.5
100 5.48076 3.23258 5.79839 0.25
101 5.31231 2.03848 9.83702 0.5
102 4.2478 5.08056 8.47708 0.5
103 7.15535 0.614024 0.460645 0.25
104 1.24451 10.1071 10.0928 0.25
105 1.88099 5.26234 2.99981 0.25
106 6.03736 6.29845 6.46007 0.25
107 5.80828 9.96889 8.4755 0.25
108 1.83562 3.59802 2.12622 0.25
109 7.28127 2.195 2.88039 0.25
110 5.54528 9.79948 5.94823 0.25
111 1.93055 5.3295 0.664038 0.25
112 3.58649 5.39092 5.54322 0.25
113 1.847 10.05 4.25093 0.25
114 8.67661 5.69218 0.0321242 0.25
115 4.41162 3.29802 3.11415 0.25
116 0.513902 1.88415 3.67606 0.25
117 6.68204 2.5405 2.87683 0.5
118 7.4717 8.4036 2.40675 0.25
119 10.2203 2.57933 4.25064 0.25
120 1.66835 5.63157 0.344601 0.25
121 7.72688 2.1812 5.34468 0.5
122 1.99104 4.43463 2.45138 0.25
123 8.92717 8.55765 1.36904 0.25
124 8.4587 5.90848 0.447174 0.25
125 2.16925 9.98357 5.44544 0.25
126 6.09007 7.34168 0.710894 0.25
127 6.25731 7.60417 0.339091 0.25
128 9.99005 9.66254 4.13809 0.25
129 1.44044 5.324 3.2542 0.25
130 8.80353 8.66498 0.917824 0.25
131 7.04935 1.80574 2.85903 0.25
132 8.55785 3.65506 4.40856 0.25
133 8.13654 9.07614 9.33354 0.25
134 4.55054 4.51422 3.06728 0.25
135 5.99689 9.45636 7.96744 0.5
136 8.36522 9.01755 6.84768 0.25
137 1.56571 9.67464 1.54392 0.25
138 7.31079 4.58193 4.73061 0.25
139 6.9601 3.79815 7.98447 0.5
140 3.95077 8.42634 3.5619 0.25
141 2.27276 2.09125 2.21543 0.25
142 3.03414 2.90891 5.19664 0.25
143 7.78097 1.0894 3.71181 0.25
144 10.1301 6.72839 2.24602 0.25
145 3.30962 7.23932 6.04971 0.25
146 6.83231 9.86304 2.95573 0.25
147 4.62628 5.71884 4.1402 0.25
148 2.79408 1.24357 10.1008 0.25
149 10.2377 7.39895 9.35569 0.25
150 4.26637 5.18986 7.69596 0.25
151 6.7933 9.80362 9.82005 0.25
152 4.17331 9.25831 0.897424 0.25
153 5.35525 1.68719 7.73534 0.25
154 5.25455 9.53555 8.02489 0.25
155 3.66253 5.71625 1.60536 0.25
156 0.772114 8.56803 7.26487 0.25
157 5.11568 1.10522 4.26188 0.25
158 8.90876 9.23613 6.25078 0.25
159 3.69527 2.60256 5.57557 0.25
160 2.53425 3.49946 7.99967 0.25
161 3.15559 0.395051 8.25654 0.25
162 4.15359 2.34405 6.12722 0.5
163 6.89983 0.100565 2.21052 0.25
164 5.43229 8.3189 8.14873 0.25
165 0.616939 2.97334 9.74786 0.25
166 7.32133 4.06304 6.89694 0.25
167 9.4044 10.0901 3.86772 0.25
168 9.6744 7.56955 8.79653 0.25
169 8.86102 6.57573 7.50756 0.25
170 3.70772 10.1067 8.22478 0.25
171 1.21374 8.42937 7.5007 0.25
172 9.34739 6.01653 7.01419 0.25
173 0.853852 2.59803 4.84753 0.25
174 4.93484 2.02535 6.31347 0.25
175 9.34384 3.45691 7.53209 0.25
176 0.791957 5.73044 0.278346 0.25
177 9.00476 6.08504 7.37752 0.25
178 6.97485 2.02059 5.19326 0.25
179 2.61282 9.50066 7.55033 0.25
180 7.37666 9.50548 2.51269 0.5
181 0.764547 4.19334 5.73195 0.25
182 8.1076 1.01404 3.3324 0.25
183 2.46115 9.59888 4.40344 0.25
184 9.715 5.04624 9.63546 0.25
185 9.27789 9.02419 6.50298 0.25
186 2.91265 8.07756 9.59839 0.25
187 2.88739 3.67763 0.264317 0.25
188 5.1279 2.51819 7.997 0.25
189 9.72934 0.556979 5.83915 0.25
190 2.22531 7.35208 3.40183 0.25
191 5.0538 2.57236 8.82681 0.25
192 8.59139 9.45726 6.58204 0.25
193 5.15829 2.21379 9.12797 0.25
194 4.48934 9.0341 1.29454 0.25
195 5.20282 5.32661 10.0512 0.25
196 4.72501 1.89127 10.3629 0.25
197 8.7713 6.43837 6.75196 0.5
198 7.41817 1.72732 7.18277 0.5
199 6.72532 10.2315 9.67702 0.25
200 6.68394 1.16872 6.43358 0.25
201 6.12799 6.70817 6.73756 0.25
202 3.70545 8.03701 5.19933 0.25
203 4.37971 10.3359 0.394476 0.25
204 0.272202 4.0508 6.36315 0.25
205 4.11718 0.284847 6.55034 0.25
206 0.998352 1.85539 3.99693 0.25
207 1.15039 5.20969 3.92206 0.5
208 3.87313 4.97211 6.20785 0.25
209 6.86552 10.0878 2.51406 0.25
210 3.96731 10.3469 6.17247 0.25
211 1.75941 4.86768 2.40308 0.25
212 0.262455 3.85256 2.00611 0.5
213 9.02516 3.80274 1.80064 0.25
214 3.23718 5.17834 5.77099 0.25
215 9.93603 0.703295 9.17389 0.25
216 5.68977 2.07662 0.689514 0.25
217 0.58267 8.12492 5.17093 0.25
218 2.15662 1.33037 1.99253 0.5
219 0.791049 4.59753 6.10498 0.25
220 6.53083 9.84123 1.78226 0.25
221 8.25166 7.70551 4.08885 0.25
222 9.44613 6.33384 6.67656 0.25
223 5.4596 9.67529 4.94671 0.25
224 9.64756 3.51908 6.79636 0.25
225 7.60876 1.4471 5.36404 0.25
226 6.48157 8.86885 5.05859 0.25
227 6.98488 0.48484 0.997996 0.25
228 4.92692 1.85122 0.984041 0.25
229 2.17549 2.19686 1.24264 0.25
230 8.67014 6.85612 3.33399 0.25
231 6.67277 4.69215 7.32205 0.25
232 6.89734 9.89962 2.10855 0.25
233 7.86206 1.88926 8.44828 0.5
234 4.44945 9.80626 1.77017 0.25
235 1.20141 8.43898 7.01732 0.25
236 1.22191 5.64404 0.461588 0.25
237 8.18297 0.754521 3.80537 0.25
238 1.04833 5.86396 4.23241 0.25
239 0.171074 3.11959 10.0125 0.25
240 1.47846 8.86526 2.31216 0.5
241 1.80754 9.51152 1.96465 0.25
242 3.65022 7.07824 6.3762 0.25
243 1.30757 6.52165 0.426467 0.25
244 1.10084 1.09473 7.59676 0.25
245 6.19528 7.18255 6.82805 0.25
246 1.5174 8.38771 10.1992 0.25
247 2.8265 7.21163 2.28971 0.25
248 5.56488 1.9508 9.05972 0.25
249 7.30341 4.14844 5.00798 0.25
250 7.07114 1.47763 6.5477 0.25
251 1.60459 1.25566 6.78245 0.25
252 7.27206 7.47703 8.43199 0.25
253 4.00789 7.31401 8.79732 0.25
254 1.29501 9.43944 1.92057 0.25
255 1.55413 0.414539 2.48906 0.25
256 3.78919 6.13142 4.39749 0.25
257 0.842228 10.1784 9.74386 0.25
258 5.12443 4.97725 7.3826 0.25
259 1.94485 0.0169608 4.65906 0.25
260 1.24985 9.69736 0.0166226 0.25
261 7.42119 6.22894 8.43394 0.25
262 5.12411 7.2151 3.07318 0.25
263 8.1632 8.3802 9.66949 0.25
264 7.55008 9.50125 9.65694 0.5
265 4.24568 3.81598 2.43942 0.25
266 4.04558 3.37032 2.31372 0.25
267 3.4315 7.95811 5.58797 0.25
268 3.61508 7.55572 6.27308 0.25
269 7.7861 8.85009 5.59165 0.25
270 3.6668 8.07504 6.1188 0.25
271 4.15493 9.022 1.72984 0.25
272 6.49821 7.03303 5.3778 0.25
273 9.95127 3.1643 7.87118 0.25
274 3.35516 4.84194 6.14123 0.25
275 10.2854 6.30366 2.43984 0.25
276 8.29079 0.73044 8.28386 0.25
277 2.8859 10.0329 8.08898 0.5
278 4.47432 5.89018 8.36842 0.25
279 3.43611 0.117782 7.97363 0.25
280 2.86851 0.165281 8.65705 0.25
281 4.81221 8.8283 3.79503 0.25
282 5.21058 0.685919 3.57406 0.25
283 9.65858 0.10607 8.64839 0.25
284 1.4688 5.25646 0.60182 0.25
285 8.77763 6.69671 0.799146 0.25
286 9.97939 1.67092 2.09921 0.25
287 2.07922 7.96785 2.89872 0.25
288 1.35244 5.67776 4.60695 0.25
289 8.98393 1.27715 1.07099 0.25
290 9.13265 4.23701 2.48899 0.25
291 7.3288 2.9858 10.2398 0.25
292 4.22607 9.41083 1.43191 0.25
293 4.75982 2.61211 7.29684 0.5
294 9.97566 6.64657 2.72767 0.25
295 7.08818 0.856474 7.08355 0.5
296 3.09236 2.9078 4.71795 0.25
297 1.02803 7.99491 4.99817 0.25
298 4.33566 9.39265 0.438135 0.25
299 9.26676 4.85147 9.63464 0.25
300 2.60104 10.085 5.25323 0.25
301 4.76519 7.87171 7.92378 0.25
302 4.96872 4.64598 7.72393 0.25
303 9.25814 5.27134 10.2238 0.5
304 4.52218 3.7026 3.40291 0.25
305 1.80932 8.1438 2.46293 0.25
306 9.86673 7.22982 9.10929 0.25
307 0.841605 9.86882 10.1431 0.25
308 8.73449 5.7693 6.53795 0.25
309 8.44391 1.56002 8.81175 0.25
310 6.82502 6.7822 6.26318 0.25
311 1.34168 0.526722 1.67908 0.25
312 8.9005 1.01996 8.70375 0.5
313 1.68844 8.36551 2.8352 0.25
314 0.88809 4.26473 2.04894 0.25
315 3.349 0.556189 9.02238 0.5
316 7.9344 4.00371 7.47172 0.25
317 6.17408 9.65344 8.57225 0.25
318 9.87057 7.16732 8.58015 0.25
319 9.94005 9.04551 3.06768 0.25
320 1.1049 2.40083 10.14 0.25
321 2.08181 2.06564 1.76658 0.25
322 0.98579 7.03125 4.79484 0.25
323 6.25974 9.99852 9.18863 0.5
324 7.02971 2.02293 3.29179 0.25
325 9.3324 3.89799 2.16692 0.25
326 2.69115 0.174157 4.03139 0.25
327 1.09828 9.243 7.63568 0.25
328 4.56942 3.74141 2.87747 0.25
329 8.67553 7.06267 4.03042 0.5
330 10.108 6.36076 1.9614 0.25
331 9.63379 0.130688 3.80281 0.25
332 6.48708 7.33727 1.06621 0.25
333 9.93338 7.94807 8.79007 0.25
334 6.87243 5.35125 1.53556 0.25
335 5.82535 5.09036 0.8564 0.25
336 9.24268 3.46759 1.42877 0.25
337 4.78285 5.56771 8.64999 0.25
338 7.71519 8.80988 2.37812 0.25
339 3.99727 5.8111 8.39541 0.25
340 1.01783 2.894 10.1453 0.25
341 4.23305 5.89076 4.37441 0.25
342 10.0336 3.07958 7.38675 0.25
343 0.0248066 1.79393 3.91114 0.25
344 4.61855 0.18036 3.46622 0.25
345 6.49 4.31458 0.054887 0.25
346 1.52843 1.27551 7.74486 0.25
347 3.65422 3.99604 0.489865 0.25
348 5.89411 7.78003 0.588332 0.25
349 4.90739 1.58025 7.79777 0.25
350 2.22596 3.25985 8.30019 0.25
351 5.78509 7.45554 3.53699 0.25
352 8.38559 6.65451 1.05367 0.25
353 9.91206 3.06873 6.84746 0.25
354 9.78545 3.82892 2.19031 0.25
355 2.83569 1.3016 1.6374 0.25
356 3.83194 10.0447 1.10085 0.25
357 3.25317 4.65304 5.66387 0.25
358 3.9638 9.70647 0.704562 0.25
359 9.1359 6.25346 0.344474 0.5
360 3.62989 0.149645 6.5569 0.25
361 0.021898 0.926986 6.11381 0.25
362 10.0205 7.6366 8.39849 0.25
363 7.37767 2.4492 2.44203 0.25
364 9.78568 6.36454 2.37904 0.25
365 6.29594 9.28392 4.71776 0.25
366 8.83455 4.19535 1.64591 0.25
367 3.69877 10.2267 8.72106 0.25
368 9.543 6.08421 7.49416 0.25
369 8.89631 4.11633 3.94204 0.5
370 4.99765 1.73878 7.08418 0.5
371 9.53781 6.61468 1.68158 0.5
372 1.39063 2.47488 4.29734 0.5
373 3.42713 9.8511 8.6162 0.25
374 3.20393 10.2234 8.90773 0.25
375 5.18909 0.634817 4.08366 0.25
376 0.570307 5.6882 4.2762 0.25
377 10.1754 7.47058 8.85252 0.25
378 9.40848 8.75437 1.47469 0.25
379 0.4738 4.40184 6.48791 0.25
380 2.04762 2.23508 4.54978 0.25
381 7.02491 5.42869 2.32549 0.5
382 2.22019 8.25437 9.80668 0.25
383 5.64214 8.35937 7.67657 0.25
384 1.40313 6.62938 7.34587 0.25
385 0.952925 6.83663 5.23668 0.25
386 1.53063 5.73692 7.4659 0.25
387 1.13532 5.97447 7.60071 0.25
388 2.37308 1.84521 0.964666 0.25
389 5.87442 2.08558 1.24776 0.25
390 3.15899 4.10876 0.455223 0.25
391 4.36299 0.333008 6.11777 0.25
392 0.488183 5.56942 4.76247 0.25
393 8.59043 8.59246 6.72881 0.25
394 0.0835195 0.415758 6.22233 0.25
395 1.93114 4.76376 2.85113 0.25
396 2.63993 0.537529 8.94457 0.25
397 7.37826 2.36642 3.26577 0.25
398 9.72454 4.287 9.13105 0.25
399 2.31444 9.89273 7.62064 0.25
400 8.14439 3.09499 10.2631 0.25
401 5.62672 7.3399 3.06907 0.25
402 4.30579 5.72601 8.78472 0.25
403 6.1179 4.98574 0.471543 0.25
404 8.26384 2.37941 0.4059 0.25
405 1.50101 6.08212 0.532461 0.25
406 6.54176 9.34669 5.12588 0.25
407 7.46049 6.70901 8.61944 0.25
408 9.74556 8.65825 1.15216 0.25
409 9.70038 6.87607 2.37154 0.25
410 5.46285 1.91756 3.42155 0.25
411 7.89582 9.06112 10.113 0.25
412 4.6417 1.93873 7.73394 0.25
413 7.42706 2.72614 2.88529 0.25
414 6.79609 5.90832 2.80159 0.25
415 4.52894 0.88372 3.79756 0.5
416 9.90296 0.208872 9.11248 0.25
417 3.92815 7.50345 5.71809 0.5
418 0.808973 1.22557 6.86188 0.5
419 9.36448 0.00218588 3.42882 0.25
420 5.25024 8.62825 7.82261 0.25
421 9.41501 6.74394 6.89283 0.25
422 2.1506 7.04647 3.02191 0.25
423 1.4753 5.0474 2.79969 0.25
424 0.35055 0.308977 9.3618 0.25
425 2.65523 9.88146 4.77213 0.25
426 2.44804 1.42476 1.27421 0.25
427 6.70301 1.45555 6.90563 0.25
428 7.34 9.79829 1.88066 0.25
429 5.35963 9.10323 7.76291 0.25
430 9.61838 9.33679 4.04182 0.25
431 6.69258 0.492494 0.606303 0.25
432 2.3932 7.99567 9.42744 0.25
433 3.18091 2.52507 5.47261 0.25
434 5.73196 9.52044 8.72437 0.25
435 10.205 3.11198 9.6408 0.25
436 6.58288 4.78396 0.300035 0.25
437 1.62569 5.49922 9.77264 0.25
438 7.0996 0.976667 6.36299 0.25
439 9.75465 9.74573 3.45733 0.5
440 2.03134 2.94564 7.66931 0.5
441 1.01229 3.85433 2.23095 0.25
442 6.82016 6.98448 0.962728 0.25
443 0.0180857 9.61219 3.74506 0.25
444 1.32571 3.56019 1.90412 0.25
445 5.88645 7.02534 3.32357 0.25
446 8.77369 4.31384 5.12211 0.25
447 6.19797 4.74563 10.3702 0.25
448 5.15755 1.30993 3.16695 0.5
449 9.9471 0.99824 5.84913 0.25
450 2.87469 0.998195 2.04845 0.25
451 3.44056 4.01141 10.0441 0.25
452 5.52007 4.25328 4.91501 0.25
453 6.65647 4.35629 8.28632 0.25
454 1.75219 6.16599 8.65825 0.25
455 1.03408 6.12241 8.07034 0.25
456 2.10447 1.76664 1.37296 0.25
457 9.63952 9.34834 1.13873 0.5
458 1.86292 5.99943 7.18318 0.25
459 1.35984 1.53263 6.46575 0.25
460 2.2303 6.33414 7.37775 0.25
461 3.9019 6.74409 1.77796 0.25
462 4.20024 6.76256 1.34341 0.25
463 1.95527 0.270799 5.06681 0.25
464 9.79584 1.00401 1.61607 0.25
465 6.36299 5.66577 2.65562 0.25
466 4.92866 5.38742 7.91487 0.5
467 3.15114 5.41066 5.31429 0.25
468 2.93955 1.4511 2.0928 0.25
469 4.33978 4.09092 3.27138 0.25
470 3.99073 4.2199 2.54487 0.25
471 2.73213 9.72961 3.95288 0.25
472 1.79605 2.19044 7.72326 0.25
473 3.313 8.37368 9.4544 0.25
474 9.15619 4.30779 2.03369 0.25
475 8.21257 6.48239 3.93347 0.25
476 4.30963 6.30224 1.14745 0.25
477 10.2846 9.20495 3.43656 0.25
478 8.7105 6.00174 1.16489 0.5
479 6.64815 0.0506059 0.809574 0.25
480 2.51077 7.85713 9.86271 0.25
481 3.97346 9.78608 1.55886 0.25
482 6.42962 9.58487 5.59057 0.25
483 6.7921 10.319 0.0952411 0.5
484 9.66016 3.28858 7.19164 0.25
485 7.8312 2.31646 0.11679 0.25
486 4.42672 8.32397 3.32048 0.25
487 3.32927 3.5974 0.542785 0.25
488 6.96868 9.53444 1.85156 0.25
489 8.36171 7.06343 4.65569 0.25
490 2.7301 3.29496 7.62284 0.25
491 8.80776 9.03555 6.65614 0.25
492 7.75947 3.2575 10.018 0.25
493 9.85277 3.5219 7.58542 0.25
494 8.18204 4.01399 4.29254 0.25
495 9.54822 3.78968 7.24472 0.25
496 4.54446 1.82543 6.47339 0.25
497 3.82112 3.94546 0.0403202 0.25
498 7.6411 1.42137 8.98204 0.25
499 4.61942 9.34053 1.66717 0.25
500 4.39832 7.15966 8.98406 0.25
501 2.23576 10.3303 4.17757 0.25
502 8.96441 5.73447 6.97501 0.25
503 6.98156 8.4492 2.58984 0.25
504 6.59381 7.35997 0.635162 0.25
505 7.04416 1.52442 5.80872 0.5
506 5.68405 10.1393 5.62368 0.25
507 7.35502 8.73902 2.72626 0.25
508 5.1761 7.86778 8.26616 0.25
509 1.41427 8.91579 6.93521 0.25
510 5.87173 4.39422 5.22802 0.25
511 3.8382 0.461041 6.21112 0.25
512 1.84423 5.20548 3.50119 0.25
513 1.89337 5.18114 0.235276 0.25
514 3.89098 2.14491 5.46544 0.25
515 2.04025 1.59483 7.33946 0.5
516 5.84759 9.1331 5.37408 0.5
517 8.06501 6.73462 4.36963 0.25
518 2.72782 1.01649 9.12928 0.25
519 2.2395 9.85968 4.0352 0.25
520 5.06637 2.11034 7.72268 0.25
521 1.06676 4.45485 5.39853 0.25
522 2.21439 9.98507 4.5497 0.25
523 2.07745 3.62334 8.01396 0.25
524 8.24145 1.86848 4.99729 0.25
525 1.72225 6.96444 7.51921 0.25
526 1.80172 5.7094 8.35833 0.25
527 6.43234 9.45876 2.46303 0.5
528 6.86219 9.38883 3.06555 0.25
529 4.18469 5.85652 1.0069 0.25
530 1.40223 7.75251 2.36533 0.25
531 10.1511 2.78903 10.0036 0.25
532 1.34366 7.94781 0.0785925 0.25
533 9.51341 9.78995 4.23969 0.25
534 9.08699 4.25559 4.74318 0.25
535 6.9249 7.26518 8.74824 0.25
536 4.28885 9.85424 0.34166 0.25
537 8.38997 1.39944 3.24965 0.25
538 6.64847 4.22015 7.46024 0.25
539 10.2954 3.69428 6.98787 0.5
540 5.91192 10.2491 8.09398 0.25
541 9.27815 8.64382 1.01021 0.25
542 7.72128 9.32555 5.79249 0.25
543 9.20581 4.84791 4.03013 0.25
544 1.47485 2.00666 7.32853 0.25
545 9.43788 9.14636 3.21151 0.25
546 0.223028 0.714165 6.55363 0.25
547 9.50347 3.52 1.85352 0.25
548 9.31398 4.55001 8.93088 0.25
549 1.72968 0.547213 1.9905 0.25
550 9.90745 8.81838 1.60979 0.25
551 2.64377 7.11533 3.15201 0.25
552 9.09053 9.41808 6.7423 0.25
553 5.16054 3.51486 6.09316 0.25
554 9.16038 4.60296 4.42998 0.25
555 5.63373 8.82433 7.52889 0.25
556 1.63028 8.65403 7.25915 0.25
557 2.70969 9.93359 7.3486 0.25
558 3.00873 3.43247 8.07938 0.25
559 9.46708 0.918213 9.23572 0.25
560 3.65692 4.94688 5.77688 0.25
561 1.00047 3.89188 1.71754 0.25
562 5.35204 4.97438 9.75833 0.25
563 5.50869 9.9616 8.06385 0.25
564 1.29594 1.54022 7.40646 0.25
565 2.72567 1.25077 2.46284 0.25
566 9.73528 6.32217 7.11201 0.25
567 0.657379 6.18972 0.177361 0.25
568 7.3026 1.63379 5.03083 0.25
569 7.35554 4.51181 7.47767 0.5
570 4.83152 4.07779 3.18251 0.25
571 3.82223 3.79911 2.24509 0.25
572 8.09772 1.62177 9.11477 0.25
573 0.532982 6.66714 5.40511 0.25
574 10.4192 1.08658 6.87052 0.25
575 5.8688 4.0109 4.57342 0.25
576 5.39236 1.96736 1.08384 0.25
577 0.630395 7.81908 4.74744 0.25
578 1.23253 5.18393 10.2793 0.5
579 5.4356 4.82396 7.74601 0.25
580 8.55656 6.42512 3.58157 0.25
581 7.48546 6.82333 9.17078 0.25
582 7.57458 4.92554 5.04767 0.25
583 8.358 6.04084 6.36722 0.25
584 5.51983 6.69301 3.52122 0.25
585 6.49682 0.422223 1.07386 0.25
586 1.96332 2.60153 4.88349 0.25
587 6.02204 9.80007 5.72748 0.25
588 3.43691 0.938974 9.69899 0.25
589 9.99837 3.49768 1.86902 0.25
590 8.03036 7.26757 4.27031 0.25
591 4.13582 2.60688 5.44251 0.25
592 6.45869 5.18309 2.70307 0.25
593 5.24627 9.45519 5.81309 0.25
594 8.66763 5.60192 9.85407 0.25
595 1.5254 1.79056 7.80286 0.25
596 9.56249 8.78792 0.671587 0.25
597 4.98267 0.337185 3.75238 0.25
598 6.39542 6.93703 0.744812 0.25
599 9.83612 1.16642 2.06285 0.25
600 3.80302 9.28537 2.11264 0.25
601 7.27713 10.1906 2.19275 0.25
602 6.62989 8.22647 2.29879 0.25
603 2.16968 6.84312 7.49439 0.25
604 8.97105 0.526081 1.43583 0.25
605 1.60375 7.86114 2.83636 0.25
606 1.7336 2.09855 6.86402 0.25
607 2.26498 2.23609 7.63219 0.25
608 6.49828 6.13965 5.93257 0.5
609 3.69555 6.90558 1.3495 0.25
610 6.4964 4.82715 1.13193 0.5
611 8.32961 8.68276 7.22269 0.25
612 8.90268 0.334901 3.89772 0.5
613 7.4953 2.66989 0.214686 0.25
614 9.64119 6.58291 0.904938 0.25
615 7.67626 3.9542 7.87979 0.25
616 1.39762 1.68123 6.92228 0.25
617 2.63256 3.05029 8.04165 0.25
618 8.23148 2.60873 10.2881 0.25
619 1.53411 9.59617 2.34907 0.25
620 7.1066 5.56065 3.05033 0.25
621 6.61121 4.57443 1.86257 0.25
622 7.1163 7.18166 9.18102 0.25
623 7.9901 4.3767 4.96236 0.5
624 4.95229 8.31441 8.15818 0.25
625 5.56187 1.98072 0.2527 0.25
626 2.62527 2.81685 4.52379 0.25
627 6.86244 5.14726 2.99411 0.25
628 1.48978 10.0361 0.233897 0.25
629 7.17282 10.1494 9.79306 0.25
630 5.61908 7.38452 0.784853 0.25
631 8.12122 1.5235 5.33956 0.25
632 3.31959 3.78993 0.136512 0.25
633 3.50583 4.26083 0.107479 0.25
634 4.49403 7.85815 8.58541 0.5
635 9.27302 6.45754 7.26762 0.25
636 8.88654 5.16092 9.63448 0.25
637 6.71039 9.61234 4.76857 0.25
638 2.64367 0.327925 4.75185 0.5
639 7.1623 2.92676 2.49727 0.25
640 7.55047 1.47777 7.88835 0.25
641 4.06995 6.2577 4.01768 0.25
642 3.38096 7.89457 6.52589 0.25
643 3.22814 1.00489 10.2158 0.25
644 6.148 9.98948 5.06463 0.5
645 3.0701 3.62936 10.1529 0.25
646 8.22491 6.82481 3.55587 0.25
647 6.66443 6.81188 5.77348 0.25
648 7.19979 1.20545 7.73373 0.25
649 4.66205 5.98509 8.88624 0.25
650 8.23352 1.28773 3.71758 0.25
651 5.20093 8.09698 7.7824 0.25
652 1.35615 5.93391 8.38324 0.25
653 1.06016 4.83151 5.74359 0.25
654 1.43618 6.19034 7.27475 0.25
655 10.1962 3.6157 1.39975 0.25
656 4.62989 4.91446 7.40641 0.25
657 8.68861 9.35808 7.06945 0.25
658 6.74226 4.53079 7.80677 0.25
659 9.42383 10.331 4.28628 0.25
660 1.7469 6.33062 7.90994 0.5
661 1.88874 7.48087 3.04999 0.25
662 7.97475 9.22264 5.38778 0.25
663 2.80716 0.116418 9.16928 0.25
664 0.894652 2.19342 9.73042 0.25
665 8.41307 6.36567 0.613491 0.25
666 5.40475 9.70517 8.44304 0.25
667 8.24664 2.09674 10.3797 0.25
668 7.04584 2.30024 5.63422 0.25
669 3.45756 7.71644 9.20742 0.5
670 0.63689 3.2513 10.1688 0.25
671 0.845047 6.2478 4.82839 0.5
672 5.92495 6.40388 5.65243 0.25
673 3.83136 9.50535 1.1441 0.25
674 7.05249 4.93817 5.00066 0.25
675 7.93276 8.91014 7.46073 0.25
676 5.02491 2.4178 0.490514 0.5
677 9.67147 2.76959 7.15484 0.25
678 9.81286 0.779656 6.53583 0.5
679 1.92077 2.31293 7.31279 0.25
680 2.54129 7.05784 2.68372 0.25
681 8.18425 9.42342 6.92446 0.25
682 3.86368 7.59018 4.98164 0.25
683 0.580893 2.51205 9.53291 0.25
684 1.4121 8.80247 7.73994 0.25
685 8.98497 9.99692 3.62473 0.25
686 6.78048 9.72059 5.27844 0.25
687 9.63545 3.05382 7.5963 0.25
688 5.48326 7.66093 0.380109 0.25
689 2.54487 2.38129 4.28795 0.25
690 -0.049087 7.84294 9.10825 0.25
691 0.230889 8.03318 4.96121 0.25
692 1.17511 4.33371 5.92742 0.25
693 9.79088 2.57253 3.98836 0.25
694 3.2797 3.32508 0.105623 0.25
695 7.80045 1.56618 4.92219 0.25
696 4.9713 1.46126 3.89895 0.25
697 1.1928 8.85193 7.3583 0.25
698 8.86645 5.54839 0.51867 0.25
699 3.39299 7.69324 5.15165 0.25
700 5.57505 8.11918 0.395865 0.25
701 3.38626 4.99968 5.33807 0.25
702 6.18728 3.68732 4.6535 0.25
703 1.52771 0.974841 1.86431 0.25
704 7.09471 4.33695 8.58003 0.25
705 3.83775 5.71215 8.9191 0.25
706 7.57773 1.0934 7.58288 0.25
707 6.35041 6.72546 4.95147 0.25
708 5.46114 6.87824 3.08406 0.25
709 1.59366 4.28841 1.8443 0.5
710 1.4842 4.6107 5.53522 0.25
711 7.46975 3.82903 7.35739 0.25
712 4.37235 8.6816 3.61621 0.25
713 1.59853 4.86992 3.2658 0.25
714 2.26041 10.2068 5.00114 0.25
715 2.83757 3.7787 7.76962 0.25
716 9.09706 9.03052 0.735248 0.25
717 3.10963 5.02997 4.92288 0.25
718 5.57978 3.56161 5.17509 0.5
719 5.02991 3.34115 5.69347 0.25
720 5.01155 1.84762 3.65273 0.25
721 3.94138 7.85517 6.45452 0.25
722 4.18955 5.45518 4.16359 0.25
723 5.63639 6.59266 6.52953 0.25
724 9.52014 0.511899 8.94842 0.25
725 3.95829 10.1592 6.70843 0.25
726 3.85988 5.80052 4.10666 0.25
727 4.43304 5.47507 4.59016 0.25
728 1.75489 7.79414 9.85888 0.5
729 7.6785 1.90563 6.01965 0.25
730 8.08547 1.16432 8.90345 0.25
731 1.90069 5.52612 10.223 0.25
732 3.19707 7.44332 6.46121 0.25
733 10.03 2.17177 4.50521 0.25
734 8.05956 7.31737 3.76968 0.25
735 3.47138 2.16537 5.71932 0.25
736 8.93318 6.49871 6.0252 0.25
737 0.636136 4.67615 5.58853 0.25
738 5.14607 8.20508 8.60442 0.25
739 3.72486 3.53741 0.27692 0.25
740 8.80908 6.77823 1.28909 0.25
741 7.06794 2.06042 2.4288 0.25
742 5.27164 1.73925 0.618175 0.25
743 10.1496 1.74066 4.31654 0.25
744 2.59502 2.31885 5.00351 0.5
745 0.370118 4.35215 5.95172 0.25
746 6.99275 4.90959 1.76695 0.25
747 7.28661 3.36334 9.88262 0.25
748 7.00572 9.93875 9.36402 0.25
749 7.48674 4.33035 8.2093 0.25
750 4.33011 2.03931 6.84221 0.25
751 2.11518 2.4026 4.05934 0.25
752 10.0281 2.1192 4.03739 0.25
753 0.455748 2.49631 10.2648 0.5
754 7.82741 1.50066 5.72905 0.25
755 7.7761 2.78605 10.2086 0.25
756 5.02111 1.95576 1.47317 0.25
757 0.451582 2.1433 4.40585 0.5
758 2.27804 0.0935191 5.42595 0.25
759 4.82818 2.63677 8.41539 0.25
760 4.39166 1.33782 3.22617 0.25
761 5.6886 6.34339 6.10226 0.25
762 0.60187 3.95106 6.68296 0.25
763 6.57336 4.36033 4.86002 0.5
764 5.7761 6.98902 3.78609 0.25
765 7.13533 6.98153 8.38846 0.25
766 1.15161 4.95566 3.14789 0.25
767 7.14399 3.11267 2.95145 0.25
768 5.07115 2.74903 6.17168 0.5
769 1.11796 2.62641 0.213036 0.25
770 6.11492 6.98683 6.10681 0.5
771 5.84802 7.80829 0.0688709 0.25
772 7.24338 9.10474 5.22917 0.5
773 6.02187 4.2921 0.0374526 0.25
774 6.90768 8.93096 2.73762 0.25
775 9.90134 7.70733 9.22407 0.25
776 3.98659 10.1898 0.62983 0.25
777 1.09078 8.18599 2.13312 0.25
778 3.70972 0.284709 8.37354 0.25
779 10.2852 7.86268 9.61859 0.25
780 4.91005 4.97046 9.95964 0.25
781 5.063 6.87767 3.38726 0.25
782 9.4419 6.15378 1.05582 0.25
783 4.77185 8.64868 3.30419 0.25
784 3.55963 3.5247 10.1411 0.25
785 8.37095 8.87327 7.69161 0.25
786 6.67224 6.56507 5.32454 0.25
787 6.22007 6.29181 5.21657 0.25
788 4.59126 1.61093 3.60675 0.25
789 6.88324 4.72488 2.18914 0.25
790 5.18641 2.28461 6.67178 0.25
791 8.4996 6.37883 6.0388 0.25
792 3.81591 3.65242 2.95575 0.5
793 10.3387 0.446929 8.96905 0.25
794 2.64712 1.79173 2.37761 0.25
795 1.13483 9.3204 7.11998 0.25
796 1.58028 9.9176 5.00952 0.5
797 9.26748 9.17034 3.69604 0.25
798 9.41608 4.09243 4.40956 0.25
799 3.16424 6.70236 1.76304 0.5
800 9.89678 1.33075 1.29271 0.25
801 5.83119 10.1558 9.81287 0.25
802 6.32665 7.75036 0.829252 0.25
803 9.6103 4.79143 9.21943 0.25
804 4.83806 5.24825 7.11971 0.25
805 8.74308 4.78644 4.1724 0.25
806 2.3183 9.52191 7.96553 0.25
807 2.87993 4.98548 5.41753 0.25
808 9.3209 5.26613 9.38422 0.25
809 1.47373 5.06805 9.57392 0.25
810 7.34635 1.8956 6.43764 0.25
811 9.29909 4.44006 9.41373 0.25
812 3.86137 6.454 1.37024 0.25
813 1.45237 3.72597 2.38512 0.25
814 1.0058 10.1323 0.214052 0.25
815 3.73668 5.35758 4.74018 0.5
816 6.24415 0.0885851 9.84895 0.25
817 4.54225 9.87315 1.0387 0.5
818 8.97647 5.91139 10.038 0.25
819 3.98641 5.98014 1.43152 0.25
820 6.77377 4.01644 8.66833 0.25
821 7.93941 8.98309 6.97764 0.25
822 4.32677 4.62827 2.68973 0.25
823 1.83083 9.3305 7.42895 0.5
824 7.02487 3.86609 7.25384 0.25
825 8.19981 9.0039 6.16986 0.5
826 6.72982 2.96895 2.30267 0.25
827 9.31581 6.69953 6.38923 0.25
828 9.72027 3.35495 1.42925 0.25
829 1.25808 7.71743 5.28221 0.25
830 3.80053 6.16865 0.945535 0.25
831 2.4945 6.84716 2.18426 0.25
832 4.10573 5.41505 9.17631 0.25
833 6.52997 6.49041 6.53247 0.25
834 8.36018 4.46812 4.3339 0.25
835 1.46216 1.08481 7.24788 0.25
836 6.44206 4.90631 2.2924 0.25
837 3.57495 7.06042 8.81352 0.25
838 2.36986 9.69246 7.12212 0.25
839 0.311572 2.81559 4.19485 0.25
840 9.53629 4.49342 4.15916 0.25
841 5.49135 4.82608 0.127516 0.5
842 7.39194 7.15247 8.78335 0.25
843 1.00988 9.49973 2.37073 0.25
844 6.54968 5.09983 1.83821 0.25
845 8.73205 4.59294 4.65319 0.25
846 0.932516 5.52269 4.55985 0.25
847 7.48255 2.86368 9.80965 0.25
848 2.76744 0.612802 9.74049 0.5
849 6.7631 4.75793 2.6843 0.25
850 4.33569 8.20725 3.7976 0.25
851 3.44026 6.54194 1.10481 0.25
852 5.4276 1.60726 3.79924 0.25
853 9.82692 10.1784 4.08558 0.25
854 2.35965 3.64384 7.57907 0.25
855 3.70988 6.21323 1.7758 0.25
856 9.25139 3.0127 7.22933 0.25
857 6.34375 3.70032 5.12717 0.25
858 8.75288 7.3567 3.34868 0.25
859 9.40406 1.23637 1.35417 0.25
860 1.97909 9.56936 4.3817 0.25
861 3.76988 9.32431 1.61852 0.25
862 7.52581 1.00236 8.39702 0.5
863 0.303347 3.28173 9.51153 0.25
864 4.09077 3.03307 2.74027 0.25
865 0.553379 6.88613 4.90092 0.25
866 2.73803 1.3021 9.5469 0.25
867 3.38317 8.07955 9.84504 0.25
868 9.41306 0.702446 1.49985 0.25
869 0.972689 8.0676 5.52189 0.25
870 7.08558 6.81811 8.86342 0.25
871 6.93614 2.53353 2.18259 0.25
872 8.25825 1.27854 7.76979 0.5
873 5.33951 10.0594 5.23311 0.25
874 6.72499 9.08746 4.72999 0.25
875 3.75821 8.29248 5.68045 0.25
876 3.50575 6.12275 1.35893 0.25
877 0.861594 2.31199 3.75562 0.25
878 10.2407 0.416623 9.41881 0.25
879 1.09061 7.55086 4.78413 0.25
880 5.93028 4.51886 4.7189 0.25
881 4.06936 6.47148 8.78122 0.5
882 0.0585609 0.157508 5.80875 0.25
883 5.23716 2.93332 5.48655 0.25
884 2.78978 2.00826 1.63385 0.5
885 9.17951 9.6266 3.90656 0.25
886 9.1211 8.56054 0.528188 0.25
887 1.06945 6.46245 7.66839 0.25
888 1.2698 0.646308 2.16328 0.25
889 4.80061 4.71773 8.14987 0.25
890 0.753971 4.1106 6.22475 0.25
891 4.45323 3.37762 2.62433 0.25
892 6.51211 8.69742 2.51128 0.25
893 7.98814 2.7827 0.300015 0.25
894 1.82198 8.17811 0.169735 0.25
895 9.42299 3.02474 6.77836 0.25
896 9.3656 1.09099 1.83585 0.25
897 3.62672 7.48634 6.72636 0.25
898 1.04912 5.08921 5.07274 0.5
899 0.144723 1.21062 6.44197 0.25
900 7.94467 6.90674 3.94792 0.25
901 0.133484 7.99805 5.45783 0.25
902 5.54538 2.4598 1.06739 0.25
903 9.05087 6.55104 3.5285 0.25
904 1.30208 6.05887 10.1807 0.5
905 9.16957 0.84598 1.04305 0.25
906 10.0911 9.23539 3.92276 0.25
907 4.41017 4.17606 2.78876 0.25
908 7.26589 6.37783 8.9576 0.25