ITEM: TIMESTEP
530000
ITEM: NUMBER OF ATOMS
1000
ITEM: BOX BOUNDS xy xz yz pp pp pp
0.0000000000000000e+00 1.0357442000000001e+01 0.0000000000000000e+00
0.0000000000000000e+00 1.0357442000000001e+01 0.0000000000000000e+00
0.0000000000000000e+00 1.0357442000000001e+01 0.0000000000000000e+00
ITEM: ATOMS id x y z radius
1 1.2413 4.43697 2.6703 0.5
2 1.9566 7.83888 2.96996 0.5
3 5.58231 1.69794 0.92402 0.25
4 0.757661 2.48387 3.53507 0.25
5 9.32031 3.1786 7.25523 0.25
6 0.239293 3.05987 9.5883 0.25
7 4.2396 0.725607 3.68081 0.25
8 8.74846 3.83532 2.36679 0.25
9 9.84695 1.33897 1.65481 0.25
10 8.93567 7.40212 4.1627 0.25
11 10.3127 8.69811 1.15503 0.25
12 8.16231 2.74297 9.81745 0.25
13 3.75855 7.34668 6.10514 0.25
14 5.54123 2.44632 10.2843 0.25
15 8.76383 5.73553 6.20519 0.25
16 8.97933 8.81827 6.27289 0.25
17 5.28348 9.05367 8.39251 0.5
18 2.58045 7.68547 9.52847 0.25
19 7.1879 4.6451 5.00309 0.25
20 9.01873 1.10025 1.51561 0.25
21 0.26624 0.265391 9.66782 0.25
22 4.31697 0.277559 3.60837 0.25
23 4.03988 3.64119 2.13396 0.25
24 2.78178 2.64737 4.20066 0.25
25 7.37854 2.19402 5.89163 0.25
26 5.40423 2.55741 8.05517 0.25
27 1.59427 8.25527 0.161711 0.25
28 8.97425 5.71462 6.67528 0.25
29 3.8487 7.68008 5.76143 0.25
30 0.969272 8.43398 7.76823 0.25
31 0.350158 6.99536 5.3044 0.25
32 9.27562 6.55147 1.34605 0.25
33 10.2944 8.73418 1.69804 0.25
34 1.10586 2.78455 9.80124 0.25
35 7.96578 2.2897 9.7255 0.25
36 8.58115 8.79805 10.1292 0.25
37 4.16385 5.08767 5.36925 0.25
38 7.1567 0.74819 1.11514 0.25
39 6.332 4.18065 5.1513 0.25
40 8.62488 4.36289 4.79565 0.25
41 8.10889 7.74964 4.46182 0.25
42 7.05518 8.72882 2.0338 0.5
43 0.81053 8.35401 5.6685 0.25
44 3.20068 9.99589 4.86292 0.25
45 7.46439 7.08627 8.89003 0.25
46 0.754513 8.89699 7.67556 0.25
47 4.39283 8.36384 3.57164 0.25
48 3.21101 0.0217039 5.10753 0.25
49 4.22797 5.9013 9.15965 0.25
50 10.1414 9.22338 3.93106 0.25
51 9.13191 8.69523 1.20006 0.25
52 6.23768 7.57903 10.3201 0.25
53 6.44979 5.46665 1.76119 0.25
54 4.48592 4.9205 7.93938 0.25
55 5.52535 6.81401 6.5778 0.25
56 5.18903 1.78356 1.20224 0.25
57 5.8941 2.3251 0.270391 0.25
58 5.65448 4.64684 0.440544 0.25
59 4.03184 7.41909 9.13257 0.25
60 7.23835 7.018 9.3298 0.25
61 3.06862 10.3054 8.93306 0.25
62 8.77792 6.13531 6.95416 0.25
63 0.777204 4.99325 4.354 0.25
64 10.2881 1.11579 1.65515 0.25
65 6.35137 6.7776 6.66857 0.25
66 4.14482 0.628723 3.23539 0.25
67 9.26535 5.42459 9.2443 0.25
68 6.18516 10.3486 0.132398 0.25
69 2.65883 7.56345 2.97262 0.25
70 3.96952 5.91441 3.98669 0.25
71 1.71713 8.08695 2.18184 0.25
72 5.43792 6.87704 3.20165 0.25
73 8.98869 8.81833 7.37175 0.5
74 2.55815 7.79322 3.39772 0.25
75 1.19316 5.83242 0.751086 0.25
76 2.0234 8.46714 0.393138 0.25
77 6.98279 7.21102 8.94599 0.25
78 4.09062 9.7681 1.49678 0.25
79 0.943124 5.31512 9.43835 0.25
80 8.3156 8.48486 9.8152 0.25
81 8.42493 9.28021 7.39367 0.25
82 1.50385 0.905357 2.11604 0.25
83 1.29217 8.16967 2.79641 0.25
84 5.38723 9.68202 5.71183 0.25
85 3.85698 5.64947 1.41666 0.25
86 9.52974 4.33094 1.73984 0.5
87 0.784497 5.80096 8.14647 0.25
88 2.67277 4.02041 8.07493 0.25
89 0.952576 0.379818 10.0948 0.25
90 7.16004 10.1341 1.62932 0.5
91 4.59766 8.6284 3.20578 0.25
92 9.68973 0.798684 1.09686 0.25
93 8.33064 0.875978 8.15556 0.25
94 0.62113 4.34158 1.63969 0.25
95 7.54378 8.99028 6.00156 0.25
96 7.75632 1.24033 7.06609 0.25
97 5.79772 9.91816 5.60789 0.25
98 10.3075 0.438798 6.04164 0.25
99 5.06485 1.84891 8.16569 0.5
100 5.77647 2.86884 5.30209 0.25
101 5.34711 2.25144 9.60735 0.5
102 3.97229 5.43397 8.2294 0.5
103 7.18271 0.198705 1.03886 0.25
104 0.986618 10.2748 10.2655 0.25
105 2.0491 5.1774 2.9241 0.25
106 5.96804 6.22946 6.11213 0.25
107 5.95951 10.057 8.76281 0.25
108 1.71516 3.55589 2.08157 0.25
109 7.41162 2.44523 3.2065 0.25
110 5.9706 10.201 5.92979 0.25
111 1.86899 5.65684 0.362311 0.25
112 3.70924 5.31675 5.54719 0.25
113 2.17533 9.71134 4.29055 0.25
114 8.5612 5.9945 0.376182 0.25
115 4.64932 4.1357 2.99628 0.25
116 0.219201 1.91441 4.48936 0.25
117 7.20466 2.17585 2.54301 0.5
118 7.45386 8.20663 2.29756 0.25
119 10.2451 2.17931 3.4543 0.25
120 1.57524 5.78892 10.3797 0.25
121 7.93914 2.33544 5.37374 0.5
122 1.99436 4.40229 2.3789 0.25
123 9.77653 9.23627 0.944859 0.25
124 8.37953 6.17348 0.850357 0.25
125 1.50663 10.1806 4.68587 0.25
126 6.13928 7.2061 0.31485 0.25
127 6.18673 7.72343 0.417661 0.25
128 9.36467 9.35139 4.19046 0.25
129 1.62162 5.39606 3.13434 0.25
130 9.27466 9.19301 1.07478 0.25
131 7.79037 2.4042 2.95935 0.25
132 8.87685 3.96034 5.01435 0.25
133 8.064 8.7463 10.1679 0.25
134 4.49549 3.53418 1.92858 0.25
135 5.97733 9.67258 8.04735 0.5
136 8.46106 8.93193 6.98941 0.25
137 2.04172 9.63868 1.76698 0.25
138 7.29831 4.17232 5.20815 0.25
139 6.82 4.02602 8.03215 0.5
140 4.29231 8.13787 3.9811 0.25
141 2.11521 1.77955 2.28016 0.25
142 2.66893 2.97625 5.0974 0.25
143 7.59479 1.0097 3.44188 0.25
144 -0.0586125 6.51929 2.23784 0.25
145 3.85743 7.87912 6.20395 0.25
146 6.93022 9.52788 3.11828 0.25
147 3.4344 5.96273 3.95235 0.25
148 3.22336 1.59424 10.0998 0.25
149 10.1667 8.05882 9.48932 0.25
150 4.23281 5.00304 7.52315 0.25
151 6.92879 9.81354 10.0726 0.25
152 4.48512 9.64984 1.17735 0.25
153 5.14095 1.57487 7.46804 0.25
154 5.27274 9.85267 8.28752 0.25
155 3.37295 6.49925 1.37228 0.25
156 0.720665 8.55998 7.33328 0.25
157 5.50398 1.09784 3.0831 0.25
158 8.88799 9.38886 6.34517 0.25
159 3.17514 3.04318 5.37301 0.25
160 2.49472 3.53277 7.97231 0.25
161 3.22264 0.0368113 9.39516 0.25
162 4.09336 2.44538 5.77716 0.5
163 7.28344 10.0511 2.42107 0.25
164 4.93816 8.5839 7.90428 0.25
165 0.868637 3.12625 10.0299 0.25
166 7.29326 3.76763 7.06664 0.25
167 9.14585 10.1523 3.9345 0.25
168 9.53015 7.64504 9.07621 0.25
169 9.47254 6.36706 7.35054 0.25
170 3.39492 0.142787 8.16135 0.25
171 1.03323 8.71632 6.94606 0.25
172 8.71287 6.62763 7.02678 0.25
173 0.777105 2.84925 3.88539 0.25
174 4.69657 2.12434 6.08857 0.25
175 9.29453 3.55115 7.58347 0.25
176 0.817038 5.56817 0.496196 0.25
177 9.07843 6.97212 6.84952 0.25
178 7.50274 1.76969 5.11113 0.25
179 2.62545 9.23175 7.91307 0.25
180 7.42794 9.29085 2.70275 0.5
181 0.79223 3.91529 5.62697 0.25
182 8.0497 1.14553 3.59334 0.25
183 2.50678 10.0832 5.2014 0.25
184 9.1558 5.41191 9.769 0.25
185 9.32583 9.1582 6.4706 0.25
186 2.73974 8.14847 9.74025 0.25
187 2.88626 4.02944 10.0108 0.25
188 5.13503 2.36398 7.68083 0.25
189 9.78461 0.443951 5.85796 0.25
190 2.99658 7.47515 3.40871 0.25
191 4.78888 2.41872 8.64591 0.25
192 8.6328 9.36996 6.94626 0.25
193 5.28139 2.20607 8.82656 0.25
194 3.93597 9.42815 1.12444 0.25
195 4.91571 5.22325 9.7248 0.25
196 5.91648 2.21607 10.1115 0.25
197 9.12555 6.37864 6.34918 0.5
198 7.30366 1.86478 7.19246 0.5
199 6.85953 10.2989 9.9396 0.25
200 7.25949 1.11773 6.33072 0.25
201 5.91473 6.50633 6.5388 0.25
202 3.71678 8.04244 5.39654 0.25
203 4.48106 9.54732 0.248966 0.25
204 10.3661 3.65881 6.21785 0.25
205 3.77935 10.2882 6.42389 0.25
206 0.652899 2.12388 4.57041 0.25
207 1.29357 5.18632 3.80155 0.5
208 4.1219 4.6841 5.74122 0.25
209 6.91872 9.89718 2.75487 0.25
210 3.88091 0.268239 6.68951 0.25
211 1.74477 4.81735 2.26112 0.25
212 0.160527 3.7981 2.01031 0.5
213 8.91404 3.91341 1.86184 0.25
214 3.48618 5.10822 5.90973 0.25
215 9.91541 0.788028 9.20047 0.25
216 4.95833 2.06625 0.464644 0.25
217 0.647774 7.84555 5.65882 0.25
218 2.22946 1.16994 1.85127 0.5
219 0.730204 4.0236 6.12797 0.25
220 6.60982 9.85894 1.97017 0.25
221 9.03614 7.2536 3.69533 0.25
222 9.23726 5.9841 7.06445 0.25
223 5.65504 9.50369 5.31258 0.25
224 9.79854 3.15898 7.07092 0.25
225 8.31563 1.61224 5.57652 0.25
226 6.51285 8.97203 5.28159 0.25
227 6.86663 0.444969 1.33658 0.25
228 5.80384 2.12278 0.703138 0.25
229 2.07409 2.17015 1.46208 0.25
230 8.15664 7.23871 4.4692 0.25
231 6.81448 4.62774 7.00684 0.25
232 7.07191 9.70837 2.22764 0.25
233 7.85386 1.87977 8.51055 0.5
234 4.41754 8.79112 1.44384 0.25
235 0.865203 9.08537 7.23643 0.25
236 1.37567 5.56014 0.375748 0.25
237 7.86499 0.726105 3.7738 0.25
238 0.901794 5.8912 3.9584 0.25
239 0.378554 3.09812 10.017 0.25
240 1.59118 8.84387 2.25679 0.5
241 1.98404 9.54836 2.25822 0.25
242 3.58776 8.01563 6.63659 0.25
243 1.1705 6.31388 0.780197 0.25
244 1.08953 1.66579 7.23501 0.25
245 5.95055 6.92631 6.84863 0.25
246 2.00323 8.17197 10.2961 0.25
247 2.33181 7.18274 2.92124 0.25
248 5.646 2.31634 8.4762 0.25
249 6.85097 4.26296 5.18073 0.25
250 7.4801 1.47447 6.63784 0.25
251 1.70236 1.22226 6.77674 0.25
252 6.58149 7.28276 8.00546 0.25
253 3.67517 7.13835 8.88116 0.25
254 1.61162 9.47582 1.9433 0.25
255 1.35812 0.457865 1.98488 0.25
256 4.00296 5.20332 4.29199 0.25
257 0.589095 0.0369479 9.99259 0.25
258 5.00164 5.18701 7.11282 0.25
259 1.67514 9.78213 4.33224 0.25
260 1.46295 10.1753 0.0839947 0.25
261 6.78148 6.87213 9.21706 0.25
262 4.96843 6.97829 3.37613 0.25
263 8.66985 8.71968 9.59322 0.25
264 7.61992 9.42151 10.0258 0.5
265 4.26773 3.40193 2.89611 0.25
266 4.07531 3.62726 3.35649 0.25
267 3.46554 7.38319 5.66775 0.25
268 3.49761 7.56919 6.37585 0.25
269 7.76739 8.79864 5.61654 0.25
270 3.2887 7.21324 6.11664 0.25
271 3.8158 9.34104 1.60484 0.25
272 6.44394 7.54 5.59807 0.25
273 10.0477 3.99141 7.99768 0.25
274 3.67753 4.65423 6.00028 0.25
275 0.2987 6.4469 2.61187 0.25
276 8.19643 0.786458 8.68094 0.25
277 2.88535 9.89174 8.23964 0.5
278 4.45716 6.08173 8.37317 0.25
279 2.60562 0.100323 8.70137 0.25
280 3.66871 0.377746 9.48815 0.25
281 4.21144 8.81782 3.52075 0.25
282 4.64423 1.30473 3.05677 0.25
283 9.64234 0.120187 8.80716 0.25
284 1.71775 5.3294 0.0982935 0.25
285 8.88881 6.80176 1.28837 0.25
286 10.2454 1.49509 1.9422 0.25
287 1.49011 7.79536 2.50035 0.25
288 1.23694 5.7093 4.28692 0.25
289 9.1347 1.45137 1.18968 0.25
290 9.0575 3.97072 2.69544 0.25
291 7.70179 2.51561 10.0464 0.25
292 4.26698 9.291 1.4301 0.25
293 4.81286 2.60522 7.04385 0.5
294 0.181504 6.90864 2.51193 0.25
295 7.031 0.96018 7.00183 0.5
296 2.57881 3.0202 4.57874 0.25
297 0.548408 7.79749 5.16577 0.25
298 4.0836 9.85391 0.937436 0.25
299 8.85036 5.00411 9.83696 0.25
300 1.84056 0.193949 4.62187 0.25
301 4.86939 8.15482 8.17246 0.25
302 4.96529 4.91757 7.94289 0.25
303 8.91587 5.40269 0.152557 0.5
304 4.60697 4.27046 2.52707 0.25
305 1.66879 8.29892 2.58789 0.25
306 9.6546 7.88163 9.52369 0.25
307 1.39538 0.126635 10.0506 0.25
308 8.49494 5.9271 6.5779 0.25
309 8.60679 1.62353 8.40499 0.25
310 6.59768 6.80451 6.25046 0.25
311 1.8346 0.582739 2.22393 0.25
312 8.87404 0.912486 8.77844 0.5
313 1.24406 8.16373 2.27449 0.25
314 0.759421 4.30479 2.09223 0.25
315 3.01484 0.713502 9.071 0.5
316 7.21496 3.59588 7.51748 0.25
317 6.42946 9.90745 8.6142 0.25
318 9.593 7.40102 9.51153 0.25
319 0.0923066 9.59806 3.74687 0.25
320 1.04736 2.23893 0.122815 0.25
321 1.93579 1.84732 1.83302 0.25
322 0.586127 6.89553 4.87047 0.25
323 6.38374 10.026 9.42174 0.5
324 6.95867 1.79109 3.02504 0.25
325 9.20424 3.75844 2.23848 0.25
326 3.14851 -0.00838942 4.5573 0.25
327 1.46133 8.40203 7.68092 0.25
328 4.62324 3.74915 2.72351 0.25
329 8.25694 7.44067 3.80035 0.5
330 10.1814 6.53059 2.67971 0.25
331 9.52084 10.2256 4.27168 0.25
332 6.56413 7.03961 0.512852 0.25
333 9.98706 7.5864 8.81643 0.25
334 6.65702 5.18275 1.40058 0.25
335 5.73811 5.16198 0.513835 0.25
336 9.09668 3.83069 1.40168 0.25
337 4.67911 5.65159 8.48375 0.25
338 7.74933 8.61108 2.39621 0.25
339 3.96069 6.08932 8.3656 0.25
340 1.01952 2.77691 10.3312 0.25
341 3.66757 5.54793 4.10408 0.25
342 10.1518 3.57425 7.73263 0.25
343 10.1074 2.00013 4.373 0.25
344 4.2495 0.997448 2.88051 0.25
345 6.38905 4.27904 10.2051 0.25
346 1.36126 1.49817 7.64057 0.25
347 3.70401 3.89642 10.1989 0.25
348 5.86321 7.48726 0.689178 0.25
349 4.68703 1.47958 7.62714 0.25
350 2.12939 3.50787 7.64515 0.25
351 5.54379 6.41204 3.14986 0.25
352 8.49809 6.69886 1.56952 0.25
353 10.1639 3.1528 7.44701 0.25
354 9.70626 3.75452 2.16624 0.25
355 2.89627 1.39062 1.54261 0.25
356 4.8739 9.53335 0.983114 0.25
357 3.25179 4.66701 5.78078 0.25
358 4.49683 9.74912 0.700371 0.25
359 9.0749 6.34741 0.677816 0.5
360 4.14731 0.212121 6.23915 0.25
361 0.352206 0.708948 6.23019 0.25
362 9.72587 7.21148 9.07066 0.25
363 7.47491 2.81469 2.84745 0.25
364 10.0132 6.95624 2.43 0.25
365 6.05522 9.18005 5.08167 0.25
366 8.98889 4.24425 2.28232 0.25
367 3.52776 0.383064 8.61764 0.25
368 9.12412 6.78891 7.32495 0.25
369 9.09571 4.13678 4.28523 0.5
370 4.77413 1.64368 6.80014 0.5
371 9.68053 6.4815 1.95612 0.5
372 1.25403 2.31683 4.07453 0.5
373 3.44278 10.2534 8.59429 0.25
374 3.57648 0.176608 9.03408 0.25
375 5.08402 1.27677 2.78997 0.25
376 0.753101 5.47768 4.22158 0.25
377 10.0132 7.60001 9.30082 0.25
378 9.46038 8.79154 0.837396 0.25
379 0.275754 4.05632 6.28084 0.25
380 1.99945 2.13862 4.24039 0.25
381 7.0073 5.17226 2.09428 0.5
382 2.31689 8.36518 9.89298 0.25
383 5.39275 8.6784 7.71028 0.25
384 2.11595 6.27297 7.47707 0.25
385 1.05657 6.76623 4.83015 0.25
386 0.933885 6.02178 7.32933 0.25
387 1.46238 6.28522 8.00363 0.25
388 2.36809 1.99204 1.12196 0.25
389 4.8283 2.05546 0.945477 0.25
390 3.35174 3.84618 9.83272 0.25
391 3.40007 0.146219 6.67902 0.25
392 0.547277 5.32735 4.70021 0.25
393 9.15789 8.66023 6.67852 0.25
394 0.0283053 0.431922 6.5132 0.25
395 1.89294 4.71695 2.71858 0.25
396 3.25894 0.40872 9.72284 0.25
397 7.00157 2.17851 3.32724 0.25
398 9.19395 4.55852 9.25223 0.25
399 2.45353 9.60453 7.64568 0.25
400 8.48771 2.75637 10.2322 0.25
401 5.20541 6.56278 3.50173 0.25
402 4.25331 5.81904 8.70288 0.25
403 6.01766 4.88644 0.260339 0.25
404 8.0214 3.27582 0.556519 0.25
405 1.5436 6.0277 0.471765 0.25
406 6.50646 9.39057 5.11723 0.25
407 6.70164 6.80653 8.75237 0.25
408 10.0297 9.03863 1.30465 0.25
409 10.3403 6.94891 2.02196 0.25
410 5.37186 1.5911 4.21639 0.25
411 8.00962 9.11205 9.40752 0.25
412 4.83847 1.96605 7.45487 0.25
413 6.98316 2.6886 3.06466 0.25
414 6.7192 5.80562 2.41803 0.25
415 4.83867 0.602728 3.2086 0.5
416 9.94242 0.276108 9.18782 0.25
417 3.21038 7.99844 5.88969 0.5
418 0.894171 1.16138 6.60271 0.5
419 9.35045 0.24743 3.97157 0.25
420 5.05116 9.03607 7.64343 0.25
421 9.60103 6.2675 6.86255 0.25
422 2.51422 7.36468 3.36617 0.25
423 1.60001 5.12981 2.67778 0.25
424 0.386383 0.450555 9.24304 0.25
425 2.2379 -0.0262805 4.87191 0.25
426 2.5055 1.51457 1.2224 0.25
427 7.07126 1.58288 6.45773 0.25
428 7.37014 9.43637 1.93303 0.25
429 5.22982 9.57022 7.82585 0.25
430 9.67502 9.02129 3.99411 0.25
431 7.33388 0.582414 0.634066 0.25
432 2.28298 8.10674 9.4914 0.25
433 2.94839 2.59688 5.33517 0.25
434 6.02718 9.60691 8.81845 0.25
435 0.128841 3.4844 9.87197 0.25
436 6.46868 4.65478 0.172444 0.25
437 1.05229 5.77124 9.65205 0.25
438 7.71792 1.06461 6.53209 0.25
439 9.67131 9.71733 3.65043 0.5
440 2.26976 2.78369 7.74273 0.5
441 0.902759 3.89661 2.23776 0.25
442 6.92844 7.3772 0.681247 0.25
443 9.65713 9.76982 4.40615 0.25
444 1.20295 3.57722 1.94977 0.25
445 5.73663 6.67918 3.55991 0.25
446 8.5048 4.848 4.86736 0.25
447 6.16152 4.75427 10.1608 0.25
448 4.74184 1.27634 3.92187 0.5
449 0.148644 0.866562 5.79894 0.25
450 3.01833 0.958298 1.92695 0.25
451 3.15813 3.43586 0.198214 0.25
452 6.14366 4.25076 4.17477 0.25
453 6.92789 4.6257 8.42666 0.25
454 1.62294 5.44884 8.28294 0.25
455 1.70699 5.92638 8.28163 0.25
456 2.0645 1.69751 1.37902 0.25
457 9.76297 8.28007 1.4326 0.5
458 1.31117 6.3381 7.50482 0.25
459 1.52711 1.51355 6.39313 0.25
460 1.34465 6.09469 7.01155 0.25
461 3.13659 6.07201 1.26617 0.25
462 3.48717 5.74094 1.11007 0.25
463 1.93586 9.99856 3.96608 0.25
464 9.82868 0.876965 1.58565 0.25
465 6.32595 5.64348 2.22315 0.25
466 4.78498 5.57264 7.77107 0.5
467 3.27975 5.43644 5.60454 0.25
468 2.85837 1.42186 2.08212 0.25
469 4.46462 3.93441 2.22253 0.25
470 3.95945 3.25435 2.56654 0.25
471 2.97537 10.0309 5.30626 0.25
472 1.76423 2.27801 7.96449 0.25
473 3.18761 8.11149 9.92396 0.25
474 9.28079 4.58755 2.41997 0.25
475 8.01833 6.70672 3.7684 0.25
476 4.00354 6.01132 1.08813 0.25
477 10.1276 9.63245 4.20261 0.25
478 8.72901 6.02367 1.48646 0.5
479 6.69806 0.092254 1.02655 0.25
480 2.32257 7.85395 9.92313 0.25
481 4.72955 9.22681 1.39193 0.25
482 6.5597 9.78692 5.31671 0.25
483 6.93991 0.0466692 0.286695 0.5
484 9.74094 3.39749 7.50878 0.25
485 7.91769 3.19115 0.0840046 0.25
486 4.77664 8.39634 3.93896 0.25
487 3.3561 4.25712 10.147 0.25
488 6.87464 9.4531 1.86063 0.25
489 8.44183 7.21829 3.11012 0.25
490 2.54486 3.22571 8.33348 0.25
491 8.88568 9.06276 6.67852 0.25
492 8.18308 2.34981 10.1459 0.25
493 9.74068 3.87183 7.58381 0.25
494 8.51943 3.92481 4.68474 0.25
495 9.56488 3.61639 7.1349 0.25
496 4.31439 1.83915 6.21934 0.25
497 3.57739 3.65868 0.28198 0.25
498 8.1324 1.25611 8.90221 0.25
499 3.95565 8.98147 1.25832 0.25
500 4.12432 7.37477 8.70398 0.25
501 2.91242 9.89328 4.4928 0.25
502 8.47165 6.37859 6.66037 0.25
503 7.00891 8.22405 2.53897 0.25
504 6.58031 7.49419 0.320669 0.25
505 7.60837 1.5098 5.8746 0.5
506 5.76158 0.0385399 5.44447 0.25
507 7.37405 8.52499 2.69891 0.25
508 5.05017 8.3753 8.60607 0.25
509 1.15317 9.20559 7.6202 0.25
510 5.89947 4.33669 5.02182 0.25
511 3.62177 0.348549 6.30271 0.25
512 2.00211 5.23068 3.39776 0.25
513 1.71129 5.45857 9.93821 0.25
514 3.7361 2.5011 5.13413 0.25
515 2.09192 1.41072 7.36527 0.5
516 6.14151 9.39992 5.79361 0.5
517 8.2685 6.85143 3.35588 0.25
518 2.95202 0.76105 9.88933 0.25
519 2.74186 9.7604 4.97592 0.25
520 5.3115 2.03772 7.32577 0.25
521 1.11074 4.14967 5.41161 0.25
522 2.42759 9.95806 4.66039 0.25
523 2.61799 3.38963 7.50233 0.25
524 8.69118 2.21621 5.06758 0.25
525 2.13202 5.94313 7.05979 0.25
526 1.12809 5.38818 8.10656 0.25
527 6.46001 9.33996 2.5195 0.5
528 6.85165 9.05445 3.14062 0.25
529 4.34159 6.40073 1.13817 0.25
530 2.00517 8.56855 2.83516 0.25
531 10.2867 2.99265 9.95897 0.25
532 1.61183 7.81851 0.038982 0.25
533 9.01226 9.6263 3.87095 0.25
534 8.97816 4.77382 4.68316 0.25
535 7.03808 7.17309 8.06439 0.25
536 4.04713 9.6802 0.45722 0.25
537 8.05255 1.43409 3.99744 0.25
538 6.73121 4.65621 7.53929 0.25
539 10.266 3.74587 6.97648 0.5
540 6.14076 10.2858 8.39333 0.25
541 9.5888 8.8961 1.29002 0.25
542 7.68472 9.45161 6.01244 0.25
543 9.0593 4.60206 3.70386 0.25
544 1.871 2.14657 7.48688 0.25
545 10.184 9.2779 3.43262 0.25
546 0.175427 0.94825 6.61037 0.25
547 9.33076 3.59995 1.77088 0.25
548 9.1022 4.97623 9.02683 0.25
549 1.40822 0.506159 2.44469 0.25
550 9.92418 8.77688 0.88844 0.25
551 2.82905 7.1053 3.05435 0.25
552 9.12182 9.40107 6.8746 0.25
553 5.60419 3.13462 5.70608 0.25
554 8.97691 4.85889 4.1491 0.25
555 5.50216 9.19657 7.64634 0.25
556 1.35559 9.07706 7.15073 0.25
557 2.92036 9.5079 7.57157 0.25
558 2.38349 3.73934 8.39236 0.25
559 9.43477 0.958156 9.30821 0.25
560 3.72397 4.84939 5.5384 0.25
561 0.838961 3.87031 1.73211 0.25
562 5.31421 5.04764 9.45072 0.25
563 5.61468 10.2156 8.41689 0.25
564 1.52451 1.84898 7.32343 0.25
565 2.77478 1.11775 2.39811 0.25
566 8.97765 6.28383 7.38547 0.25
567 0.765877 6.01506 0.770579 0.25
568 8.01381 1.65818 5.19301 0.25
569 7.41092 4.37566 7.43121 0.5
570 4.86336 3.60521 2.32373 0.25
571 3.76684 3.33918 3.03191 0.25
572 8.49776 1.56302 8.88162 0.25
573 1.22023 6.46972 5.20016 0.25
574 0.161349 1.41345 6.57993 0.25
575 5.58502 4.06156 4.74907 0.25
576 5.30505 2.02845 0.774333 0.25
577 0.335803 7.49357 5.43933 0.25
578 1.06602 5.20917 10.1671 0.5
579 5.21445 5.01028 7.50698 0.25
580 7.82568 6.95076 4.15796 0.25
581 6.97594 6.48346 8.46232 0.25
582 7.26226 4.84126 4.62245 0.25
583 8.49196 6.14568 6.18218 0.25
584 5.80206 7.15201 3.40898 0.25
585 6.86639 0.535664 0.841699 0.25
586 1.72695 2.18425 4.6442 0.25
587 6.21538 10.1504 5.47235 0.25
588 3.01756 1.45499 9.23403 0.25
589 9.82274 3.56945 1.7185 0.25
590 8.73881 6.97644 3.46343 0.25
591 3.66731 2.9873 5.35501 0.25
592 6.50021 5.37139 2.55983 0.25
593 5.65558 9.89388 6.08777 0.25
594 8.50165 5.88535 10.1956 0.25
595 1.74936 1.81651 7.82503 0.25
596 9.77924 8.95339 1.72199 0.25
597 4.68025 1.05133 2.64733 0.25
598 6.50957 7.16683 -0.0167332 0.25
599 9.97916 1.04517 2.03283 0.25
600 4.16628 9.43476 1.92351 0.25
601 7.57988 9.80152 2.14459 0.25
602 6.625 8.05779 2.26223 0.25
603 1.74673 5.96563 6.77571 0.25
604 8.83369 0.67063 1.35551 0.25
605 2.12504 8.35637 2.43751 0.25
606 1.9252 2.00127 6.99623 0.25
607 2.19196 2.02038 7.8731 0.25
608 6.55175 6.41556 5.57479 0.5
609 3.35176 5.71744 1.59639 0.25
610 6.28156 4.72319 0.917599 0.5
611 8.24052 8.84826 7.39773 0.25
612 8.57974 0.305892 3.7624 0.5
613 7.77911 3.04641 9.92887 0.25
614 9.6948 6.37851 1.17527 0.25
615 7.51641 3.73685 7.8961 0.25
616 1.4916 1.65467 6.88215 0.25
617 2.07564 3.41893 8.13242 0.25
618 8.33704 3.02353 0.238011 0.25
619 1.54785 9.53845 2.48648 0.25
620 6.34188 5.76427 2.72656 0.25
621 6.27988 4.46986 1.6047 0.25
622 7.20692 6.70504 8.08003 0.25
623 7.89979 4.38169 4.81317 0.5
624 4.81989 8.69765 8.87327 0.25
625 5.05341 2.35553 0.00993497 0.25
626 2.31041 2.80724 4.22825 0.25
627 6.77713 5.09962 2.80263 0.25
628 1.21748 9.79384 0.0736328 0.25
629 7.33616 10.1054 10.0856 0.25
630 5.64367 7.12143 0.351811 0.25
631 8.60234 2.0104 5.57392 0.25
632 3.23987 3.83539 10.3168 0.25
633 3.5272 3.48238 10.1965 0.25
634 4.4151 8.03443 8.78847 0.5
635 9.15498 6.43801 6.98725 0.25
636 8.64835 5.46268 9.8412 0.25
637 6.40637 9.24922 4.68284 0.25
638 2.46461 0.135548 4.20278 0.5
639 7.0062 2.94218 2.65933 0.25
640 7.46542 1.56806 7.87686 0.25
641 4.13783 5.41491 3.90378 0.25
642 3.51603 7.15276 6.54409 0.25
643 3.29427 1.77139 9.54176 0.25
644 6.01612 9.91181 4.84737 0.5
645 2.76862 3.75521 0.104523 0.25
646 8.32188 6.8357 4.19401 0.25
647 6.68024 7.14574 5.82074 0.25
648 7.03686 1.3061 7.78808 0.25
649 4.67074 5.96555 8.88225 0.25
650 7.66525 1.12535 3.90889 0.25
651 4.69473 8.58067 8.40152 0.25
652 1.24972 5.8514 8.12376 0.25
653 0.807152 4.37753 5.77236 0.25
654 1.72605 6.53056 7.61463 0.25
655 10.1034 3.82797 1.36009 0.25
656 4.72445 4.91322 7.48977 0.25
657 8.10843 9.27372 7.0341 0.25
658 6.98409 4.80831 7.9514 0.25
659 9.0195 0.0213528 4.33359 0.25
660 1.6231 5.68757 7.544 0.5
661 2.17513 7.55844 3.66584 0.25
662 7.90626 9.20795 5.69313 0.25
663 3.76222 0.625073 9.02379 0.25
664 1.17002 2.3701 10.0337 0.25
665 8.48826 6.60389 1.03663 0.25
666 5.55032 9.74015 8.66654 0.25
667 7.90002 2.77815 0.443781 0.25
668 7.24785 2.0003 5.47816 0.25
669 3.38694 7.59641 9.47165 0.5
670 0.567819 3.46225 10.2316 0.25
671 0.725911 6.09302 4.66204 0.5
672 5.9322 6.76651 5.37055 0.25
673 4.56057 9.59624 1.67948 0.25
674 7.1013 4.2366 4.73754 0.25
675 7.91898 9.18687 7.4837 0.25
676 5.49224 1.70395 0.121689 0.5
677 9.87824 3.14515 7.91967 0.25
678 9.93418 1.03334 6.26201 0.5
679 2.28757 2.08813 7.3551 0.25
680 2.50699 6.87215 3.30871 0.25
681 7.97649 8.82864 7.04827 0.25
682 3.64297 7.59775 5.26358 0.25
683 0.699228 2.93904 9.55293 0.25
684 1.51811 8.53908 7.17787 0.25
685 9.26546 0.0153965 3.52289 0.25
686 6.8095 9.60694 4.84248 0.25
687 9.66329 3.58831 7.97692 0.25
688 5.39533 7.51713 0.56151 0.25
689 2.39356 2.33908 4.11532 0.25
690 10.3737 7.88028 9.07383 0.25
691 1.09519 8.03842 5.76815 0.25
692 1.1581 4.03551 5.90921 0.25
693 9.79787 1.94896 3.42314 0.25
694 2.94253 4.1875 0.121731 0.25
695 8.47733 1.83624 5.13549 0.25
696 5.39636 1.00837 3.56226 0.25
697 1.18151 8.72344 7.44858 0.25
698 8.56906 5.68293 0.833154 0.25
699 3.90762 8.21507 5.80648 0.25
700 5.58498 7.77905 0.97627 0.25
701 3.3006 4.98478 5.41392 0.25
702 5.77404 3.85843 4.34484 0.25
703 2.18851 0.39276 1.84398 0.25
704 7.31514 4.30062 8.59806 0.25
705 3.81444 5.96338 8.79606 0.25
706 7.504 1.20117 7.53242 0.25
707 6.32264 7.41662 5.16116 0.25
708 5.39121 6.99784 3.69565 0.25
709 1.45353 4.23073 1.83208 0.5
710 1.30763 4.47833 5.72898 0.25
711 6.86051 3.84412 7.33721 0.25
712 4.67347 8.80153 3.69718 0.25
713 1.66721 4.89294 3.1719 0.25
714 1.98983 10.1055 4.51465 0.25
715 2.83717 3.58764 8.32747 0.25
716 9.25228 8.99108 1.56493 0.25
717 2.92108 5.23463 5.2834 0.25
718 5.94075 3.52478 5.03475 0.5
719 5.43918 2.84842 4.95916 0.25
720 5.44966 1.11184 4.05311 0.25
721 3.06854 7.43336 6.51861 0.25
722 3.64363 5.89518 4.41322 0.25
723 5.55722 6.48789 6.23704 0.25
724 9.496 0.539609 9.01361 0.25
725 4.24359 10.2872 6.62536 0.25
726 4.0536 5.6627 4.36212 0.25
727 3.23451 5.6774 4.35317 0.25
728 1.57884 8.11218 9.76674 0.5
729 7.83084 2.19324 6.1304 0.25
730 8.3336 1.24983 8.4531 0.25
731 1.48537 5.9062 9.88573 0.25
732 3.88567 7.51574 6.58022 0.25
733 9.86753 2.45178 3.67658 0.25
734 8.80506 6.94515 3.984 0.25
735 3.38025 2.56991 5.4578 0.25
736 9.27121 5.66678 6.2727 0.25
737 0.591886 4.2427 5.31387 0.25
738 5.30614 8.33193 8.12329 0.25
739 3.49535 4.1505 0.231303 0.25
740 8.96409 6.64417 1.75106 0.25
741 7.80483 2.69609 2.51112 0.25
742 5.41428 2.33365 0.4061 0.25
743 9.79804 2.43728 4.25152 0.25
744 2.48573 2.26532 4.80783 0.5
745 0.377838 4.16064 5.77194 0.25
746 6.72627 4.6528 1.58407 0.25
747 7.78019 2.02241 10.1568 0.25
748 7.11352 9.94886 9.64207 0.25
749 7.61512 4.16384 8.15229 0.25
750 4.4429 2.3077 6.46436 0.25
751 1.99234 2.53389 3.89942 0.25
752 9.94046 2.03814 3.90286 0.25
753 0.467489 2.42755 10.0211 0.5
754 8.22644 1.98433 5.91573 0.25
755 8.02136 2.76949 10.2777 0.25
756 5.59845 2.1342 1.19142 0.25
757 0.196448 2.45544 4.0638 0.5
758 1.67569 10.3136 4.211 0.25
759 4.86533 2.54695 8.15728 0.25
760 4.631 0.526733 3.90778 0.25
761 5.80917 6.46009 5.7275 0.25
762 0.47135 3.6642 6.44912 0.25
763 6.49526 4.74123 4.60802 0.5
764 5.91867 6.76725 3.10478 0.25
765 6.74583 7.27233 8.489 0.25
766 1.24481 5.03265 3.05047 0.25
767 6.66695 2.62437 2.68635 0.25
768 5.21048 2.52662 5.64297 0.5
769 0.748799 2.58801 0.326738 0.25
770 5.96782 7.06185 6.09159 0.5
771 5.7067 7.88607 0.503169 0.25
772 7.17567 9.38 5.45638 0.5
773 5.93233 4.31422 10.0562 0.25
774 6.92822 8.74297 2.77382 0.25
775 9.84543 8.02886 9.06577 0.25
776 4.93915 9.55105 0.45503 0.25
777 1.57328 8.52782 2.97505 0.25
778 3.04164 0.235447 8.50193 0.25
779 10.2596 8.32739 9.08602 0.25
780 4.93195 4.76077 9.67103 0.25
781 5.34028 7.33422 3.38259 0.25
782 9.44513 6.05297 1.39259 0.25
783 4.33723 8.64139 4.0058 0.25
784 3.15268 3.86182 0.444209 0.25
785 8.32146 9.0247 7.82804 0.25
786 6.7333 7.19221 5.31921 0.25
787 6.32575 6.92443 5.08045 0.25
788 5.13397 0.686977 3.8866 0.25
789 6.45289 4.65137 2.07854 0.25
790 4.98133 2.31091 6.39487 0.25
791 8.71888 6.05182 5.80028 0.25
792 3.94547 4.02635 2.77944 0.5
793 10.3367 0.491283 8.99203 0.25
794 2.55624 1.57746 2.42126 0.25
795 1.18014 8.83769 7.9621 0.25
796 1.9629 9.62892 5.07366 0.5
797 9.8468 8.93521 3.5227 0.25
798 9.37885 4.80868 4.43438 0.25
799 3.07792 6.30664 1.98499 0.5
800 10.0283 1.16587 1.22974 0.25
801 6.03077 10.2902 10.017 0.25
802 6.38486 7.41415 0.736518 0.25
803 9.26964 4.98481 9.49658 0.25
804 4.4909 5.208 7.1627 0.25
805 8.55398 4.63212 3.96734 0.25
806 2.2589 9.50615 8.11171 0.25
807 2.97883 5.06692 5.76338 0.25
808 8.90549 5.72817 9.4355 0.25
809 1.41884 5.47763 9.54709 0.25
810 7.43058 1.99467 6.44996 0.25
811 8.7736 4.77068 9.36987 0.25
812 3.60566 6.07514 1.41111 0.25
813 1.38467 3.72318 2.38206 0.25
814 1.26012 10.0186 9.96757 0.25
815 3.58653 5.29984 4.87621 0.5
816 6.43917 0.167253 10.0657 0.25
817 4.41322 9.03795 0.713779 0.5
818 8.89582 6.12176 0.0104674 0.25
819 3.84473 6.4425 1.2137 0.25
820 6.85915 4.20692 8.76847 0.25
821 8.32756 8.47897 7.01651 0.25
822 4.20115 3.15804 2.04813 0.25
823 1.90313 9.04525 7.66952 0.5
824 6.62785 4.22786 7.3268 0.25
825 8.20451 9.00612 6.33247 0.5
826 6.912 2.75368 2.19943 0.25
827 9.49675 5.78718 6.72288 0.25
828 9.55858 3.70658 1.32524 0.25
829 0.906694 7.72306 4.8487 0.25
830 4.09535 6.14985 1.53334 0.25
831 2.02615 7.17619 3.35523 0.25
832 3.9885 5.50347 8.97545 0.25
833 6.3675 6.40038 6.29455 0.25
834 8.39874 4.24189 4.28387 0.25
835 1.44008 1.32355 7.187 0.25
836 6.30346 5.1443 2.14475 0.25
837 3.84769 7.02958 9.33972 0.25
838 2.55909 9.19848 7.38304 0.25
839 0.387749 2.22909 3.42404 0.25
840 9.46127 4.73687 3.97872 0.25
841 5.47372 4.91506 10.1312 0.5
842 6.7257 6.81738 8.22659 0.25
843 1.14805 9.56795 2.1564 0.25
844 6.36502 4.96385 1.69766 0.25
845 8.52942 4.66844 4.43092 0.25
846 1.0465 5.37938 4.56965 0.25
847 7.78958 2.38477 0.15162 0.25
848 3.563 1.12181 9.65162 0.5
849 6.46865 4.83794 2.5259 0.25
850 4.89316 8.32827 3.45191 0.25
851 3.73518 5.91695 1.82862 0.25
852 5.39059 1.49357 3.72957 0.25
853 9.18962 9.8518 4.28174 0.25
854 2.89313 3.19578 7.94545 0.25
855 3.4997 6.21079 0.919838 0.25
856 9.39493 3.12251 7.80493 0.25
857 6.61399 3.97771 4.80241 0.25
858 8.56655 7.57314 4.45739 0.25
859 9.5176 1.17794 1.32255 0.25
860 2.62164 9.68446 5.45216 0.25
861 4.56182 9.09443 1.80414 0.25
862 7.56771 0.999029 8.28274 0.5
863 0.609089 3.4109 9.69039 0.25
864 4.34035 4.07293 3.40003 0.25
865 0.728528 6.57896 5.25318 0.25
866 2.92094 1.21095 10.1065 0.25
867 3.28564 7.74166 10.2011 0.25
868 9.34755 0.753906 1.48295 0.25
869 0.695208 8.16895 4.89389 0.25
870 7.12622 6.99814 8.52799 0.25
871 7.40327 2.93176 2.35231 0.25
872 8.22045 1.43994 7.66805 0.5
873 5.42885 10.0025 5.30238 0.25
874 6.87074 9.12614 4.86915 0.25
875 3.27647 7.97863 5.15589 0.25
876 3.74129 6.45849 1.73169 0.25
877 0.674516 1.90415 4.15299 0.25
878 10.3027 0.5025 9.45442 0.25
879 0.504403 7.36851 4.99022 0.25
880 5.80257 4.38604 4.51024 0.25
881 4.23931 6.58075 8.86687 0.5
882 10.3193 10.356 6.3325 0.25
883 5.29317 3.1548 5.30954 0.25
884 2.67216 1.99959 1.78933 0.5
885 8.91143 10.0037 3.59265 0.25
886 9.61004 9.35112 1.42839 0.25
887 1.94437 6.2288 7.993 0.25
888 1.73319 0.572992 1.74178 0.25
889 4.74124 5.11819 8.32773 0.25
890 0.414587 3.71819 5.93564 0.25
891 4.5088 3.68043 3.21819 0.25
892 6.54217 8.50579 2.52376 0.25
893 8.26779 3.17201 10.1119 0.25
894 1.96448 7.96921 0.365487 0.25
895 9.69523 2.88039 7.51634 0.25
896 9.46719 1.08926 1.82997 0.25
897 3.44574 7.56291 6.826 0.25
898 1.02183 4.85981 5.16023 0.5
899 0.25263 1.17728 6.13757 0.25
900 8.49678 6.6712 3.76878 0.25
901 0.948996 8.04046 5.28289 0.25
902 5.04056 1.60824 0.754406 0.25
903 7.69256 7.41073 4.30174 0.25
904 0.962369 6.15749 0.0563848 0.5
905 9.15867 0.965614 1.01529 0.25
906 9.85238 9.31282 4.29491 0.25
907 4.38255 3.44895 2.41476 0.25
908 7.16986 6.69153 8.9237 0.25