ITEM: TIMESTEP
350000
ITEM: NUMBER OF ATOMS
1000
ITEM: BOX BOUNDS xy xz yz pp pp pp
0.0000000000000000e+00 1.0357442000000001e+01 0.0000000000000000e+00
0.0000000000000000e+00 1.0357442000000001e+01 0.0000000000000000e+00
0.0000000000000000e+00 1.0357442000000001e+01 0.0000000000000000e+00
ITEM: ATOMS id x y z radius
1 1.20322 4.37354 2.77344 0.5
2 2.1876 7.48228 2.49728 0.5
3 5.09813 1.56614 0.957038 0.25
4 1.14581 2.05858 3.686 0.25
5 9.16986 3.58578 7.00872 0.25
6 0.509647 3.30593 9.42978 0.25
7 4.2203 1.18582 3.21155 0.25
8 8.95841 4.4434 2.45078 0.25
9 9.82753 1.47397 1.65537 0.25
10 8.88437 7.08001 4.30939 0.25
11 8.94819 9.0662 0.790986 0.25
12 7.60179 3.0507 10.1035 0.25
13 3.78959 7.6095 5.97072 0.25
14 5.7194 2.0527 0.107293 0.25
15 8.65912 5.63251 6.4506 0.25
16 8.93414 8.66868 6.60464 0.25
17 5.39042 9.07373 8.58051 0.5
18 2.54709 7.88394 9.32005 0.25
19 7.02106 4.51401 5.19175 0.25
20 9.11469 0.98835 1.45047 0.25
21 0.229069 0.357526 9.74396 0.25
22 4.09859 0.696019 3.32281 0.25
23 4.80646 3.92858 2.16685 0.25
24 2.97247 2.87979 4.41103 0.25
25 7.31552 2.22691 6.15931 0.25
26 5.39257 2.57638 8.54892 0.25
27 0.887219 8.17663 10.2618 0.25
28 8.98727 5.91926 6.27034 0.25
29 3.982 7.96357 5.66932 0.25
30 1.43245 8.79095 6.95974 0.25
31 0.942512 7.09623 5.37714 0.25
32 9.06307 6.64502 1.07531 0.25
33 9.05014 8.56825 0.889865 0.25
34 0.627336 2.94819 10.3127 0.25
35 7.5625 3.41975 9.73975 0.25
36 8.28562 8.32737 9.46304 0.25
37 3.77817 4.90923 6.55286 0.25
38 7.47513 0.343854 1.28278 0.25
39 6.15376 3.81246 5.14251 0.25
40 8.50464 4.63061 4.7018 0.25
41 8.90167 6.27883 4.01356 0.25
42 6.99678 8.64457 2.01496 0.5
43 0.328235 8.37288 5.55188 0.25
44 2.80699 9.8516 4.64381 0.25
45 7.5987 7.15666 8.72131 0.25
46 1.37047 8.55263 7.41114 0.25
47 4.33228 8.56932 3.80231 0.25
48 3.00094 10.1302 4.24562 0.25
49 4.30389 5.9827 9.32403 0.25
50 10.2107 9.37443 3.36879 0.25
51 9.77959 8.97717 1.73235 0.25
52 6.47644 7.51432 0.265514 0.25
53 6.86334 4.76674 2.2253 0.25
54 3.9909 4.68815 8.05301 0.25
55 5.57697 6.89686 6.72753 0.25
56 5.09856 1.84645 1.40747 0.25
57 5.80627 1.64523 0.368562 0.25
58 5.92653 4.53449 0.574921 0.25
59 3.90018 7.23477 9.29868 0.25
60 7.57756 7.21732 8.23753 0.25
61 3.33866 0.169641 9.05431 0.25
62 9.09771 5.73951 6.73955 0.25
63 0.593412 5.24913 4.2615 0.25
64 10.3048 1.37846 1.55596 0.25
65 6.39734 7.16974 6.5393 0.25
66 4.33537 0.861754 2.88988 0.25
67 9.48363 5.33324 9.01498 0.25
68 6.40045 10.1778 10.3092 0.25
69 2.83475 7.54812 2.85759 0.25
70 3.9799 5.71855 3.72215 0.25
71 1.25046 8.05327 2.77629 0.25
72 5.43412 6.96891 3.2942 0.25
73 9.20518 8.91284 7.27085 0.5
74 2.51188 7.88367 3.11481 0.25
75 1.04425 6.04083 0.511623 0.25
76 2.09767 8.08171 0.365025 0.25
77 7.36208 6.79633 8.43297 0.25
78 3.58646 9.54345 1.10964 0.25
79 0.853262 5.19743 9.51928 0.25
80 8.68708 8.63198 9.3636 0.25
81 8.55042 9.24298 7.3225 0.25
82 1.67905 0.84028 2.08944 0.25
83 1.58619 7.69357 2.19233 0.25
84 5.34008 9.62689 5.59534 0.25
85 3.73229 5.85025 1.56889 0.25
86 9.4539 4.15237 1.4778 0.5
87 1.09835 5.7627 8.28794 0.25
88 2.76096 3.79813 8.25789 0.25
89 0.527182 0.0860271 10.084 0.25
90 7.06598 10.1726 1.61491 0.5
91 4.11064 8.71696 3.39964 0.25
92 9.68176 1.2086 0.954528 0.25
93 8.36178 1.2853 8.56281 0.25
94 0.665125 4.24715 1.58712 0.25
95 7.85968 8.59603 5.70583 0.25
96 7.84558 1.19551 7.28705 0.25
97 5.76101 9.76759 5.44355 0.25
98 9.86182 0.947597 6.06613 0.25
99 5.06412 1.87991 8.48989 0.5
100 5.20715 2.68552 5.25327 0.25
101 5.5407 2.16697 9.76154 0.5
102 3.96884 5.28924 8.56524 0.5
103 7.00611 0.443547 0.610863 0.25
104 1.33977 10.285 10.1072 0.25
105 1.9183 5.27457 2.89367 0.25
106 6.16011 6.417 6.474 0.25
107 6.10889 9.9323 8.68937 0.25
108 1.7408 3.56802 2.16136 0.25
109 7.44814 2.25045 3.01599 0.25
110 5.87201 10.2277 5.60325 0.25
111 1.68409 4.70396 0.339123 0.25
112 3.82618 5.25645 5.54589 0.25
113 2.37381 9.83778 5.31925 0.25
114 8.54997 5.98185 10.3375 0.25
115 3.89146 4.15857 2.90896 0.25
116 0.325747 2.49527 4.50886 0.25
117 7.13278 2.36532 2.23306 0.5
118 7.29561 8.18253 2.55422 0.25
119 0.176523 1.92736 3.54602 0.25
120 1.7186 5.61186 0.231429 0.25
121 7.57375 2.24954 5.46316 0.5
122 1.85869 4.44236 2.39913 0.25
123 10.1273 9.13936 1.41402 0.25
124 8.28962 6.12532 0.38434 0.25
125 1.41275 0.0496841 4.69402 0.25
126 6.18056 7.36659 0.642839 0.25
127 6.1448 7.80745 0.45991 0.25
128 9.53604 9.52893 4.31507 0.25
129 1.47393 5.43054 3.08681 0.25
130 10.1202 8.66971 1.56767 0.25
131 7.76319 2.22955 2.69975 0.25
132 7.93491 4.13086 4.37312 0.25
133 8.19449 8.75887 9.2786 0.25
134 5.07812 3.73508 2.5432 0.25
135 6.00979 9.51412 8.08441 0.5
136 8.59157 8.95734 6.90602 0.25
137 1.5138 9.44372 2.49901 0.25
138 6.99475 4.87851 4.88283 0.25
139 6.59231 4.03748 7.94432 0.5
140 4.43543 8.64789 3.00402 0.25
141 2.14585 1.8174 2.30754 0.25
142 3.04516 3.10665 5.28288 0.25
143 7.70932 0.966106 3.568 0.25
144 10.0574 6.37854 2.03951 0.25
145 3.90995 8.07333 6.18183 0.25
146 6.69211 9.65715 3.16353 0.25
147 4.32805 5.92179 3.9962 0.25
148 2.56567 1.88724 10.174 0.25
149 9.75036 7.76111 9.09462 0.25
150 3.97793 5.13044 7.85121 0.25
151 7.12971 9.70646 9.88941 0.25
152 3.89606 9.35696 0.777773 0.25
153 5.34579 1.58164 7.8263 0.25
154 5.43198 9.80879 8.29987 0.25
155 4.18246 6.90038 1.16325 0.25
156 0.999325 8.89043 7.17571 0.25
157 5.57243 0.901406 3.69924 0.25
158 9.07293 9.04379 6.20107 0.25
159 3.50771 2.51887 5.69928 0.25
160 2.57429 3.38413 8.05624 0.25
161 3.43637 0.572511 8.79993 0.25
162 4.05817 2.05946 6.07856 0.5
163 6.67882 10.0814 2.35532 0.25
164 5.33938 8.47826 8.06777 0.25
165 0.190105 2.90225 10.0232 0.25
166 7.64375 3.55187 7.59397 0.25
167 9.2512 10.1355 3.84892 0.25
168 0.144382 7.69298 8.93826 0.25
169 9.16875 6.30734 7.30999 0.25
170 3.65145 10.2256 8.97008 0.25
171 0.992937 9.32505 7.41971 0.25
172 9.41582 6.03784 6.97219 0.25
173 1.17746 2.56362 3.47113 0.25
174 4.76356 2.00249 6.34467 0.25
175 9.35429 3.57137 7.4893 0.25
176 0.844095 5.76731 0.154664 0.25
177 9.46079 5.87162 7.40992 0.25
178 6.92799 1.91573 5.32951 0.25
179 3.06608 9.82151 8.02177 0.25
180 7.30282 9.34285 2.7029 0.5
181 0.710663 4.10688 5.60414 0.25
182 8.22119 1.02847 3.51147 0.25
183 2.62643 0.187806 5.01757 0.25
184 9.53459 4.94913 9.80756 0.25
185 9.38633 8.85254 6.52232 0.25
186 2.4886 8.28669 9.63796 0.25
187 3.74095 3.71069 0.425499 0.25
188 5.28886 2.42362 8.04657 0.25
189 9.67222 0.581628 5.80305 0.25
190 2.43182 7.56437 3.51566 0.25
191 4.98744 2.53237 8.83712 0.25
192 8.93314 9.54029 6.39333 0.25
193 5.05421 2.14426 9.17992 0.25
194 3.78804 9.04173 1.1604 0.25
195 5.22681 5.22432 9.82043 0.25
196 5.70044 1.59865 10.2244 0.25
197 8.63475 6.29413 6.82102 0.5
198 7.50159 1.84127 7.16662 0.5
199 7.06646 10.1381 9.78307 0.25
200 6.79252 1.19305 6.44637 0.25
201 6.09516 6.75718 6.76591 0.25
202 3.36605 7.80057 5.09506 0.25
203 5.05668 9.30991 0.381454 0.25
204 0.178004 3.76475 6.15043 0.25
205 3.97243 0.17296 6.77346 0.25
206 0.763082 2.74239 4.39672 0.25
207 1.23315 5.31159 3.82561 0.5
208 3.9623 4.60733 6.11895 0.25
209 6.83699 9.89633 2.74828 0.25
210 4.2096 10.2934 6.42977 0.25
211 1.55211 4.82193 2.28123 0.25
212 0.0818931 3.97722 1.95894 0.5
213 8.8435 3.86229 1.75636 0.25
214 3.44919 5.13777 5.86605 0.25
215 10.0098 0.649677 8.9252 0.25
216 5.15897 2.34647 0.677412 0.25
217 0.497353 7.88603 5.62546 0.25
218 2.3023 1.20762 1.94416 0.5
219 0.83158 4.30416 6.1072 0.25
220 6.69785 9.47061 1.83911 0.25
221 8.6844 7.45234 4.07501 0.25
222 9.29227 6.15838 6.5334 0.25
223 5.65872 9.29008 5.3671 0.25
224 9.53062 3.53909 6.67633 0.25
225 7.66772 1.5292 5.3873 0.25
226 6.57073 8.92281 5.63511 0.25
227 7.00319 0.420475 1.11408 0.25
228 5.59108 1.58964 0.776834 0.25
229 2.16822 2.21102 1.35205 0.25
230 8.79194 6.61049 3.61652 0.25
231 7.42184 4.35638 7.23358 0.25
232 6.88408 9.73531 2.20708 0.25
233 7.92048 1.94649 8.62131 0.5
234 4.42633 9.38466 1.62717 0.25
235 1.15051 8.89791 7.69831 0.25
236 1.25592 5.60378 0.44753 0.25
237 8.0372 0.722802 3.79021 0.25
238 0.993233 5.99885 4.07884 0.25
239 0.25257 2.84434 9.53724 0.25
240 1.37008 8.70361 2.4291 0.5
241 1.09375 9.4343 2.30733 0.25
242 3.5584 8.11636 6.52471 0.25
243 1.26525 6.46288 0.352627 0.25
244 0.953262 1.08707 7.4984 0.25
245 5.92849 7.23519 6.75733 0.25
246 1.37504 8.31428 0.00530308 0.25
247 2.97165 7.18867 2.51427 0.25
248 5.46563 2.35742 9.00192 0.25
249 7.00743 4.40837 4.67779 0.25
250 7.28807 1.37033 6.62309 0.25
251 1.66561 1.0556 6.82295 0.25
252 6.60507 6.26271 8.81697 0.25
253 3.72065 7.79889 8.65118 0.25
254 1.88225 9.2473 2.20754 0.25
255 1.59384 0.345311 2.32275 0.25
256 3.30476 5.71729 4.19187 0.25
257 0.881215 10.2334 9.86617 0.25
258 4.6252 4.89491 7.41243 0.25
259 2.012 9.79083 4.92938 0.25
260 1.31891 10.0734 0.186664 0.25
261 7.17888 7.09964 8.06028 0.25
262 5.84695 6.64795 3.16732 0.25
263 8.71229 8.37328 9.75833 0.25
264 7.81105 9.28932 9.68296 0.5
265 4.13899 3.42781 2.4616 0.25
266 3.64206 3.62187 2.38448 0.25
267 3.65544 7.57088 5.48669 0.25
268 3.47514 7.74789 6.23185 0.25
269 7.96237 9.13226 5.64315 0.25
270 3.31842 7.40336 5.88253 0.25
271 3.64603 9.36521 1.5813 0.25
272 6.09848 7.1263 5.24317 0.25
273 10.2487 3.29307 7.5265 0.25
274 3.49635 4.75009 6.20286 0.25
275 0.0589731 6.65006 2.27728 0.25
276 8.27109 0.833079 8.2815 0.25
277 2.90841 10.3024 8.52696 0.5
278 4.38514 6.00137 8.42424 0.25
279 3.60343 0.149197 8.59084 0.25
280 2.93003 0.554769 9.02174 0.25
281 3.74605 9.04133 3.52517 0.25
282 5.14581 1.38237 3.06131 0.25
283 9.54834 0.0591653 8.99154 0.25
284 1.59354 5.22219 0.525772 0.25
285 8.6948 6.81313 0.88466 0.25
286 10.2322 1.56488 2.01186 0.25
287 2.0934 8.08426 2.9471 0.25
288 1.30986 5.80028 4.37323 0.25
289 8.9494 1.39125 1.31623 0.25
290 9.42127 4.27864 2.50812 0.25
291 7.94711 3.12834 9.72446 0.25
292 4.02971 9.44479 1.3052 0.25
293 4.68296 2.5246 7.27311 0.5
294 0.16699 6.47313 1.85092 0.25
295 7.09879 0.972734 7.1779 0.5
296 2.91204 3.20115 4.83854 0.25
297 0.218646 7.56612 5.33977 0.25
298 4.1156 9.27109 0.323297 0.25
299 9.10572 4.94608 9.57726 0.25
300 1.80513 0.228823 4.47476 0.25
301 4.50597 8.37376 7.88225 0.25
302 4.77205 4.84884 7.8407 0.25
303 9.09135 5.41204 10.2565 0.5
304 4.37269 4.26623 2.94063 0.25
305 1.6899 8.06822 2.56136 0.25
306 10.1689 7.74094 9.28802 0.25
307 0.893875 10.3014 0.012555 0.25
308 8.69439 5.53966 6.94278 0.25
309 8.4835 1.58496 8.93937 0.25
310 6.58808 7.05033 6.07421 0.25
311 1.89097 0.163944 1.57211 0.25
312 8.99829 1.00572 8.5673 0.5
313 1.65876 8.30138 3.0111 0.25
314 0.802862 4.28918 2.08723 0.25
315 3.32084 0.742371 9.54324 0.5
316 7.35993 4.4108 8.65641 0.25
317 6.40778 9.55351 8.66939 0.25
318 0.116682 8.10409 9.13854 0.25
319 0.15894 9.73137 3.51864 0.25
320 1.1218 2.96507 0.041124 0.25
321 2.03709 1.99975 1.83823 0.25
322 0.758766 6.89493 5.03101 0.25
323 6.61592 9.92131 9.24437 0.5
324 7.41571 1.86025 2.71063 0.25
325 9.15254 4.0254 2.17092 0.25
326 2.79636 0.0724392 3.81985 0.25
327 1.75 9.16964 7.02106 0.25
328 4.30296 3.78304 2.81719 0.25
329 8.30091 6.81701 4.13393 0.5
330 10.0397 6.41658 2.52042 0.25
331 9.32995 0.10005 4.15212 0.25
332 6.4755 7.34893 1.09944 0.25
333 10.3047 7.65929 8.48398 0.25
334 6.15073 4.86303 1.72159 0.25
335 5.82386 5.02864 0.650652 0.25
336 9.06424 3.45549 1.46964 0.25
337 4.65899 5.62699 8.61367 0.25
338 7.57615 8.6276 2.49868 0.25
339 3.88421 6.02751 8.53598 0.25
340 0.454535 2.50605 10.2583 0.25
341 3.85505 5.87405 4.16959 0.25
342 9.95094 3.10494 7.16844 0.25
343 10.2581 2.43853 4.17737 0.25
344 4.77026 0.788095 2.64554 0.25
345 6.65652 4.34516 10.2993 0.25
346 1.32628 1.29597 7.76899 0.25
347 3.26303 4.29049 0.14454 0.25
348 5.73853 7.54761 0.63888 0.25
349 4.92028 1.51801 7.85235 0.25
350 2.75262 3.27405 7.61059 0.25
351 5.46713 7.48762 3.31485 0.25
352 8.26663 6.78371 1.09684 0.25
353 9.70178 3.06191 6.74463 0.25
354 9.63947 3.98399 2.15098 0.25
355 2.97226 1.33508 1.74462 0.25
356 4.51399 9.93189 0.895512 0.25
357 3.21873 4.67717 5.73982 0.25
358 4.24986 9.68047 0.514937 0.25
359 9.02518 6.36193 0.390627 0.5
360 3.8493 0.29769 6.36986 0.25
361 9.97373 0.735263 6.51402 0.25
362 0.216331 8.08941 8.63545 0.25
363 7.47749 2.70488 2.811 0.25
364 10.1881 6.81671 1.90041 0.25
365 6.10124 8.99652 5.34143 0.25
366 8.85424 4.33716 1.92344 0.25
367 4.02412 0.419471 9.52792 0.25
368 9.63797 6.30335 7.25038 0.25
369 8.55377 3.82322 4.05046 0.5
370 5.02515 1.6687 7.1196 0.5
371 9.42161 6.65396 1.70882 0.5
372 1.44402 2.49499 4.21707 0.5
373 3.65803 0.0698441 9.43616 0.25
374 2.84239 0.148226 9.25332 0.25
375 5.47588 0.995331 3.17152 0.25
376 0.556274 5.7271 4.17333 0.25
377 10.1532 7.94961 8.83271 0.25
378 9.60972 9.26791 1.34805 0.25
379 0.443955 4.07194 6.39045 0.25
380 2.17556 2.29088 4.34629 0.25
381 6.3264 5.28153 2.33844 0.5
382 2.04729 8.24281 9.88193 0.25
383 5.43918 8.67479 7.56627 0.25
384 1.86597 6.65716 7.56799 0.25
385 0.314834 6.97183 4.85352 0.25
386 1.23136 5.62142 7.32338 0.25
387 1.22159 6.12621 7.46681 0.25
388 2.54791 2.0244 1.13431 0.25
389 5.15879 2.36623 1.22868 0.25
390 3.46155 4.125 0.548717 0.25
391 4.43813 0.0518322 6.80039 0.25
392 0.513259 5.50919 4.68703 0.25
393 8.59677 8.46225 6.93378 0.25
394 10.3276 0.872488 6.11426 0.25
395 1.86453 4.78179 2.71279 0.25
396 2.73531 1.03237 9.19263 0.25
397 7.0474 1.9995 2.98504 0.25
398 9.64149 4.47263 9.03624 0.25
399 2.59012 9.69055 8.14077 0.25
400 7.74089 3.18312 0.219947 0.25
401 5.86687 7.13088 3.37068 0.25
402 4.23803 5.77817 8.87328 0.25
403 6.15224 4.94968 0.357808 0.25
404 7.93373 2.34938 0.42311 0.25
405 1.54237 6.06277 0.516224 0.25
406 6.57467 9.29463 5.30158 0.25
407 6.86673 6.90522 8.37722 0.25
408 9.41715 8.95534 0.970585 0.25
409 10.0933 6.42532 1.55351 0.25
410 4.90326 1.92492 4.31958 0.25
411 8.44691 9.06136 9.99138 0.25
412 4.69221 1.9084 7.77859 0.25
413 7.02081 2.50941 2.92155 0.25
414 6.7931 5.17694 2.97972 0.25
415 4.88571 0.729253 3.41537 0.5
416 9.90433 0.276968 9.25791 0.25
417 3.24075 8.12534 5.7699 0.5
418 0.861882 1.09036 6.78855 0.5
419 9.42885 0.17599 3.61839 0.25
420 5.22022 8.88609 7.92505 0.25
421 9.29815 6.67303 6.5241 0.25
422 2.47676 7.40351 3.13946 0.25
423 1.48432 5.06579 2.68403 0.25
424 0.4358 0.289861 9.26999 0.25
425 2.28454 0.159454 4.62133 0.25
426 2.69153 1.51503 1.36775 0.25
427 6.96017 1.61898 6.71113 0.25
428 7.41802 9.74102 2.13041 0.25
429 5.21546 9.47109 7.99074 0.25
430 9.4618 9.30568 3.84892 0.25
431 6.78858 0.0260141 0.89232 0.25
432 2.09307 8.0817 9.41633 0.25
433 3.01969 2.67446 5.52452 0.25
434 6.0039 9.49023 8.87373 0.25
435 0.105373 3.21878 9.20107 0.25
436 6.66778 4.76064 0.280045 0.25
437 1.6356 5.45058 9.69925 0.25
438 7.27206 0.896137 6.41886 0.25
439 9.88969 9.95788 3.77079 0.5
440 2.22244 2.75546 7.65427 0.5
441 0.889333 3.88411 2.29021 0.25
442 6.93059 7.53869 0.432035 0.25
443 9.96667 9.3451 4.14702 0.25
444 1.22441 3.54384 2.06542 0.25
445 5.54653 7.19459 3.72111 0.25
446 8.49703 4.33176 5.05949 0.25
447 6.40062 4.82979 10.2606 0.25
448 4.66968 1.63659 3.62488 0.5
449 9.57337 0.549733 6.28567 0.25
450 2.9591 0.979041 2.07715 0.25
451 2.95644 3.51615 0.301451 0.25
452 5.51511 4.37864 4.80772 0.25
453 6.61294 4.73135 7.67119 0.25
454 1.90653 5.54825 8.35545 0.25
455 1.2578 6.1505 7.9737 0.25
456 2.23674 1.72006 1.42452 0.25
457 9.0026 8.93641 1.56877 0.5
458 1.37854 5.92861 7.02777 0.25
459 1.51679 1.34385 6.4264 0.25
460 1.86366 6.13151 6.92378 0.25
461 3.23271 6.49709 1.43494 0.25
462 3.34796 5.99268 1.24452 0.25
463 1.48878 9.92934 4.87551 0.25
464 9.98417 1.07921 1.36395 0.25
465 6.75221 4.73736 2.76072 0.25
466 4.58947 5.5318 7.79884 0.5
467 3.39573 5.47413 5.40606 0.25
468 3.00239 1.45496 2.23928 0.25
469 4.75273 4.09331 2.65529 0.25
470 4.47092 3.5328 1.98613 0.25
471 3.19672 10.1689 4.74502 0.25
472 1.81493 2.13255 7.65333 0.25
473 2.96109 8.21262 9.57958 0.25
474 9.36449 4.4849 2.09322 0.25
475 8.11314 7.08633 3.43824 0.25
476 3.85148 6.00161 1.11925 0.25
477 10.3379 9.38519 3.82896 0.25
478 8.56053 6.04691 1.12094 0.5
479 7.42307 0.547764 0.830337 0.25
480 2.28872 7.86887 9.78792 0.25
481 4.31071 9.81679 1.3662 0.25
482 6.63952 9.76653 5.37218 0.25
483 7.08077 10.2574 0.132047 0.5
484 9.56223 3.34264 7.10096 0.25
485 8.23118 2.48956 10.377 0.25
486 4.56916 8.86077 3.5143 0.25
487 3.75676 4.12205 0.120725 0.25
488 7.15987 9.42839 1.92544 0.25
489 8.03105 7.34951 4.6872 0.25
490 2.10793 3.35001 8.10468 0.25
491 9.00706 9.16365 6.67016 0.25
492 7.88069 3.47581 10.1277 0.25
493 9.86246 3.58499 7.39401 0.25
494 8.23044 4.55812 4.26825 0.25
495 9.59089 3.83973 7.07071 0.25
496 4.48288 1.61695 6.54364 0.25
497 2.97267 3.93854 10.3161 0.25
498 7.65878 1.41086 9.08911 0.25
499 4.08477 9.06191 1.59971 0.25
500 4.3422 7.3216 9.05369 0.25
501 2.44763 9.63828 4.85325 0.25
502 9.06365 5.81725 7.25624 0.25
503 6.75059 8.30392 2.63359 0.25
504 6.55585 7.7076 0.712479 0.25
505 7.14125 1.49578 5.89334 0.5
506 5.76493 10.0942 5.11748 0.25
507 7.17097 8.59413 2.76323 0.25
508 5.00148 8.13287 8.0458 0.25
509 1.64509 8.80162 7.7662 0.25
510 5.64962 4.03973 5.1691 0.25
511 4.3241 0.425259 6.52287 0.25
512 1.82948 5.33899 3.36742 0.25
513 1.88715 5.11883 0.1474 0.25
514 3.59626 2.1208 5.42648 0.25
515 1.99602 1.40261 7.44077 0.5
516 6.13139 9.47352 5.89237 0.5
517 7.89978 7.37562 3.80295 0.25
518 2.96384 1.4224 9.41969 0.25
519 2.81204 10.0417 5.09514 0.25
520 5.14975 2.00674 7.75669 0.25
521 0.881491 4.45421 5.27359 0.25
522 2.3798 10.1201 4.90327 0.25
523 2.8289 3.025 8.04566 0.25
524 7.80391 1.69524 4.89164 0.25
525 2.33362 6.51993 7.52979 0.25
526 1.51808 5.51361 8.10649 0.25
527 6.38535 9.33007 2.50522 0.5
528 6.75163 9.17959 3.15236 0.25
529 4.35904 6.0477 1.11212 0.25
530 1.41428 7.64246 2.58433 0.25
531 0.502603 2.92993 9.12565 0.25
532 1.18581 7.84163 0.195421 0.25
533 9.15032 9.68794 4.02536 0.25
534 8.65812 3.85816 4.83019 0.25
535 6.95593 6.52927 9.13074 0.25
536 4.58089 9.37584 0.239177 0.25
537 8.34136 1.40559 3.85634 0.25
538 7.03125 4.09868 7.36218 0.25
539 10.289 3.58074 6.81408 0.5
540 6.259 10.2095 8.25457 0.25
541 9.75747 8.81038 1.25936 0.25
542 7.64012 8.93519 5.97575 0.25
543 9.32584 3.75768 4.17467 0.25
544 1.53411 1.95467 7.21409 0.25
545 10.2603 9.81654 3.10435 0.25
546 0.484181 0.785174 6.22543 0.25
547 9.32413 3.63906 1.88065 0.25
548 9.36513 4.90666 8.83482 0.25
549 1.96394 0.421283 1.99179 0.25
550 9.20405 9.39047 1.08981 0.25
551 2.88168 7.65009 3.34214 0.25
552 9.38834 9.33158 6.51806 0.25
553 5.62217 2.68546 5.50649 0.25
554 9.06734 3.84685 4.61507 0.25
555 5.51503 9.13518 7.68637 0.25
556 1.40725 9.31065 7.78599 0.25
557 2.54921 10.0507 7.86898 0.25
558 2.30854 3.80349 8.04182 0.25
559 9.63816 1.01941 8.98767 0.25
560 3.71648 4.77166 5.70829 0.25
561 0.794812 3.84447 1.81586 0.25
562 5.26346 4.76812 9.62311 0.25
563 5.78141 10.1517 8.40749 0.25
564 1.21909 1.50449 7.34669 0.25
565 2.78401 1.15335 2.53856 0.25
566 9.72399 6.36796 6.7052 0.25
567 0.827459 6.26737 0.169712 0.25
568 7.29884 1.64718 5.11513 0.25
569 7.54565 4.19244 7.9565 0.5
570 4.78624 3.74459 2.97154 0.25
571 3.93568 3.47205 1.94389 0.25
572 8.05643 1.68541 9.28932 0.25
573 0.778364 7.01025 4.50846 0.25
574 0.380985 0.497 6.6077 0.25
575 5.38071 3.9202 4.68995 0.25
576 5.3437 1.96971 0.963785 0.25
577 0.967593 7.88298 5.65745 0.25
578 1.19989 5.13068 10.2319 0.5
579 5.06294 5.05947 7.39461 0.25
580 8.29328 6.54508 3.37281 0.25
581 6.74952 7.25084 8.75644 0.25
582 7.22183 4.96786 5.27473 0.25
583 8.24728 5.62559 6.75581 0.25
584 5.23774 6.76325 3.73654 0.25
585 7.28447 0.0799682 0.87382 0.25
586 1.91727 2.54928 4.75501 0.25
587 6.20819 10.0022 5.33447 0.25
588 3.25302 1.18266 10.1815 0.25
589 9.83717 3.59617 1.88029 0.25
590 8.18956 7.49989 4.18777 0.25
591 3.93663 2.43818 5.42864 0.25
592 6.98714 5.10402 2.49556 0.25
593 5.55194 9.98305 5.89 0.25
594 8.65242 5.84009 9.83273 0.25
595 1.4271 1.82103 7.66494 0.25
596 9.43631 8.48261 1.1772 0.25
597 5.18029 0.988603 2.7665 0.25
598 6.64735 7.2143 0.647765 0.25
599 10.0496 1.07275 1.85333 0.25
600 3.61645 9.75179 1.93462 0.25
601 7.20966 10.0339 2.46048 0.25
602 6.4532 8.11549 2.26488 0.25
603 2.33677 6.22503 7.11745 0.25
604 9.09557 0.63233 1.18615 0.25
605 1.63359 7.84375 3.00007 0.25
606 1.81224 1.9172 6.86682 0.25
607 2.24952 2.02382 7.72824 0.25
608 6.53263 6.34768 5.83178 0.5
609 3.36698 6.11768 1.73332 0.25
610 6.49354 4.81797 1.00425 0.5
611 8.51315 8.67244 7.37262 0.25
612 8.74091 0.371285 3.7189 0.5
613 7.94824 2.70354 9.96875 0.25
614 9.5733 6.60772 0.926635 0.25
615 6.98468 4.51073 8.38661 0.25
616 1.44008 1.50659 6.9109 0.25
617 2.2988 3.5194 7.66017 0.25
618 8.1135 2.83459 0.347068 0.25
619 1.45851 9.27731 1.99709 0.25
620 6.57823 5.68758 2.95821 0.25
621 6.92516 5.19373 1.49932 0.25
622 6.80707 7.06129 9.23452 0.25
623 7.74189 4.57957 4.88983 0.5
624 4.86104 8.58992 8.16336 0.25
625 5.46435 2.41 0.181672 0.25
626 2.54518 3.09805 4.43575 0.25
627 6.77175 5.9333 2.54496 0.25
628 1.72412 10.2592 10.2628 0.25
629 7.54399 9.98538 9.92903 0.25
630 5.73364 7.06561 0.49892 0.25
631 8.10969 1.76919 5.31893 0.25
632 3.35618 3.82736 0.215953 0.25
633 2.97629 3.9957 0.447275 0.25
634 4.47299 7.88067 8.46636 0.5
635 9.30939 6.5344 6.93845 0.25
636 8.86555 5.38505 9.51326 0.25
637 6.81156 9.09516 4.81748 0.25
638 2.2699 9.96713 4.16028 0.5
639 7.03813 2.92952 2.74571 0.25
640 7.66243 1.66604 7.92885 0.25
641 3.52212 5.84578 3.7611 0.25
642 3.55132 7.334 6.31439 0.25
643 2.56025 1.55129 0.207708 0.25
644 6.12341 9.45693 4.8134 0.5
645 3.4139 3.33977 0.222769 0.25
646 8.58043 6.98395 3.36313 0.25
647 6.46464 6.98757 5.54436 0.25
648 7.23012 1.4898 7.78391 0.25
649 4.61441 6.02208 8.93012 0.25
650 7.90433 1.21656 3.87884 0.25
651 4.99853 8.42662 7.65928 0.25
652 1.52541 5.92917 8.31781 0.25
653 0.979962 4.82826 5.53316 0.25
654 1.50799 6.44761 7.23259 0.25
655 9.99144 3.59727 1.42647 0.25
656 4.2852 4.76547 7.69874 0.25
657 9.17863 9.5987 6.8805 0.25
658 7.03562 4.56086 7.50868 0.25
659 8.89296 10.1309 4.19049 0.25
660 1.88999 5.922 7.64815 0.5
661 2.05792 7.69596 3.25101 0.25
662 7.78396 9.4636 5.9639 0.25
663 2.57441 0.600264 9.40111 0.25
664 0.918128 3.36982 10.2142 0.25
665 8.34803 6.55465 0.685967 0.25
666 5.64274 9.77691 8.71535 0.25
667 8.46098 2.51205 0.402042 0.25
668 6.90557 2.23663 5.76408 0.25
669 3.27698 7.63652 9.21684 0.5
670 0.310358 2.40659 9.78877 0.25
671 0.73789 6.29571 4.64347 0.5
672 5.81943 6.31598 5.69171 0.25
673 4.0589 9.76878 0.971633 0.25
674 6.72758 4.94285 5.26966 0.25
675 8.14174 8.98001 7.46553 0.25
676 5.03907 1.7272 0.251061 0.5
677 9.51907 2.83734 7.19755 0.25
678 10.2896 0.224908 6.12403 0.5
679 2.00928 2.16729 7.2145 0.25
680 2.73147 7.02842 2.86799 0.25
681 8.6592 9.42128 6.85951 0.25
682 3.35363 8.28175 5.00578 0.25
683 0.507904 3.28248 9.96174 0.25
684 1.47034 9.56464 7.36499 0.25
685 9.22626 10.1914 3.38242 0.25
686 6.83375 9.59412 4.95863 0.25
687 9.68706 3.14773 7.54598 0.25
688 5.47606 7.35826 0.210106 0.25
689 2.53616 2.63854 4.19264 0.25
690 9.81127 7.70655 8.5797 0.25
691 0.753842 8.26248 5.87607 0.25
692 1.13759 4.40093 5.71384 0.25
693 10.1379 1.66205 3.62818 0.25
694 3.68665 3.61126 10.2965 0.25
695 7.30364 1.17623 5.20504 0.25
696 5.16644 1.1592 3.92497 0.25
697 1.42035 9.0785 7.38185 0.25
698 8.65599 5.72438 0.409224 0.25
699 3.72914 8.03164 5.20381 0.25
700 5.31446 7.79497 0.401799 0.25
701 3.43201 4.97717 5.34524 0.25
702 5.76867 3.67636 4.39076 0.25
703 1.88811 0.665038 1.62747 0.25
704 6.23272 4.59302 7.56739 0.25
705 3.84005 5.90632 9.02963 0.25
706 7.61019 1.21092 7.69386 0.25
707 5.92316 6.73181 4.98049 0.25
708 5.73113 6.7455 3.66439 0.25
709 1.4761 4.16818 1.81398 0.5
710 1.39283 4.66966 5.36504 0.25
711 7.11351 3.97968 8.527 0.25
712 4.21072 9.08841 3.26185 0.25
713 1.63547 4.98141 3.15601 0.25
714 1.89642 10.1876 4.71675 0.25
715 2.37987 3.53551 8.46635 0.25
716 9.64803 8.46688 1.66083 0.25
717 3.05711 5.23518 5.07613 0.25
718 5.65468 3.28799 5.03987 0.5
719 5.73811 3.06051 5.8008 0.25
720 4.93257 1.41035 4.29504 0.25
721 3.03978 7.544 6.28492 0.25
722 4.16168 5.46411 4.12027 0.25
723 5.68184 6.44363 6.62608 0.25
724 9.54234 0.549924 8.9701 0.25
725 3.68978 10.1811 6.56875 0.25
726 3.65993 5.42239 3.99501 0.25
727 4.24383 5.84068 4.49696 0.25
728 1.49567 7.82645 9.84018 0.5
729 7.72265 1.92505 6.13866 0.25
730 8.10326 1.30675 8.95336 0.25
731 1.84713 5.46809 10.1254 0.25
732 3.88524 7.6903 6.50425 0.25
733 10.2058 2.30062 3.34372 0.25
734 8.85085 7.12999 3.8031 0.25
735 3.3661 2.08176 5.87222 0.25
736 8.57039 6.06452 6.14779 0.25
737 0.659714 4.5538 5.74908 0.25
738 5.10891 8.29524 8.4849 0.25
739 3.43024 3.96755 10.1168 0.25
740 8.71365 6.72362 1.39099 0.25
741 7.80862 2.64059 2.40824 0.25
742 5.6232 2.0591 0.532965 0.25
743 10.0841 2.58415 3.71217 0.25
744 2.6168 2.53475 4.92132 0.5
745 0.342019 4.20068 5.90368 0.25
746 6.47978 5.24434 1.61248 0.25
747 7.99048 3.61821 9.6368 0.25
748 7.33501 9.86379 9.44076 0.25
749 6.55699 4.73566 8.16604 0.25
750 4.52038 2.06713 6.74729 0.25
751 2.16629 2.53118 3.91384 0.25
752 10.1328 2.10457 3.79765 0.25
753 0.951182 2.76923 9.67986 0.5
754 7.89971 1.6319 5.79003 0.25
755 8.08385 3.00983 10.2319 0.25
756 5.51457 1.60003 1.26622 0.25
757 0.48138 2.53321 3.78692 0.5
758 1.57383 10.1148 4.36329 0.25
759 4.93654 2.61239 8.35982 0.25
760 4.23138 0.996286 3.71814 0.25
761 5.82332 6.22374 6.17128 0.25
762 0.59004 3.6037 6.48125 0.25
763 6.26428 4.50094 4.91334 0.5
764 5.06234 7.20936 3.54197 0.25
765 7.03374 6.49828 8.63631 0.25
766 1.12948 5.06973 3.1072 0.25
767 6.62303 2.68257 2.62473 0.25
768 5.12703 2.57599 6.01702 0.5
769 0.910931 2.47858 10.3672 0.25
770 5.873 6.99702 6.0684 0.5
771 5.73018 7.81278 0.193631 0.25
772 7.24214 9.16713 5.47128 0.5
773 6.20785 4.42104 10.0924 0.25
774 6.77684 8.80585 2.72498 0.25
775 10.085 7.46784 8.89566 0.25
776 4.78513 9.71657 0.5234 0.25
777 1.22131 8.00167 2.28984 0.25
778 3.80722 0.342266 9.04859 0.25
779 9.64005 7.29383 8.85438 0.25
780 4.90667 4.86398 9.91635 0.25
781 5.43682 6.47463 3.42162 0.25
782 9.3328 6.22155 1.08792 0.25
783 4.15659 9.01424 3.76697 0.25
784 3.18311 3.54431 10.2131 0.25
785 8.58065 8.97945 7.75612 0.25
786 6.39914 6.72156 5.12461 0.25
787 6.05514 6.27186 5.22793 0.25
788 4.63228 1.02419 4.01809 0.25
789 6.77941 5.60244 1.83154 0.25
790 5.00608 2.24485 6.67728 0.25
791 8.18128 5.87416 6.36896 0.25
792 4.13524 4.15913 2.20548 0.5
793 10.3378 0.260821 8.99128 0.25
794 2.59941 1.64663 2.49674 0.25
795 1.82815 8.76138 7.27826 0.25
796 1.85186 0.135768 5.29952 0.5
797 9.65345 9.34526 3.3512 0.25
798 9.14644 3.37008 4.32723 0.25
799 3.43492 6.76113 2.07584 0.5
800 9.99133 1.55241 1.18093 0.25
801 6.20971 10.1 9.84357 0.25
802 6.0945 7.73276 0.969492 0.25
803 9.53406 4.91516 9.29887 0.25
804 4.12201 5.06199 7.39092 0.25
805 9.1877 4.24017 4.30104 0.25
806 2.87539 9.3881 7.90496 0.25
807 3.01311 5.19065 5.60266 0.25
808 9.37099 5.33742 9.50499 0.25
809 1.30487 5.04445 9.48806 0.25
810 7.38291 1.84363 6.46076 0.25
811 9.19961 4.61578 9.24785 0.25
812 3.66563 6.33218 1.42458 0.25
813 1.35753 3.75303 2.44892 0.25
814 1.35834 0.190308 0.159768 0.25
815 3.7268 5.3991 4.78228 0.5
816 6.61883 0.0351852 9.86359 0.25
817 4.55664 9.13457 0.964783 0.5
818 9.00625 6.17302 10.0015 0.25
819 4.03037 6.43203 1.05283 0.25
820 6.61917 4.42631 7.28354 0.25
821 8.16569 9.19287 6.99283 0.25
822 4.91727 3.46893 2.09834 0.25
823 2.17789 9.37173 7.57853 0.5
824 7.1459 3.60535 7.54313 0.25
825 8.3438 8.96355 6.29099 0.5
826 6.93401 3.06561 2.31348 0.25
827 8.97746 6.41665 6.18018 0.25
828 9.5426 3.39804 1.51362 0.25
829 0.0765617 7.37847 4.90857 0.25
830 4.13288 6.18861 1.50277 0.25
831 2.65825 6.89761 2.34613 0.25
832 4.0334 5.55762 9.29864 0.25
833 6.54721 6.67658 6.47562 0.25
834 8.71989 4.46604 4.25109 0.25
835 1.39348 1.06525 7.27686 0.25
836 6.8813 5.16192 1.98787 0.25
837 3.94557 7.36055 8.7547 0.25
838 2.83008 9.77574 7.59966 0.25
839 0.678753 1.83964 3.63532 0.25
840 8.81347 3.42045 4.73035 0.25
841 5.59459 4.79485 10.3352 0.5
842 6.65332 6.76403 8.82318 0.25
843 1.88648 9.37737 1.70004 0.25
844 6.66076 4.79532 1.77511 0.25
845 8.85756 4.28539 4.6807 0.25
846 0.898562 5.61994 4.42253 0.25
847 8.29218 3.38942 9.9393 0.25
848 2.51905 1.1572 9.9493 0.5
849 7.06571 5.57497 2.26046 0.25
850 4.48407 8.36308 3.35076 0.25
851 3.87009 6.21288 1.90614 0.25
852 5.27245 1.62451 3.9677 0.25
853 9.38415 10.0149 4.33088 0.25
854 2.42668 3.04538 8.3534 0.25
855 3.65364 6.78215 1.27359 0.25
856 9.17596 3.10234 7.36128 0.25
857 6.22184 3.74924 4.60442 0.25
858 8.93031 6.56577 4.44677 0.25
859 9.49519 1.32838 1.34373 0.25
860 2.50793 10.3396 5.40486 0.25
861 3.7764 9.84538 1.44403 0.25
862 7.60789 1.11797 8.4185 0.5
863 0.0475302 3.27736 9.67192 0.25
864 3.52134 4.026 2.59574 0.25
865 1.18965 6.9525 4.89348 0.25
866 2.82351 1.80885 9.76942 0.25
867 3.22322 8.00126 9.93261 0.25
868 9.53473 0.817126 1.2481 0.25
869 0.293 8.05237 5.20723 0.25
870 7.13717 6.92882 8.85835 0.25
871 7.43926 3.02771 2.45319 0.25
872 8.32968 1.42651 7.8141 0.5
873 5.50033 9.67645 5.07337 0.25
874 6.54698 8.84299 5.10036 0.25
875 3.20071 7.48928 5.38284 0.25
876 3.99443 6.63732 1.55974 0.25
877 0.734415 2.25365 4.44996 0.25
878 10.3183 0.520525 9.38165 0.25
879 0.675753 7.45263 5.56822 0.25
880 5.76292 4.23164 4.40491 0.25
881 4.20449 6.60747 8.88121 0.5
882 10.1897 1.28646 5.89262 0.25
883 5.25968 3.078 5.55091 0.25
884 2.7596 2.06842 1.8518 0.5
885 9.26049 9.67515 3.53747 0.25
886 9.93811 8.33187 1.23708 0.25
887 1.37263 6.55111 7.69842 0.25
888 1.53245 0.396078 1.8027 0.25
889 4.41997 4.92881 8.12451 0.25
890 0.649483 3.82153 6.01546 0.25
891 3.8581 3.68589 2.81895 0.25
892 6.34929 8.59667 2.44954 0.25
893 7.71954 2.68753 0.0683032 0.25
894 1.66864 7.95317 0.224827 0.25
895 9.24022 3.10972 6.8561 0.25
896 9.59501 1.00951 1.7003 0.25
897 3.37723 7.63599 6.68545 0.25
898 1.08674 5.0219 4.78014 0.5
899 0.101865 0.886364 6.56196 0.25
900 8.43424 7.39726 3.68622 0.25
901 0.744965 8.22295 5.36513 0.25
902 4.88564 2.02423 0.977869 0.25
903 8.52831 6.17157 3.66444 0.25
904 1.38648 6.05073 10.1252 0.5
905 9.1844 1.06348 0.98798 0.25
906 9.89386 9.11931 3.69789 0.25
907 4.62486 3.58677 2.46723 0.25