ITEM: TIMESTEP
80000
ITEM: NUMBER OF ATOMS
1000
ITEM: BOX BOUNDS xy xz yz pp pp pp
0.0000000000000000e+00 1.0357442000000001e+01 0.0000000000000000e+00
0.0000000000000000e+00 1.0357442000000001e+01 0.0000000000000000e+00
0.0000000000000000e+00 1.0357442000000001e+01 0.0000000000000000e+00
ITEM: ATOMS id x y z radius
1 0.989401 4.55082 2.73693 0.5
2 2.18525 7.27412 2.67898 0.5
3 5.63857 1.66261 0.643909 0.25
4 0.45014 2.06174 3.62232 0.25
5 10.3184 3.11184 7.69768 0.25
6 0.581641 3.30214 9.77892 0.25
7 4.598 0.847154 3.0789 0.25
8 8.70753 4.41231 2.33754 0.25
9 10.0361 1.06293 1.692 0.25
10 9.18309 6.97229 4.04241 0.25
11 9.59942 8.56529 1.67614 0.25
12 7.9538 2.71773 9.75822 0.25
13 3.34021 7.73281 5.87027 0.25
14 3.98277 1.9996 0.640711 0.25
15 9.15962 6.11867 6.01698 0.25
16 8.43537 8.65386 6.63709 0.25
17 6.89258 0.319369 8.42243 0.5
18 2.57736 7.85334 9.88453 0.25
19 6.9357 4.93146 4.79631 0.25
20 8.91605 1.36598 1.08542 0.25
21 0.793438 10.1105 9.58641 0.25
22 4.50297 1.16817 2.71747 0.25
23 4.6446 3.50731 2.69958 0.25
24 2.88123 2.38241 4.69488 0.25
25 7.95713 2.09462 6.1356 0.25
26 5.84569 2.64184 8.68404 0.25
27 1.38571 8.05698 10.042 0.25
28 9.5356 6.35354 6.28539 0.25
29 3.34813 7.38401 5.52003 0.25
30 1.01171 8.71748 7.9602 0.25
31 0.645367 7.29524 5.34817 0.25
32 9.32614 6.85929 0.796808 0.25
33 8.87905 8.4935 1.40981 0.25
34 1.01104 2.6842 0.0803894 0.25
35 7.30878 2.38056 10.2097 0.25
36 7.97604 8.64803 10.0255 0.25
37 2.58513 4.14508 6.0751 0.25
38 7.0789 0.527068 1.60276 0.25
39 5.79745 3.98124 4.96779 0.25
40 8.23494 5.07783 5.06234 0.25
41 8.43016 7.13953 4.35017 0.25
42 6.20456 8.89344 3.11729 0.5
43 0.181205 8.00218 5.45389 0.25
44 2.19815 0.317436 3.72613 0.25
45 7.45661 6.59146 8.02809 0.25
46 0.879745 8.92973 7.55672 0.25
47 4.15867 9.24598 3.49423 0.25
48 2.02214 10.2369 3.88272 0.25
49 4.17624 5.77735 9.49033 0.25
50 10.0735 9.63795 3.72643 0.25
51 9.34353 9.37452 0.791698 0.25
52 5.33122 7.55299 0.0582289 0.25
53 6.26171 5.1567 1.36705 0.25
54 4.95817 4.9239 7.76297 0.25
55 5.76506 6.41542 6.14213 0.25
56 5.95997 1.95184 0.872286 0.25
57 4.28618 2.04735 0.247295 0.25
58 5.75189 4.54744 0.162057 0.25
59 3.93281 7.27167 9.17385 0.25
60 7.47046 6.09717 8.24853 0.25
61 4.22236 10.1033 8.3101 0.25
62 8.73709 5.80388 6.06814 0.25
63 0.441934 5.26761 4.18776 0.25
64 9.96374 1.27333 2.17936 0.25
65 5.67607 7.23633 6.12174 0.25
66 4.36829 1.6489 2.76698 0.25
67 9.3059 4.83811 9.23757 0.25
68 6.9774 0.544735 0.300567 0.25
69 2.77346 6.94543 2.92396 0.25
70 4.01756 6.00704 4.23695 0.25
71 0.664066 8.11727 2.22517 0.25
72 5.2939 6.29921 3.56547 0.25
73 9.0846 9.13948 7.34346 0.5
74 2.93434 7.41741 2.91778 0.25
75 1.75279 5.63617 0.357129 0.25
76 2.09046 8.54565 10.3437 0.25
77 7.43043 6.49832 8.52004 0.25
78 3.58278 9.37709 0.931877 0.25
79 0.912148 5.98393 9.29837 0.25
80 7.72891 8.49413 9.63648 0.25
81 8.70514 9.06249 7.97674 0.25
82 1.74831 0.0441735 1.86039 0.25
83 0.994961 7.7571 2.3628 0.25
84 5.26975 10.1167 5.14108 0.25
85 4.10411 6.7096 1.34678 0.25
86 9.57571 4.2734 1.65731 0.5
87 0.896969 5.39243 7.97056 0.25
88 3.1314 3.83465 8.313 0.25
89 1.13357 0.175434 10.2389 0.25
90 6.79443 9.81461 1.93762 0.5
91 4.17567 8.72378 3.45295 0.25
92 9.532 0.990941 1.53032 0.25
93 8.60421 1.14287 8.53547 0.25
94 0.76395 3.89778 1.47162 0.25
95 7.54744 8.84606 5.90285 0.25
96 7.91372 1.08523 7.35082 0.25
97 5.53649 10.0737 5.49254 0.25
98 0.137163 0.298115 5.98282 0.25
99 5.12818 2.46329 8.36797 0.5
100 5.13172 2.94216 5.55641 0.25
101 5.4614 2.48231 9.71825 0.5
102 4.55847 5.44148 8.12928 0.5
103 6.60849 0.442964 1.35683 0.25
104 1.86255 10.1242 10.2192 0.25
105 1.6886 4.47348 2.8553 0.25
106 6.42456 6.78212 6.054 0.25
107 6.34224 10.1975 8.24868 0.25
108 1.19343 4.02039 1.76596 0.25
109 7.699 2.71267 2.80092 0.25
110 5.69949 0.0542218 5.76429 0.25
111 0.814559 4.73689 10.03 0.25
112 3.50294 4.48359 5.17106 0.25
113 1.84147 0.161059 4.62234 0.25
114 8.53643 6.12456 0.203789 0.25
115 3.71646 3.64315 2.56486 0.25
116 10.2758 2.50025 4.61063 0.25
117 7.38593 2.32721 2.21589 0.5
118 5.90056 8.30165 3.1632 0.25
119 9.89771 1.90196 3.72623 0.25
120 1.66904 5.01933 10.1304 0.25
121 7.99147 1.67938 5.47172 0.5
122 1.2828 4.90424 2.13976 0.25
123 8.90226 9.49728 1.04778 0.25
124 8.30154 6.31331 0.626655 0.25
125 2.74618 0.0738738 4.82754 0.25
126 6.00923 7.7195 0.523986 0.25
127 5.78001 7.35774 0.231096 0.25
128 8.9955 9.55171 4.36549 0.25
129 1.70842 5.27526 3.24295 0.25
130 8.93017 9.50773 0.540449 0.25
131 7.60263 3.07981 2.44032 0.25
132 8.30812 4.78978 4.21706 0.25
133 7.48904 8.70281 10.0205 0.25
134 4.65055 3.66248 2.19867 0.25
135 5.84442 0.353414 8.24367 0.5
136 8.44076 8.91846 7.57459 0.25
137 1.05461 8.97691 2.09366 0.25
138 7.05323 4.48144 5.00496 0.25
139 6.97362 3.86069 7.72071 0.5
140 4.41999 8.56039 3.80863 0.25
141 2.07244 2.01096 1.643 0.25
142 2.95627 2.83345 4.74595 0.25
143 7.64245 0.892131 3.67963 0.25
144 10.0492 6.31566 1.85889 0.25
145 3.67597 7.40601 5.93531 0.25
146 7.25082 7.99804 2.24505 0.25
147 3.52966 5.98074 4.19461 0.25
148 2.79018 1.38836 9.5152 0.25
149 10.2733 7.71809 8.68283 0.25
150 4.57363 5.0555 7.47009 0.25
151 6.36213 10.2094 10.3694 0.25
152 4.01151 9.19461 1.17901 0.25
153 5.19863 1.9833 7.7711 0.25
154 6.48796 0.643034 7.78477 0.25
155 3.42011 5.65567 1.44728 0.25
156 0.893765 8.46002 7.45593 0.25
157 5.40114 1.37464 3.67826 0.25
158 8.85579 8.70148 6.37605 0.25
159 2.91094 1.89552 5.4903 0.25
160 2.81477 3.51098 8.22445 0.25
161 3.72512 10.021 8.35058 0.25
162 3.91203 1.99276 6.13016 0.5
163 7.31452 9.37864 2.34658 0.25
164 5.08197 8.10105 8.02262 0.25
165 0.795125 2.83066 10.0091 0.25
166 6.43022 4.49215 6.78233 0.25
167 8.69701 10.2196 4.01485 0.25
168 10.2635 8.11857 9.40314 0.25
169 9.34313 6.73266 7.59357 0.25
170 3.96201 10.1627 8.71857 0.25
171 1.33659 8.39378 7.27086 0.25
172 9.24773 5.95572 7.38343 0.25
173 0.583576 2.55682 3.43835 0.25
174 4.66091 1.90827 6.06341 0.25
175 9.80337 2.96616 7.68377 0.25
176 1.32278 5.85539 0.113286 0.25
177 8.99575 6.41862 7.41118 0.25
178 7.53701 2.23016 5.83758 0.25
179 2.75167 9.37161 7.7886 0.25
180 6.58348 8.51967 2.30771 0.5
181 0.760106 4.10632 5.69749 0.25
182 7.69297 1.6058 4.11135 0.25
183 1.49582 9.75719 4.95716 0.25
184 9.65405 5.64392 9.73615 0.25
185 9.19701 8.91048 6.60133 0.25
186 2.26101 8.18009 10.065 0.25
187 2.71843 3.31425 0.56287 0.25
188 5.34247 2.52812 7.5941 0.25
189 10.2045 -0.00377369 6.19673 0.25
190 2.99179 7.57853 3.41059 0.25
191 5.41196 2.85017 8.93616 0.25
192 9.02819 9.43089 6.65276 0.25
193 5.86169 2.78873 9.16166 0.25
194 3.62967 9.4028 1.42401 0.25
195 5.19734 5.05065 9.67511 0.25
196 4.28717 1.61189 0.550377 0.25
197 8.95855 6.10813 6.73792 0.5
198 7.7073 1.84375 7.36548 0.5
199 7.03594 10.1902 9.87154 0.25
200 7.71636 0.931765 6.52174 0.25
201 5.9901 6.81313 6.22869 0.25
202 3.10818 7.95878 5.02361 0.25
203 4.74307 9.56597 0.141866 0.25
204 0.277704 3.70918 6.28853 0.25
205 3.64707 0.214469 6.34458 0.25
206 0.322327 2.76551 4.40879 0.25
207 1.09932 5.16259 3.75294 0.5
208 2.64562 4.25845 5.59578 0.25
209 7.35467 8.45602 2.36286 0.25
210 3.42884 0.166455 5.88334 0.25
211 0.860321 5.15933 2.29048 0.25
212 0.0900876 3.81346 1.76709 0.5
213 8.52689 4.05279 1.97633 0.25
214 3.51229 4.29362 5.70327 0.25
215 9.83251 0.0677094 9.50508 0.25
216 4.99654 2.06419 0.865386 0.25
217 0.527898 8.06871 5.13684 0.25
218 2.40795 2.20458 2.31016 0.5
219 0.730499 4.35836 6.14304 0.25
220 6.91735 9.54089 2.63165 0.25
221 8.99535 6.65052 3.68427 0.25
222 9.64901 5.92633 7.07543 0.25
223 5.15071 9.86216 5.61844 0.25
224 0.264305 3.90978 7.63324 0.25
225 7.3494 1.88175 5.59153 0.25
226 6.35814 9.12403 6.06674 0.25
227 6.70761 0.215847 1.80807 0.25
228 5.28441 2.4168 0.565336 0.25
229 1.5874 1.399 2.20981 0.25
230 8.36938 7.22698 3.88233 0.25
231 7.11391 4.91531 7.33215 0.25
232 6.85356 9.20035 2.26411 0.25
233 8.35105 1.83736 8.69394 0.5
234 4.26046 9.87552 1.75884 0.25
235 1.0742 8.77295 7.14653 0.25
236 1.45514 5.35898 0.128089 0.25
237 7.81982 0.776438 3.24428 0.25
238 1.07936 5.8122 4.03814 0.25
239 0.0784211 2.66963 9.67399 0.25
240 1.30133 8.43145 2.41926 0.5
241 1.21411 9.21053 2.5378 0.25
242 4.13836 7.60084 5.98383 0.25
243 2.26231 5.57221 0.282775 0.25
244 1.02946 1.88646 7.28606 0.25
245 5.47542 6.8121 6.20232 0.25
246 1.3491 7.88941 0.157381 0.25
247 2.92405 7.10626 2.49739 0.25
248 5.10384 2.11854 9.0908 0.25
249 6.82123 4.78857 5.27636 0.25
250 7.64776 1.22404 6.9454 0.25
251 1.37278 1.01707 7.61008 0.25
252 7.31796 7.36495 8.91145 0.25
253 4.0024 8.03712 8.75504 0.25
254 0.658718 8.62053 2.1469 0.25
255 1.48283 10.204 1.46095 0.25
256 4.08813 5.15054 4.19866 0.25
257 1.36023 10.1033 10.2384 0.25
258 5.09255 4.90737 6.84754 0.25
259 2.36699 0.152465 4.57616 0.25
260 1.54232 0.0904475 0.211539 0.25
261 7.03939 6.09188 8.5181 0.25
262 5.34823 6.46173 4.09517 0.25
263 8.1537 8.71946 9.56209 0.25
264 7.13748 9.44236 9.95705 0.5
265 3.60725 4.11234 2.60616 0.25
266 3.39492 3.73193 3.36623 0.25
267 3.0096 7.79145 5.46939 0.25
268 3.75694 7.82182 6.11664 0.25
269 7.68527 8.98295 5.4197 0.25
270 3.60536 8.22754 6.00395 0.25
271 3.66229 9.30631 1.92208 0.25
272 6.50879 6.77997 5.16453 0.25
273 9.59614 3.59561 6.86995 0.25
274 2.76332 4.61107 5.8696 0.25
275 0.184723 6.49336 1.97536 0.25
276 9.08713 1.07012 8.21114 0.25
277 2.97783 10.0743 8.20486 0.5
278 4.00702 5.86696 8.48315 0.25
279 4.01423 0.140606 8.38914 0.25
280 3.5289 0.0789525 8.50829 0.25
281 4.39564 8.62456 3.00241 0.25
282 4.51722 1.6106 3.62469 0.25
283 10.147 0.183875 8.76881 0.25
284 1.19746 4.92278 0.00621095 0.25
285 8.02078 6.90825 1.14081 0.25
286 0.044301 1.2746 2.00719 0.25
287 1.92372 7.94575 2.43305 0.25
288 1.31571 5.59442 4.40809 0.25
289 8.97429 0.910082 0.889162 0.25
290 9.42766 4.10747 2.36681 0.25
291 7.50011 2.78719 10.0338 0.25
292 3.78633 9.77548 1.74761 0.25
293 4.91765 2.6556 6.92666 0.5
294 0.371811 6.74536 1.55954 0.25
295 7.19139 0.834645 7.5675 0.5
296 3.31341 2.5866 4.48418 0.25
297 0.268716 7.91963 4.75166 0.25
298 4.79565 9.66106 0.639468 0.25
299 9.34007 5.3187 9.93258 0.25
300 2.90601 9.91613 5.00627 0.25
301 4.45797 8.19616 8.5447 0.25
302 5.34567 5.2245 7.16001 0.25
303 9.2269 6.01449 10.3067 0.5
304 3.81924 3.89279 2.14411 0.25
305 1.53234 7.61641 2.49391 0.25
306 0.216844 8.05983 8.94756 0.25
307 1.61827 0.160133 10.1201 0.25
308 8.33834 6.0408 6.29712 0.25
309 8.81588 1.41884 8.95306 0.25
310 6.21022 7.25103 6.05399 0.25
311 1.08383 10.2981 2.41684 0.25
312 9.18361 0.793184 8.92974 0.5
313 0.729182 8.00033 2.70584 0.25
314 0.130419 4.30627 2.3789 0.25
315 3.79331 0.371027 9.12666 0.5
316 7.919 4.0703 7.0945 0.25
317 6.27685 -0.00157239 8.76963 0.25
318 0.347859 7.8928 9.43258 0.25
319 10.1554 10.006 4.04938 0.25
320 0.739506 2.31526 0.258119 0.25
321 1.70939 1.86926 1.99201 0.25
322 0.681747 6.90084 5.04094 0.25
323 6.54218 10.1035 9.30951 0.5
324 7.09519 2.11821 3.2468 0.25
325 8.9885 4.04421 2.16336 0.25
326 2.27488 10.2713 3.44065 0.25
327 1.49799 8.7045 8.0055 0.25
328 4.08561 4.18931 2.46583 0.25
329 9.02379 7.28883 3.36235 0.5
330 10.2725 6.6947 1.64822 0.25
331 8.85922 0.330093 4.02837 0.25
332 5.71389 7.888 0.90603 0.25
333 9.90546 7.77874 9.40133 0.25
334 6.66612 4.90612 1.22489 0.25
335 5.68166 4.99362 0.27227 0.25
336 8.92057 3.94316 1.69594 0.25
337 4.32135 6.16673 8.23639 0.25
338 5.95089 8.34406 2.6574 0.25
339 4.01395 5.41507 9.2363 0.25
340 0.0179706 2.51056 10.1386 0.25
341 3.80506 5.55525 4.24059 0.25
342 9.66003 3.72897 7.40438 0.25
343 9.8196 2.46397 4.4818 0.25
344 4.4184 1.88044 3.25099 0.25
345 6.67265 4.25797 10.2994 0.25
346 1.41999 2.04286 7.60881 0.25
347 3.48439 3.62074 0.472774 0.25
348 6.10523 7.21897 0.534172 0.25
349 4.77701 1.97897 7.88438 0.25
350 2.96372 3.16295 7.94009 0.25
351 5.65054 6.10518 3.35719 0.25
352 8.0258 6.41378 1.00189 0.25
353 10.1069 4.00585 7.57416 0.25
354 9.68894 3.50219 1.77834 0.25
355 2.78989 1.55283 2.37546 0.25
356 4.36987 9.49809 0.442762 0.25
357 3.2298 4.67918 5.96349 0.25
358 4.76585 9.19455 0.470458 0.25
359 8.82798 6.82153 0.226082 0.5
360 3.53838 10.115 6.08302 0.25
361 0.0423443 0.739688 6.09484 0.25
362 10.3139 7.6874 9.68001 0.25
363 7.23443 2.93152 2.71929 0.25
364 0.193669 6.58011 1.15459 0.25
365 5.96821 8.96012 5.75279 0.25
366 8.81464 4.44883 1.8725 0.25
367 4.29054 0.520647 8.59902 0.25
368 9.33162 6.25941 7.77615 0.25
369 8.52407 4.0921 4.51311 0.5
370 4.75876 1.68257 7.22161 0.5
371 9.80221 6.41346 1.13011 0.5
372 0.987407 2.42228 4.0653 0.5
373 4.41209 0.0682432 8.68315 0.25
374 3.49675 10.0784 8.8093 0.25
375 5.01927 1.62475 3.80205 0.25
376 0.601614 5.7225 3.99866 0.25
377 -0.003981 7.69077 9.19463 0.25
378 9.76449 9.29313 1.05439 0.25
379 0.495123 4.03651 6.53102 0.25
380 1.39675 2.52905 4.73713 0.25
381 6.70288 5.15057 1.96403 0.5
382 1.81374 8.32636 9.90797 0.25
383 5.14106 8.5767 7.90937 0.25
384 2.2417 6.1148 6.91874 0.25
385 1.23082 6.92354 4.43288 0.25
386 1.70676 5.70126 7.49786 0.25
387 2.21315 5.804 7.34391 0.25
388 1.95921 1.28687 2.51132 0.25
389 5.68726 1.63966 1.12786 0.25
390 3.15656 3.54668 0.817899 0.25
391 3.21508 0.0350142 6.33002 0.25
392 0.373309 5.6034 4.53019 0.25
393 8.84906 8.58649 6.88281 0.25
394 0.673219 0.198882 6.04052 0.25
395 1.6445 4.72161 2.40099 0.25
396 3.22011 0.412096 8.60077 0.25
397 7.60244 2.23811 3.01195 0.25
398 9.02507 4.63185 9.59672 0.25
399 2.39353 9.59143 8.09843 0.25
400 8.2722 2.57086 10.0989 0.25
401 5.58361 6.06474 3.90531 0.25
402 4.47823 5.9408 8.67599 0.25
403 6.18097 4.87832 0.162375 0.25
404 8.45947 3.46866 10.1792 0.25
405 1.90887 5.21808 0.186133 0.25
406 6.23845 9.29754 5.62997 0.25
407 7.00557 6.57368 8.70594 0.25
408 9.20339 8.85035 1.52143 0.25
409 0.154913 6.277 1.53662 0.25
410 5.80197 1.10487 3.63112 0.25
411 7.50329 9.19009 9.34072 0.25
412 4.90025 2.33024 7.59088 0.25
413 7.24796 2.47522 2.93147 0.25
414 6.52245 5.52906 2.58111 0.25
415 5.05598 1.50475 3.06188 0.5
416 10.0615 10.2275 9.10526 0.25
417 3.77079 7.90544 5.33124 0.5
418 0.949819 1.22096 6.94831 0.5
419 8.77771 0.0181631 3.60885 0.25
420 5.56268 8.3307 8.10581 0.25
421 9.92612 6.29979 7.22896 0.25
422 2.61131 7.26026 3.29658 0.25
423 1.36156 5.13724 2.51415 0.25
424 0.381205 10.1666 9.88044 0.25
425 2.308 9.74418 4.36989 0.25
426 2.35158 1.53606 2.58985 0.25
427 7.32778 0.990802 6.76216 0.25
428 6.51167 9.27075 2.55627 0.25
429 5.57222 8.74658 7.85856 0.25
430 9.12581 9.39518 3.91195 0.25
431 6.47679 10.3477 1.42512 0.25
432 2.71681 7.41329 10.0958 0.25
433 2.75938 2.65004 5.13785 0.25
434 6.52333 9.9509 8.58416 0.25
435 0.159451 3.11988 9.5108 0.25
436 6.59077 4.64289 0.271205 0.25
437 1.49683 5.44206 9.30101 0.25
438 7.74066 0.7847 7.02529 0.25
439 9.40269 10.0583 3.89074 0.5
440 2.25208 2.91764 8.07443 0.5
441 0.590992 4.00709 2.33238 0.25
442 5.02459 7.64371 0.479997 0.25
443 9.45471 9.49416 4.27506 0.25
444 0.836248 3.73975 1.96761 0.25
445 6.06029 6.40401 3.33337 0.25
446 8.36315 4.60424 5.06624 0.25
447 6.55717 4.73072 10.1766 0.25
448 4.75938 0.937554 3.81632 0.5
449 10.1405 0.453727 6.34504 0.25
450 2.91164 1.71524 1.90189 0.25
451 3.7935 4.2071 10.3134 0.25
452 6.00139 3.95822 4.26008 0.25
453 7.54121 4.28853 7.96594 0.25
454 1.26347 6.28524 7.94765 0.25
455 1.29642 5.94215 7.58671 0.25
456 1.89446 1.73644 2.43753 0.25
457 9.48415 8.66525 0.898962 0.5
458 2.57663 6.72128 7.37695 0.25
459 1.72684 1.33346 6.90755 0.25
460 2.4725 6.50091 6.9412 0.25
461 3.99174 6.316 2.04338 0.25
462 4.32621 6.51318 1.73606 0.25
463 3.04769 10.0611 4.6111 0.25
464 9.62081 1.36334 1.81039 0.25
465 6.39356 4.95093 2.6101 0.25
466 4.73683 5.63549 6.98178 0.5
467 3.90238 4.53794 5.41729 0.25
468 2.33916 1.80671 1.21859 0.25
469 4.20684 3.65394 2.40767 0.25
470 4.82409 3.89308 3.02399 0.25
471 1.70552 0.237109 3.76729 0.25
472 1.83217 2.3558 7.78533 0.25
473 2.93996 8.17857 9.7703 0.25
474 9.18633 4.49811 2.16034 0.25
475 8.77354 7.13686 2.64837 0.25
476 4.2588 6.25048 1.30514 0.25
477 9.93206 9.59751 4.18051 0.25
478 8.72103 6.62983 1.2083 0.5
479 7.04327 0.511864 1.12585 0.25
480 2.51962 7.80664 0.0115869 0.25
481 3.98392 9.2562 0.689419 0.25
482 6.34431 9.76786 5.53747 0.25
483 6.80808 10.3397 0.659926 0.5
484 9.98342 3.43297 7.56991 0.25
485 7.99466 3.36744 10.2962 0.25
486 4.55637 9.03072 3.6427 0.25
487 3.21613 3.21523 0.450988 0.25
488 6.50257 9.76674 2.67561 0.25
489 9.2368 6.60299 3.20479 0.25
490 2.36305 3.66303 8.17728 0.25
491 8.69662 9.07055 6.67618 0.25
492 7.81996 2.41301 10.1153 0.25
493 9.66773 3.2753 7.26237 0.25
494 8.42395 4.85516 4.64334 0.25
495 10.0585 3.00342 7.27824 0.25
496 4.46809 1.63184 6.49895 0.25
497 3.79389 3.69461 0.0756065 0.25
498 8.10988 1.34128 9.21131 0.25
499 4.05848 9.4313 1.62397 0.25
500 3.5433 7.16034 8.90857 0.25
501 2.07443 0.299719 4.19534 0.25
502 8.4415 5.60399 6.41313 0.25
503 6.36214 8.21635 3.4005 0.25
504 5.34543 7.25202 0.443932 0.25
505 7.43076 1.63315 6.33565 0.5
506 5.62874 0.130893 5.25576 0.25
507 6.25384 8.05441 2.93324 0.25
508 4.70035 7.86917 8.23776 0.25
509 1.24404 9.22169 7.36825 0.25
510 5.67612 4.23922 4.5948 0.25
511 3.65816 10.1927 6.60419 0.25
512 1.70052 4.91709 2.85342 0.25
513 1.28785 4.72884 9.91252 0.25
514 2.85458 2.36152 5.55124 0.25
515 1.86291 1.55421 7.91289 0.5
516 5.82187 9.67517 6.09302 0.5
517 8.87209 6.70097 2.82855 0.25
518 3.54297 1.01713 9.43888 0.25
519 1.65239 0.0292829 4.21992 0.25
520 5.26821 2.14167 7.32821 0.25
521 0.879792 4.47563 5.33275 0.25
522 2.07128 10.15 4.39269 0.25
523 2.87583 3.09272 8.44379 0.25
524 7.65489 2.32084 5.36309 0.25
525 2.0131 6.52918 6.71392 0.25
526 1.72715 6.35357 8.22155 0.25
527 7.16306 8.94283 2.91363 0.5
528 7.1201 8.16925 2.72857 0.25
529 3.70753 5.44567 1.06889 0.25
530 1.17514 7.80763 2.83143 0.25
531 0.58097 2.84572 9.56946 0.25
532 1.43709 7.40555 0.296968 0.25
533 8.70884 9.7433 3.994 0.25
534 8.773 4.31434 5.14892 0.25
535 7.24025 7.35937 8.45 0.25
536 4.77609 10.1354 0.782058 0.25
537 8.10613 1.05233 3.56498 0.25
538 6.92003 4.53895 7.52612 0.25
539 0.0145898 3.5895 6.99984 0.5
540 6.03925 9.96032 8.60973 0.25
541 9.2704 9.22669 1.25703 0.25
542 7.54636 9.21318 6.18762 0.25
543 9.18723 3.96667 4.53909 0.25
544 1.94824 1.64186 7.19793 0.25
545 10.007 9.92198 3.35512 0.25
546 0.393044 0.974203 6.41014 0.25
547 9.29056 3.71348 2.02906 0.25
548 8.8162 4.88936 9.20852 0.25
549 1.23782 0.0684989 1.86978 0.25
550 9.61857 9.06025 1.5445 0.25
551 3.09049 7.12812 3.25631 0.25
552 8.58522 9.49656 6.44778 0.25
553 5.42469 2.61612 5.35255 0.25
554 9.20712 4.3094 4.90516 0.25
555 5.44021 8.32288 7.61128 0.25
556 1.57469 8.80315 7.19628 0.25
557 2.51658 9.78952 7.65133 0.25
558 2.76632 3.96577 8.05728 0.25
559 9.37532 0.238274 9.43057 0.25
560 3.11195 4.48412 5.54285 0.25
561 1.29717 3.60802 2.07784 0.25
562 5.2976 5.48774 9.73501 0.25
563 6.08406 10.1455 7.77883 0.25
564 1.51372 1.72733 7.23606 0.25
565 2.93982 2.20983 1.74792 0.25
566 9.70435 6.02105 7.60276 0.25
567 2.07433 5.30937 0.657532 0.25
568 7.05125 2.13922 5.90455 0.25
569 7.19802 4.3016 6.829 0.5
570 4.31429 4.03313 2.12129 0.25
571 3.38815 4.14812 3.08721 0.25
572 8.52483 1.5031 9.35383 0.25
573 1.10702 6.86603 4.90341 0.25
574 0.236521 1.08364 6.87666 0.25
575 5.89255 3.44048 4.37613 0.25
576 5.46206 2.04306 0.911164 0.25
577 1.06491 7.52322 5.56784 0.25
578 0.999269 5.45326 9.91422 0.5
579 4.76094 5.04616 6.51568 0.25
580 8.47465 7.67323 3.78489 0.25
581 6.68374 6.77906 8.40252 0.25
582 7.00873 4.57386 4.47174 0.25
583 8.68553 6.31667 5.9774 0.25
584 5.61334 6.5997 3.27965 0.25
585 6.98104 0.0640155 1.38414 0.25
586 1.52257 3.01876 4.84346 0.25
587 6.02569 10.172 5.44106 0.25
588 3.46512 0.68929 9.7677 0.25
589 10.2481 4.51243 1.96399 0.25
590 8.72967 6.51384 3.25167 0.25
591 3.37423 1.70301 5.55237 0.25
592 7.12545 5.77182 2.04443 0.25
593 5.29629 10.1934 5.97709 0.25
594 8.49657 5.79592 10.2058 0.25
595 1.86288 2.07586 7.38119 0.25
596 8.79842 8.97726 1.25239 0.25
597 4.82436 1.98573 3.55749 0.25
598 5.47502 7.75083 0.484853 0.25
599 10.0829 1.54113 1.77478 0.25
600 3.81509 9.2901 2.39729 0.25
601 7.26029 8.91265 2.13345 0.25
602 5.97246 8.32173 3.61934 0.25
603 2.233 6.91109 7.01964 0.25
604 8.83274 1.33988 1.55614 0.25
605 1.71706 7.86714 2.89938 0.25
606 2.05507 1.16606 7.26757 0.25
607 2.07197 2.22191 8.17315 0.25
608 6.87417 7.26782 5.634 0.5
609 3.94182 6.76654 1.83756 0.25
610 6.06961 4.65313 0.849089 0.5
611 8.79793 8.61577 7.85352 0.25
612 8.12676 0.344504 3.86422 0.5
613 7.75081 3.13555 9.92326 0.25
614 9.57099 6.6205 0.380357 0.25
615 7.98872 3.80698 7.48065 0.25
616 1.60207 1.3044 7.35903 0.25
617 2.65083 3.53338 7.76695 0.25
618 8.33595 3.07978 0.0816063 0.25
619 0.780595 8.9288 2.49014 0.25
620 6.67263 5.82485 2.20851 0.25
621 6.11908 4.64867 1.99237 0.25
622 6.82306 7.26191 8.20309 0.25
623 7.71722 4.79749 4.69348 0.5
624 5.19032 8.50875 8.34515 0.25
625 4.72084 1.62501 0.893166 0.25
626 2.86695 2.64657 4.28533 0.25
627 6.98241 5.53196 2.46226 0.25
628 1.84157 10.1195 0.424843 0.25
629 6.8244 10.109 10.3428 0.25
630 6.43228 7.50629 0.718818 0.25
631 7.34508 1.99394 5.12878 0.25
632 3.38599 4.01912 0.149653 0.25
633 3.79467 4.00513 0.432158 0.25
634 4.57481 7.55129 8.84317 0.5
635 9.50108 6.36692 7.29884 0.25
636 8.87042 5.42085 10.0048 0.25
637 6.32805 8.96648 5.33909 0.25
638 2.73605 10.2192 4.00041 0.5
639 6.85928 2.62316 2.59057 0.25
640 7.89698 1.67506 8.08252 0.25
641 4.25696 5.62031 4.02814 0.25
642 3.453 7.50013 6.33233 0.25
643 2.72517 1.12775 9.93163 0.25
644 5.72278 9.45568 5.19695 0.5
645 3.36672 4.39087 10.1378 0.25
646 8.32387 7.28885 3.41331 0.25
647 6.35836 7.25979 5.08471 0.25
648 7.79498 1.26614 7.80379 0.25
649 4.46857 6.10002 9.24081 0.25
650 7.4292 1.18016 4.01484 0.25
651 4.72973 8.38758 8.16126 0.25
652 1.04721 5.86721 8.01196 0.25
653 0.776921 4.89699 5.54954 0.25
654 2.58504 6.16437 7.31353 0.25
655 9.9611 4.23661 2.29296 0.25
656 4.99585 4.93695 7.28949 0.25
657 8.88554 9.21066 6.22749 0.25
658 7.38101 4.56134 7.61276 0.25
659 8.59665 0.0592867 4.44531 0.25
660 1.88492 6.42715 7.46023 0.5
661 2.55246 7.7183 3.07315 0.25
662 7.68355 9.34834 5.74369 0.25
663 3.16448 0.044497 8.912 0.25
664 1.20793 2.22512 0.00628258 0.25
665 8.15782 6.80481 0.698439 0.25
666 6.44061 0.144993 7.8209 0.25
667 8.34188 3.53721 0.308171 0.25
668 7.97717 2.41476 5.74753 0.25
669 3.25069 7.54975 9.52826 0.5
670 10.1927 2.99163 9.92588 0.25
671 0.849455 6.19575 4.61837 0.5
672 7.64407 7.23464 5.50064 0.25
673 4.47133 9.27099 0.876056 0.25
674 6.75504 4.96481 4.28169 0.25
675 8.3205 8.81868 8.06988 0.25
676 5.01166 1.8186 0.248666 0.5
677 9.77061 3.78259 7.897 0.25
678 0.363913 0.287667 6.6723 0.5
679 2.28116 2.22325 7.69194 0.25
680 2.62972 6.72458 2.51255 0.25
681 8.43465 8.87131 7.08176 0.25
682 3.35821 7.74761 4.6875 0.25
683 1.51639 2.6267 0.0974152 0.25
684 1.67849 8.43835 7.59685 0.25
685 8.315 10.0401 4.20671 0.25
686 6.18272 9.94233 5.07693 0.25
687 9.52276 3.36643 7.74721 0.25
688 6.57522 7.14663 0.363206 0.25
689 1.61116 2.23865 4.39042 0.25
690 9.91568 7.53515 8.96702 0.25
691 0.612222 8.30487 5.5529 0.25
692 1.07619 4.5265 5.77517 0.25
693 9.46364 1.82556 4.03944 0.25
694 3.03781 3.7208 0.409759 0.25
695 7.14832 2.34702 5.49127 0.25
696 5.38201 0.917345 3.41529 0.25
697 1.31197 8.80363 7.58043 0.25
698 8.75588 6.15764 0.623075 0.25
699 3.19363 7.45518 5.06281 0.25
700 6.66317 7.29281 10.2245 0.25
701 3.51572 4.79402 5.55979 0.25
702 6.24699 3.81737 5.17848 0.25
703 1.92822 10.0395 1.58264 0.25
704 7.49413 3.89673 8.29542 0.25
705 4.13623 5.83535 8.99178 0.25
706 7.95851 0.824377 7.78423 0.25
707 6.17385 6.85856 4.78326 0.25
708 5.70062 6.47541 3.68403 0.25
709 0.66459 4.55411 1.86155 0.5
710 1.24602 4.78074 5.40887 0.25
711 7.52995 3.76039 7.23468 0.25
712 4.68067 8.62592 3.37813 0.25
713 1.4831 4.75356 3.26426 0.25
714 2.5478 10.0741 4.60961 0.25
715 2.68217 3.86819 8.54159 0.25
716 9.19008 9.11209 0.389019 0.25
717 3.95792 4.99636 5.65424 0.25
718 5.67433 3.27546 5.13924 0.5
719 5.90299 2.6073 5.53655 0.25
720 5.29545 0.504277 3.58669 0.25
721 3.84538 8.23149 6.41956 0.25
722 3.71958 5.80385 4.59685 0.25
723 6.21009 6.39832 5.95373 0.25
724 9.69005 0.187315 9.03366 0.25
725 3.99331 10.2046 6.28395 0.25
726 4.22378 5.60052 4.48568 0.25
727 3.32739 5.55819 4.41444 0.25
728 1.91102 7.51103 10.0808 0.5
729 8.18079 1.65762 6.21081 0.25
730 8.46314 1.11624 8.98985 0.25
731 1.60217 5.06564 9.58716 0.25
732 3.95691 7.4101 6.38161 0.25
733 9.70103 2.25016 4.03776 0.25
734 8.52347 6.84793 3.55907 0.25
735 3.2084 2.14244 5.80927 0.25
736 9.36765 6.75464 6.53281 0.25
737 0.547915 4.5466 5.75456 0.25
738 4.96732 8.14014 8.55242 0.25
739 3.35499 3.52944 0.0341042 0.25
740 8.00522 6.57602 1.49607 0.25
741 7.06001 2.97998 2.29708 0.25
742 4.48422 2.02854 0.712926 0.25
743 9.64055 2.76362 4.16208 0.25
744 2.18932 2.62976 4.69805 0.5
745 0.34084 4.12286 6.00952 0.25
746 6.36882 4.65736 1.57828 0.25
747 7.57089 2.14569 0.216644 0.25
748 6.55152 9.90273 9.99503 0.25
749 7.62369 3.79503 7.77184 0.25
750 4.41568 2.0951 6.67701 0.25
751 1.77407 2.53195 4.00251 0.25
752 9.46283 2.1247 4.44611 0.25
753 0.599986 2.17003 9.89318 0.5
754 7.93942 1.18695 6.11387 0.25
755 7.94911 2.86239 10.2652 0.25
756 5.6905 2.10288 0.430946 0.25
757 10.3113 2.54905 3.8496 0.5
758 2.72507 9.6546 4.60561 0.25
759 5.3583 3.01018 7.8521 0.25
760 4.88339 0.849894 2.72237 0.25
761 6.55707 6.59567 5.6413 0.25
762 0.706012 3.58695 6.58474 0.25
763 6.35045 4.45674 4.75895 0.5
764 5.79126 6.37524 2.8997 0.25
765 7.38916 6.9313 8.73748 0.25
766 1.28003 5.18114 2.98851 0.25
767 6.86138 2.17965 2.75639 0.25
768 5.30975 2.32404 6.062 0.5
769 0.482939 2.66745 0.00914476 0.25
770 5.84443 6.88834 5.51447 0.5
771 6.2036 7.04795 0.0668313 0.25
772 6.95521 9.32819 5.66964 0.5
773 6.36297 4.32304 9.90792 0.25
774 6.66589 8.28993 3 0.25
775 10.0497 8.00076 9.00236 0.25
776 4.50174 9.98104 0.375806 0.25
777 0.605357 8.47116 2.65383 0.25
778 4.50267 0.23914 8.24501 0.25
779 9.77845 7.76029 8.587 0.25
780 5.53286 5.23908 9.32849 0.25
781 5.32273 6.79435 3.7091 0.25
782 9.21509 6.36531 0.667927 0.25
783 4.4199 9.0503 3.15311 0.25
784 3.48035 3.91791 10.0982 0.25
785 9.1331 8.88476 8.10717 0.25
786 7.42098 7.50042 5.18036 0.25
787 7.37317 6.991 5.17944 0.25
788 5.03222 0.709471 3.14025 0.25
789 7.38252 5.40942 2.16911 0.25
790 4.84787 1.97192 6.50624 0.25
791 9.12637 6.58504 6.11519 0.25
792 4.09231 3.84162 3.1612 0.5
793 10.3332 10.306 9.54157 0.25
794 2.53421 1.98413 1.60377 0.25
795 1.28309 9.13651 7.85537 0.25
796 2.16548 9.96974 5.1096 0.5
797 9.7005 9.57717 3.40337 0.25
798 8.95557 3.50647 4.68575 0.25
799 3.26886 6.59153 2.04296 0.5
800 9.66012 0.897617 2.00304 0.25
801 6.65311 0.0354777 9.98901 0.25
802 5.69105 7.40811 0.763656 0.25
803 9.52466 5.2418 9.43798 0.25
804 4.55287 4.88815 7.00901 0.25
805 9.18725 4.47882 4.45925 0.25
806 2.67792 9.45963 7.2822 0.25
807 3.78049 4.61053 5.91046 0.25
808 9.15508 5.62887 9.58815 0.25
809 1.01204 5.52304 9.21571 0.25
810 8.04072 1.93081 6.62882 0.25
811 9.4276 4.87863 9.74929 0.25
812 3.8939 6.32283 1.59012 0.25
813 1.08015 4.02918 2.24019 0.25
814 2.01184 0.161484 0.0711685 0.25
815 3.78299 5.12406 4.91397 0.5
816 7.03853 0.192425 10.2759 0.25
817 4.09432 9.88213 1.01353 0.5
818 8.53469 6.28523 10.082 0.25
819 3.8547 5.89158 1.32335 0.25
820 7.13189 4.52151 8.02377 0.25
821 8.34665 8.41618 7.70454 0.25
822 4.96585 3.8927 2.53804 0.25
823 2.00423 9.18777 7.63277 0.5
824 6.58022 4.32166 7.29327 0.25
825 8.22673 8.97619 6.02268 0.5
826 6.70156 2.23889 2.315 0.25
827 9.59252 6.3978 6.79824 0.25
828 9.23953 3.61605 1.5638 0.25
829 0.747182 6.92793 4.54833 0.25
830 3.85501 6.33948 1.07259 0.25
831 2.64041 7.03171 2.08384 0.25
832 4.21098 5.47808 8.75738 0.25
833 6.27944 6.46323 6.40174 0.25
834 8.80022 4.76619 4.30223 0.25
835 1.21662 1.53273 7.56316 0.25
836 5.94451 4.94116 1.61656 0.25
837 3.74846 7.63916 8.87127 0.25
838 2.98977 9.75145 7.55902 0.25
839 0.023148 1.79631 3.79982 0.25
840 9.02887 3.8552 5.04216 0.25
841 5.86146 4.89542 9.8887 0.5
842 6.88882 7.12679 8.68697 0.25
843 0.781163 9.37387 2.32962 0.25
844 5.93535 4.44248 1.56476 0.25
845 8.85579 4.66673 4.81545 0.25
846 0.833377 5.56108 4.35482 0.25
847 7.59709 2.64049 0.153245 0.25
848 2.89176 0.659992 9.32104 0.5
849 7.28737 5.12775 2.53507 0.25
850 4.12256 8.94888 3.89445 0.25
851 3.6451 6.68938 1.42328 0.25
852 5.47348 0.888687 3.90289 0.25
853 8.76145 9.98337 4.43615 0.25
854 2.49338 3.37838 8.57663 0.25
855 3.6244 5.9903 1.77316 0.25
856 9.94988 3.29999 8.02471 0.25
857 5.31591 3.95337 4.92155 0.25
858 8.78441 7.34332 4.06081 0.25
859 9.40729 1.12744 1.0483 0.25
860 1.51767 10.3391 4.98611 0.25
861 3.58455 9.69754 2.2399 0.25
862 7.81088 1.03129 8.47018 0.5
863 1.23611 2.61788 10.0163 0.25
864 3.56699 3.37924 2.98951 0.25
865 1.03757 7.07979 5.3463 0.25
866 3.24173 1.33605 9.24645 0.25
867 3.40766 8.13013 10.0366 0.25
868 9.27073 1.39407 1.44561 0.25
869 0.644261 8.25294 4.6875 0.25
870 7.17181 6.92932 8.32369 0.25
871 6.70513 2.68514 2.10557 0.25
872 8.5224 1.36844 7.7974 0.5
873 5.72442 10.112 5.00917 0.25
874 6.42194 9.47195 5.17061 0.25
875 3.38738 8.23563 4.78275 0.25
876 3.45792 6.21187 1.43735 0.25
877 0.338073 2.28166 4.46701 0.25
878 0.351981 9.97621 9.39743 0.25
879 0.620477 7.77245 5.49453 0.25
880 5.6215 3.77407 4.5639 0.25
881 4.06988 6.57959 8.84975 0.5
882 10.0277 0.471952 5.86878 0.25
883 5.60211 2.90555 5.72767 0.25
884 2.23564 1.34809 1.84351 0.5
885 9.22861 9.33189 3.48018 0.25
886 8.93671 9.0894 0.805913 0.25
887 1.85821 5.82134 7.02727 0.25
888 1.54156 0.109247 2.27715 0.25
889 5.01734 5.3418 7.5773 0.25
890 0.761379 3.83743 6.13533 0.25
891 3.32088 3.78769 2.84863 0.25
892 6.73844 8.50836 3.41642 0.25
893 8.22337 3.07456 9.94046 0.25
894 1.74119 7.81618 0.361378 0.25
895 10.2737 3.64738 7.84839 0.25
896 9.78579 1.35743 1.35406 0.25
897 4.16542 7.89299 6.39094 0.25
898 0.89391 5.07814 4.79721 0.5
899 10.27 0.849242 6.55917 0.25
900 8.4901 6.93362 3.06108 0.25
901 1.01412 8.02655 5.41972 0.25
902 5.19629 1.62947 1.00524 0.25
903 8.37471 7.59367 4.22825 0.25
904 1.90773 5.69238 9.93716 0.5
905 9.04819 0.939859 1.35977 0.25