ITEM: TIMESTEP
630000
ITEM: NUMBER OF ATOMS
1000
ITEM: BOX BOUNDS xy xz yz pp pp pp
0.0000000000000000e+00 1.0357442000000001e+01 0.0000000000000000e+00
0.0000000000000000e+00 1.0357442000000001e+01 0.0000000000000000e+00
0.0000000000000000e+00 1.0357442000000001e+01 0.0000000000000000e+00
ITEM: ATOMS id x y z radius
1 1.29648 4.31675 2.81658 0.5
2 2.02054 7.67432 2.91326 0.5
3 5.72241 2.09682 1.14246 0.25
4 0.928174 2.10669 3.69025 0.25
5 9.22222 3.73091 7.33208 0.25
6 0.355155 2.84122 9.34741 0.25
7 4.18926 0.932093 3.36759 0.25
8 8.7594 3.99161 1.62591 0.25
9 9.89962 1.3614 1.469 0.25
10 8.66987 7.2213 4.47866 0.25
11 9.96252 8.82226 1.76493 0.25
12 7.88485 2.54239 10.1385 0.25
13 3.34734 7.22622 6.00359 0.25
14 5.25333 2.39874 0.078191 0.25
15 8.85592 5.82082 6.08573 0.25
16 9.03657 8.90406 6.34427 0.25
17 5.31234 8.90575 8.40638 0.5
18 2.39493 7.63655 9.70708 0.25
19 7.15603 4.18539 4.81663 0.25
20 9.3637 0.973176 0.862756 0.25
21 0.583031 0.220231 9.63388 0.25
22 4.08848 0.468689 3.21737 0.25
23 4.47375 4.27794 2.66211 0.25
24 2.57262 2.11845 4.46755 0.25
25 7.31518 2.17328 5.96727 0.25
26 5.30281 2.65485 8.2331 0.25
27 1.50566 8.04511 0.0213156 0.25
28 8.82454 6.23085 6.40137 0.25
29 3.70931 7.34533 5.62643 0.25
30 1.27236 8.27309 7.26474 0.25
31 1.03742 7.38934 5.30366 0.25
32 9.02233 6.78829 1.36851 0.25
33 9.79086 8.38292 1.6292 0.25
34 1.14789 3.21881 9.74364 0.25
35 7.74574 2.18701 9.75742 0.25
36 8.6098 8.80241 9.79877 0.25
37 4.25429 5.08699 5.54019 0.25
38 7.38119 0.29414 1.06441 0.25
39 6.42101 3.58862 5.16601 0.25
40 8.52929 4.58779 4.45808 0.25
41 8.09846 7.97678 4.28341 0.25
42 6.80836 8.70029 1.90288 0.5
43 0.521258 8.61822 5.10883 0.25
44 3.10988 10.1447 4.42277 0.25
45 6.89183 7.39348 8.53319 0.25
46 1.10024 8.34711 7.73209 0.25
47 4.45534 8.27732 3.73333 0.25
48 3.21052 9.6382 4.47725 0.25
49 4.19105 6.09887 9.17792 0.25
50 10.1669 9.45022 3.63309 0.25
51 9.54592 9.11549 0.66273 0.25
52 6.03587 7.83398 0.72524 0.25
53 6.66352 5.42472 1.77138 0.25
54 4.70023 5.00386 8.12976 0.25
55 6.09166 7.35919 6.72178 0.25
56 5.1447 1.46988 1.24333 0.25
57 5.42943 2.56941 0.553852 0.25
58 5.78243 4.58513 0.410608 0.25
59 3.70067 8.05428 9.06121 0.25
60 7.00211 7.48399 9.00344 0.25
61 3.08589 10.2847 8.88206 0.25
62 9.28001 6.3638 6.56868 0.25
63 0.85035 5.13568 4.47914 0.25
64 9.74675 1.72543 1.7584 0.25
65 6.30279 6.50977 6.67419 0.25
66 4.07868 1.15491 2.9161 0.25
67 9.47547 4.96479 9.45136 0.25
68 6.18592 0.0567969 10.2574 0.25
69 2.64016 7.37464 2.73233 0.25
70 3.50644 5.65246 3.96631 0.25
71 1.34689 7.94493 2.87882 0.25
72 5.57508 6.65301 3.27527 0.25
73 9.2454 8.79342 7.08576 0.5
74 2.72743 7.87097 2.88045 0.25
75 0.939993 5.69857 0.670946 0.25
76 1.78573 8.27818 0.356491 0.25
77 6.85991 7.01084 8.90667 0.25
78 3.64633 9.36257 1.35528 0.25
79 1.19571 5.26254 9.75091 0.25
80 8.25225 8.47684 9.77761 0.25
81 8.24695 9.21366 7.35285 0.25
82 1.85294 0.631488 2.0161 0.25
83 1.95361 8.30038 2.42557 0.25
84 5.50418 9.92514 5.84456 0.25
85 3.44583 6.66439 1.46277 0.25
86 9.79144 4.2086 1.5226 0.5
87 1.34365 5.90162 8.42616 0.25
88 3.05249 3.71569 7.99634 0.25
89 0.971171 0.069203 9.83047 0.25
90 6.84683 10.2384 1.56608 0.5
91 4.26907 8.62192 4.04084 0.25
92 9.1886 1.14642 1.68591 0.25
93 8.52358 1.2566 8.25281 0.25
94 0.919758 4.1852 2.13704 0.25
95 7.93703 9.20174 5.47839 0.25
96 7.76969 1.34813 7.11425 0.25
97 5.8827 10.0526 5.55769 0.25
98 10.1751 0.897529 6.01999 0.25
99 5.21092 2.01597 8.37108 0.5
100 5.5337 2.95602 5.75364 0.25
101 5.5136 2.31936 9.77385 0.5
102 4.09542 5.12427 8.5522 0.5
103 6.97074 0.116204 0.87184 0.25
104 0.99531 -0.00172105 -0.0107125 0.25
105 1.99493 5.14192 3.15324 0.25
106 5.71919 6.86946 6.21114 0.25
107 5.94296 9.98572 8.70122 0.25
108 1.98991 3.6211 2.11432 0.25
109 7.79404 2.39624 2.95848 0.25
110 6.10584 0.0924206 5.70734 0.25
111 1.78421 5.94685 0.545505 0.25
112 3.85422 5.26765 5.76591 0.25
113 2.1903 0.0794529 4.83367 0.25
114 8.37142 6.27613 0.22109 0.25
115 3.78147 3.36261 2.79549 0.25
116 0.167777 2.37841 4.70047 0.25
117 7.14721 2.02806 2.48764 0.5
118 7.19282 8.19455 2.16484 0.25
119 0.0447438 1.93271 3.67244 0.25
120 1.66432 5.74114 0.058219 0.25
121 7.85108 2.40625 5.48228 0.5
122 2.03445 4.34294 2.69378 0.25
123 9.17832 9.20578 1.36482 0.25
124 8.15858 6.3215 0.71138 0.25
125 1.45608 9.97661 4.74533 0.25
126 6.09201 7.64192 0.293588 0.25
127 6.01634 7.33758 0.667924 0.25
128 9.34816 9.61866 4.1446 0.25
129 1.52821 5.39821 3.19199 0.25
130 9.10469 9.1001 0.8594 0.25
131 7.88873 2.09298 2.53486 0.25
132 8.42417 4.98853 4.71532 0.25
133 8.16961 8.96921 9.90449 0.25
134 4.67834 4.21101 3.12867 0.25
135 5.97516 9.55586 8.04079 0.5
136 8.49221 8.96911 6.98153 0.25
137 1.42719 9.58966 1.86826 0.25
138 7.04968 4.5302 4.51502 0.25
139 6.97698 4.58998 7.75139 0.5
140 4.8258 8.00254 3.36415 0.25
141 2.13705 1.61736 1.27175 0.25
142 3.20938 2.66156 4.86615 0.25
143 7.6286 1.05504 3.54439 0.25
144 10.3086 6.87382 2.05468 0.25
145 3.74362 7.47005 6.13277 0.25
146 6.70721 9.56627 3.04374 0.25
147 3.81297 5.18723 3.83438 0.25
148 3.34982 1.52573 10.2337 0.25
149 9.58762 7.4604 9.09901 0.25
150 4.33086 4.94128 7.82154 0.25
151 6.96737 9.83694 9.83997 0.25
152 3.95495 9.60091 1.05389 0.25
153 5.47293 1.66173 7.75051 0.25
154 5.29423 9.60656 8.31403 0.25
155 4.06894 5.9036 1.53447 0.25
156 0.786544 8.47173 7.3422 0.25
157 5.5112 1.00416 3.07323 0.25
158 8.86068 9.66973 6.52366 0.25
159 3.62383 2.53617 5.19823 0.25
160 2.78506 3.22808 7.94523 0.25
161 3.39464 0.0717609 9.29975 0.25
162 4.10281 2.09999 6.00068 0.5
163 6.4078 10.0431 2.2326 0.25
164 5.05414 8.39447 7.84534 0.25
165 0.666018 3.20533 9.93818 0.25
166 6.6702 3.97811 6.82619 0.25
167 9.07902 10.264 3.83474 0.25
168 10.2458 7.88819 8.77154 0.25
169 9.05541 6.75556 7.22522 0.25
170 3.14319 0.359889 8.11644 0.25
171 0.734705 8.95139 7.36123 0.25
172 9.6217 6.345 6.87861 0.25
173 0.949729 2.61588 3.7082 0.25
174 4.76348 1.9159 6.32318 0.25
175 9.46188 3.92772 7.71824 0.25
176 0.588594 5.59691 0.345476 0.25
177 9.56328 6.17729 7.31736 0.25
178 7.64542 1.73017 5.23102 0.25
179 2.45958 9.44039 7.83202 0.25
180 7.21473 9.29838 2.49252 0.5
181 0.951777 4.08172 5.76322 0.25
182 8.10577 1.05979 3.53659 0.25
183 2.39659 9.76856 4.17797 0.25
184 9.31158 5.25368 9.83548 0.25
185 9.00994 9.36854 6.16595 0.25
186 2.50444 8.52708 9.76664 0.25
187 3.19534 3.75479 0.672528 0.25
188 5.37189 2.51824 7.7652 0.25
189 9.89936 1.09429 6.37269 0.25
190 3.10521 7.55673 2.83189 0.25
191 5.10293 2.74257 9.29738 0.25
192 8.70614 9.26881 7.33591 0.25
193 5.22031 2.37922 9.02585 0.25
194 4.02743 9.10228 1.1408 0.25
195 5.41051 5.53199 9.52509 0.25
196 5.72035 2.59621 0.108238 0.25
197 9.06676 5.73874 6.85766 0.5
198 7.20626 1.84573 7.24925 0.5
199 6.95191 10.334 9.72183 0.25
200 7.24621 1.15243 6.44371 0.25
201 5.94103 6.89022 6.64263 0.25
202 3.92728 7.71835 5.36036 0.25
203 4.57518 9.78837 0.240061 0.25
204 0.248463 3.62384 6.30664 0.25
205 3.76331 0.142725 6.30009 0.25
206 0.632032 2.64132 4.60605 0.25
207 1.20511 5.32657 3.855 0.5
208 4.26568 4.61807 5.62891 0.25
209 6.77299 9.89903 2.60268 0.25
210 3.82583 10.1046 6.61187 0.25
211 1.7731 4.76883 2.49654 0.25
212 0.379819 3.81447 1.82943 0.5
213 9.09039 4.31699 1.64266 0.25
214 3.54793 4.90669 5.97458 0.25
215 10.1629 0.633186 9.00919 0.25
216 5.04477 1.63031 0.385515 0.25
217 0.467089 8.31413 4.75367 0.25
218 2.32311 1.05625 1.78098 0.5
219 0.736365 4.28181 6.17515 0.25
220 6.83077 9.42146 1.82516 0.25
221 9.00713 7.02173 4.14865 0.25
222 8.86068 6.53536 6.75472 0.25
223 5.6485 9.59245 5.43034 0.25
224 9.51993 3.59877 6.96869 0.25
225 8.25966 1.92237 5.82726 0.25
226 6.35363 8.96823 5.47065 0.25
227 6.93558 0.541394 1.13957 0.25
228 5.30568 2.27251 0.93193 0.25
229 2.9101 1.9714 1.6248 0.25
230 7.9113 7.5272 4.24523 0.25
231 7.70554 4.09017 7.01274 0.25
232 6.80126 9.81652 2.13088 0.25
233 8.16499 1.93791 9.15693 0.5
234 4.56997 9.52649 1.6471 0.25
235 0.799031 8.721 7.76505 0.25
236 1.42591 5.65189 0.544739 0.25
237 7.86648 0.801153 3.89549 0.25
238 0.941667 6.03206 4.05752 0.25
239 0.445593 2.82696 9.78397 0.25
240 1.46687 8.87012 2.24684 0.5
241 1.77939 9.50797 2.27044 0.25
242 3.57161 7.7401 6.57079 0.25
243 0.870446 6.1827 0.862908 0.25
244 1.59374 1.34516 6.71155 0.25
245 6.375 6.96431 6.88681 0.25
246 1.96347 8.14033 10.2969 0.25
247 2.45014 7.10954 3.1304 0.25
248 5.5662 2.53953 8.66372 0.25
249 6.80321 4.14139 4.46364 0.25
250 7.46417 1.51267 6.67614 0.25
251 0.815144 1.58116 7.10455 0.25
252 6.93379 6.04391 8.52598 0.25
253 3.85169 7.30534 8.72195 0.25
254 1.11534 9.89999 2.07489 0.25
255 2.22817 0.466849 2.1873 0.25
256 4.32611 5.22006 4.4625 0.25
257 0.551021 10.3143 10.0868 0.25
258 4.8481 5.21627 7.19752 0.25
259 1.69803 0.0478865 4.84315 0.25
260 1.42652 10.2221 0.27321 0.25
261 7.33526 7.11772 9.18471 0.25
262 5.79374 6.2563 3.46657 0.25
263 8.57511 8.51463 9.37262 0.25
264 7.63098 9.43528 9.65487 0.5
265 4.51542 3.47359 2.39157 0.25
266 4.13993 3.3248 2.06558 0.25
267 3.19928 7.28288 5.51938 0.25
268 3.26706 7.62587 6.23422 0.25
269 7.66848 9.45291 5.83589 0.25
270 2.94194 7.43164 5.92478 0.25
271 3.96891 9.02487 1.62857 0.25
272 6.88976 6.64015 5.46116 0.25
273 10.2266 3.68807 8.00979 0.25
274 3.83386 4.46762 5.8936 0.25
275 10.2185 6.34793 2.67436 0.25
276 8.4657 0.89285 8.59703 0.25
277 2.72948 10.0461 8.18441 0.5
278 4.34183 6.15552 8.30424 0.25
279 2.57587 10.3347 8.89019 0.25
280 3.65608 0.472891 9.25857 0.25
281 4.71971 8.51493 3.99199 0.25
282 4.85751 1.49 3.18286 0.25
283 9.60379 0.0925972 8.8916 0.25
284 1.84726 5.40626 0.423625 0.25
285 8.54896 6.8369 1.33228 0.25
286 10.1773 1.7554 1.55686 0.25
287 1.65585 8.34776 2.80965 0.25
288 1.35397 5.84226 4.33855 0.25
289 9.55087 0.570722 1.15223 0.25
290 8.78646 4.27453 2.00492 0.25
291 8.05637 2.60828 9.71729 0.25
292 4.13558 9.45067 1.47403 0.25
293 4.86069 2.54169 7.18881 0.5
294 0.200199 6.63988 2.40783 0.25
295 7.17143 0.936312 7.12893 0.5
296 2.94374 2.46024 4.49351 0.25
297 0.66331 8.12267 5.26122 0.25
298 3.9264 9.31471 0.665759 0.25
299 8.82838 5.22314 9.83477 0.25
300 1.69478 9.66512 4.47546 0.25
301 4.63867 8.23427 7.96871 0.25
302 5.09306 5.23396 8.01059 0.25
303 8.94423 5.78698 10.3065 0.5
304 3.91284 3.66574 3.16992 0.25
305 1.49149 8.06264 2.43017 0.25
306 9.90761 7.527 8.68081 0.25
307 1.38098 10.1749 10.0641 0.25
308 9.2889 6.01094 6.14992 0.25
309 8.36278 1.74784 8.44967 0.25
310 6.32828 6.27927 6.182 0.25
311 1.62076 0.505697 1.66419 0.25
312 9.16507 1.11133 8.73987 0.5
313 1.00599 7.88916 2.46757 0.25
314 0.693574 3.95153 2.50187 0.25
315 2.8964 0.57414 9.31294 0.5
316 6.47276 4.24478 7.28507 0.25
317 6.36378 10.0149 8.52489 0.25
318 0.0581311 7.45363 8.62033 0.25
319 10.2894 9.85584 3.36663 0.25
320 1.45173 2.62702 10.3312 0.25
321 2.58685 1.67408 1.36046 0.25
322 0.934738 6.98391 5.00466 0.25
323 6.469 10.0414 9.27094 0.5
324 7.05651 1.94291 3.21564 0.25
325 9.21367 3.99179 1.97725 0.25
326 3.07881 9.89662 4.84172 0.25
327 1.52481 8.7308 7.14467 0.25
328 4.27542 3.54546 2.88455 0.25
329 8.51968 7.52837 3.78414 0.5
330 9.75024 6.32602 2.4788 0.25
331 9.48825 0.00365673 4.07944 0.25
332 6.53187 7.59587 0.118816 0.25
333 10.2954 7.90891 9.26407 0.25
334 6.82685 5.13247 1.36163 0.25
335 5.8628 5.06217 0.408685 0.25
336 9.21313 3.76925 1.54346 0.25
337 4.46866 5.74527 8.49804 0.25
338 7.5014 8.59389 2.18832 0.25
339 3.96591 5.81942 8.28071 0.25
340 1.09014 3.01917 10.184 0.25
341 3.94317 4.98456 4.26551 0.25
342 10.1631 3.41792 7.53522 0.25
343 10.0652 2.47044 4.38733 0.25
344 4.40058 1.5177 2.82868 0.25
345 6.20203 4.39023 10.1958 0.25
346 1.50485 2.13203 7.11511 0.25
347 3.13122 4.22564 10.3277 0.25
348 5.76875 7.23923 0.273857 0.25
349 4.96583 1.58849 7.80116 0.25
350 2.39796 3.22642 8.24275 0.25
351 5.81263 7.11186 3.29066 0.25
352 8.21198 6.62984 1.64294 0.25
353 9.85626 3.26125 7.15654 0.25
354 10.0549 3.92672 2.13357 0.25
355 2.09503 1.41929 2.4131 0.25
356 4.13099 10.0767 0.925301 0.25
357 3.34778 4.44013 6.05353 0.25
358 4.1354 9.75965 0.506789 0.25
359 8.85182 6.62775 0.669275 0.5
360 4.21012 0.0348163 6.44265 0.25
361 0.241359 0.692395 6.29984 0.25
362 0.234729 7.6383 9.01294 0.25
363 7.65061 2.53277 2.47155 0.25
364 10.0522 6.72949 2.45842 0.25
365 5.9735 9.2286 5.42836 0.25
366 9.33537 4.46282 2.03672 0.25
367 3.23944 0.637893 8.52554 0.25
368 9.51607 6.65929 7.28355 0.25
369 9.17239 4.68503 4.53995 0.5
370 4.9392 1.61244 7.06413 0.5
371 9.54647 6.68835 1.88616 0.5
372 1.32493 2.44834 4.32553 0.5
373 3.31948 0.101792 8.48244 0.25
374 3.3706 0.347708 8.87674 0.25
375 5.27911 1.4145 2.9052 0.25
376 0.782316 5.65921 4.34317 0.25
377 10.1387 7.46315 9.05345 0.25
378 9.55304 9.3885 1.07594 0.25
379 0.220832 4.11928 6.21895 0.25
380 1.89389 2.25464 4.75573 0.25
381 7.17927 5.02032 2.04577 0.5
382 2.08446 8.55955 10.0688 0.25
383 5.48041 8.5835 7.73363 0.25
384 1.49899 6.56719 7.36794 0.25
385 0.63083 6.67437 5.39051 0.25
386 1.51244 5.35518 7.65888 0.25
387 1.23582 5.76793 7.56607 0.25
388 2.85418 1.98696 2.15738 0.25
389 5.28355 1.3791 0.773038 0.25
390 2.83581 3.95921 0.327831 0.25
391 3.3947 0.00595144 6.6371 0.25
392 0.674176 5.49695 4.786 0.25
393 9.27584 9.35198 6.5832 0.25
394 0.201995 0.639319 5.80648 0.25
395 1.95517 4.71203 2.93747 0.25
396 3.5019 0.319798 9.70498 0.25
397 7.36497 2.3159 3.2452 0.25
398 8.78311 4.38951 9.60648 0.25
399 2.30369 9.8063 7.61085 0.25
400 7.50978 2.88125 10.2787 0.25
401 5.87936 6.75755 3.64047 0.25
402 4.14891 5.87755 8.75219 0.25
403 6.31899 5.0846 0.214533 0.25
404 8.04634 3.66106 0.109387 0.25
405 1.33959 6.08565 0.768791 0.25
406 6.38928 9.35166 5.21642 0.25
407 7.25933 6.68657 8.88741 0.25
408 9.46408 8.76421 1.55032 0.25
409 9.96062 7.19645 2.25915 0.25
410 5.33197 1.0078 4.31377 0.25
411 7.78137 8.8828 9.20586 0.25
412 4.70113 2.00968 7.7301 0.25
413 7.30723 2.65391 2.89831 0.25
414 7.12514 5.52211 2.62212 0.25
415 4.77269 0.817574 2.96155 0.5
416 9.95988 0.235616 9.20187 0.25
417 3.44585 8 5.80839 0.5
418 0.837164 1.03346 6.62338 0.5
419 9.27972 0.296579 3.73713 0.25
420 5.08893 8.90618 7.67629 0.25
421 8.70748 6.36456 7.19652 0.25
422 2.55996 7.91008 3.35923 0.25
423 1.5664 4.99284 2.8523 0.25
424 0.412256 10.2564 9.26053 0.25
425 2.14738 9.62435 4.5732 0.25
426 2.60609 1.55532 2.27341 0.25
427 7.07546 1.66566 6.45558 0.25
428 7.15659 10.04 2.23613 0.25
429 5.27044 9.39606 7.84678 0.25
430 9.30782 9.35134 3.76946 0.25
431 7.41032 0.100997 0.610607 0.25
432 2.51479 8.07437 9.49741 0.25
433 3.12041 2.55276 5.34643 0.25
434 6.22061 9.53343 8.73869 0.25
435 10.3296 2.93227 9.66481 0.25
436 6.50829 4.54232 0.227136 0.25
437 0.973359 5.67865 9.83757 0.25
438 7.73198 1.14031 6.59103 0.25
439 9.56043 9.96081 3.44178 0.5
440 2.38434 2.57013 7.84597 0.5
441 1.10933 3.7461 2.23283 0.25
442 6.80026 7.21403 0.299298 0.25
443 9.69566 9.94303 4.14082 0.25
444 1.51067 3.49979 1.981 0.25
445 5.43143 7.03305 3.58489 0.25
446 8.23814 4.51465 4.02374 0.25
447 6.39646 4.82405 10.1074 0.25
448 4.67221 1.1161 3.89239 0.5
449 0.0194145 1.04055 6.47439 0.25
450 1.7293 1.03428 2.31675 0.25
451 3.3401 3.42409 10.2382 0.25
452 5.80777 3.73899 4.49633 0.25
453 7.41663 4.44501 8.29024 0.25
454 1.64148 5.2184 8.64379 0.25
455 1.11818 6.11145 7.99836 0.25
456 2.83184 1.58957 1.82111 0.25
457 10.0993 8.79503 1.06242 0.5
458 1.60003 5.57673 7.23181 0.25
459 0.812311 1.25647 7.38325 0.25
460 1.96006 5.92033 7.06105 0.25
461 3.59206 5.85399 1.71943 0.25
462 3.45813 6.30554 1.85498 0.25
463 1.63836 10.0146 5.22368 0.25
464 9.42793 1.5253 1.45978 0.25
465 6.77913 5.6209 2.22089 0.25
466 4.5768 5.63612 7.7682 0.5
467 3.37786 5.12528 5.62675 0.25
468 1.71637 1.43349 2.05202 0.25
469 4.20655 4.09532 3.01568 0.25
470 4.6733 3.98735 2.29619 0.25
471 2.90123 9.84845 4.07876 0.25
472 1.98409 1.92933 7.86228 0.25
473 2.86722 8.19412 9.86256 0.25
474 9.11776 4.15262 2.37778 0.25
475 7.98454 7.0334 3.47001 0.25
476 3.81124 6.6226 1.80745 0.25
477 10.1681 9.86256 3.92755 0.25
478 8.63939 6.09468 1.34243 0.5
479 6.67794 0.514585 0.764095 0.25
480 2.35325 8.10774 9.92809 0.25
481 4.31478 9.92292 1.34156 0.25
482 6.62953 9.7723 5.24907 0.25
483 6.91998 0.101884 0.121793 0.5
484 9.6847 3.59283 7.43066 0.25
485 8.23735 3.25872 10.2978 0.25
486 4.90245 8.46606 3.57994 0.25
487 3.25888 4.18217 0.455463 0.25
488 7.20949 9.72611 1.86369 0.25
489 8.87104 7.09148 3.29323 0.25
490 3.10291 2.90521 7.88196 0.25
491 8.82841 9.20762 6.66754 0.25
492 7.55536 2.65082 9.79903 0.25
493 10.0018 3.91906 7.60566 0.25
494 8.59154 4.63933 5.00558 0.25
495 9.61663 4.07176 7.27456 0.25
496 4.47715 1.59258 6.51916 0.25
497 3.40788 3.90649 10.0839 0.25
498 8.68074 1.39994 9.15664 0.25
499 4.45049 9.0446 1.4925 0.25
500 3.85032 7.56256 9.13092 0.25
501 2.72772 10.298 4.765 0.25
502 9.67452 6.0119 6.47926 0.25
503 6.73587 8.23466 2.4205 0.25
504 6.45852 7.50758 0.578617 0.25
505 7.60679 1.45439 5.92713 0.5
506 5.85132 0.0577701 5.26206 0.25
507 7.16185 8.45753 2.51401 0.25
508 4.85378 8.47423 8.79228 0.25
509 1.27781 8.7728 7.93591 0.25
510 6.02478 3.82512 5.35033 0.25
511 3.80324 0.231173 6.77602 0.25
512 1.8844 5.25843 3.60457 0.25
513 1.85365 5.35493 10.2138 0.25
514 3.61279 1.76362 5.59435 0.25
515 1.32644 1.73816 7.66492 0.5
516 6.25797 9.62664 5.92506 0.5
517 8.44979 6.89623 3.31343 0.25
518 3.20359 0.533425 10.0669 0.25
519 2.62622 10.2364 4.26585 0.25
520 5.20569 2.06429 7.66989 0.25
521 1.27912 4.40638 5.60641 0.25
522 2.34597 10.0831 4.61833 0.25
523 2.35566 3.29877 7.76191 0.25
524 8.62973 2.448 5.2749 0.25
525 2.17907 6.58503 7.42725 0.25
526 1.27557 5.46055 8.45732 0.25
527 6.34128 9.3168 2.45768 0.5
528 6.75453 9.0393 3.036 0.25
529 4.15611 6.94473 1.59758 0.25
530 1.02889 8.26312 2.17261 0.25
531 0.197962 2.463 9.65756 0.25
532 1.75283 7.61596 10.2416 0.25
533 8.92427 9.75992 3.85697 0.25
534 8.68402 4.59434 3.96952 0.25
535 6.87101 6.43079 8.26933 0.25
536 4.29256 9.32584 0.252307 0.25
537 8.28131 1.50643 3.58391 0.25
538 7.62542 4.32022 7.46744 0.25
539 10.2467 3.85153 6.90237 0.5
540 6.01724 10.2827 8.26212 0.25
541 9.44317 8.93602 1.14403 0.25
542 7.69498 8.91812 5.81873 0.25
543 9.40886 4.04052 4.20403 0.25
544 2.01769 1.56169 7.46193 0.25
545 10.0263 9.48719 3.11632 0.25
546 0.344051 0.216277 6.06815 0.25
547 9.57188 3.67031 1.97949 0.25
548 9.06284 4.67733 9.27992 0.25
549 2.09871 0.36714 1.6543 0.25
550 9.66137 9.2237 1.55221 0.25
551 2.99655 7.10882 3.02996 0.25
552 8.97301 9.51256 6.96899 0.25
553 5.20116 2.86917 5.41102 0.25
554 9.04476 4.25458 3.99865 0.25
555 5.59411 9.06188 7.66394 0.25
556 1.06568 9.14949 7.6916 0.25
557 2.77151 9.67605 7.49765 0.25
558 3.25092 3.24754 8.14665 0.25
559 9.89475 1.03927 9.10552 0.25
560 3.84271 4.82981 5.62149 0.25
561 1.11612 3.74848 1.79734 0.25
562 5.22484 5.05017 9.48905 0.25
563 5.56448 9.99534 8.41085 0.25
564 1.71507 1.70187 7.05732 0.25
565 1.60452 0.994423 1.83724 0.25
566 9.31289 6.79673 6.81579 0.25
567 0.505476 5.9777 0.592298 0.25
568 8.09216 1.66859 5.42042 0.25
569 7.07989 3.80827 7.45907 0.5
570 4.46669 3.78461 3.27414 0.25
571 4.50147 3.69824 1.97296 0.25
572 8.78836 1.77617 8.77284 0.25
573 0.476241 6.83711 4.94279 0.25
574 0.454261 0.369916 6.49339 0.25
575 6.25948 3.48239 4.41214 0.25
576 5.03484 1.81428 0.897426 0.25
577 0.687937 7.64053 5.52363 0.25
578 1.16508 5.12605 0.0997069 0.5
579 5.21615 5.30932 7.52848 0.25
580 7.75929 7.39219 3.7459 0.25
581 7.57786 6.75564 8.52052 0.25
582 7.31323 4.33585 5.26548 0.25
583 9.20302 5.49231 6.13901 0.25
584 5.08858 6.73778 3.29321 0.25
585 7.15153 0.546292 0.66917 0.25
586 1.70985 2.63832 4.94036 0.25
587 6.33253 10.1493 5.38538 0.25
588 2.67585 1.25833 9.67909 0.25
589 10.0469 3.53392 1.85722 0.25
590 8.76729 6.83853 3.71345 0.25
591 3.82905 2.1191 5.31034 0.25
592 6.69955 5.3013 2.5956 0.25
593 5.84051 10.2258 6.08535 0.25
594 8.38236 6.17301 10.0739 0.25
595 1.96741 2.03541 7.36683 0.25
596 9.50191 8.42566 1.20521 0.25
597 4.8572 1.5232 2.65706 0.25
598 6.44868 8.00421 0.471169 0.25
599 9.80771 1.78982 1.26609 0.25
600 3.82984 9.44765 1.83713 0.25
601 6.79317 10.3352 2.31951 0.25
602 6.35557 8.12423 2.16122 0.25
603 2.30434 6.16313 7.18966 0.25
604 8.8297 0.940063 0.864294 0.25
605 1.34519 7.60196 2.57676 0.25
606 1.67972 1.23236 7.2358 0.25
607 1.70052 2.33912 7.54642 0.25
608 5.82809 6.42276 5.62177 0.5
609 3.27073 6.15485 1.39751 0.25
610 6.34323 4.80373 0.902855 0.5
611 8.51367 8.46695 7.06318 0.25
612 8.54035 0.495742 3.73128 0.5
613 8.2839 2.79374 10.106 0.25
614 9.46548 6.86637 1.10252 0.25
615 6.46507 4.02564 7.70666 0.25
616 1.27868 1.36584 7.09235 0.25
617 2.88863 2.93937 8.36668 0.25
618 7.74974 3.33622 10.3314 0.25
619 1.36195 9.63594 2.39173 0.25
620 6.72466 5.77434 2.67575 0.25
621 6.28927 4.52364 1.59783 0.25
622 7.29093 6.68071 8.07583 0.25
623 7.87768 4.45508 4.68309 0.5
624 4.58465 8.60622 8.38933 0.25
625 5.10049 1.95704 -0.0226339 0.25
626 2.48588 2.54981 4.28438 0.25
627 7.00035 5.00163 2.79979 0.25
628 0.994937 10.1482 0.50019 0.25
629 7.38947 10.1604 9.90177 0.25
630 5.67932 7.67256 -0.00647109 0.25
631 8.54142 2.29591 5.71915 0.25
632 3.27785 3.80474 0.19199 0.25
633 2.9567 3.72109 10.2407 0.25
634 4.23544 7.96956 8.58082 0.5
635 9.1947 6.34291 7.04941 0.25
636 9.03495 5.61929 9.58105 0.25
637 6.12981 8.99862 4.98349 0.25
638 2.43248 9.77963 5.23956 0.5
639 7.24151 2.85769 2.46152 0.25
640 7.48397 1.62989 7.90295 0.25
641 4.28674 5.28204 3.98213 0.25
642 2.94775 7.23438 6.33469 0.25
643 3.07346 1.66865 9.827 0.25
644 5.97259 9.79104 4.83106 0.5
645 3.5284 3.40963 0.343608 0.25
646 7.97626 7.04424 4.0078 0.25
647 6.58323 6.41424 5.77913 0.25
648 7.15918 1.32783 7.79968 0.25
649 4.50202 6.18793 8.76827 0.25
650 7.80158 1.35422 3.88389 0.25
651 4.7207 8.68822 7.92722 0.25
652 1.80066 5.65085 8.51318 0.25
653 0.876812 4.60872 5.81363 0.25
654 1.45414 6.07823 7.17138 0.25
655 10.1791 3.51837 1.38506 0.25
656 4.88767 4.95257 7.65006 0.25
657 8.47171 9.43737 6.89168 0.25
658 7.61347 4.10404 7.92342 0.25
659 9.04576 0.199417 4.21703 0.25
660 1.82787 6.04298 7.8181 0.5
661 2.75783 7.5197 3.16344 0.25
662 7.4784 9.16728 6.16581 0.25
663 3.47744 0.832882 8.93541 0.25
664 1.51698 2.95912 9.96818 0.25
665 8.18324 6.59475 1.14025 0.25
666 5.67987 9.56482 8.68034 0.25
667 8.01231 3.54343 9.96808 0.25
668 7.25423 1.92015 5.46328 0.25
669 3.16502 7.62617 9.47197 0.5
670 0.177644 3.14769 10.0739 0.25
671 0.864464 6.21837 4.79929 0.5
672 6.11452 7.12873 5.39352 0.25
673 3.84683 9.84156 1.50724 0.25
674 7.21006 4.71769 4.94895 0.25
675 8.11276 8.73342 7.2382 0.25
676 5.72732 1.88686 0.387517 0.5
677 9.73491 3.11429 7.57415 0.25
678 9.99934 0.297373 6.4219 0.5
679 1.65065 2.29953 8.02043 0.25
680 2.81569 7.0597 3.46603 0.25
681 8.05313 9.14121 6.89591 0.25
682 3.47935 7.54947 5.21992 0.25
683 0.755429 3.13959 9.49234 0.25
684 1.18247 9.11021 7.17357 0.25
685 9.03258 0.145606 3.31574 0.25
686 6.71926 9.46064 4.84079 0.25
687 9.75649 3.53981 7.90639 0.25
688 5.30371 7.37872 0.191465 0.25
689 2.12232 2.27008 4.29858 0.25
690 9.89366 7.57765 9.47807 0.25
691 0.159167 8.24348 5.14693 0.25
692 1.23847 4.37352 6.08009 0.25
693 9.98276 1.69922 3.66074 0.25
694 3.64585 3.86733 0.543372 0.25
695 8.44794 2.00597 5.30571 0.25
696 5.30639 0.80059 3.52618 0.25
697 1.17192 8.7519 7.43097 0.25
698 8.48158 5.94695 0.624975 0.25
699 4.08918 7.59078 5.80134 0.25
700 5.36742 6.93612 0.330887 0.25
701 3.45393 4.60639 5.60347 0.25
702 6.30665 3.94252 4.38786 0.25
703 1.39722 0.642165 2.14658 0.25
704 6.92573 4.3324 8.48273 0.25
705 3.69705 5.76078 8.65576 0.25
706 7.64514 1.20919 7.61724 0.25
707 6.71938 6.68072 4.9836 0.25
708 5.40324 6.55024 3.68699 0.25
709 1.67783 4.21779 1.97022 0.5
710 1.35527 4.81721 5.83715 0.25
711 6.90162 4.40468 7.04451 0.25
712 4.4732 8.78068 3.62353 0.25
713 1.63118 4.88636 3.32469 0.25
714 1.92014 10.0104 4.79716 0.25
715 3.16164 3.35155 7.60592 0.25
716 9.35444 8.65142 0.740949 0.25
717 3.08262 4.82714 5.3209 0.25
718 5.746 3.19761 5.03456 0.5
719 5.60928 2.56816 5.41765 0.25
720 5.29441 0.631756 3.96231 0.25
721 2.8112 7.77065 6.3203 0.25
722 3.43444 5.62574 4.48422 0.25
723 5.80064 7.35909 6.3136 0.25
724 9.66895 0.589955 8.99525 0.25
725 4.02447 10.1013 6.10308 0.25
726 3.8677 5.47595 4.27404 0.25
727 3.46434 5.21383 4.23373 0.25
728 1.72213 8.06394 9.65988 0.5
729 7.8481 2.13806 6.12308 0.25
730 8.49276 1.36725 8.72698 0.25
731 1.42667 5.62667 10.0014 0.25
732 3.47246 7.24797 6.48329 0.25
733 10.0089 2.19263 3.50747 0.25
734 8.48687 6.84916 4.16396 0.25
735 3.46861 2.22803 5.58107 0.25
736 8.50307 5.80755 6.45412 0.25
737 0.85796 4.28833 5.32584 0.25
738 4.90915 8.31355 8.34126 0.25
739 3.61052 4.18923 0.140597 0.25
740 8.70221 6.65748 1.78141 0.25
741 7.72815 2.21456 2.09329 0.25
742 5.05218 2.15606 0.508772 0.25
743 9.94605 2.59561 3.8724 0.25
744 2.46544 2.58395 5.02781 0.5
745 0.484277 4.25755 5.73966 0.25
746 6.74843 4.63293 1.53757 0.25
747 7.70116 2.45507 9.37074 0.25
748 7.22856 10.0278 9.45716 0.25
749 6.71984 3.99254 8.14537 0.25
750 4.51062 2.07638 6.67977 0.25
751 2.00269 2.63569 3.99676 0.25
752 10.0184 2.12084 3.98712 0.25
753 1.00437 2.49155 9.71572 0.5
754 8.30538 2.30318 6.12828 0.25
755 7.86596 3.02747 9.98112 0.25
756 5.21673 1.97144 1.30238 0.25
757 0.298401 2.46944 3.9866 0.5
758 1.74984 9.59557 4.98779 0.25
759 4.79604 2.7115 8.30907 0.25
760 4.4254 0.518012 3.56661 0.25
761 5.76181 7.11943 5.78834 0.25
762 0.55547 3.96415 6.54054 0.25
763 6.51015 4.36003 5.08305 0.5
764 5.35537 7.09772 3.10692 0.25
765 6.85204 6.55576 8.73863 0.25
766 1.17361 5.02499 3.13353 0.25
767 6.84048 2.68063 2.65507 0.25
768 5.09409 2.33517 5.82986 0.5
769 0.979865 2.58661 0.0802073 0.25
770 6.42911 7.02337 6.12879 0.5
771 5.50955 7.2473 0.661935 0.25
772 7.11968 9.2246 5.44666 0.5
773 5.78533 4.29159 0.000681018 0.25
774 6.70576 8.69746 2.65207 0.25
775 9.85377 7.88326 9.03035 0.25
776 4.46136 10.1396 0.609217 0.25
777 1.13613 8.35294 2.68479 0.25
778 2.91543 0.310597 8.61166 0.25
779 9.48041 7.88799 9.37859 0.25
780 5.02802 5.33739 9.78172 0.25
781 5.32397 6.26766 3.29752 0.25
782 9.31731 6.40487 1.23612 0.25
783 4.86679 8.00727 3.87567 0.25
784 3.72282 3.73307 0.0421041 0.25
785 8.60068 8.86343 7.4376 0.25
786 6.54183 6.32096 5.2667 0.25
787 6.20293 6.72895 5.053 0.25
788 4.93943 0.473142 3.62861 0.25
789 6.50829 4.69655 2.0497 0.25
790 5.03233 2.21708 6.5817 0.25
791 8.6913 5.37534 6.26114 0.25
792 3.90875 3.94028 2.40801 0.5
793 0.0380836 0.135308 8.96073 0.25
794 1.71118 1.4315 1.53371 0.25
795 1.56843 8.53014 7.63477 0.25
796 1.84888 10.2755 4.16063 0.5
797 9.76208 9.25171 3.51111 0.25
798 9.14517 4.71162 3.8197 0.25
799 3.581 5.6672 0.965856 0.5
800 9.64014 1.2122 1.81783 0.25
801 6.07737 10.207 9.83254 0.25
802 6.28121 7.18186 0.283537 0.25
803 9.10379 4.81478 9.72896 0.25
804 4.45107 5.04983 7.32953 0.25
805 8.96022 3.92722 4.43628 0.25
806 2.10758 9.73628 8.05869 0.25
807 3.0425 4.80116 5.86529 0.25
808 9.46507 5.42266 9.39152 0.25
809 1.63847 5.26153 9.77872 0.25
810 7.4421 1.97601 6.41047 0.25
811 8.6624 4.88296 9.51498 0.25
812 3.73069 6.24174 1.46351 0.25
813 1.55114 3.66914 2.4599 0.25
814 1.15341 9.86882 0.103798 0.25
815 3.71965 5.11333 4.97147 0.5
816 6.50907 0.193499 9.85701 0.25
817 4.65964 9.43747 0.898947 0.5
818 8.67718 6.51805 10.2467 0.25
819 4.18404 6.41104 1.5582 0.25
820 7.16139 4.78653 8.47817 0.25
821 8.18768 8.67464 6.7519 0.25
822 4.96807 4.08589 2.67413 0.25
823 1.73829 9.27189 7.62661 0.5
824 7.38365 4.45109 7.11396 0.25
825 8.28441 9.19076 6.20027 0.5
826 6.83508 2.68426 2.13238 0.25
827 8.46786 6.22061 6.71389 0.25
828 9.65869 3.5037 1.48936 0.25
829 0.233498 7.41664 5.60678 0.25
830 3.88978 6.66205 1.27639 0.25
831 2.45895 7.44052 3.51924 0.25
832 3.90127 5.63423 9.08503 0.25
833 5.92668 6.43962 6.36431 0.25
834 8.6038 4.17793 4.71541 0.25
835 1.27013 1.7083 6.85617 0.25
836 6.52512 5.20253 2.13424 0.25
837 3.46722 7.19351 8.9406 0.25
838 2.41858 9.36517 7.35549 0.25
839 0.563574 1.78732 3.72991 0.25
840 9.52814 4.50593 3.93267 0.25
841 5.65647 4.99298 10.0706 0.5
842 7.28476 6.42336 8.4608 0.25
843 0.988785 9.45951 2.16424 0.25
844 6.45001 5.00334 1.61964 0.25
845 8.5907 4.17131 4.2274 0.25
846 1.13969 5.46889 4.6419 0.25
847 7.77003 2.92777 9.44136 0.25
848 3.50564 1.12903 9.65279 0.5
849 6.63649 4.87416 2.53568 0.25
850 4.56088 8.46268 3.24612 0.25
851 3.52823 6.38956 1.03902 0.25
852 5.46859 1.13606 3.83182 0.25
853 9.17701 10.0493 4.22779 0.25
854 2.80933 3.07189 7.5014 0.25
855 3.91583 6.12603 1.9302 0.25
856 9.33043 3.42933 7.72661 0.25
857 6.63339 3.70139 4.68096 0.25
858 8.3043 7.61865 4.53954 0.25
859 9.53118 1.00332 1.3641 0.25
860 2.51388 10.0842 3.81854 0.25
861 4.22144 9.76091 1.82873 0.25
862 7.78286 1.19383 8.43341 0.5
863 0.290553 3.29264 9.60129 0.25
864 3.69142 3.25012 2.24287 0.25
865 0.7588 6.94473 4.54647 0.25
866 3.25381 1.00768 10.308 0.25
867 3.15822 7.96539 10.1498 0.25
868 9.12043 1.24164 1.16873 0.25
869 0.595842 8.08638 5.76526 0.25
870 7.05692 6.87024 8.45574 0.25
871 7.34678 2.56897 2.07477 0.25
872 8.17478 1.69998 7.69826 0.5
873 5.47511 10.0649 5.33591 0.25
874 6.5853 8.97449 5.03751 0.25
875 3.58319 7.99998 5.02819 0.25
876 4.05928 6.19743 1.10724 0.25
877 0.658057 2.1627 4.65238 0.25
878 0.1071 0.281145 9.37257 0.25
879 0.624831 7.15851 5.38342 0.25
880 5.77164 3.99313 4.94957 0.25
881 3.82527 6.49907 8.70371 0.5
882 10.0352 0.576936 5.70162 0.25
883 5.25625 2.51376 5.08429 0.25
884 2.1655 1.99863 1.89822 0.5
885 8.7491 10.1012 3.54776 0.25
886 9.07129 8.70283 1.22391 0.25
887 1.17197 6.24247 7.55477 0.25
888 1.80709 0.549527 2.4964 0.25
889 4.82288 5.364 8.4645 0.25
890 0.585087 3.86343 6.02868 0.25
891 4.14343 3.17501 2.49215 0.25
892 6.30295 8.51124 2.44899 0.25
893 7.97217 2.90497 0.144108 0.25
894 1.92128 7.8287 0.322832 0.25
895 9.37714 3.24882 7.26975 0.25
896 9.56823 1.38021 1.03949 0.25
897 3.11722 7.54392 6.68549 0.25
898 1.07918 4.99315 5.19179 0.5
899 0.19152 0.68342 6.77555 0.25
900 8.29171 6.70967 3.75285 0.25
901 0.284328 7.91596 5.50295 0.25
902 5.49804 1.72639 1.02574 0.25
903 7.84561 7.8365 3.88266 0.25
904 1.05449 6.1506 0.0957693 0.5
905 9.10699 0.772397 1.29579 0.25
906 9.80324 9.5096 3.9725 0.25