ITEM: TIMESTEP
150000
ITEM: NUMBER OF ATOMS
1000
ITEM: BOX BOUNDS xy xz yz pp pp pp
0.0000000000000000e+00 1.0357442000000001e+01 0.0000000000000000e+00
0.0000000000000000e+00 1.0357442000000001e+01 0.0000000000000000e+00
0.0000000000000000e+00 1.0357442000000001e+01 0.0000000000000000e+00
ITEM: ATOMS id x y z radius
1 1.45426 4.27669 2.95953 0.5
2 2.19439 7.18998 2.54099 0.5
3 5.53162 1.39713 1.01068 0.25
4 0.58054 1.85331 3.92194 0.25
5 10.2004 3.31148 7.5773 0.25
6 0.427032 2.88992 9.98935 0.25
7 4.18368 1.20178 3.75267 0.25
8 8.77879 4.40069 1.88643 0.25
9 9.87492 1.436 1.72075 0.25
10 8.24226 7.11977 3.31057 0.25
11 8.73731 9.05865 1.78332 0.25
12 7.97597 2.55089 0.215188 0.25
13 3.22269 7.72574 6.22415 0.25
14 5.11262 2.39271 0.399738 0.25
15 8.76658 6.36901 6.15918 0.25
16 8.18833 8.77828 6.91635 0.25
17 5.22882 9.37646 8.19154 0.5
18 2.55314 7.94668 9.74751 0.25
19 7.19689 4.10135 5.19727 0.25
20 9.01194 0.725191 1.21804 0.25
21 0.611163 10.2174 9.60577 0.25
22 4.08431 0.723677 3.7003 0.25
23 4.75799 3.49782 2.29644 0.25
24 2.59274 2.47894 4.65481 0.25
25 7.92166 2.26646 6.02252 0.25
26 5.71301 2.24653 8.84189 0.25
27 1.42407 8.33587 10.1285 0.25
28 8.63162 6.31949 6.60241 0.25
29 3.19899 7.65035 5.68949 0.25
30 1.1331 9.26236 7.83551 0.25
31 0.969954 7.47727 5.60655 0.25
32 9.09095 6.70107 0.648629 0.25
33 9.0624 9.39517 1.84965 0.25
34 0.861977 2.56845 10.1669 0.25
35 7.44353 2.47926 0.183571 0.25
36 8.40799 8.75686 9.08598 0.25
37 2.95752 4.54537 6.2665 0.25
38 7.09309 0.572027 1.13751 0.25
39 6.18196 3.71597 5.24982 0.25
40 8.37382 4.67382 4.70953 0.25
41 8.88438 6.58547 3.00685 0.25
42 6.1975 9.11133 2.71541 0.5
43 0.438431 8.15572 5.99256 0.25
44 2.03103 0.500483 3.89581 0.25
45 7.03149 6.80303 8.96309 0.25
46 1.11116 9.2378 7.31554 0.25
47 3.86266 8.60284 3.67221 0.25
48 1.87519 0.0272385 3.85724 0.25
49 4.24809 5.95899 9.33907 0.25
50 10.0437 9.50816 3.78356 0.25
51 9.29249 8.58135 0.757162 0.25
52 5.6686 7.78198 0.396451 0.25
53 6.52375 4.82525 1.45404 0.25
54 4.49561 5.46627 7.56263 0.25
55 5.59152 6.88666 6.52211 0.25
56 5.32821 1.38479 1.51363 0.25
57 5.53941 2.29799 0.582661 0.25
58 6.01583 4.31373 0.204637 0.25
59 3.76239 7.20106 8.83976 0.25
60 7.02668 6.3032 8.88741 0.25
61 3.74461 0.147614 8.6191 0.25
62 9.07453 6.60124 6.52378 0.25
63 0.679784 5.44964 4.22031 0.25
64 10.3208 1.39415 1.52823 0.25
65 6.17534 6.48131 6.87918 0.25
66 4.07354 1.05552 3.28737 0.25
67 9.30942 4.69658 9.05243 0.25
68 6.35624 10.3894 0.0222832 0.25
69 2.7852 6.92854 2.95627 0.25
70 4.72956 5.63105 4.13774 0.25
71 0.882152 8.19052 2.27616 0.25
72 5.7997 6.76937 3.44405 0.25
73 9.10412 9.27272 6.68525 0.5
74 2.84626 7.46449 2.92639 0.25
75 1.07477 5.88925 0.709275 0.25
76 2.21688 8.59105 0.0654403 0.25
77 6.84919 6.6412 8.56917 0.25
78 3.40649 9.82763 1.66556 0.25
79 1.44704 5.0134 9.72839 0.25
80 8.72497 8.98602 9.47957 0.25
81 8.81442 9.508 7.31381 0.25
82 1.0411 0.449731 1.97269 0.25
83 1.29249 7.84396 2.32827 0.25
84 5.1938 9.78893 5.67071 0.25
85 4.15265 6.53801 1.12647 0.25
86 9.73441 3.90809 1.58256 0.5
87 0.959389 5.6849 8.45558 0.25
88 2.8129 3.98951 8.21301 0.25
89 1.03824 0.0833512 10.2932 0.25
90 6.77667 9.85421 1.70393 0.5
91 4.19791 8.29747 3.86265 0.25
92 9.48671 1.35676 1.43325 0.25
93 8.43442 0.959167 8.22529 0.25
94 0.856358 3.86662 1.64054 0.25
95 7.31671 8.83717 5.93719 0.25
96 7.59094 1.12338 7.16946 0.25
97 5.64489 9.78531 5.49768 0.25
98 10.1599 0.177194 6.00471 0.25
99 5.17111 1.97806 8.2961 0.5
100 4.84382 3.20126 5.48668 0.25
101 5.50196 2.23726 9.60228 0.5
102 4.63315 5.55635 8.26046 0.5
103 6.84574 0.306353 0.800341 0.25
104 1.34171 9.70243 0.14196 0.25
105 2.09461 4.46028 3.37039 0.25
106 5.97174 6.33122 6.08914 0.25
107 5.81819 9.85621 8.44324 0.25
108 1.34248 3.92485 1.78804 0.25
109 7.49437 2.61262 2.82853 0.25
110 5.94473 9.96185 5.76963 0.25
111 2.27103 5.08194 0.443556 0.25
112 3.85934 5.04553 5.47303 0.25
113 2.18285 0.115041 5.10241 0.25
114 8.43687 5.73552 0.0348324 0.25
115 3.98177 4.06253 2.48098 0.25
116 10.21 2.7268 4.54828 0.25
117 7.23181 2.52127 2.15153 0.5
118 5.84796 8.4414 2.6649 0.25
119 9.99625 1.82275 3.83716 0.25
120 1.78194 5.79498 0.272377 0.25
121 8.00749 2.05767 5.30945 0.5
122 1.53775 4.81566 2.3941 0.25
123 9.63418 8.26415 0.938955 0.25
124 8.16709 5.99287 0.40879 0.25
125 3.08243 10.1898 4.72777 0.25
126 5.77426 7.31697 0.465488 0.25
127 5.95217 7.58753 0.0237911 0.25
128 9.05782 9.80326 4.51839 0.25
129 1.81718 5.23912 3.2555 0.25
130 9.78744 8.50208 0.597298 0.25
131 7.66124 3.09569 2.23936 0.25
132 8.2353 3.99985 4.00127 0.25
133 8.33876 9.22463 9.27574 0.25
134 4.96193 3.95847 2.33343 0.25
135 6.18803 9.35203 7.95442 0.5
136 8.50706 9.1488 7.11538 0.25
137 1.27201 8.93615 2.24259 0.25
138 7.05707 4.42427 4.41085 0.25
139 7.43707 4.61463 7.89246 0.5
140 4.66821 8.51715 3.81283 0.25
141 2.28542 1.46979 2.30121 0.25
142 2.66657 2.97953 4.55394 0.25
143 7.92363 0.797341 2.97336 0.25
144 9.8986 6.19706 1.696 0.25
145 3.42536 7.31316 6.00564 0.25
146 7.37846 8.32909 2.00751 0.25
147 4.41426 6.01844 4.01394 0.25
148 2.44801 1.70789 10.2048 0.25
149 0.0968504 8.21369 8.76194 0.25
150 4.96106 5.30573 7.57401 0.25
151 7.00921 9.83319 9.96007 0.25
152 3.69759 9.87224 1.24769 0.25
153 4.99613 1.35239 7.73394 0.25
154 5.61104 9.6347 7.58218 0.25
155 3.91832 5.69606 1.96269 0.25
156 1.08649 8.84295 7.5893 0.25
157 5.4715 1.0224 3.43344 0.25
158 8.49816 8.43296 6.72985 0.25
159 3.03184 2.87633 5.40899 0.25
160 2.66331 3.52082 8.07677 0.25
161 3.43089 0.539215 8.83673 0.25
162 3.90058 2.13108 5.92533 0.5
163 7.15493 9.66606 2.40128 0.25
164 5.29741 8.58044 8.27297 0.25
165 0.812982 2.74905 9.70912 0.25
166 7.1686 4.57811 6.72381 0.25
167 8.64892 10.2297 3.9268 0.25
168 9.79531 7.80231 8.96205 0.25
169 9.62819 6.02885 7.27164 0.25
170 3.52337 0.0760946 9.07036 0.25
171 1.52868 8.61952 7.60241 0.25
172 9.38412 6.65308 6.88659 0.25
173 0.731893 2.2261 3.62452 0.25
174 4.61703 1.9242 5.99151 0.25
175 9.7694 2.98375 7.54576 0.25
176 1.0441 5.39874 0.626151 0.25
177 9.6613 6.32725 6.86158 0.25
178 7.48748 2.4739 5.72444 0.25
179 2.82707 9.70901 8.00314 0.25
180 6.68197 8.75234 1.9707 0.5
181 0.772563 4.26263 5.69612 0.25
182 7.23128 1.0276 3.65305 0.25
183 1.86367 9.82012 4.71286 0.25
184 9.6637 5.62872 9.6093 0.25
185 8.95845 8.5651 6.61636 0.25
186 2.35354 8.26819 10.0742 0.25
187 3.42053 3.84211 10.0449 0.25
188 5.29322 2.30215 7.6521 0.25
189 10.0856 0.624519 5.77348 0.25
190 2.71667 7.5913 3.40241 0.25
191 5.54713 2.57544 8.52762 0.25
192 8.79758 8.81174 6.16511 0.25
193 5.21238 2.83607 9.25513 0.25
194 3.55872 9.41663 1.49598 0.25
195 5.09021 5.04704 9.75118 0.25
196 5.46083 2.30478 0.0479504 0.25
197 9.20663 5.89467 6.54044 0.5
198 7.49079 1.92664 7.17167 0.5
199 6.98027 10.2917 9.82774 0.25
200 7.40379 1.07785 6.32206 0.25
201 5.86689 6.49979 6.53666 0.25
202 3.62664 8.03866 5.08744 0.25
203 4.81599 9.37563 0.147128 0.25
204 0.102748 3.81289 6.09499 0.25
205 3.80358 0.221626 6.68249 0.25
206 0.289947 2.87972 4.38053 0.25
207 1.34307 5.32692 3.87675 0.5
208 3.298 4.46182 5.95935 0.25
209 7.42772 8.82819 2.14415 0.25
210 4.12658 0.43603 6.35067 0.25
211 1.18477 4.94446 2.70913 0.25
212 0.22485 3.82092 2.11707 0.5
213 8.69024 3.90697 1.89671 0.25
214 3.56599 5.26909 5.87165 0.25
215 9.8178 0.385275 9.33981 0.25
216 4.81447 1.73753 0.928232 0.25
217 0.498122 8.21686 5.5391 0.25
218 2.38219 1.46994 1.59828 0.5
219 0.699348 4.38599 6.18996 0.25
220 6.73332 9.61241 2.74273 0.25
221 8.29147 6.86086 3.70837 0.25
222 8.87171 6.54373 6.99409 0.25
223 5.25267 9.45483 5.25723 0.25
224 10.1761 4.2399 7.41749 0.25
225 7.4864 1.5533 5.42661 0.25
226 6.18296 8.66578 5.39208 0.25
227 6.82557 0.152869 1.28189 0.25
228 5.65324 1.88446 0.935866 0.25
229 1.75443 2.31443 1.97377 0.25
230 9.07225 6.6009 3.51527 0.25
231 7.34539 3.80347 7.12806 0.25
232 6.75761 9.44922 2.30114 0.25
233 8.08092 1.97056 8.45308 0.5
234 4.38336 9.42527 1.63042 0.25
235 1.42604 8.86259 7.17047 0.25
236 1.50603 5.61556 0.629494 0.25
237 8.05408 1.13096 3.3275 0.25
238 1.32505 6.03683 4.12821 0.25
239 0.499447 3.2049 9.64755 0.25
240 1.44464 8.36792 2.83498 0.5
241 1.56653 9.07679 2.61502 0.25
242 3.82976 7.20155 6.28766 0.25
243 1.02799 6.37193 0.555301 0.25
244 0.858427 1.63086 7.33372 0.25
245 5.92285 6.84621 6.8839 0.25
246 1.37018 8.05967 0.21081 0.25
247 2.97382 7.20677 2.49554 0.25
248 5.04179 1.96334 9.05174 0.25
249 7.0882 4.0191 4.68663 0.25
250 7.35145 1.33771 6.74141 0.25
251 1.60518 1.11992 7.03957 0.25
252 6.83939 7.55416 8.06634 0.25
253 3.65759 8.02822 8.98031 0.25
254 0.891047 8.68723 2.44437 0.25
255 0.872796 0.0324421 2.24 0.25
256 4.10614 5.09457 4.128 0.25
257 0.910149 9.961 10.3607 0.25
258 4.87006 4.56037 7.15199 0.25
259 2.63975 0.0814636 4.85636 0.25
260 1.20002 10.1332 0.331583 0.25
261 7.10581 6.25902 8.3904 0.25
262 5.26545 6.81548 3.44285 0.25
263 8.60824 8.51399 9.51188 0.25
264 7.73509 9.40749 9.78952 0.5
265 4.38874 3.76108 3.15378 0.25
266 3.53627 3.65519 3.17625 0.25
267 3.24264 8.12953 5.8129 0.25
268 3.69153 7.66298 6.30745 0.25
269 7.43946 8.44277 5.77033 0.25
270 3.52751 8.16602 6.25369 0.25
271 3.6412 9.48316 1.99832 0.25
272 6.28273 6.90079 5.52843 0.25
273 9.53431 3.34166 6.67944 0.25
274 2.96595 4.77316 5.80675 0.25
275 10.0505 6.50762 2.07941 0.25
276 8.86752 1.02709 7.95436 0.25
277 3.06804 10.3231 8.46599 0.5
278 4.25102 6.17636 8.39694 0.25
279 3.89663 0.395233 9.0625 0.25
280 2.96312 0.689092 8.89266 0.25
281 4.22731 7.80945 3.77011 0.25
282 4.73392 1.50631 3.14756 0.25
283 10.1408 0.495483 8.65456 0.25
284 1.962 5.43295 0.569144 0.25
285 8.07024 6.97041 0.598524 0.25
286 10.2948 1.48036 2.05287 0.25
287 2.12746 7.96046 2.77176 0.25
288 1.52215 5.80117 4.52558 0.25
289 8.69545 1.02603 1.40277 0.25
290 9.5532 4.32517 2.17014 0.25
291 7.78645 2.54029 10.1341 0.25
292 3.92641 9.71012 1.66784 0.25
293 4.94763 2.38309 7.00117 0.5
294 10.2913 6.87134 1.88192 0.25
295 6.89074 0.969327 7.23096 0.5
296 2.81098 2.6181 4.20999 0.25
297 0.109444 7.92804 5.63475 0.25
298 4.30809 9.26571 0.260453 0.25
299 9.40575 5.19759 9.75773 0.25
300 3.10249 9.70159 4.6657 0.25
301 4.36776 8.57026 8.35931 0.25
302 4.62612 4.55006 7.61209 0.25
303 9.15495 5.72558 10.2192 0.5
304 4.32788 4.43044 2.47042 0.25
305 1.78373 7.82494 2.48605 0.25
306 9.99973 8.24868 8.96667 0.25
307 1.40492 10.0795 10.2127 0.25
308 9.21133 6.40916 6.03233 0.25
309 8.73527 1.67658 8.61354 0.25
310 6.32558 6.2716 6.48174 0.25
311 1.66468 10.3134 1.98448 0.25
312 9.0813 1.06689 8.73035 0.5
313 0.960769 7.87513 2.64406 0.25
314 0.138456 4.58692 1.97775 0.25
315 3.41986 0.751258 9.53671 0.5
316 6.54886 3.88489 7.91329 0.25
317 5.86786 9.44875 8.69695 0.25
318 9.9185 7.98024 9.44589 0.25
319 10.266 9.92136 3.95073 0.25
320 1.29803 2.68315 -0.00466884 0.25
321 1.90173 1.81885 2.09145 0.25
322 0.926709 7.06456 5.23903 0.25
323 6.54516 9.99472 9.3301 0.5
324 7.5177 2.25862 3.22215 0.25
325 9.12993 4.04988 2.04941 0.25
326 2.11571 0.160934 3.50235 0.25
327 1.58648 9.24734 8.04937 0.25
328 4.32781 4.06604 2.79242 0.25
329 8.82728 7.42591 3.57481 0.5
330 9.82582 6.74085 1.74091 0.25
331 8.91632 0.247658 4.03252 0.25
332 5.42995 6.98757 0.294573 0.25
333 10.0964 7.47382 8.81663 0.25
334 6.68891 5.26636 1.23962 0.25
335 5.76265 4.68008 0.30509 0.25
336 9.10307 3.62703 1.8987 0.25
337 4.69216 6.22501 8.659 0.25
338 5.95271 8.56912 2.18746 0.25
339 3.96241 5.75896 8.59415 0.25
340 1.03109 3.14795 9.54431 0.25
341 4.17123 5.6176 4.10674 0.25
342 9.51781 3.66135 7.07707 0.25
343 9.79487 2.63365 4.21056 0.25
344 4.37832 1.23885 2.92037 0.25
345 6.7849 4.46551 10.0611 0.25
346 1.25962 1.71253 7.61134 0.25
347 3.19026 3.4856 0.427818 0.25
348 6.2425 7.29583 0.288838 0.25
349 4.6346 1.64118 7.8539 0.25
350 2.99749 3.26232 7.89608 0.25
351 5.9338 6.29686 3.27424 0.25
352 7.81922 6.64356 0.914168 0.25
353 9.78374 3.99082 7.33666 0.25
354 9.92383 3.50087 2.22721 0.25
355 2.81592 2.14734 1.54692 0.25
356 4.48867 9.80439 0.915848 0.25
357 3.06904 5.25416 5.75839 0.25
358 4.20783 9.73313 0.481256 0.25
359 8.61423 6.4882 0.0928405 0.5
360 3.99401 10.3372 6.28583 0.25
361 0.1221 0.598506 6.12467 0.25
362 10.0129 7.50855 9.27058 0.25
363 7.34438 3.0232 2.60013 0.25
364 0.150441 6.63765 1.17216 0.25
365 5.81899 8.80258 5.16567 0.25
366 8.99349 4.05642 1.5821 0.25
367 4.03091 0.388437 9.88685 0.25
368 9.64795 6.54707 7.31461 0.25
369 9.04143 4.18881 4.04305 0.5
370 4.6244 1.59209 7.06978 0.5
371 9.69299 6.44112 1.04249 0.5
372 0.974147 2.45027 4.29489 0.5
373 3.90403 0.157761 9.45524 0.25
374 3.07028 0.259984 9.12055 0.25
375 5.23988 1.4299 3.18977 0.25
376 0.799884 5.93592 4.07937 0.25
377 10.2714 7.84899 9.06822 0.25
378 9.28108 8.43219 1.22294 0.25
379 0.32812 4.15117 6.41323 0.25
380 1.60668 2.42604 4.67317 0.25
381 6.87174 5.24574 1.98578 0.5
382 1.88525 8.51728 10.0064 0.25
383 5.54043 8.34201 7.85513 0.25
384 1.59804 6.47434 7.33674 0.25
385 0.677173 7.13452 4.50557 0.25
386 1.05375 5.86034 7.64176 0.25
387 1.29574 6.11899 7.24569 0.25
388 2.05255 2.58554 1.66678 0.25
389 4.81745 1.50899 1.31147 0.25
390 3.0373 3.71766 0.0259366 0.25
391 3.66608 0.297909 6.20674 0.25
392 0.593713 5.8112 4.54828 0.25
393 8.71923 8.7069 7.05738 0.25
394 10.0579 0.0276502 6.451 0.25
395 1.95733 4.66774 2.57425 0.25
396 2.88032 1.08118 9.20175 0.25
397 7.65115 2.11926 2.75192 0.25
398 9.61077 4.32765 9.23531 0.25
399 2.4782 10.0141 8.17222 0.25
400 8.08216 3.02675 0.300644 0.25
401 5.54535 6.57719 3.09197 0.25
402 4.35238 5.87956 8.83317 0.25
403 6.18997 4.80751 0.0830857 0.25
404 8.85399 2.97253 10.3294 0.25
405 1.45661 6.14075 0.575338 0.25
406 6.23774 9.14941 5.25625 0.25
407 7.2102 6.75662 8.22893 0.25
408 9.17364 8.89171 1.90236 0.25
409 10.2758 6.46388 1.59015 0.25
410 5.67795 1.56284 4.05395 0.25
411 8.24729 8.99823 10.12 0.25
412 4.7593 2.11153 7.66232 0.25
413 7.20241 2.23178 2.89348 0.25
414 7.6458 5.4849 2.05558 0.25
415 4.75581 0.85258 3.34686 0.5
416 10.0954 0.14728 9.02838 0.25
417 3.90417 7.85771 5.71397 0.5
418 0.860789 1.20721 6.71249 0.5
419 8.87942 0.0421513 3.57395 0.25
420 5.26625 8.74364 7.79817 0.25
421 8.92339 6.42921 7.48258 0.25
422 2.51131 7.19137 3.2542 0.25
423 1.67613 5.01428 2.82853 0.25
424 0.29952 0.164586 9.79289 0.25
425 2.26299 9.73956 4.44695 0.25
426 2.35844 2.25037 1.45997 0.25
427 6.97226 1.12767 6.49774 0.25
428 6.31806 9.38885 2.00089 0.25
429 5.57186 9.11353 7.61617 0.25
430 9.1619 9.39657 4.22361 0.25
431 6.927 10.17 0.957772 0.25
432 2.51219 7.46017 9.82148 0.25
433 2.77491 3.11875 5.03297 0.25
434 5.84614 9.89801 8.91759 0.25
435 10.3371 3.04035 9.69243 0.25
436 6.7041 4.81641 0.0724296 0.25
437 1.51355 5.84336 9.74118 0.25
438 7.35569 0.856185 6.73831 0.25
439 9.48744 10.0961 3.958 0.5
440 2.37828 2.85857 7.83066 0.5
441 0.965549 3.85786 2.54513 0.25
442 5.21946 7.8013 0.265711 0.25
443 9.56099 9.592 4.49777 0.25
444 0.945337 3.69949 2.07487 0.25
445 5.76878 5.94428 3.64273 0.25
446 8.48353 4.23931 4.83267 0.25
447 6.43748 4.79183 10.0129 0.25
448 4.97136 1.43681 3.91083 0.5
449 10.2752 1.03567 5.98129 0.25
450 3.03 1.76669 1.80136 0.25
451 3.50204 4.28181 0.422042 0.25
452 5.84883 4.21733 4.44502 0.25
453 7.47369 3.90075 8.1101 0.25
454 1.86838 5.67049 8.49223 0.25
455 1.08053 6.02587 8.1407 0.25
456 1.98435 2.07324 1.6747 0.25
457 9.06259 9.22212 1.15888 0.5
458 2.23743 5.88182 7.21783 0.25
459 1.65505 1.24278 6.51679 0.25
460 2.08185 6.41156 7.23907 0.25
461 4.16921 6.73416 1.94751 0.25
462 4.48838 6.66732 1.50609 0.25
463 3.08883 9.98875 4.26803 0.25
464 9.9648 1.10808 1.37339 0.25
465 7.3284 5.83411 1.89228 0.25
466 5.2693 4.73902 7.84266 0.5
467 3.7976 5.57324 5.49449 0.25
468 2.54957 1.57357 2.68317 0.25
469 4.45654 3.92555 2.32676 0.25
470 4.81598 3.24453 2.78843 0.25
471 1.88223 0.251282 4.29652 0.25
472 1.95956 2.25444 7.88976 0.25
473 2.97482 8.14605 9.61467 0.25
474 9.26363 4.45648 1.81331 0.25
475 9.26059 7.33825 4.17952 0.25
476 4.43973 6.17612 1.26739 0.25
477 10.0163 9.63737 4.2634 0.25
478 8.53087 6.41888 0.988319 0.5
479 7.27965 0.573902 0.669301 0.25
480 2.53369 7.76929 10.1939 0.25
481 4.24802 9.84295 1.33486 0.25
482 6.55111 9.51328 5.09809 0.25
483 7.0828 10.3393 0.18736 0.5
484 9.80794 3.4559 7.3788 0.25
485 8.48849 2.84215 10.0059 0.25
486 4.27219 8.56248 3.41158 0.25
487 3.41652 3.46571 10.3222 0.25
488 6.39976 9.75683 2.35017 0.25
489 8.32589 7.67599 4.14784 0.25
490 2.23147 3.55163 7.8842 0.25
491 8.57659 8.85351 6.6171 0.25
492 7.65757 2.92455 0.108861 0.25
493 9.64237 3.14204 7.06027 0.25
494 8.43703 4.34569 4.3409 0.25
495 10.1125 3.07114 7.16835 0.25
496 4.39459 1.6456 6.3522 0.25
497 3.48155 3.77351 0.66536 0.25
498 8.03765 1.40963 8.95154 0.25
499 3.97954 9.21029 1.74466 0.25
500 4.19883 7.24715 9.00584 0.25
501 2.22258 0.337177 4.67347 0.25
502 9.55829 6.49237 6.37204 0.25
503 6.231 8.37491 2.99386 0.25
504 5.46602 7.41381 0.100729 0.25
505 7.33098 1.78864 6.13882 0.5
506 5.90386 10.1166 5.24376 0.25
507 6.28508 8.35984 2.49249 0.25
508 4.57922 8.31388 7.95918 0.25
509 1.63241 9.30361 7.17461 0.25
510 5.64535 4.28975 4.95546 0.25
511 3.51061 10.2605 6.50905 0.25
512 2.06656 4.79721 3.02099 0.25
513 2.15349 5.47469 0.0895639 0.25
514 3.43698 2.56522 5.49295 0.25
515 1.97195 1.58555 7.50241 0.5
516 5.74885 9.18689 5.79405 0.5
517 8.80795 7.48682 4.28976 0.25
518 3.0441 1.45385 9.50884 0.25
519 1.80993 10.3471 4.72181 0.25
520 5.06821 1.83833 7.56493 0.25
521 0.886747 4.6543 5.35172 0.25
522 2.23906 10.1608 4.72695 0.25
523 2.8179 3.21206 8.365 0.25
524 7.29862 1.87872 5.02967 0.25
525 1.82686 6.91007 7.3299 0.25
526 1.57402 5.29982 8.30047 0.25
527 7.16295 9.04208 2.83415 0.5
528 7.14722 8.41739 2.41918 0.25
529 4.23549 5.68265 1.11419 0.25
530 1.42835 7.58097 2.70721 0.25
531 0.193807 3.35104 10.0385 0.25
532 1.48088 7.53994 0.198226 0.25
533 8.83161 9.75111 4.08697 0.25
534 8.89883 4.03041 4.7514 0.25
535 7.02253 7.52227 8.52702 0.25
536 4.65986 9.01057 0.464179 0.25
537 7.70124 1.08458 3.76055 0.25
538 7.64886 4.16635 7.31307 0.25
539 10.2638 3.68655 6.89871 0.5
540 6.13383 10.2438 8.68907 0.25
541 9.51019 8.75201 1.54983 0.25
542 7.50224 9.25198 5.73161 0.25
543 9.57187 4.65001 4.36511 0.25
544 1.68894 2.08376 7.07762 0.25
545 10.05 9.80577 3.43159 0.25
546 0.360193 0.599053 6.50898 0.25
547 9.46907 3.78448 2.22873 0.25
548 9.19706 4.47805 9.45575 0.25
549 1.31852 0.173111 2.27922 0.25
550 8.93893 8.6353 1.55846 0.25
551 2.96196 7.19427 3.36375 0.25
552 8.53752 9.19426 6.25493 0.25
553 5.05287 2.84514 5.29884 0.25
554 9.27356 4.40035 4.719 0.25
555 5.75718 8.63 7.51125 0.25
556 1.87008 8.90095 7.33976 0.25
557 2.69039 10.1159 7.77378 0.25
558 2.55865 3.91739 7.81228 0.25
559 9.28896 0.511417 9.25131 0.25
560 3.40973 4.85864 5.62576 0.25
561 0.690191 3.39621 1.82174 0.25
562 5.50857 5.19832 9.53273 0.25
563 6.16703 10.0902 8.20627 0.25
564 1.25335 1.86103 7.15505 0.25
565 3.00818 1.25939 1.90618 0.25
566 9.19436 6.79892 7.27872 0.25
567 1.21094 6.25805 1.01105 0.25
568 7.29469 2.05883 5.46886 0.25
569 6.84647 4.22894 7.31181 0.5
570 4.7281 4.23416 2.59579 0.25
571 3.97324 3.55219 3.36096 0.25
572 8.52355 1.53725 8.98397 0.25
573 1.06804 7.17689 4.79184 0.25
574 0.204359 0.892242 6.90005 0.25
575 5.90942 3.69992 4.49231 0.25
576 5.23927 1.73965 1.15805 0.25
577 1.21772 7.86157 5.44688 0.25
578 1.54107 5.08133 0.0891661 0.5
579 5.33029 4.60539 7.01593 0.25
580 9.48279 6.89228 3.49943 0.25
581 7.61421 6.95909 8.34236 0.25
582 7.16196 4.45215 4.88851 0.25
583 8.88962 5.99 5.90949 0.25
584 5.98295 6.45764 3.74002 0.25
585 7.26987 0.15997 0.946648 0.25
586 1.28496 2.72518 4.88894 0.25
587 6.18 9.66489 5.42669 0.25
588 3.15007 0.980725 10.1939 0.25
589 10.3345 4.30624 1.5802 0.25
590 8.44049 7.15421 4.13448 0.25
591 2.98696 2.40189 5.45284 0.25
592 6.59087 5.35343 2.67688 0.25
593 5.54141 9.85817 5.9844 0.25
594 8.52792 5.44284 9.95257 0.25
595 1.52685 2.16253 7.55839 0.25
596 9.53219 9.21904 1.75062 0.25
597 4.91696 1.29423 2.74684 0.25
598 5.29424 7.44886 0.580806 0.25
599 10.1374 1.04885 1.84477 0.25
600 3.83941 9.70566 2.44622 0.25
601 7.18629 9.26221 2.07004 0.25
602 5.80344 8.64273 3.13811 0.25
603 1.98695 6.6455 7.67306 0.25
604 9.24444 0.933204 0.838291 0.25
605 1.82715 7.68793 2.97786 0.25
606 2.0498 1.824 6.73871 0.25
607 2.36473 2.14766 7.6233 0.25
608 6.60988 6.28111 5.79947 0.5
609 4.00242 6.85736 1.44932 0.25
610 6.47992 4.68537 0.732694 0.5
611 8.87069 9.04963 7.42572 0.25
612 8.29078 0.513072 3.64193 0.5
613 8.2588 2.44562 10.1735 0.25
614 9.35906 6.48906 0.289533 0.25
615 6.73532 3.84087 8.34487 0.25
616 1.55109 1.5519 6.88744 0.25
617 2.67143 3.45748 7.59444 0.25
618 8.41209 3.21398 10.3135 0.25
619 1.08585 9.0611 2.67904 0.25
620 7.53106 5.25625 2.48374 0.25
621 6.78509 4.37617 1.39833 0.25
622 7.54299 7.4217 8.56541 0.25
623 7.78676 4.23148 4.65791 0.5
624 4.85846 8.71117 8.10685 0.25
625 4.794 2.07567 0.579323 0.25
626 2.29982 2.72933 4.34253 0.25
627 7.12649 5.38166 2.77577 0.25
628 1.42795 9.86506 0.665226 0.25
629 7.43889 10.0443 10.0127 0.25
630 6.14139 7.29661 0.822147 0.25
631 7.62627 1.49767 4.91286 0.25
632 3.45348 3.8314 0.192608 0.25
633 3.07214 3.98816 0.439958 0.25
634 4.26138 7.84371 8.5454 0.5
635 9.2487 6.28789 7.19714 0.25
636 8.89928 5.23187 9.73871 0.25
637 6.21748 8.77914 4.90149 0.25
638 2.57297 0.0110186 4.07703 0.5
639 7.04205 2.667 2.79726 0.25
640 7.64711 1.71869 7.89176 0.25
641 4.46146 5.29731 3.86359 0.25
642 3.44228 7.88477 6.64705 0.25
643 2.44863 1.35292 0.153105 0.25
644 5.83166 9.4748 4.78995 0.5
645 3.74419 4.19804 0.0215339 0.25
646 9.22365 6.90024 3.92689 0.25
647 6.78905 6.9061 5.62955 0.25
648 7.43616 1.30375 7.68638 0.25
649 4.60201 6.2342 9.15583 0.25
650 7.64287 0.864119 3.36129 0.25
651 5.08018 8.3197 7.90288 0.25
652 1.38435 5.73465 8.42811 0.25
653 0.836676 5.05878 5.63717 0.25
654 1.72189 6.01951 7.12685 0.25
655 10.0673 4.37301 2.01169 0.25
656 4.64749 4.98938 7.32952 0.25
657 8.59305 8.36226 6.27301 0.25
658 7.41239 3.88023 7.62211 0.25
659 8.46586 0.148653 4.269 0.25
660 1.79026 5.95157 7.84871 0.5
661 2.33596 7.62 3.08444 0.25
662 7.66766 8.80471 5.52904 0.25
663 2.75422 0.608196 9.31612 0.25
664 0.900965 2.69457 0.317051 0.25
665 8.00575 6.44909 0.463603 0.25
666 5.73451 9.92474 7.98947 0.25
667 8.71915 3.26571 9.90229 0.25
668 7.90216 2.68233 5.62572 0.25
669 3.11667 7.51828 9.27842 0.5
670 0.323956 2.70709 9.53653 0.25
671 1.0384 6.39884 4.70231 0.5
672 6.19488 6.53661 5.21488 0.25
673 4.06254 9.95447 0.88358 0.25
674 7.46372 4.50731 5.2842 0.25
675 8.95381 9.43134 7.73526 0.25
676 5.28467 1.60981 0.353103 0.5
677 9.48515 3.74111 7.62414 0.25
678 9.92057 0.667824 6.53893 0.5
679 1.93542 2.39801 7.42794 0.25
680 2.85501 6.73656 2.4929 0.25
681 8.35053 9.27206 6.69697 0.25
682 3.38458 7.56272 5.228 0.25
683 0.484114 2.65846 0.0336803 0.25
684 1.87595 8.84986 7.88512 0.25
685 8.41929 10.198 3.45161 0.25
686 6.30788 9.92668 5.03066 0.25
687 9.35292 3.27971 7.45292 0.25
688 6.56958 7.46805 0.567534 0.25
689 2.13461 2.34223 4.59186 0.25
690 0.218339 7.74052 8.73645 0.25
691 0.767088 8.4441 5.87649 0.25
692 1.04434 4.63002 5.84395 0.25
693 9.58111 1.83765 4.06918 0.25
694 3.85028 3.67906 10.3127 0.25
695 6.98948 1.66753 5.44044 0.25
696 5.34376 0.744427 3.80808 0.25
697 1.5374 9.10501 7.58017 0.25
698 8.67925 5.90196 0.43081 0.25
699 3.17466 7.99924 5.30793 0.25
700 6.71079 7.25421 0.145926 0.25
701 3.40195 5.30419 5.37137 0.25
702 6.19595 3.53522 4.83027 0.25
703 1.49075 0.355988 1.77823 0.25
704 7.56734 4.21102 8.53019 0.25
705 3.90832 5.7866 9.05534 0.25
706 7.57846 0.882477 7.58644 0.25
707 6.49041 7.29051 5.60048 0.25
708 5.50472 6.36919 3.51436 0.25
709 0.920348 4.47354 2.10972 0.5
710 1.30664 4.89351 5.4805 0.25
711 6.72769 4.30448 8.05873 0.25
712 4.52897 8.12714 3.49484 0.25
713 1.70982 4.80707 3.37312 0.25
714 2.71445 9.99092 4.57702 0.25
715 2.32173 3.86508 8.28337 0.25
716 9.56853 8.98449 0.622237 0.25
717 3.42457 5.81269 5.27524 0.25
718 5.4545 3.50876 5.20729 0.5
719 5.30703 2.93802 5.63136 0.25
720 5.37485 0.914114 4.24335 0.25
721 3.94261 7.97552 6.53761 0.25
722 4.41987 5.83328 4.476 0.25
723 5.66881 6.61495 6.14444 0.25
724 9.66922 0.426399 8.85518 0.25
725 4.28355 0.0744003 6.68472 0.25
726 4.49232 5.32592 4.38974 0.25
727 3.97624 6.07798 4.32115 0.25
728 1.82473 7.7666 9.95787 0.5
729 8.11173 1.80232 6.08405 0.25
730 8.36422 1.31783 8.58985 0.25
731 1.8121 5.72522 10.1274 0.25
732 3.37073 7.37698 6.52445 0.25
733 9.7295 2.26569 3.87579 0.25
734 8.73465 6.73942 3.88631 0.25
735 3.41112 2.09598 5.32437 0.25
736 8.44483 5.88662 6.71941 0.25
737 0.543842 4.67691 5.78627 0.25
738 4.85294 8.31961 8.38348 0.25
739 3.69509 3.42812 0.353965 0.25
740 8.07964 7.0344 1.08621 0.25
741 7.19872 3.26953 2.20195 0.25
742 5.17349 2.13714 0.88266 0.25
743 9.73852 2.70111 3.69821 0.25
744 2.01166 2.9833 4.98879 0.5
745 0.274812 4.27877 5.94329 0.25
746 6.97026 4.87088 1.3068 0.25
747 7.30918 2.28639 10.0803 0.25
748 7.27812 9.99118 9.55046 0.25
749 7.12292 4.1466 8.37769 0.25
750 4.02958 1.85025 6.61468 0.25
751 1.77604 2.56812 4.3074 0.25
752 9.4257 2.28367 4.24169 0.25
753 0.926302 3.30089 10.2834 0.5
754 7.89115 1.4609 5.7966 0.25
755 8.0678 2.91164 10.2121 0.25
756 5.70111 1.7282 1.36 0.25
757 0.049108 2.39248 3.83561 0.5
758 2.69401 9.55434 4.41359 0.25
759 5.30967 2.64445 8.06184 0.25
760 4.47099 0.843288 4.0166 0.25
761 5.95266 6.62719 5.68914 0.25
762 0.487233 3.68989 6.42745 0.25
763 6.46618 4.26328 4.8638 0.5
764 6.25488 6.01787 3.52765 0.25
765 6.81413 7.10356 8.25382 0.25
766 1.32402 5.03374 3.22462 0.25
767 6.81984 2.17521 2.68563 0.25
768 4.89012 2.58463 6.04196 0.5
769 1.27851 2.85117 9.8686 0.25
770 6.33061 7.00242 6.26371 0.5
771 6.41496 7.70529 0.125037 0.25
772 6.94085 8.82046 5.2797 0.5
773 6.42023 4.32266 9.81382 0.25
774 6.68957 8.50885 2.70984 0.25
775 10.113 7.92494 8.58815 0.25
776 4.63493 9.51801 0.551871 0.25
777 0.693627 8.31067 2.71961 0.25
778 4.17941 0.595381 9.40848 0.25
779 0.168841 7.99068 8.28901 0.25
780 5.2299 4.83815 9.30437 0.25
781 5.54922 6.72304 3.86595 0.25
782 9.10824 6.19327 0.54406 0.25
783 4.05105 8.13922 3.43301 0.25
784 3.85654 3.89344 0.40339 0.25
785 9.30355 9.29015 7.41006 0.25
786 7.04604 6.49127 5.29813 0.25
787 6.59291 6.27437 5.08753 0.25
788 4.93535 0.6584 4.06208 0.25
789 6.8531 5.74559 2.60059 0.25
790 4.89875 1.925 6.40212 0.25
791 8.54112 5.93188 6.26217 0.25
792 4.06633 3.34323 2.6321 0.5
793 10.3289 0.402552 9.44109 0.25
794 2.79814 1.55481 2.22961 0.25
795 1.43016 9.56996 7.60232 0.25
796 2.5272 9.72567 5.18624 0.5
797 9.62101 9.48661 3.50441 0.25
798 9.66429 4.15004 4.49714 0.25
799 3.43854 6.73592 2.0018 0.5
800 9.94501 1.62258 1.27709 0.25
801 6.12581 10.2251 9.93595 0.25
802 5.83688 7.1185 10.2925 0.25
803 9.59926 5.20713 9.26942 0.25
804 5.08512 5.05305 7.15615 0.25
805 9.14721 4.80989 4.39625 0.25
806 2.84265 9.66989 7.5228 0.25
807 3.30657 5.65996 5.72732 0.25
808 9.1829 5.48557 9.44426 0.25
809 1.78325 5.42881 9.76022 0.25
810 7.9062 2.07248 6.52066 0.25
811 9.6256 4.77076 9.4591 0.25
812 4.11536 6.39448 1.56932 0.25
813 1.4155 3.91388 2.27696 0.25
814 1.71545 9.98843 0.295394 0.25
815 3.87354 5.47288 4.78111 0.5
816 6.52912 0.159405 9.9432 0.25
817 4.08457 9.20192 0.995471 0.5
818 8.48326 5.97325 9.93049 0.25
819 4.17325 5.89304 1.5838 0.25
820 7.85244 3.99098 7.74633 0.25
821 8.45227 9.32777 7.54085 0.25
822 5.18752 3.55174 2.58123 0.25
823 2.15321 9.52856 7.67735 0.5
824 7.44416 4.58868 7.10038 0.25
825 7.97737 8.77094 6.16559 0.5
826 6.61552 2.60584 2.55183 0.25
827 8.77194 6.07996 7.12535 0.25
828 9.47243 3.31733 2.02538 0.25
829 0.59861 6.92425 4.94089 0.25
830 3.92134 6.0644 1.20369 0.25
831 2.74551 7.04292 2.05745 0.25
832 4.18012 5.45725 8.88581 0.25
833 5.6278 6.44627 6.88715 0.25
834 8.61267 4.80833 4.25698 0.25
835 1.26051 1.36586 7.29187 0.25
836 6.58615 4.56802 1.80504 0.25
837 3.56677 7.62122 8.69415 0.25
838 3.16623 10.001 7.73331 0.25
839 0.0797048 1.67271 4.02546 0.25
840 9.39399 3.95397 4.81082 0.25
841 5.66618 4.58336 9.93058 0.5
842 7.23171 7.26799 8.16932 0.25
843 0.819583 9.08727 2.17761 0.25
844 6.27088 4.38378 1.46092 0.25
845 8.78424 4.53519 4.6487 0.25
846 1.05106 5.73706 4.37873 0.25
847 7.34848 2.77212 10.1253 0.25
848 2.49747 1.05928 9.80681 0.5
849 6.93328 5.97196 2.17355 0.25
850 4.24568 8.78534 3.85568 0.25
851 3.69883 6.46758 1.3641 0.25
852 5.6644 1.09697 3.89919 0.25
853 8.84731 10.2317 4.39096 0.25
854 2.3374 3.34792 8.3788 0.25
855 3.99531 6.24025 2.0349 0.25
856 9.74151 3.36775 7.82948 0.25
857 5.90893 4.13035 5.39928 0.25
858 8.64169 7.04066 2.97066 0.25
859 9.16853 1.02923 1.61673 0.25
860 1.90688 10.0722 5.15731 0.25
861 3.72927 9.96891 2.04551 0.25
862 7.69692 1.03188 8.34113 0.5
863 0.492954 2.42326 9.90264 0.25
864 3.54277 3.93042 2.74741 0.25
865 1.29146 7.40472 5.22184 0.25
866 2.81932 1.7462 9.86428 0.25
867 3.36565 7.9362 9.92156 0.25
868 9.48296 0.925375 1.2795 0.25
869 0.129032 8.28537 5.204 0.25
870 7.17063 7.05985 8.60234 0.25
871 6.8138 3.05137 2.52577 0.25
872 8.176 1.33458 7.6006 0.5
873 5.37758 9.92782 5.17454 0.25
874 6.52752 9.15772 4.79367 0.25
875 3.44499 8.40848 5.34141 0.25
876 3.7558 6.0772 1.66282 0.25
877 0.214497 2.45586 4.58015 0.25
878 0.162753 10.3064 9.37454 0.25
879 0.872233 7.9565 5.766 0.25
880 5.5137 3.93616 4.62276 0.25
881 3.99472 6.52219 8.89746 0.5
882 0.232579 0.798603 5.65768 0.25
883 5.08499 3.32127 5.8589 0.25
884 2.47615 2.21543 2.19913 0.5
885 9.17233 9.51513 3.75551 0.25
886 9.63839 8.7462 1.051 0.25
887 1.19393 6.31243 7.66594 0.25
888 1.17168 10.3453 1.83568 0.25
889 4.53801 5.00204 7.79926 0.25
890 0.603917 3.92309 6.02385 0.25
891 3.90381 3.9567 3.0586 0.25
892 6.61538 8.67992 3.19778 0.25
893 8.46706 2.73538 0.12628 0.25
894 1.82143 7.80049 0.321574 0.25
895 10.0428 3.76509 7.6775 0.25
896 9.63347 0.968743 1.72609 0.25
897 3.83166 7.49566 6.71855 0.25
898 1.03783 5.33925 4.93951 0.5
899 0.11566 1.05775 6.44413 0.25
900 8.8862 7.02413 4.26651 0.25
901 0.968258 8.27183 5.40865 0.25
902 5.05965 1.28857 1.02166 0.25
903 9.1351 6.92762 3.1121 0.25
904 1.08563 5.89729 0.00706564 0.5
905 9.06812 1.27773 1.15293 0.25
906 9.59808 9.37073 4.01092 0.25