ITEM: TIMESTEP
190000
ITEM: NUMBER OF ATOMS
1000
ITEM: BOX BOUNDS xy xz yz pp pp pp
0.0000000000000000e+00 1.0357442000000001e+01 0.0000000000000000e+00
0.0000000000000000e+00 1.0357442000000001e+01 0.0000000000000000e+00
0.0000000000000000e+00 1.0357442000000001e+01 0.0000000000000000e+00
ITEM: ATOMS id x y z radius
1 1.49477 4.2402 2.96804 0.5
2 2.2109 7.47627 2.32274 0.5
3 5.50527 2.17351 1.0915 0.25
4 0.574506 2.18105 3.56042 0.25
5 10.3711 3.22779 7.5339 0.25
6 0.513699 2.76238 9.55872 0.25
7 4.58795 1.30871 2.75575 0.25
8 8.66286 3.81071 2.48012 0.25
9 9.87421 0.961172 1.37644 0.25
10 8.03387 7.50828 3.76577 0.25
11 9.18945 8.28016 0.45854 0.25
12 8.11511 2.34204 10.1389 0.25
13 4.03196 7.63127 5.9112 0.25
14 4.91057 2.17989 0.000230257 0.25
15 8.62633 6.13879 6.36312 0.25
16 8.5704 8.42372 6.71958 0.25
17 5.39664 9.36382 8.50747 0.5
18 2.59772 7.43978 9.44118 0.25
19 7.01073 4.93866 4.48803 0.25
20 9.1653 1.00738 0.844321 0.25
21 0.447547 10.2193 9.8867 0.25
22 4.07597 1.28458 2.8166 0.25
23 3.8559 3.52874 2.45802 0.25
24 2.79492 2.40158 4.59172 0.25
25 8.12354 2.40509 6.17862 0.25
26 5.84979 2.07668 8.64994 0.25
27 1.49716 7.62491 10.0403 0.25
28 8.68496 6.01612 6.82754 0.25
29 4.23585 8.08903 5.71115 0.25
30 1.16205 8.39516 7.24716 0.25
31 0.567094 7.37057 4.75335 0.25
32 9.20974 6.44639 1.09606 0.25
33 9.19744 8.77347 0.439033 0.25
34 0.971467 2.6789 10.2264 0.25
35 7.93832 1.98832 0.0227263 0.25
36 8.50552 9.06581 9.44713 0.25
37 2.87469 4.43103 6.2312 0.25
38 6.60507 0.468586 1.24625 0.25
39 6.22662 3.73333 4.49631 0.25
40 8.5105 4.30331 4.7562 0.25
41 8.08119 7.4392 4.62237 0.25
42 6.19227 9.06127 2.73051 0.5
43 0.725962 8.73418 5.31906 0.25
44 1.66592 10.3659 3.71586 0.25
45 7.52405 6.19102 8.87436 0.25
46 1.1412 8.42344 7.74334 0.25
47 4.04282 8.21415 3.41774 0.25
48 1.9705 0.370979 3.84868 0.25
49 4.56329 6.05958 9.29091 0.25
50 10.0159 9.79143 3.68532 0.25
51 9.43722 8.6233 1.59519 0.25
52 6.02218 7.72365 0.10846 0.25
53 6.64184 4.76409 1.76152 0.25
54 4.3907 4.7477 7.88072 0.25
55 6.32531 6.8781 6.88596 0.25
56 5.37392 1.76217 1.35005 0.25
57 4.90708 2.52044 0.408028 0.25
58 5.93047 4.54673 0.650809 0.25
59 3.93603 7.08531 9.33347 0.25
60 7.84259 6.48202 9.13132 0.25
61 3.7238 0.00582412 8.28624 0.25
62 8.9863 6.41555 6.6138 0.25
63 0.626365 5.46937 4.1779 0.25
64 9.98783 1.22749 1.75942 0.25
65 6.07043 6.10814 6.55448 0.25
66 4.34158 0.864495 2.68492 0.25
67 9.42573 4.81712 9.09281 0.25
68 6.1004 10.2769 0.106733 0.25
69 2.89865 7.40845 2.59874 0.25
70 4.0435 5.6997 3.88431 0.25
71 1.38449 8.30616 1.84772 0.25
72 5.63743 6.58416 3.87036 0.25
73 9.15191 9.0757 7.31235 0.5
74 2.65895 7.69942 2.95563 0.25
75 0.845413 6.04808 0.425722 0.25
76 1.86673 8.45789 9.89884 0.25
77 7.57386 6.62668 8.70229 0.25
78 3.9732 9.41051 1.69666 0.25
79 1.06687 5.0356 9.52599 0.25
80 8.41595 8.65169 9.84554 0.25
81 8.41857 9.06157 7.44924 0.25
82 1.04921 0.433584 2.14211 0.25
83 1.67271 8.01448 2.07902 0.25
84 5.21666 9.83731 5.43603 0.25
85 4.28683 6.69203 1.40094 0.25
86 9.73552 4.02059 2.20419 0.5
87 1.12357 5.5646 8.2988 0.25
88 2.83839 3.99904 8.12556 0.25
89 1.24018 10.127 9.92777 0.25
90 6.79396 9.83981 1.64058 0.5
91 4.36512 8.59249 3.44648 0.25
92 9.14264 1.03498 1.65867 0.25
93 8.48398 1.03533 8.32306 0.25
94 0.810193 3.86031 1.66617 0.25
95 7.81689 9.08025 5.61278 0.25
96 7.61417 1.22549 7.2148 0.25
97 5.64903 9.94491 5.51647 0.25
98 10.1056 0.49921 5.99226 0.25
99 5.16972 2.15491 8.30799 0.5
100 5.21793 2.73823 5.20172 0.25
101 5.26511 2.17507 9.7576 0.5
102 4.64504 5.23047 8.42963 0.5
103 6.5884 10.3833 1.06215 0.25
104 0.943565 9.96839 0.28664 0.25
105 2.03183 4.76415 3.27159 0.25
106 5.93862 6.90119 6.24132 0.25
107 5.71781 10.0455 8.47779 0.25
108 1.32051 3.79775 1.86545 0.25
109 7.1786 2.2833 2.7211 0.25
110 5.75163 9.94851 6.01581 0.25
111 1.88291 4.94063 0.532184 0.25
112 3.0617 4.92498 5.25337 0.25
113 2.64395 9.82455 4.35763 0.25
114 8.67373 5.68344 0.0198901 0.25
115 4.7499 4.16702 2.95248 0.25
116 0.125832 2.4446 4.58157 0.25
117 6.71363 2.86676 2.76953 0.5
118 5.95822 8.33098 2.77762 0.25
119 9.93188 2.08945 3.62476 0.25
120 1.63127 5.63837 0.331411 0.25
121 8.28806 2.2477 5.4743 0.5
122 1.71816 4.64996 2.43912 0.25
123 9.00882 8.6351 1.69441 0.25
124 8.44307 5.851 0.429721 0.25
125 2.28839 10.2547 5.42266 0.25
126 6.03841 7.55346 0.586677 0.25
127 6.07065 7.2596 0.187263 0.25
128 9.05252 9.91259 4.38887 0.25
129 1.80791 5.23962 3.2906 0.25
130 9.34449 9.03552 1.87081 0.25
131 6.72029 2.12806 2.5479 0.25
132 8.18904 5.19738 4.52598 0.25
133 8.25097 9.1374 9.91485 0.25
134 3.68598 3.98941 2.34713 0.25
135 6.19786 9.59899 8.00686 0.5
136 8.47483 8.74878 7.11088 0.25
137 1.18965 9.10268 2.1974 0.25
138 7.46242 4.57891 5.35413 0.25
139 7.08783 4.59761 8.07289 0.5
140 4.77964 8.52765 3.76465 0.25
141 1.82914 1.9717 1.51954 0.25
142 2.88589 2.88087 4.61914 0.25
143 7.97144 1.21071 3.19564 0.25
144 10.2798 6.37149 2.07313 0.25
145 4.18214 8.03035 6.20003 0.25
146 7.32144 8.40973 1.87946 0.25
147 4.3239 5.61913 4.25195 0.25
148 2.62692 1.40771 10.0944 0.25
149 10.2033 7.4457 8.72948 0.25
150 4.39218 5.18644 7.65425 0.25
151 6.8557 9.7993 9.97436 0.25
152 4.35584 9.20783 1.33791 0.25
153 5.2887 2.03148 7.60381 0.25
154 5.53113 9.55087 7.77681 0.25
155 3.46507 5.73845 1.39352 0.25
156 0.772392 8.63426 7.40673 0.25
157 4.7773 0.852793 3.99858 0.25
158 8.91054 8.58538 6.32494 0.25
159 3.17719 2.77824 5.43447 0.25
160 2.66267 3.49115 8.00165 0.25
161 3.34947 0.272668 8.4759 0.25
162 4.07943 2.3488 5.9957 0.5
163 7.39819 9.71615 2.14781 0.25
164 5.49538 8.58959 8.40646 0.25
165 0.59451 2.95318 10.0119 0.25
166 6.99429 4.65103 6.87135 0.25
167 8.6096 10.3562 3.84479 0.25
168 0.0566847 7.70529 9.4288 0.25
169 10.0184 6.08413 7.05717 0.25
170 3.49931 10.2245 8.72182 0.25
171 0.838915 9.13238 7.38509 0.25
172 9.36189 6.59785 6.8837 0.25
173 0.802196 2.59913 3.432 0.25
174 4.94285 1.97311 6.36932 0.25
175 9.82432 2.98567 7.4801 0.25
176 0.764696 5.56072 0.177076 0.25
177 9.75263 6.38836 6.69051 0.25
178 7.80766 2.58299 5.78835 0.25
179 2.91772 9.56189 7.5963 0.25
180 6.59214 8.7597 1.94918 0.5
181 0.745497 4.30308 5.60153 0.25
182 7.16008 1.15784 3.55833 0.25
183 2.78429 0.0294088 4.35603 0.25
184 9.65748 4.78277 9.78513 0.25
185 9.12363 8.50241 6.77663 0.25
186 2.43124 7.90551 9.6738 0.25
187 3.24922 3.2561 0.248255 0.25
188 5.11694 2.53026 7.61598 0.25
189 9.63263 0.388677 6.08081 0.25
190 2.55321 7.91886 3.35381 0.25
191 5.64866 2.51195 8.75602 0.25
192 9.26503 8.91794 6.56119 0.25
193 5.54172 2.64924 9.27679 0.25
194 4.29508 9.63998 1.43217 0.25
195 5.35584 5.02226 9.75457 0.25
196 5.05081 2.61483 10.2852 0.25
197 9.30509 5.8325 6.71479 0.5
198 7.63194 1.95028 7.21621 0.5
199 6.77645 10.2858 9.90317 0.25
200 7.25088 1.29204 6.39941 0.25
201 5.97218 6.56439 6.66509 0.25
202 3.59729 8.03079 5.09597 0.25
203 4.4213 9.27363 0.154437 0.25
204 0.25183 3.86697 6.08785 0.25
205 3.65894 0.380494 6.5918 0.25
206 0.546719 2.66745 4.45265 0.25
207 1.31299 5.37744 3.84607 0.5
208 2.76773 4.87137 6.00828 0.25
209 7.35753 8.88817 2.03955 0.25
210 3.75466 10.2679 6.49433 0.25
211 1.29555 4.91671 2.65555 0.25
212 0.208369 3.67555 2.02228 0.5
213 8.60391 3.80253 1.99897 0.25
214 3.42995 4.65946 5.55889 0.25
215 10.193 0.577088 8.94116 0.25
216 5.18699 1.59367 0.556646 0.25
217 0.688528 8.3098 5.06024 0.25
218 2.36594 2.31397 1.93696 0.5
219 1.01209 4.26473 6.03739 0.25
220 6.59643 9.68337 2.67998 0.25
221 8.45325 7.51199 3.53325 0.25
222 9.01354 6.34998 7.14181 0.25
223 5.47664 9.84927 5.05589 0.25
224 0.162491 4.08023 7.34759 0.25
225 7.66631 1.80713 5.47072 0.25
226 6.53034 9.15026 5.10537 0.25
227 6.94172 0.196789 1.37922 0.25
228 5.06517 2.33788 0.862223 0.25
229 1.94715 1.28313 2.25187 0.25
230 8.49063 7.74732 4.45352 0.25
231 7.40535 3.90248 7.20306 0.25
232 6.6516 9.39438 2.24383 0.25
233 8.28305 1.76279 8.37812 0.5
234 3.64088 10.0659 1.03865 0.25
235 0.915465 8.87278 7.81479 0.25
236 1.15263 5.59141 0.481392 0.25
237 8.09905 1.4573 3.59383 0.25
238 1.2252 6.13219 4.15439 0.25
239 0.0325339 2.63972 9.56178 0.25
240 1.24228 8.40491 2.60543 0.5
241 0.985859 9.06666 2.70238 0.25
242 3.81503 8.05699 6.51548 0.25
243 1.11328 6.4778 0.389265 0.25
244 1.05521 1.28855 7.51939 0.25
245 6.26698 6.33291 6.97565 0.25
246 1.61222 7.72985 0.163593 0.25
247 2.83032 7.23223 2.07364 0.25
248 5.04825 1.97788 9.05462 0.25
249 7.10667 4.76613 4.97797 0.25
250 7.50648 1.46468 6.76599 0.25
251 1.58964 1.16129 6.84688 0.25
252 6.83989 6.98539 8.10084 0.25
253 3.8952 7.70281 8.83441 0.25
254 1.11243 8.72847 1.9031 0.25
255 0.666596 0.165098 2.19925 0.25
256 3.49187 6.01074 4.38501 0.25
257 1.14468 10.2957 0.0115549 0.25
258 4.75265 4.88188 6.9156 0.25
259 2.26161 9.78654 4.6643 0.25
260 1.47022 10.0439 0.369457 0.25
261 7.70835 6.96006 9.00395 0.25
262 5.62258 7.11205 3.84824 0.25
263 8.36004 8.55303 9.3487 0.25
264 7.50992 9.37946 9.85758 0.5
265 4.52118 3.80349 2.18021 0.25
266 5.20095 3.55024 2.5832 0.25
267 3.9061 7.75306 5.41698 0.25
268 3.68537 7.77202 6.2375 0.25
269 8.22763 9.39956 5.76805 0.25
270 3.59473 7.54037 5.78182 0.25
271 4.0062 9.91178 1.73275 0.25
272 6.84605 7.1273 5.83038 0.25
273 9.73206 3.51052 6.64624 0.25
274 3.28253 4.62214 6.04103 0.25
275 0.0129026 6.32197 2.60571 0.25
276 8.78307 0.851464 7.99983 0.25
277 2.93149 10.1336 8.08125 0.5
278 4.11263 5.71444 8.53436 0.25
279 3.81073 0.276096 8.70009 0.25
280 2.92758 0.429364 8.636 0.25
281 4.18683 9.09166 3.56274 0.25
282 4.99912 0.595346 3.17101 0.25
283 9.72961 0.0270381 9.3236 0.25
284 1.51068 5.27008 0.610949 0.25
285 8.81209 6.55548 0.928519 0.25
286 -0.007584 1.14154 1.47723 0.25
287 2.25161 8.00066 2.8987 0.25
288 1.38869 5.79628 4.53988 0.25
289 9.15386 0.510317 0.974612 0.25
290 9.40321 3.36486 2.42385 0.25
291 7.67881 2.41007 0.16064 0.25
292 3.82249 9.76269 1.33333 0.25
293 4.5534 2.64597 7.07456 0.5
294 0.162901 6.71501 2.35742 0.25
295 6.92089 1.30216 7.1511 0.5
296 3.08188 2.64039 4.19874 0.25
297 1.0929 8.05163 4.95308 0.25
298 4.69606 9.19745 0.940605 0.25
299 9.1208 4.66663 9.81716 0.25
300 2.19892 0.294815 5.04721 0.25
301 4.69788 8.38934 8.53512 0.25
302 5.05039 4.75168 7.27537 0.25
303 9.22859 5.22394 10.275 0.5
304 4.23435 4.1948 2.87706 0.25
305 1.91086 8.09308 2.54707 0.25
306 0.12676 7.3268 9.14065 0.25
307 1.24998 9.82838 10.3099 0.25
308 9.05012 6.23923 6.14668 0.25
309 8.75684 1.36502 8.66931 0.25
310 5.79098 6.42454 6.18431 0.25
311 1.4242 10.1882 2.36918 0.25
312 9.11605 0.746271 8.61275 0.5
313 1.21173 7.89762 1.99096 0.25
314 0.44989 4.25796 1.64866 0.25
315 3.44495 0.483288 9.26655 0.5
316 6.35941 3.80678 7.93817 0.25
317 6.04193 9.6742 8.71166 0.25
318 10.1949 7.28933 9.57354 0.25
319 10.1795 10.2728 3.775 0.25
320 1.24468 2.27019 10.3321 0.25
321 1.86287 1.73393 2.03294 0.25
322 0.919354 7.08599 4.8828 0.25
323 6.37028 10.0352 9.33848 0.5
324 6.80615 2.11702 3.02834 0.25
325 9.05746 3.59874 2.23268 0.25
326 1.51151 0.466254 3.87026 0.25
327 1.51533 8.79876 7.06327 0.25
328 4.51686 4.2246 2.48259 0.25
329 8.52307 7.08599 4.11896 0.5
330 9.98299 6.10648 2.41331 0.25
331 8.91863 0.37291 3.93978 0.25
332 5.5484 7.46106 0.792582 0.25
333 10.0517 8.01001 9.20675 0.25
334 6.30355 5.13005 1.83441 0.25
335 5.87868 5.02759 0.640387 0.25
336 9.07316 3.79137 1.80755 0.25
337 4.52777 5.95904 8.52555 0.25
338 5.98509 8.42131 2.25972 0.25
339 3.82369 5.75664 8.9462 0.25
340 0.463349 2.58304 0.00475502 0.25
341 3.90069 5.78144 4.33303 0.25
342 9.66655 3.71394 7.07693 0.25
343 9.99361 2.55908 4.37023 0.25
344 4.58598 0.501833 2.91056 0.25
345 6.5772 4.28804 -0.0121206 0.25
346 1.45201 1.36523 7.72688 0.25
347 3.68401 3.90137 10.2903 0.25
348 6.29645 7.14433 0.628813 0.25
349 5.11447 1.62423 7.76916 0.25
350 3.01832 3.22298 8.08888 0.25
351 6.03046 6.2553 3.84927 0.25
352 8.39811 6.41315 1.13876 0.25
353 10.0424 3.95702 7.26733 0.25
354 9.86645 3.46129 1.66285 0.25
355 2.92069 1.8364 1.82504 0.25
356 3.72543 9.09609 0.782291 0.25
357 3.65997 4.94997 5.91904 0.25
358 4.19866 9.02108 0.898019 0.25
359 9.20617 6.09838 0.416155 0.5
360 4.10954 0.310369 6.51867 0.25
361 10.3117 0.845752 6.2233 0.25
362 9.94027 7.71449 9.63556 0.25
363 7.07672 2.37736 2.27531 0.25
364 9.73743 6.94225 2.15857 0.25
365 6.20558 9.4754 4.88898 0.25
366 8.98844 4.10687 2.21206 0.25
367 4.11005 0.104905 9.50893 0.25
368 9.8405 6.59 7.13956 0.25
369 8.97771 5.1738 4.35607 0.5
370 4.76448 1.738 7.01357 0.5
371 9.58333 6.37325 1.76059 0.5
372 1.17191 2.38703 4.06071 0.5
373 3.91294 10.269 9.03866 0.25
374 3.06428 10.3232 8.82012 0.25
375 5.00486 0.565877 3.62794 0.25
376 0.789943 5.98188 4.09821 0.25
377 10.0019 7.50929 9.18114 0.25
378 9.22262 8.18141 1.45835 0.25
379 0.647831 4.03004 6.35072 0.25
380 1.80868 2.40771 4.47846 0.25
381 6.80364 5.3159 2.21627 0.5
382 1.97409 8.01609 9.69606 0.25
383 5.80992 8.44061 8.00506 0.25
384 1.59563 6.59817 7.28223 0.25
385 1.22954 6.96851 5.23692 0.25
386 1.38608 5.79661 7.49035 0.25
387 1.48925 6.14426 7.1521 0.25
388 2.44543 1.24094 2.34367 0.25
389 5.25285 1.36749 0.978352 0.25
390 3.56539 3.63166 0.342548 0.25
391 3.39841 -0.0526264 6.77778 0.25
392 0.512211 5.85111 4.47377 0.25
393 8.84873 8.45489 7.13685 0.25
394 0.0577948 0.295723 6.3461 0.25
395 2.14737 4.6525 2.73643 0.25
396 2.78465 0.741735 9.0056 0.25
397 7.07944 2.43082 3.22024 0.25
398 9.46568 3.99868 9.40766 0.25
399 2.67274 9.11351 7.53151 0.25
400 8.46352 2.70832 10.2648 0.25
401 5.99896 6.78396 3.73476 0.25
402 4.33261 5.76801 8.90172 0.25
403 6.18994 4.90545 0.351524 0.25
404 8.07264 3.24597 9.6808 0.25
405 1.37732 6.06331 0.515263 0.25
406 6.4469 9.63897 5.33382 0.25
407 7.17542 6.9249 8.889 0.25
408 8.89783 8.56012 0.777986 0.25
409 10.2192 6.87034 2.0249 0.25
410 5.54264 1.2181 4.00493 0.25
411 7.61944 8.65744 9.57893 0.25
412 4.80855 2.06707 7.63663 0.25
413 7.44843 2.59985 2.95669 0.25
414 7.28252 5.93968 2.15546 0.25
415 4.31845 0.901501 3.43147 0.5
416 10.0745 0.35294 9.38295 0.25
417 3.50045 8.26719 5.80276 0.5
418 0.885367 1.1736 6.80058 0.5
419 8.75161 0.239777 3.41267 0.25
420 5.41132 8.79382 7.97885 0.25
421 9.28917 6.09339 7.49102 0.25
422 2.55904 7.17328 2.8891 0.25
423 1.72206 4.89644 2.89776 0.25
424 0.584407 0.229343 9.59797 0.25
425 2.43163 0.211062 4.63301 0.25
426 2.71586 1.67137 2.22265 0.25
427 7.10541 1.73034 6.61707 0.25
428 6.22453 9.43801 1.98614 0.25
429 5.74861 9.12773 7.77968 0.25
430 9.25276 9.62103 3.99437 0.25
431 7.07199 10.2403 1.03747 0.25
432 2.82262 7.68108 9.81882 0.25
433 2.90759 3.04964 5.11393 0.25
434 5.73848 9.94188 8.94869 0.25
435 0.247781 3.00295 9.26363 0.25
436 6.65891 4.73492 0.301849 0.25
437 1.68447 5.64456 9.77005 0.25
438 7.43663 0.967243 6.79604 0.25
439 9.42715 10.2721 3.78835 0.5
440 2.38482 2.801 7.76344 0.5
441 0.889017 3.91017 2.57256 0.25
442 5.52004 7.92071 0.0805173 0.25
443 9.57564 9.83552 4.3537 0.25
444 0.953748 3.67137 2.09994 0.25
445 5.85763 6.40895 3.46406 0.25
446 8.33003 4.37066 4.2907 0.25
447 6.3071 4.73765 10.2818 0.25
448 5.0796 1.28791 3.38153 0.5
449 9.8056 0.899526 6.10614 0.25
450 2.77436 1.95912 1.41877 0.25
451 2.86753 3.90332 0.0142496 0.25
452 5.72637 4.30854 5.04406 0.25
453 7.32097 3.81616 8.17398 0.25
454 2.0304 5.69966 8.42346 0.25
455 1.29051 5.96766 7.97401 0.25
456 2.24908 1.65698 2.26261 0.25
457 9.71407 8.54365 0.907105 0.5
458 1.83294 5.81686 7.16457 0.25
459 1.5033 1.32042 6.37495 0.25
460 2.28706 5.96035 7.1892 0.25
461 3.99338 6.32427 2.09621 0.25
462 4.41986 6.39137 1.78378 0.25
463 2.09364 9.8233 5.19957 0.25
464 9.53116 1.29669 1.53654 0.25
465 6.81895 6.11936 2.27243 0.25
466 4.98991 5.50743 7.34561 0.5
467 3.57646 4.83962 5.09217 0.25
468 2.54411 1.87985 0.977924 0.25
469 3.84044 3.90277 2.80812 0.25
470 4.25991 3.37789 2.27453 0.25
471 2.14699 10.2683 3.89477 0.25
472 1.91569 2.18173 7.56399 0.25
473 2.74181 7.86748 9.27943 0.25
474 9.09838 3.77439 2.65747 0.25
475 9.16777 7.39895 4.07222 0.25
476 4.39048 6.20556 1.31952 0.25
477 10.0047 9.89937 4.17831 0.25
478 8.77223 5.80849 1.14696 0.5
479 6.42242 0.390473 0.785098 0.25
480 2.71697 8.09202 10.061 0.25
481 3.52591 9.53669 0.942588 0.25
482 6.57417 10.0313 5.65109 0.25
483 6.83172 10.2109 0.33177 0.5
484 9.99813 3.44836 7.31771 0.25
485 7.74836 3.06571 10.0173 0.25
486 4.31161 8.31117 3.84215 0.25
487 3.65414 3.4211 10.3054 0.25
488 6.39931 9.79467 2.30427 0.25
489 8.8024 6.74183 3.51065 0.25
490 2.37917 3.49146 7.61118 0.25
491 8.80854 8.84615 6.76284 0.25
492 8.18258 2.35889 0.253258 0.25
493 9.70843 3.20833 7.03073 0.25
494 8.49559 4.75074 4.60917 0.25
495 10.1625 3.00084 7.12408 0.25
496 4.42045 1.77524 6.36595 0.25
497 3.24434 4.09228 10.1318 0.25
498 7.9325 1.35167 8.96814 0.25
499 4.10144 10.1562 1.30261 0.25
500 4.34337 7.11424 9.0367 0.25
501 2.17953 9.84158 4.15814 0.25
502 9.37785 6.5407 6.38809 0.25
503 6.41252 8.36979 3.01756 0.25
504 5.61368 7.4756 0.305879 0.25
505 7.51286 1.96058 6.12045 0.5
506 5.76737 -0.0100623 5.72604 0.25
507 6.36394 8.31912 2.54626 0.25
508 4.85723 8.14053 8.06645 0.25
509 1.39446 8.79774 7.92135 0.25
510 5.6264 3.89559 5.29324 0.25
511 3.89678 0.0906136 6.93941 0.25
512 2.17314 5.08638 3.00012 0.25
513 1.94706 5.30345 0.277658 0.25
514 4.00151 2.4789 5.30176 0.25
515 2.12093 1.4475 7.30396 0.5
516 5.82451 9.28266 5.46062 0.5
517 9.14466 7.06656 3.72583 0.25
518 3.06327 1.13445 9.2627 0.25
519 2.58896 10.1324 3.9875 0.25
520 5.14299 2.22061 7.24668 0.25
521 0.831486 4.75607 5.34323 0.25
522 2.3466 10.1837 4.38531 0.25
523 2.58004 3.20589 8.397 0.25
524 7.70259 1.99816 5.06104 0.25
525 2.01854 6.77115 6.97784 0.25
526 1.85639 5.3639 8.20584 0.25
527 7.22599 9.19204 2.74789 0.5
528 7.19325 8.50387 2.29223 0.25
529 4.1906 6.06259 0.889471 0.25
530 1.5247 7.76444 2.43443 0.25
531 0.306815 2.50315 9.18348 0.25
532 2.02228 7.72606 0.504807 0.25
533 8.82803 9.92781 3.95732 0.25
534 8.674 4.60156 3.92714 0.25
535 6.84358 6.50179 8.30338 0.25
536 4.54142 8.99768 0.535531 0.25
537 7.66709 1.24439 3.71843 0.25
538 7.43208 4.30694 7.51505 0.25
539 0.0578674 3.59215 6.74283 0.5
540 5.88282 0.0523758 8.76727 0.25
541 9.05805 8.55719 1.22866 0.25
542 7.52107 8.92447 6.00164 0.25
543 9.60358 4.77589 4.3743 0.25
544 1.71198 1.98113 7.12474 0.25
545 10.0129 10.2098 3.31347 0.25
546 0.291064 0.687897 6.49343 0.25
547 9.41271 3.44114 1.8971 0.25
548 9.22438 4.32425 9.11771 0.25
549 1.0407 0.0866265 2.51018 0.25
550 9.07032 8.12453 0.947993 0.25
551 2.65377 7.43374 3.36128 0.25
552 8.97185 9.29792 6.66178 0.25
553 5.66075 2.61124 5.41379 0.25
554 9.19274 4.55547 4.09533 0.25
555 6.19441 8.81114 7.89421 0.25
556 1.19022 9.28525 7.71804 0.25
557 2.57008 9.48243 7.91584 0.25
558 2.75767 3.85667 7.66322 0.25
559 9.89286 0.902018 8.78611 0.25
560 3.15692 4.99651 5.71802 0.25
561 0.821975 3.37262 1.7127 0.25
562 4.99561 4.74539 9.87663 0.25
563 5.91916 10.2993 8.12491 0.25
564 1.3968 1.53292 7.22715 0.25
565 2.63024 2.38797 1.16976 0.25
566 9.37806 6.61707 7.37151 0.25
567 0.999826 6.27112 0.834958 0.25
568 7.56845 2.31293 5.44436 0.25
569 6.70353 4.13512 7.2841 0.5
570 3.9762 4.30024 2.46737 0.25
571 4.77615 3.44634 2.29245 0.25
572 8.4238 1.49882 9.01824 0.25
573 0.792328 6.81676 5.34444 0.25
574 0.227831 0.853567 7.01086 0.25
575 5.72169 4.21243 4.5194 0.25
576 5.12467 1.8595 0.940078 0.25
577 0.256299 8.08667 5.12168 0.25
578 1.34393 5.10974 10.272 0.5
579 4.68484 5.31005 6.69869 0.25
580 8.93161 7.52035 4.50002 0.25
581 6.82653 6.69583 9.11205 0.25
582 7.11497 4.31271 5.02033 0.25
583 8.87091 5.79706 6.07045 0.25
584 5.37253 6.42664 3.47666 0.25
585 6.94962 0.343361 0.899474 0.25
586 1.48526 2.71358 4.68044 0.25
587 6.11229 9.93717 5.66158 0.25
588 3.43627 0.859928 10.0011 0.25
589 9.98693 3.90909 1.49801 0.25
590 8.80146 7.21192 3.37879 0.25
591 3.69169 2.80497 5.46628 0.25
592 6.3832 5.42134 2.80089 0.25
593 5.34618 9.68965 5.91567 0.25
594 8.69688 5.54361 9.8519 0.25
595 1.55164 1.84072 7.60382 0.25
596 9.1586 8.97014 0.907394 0.25
597 4.68386 0.29025 3.36986 0.25
598 5.71798 7.89832 0.559143 0.25
599 9.95634 1.44182 1.28088 0.25
600 3.58265 10.0826 2.02332 0.25
601 7.11041 9.36326 2.03787 0.25
602 6.36327 8.72037 3.41265 0.25
603 2.39506 6.47501 7.24615 0.25
604 8.71934 1.1745 0.924395 0.25
605 1.78041 7.81841 2.9216 0.25
606 2.00891 1.92403 6.75421 0.25
607 2.42011 2.12273 7.60081 0.25
608 5.83511 6.82032 5.55591 0.5
609 4.11832 6.73322 1.88473 0.25
610 6.46247 4.78716 1.04347 0.5
611 8.59627 8.6096 7.5823 0.25
612 8.19618 0.682156 3.70373 0.5
613 7.67902 2.56388 10.0283 0.25
614 9.67664 6.46579 0.975829 0.25
615 6.55487 4.06897 8.38907 0.25
616 1.56907 1.65345 6.76793 0.25
617 2.91147 3.36679 7.56957 0.25
618 8.19687 3.15587 10.2088 0.25
619 0.723862 8.91754 2.28932 0.25
620 7.4712 5.53583 2.40501 0.25
621 7.07028 4.94477 1.60008 0.25
622 6.55 6.47012 8.74624 0.25
623 7.77235 4.62867 4.71169 0.5
624 5.04223 8.6443 8.23254 0.25
625 5.08329 1.77051 0.0525947 0.25
626 2.56981 2.66392 4.20052 0.25
627 7.22613 5.38322 2.79715 0.25
628 1.14899 9.8218 0.733853 0.25
629 7.25735 10.0785 10.0954 0.25
630 6.52657 7.60235 0.796686 0.25
631 8.01788 1.62716 5.22247 0.25
632 3.22697 3.64442 10.3309 0.25
633 3.30983 4.05129 0.262104 0.25
634 4.57637 7.68995 8.57196 0.5
635 9.55038 6.21635 7.18523 0.25
636 8.84753 5.12021 9.62896 0.25
637 6.65536 9.65212 4.86942 0.25
638 1.71421 0.0488638 4.47165 0.5
639 7.364 2.74757 2.47975 0.25
640 7.71189 1.62858 7.97902 0.25
641 3.79072 6.14382 3.99532 0.25
642 3.70893 7.31837 6.19157 0.25
643 2.75589 1.0189 0.0535953 0.25
644 6.11351 10.2729 5.02767 0.5
645 2.82033 3.34338 -0.0824891 0.25
646 8.919 7.82951 4.15073 0.25
647 6.49132 6.3611 5.56502 0.25
648 7.47334 1.34104 7.71385 0.25
649 4.84129 5.84494 8.88277 0.25
650 7.53702 0.96917 3.29981 0.25
651 5.34344 8.29084 7.96629 0.25
652 1.55924 5.72599 8.33649 0.25
653 1.16586 5.07176 5.57959 0.25
654 1.9539 6.31367 7.09004 0.25
655 10.3117 4.30303 1.66876 0.25
656 4.59753 4.78924 7.40502 0.25
657 8.90806 9.10619 6.26967 0.25
658 7.26341 3.90829 7.71809 0.25
659 8.50194 0.263283 4.22552 0.25
660 1.97123 6.11351 7.82197 0.5
661 2.22789 7.5769 3.10903 0.25
662 7.70972 9.40641 5.95587 0.25
663 2.71487 0.252576 9.0426 0.25
664 1.29362 2.46807 9.87852 0.25
665 8.49245 6.33236 0.629131 0.25
666 5.55207 9.94816 8.03663 0.25
667 7.9017 3.56774 10.0621 0.25
668 8.18919 2.82249 5.92742 0.25
669 3.3574 7.46557 9.25367 0.5
670 0.188487 3.08479 9.72831 0.25
671 0.935508 6.34894 4.78693 0.5
672 6.45962 7.35432 5.56005 0.25
673 3.89876 9.32576 1.22188 0.25
674 7.11047 4.43468 4.5616 0.25
675 8.2446 8.82703 7.90307 0.25
676 5.58125 2.18812 0.368403 0.5
677 9.73967 3.77354 7.60784 0.25
678 9.92962 0.590277 6.77992 0.5
679 2.17415 2.24163 7.18311 0.25
680 2.76929 6.96059 2.45589 0.25
681 8.54684 9.23093 6.94463 0.25
682 3.54444 8.49534 5.1199 0.25
683 0.978831 2.87807 9.73492 0.25
684 1.29044 9.24299 7.1998 0.25
685 8.28487 0.00336496 3.44335 0.25
686 6.25709 0.093434 5.72344 0.25
687 9.51365 3.36357 7.42582 0.25
688 6.77239 7.22468 0.596232 0.25
689 2.30836 2.29739 4.43716 0.25
690 9.90846 7.7778 8.78194 0.25
691 0.24756 8.59664 5.1624 0.25
692 1.20024 4.53349 5.61326 0.25
693 9.52113 2.06152 3.92217 0.25
694 3.24694 3.22906 10.0616 0.25
695 7.24438 1.9697 5.37713 0.25
696 4.62821 1.30447 3.98183 0.25
697 1.2472 8.8389 7.47787 0.25
698 8.83023 5.50592 0.438331 0.25
699 4.01236 8.25021 5.27834 0.25
700 6.66321 7.23961 1.09199 0.25
701 3.53263 5.15203 5.44628 0.25
702 5.76707 3.7217 4.44289 0.25
703 1.49525 0.219645 2.18959 0.25
704 7.58406 4.15874 8.40009 0.25
705 4.12899 5.75958 9.36147 0.25
706 7.48797 0.86491 7.5541 0.25
707 6.86743 6.66002 5.51588 0.25
708 5.64405 6.84655 3.41217 0.25
709 1.01767 4.45539 2.12476 0.5
710 1.37283 4.817 5.21617 0.25
711 6.48365 4.30398 7.92869 0.25
712 4.3823 8.80146 3.95416 0.25
713 1.59032 4.83371 3.41557 0.25
714 2.20608 10.1751 4.89479 0.25
715 2.37567 3.93714 7.91665 0.25
716 9.71223 9.05683 1.52701 0.25
717 3.87498 5.21153 5.11301 0.25
718 5.85918 3.23981 5.00448 0.5
719 5.80578 3.00655 5.70163 0.25
720 4.90844 1.70159 3.96792 0.25
721 3.22777 7.62762 6.18683 0.25
722 3.90785 5.31377 4.1451 0.25
723 6.33124 7.1953 6.51453 0.25
724 9.70623 0.509895 9.08873 0.25
725 3.79406 0.274372 6.11886 0.25
726 3.60101 5.65567 3.99898 0.25
727 4.00367 5.41684 4.65478 0.25
728 2.23706 7.48629 10.1876 0.5
729 8.24336 1.93926 6.11048 0.25
730 8.40033 1.07239 8.78383 0.25
731 1.85465 5.60912 10.244 0.25
732 4.06182 7.56753 6.43363 0.25
733 9.82645 2.4124 3.93464 0.25
734 8.47786 7.76486 3.92867 0.25
735 3.52028 2.40639 5.40752 0.25
736 8.57511 5.55226 6.98438 0.25
737 0.834268 4.72413 5.87589 0.25
738 5.15477 8.19036 8.45345 0.25
739 3.45412 3.66172 9.88856 0.25
740 8.81722 6.48596 1.43513 0.25
741 6.60359 2.43021 2.16338 0.25
742 4.90766 2.01443 0.498819 0.25
743 9.72069 2.832 4.08371 0.25
744 2.20412 2.90385 4.86538 0.5
745 0.519638 4.33523 6.00114 0.25
746 6.72111 5.25754 1.50603 0.25
747 7.50871 1.85511 0.171792 0.25
748 7.14359 9.98999 9.6 0.25
749 7.05085 4.03023 8.50145 0.25
750 4.1774 2.1187 6.61421 0.25
751 2.09114 2.67676 4.12344 0.25
752 9.55651 2.41009 4.30605 0.25
753 0.684926 2.17531 9.84029 0.5
754 8.05252 1.5957 5.74331 0.25
755 7.97148 2.78298 0.033807 0.25
756 4.99961 2.11039 1.3329 0.25
757 0.150303 2.63775 3.86597 0.5
758 1.87784 10.32 5.20234 0.25
759 5.12466 2.81391 8.03911 0.25
760 4.42402 1.55344 3.14436 0.25
761 6.34478 7.18363 6.03781 0.25
762 0.667261 3.53419 6.20518 0.25
763 6.39789 4.42235 4.71929 0.5
764 5.57471 6.09874 3.75954 0.25
765 7.23269 6.82768 8.40239 0.25
766 1.28982 5.04519 3.15301 0.25
767 7.39021 3.12485 2.84745 0.25
768 5.21413 2.58036 6.01214 0.5
769 0.818711 2.27893 0.169711 0.25
770 6.59973 6.56771 6.2456 0.5
771 6.49373 7.03349 0.179322 0.25
772 7.14793 9.4364 5.46039 0.5
773 6.11756 4.26216 10.2326 0.25
774 6.79372 8.52855 2.64544 0.25
775 0.0337281 7.77917 8.94687 0.25
776 4.07222 9.02115 0.409254 0.25
777 0.882776 8.24922 1.94349 0.25
778 4.18858 0.334906 9.07786 0.25
779 10.3138 7.85241 8.46891 0.25
780 5.07083 5.15234 10.1107 0.25
781 5.23081 6.86866 3.70203 0.25
782 9.50358 6.00816 1.15924 0.25
783 3.95138 8.67278 3.71451 0.25
784 2.97914 3.65279 9.96593 0.25
785 8.69172 9.01665 7.87766 0.25
786 6.50558 6.65918 5.17356 0.25
787 6.39658 7.135 5.14179 0.25
788 4.38643 1.61194 3.70015 0.25
789 6.81777 5.60984 2.98176 0.25
790 5.11559 2.29575 6.7114 0.25
791 8.61283 5.6436 6.49625 0.25
792 4.47417 3.49665 2.93229 0.5
793 0.170569 0.220411 9.16454 0.25
794 2.27372 2.06853 1.3163 0.25
795 1.55557 8.51324 7.50963 0.25
796 2.85882 10.1213 5.05008 0.5
797 9.53447 9.59797 3.57529 0.25
798 9.56159 4.92839 3.92354 0.25
799 3.3242 6.64646 2.01416 0.5
800 9.60015 0.896642 1.78655 0.25
801 5.95639 10.1069 9.99274 0.25
802 5.80444 7.09727 0.568564 0.25
803 9.45196 4.53749 9.46868 0.25
804 4.37656 5.18672 7.10836 0.25
805 9.27021 4.59192 4.57913 0.25
806 2.63099 9.39061 7.18522 0.25
807 3.93168 4.82752 5.46892 0.25
808 9.32076 5.07349 9.53214 0.25
809 1.5693 5.18265 9.63116 0.25
810 8.09948 2.04684 6.59316 0.25
811 9.03614 4.20893 9.53283 0.25
812 3.97597 6.35851 1.63908 0.25
813 1.35956 3.82209 2.34012 0.25
814 1.29764 9.54842 0.405296 0.25
815 3.32357 5.36017 4.69206 0.5
816 6.28814 0.115199 10.0445 0.25
817 4.22226 9.71253 0.670928 0.5
818 9.00706 5.87412 10.0441 0.25
819 3.93212 5.97353 1.37849 0.25
820 7.70685 4.09692 7.91231 0.25
821 8.09847 8.70505 7.45475 0.25
822 3.99921 3.69602 2.00224 0.25
823 1.96529 9.17064 7.56432 0.5
824 7.22027 4.7284 7.30189 0.25
825 8.21076 8.9754 6.34046 0.5
826 7.19275 3.2149 2.37556 0.25
827 8.87548 5.86762 7.29415 0.25
828 9.50072 3.76817 1.56011 0.25
829 1.37713 7.3888 5.00713 0.25
830 3.97161 6.4351 1.14725 0.25
831 2.54649 6.85643 1.99701 0.25
832 4.14021 5.37133 8.96073 0.25
833 5.86027 7.06412 6.67903 0.25
834 8.88475 4.59035 4.93322 0.25
835 1.47779 1.07625 7.33491 0.25
836 7.05343 4.62814 1.96397 0.25
837 3.92871 7.22773 8.8343 0.25
838 2.46468 9.78593 7.51751 0.25
839 0.114631 1.91783 3.66122 0.25
840 9.0844 4.85631 3.73993 0.25
841 5.5447 4.70031 0.0638824 0.5
842 6.78509 6.8824 8.63318 0.25
843 0.849033 9.12567 1.83428 0.25
844 6.94979 4.45372 1.51778 0.25
845 8.8225 4.48564 4.41558 0.25
846 0.992775 5.71899 4.3602 0.25
847 7.76569 2.10778 0.49607 0.25
848 2.72604 0.667565 9.75581 0.5
849 6.65387 5.87105 2.65017 0.25
850 4.57687 8.13827 3.48353 0.25
851 3.81933 6.74338 1.45363 0.25
852 5.06946 1.20631 4.11747 0.25
853 8.87028 10.3338 4.30416 0.25
854 2.20568 3.45206 8.07432 0.25
855 3.65516 5.98157 1.81875 0.25
856 9.94591 3.3352 7.80091 0.25
857 6.08362 4.02247 5.30175 0.25
858 7.81505 7.32094 4.19601 0.25
859 9.39309 0.849989 1.30498 0.25
860 3.10347 10.015 4.28501 0.25
861 3.57063 9.70986 1.6966 0.25
862 7.7425 0.935755 8.3166 0.5
863 0.645579 3.20738 9.52008 0.25
864 5.13597 3.90463 2.95356 0.25
865 0.444982 6.95311 5.01306 0.25
866 2.89426 1.3973 9.668 0.25
867 3.09714 8.21083 9.15648 0.25
868 9.115 1.30104 1.24007 0.25
869 0.996212 8.30477 5.42957 0.25
870 7.08348 6.50362 8.74647 0.25
871 6.95661 2.79695 2.06172 0.25
872 8.24914 1.16709 7.59538 0.5
873 5.41552 10.2994 5.33801 0.25
874 6.77992 10.0451 5.18693 0.25
875 3.41639 7.59809 5.29045 0.25
876 3.57829 6.29497 1.3797 0.25
877 0.493958 2.17528 4.43984 0.25
878 0.044832 0.165505 9.66111 0.25
879 0.608948 7.88944 4.83225 0.25
880 5.47708 3.90949 4.79309 0.25
881 4.03222 6.45934 8.86612 0.5
882 10.4137 0.0617516 5.90768 0.25
883 5.35264 3.02006 5.5235 0.25
884 2.35726 1.39803 1.58361 0.5
885 9.01387 9.68407 3.53794 0.25
886 9.24715 9.02909 1.38394 0.25
887 1.31864 6.32465 7.6063 0.25
888 1.10143 10.3348 2.0248 0.25
889 4.86311 4.95705 7.77285 0.25
890 0.700281 3.90328 5.86601 0.25
891 4.89815 3.91654 2.49529 0.25
892 6.74199 8.73958 3.14755 0.25
893 8.15109 2.79069 9.89267 0.25
894 2.0114 8.10685 0.180133 0.25
895 10.2846 3.71252 7.59479 0.25
896 9.57954 1.22223 1.0301 0.25
897 3.59545 7.57003 6.63993 0.25
898 0.99046 5.28206 4.85339 0.5
899 0.092301 1.14066 6.62359 0.25
900 8.9108 7.58135 3.68655 0.25
901 0.507277 8.322 5.48503 0.25
902 5.61466 1.70548 0.918312 0.25
903 8.54358 7.40597 4.84159 0.25
904 1.17991 6.03236 10.1573 0.5
905 8.88462 0.820853 1.25363 0.25