ITEM: TIMESTEP
730000
ITEM: NUMBER OF ATOMS
1000
ITEM: BOX BOUNDS xy xz yz pp pp pp
0.0000000000000000e+00 1.0357442000000001e+01 0.0000000000000000e+00
0.0000000000000000e+00 1.0357442000000001e+01 0.0000000000000000e+00
0.0000000000000000e+00 1.0357442000000001e+01 0.0000000000000000e+00
ITEM: ATOMS id x y z radius
1 1.19393 4.44294 2.8269 0.5
2 2.06371 7.72434 2.88374 0.5
3 5.5313 1.99838 0.894122 0.25
4 0.530255 2.55082 4.43914 0.25
5 10.0503 3.48993 7.95625 0.25
6 0.410512 2.79464 9.6276 0.25
7 4.13827 0.878669 3.2852 0.25
8 8.81817 3.65005 1.62432 0.25
9 9.88332 1.37084 1.67224 0.25
10 8.68906 7.64544 4.46789 0.25
11 9.13091 9.32641 0.743784 0.25
12 8.18714 2.32394 10.1365 0.25
13 3.73788 7.32192 6.06799 0.25
14 5.12299 2.58011 10.2625 0.25
15 8.5022 5.87441 6.38658 0.25
16 8.64069 8.36357 6.58482 0.25
17 5.13893 9.14851 8.38157 0.5
18 2.58531 8.65474 9.84079 0.25
19 6.93818 3.8775 4.96327 0.25
20 9.10951 0.975974 1.41531 0.25
21 0.40089 10.2038 9.746 0.25
22 4.3796 0.509837 3.41188 0.25
23 4.01184 3.83745 2.2133 0.25
24 2.79934 2.55053 4.17662 0.25
25 7.38625 1.99554 5.88948 0.25
26 5.36656 2.8668 8.15093 0.25
27 1.91863 8.29253 0.367019 0.25
28 8.79645 6.2456 6.51586 0.25
29 3.91034 7.69841 5.73606 0.25
30 0.818147 8.86645 7.18774 0.25
31 0.733813 6.94856 5.02506 0.25
32 8.88044 6.77924 1.48467 0.25
33 9.04421 9.19241 1.20819 0.25
34 1.06853 2.67593 10.0745 0.25
35 7.9028 1.97642 9.82177 0.25
36 8.22749 8.74561 9.40875 0.25
37 3.93352 5.24319 5.67709 0.25
38 7.26412 0.463079 0.567831 0.25
39 6.25006 3.95183 5.27015 0.25
40 8.63712 4.42493 4.39298 0.25
41 7.84658 7.4128 4.39952 0.25
42 6.91655 8.67217 2.13536 0.5
43 0.608794 8.5016 5.86797 0.25
44 3.14604 10.0987 4.31285 0.25
45 7.26078 6.49876 8.12255 0.25
46 1.04593 8.39272 7.26044 0.25
47 4.69048 8.15727 3.6865 0.25
48 3.40071 9.83086 4.64479 0.25
49 4.12785 5.98155 9.35849 0.25
50 10.2192 9.41199 3.01818 0.25
51 10.1666 8.82755 1.0823 0.25
52 6.05973 7.45431 0.0288837 0.25
53 6.92121 5.41975 1.85158 0.25
54 4.95893 5.06118 8.33316 0.25
55 5.97375 7.61365 6.57678 0.25
56 4.75818 1.65557 0.80091 0.25
57 5.29906 2.77054 0.298796 0.25
58 6.59293 4.39052 0.225648 0.25
59 3.96322 7.60094 9.05336 0.25
60 6.94628 6.75073 7.86573 0.25
61 3.18733 10.263 8.64512 0.25
62 9.29098 6.12321 6.51037 0.25
63 0.585976 5.48934 4.92086 0.25
64 10.3076 1.16231 1.72972 0.25
65 6.48549 6.96513 6.74065 0.25
66 4.21266 0.516732 2.96039 0.25
67 8.91522 5.00332 9.15241 0.25
68 6.03157 0.17771 10.3079 0.25
69 2.27978 7.51202 3.55996 0.25
70 4.13916 5.61975 4.18128 0.25
71 1.35639 7.85801 2.65918 0.25
72 5.73825 6.77454 3.65389 0.25
73 8.77805 8.46271 7.42087 0.5
74 2.18387 7.04524 3.31278 0.25
75 0.80706 5.83964 0.644119 0.25
76 1.6978 7.88497 0.0856733 0.25
77 6.80838 6.67638 8.30803 0.25
78 4.68083 9.48723 1.60743 0.25
79 0.979844 5.41158 9.79781 0.25
80 8.18882 8.62293 9.86906 0.25
81 8.23867 9.48316 7.21095 0.25
82 2.19385 0.611589 1.91437 0.25
83 1.9883 8.38386 2.6485 0.25
84 5.2608 9.60476 5.35151 0.25
85 3.93803 6.47856 1.84372 0.25
86 9.63377 4.29106 1.91669 0.5
87 1.59437 5.31858 8.44161 0.25
88 2.94452 3.84858 8.32208 0.25
89 0.742038 10.2351 10.1363 0.25
90 7.03969 0.185864 1.7203 0.5
91 4.95761 7.71158 3.47585 0.25
92 9.79969 0.790616 1.09028 0.25
93 8.36521 1.126 8.22458 0.25
94 0.831586 4.55474 2.0685 0.25
95 7.73555 8.98996 5.56499 0.25
96 7.79007 1.29983 6.98957 0.25
97 5.69922 9.84692 5.40258 0.25
98 10.3231 0.688237 6.02923 0.25
99 5.2021 2.15011 8.12539 0.5
100 5.74842 2.6513 5.41392 0.25
101 5.36751 2.30897 9.60144 0.5
102 4.21425 5.2736 8.43631 0.5
103 6.67306 0.635017 1.13827 0.25
104 1.40145 10.3283 9.63896 0.25
105 2.08478 4.88116 3.4033 0.25
106 5.73982 6.7804 6.41438 0.25
107 5.8095 10.2407 8.2252 0.25
108 1.5096 3.49423 2.20849 0.25
109 7.32913 2.70979 2.90237 0.25
110 5.72212 10.0355 5.84257 0.25
111 1.69973 5.72631 0.299817 0.25
112 3.40914 5.23002 5.72411 0.25
113 2.24185 0.148967 4.62773 0.25
114 8.24944 6.18127 0.341906 0.25
115 4.81541 3.87437 3.13402 0.25
116 0.325486 1.86315 3.49135 0.25
117 7.10117 2.31103 2.26202 0.5
118 7.36539 8.23588 2.39479 0.25
119 9.92726 2.39899 4.28397 0.25
120 1.67636 5.6769 10.1687 0.25
121 7.86326 2.18616 5.31454 0.5
122 1.94346 4.22806 2.69223 0.25
123 9.54583 8.54626 0.577061 0.25
124 8.18602 6.08078 0.852062 0.25
125 1.53152 10.1283 4.86868 0.25
126 6.12491 7.27909 0.475794 0.25
127 5.98983 7.75021 0.459796 0.25
128 9.46565 9.42804 3.94899 0.25
129 1.78128 5.30035 3.42675 0.25
130 9.89293 8.3915 0.904871 0.25
131 7.70693 2.59717 2.61656 0.25
132 8.51765 4.80393 4.64322 0.25
133 8.07526 9.08905 9.76495 0.25
134 4.35855 3.47882 2.00901 0.25
135 6.08382 9.47576 8.32677 0.5
136 8.25406 8.9429 7.05465 0.25
137 1.50945 9.62412 1.81202 0.25
138 7.1258 4.12665 4.53491 0.25
139 7.15742 4.55314 7.79718 0.5
140 4.47569 8.56441 3.769 0.25
141 2.76109 1.81823 2.25589 0.25
142 2.88252 2.75638 5.07085 0.25
143 8.09154 1.67048 3.36583 0.25
144 9.80059 6.6491 2.54879 0.25
145 3.80733 7.82657 6.211 0.25
146 7.46817 9.40861 2.88736 0.25
147 3.68803 5.8569 4.20662 0.25
148 3.32038 1.51887 10.115 0.25
149 10.1879 7.1952 8.96999 0.25
150 4.63821 4.97669 7.92623 0.25
151 6.72739 9.86078 9.90963 0.25
152 4.56496 9.16691 1.23366 0.25
153 5.26162 1.85567 7.39253 0.25
154 5.51167 9.48933 7.85291 0.25
155 3.54225 6.26997 0.97699 0.25
156 0.680624 8.63373 7.61317 0.25
157 5.49053 1.21769 2.97358 0.25
158 8.82195 9.19504 6.58005 0.25
159 3.30614 2.7009 5.32712 0.25
160 2.7145 3.4561 8.18067 0.25
161 3.42011 10.3628 9.14856 0.25
162 4.07976 2.05217 5.80061 0.5
163 6.66536 10.1631 2.29297 0.25
164 5.05928 8.37126 8.16677 0.25
165 0.758039 2.98669 9.81209 0.25
166 6.43659 4.16752 7.02673 0.25
167 9.45354 9.93286 4.09726 0.25
168 10.2178 7.9314 9.35079 0.25
169 9.4743 6.70149 7.12216 0.25
170 3.12046 0.442607 7.97852 0.25
171 0.963713 8.77835 7.99102 0.25
172 9.69093 5.94445 6.82449 0.25
173 0.988204 1.57392 4.16563 0.25
174 4.70748 1.85266 6.16445 0.25
175 9.84729 3.02436 7.81663 0.25
176 0.445981 6.14488 0.447087 0.25
177 9.6084 5.90989 7.31629 0.25
178 7.53895 1.49847 5.11262 0.25
179 2.67999 9.4743 7.53025 0.25
180 7.62396 9.31573 2.17619 0.5
181 0.889336 3.92831 5.78872 0.25
182 7.65113 1.58667 3.68829 0.25
183 2.53357 9.56978 4.57145 0.25
184 8.78019 5.28716 9.53413 0.25
185 8.92274 8.77571 6.39567 0.25
186 2.92934 7.88033 10.0372 0.25
187 3.00922 3.42561 0.437013 0.25
188 5.15056 2.36797 7.45075 0.25
189 9.97677 1.02482 6.08874 0.25
190 2.42752 7.08562 3.73717 0.25
191 5.44993 2.84464 9.0579 0.25
192 8.70247 9.16043 7.13755 0.25
193 5.3125 2.45074 8.8368 0.25
194 4.29911 9.67415 1.40525 0.25
195 4.99563 4.98516 9.93636 0.25
196 5.59575 2.74161 10.2674 0.25
197 8.88936 5.84449 7.09168 0.5
198 7.337 1.86017 7.09079 0.5
199 6.7427 10.3338 9.81179 0.25
200 7.32388 1.01168 6.34802 0.25
201 5.97592 7.12454 6.66258 0.25
202 3.91125 8.05055 5.35769 0.25
203 4.25188 9.5917 0.263202 0.25
204 0.216339 3.3361 6.2416 0.25
205 4.04965 10.2437 6.3927 0.25
206 0.771217 1.8075 3.75914 0.25
207 1.12716 5.28745 3.94274 0.5
208 4.10588 4.92706 6.04441 0.25
209 7.37552 9.8623 2.61046 0.25
210 3.9879 0.361126 6.32342 0.25
211 1.85215 4.71964 2.61128 0.25
212 0.263848 3.92571 1.95461 0.5
213 8.87726 4.11997 1.66755 0.25
214 3.30377 4.85067 6.06744 0.25
215 9.76978 0.119949 8.69285 0.25
216 4.90686 1.89383 0.357523 0.25
217 0.771303 8.00974 6.04092 0.25
218 2.20019 1.32094 2.02165 0.5
219 0.571882 4.03669 6.18742 0.25
220 6.97594 9.42562 1.9602 0.25
221 8.86031 7.238 4.46297 0.25
222 9.13113 6.53006 6.76697 0.25
223 5.60817 9.5667 4.99603 0.25
224 10.1194 3.76176 7.57682 0.25
225 8.34376 1.63024 5.50493 0.25
226 6.48891 9.07988 4.91445 0.25
227 7.20316 0.592931 1.0527 0.25
228 5.31252 2.43259 0.727467 0.25
229 2.27315 2.45312 1.78111 0.25
230 8.06833 6.93599 4.46476 0.25
231 7.36292 3.90141 6.85435 0.25
232 7.13432 9.92157 2.14325 0.25
233 8.03002 1.85632 9.06691 0.5
234 3.87065 9.0161 1.64862 0.25
235 1.08714 8.31824 7.77509 0.25
236 1.7061 5.33881 0.568986 0.25
237 8.07224 1.28917 3.68831 0.25
238 1.22719 5.81353 4.39693 0.25
239 10.3445 3.01136 9.65863 0.25
240 1.62371 8.89619 2.18652 0.5
241 1.94933 9.5714 2.02642 0.25
242 3.46796 7.87852 6.55291 0.25
243 1.1627 6.0992 0.907284 0.25
244 1.41111 1.12148 7.10855 0.25
245 6.3676 7.44634 6.79243 0.25
246 2.11262 8.15994 10.3317 0.25
247 2.6216 7.80313 3.3584 0.25
248 5.63594 2.712 8.55184 0.25
249 6.70606 3.7829 4.50559 0.25
250 7.53476 1.37179 6.57134 0.25
251 1.11246 1.68234 6.82758 0.25
252 6.92503 6.70984 9.3268 0.25
253 4.08772 7.35359 8.60462 0.25
254 1.24509 9.99207 1.97297 0.25
255 2.25852 0.564697 2.34677 0.25
256 3.26373 5.17542 4.36368 0.25
257 0.898748 10.2489 9.67069 0.25
258 4.74067 5.44911 7.2664 0.25
259 1.73883 0.157577 4.56503 0.25
260 1.18612 0.0535857 0.0503858 0.25
261 6.75907 7.16843 8.09472 0.25
262 5.35305 6.58596 3.89307 0.25
263 8.02974 8.3247 9.49278 0.25
264 7.37618 9.43353 9.63866 0.5
265 4.06653 3.50184 2.99586 0.25
266 4.00874 3.85016 3.41593 0.25
267 3.62939 7.26826 5.58815 0.25
268 3.37764 7.52636 6.27095 0.25
269 7.80629 9.44407 5.76806 0.25
270 3.23881 7.24125 5.95568 0.25
271 4.29885 9.6693 1.93718 0.25
272 6.80623 6.78344 5.46264 0.25
273 9.48816 3.79847 6.84759 0.25
274 3.71824 4.59573 6.23038 0.25
275 0.200882 6.73586 2.24348 0.25
276 8.16679 0.795099 8.59199 0.25
277 2.79776 10.089 8.02161 0.5
278 4.2731 6.00559 8.44378 0.25
279 2.67745 0.0105466 8.71445 0.25
280 3.61905 0.424327 9.22295 0.25
281 4.57994 7.901 3.33919 0.25
282 4.78815 1.56585 3.13396 0.25
283 9.85557 0.74597 9.12833 0.25
284 1.94886 5.393 0.108801 0.25
285 8.39778 6.65852 1.53347 0.25
286 10.1716 1.54789 2.05401 0.25
287 1.52037 8.33887 2.76706 0.25
288 1.06564 5.47395 4.73905 0.25
289 9.09623 1.34641 1.0652 0.25
290 8.68211 3.89876 2.09736 0.25
291 8.03679 2.43391 9.67816 0.25
292 4.27322 9.22857 1.63165 0.25
293 4.64805 2.6528 6.97977 0.5
294 10.2923 6.62658 2.66924 0.25
295 7.08837 0.941876 7.01335 0.5
296 2.7809 2.91026 4.57764 0.25
297 0.487621 8.0993 5.60708 0.25
298 4.65185 9.60123 1.02898 0.25
299 9.11375 5.16521 9.91781 0.25
300 1.77855 9.6658 4.86199 0.25
301 4.65803 8.3158 7.90371 0.25
302 5.12997 5.05847 7.84329 0.25
303 8.59256 5.58736 10.245 0.5
304 4.83878 3.91181 2.58677 0.25
305 1.63698 8.12728 2.37715 0.25
306 0.071807 7.48377 9.29564 0.25
307 1.21637 10.0573 10.0186 0.25
308 8.96385 5.79516 6.31933 0.25
309 8.28522 1.61065 8.31689 0.25
310 6.58136 6.58797 6.3609 0.25
311 2.32646 0.398698 1.57086 0.25
312 8.90029 0.852727 8.64437 0.5
313 1.16191 7.80842 2.21797 0.25
314 0.704283 3.84664 2.58917 0.25
315 2.92932 0.557549 9.13518 0.5
316 6.45585 4.43957 7.45696 0.25
317 6.24432 10.2055 8.46802 0.25
318 10.1961 7.6668 9.71112 0.25
319 10.2566 9.37755 3.48264 0.25
320 0.626559 2.91802 0.417561 0.25
321 2.28223 2.06862 2.16723 0.25
322 0.533546 7.0353 4.56464 0.25
323 6.30412 10.1756 9.23498 0.5
324 6.76422 2.02206 2.89687 0.25
325 9.12723 3.86345 1.95319 0.25
326 3.18427 10.2965 4.78515 0.25
327 1.17511 9.2026 7.33894 0.25
328 4.64796 3.5134 2.82636 0.25
329 8.40121 7.24355 3.88922 0.5
330 10.2224 6.73832 1.84653 0.25
331 9.89603 10.0522 4.24107 0.25
332 6.6044 7.37476 0.598759 0.25
333 9.82741 7.94211 9.03867 0.25
334 6.87433 5.00478 1.5415 0.25
335 6.22154 4.27382 0.566391 0.25
336 9.20935 3.83385 1.46373 0.25
337 4.6913 5.85686 8.6956 0.25
338 7.60173 8.51183 2.06137 0.25
339 3.81863 5.854 8.67197 0.25
340 0.761716 2.9943 10.3042 0.25
341 3.3797 5.59987 4.49117 0.25
342 9.48528 3.36623 7.15323 0.25
343 10.1589 1.71816 3.62927 0.25
344 4.26361 1.00738 2.76708 0.25
345 6.36919 4.70216 10.2125 0.25
346 1.85579 1.7072 7.75819 0.25
347 3.00321 4.13855 0.0666153 0.25
348 5.85546 7.44967 0.837425 0.25
349 4.93631 1.57817 7.69404 0.25
350 2.29151 3.51337 7.98571 0.25
351 5.80734 7.25866 3.68081 0.25
352 8.24289 6.26956 1.77044 0.25
353 9.64239 3.83639 7.30701 0.25
354 9.85813 3.52632 2.16158 0.25
355 2.44298 1.29682 1.27545 0.25
356 4.67489 9.15131 0.770781 0.25
357 3.16701 4.4527 6.28186 0.25
358 4.569 9.66627 0.546818 0.25
359 8.63585 6.70139 0.774248 0.5
360 4.06516 0.122227 6.81121 0.25
361 0.21206 0.573214 6.47335 0.25
362 9.76709 7.90629 9.56375 0.25
363 7.33615 2.94822 2.49573 0.25
364 10.1332 6.41832 2.28086 0.25
365 6.10362 9.35176 4.80827 0.25
366 8.91969 4.33684 2.07907 0.25
367 3.27982 0.66328 8.40224 0.25
368 9.83582 6.34663 7.13395 0.25
369 9.23954 4.40363 4.6816 0.5
370 4.79417 1.53928 6.89958 0.5
371 9.51203 6.60012 1.88736 0.5
372 1.2074 2.29652 4.12426 0.5
373 3.3999 0.16187 8.25392 0.25
374 3.45063 0.280673 8.73857 0.25
375 5.12819 1.45775 2.76904 0.25
376 0.722631 5.62113 4.4518 0.25
377 9.97269 7.49832 9.28336 0.25
378 9.98621 8.83795 0.63342 0.25
379 0.133247 3.8206 6.19565 0.25
380 1.9608 2.05294 4.18115 0.25
381 6.70739 4.90007 2.31154 0.5
382 2.44276 7.79295 10.2371 0.25
383 5.48217 8.47375 8.45055 0.25
384 1.37898 6.54901 7.39259 0.25
385 1.02002 6.88271 4.56676 0.25
386 1.85961 5.45891 7.61513 0.25
387 1.41131 5.72643 7.54804 0.25
388 2.18343 2.24063 1.34233 0.25
389 5.2204 1.61568 0.642621 0.25
390 2.83877 3.71875 10.3765 0.25
391 4.23627 0.085716 6.00733 0.25
392 0.980277 5.59635 5.21542 0.25
393 9.09994 8.48613 6.73501 0.25
394 0.1465 0.279107 6.12034 0.25
395 1.87181 4.53698 3.09904 0.25
396 3.40637 0.283436 9.6537 0.25
397 6.92775 2.45619 3.00869 0.25
398 9.72133 5.03276 9.43931 0.25
399 2.27806 9.79084 7.55064 0.25
400 7.86945 2.49539 0.111996 0.25
401 5.31754 7.08586 3.67701 0.25
402 4.24093 5.91142 8.90665 0.25
403 5.80311 4.5171 0.522194 0.25
404 7.94296 3.47383 10.3452 0.25
405 1.32682 5.69575 0.68616 0.25
406 6.48778 9.53367 5.06206 0.25
407 6.92323 7.11094 8.57271 0.25
408 9.20848 8.8801 0.886707 0.25
409 10.063 7.05237 2.83338 0.25
410 5.27725 1.44323 4.22604 0.25
411 7.31236 8.64512 9.79174 0.25
412 4.79421 2.04398 7.48218 0.25
413 6.8331 2.81898 2.69296 0.25
414 6.91929 5.42241 2.77643 0.25
415 4.8972 0.751678 2.96941 0.5
416 10.0885 0.452262 8.81311 0.25
417 3.27252 7.9109 5.77275 0.5
418 0.72285 0.960855 6.8298 0.5
419 9.63853 0.0504756 4.00862 0.25
420 5.4389 8.63017 7.92255 0.25
421 9.01887 6.52978 7.22392 0.25
422 2.54602 7.13491 2.88145 0.25
423 1.7768 4.99545 3.01028 0.25
424 0.210655 0.279092 9.56631 0.25
425 2.23131 9.70969 4.98486 0.25
426 2.13888 1.71181 1.35867 0.25
427 7.0964 1.4676 6.39495 0.25
428 7.53347 10.1306 2.23324 0.25
429 5.31815 9.04292 7.60126 0.25
430 9.80517 9.54258 2.81165 0.25
431 6.90166 0.236061 0.931368 0.25
432 2.8989 8.26806 9.7999 0.25
433 2.94479 2.38344 5.28269 0.25
434 5.77081 10.033 8.66378 0.25
435 0.274746 2.91386 9.18465 0.25
436 6.24517 5.11 0.169744 0.25
437 0.834698 5.76526 10.0346 0.25
438 7.78391 0.978309 6.59018 0.25
439 9.77602 9.96333 3.43615 0.5
440 2.2902 2.79 7.90073 0.5
441 0.917842 4.09609 2.21165 0.25
442 6.69039 7.86008 0.617904 0.25
443 9.80769 9.272 3.69837 0.25
444 1.08387 3.70861 1.94912 0.25
445 5.63132 7.08054 3.24939 0.25
446 8.39973 4.79953 4.14414 0.25
447 5.8359 5.02454 0.455496 0.25
448 4.71424 1.16179 3.76137 0.5
449 0.0770804 0.999731 6.3873 0.25
450 2.29775 0.823762 1.49741 0.25
451 3.69543 3.68349 -0.029884 0.25
452 5.69635 4.31329 4.70543 0.25
453 7.58643 4.17352 8.15929 0.25
454 1.39085 5.79438 8.41206 0.25
455 1.10787 5.75725 7.95144 0.25
456 2.08414 1.99686 1.77753 0.25
457 9.75247 9.45775 1.09897 0.5
458 1.87556 5.85677 7.25701 0.25
459 0.680329 1.69482 7.08025 0.25
460 2.27872 6.17034 7.2634 0.25
461 3.63877 6.7647 1.18499 0.25
462 3.55923 6.73693 1.64753 0.25
463 1.84234 0.144483 5.04909 0.25
464 9.89679 0.896174 1.57803 0.25
465 6.89613 5.69061 2.30146 0.25
466 4.89515 5.7165 7.9392 0.5
467 3.17445 4.79153 5.60275 0.25
468 2.70506 1.14126 1.65125 0.25
469 4.46624 3.907 2.19912 0.25
470 3.77991 3.61554 2.62868 0.25
471 2.99423 9.61262 4.37628 0.25
472 1.89559 2.47828 7.35901 0.25
473 2.64127 7.81271 9.68134 0.25
474 9.07192 4.02195 2.43169 0.25
475 8.59595 6.49626 3.81462 0.25
476 3.4316 6.26157 1.83576 0.25
477 9.80223 9.27177 3.22575 0.25
478 8.82286 6.03258 1.29204 0.5
479 6.46261 0.299429 0.799756 0.25
480 2.47499 8.19481 9.97669 0.25
481 4.28094 8.81044 1.45494 0.25
482 6.56569 9.92723 5.3874 0.25
483 6.74629 0.00960046 0.167907 0.5
484 9.77596 3.43193 7.53615 0.25
485 8.25939 3.14228 10.2294 0.25
486 4.56076 8.44653 3.31706 0.25
487 2.86592 3.88706 0.453203 0.25
488 7.25292 9.80362 1.69485 0.25
489 9.11995 7.34973 3.64566 0.25
490 2.76307 3.0627 8.47177 0.25
491 8.66177 8.79922 6.78336 0.25
492 7.67495 2.36714 10.004 0.25
493 9.89012 3.07067 7.30394 0.25
494 8.51789 4.34047 4.90403 0.25
495 10.2432 3.26323 7.60303 0.25
496 4.28124 1.58276 6.33239 0.25
497 3.53644 4.16345 0.0144773 0.25
498 8.56212 1.30123 9.08953 0.25
499 3.85397 9.55962 1.65371 0.25
500 4.41617 7.32598 8.9711 0.25
501 2.76136 0.027991 4.53666 0.25
502 9.40794 5.63801 6.49891 0.25
503 7.14058 8.44844 2.80717 0.25
504 6.41508 7.68542 0.274436 0.25
505 7.7366 1.3295 5.83918 0.5
506 5.68543 10.2789 5.38306 0.25
507 7.52311 8.659 2.54047 0.25
508 4.56119 8.72402 8.74917 0.25
509 1.49948 8.43582 7.48789 0.25
510 5.77266 4.20652 5.18694 0.25
511 4.45005 0.175804 6.48099 0.25
512 1.88276 5.00697 3.81734 0.25
513 1.50088 5.35003 9.84745 0.25
514 3.6686 1.92941 5.17318 0.25
515 1.81655 1.84417 7.00787 0.5
516 6.06167 9.3354 5.51672 0.5
517 8.97221 6.87551 3.71534 0.25
518 3.01357 0.600566 9.84859 0.25
519 2.67309 10.0032 4.23284 0.25
520 5.13726 2.12627 7.02999 0.25
521 1.13993 4.35209 5.67586 0.25
522 2.45325 10.0223 4.65364 0.25
523 2.67984 3.4114 7.69492 0.25
524 8.48377 2.34356 5.01374 0.25
525 1.83606 6.80531 7.47279 0.25
526 1.86286 5.67273 8.57948 0.25
527 6.73236 9.53324 2.65584 0.5
528 7.73842 8.99373 2.92431 0.25
529 3.46918 5.73687 1.90298 0.25
530 1.38779 8.20605 1.99215 0.25
531 0.0278253 2.55968 9.4791 0.25
532 2.0039 8.68431 0.141376 0.25
533 9.14805 9.72019 3.7807 0.25
534 8.88358 4.89999 4.26318 0.25
535 7.16924 6.44663 9.0139 0.25
536 4.30794 9.91276 0.945666 0.25
537 7.31561 1.30963 3.49059 0.25
538 7.57225 3.98492 7.32678 0.25
539 10.179 3.5568 6.86514 0.5
540 6.25379 10.1376 7.97952 0.25
541 9.65622 8.8057 0.966053 0.25
542 7.40746 8.72075 5.77549 0.25
543 9.25268 4.3045 4.00011 0.25
544 1.3735 2.33583 7.38727 0.25
545 0.129386 9.73994 3.27271 0.25
546 0.25804 0.0680934 6.53194 0.25
547 9.49341 3.57478 1.78397 0.25
548 9.31397 4.76028 9.2375 0.25
549 2.53834 0.26128 2.01052 0.25
550 9.52009 9.07382 0.523206 0.25
551 2.75442 7.4869 3.74889 0.25
552 9.1047 8.95932 6.88557 0.25
553 5.59953 2.98779 5.80822 0.25
554 8.84041 4.55876 3.96917 0.25
555 5.74672 9.04916 7.85989 0.25
556 1.43505 8.67924 7.93672 0.25
557 2.71824 9.88869 7.22142 0.25
558 2.72195 3.51912 8.68138 0.25
559 9.37441 0.227553 8.43338 0.25
560 3.69871 4.83207 5.72624 0.25
561 0.858514 4.15677 1.69852 0.25
562 5.20314 5.42069 9.89363 0.25
563 5.82983 9.87779 7.81773 0.25
564 1.55825 1.336 7.5325 0.25
565 2.58741 0.734387 1.93755 0.25
566 9.68238 6.47362 6.68404 0.25
567 0.778068 6.30261 0.678292 0.25
568 8.04869 1.48094 5.11815 0.25
569 6.87528 3.80928 7.4647 0.5
570 4.71341 3.51673 2.36773 0.25
571 3.63647 3.75491 3.08462 0.25
572 8.61879 1.6048 8.68954 0.25
573 1.23694 6.96747 4.99441 0.25
574 0.243273 0.3771 6.93463 0.25
575 5.65053 3.85952 4.48711 0.25
576 5.0576 2.05454 0.775774 0.25
577 0.371186 7.82755 5.1681 0.25
578 1.13425 5.2703 0.108723 0.5
579 5.25412 5.33318 7.38368 0.25
580 7.91822 6.67936 4.05931 0.25
581 7.43284 7.13279 8.61832 0.25
582 7.18116 4.34109 4.93641 0.25
583 8.63423 5.41305 6.4915 0.25
584 5.77126 6.54674 3.2474 0.25
585 6.77299 0.672962 0.702903 0.25
586 1.73455 2.28283 4.65451 0.25
587 6.11347 10.0537 5.5606 0.25
588 2.99544 1.36137 9.33062 0.25
589 9.96551 3.66351 1.68128 0.25
590 9.12171 7.09903 4.09174 0.25
591 3.77406 2.46751 5.24815 0.25
592 6.51807 5.67126 2.60407 0.25
593 5.47091 9.63388 5.80651 0.25
594 8.68353 6.22996 0.155472 0.25
595 1.74339 2.19825 7.73402 0.25
596 9.32946 8.82394 1.38198 0.25
597 4.64094 1.36754 2.73793 0.25
598 6.48784 7.15719 0.131239 0.25
599 9.8792 1.12004 2.09289 0.25
600 4.47275 9.28008 2.08057 0.25
601 7.12518 10.2421 2.4761 0.25
602 6.63613 8.29732 2.77356 0.25
603 2.23349 6.61465 7.5396 0.25
604 8.97951 0.550432 1.19688 0.25
605 1.60679 7.60676 2.27125 0.25
606 1.38281 1.86756 7.57534 0.25
607 2.19046 2.09643 7.59131 0.25
608 6.02108 6.19301 5.97574 0.5
609 4.06554 6.75682 1.47127 0.25
610 6.43134 4.87284 0.912138 0.5
611 8.03398 8.64483 7.35808 0.25
612 9.27296 10.2915 4.69031 0.5
613 8.40314 2.75106 9.93307 0.25
614 9.15955 7.02812 1.3099 0.25
615 6.4509 4.24665 7.92237 0.25
616 1.19828 1.54819 7.23958 0.25
617 2.3201 3.32116 8.49529 0.25
618 7.86926 3.01926 0.149782 0.25
619 1.54749 9.65623 2.30066 0.25
620 6.92112 5.92078 2.77773 0.25
621 6.36851 4.85513 1.66069 0.25
622 7.59995 6.72686 8.88825 0.25
623 7.88002 4.36604 4.59039 0.5
624 4.67247 8.63537 8.26252 0.25
625 4.93725 2.14304 10.24 0.25
626 2.38719 2.76101 4.32482 0.25
627 6.45955 5.30973 2.87972 0.25
628 1.56198 0.064746 10.1237 0.25
629 7.15765 10.0919 9.95199 0.25
630 5.75877 6.99372 0.710086 0.25
631 8.59306 2.09394 5.46395 0.25
632 3.29267 3.78529 0.229666 0.25
633 3.25146 3.80694 10.1016 0.25
634 4.42148 8.00481 8.55388 0.5
635 9.41664 6.24806 6.99405 0.25
636 8.5935 4.9837 9.89027 0.25
637 6.50002 9.46149 4.55078 0.25
638 2.57707 10.3432 5.25182 0.5
639 6.88916 3.0482 2.31402 0.25
640 7.48311 1.67895 7.73755 0.25
641 3.32629 5.51277 4.03777 0.25
642 3.31287 7.13177 6.40822 0.25
643 3.28751 1.73776 9.61152 0.25
644 6.08289 10.0722 4.77668 0.5
645 3.53939 3.44784 0.432709 0.25
646 8.35782 6.55888 4.27208 0.25
647 6.7037 6.51186 5.88526 0.25
648 7.14407 1.30495 7.6557 0.25
649 4.58156 6.14747 9.10344 0.25
650 7.7536 1.28204 3.29027 0.25
651 4.96279 8.72025 7.81123 0.25
652 1.10499 5.36788 8.31808 0.25
653 0.626504 4.36712 5.80269 0.25
654 1.45165 6.09332 7.24543 0.25
655 10.0944 4.02978 1.41977 0.25
656 4.80042 5.04895 7.46 0.25
657 8.40825 9.32418 6.77858 0.25
658 7.57544 3.8487 7.79676 0.25
659 9.63926 9.64326 4.42385 0.25
660 1.8154 6.15411 7.93604 0.5
661 2.60149 7.31973 3.32595 0.25
662 7.50478 9.11974 6.03836 0.25
663 3.64185 0.710923 8.83011 0.25
664 0.986975 2.62485 0.200756 0.25
665 8.13291 6.43644 1.26538 0.25
666 5.46689 9.84685 8.22959 0.25
667 7.77579 3.20018 10.0085 0.25
668 7.24636 1.74725 5.46058 0.25
669 3.24316 7.86536 9.25722 0.5
670 0.45715 3.24306 9.53343 0.25
671 0.889599 6.24298 4.85079 0.5
672 5.8764 6.7704 5.49542 0.25
673 4.68481 8.98781 1.70826 0.25
674 7.16869 4.64492 4.55792 0.25
675 7.86503 9.12461 7.32585 0.25
676 5.61265 2.03881 0.198568 0.5
677 9.33692 3.60749 7.62114 0.25
678 9.90604 0.361928 6.5406 0.5
679 2.33392 2.39592 7.18355 0.25
680 3.04734 7.52708 3.33798 0.25
681 7.91611 9.30081 6.85648 0.25
682 3.72002 7.57477 5.2559 0.25
683 0.865229 2.53128 9.63387 0.25
684 1.22279 9.14313 7.85602 0.25
685 9.2163 10.3008 3.80973 0.25
686 6.81779 9.84663 4.86069 0.25
687 9.41492 3.09296 7.56738 0.25
688 5.37293 7.2952 0.843278 0.25
689 2.31745 2.36473 4.00451 0.25
690 9.74756 7.45212 8.86271 0.25
691 0.954547 8.2607 5.60882 0.25
692 1.00641 4.26405 6.1524 0.25
693 9.47956 2.21908 4.2394 0.25
694 3.28266 3.77733 0.733117 0.25
695 8.53293 1.81889 5.08404 0.25
696 5.49592 1.02528 3.42694 0.25
697 1.17133 8.78606 7.57368 0.25
698 8.55792 5.95815 0.578273 0.25
699 4.00909 8.12762 5.81859 0.25
700 5.67971 7.16643 1.21349 0.25
701 3.40794 4.4119 5.8436 0.25
702 6.16919 3.72583 4.5133 0.25
703 1.85288 0.714921 1.63825 0.25
704 7.18792 4.13189 8.48044 0.25
705 3.7451 6.00777 9.11354 0.25
706 7.56855 1.24235 7.44924 0.25
707 6.31478 6.84397 5.22853 0.25
708 5.32551 6.68531 3.3914 0.25
709 1.58352 4.30664 2.01208 0.5
710 0.989495 4.75038 5.94855 0.25
711 6.83811 4.52725 7.15536 0.25
712 4.95907 8.16232 3.26059 0.25
713 1.58304 4.83179 3.42638 0.25
714 1.99688 10.1332 4.82821 0.25
715 3.14599 3.39491 8.39274 0.25
716 9.76879 8.6184 1.38635 0.25
717 3.05114 4.26684 5.52396 0.25
718 5.77675 3.35097 5.13388 0.5
719 5.32761 2.6023 5.07008 0.25
720 5.44967 1.03623 3.91463 0.25
721 2.91607 7.38199 6.30757 0.25
722 4.12641 5.25377 4.5179 0.25
723 5.66052 7.28245 6.33646 0.25
724 9.62301 0.597097 8.7103 0.25
725 3.65248 0.141776 6.55788 0.25
726 3.72327 5.34106 4.25819 0.25
727 3.88293 5.70731 4.61304 0.25
728 2.72223 8.42524 0.210009 0.5
729 7.85935 2.01588 6.06875 0.25
730 8.25621 1.25436 8.68301 0.25
731 1.30428 5.80729 9.86568 0.25
732 3.69328 7.41511 6.62892 0.25
733 9.83645 1.8758 4.41898 0.25
734 8.53637 6.88877 4.5607 0.25
735 3.40938 2.21626 5.47663 0.25
736 8.35871 6.18769 6.78136 0.25
737 0.761164 4.13925 5.3792 0.25
738 4.99299 8.44354 8.59871 0.25
739 3.26348 4.19511 0.457511 0.25
740 8.73795 6.49747 1.84934 0.25
741 7.71954 2.78206 2.1696 0.25
742 4.96907 2.40968 0.351386 0.25
743 9.96011 1.51243 4.09311 0.25
744 2.50323 2.15893 4.69654 0.5
745 0.372626 3.94037 5.74856 0.25
746 6.65719 4.54438 1.55531 0.25
747 7.5797 2.22898 9.55055 0.25
748 7.01078 10.0062 9.50671 0.25
749 6.76808 4.08113 8.22303 0.25
750 4.4093 2.05988 6.51754 0.25
751 1.84058 2.35902 3.81626 0.25
752 9.86202 1.99354 3.95471 0.25
753 0.318137 2.46072 10.1865 0.5
754 8.32206 1.89625 5.87929 0.25
755 7.9645 2.77088 10.0923 0.25
756 5.2002 1.66713 1.09332 0.25
757 0.252903 1.87365 4.22106 0.5
758 1.88793 10.026 5.26085 0.25
759 4.87435 2.82418 8.12619 0.25
760 4.86828 0.397243 3.62293 0.25
761 5.62158 6.89519 5.93921 0.25
762 0.543173 3.63843 6.50219 0.25
763 6.4679 4.42816 4.76956 0.5
764 6.08947 6.97228 3.34283 0.25
765 6.77108 6.69539 8.83164 0.25
766 1.35035 5.15226 3.12608 0.25
767 6.49549 2.71418 2.32521 0.25
768 5.20175 2.27247 5.80132 0.5
769 0.310582 3.09751 0.162059 0.25
770 6.3225 7.15762 6.03451 0.5
771 5.49393 7.75701 0.647214 0.25
772 7.11199 9.33587 5.44488 0.5
773 6.14612 4.25956 0.0168307 0.25
774 7.24015 8.94104 2.78469 0.25
775 10.1897 7.72184 8.85403 0.25
776 4.57806 9.21701 0.303851 0.25
777 1.17063 8.26006 2.42567 0.25
778 2.97581 0.305421 8.43791 0.25
779 10.1456 7.41913 8.49226 0.25
780 5.30724 5.08033 9.56673 0.25
781 5.57348 6.229 3.57994 0.25
782 9.31624 6.58636 1.17991 0.25
783 4.19734 8.18845 3.52079 0.25
784 3.68615 3.88858 0.428845 0.25
785 8.31457 9.05571 7.54777 0.25
786 6.60324 6.35071 5.39946 0.25
787 6.12073 6.38739 5.2449 0.25
788 5.28484 0.658056 3.66822 0.25
789 6.12099 5.17648 1.93896 0.25
790 4.94956 2.1452 6.51075 0.25
791 8.24763 5.70261 6.71435 0.25
792 4.17427 4.22873 2.82311 0.5
793 10.1281 0.00381463 9.00566 0.25
794 2.94783 1.33828 2.03738 0.25
795 1.34275 8.81087 7.11788 0.25
796 1.96588 9.85786 4.20216 0.5
797 10.2346 9.86903 2.83698 0.25
798 9.32407 4.76882 4.05105 0.25
799 4.1818 6.5387 0.742596 0.5
800 10.1056 1.18844 1.26283 0.25
801 5.93496 10.3794 9.82871 0.25
802 6.30568 7.66761 0.79319 0.25
803 9.24012 5.19368 9.44751 0.25
804 4.38542 5.29251 7.61125 0.25
805 8.82502 4.03204 4.12307 0.25
806 2.31033 9.56834 7.9302 0.25
807 2.93069 4.54705 5.86888 0.25
808 8.49887 4.90619 9.41478 0.25
809 1.74409 5.74355 9.69642 0.25
810 7.48529 1.825 6.34802 0.25
811 9.42167 4.79488 9.70938 0.25
812 3.74047 6.36496 1.42444 0.25
813 1.20219 3.81373 2.4602 0.25
814 1.33865 0.517644 10.2867 0.25
815 3.59784 5.09974 4.99332 0.5
816 6.34892 0.274776 9.87055 0.25
817 3.96155 9.23996 0.903683 0.5
818 8.99086 6.01554 0.46918 0.25
819 3.44277 5.97385 1.41471 0.25
820 7.47665 4.55081 8.46194 0.25
821 7.81496 8.83101 6.92277 0.25
822 3.97081 3.36372 2.22333 0.25
823 1.89126 9.11131 7.44834 0.5
824 7.27281 4.30912 7.088 0.25
825 8.12052 8.89416 6.23816 0.5
826 6.74157 2.87715 1.94098 0.25
827 8.62027 6.5795 6.91033 0.25
828 9.62957 3.8226 1.36061 0.25
829 0.689703 7.74943 4.82407 0.25
830 3.82866 6.00857 1.70094 0.25
831 2.74591 7.58657 2.93614 0.25
832 3.93276 5.57676 9.07445 0.25
833 6.15653 6.6434 6.58909 0.25
834 8.60231 3.96694 4.62929 0.25
835 1.33061 1.28916 6.64956 0.25
836 6.45967 5.56756 2.10533 0.25
837 3.61808 7.31496 8.87992 0.25
838 2.38454 9.57686 7.08512 0.25
839 0.034394 2.61148 4.29888 0.25
840 9.77807 4.42796 4.0598 0.25
841 5.61264 4.77897 10.1566 0.5
842 7.16339 6.95383 8.96023 0.25
843 1.0983 9.50282 2.06667 0.25
844 6.50101 5.30969 1.67903 0.25
845 8.36878 4.26832 4.00556 0.25
846 0.741389 5.16478 4.52388 0.25
847 7.68407 2.76697 9.69387 0.25
848 3.57521 1.04611 9.61446 0.5
849 6.17601 5.35271 2.42377 0.25
850 4.97663 8.53297 3.58185 0.25
851 4.18277 6.26428 1.39925 0.25
852 5.3905 1.45612 3.7377 0.25
853 9.91719 9.61511 4.03136 0.25
854 2.99231 3.08592 8.00816 0.25
855 3.25253 6.47035 1.34799 0.25
856 9.55383 3.36537 7.99034 0.25
857 6.44184 3.70876 4.92009 0.25
858 8.18491 7.77706 4.39843 0.25
859 9.56103 1.13603 1.2994 0.25
860 2.59847 9.54033 4.07682 0.25
861 4.26484 8.87572 1.95611 0.25
862 7.60434 1.27417 8.27243 0.5
863 0.786734 2.91113 9.30929 0.25
864 4.47474 4.02115 3.50304 0.25
865 1.00943 6.76543 5.37227 0.25
866 3.06339 1.05293 10.112 0.25
867 2.47639 7.89051 9.24133 0.25
868 9.42097 0.640975 1.40367 0.25
869 0.279293 8.34518 5.21009 0.25
870 7.2182 6.68289 8.5586 0.25
871 7.25156 2.9851 1.95391 0.25
872 8.26883 1.47912 7.57041 0.5
873 5.3817 10.0205 5.1013 0.25
874 6.89106 9.29431 4.78316 0.25
875 3.70965 8.45256 5.55781 0.25
876 3.87587 5.94257 1.16764 0.25
877 0.553093 2.20036 3.65718 0.25
878 0.057947 10.2573 9.36189 0.25
879 0.436713 7.34894 4.95839 0.25
880 5.45253 3.98251 4.93292 0.25
881 4.033 6.62166 8.85864 0.5
882 10.1032 0.247974 5.79167 0.25
883 5.28643 2.89729 5.48773 0.25
884 2.79907 1.90404 1.53893 0.5
885 8.9131 10.0395 4.09072 0.25
886 9.42053 8.42631 1.08506 0.25
887 1.08104 6.16245 7.60648 0.25
888 1.77781 0.644295 2.17013 0.25
889 4.95707 5.45984 8.6644 0.25
890 0.561173 3.59489 5.98515 0.25
891 4.44764 3.60581 3.26772 0.25
892 6.77557 8.76264 2.88501 0.25
893 8.28075 2.70686 0.0677075 0.25
894 1.63754 8.38174 10.3097 0.25
895 9.72495 3.82654 7.83148 0.25
896 9.49028 1.02986 1.75148 0.25
897 3.19335 7.4654 6.74577 0.25
898 0.837043 4.861 5.21602 0.5
899 0.0266773 0.82325 6.83492 0.25
900 8.7976 6.74592 4.17031 0.25
901 0.716555 8.17805 5.15324 0.25
902 5.65771 1.55777 0.801772 0.25
903 7.65127 7.02394 4.15946 0.25
904 1.18927 6.22052 0.140519 0.5
905 9.30678 0.898619 0.986921 0.25
906 9.36472 9.34318 3.47656 0.25