ITEM: TIMESTEP
870000
ITEM: NUMBER OF ATOMS
1000
ITEM: BOX BOUNDS xy xz yz pp pp pp
0.0000000000000000e+00 1.0357442000000001e+01 0.0000000000000000e+00
0.0000000000000000e+00 1.0357442000000001e+01 0.0000000000000000e+00
0.0000000000000000e+00 1.0357442000000001e+01 0.0000000000000000e+00
ITEM: ATOMS id x y z radius
1 1.5791 4.3451 3.0224 0.5
2 2.00225 7.74797 2.77273 0.5
3 4.83804 2.34759 1.03536 0.25
4 0.438356 2.49247 4.66449 0.25
5 9.36313 3.03766 6.84815 0.25
6 0.473672 3.18392 9.38076 0.25
7 4.65667 1.60429 3.12021 0.25
8 9.30446 4.25264 1.39978 0.25
9 9.85753 1.32773 1.58012 0.25
10 8.76751 7.24661 3.40468 0.25
11 10.2613 8.80711 1.7454 0.25
12 7.85072 2.36307 9.93542 0.25
13 3.80778 7.32691 6.15904 0.25
14 5.52855 1.98623 0.111576 0.25
15 8.76683 5.64542 6.42415 0.25
16 8.63481 8.66827 6.37447 0.25
17 5.25465 9.13105 8.4539 0.5
18 2.76435 8.09291 0.0767934 0.25
19 7.24354 4.64748 4.89686 0.25
20 9.25433 0.619279 1.42587 0.25
21 0.513623 10.1104 9.47694 0.25
22 4.53121 1.72257 3.57971 0.25
23 4.92343 4.20785 2.84891 0.25
24 2.6615 2.72652 4.23197 0.25
25 7.20961 1.87196 5.77232 0.25
26 5.20403 2.79877 8.33251 0.25
27 1.77285 8.09938 0.21485 0.25
28 9.23251 5.84323 6.48302 0.25
29 3.73905 7.29695 5.63269 0.25
30 1.10174 8.37878 7.76369 0.25
31 0.991085 7.26251 4.88302 0.25
32 9.04998 6.5665 1.40319 0.25
33 10.3031 8.45267 1.374 0.25
34 0.913265 2.38187 10.059 0.25
35 7.56762 2.49146 9.55752 0.25
36 7.94426 8.33675 9.62363 0.25
37 4.27112 4.93003 5.93083 0.25
38 7.01145 0.574206 0.772868 0.25
39 5.86288 3.91244 5.34141 0.25
40 8.67165 4.37532 4.44328 0.25
41 8.03868 7.5896 3.75392 0.25
42 6.64727 8.55533 2.14854 0.5
43 10.3562 8.69726 5.44992 0.25
44 2.99944 9.91395 5.14374 0.25
45 7.04192 7.18662 8.54993 0.25
46 0.771583 8.77776 7.71151 0.25
47 4.33637 8.33552 3.5307 0.25
48 2.68478 9.68181 5.37749 0.25
49 4.25778 5.86771 9.33635 0.25
50 10.1182 9.46169 3.80144 0.25
51 9.33498 9.12572 0.916396 0.25
52 6.15247 7.07465 0.74143 0.25
53 7.08156 4.91281 1.9236 0.25
54 4.62491 4.83911 8.30321 0.25
55 6.23448 7.293 6.7829 0.25
56 4.85569 1.5518 1.03438 0.25
57 5.07223 2.09801 0.201479 0.25
58 6.41782 4.23599 0.442748 0.25
59 3.98848 7.67572 9.164 0.25
60 7.27167 7.02416 8.12369 0.25
61 3.0695 10.1803 8.81904 0.25
62 9.32464 5.92077 7.04624 0.25
63 0.646075 5.72535 4.86795 0.25
64 10.1195 1.56843 1.16839 0.25
65 6.63551 6.51771 6.69976 0.25
66 4.17332 1.58192 3.18459 0.25
67 9.50469 5.12818 9.14094 0.25
68 6.19525 0.10977 0.0385335 0.25
69 2.41417 7.6635 3.42119 0.25
70 4.31989 5.31288 4.02066 0.25
71 1.13555 8.45202 2.84061 0.25
72 5.5035 6.74054 3.49564 0.25
73 9.128 8.68999 7.11388 0.5
74 1.93075 7.08636 3.02828 0.25
75 1.27173 5.71857 0.734442 0.25
76 1.94983 8.51998 0.242011 0.25
77 7.44345 6.90027 8.56507 0.25
78 3.88416 9.82905 1.59174 0.25
79 1.12149 5.19363 9.70616 0.25
80 8.33791 8.60231 9.62631 0.25
81 8.23768 9.20511 7.4944 0.25
82 1.6024 0.698698 2.18705 0.25
83 1.66598 8.50133 2.9197 0.25
84 5.2149 9.51453 5.52632 0.25
85 4.21421 6.08268 1.77014 0.25
86 9.74333 3.99209 2.2997 0.5
87 1.45049 5.33067 8.31221 0.25
88 2.69464 3.88907 8.35313 0.25
89 0.530197 0.0714586 9.83818 0.25
90 6.92796 10.3675 1.68638 0.5
91 4.46951 8.22619 3.07673 0.25
92 9.27175 1.35462 1.01925 0.25
93 8.28534 1.0564 8.14656 0.25
94 1.02644 4.01363 2.59587 0.25
95 7.64273 8.58658 5.72181 0.25
96 7.7217 1.1848 6.94785 0.25
97 5.5891 9.77831 5.47127 0.25
98 10.0611 0.609543 6.44122 0.25
99 5.14514 2.09777 8.05022 0.5
100 5.65129 2.6866 5.37822 0.25
101 5.32846 2.18347 9.73165 0.5
102 4.10392 5.35569 8.41076 0.5
103 7.30545 0.564299 1.21805 0.25
104 1.31311 10.1441 9.85472 0.25
105 2.1771 4.7261 3.31252 0.25
106 5.74968 6.67141 6.47253 0.25
107 5.77012 10.1889 8.39277 0.25
108 2.00642 4.10036 1.977 0.25
109 6.88796 2.3758 2.57093 0.25
110 5.72835 10.1541 5.74148 0.25
111 1.90324 5.6242 0.033988 0.25
112 3.79596 5.09787 5.7636 0.25
113 1.93065 0.235675 4.20242 0.25
114 8.54149 6.25182 0.141001 0.25
115 3.74942 3.72056 2.86893 0.25
116 0.222345 2.09407 3.55894 0.25
117 7.50448 2.70229 2.76676 0.5
118 7.1715 8.0176 2.4084 0.25
119 9.90174 2.60966 4.43027 0.25
120 1.74865 5.69984 9.94637 0.25
121 7.74404 1.97247 5.19431 0.5
122 1.81483 4.88895 2.50315 0.25
123 9.36753 8.62752 1.59449 0.25
124 8.35609 6.05665 0.659085 0.25
125 1.83885 9.77499 4.26293 0.25
126 6.0735 7.56858 0.662865 0.25
127 6.14569 7.29018 0.264208 0.25
128 9.20176 9.7448 3.96836 0.25
129 1.7263 4.93314 3.52022 0.25
130 9.0931 8.7422 1.1855 0.25
131 6.74845 2.79229 2.85655 0.25
132 8.61626 4.72023 4.73331 0.25
133 7.93641 8.72993 9.43381 0.25
134 5.00745 3.8316 3.20397 0.25
135 6.14121 9.55039 8.50612 0.5
136 8.3467 8.83768 7.13798 0.25
137 1.63174 9.52006 1.62906 0.25
138 7.10482 4.193 4.88753 0.25
139 6.90934 4.6142 7.71957 0.5
140 4.5785 8.10862 3.916 0.25
141 1.94337 1.64324 1.36214 0.25
142 2.73173 2.83679 5.14503 0.25
143 7.24981 1.65832 2.96413 0.25
144 10.0041 6.24601 2.48284 0.25
145 3.86741 7.71483 5.84854 0.25
146 7.30934 9.26495 2.87238 0.25
147 4.30289 5.78168 4.1477 0.25
148 3.24391 1.58429 10.0065 0.25
149 9.69427 7.93665 9.0967 0.25
150 4.50729 4.94313 7.80333 0.25
151 6.94394 9.87036 9.99426 0.25
152 4.40799 9.84301 1.48941 0.25
153 5.19277 1.61973 7.4403 0.25
154 5.62946 9.44744 7.90416 0.25
155 3.74706 6.56068 1.08112 0.25
156 0.723571 8.39583 7.40792 0.25
157 4.73077 0.245965 3.54311 0.25
158 8.42362 9.40263 6.62744 0.25
159 3.17951 2.74842 5.33119 0.25
160 2.59206 3.42522 8.12794 0.25
161 3.17044 10.3552 9.26119 0.25
162 4.11519 2.18461 5.64524 0.5
163 6.57621 10.1474 2.3115 0.25
164 5.18732 8.36433 8.28365 0.25
165 0.985645 2.84164 9.79472 0.25
166 7.14173 3.80619 7.01308 0.25
167 9.08905 10.211 3.96415 0.25
168 10.2669 7.44162 9.37364 0.25
169 9.66731 6.65684 7.03515 0.25
170 3.32852 0.100153 8.08486 0.25
171 1.06107 8.44186 7.00376 0.25
172 9.2551 6.13995 7.51849 0.25
173 0.67729 1.65241 4.27968 0.25
174 4.7022 1.90503 6.02728 0.25
175 9.1569 3.53694 6.99777 0.25
176 1.05922 6.17925 0.72421 0.25
177 8.90581 6.50999 7.3788 0.25
178 7.48506 1.30312 5.07428 0.25
179 2.5201 9.26928 7.7623 0.25
180 7.40755 9.11842 2.1663 0.5
181 1.04102 4.09576 5.72212 0.25
182 7.38907 2.06706 3.09575 0.25
183 2.4718 9.66558 4.61726 0.25
184 9.2201 5.35021 9.53912 0.25
185 8.64523 9.15121 6.29526 0.25
186 2.61015 7.6227 9.82886 0.25
187 3.55963 4.0674 0.10465 0.25
188 5.10096 2.50614 7.39688 0.25
189 10.1693 0.239512 6.74377 0.25
190 1.99754 7.37322 3.43022 0.25
191 5.27607 2.62291 9.0737 0.25
192 8.66074 9.24146 7.18207 0.25
193 5.2462 2.14616 8.85304 0.25
194 4.0492 9.77906 1.13724 0.25
195 4.97344 4.80728 10.008 0.25
196 5.32884 2.46471 -0.00451951 0.25
197 8.68793 6.32428 6.66768 0.5
198 7.1169 1.68898 6.9489 0.5
199 6.93791 10.3079 9.86929 0.25
200 7.28334 0.872959 6.28129 0.25
201 6.17934 6.78214 6.78308 0.25
202 3.37811 7.35037 5.27166 0.25
203 4.13044 9.43445 0.351556 0.25
204 0.47539 3.61146 6.41627 0.25
205 4.01745 0.366242 6.71809 0.25
206 0.610146 1.90049 3.8195 0.25
207 1.20954 5.39851 3.98422 0.5
208 4.17871 4.59826 6.29249 0.25
209 7.28598 9.7075 2.59612 0.25
210 4.21622 10.2224 6.73458 0.25
211 1.43278 5.00379 2.74505 0.25
212 0.362832 3.91532 2.21474 0.5
213 9.59636 4.49373 1.78284 0.25
214 3.44507 4.84041 6.01627 0.25
215 9.99799 0.568197 8.54201 0.25
216 5.73809 1.74278 0.603233 0.25
217 10.2895 8.40004 5.03773 0.25
218 2.40876 1.15461 1.62773 0.5
219 0.974801 4.30443 6.18695 0.25
220 6.70682 9.31337 2.0179 0.25
221 8.97936 7.2938 3.84027 0.25
222 9.51961 6.23583 6.74683 0.25
223 5.4798 9.46438 5.08802 0.25
224 9.84913 3.14604 6.7933 0.25
225 8.25568 1.45458 5.4482 0.25
226 6.35139 8.93644 4.86587 0.25
227 7.50805 0.398469 0.72857 0.25
228 4.70161 2.25863 0.577596 0.25
229 2.57696 2.21551 1.16555 0.25
230 8.30634 7.60879 4.16155 0.25
231 7.91573 4.10035 7.49149 0.25
232 6.96447 9.75052 2.21074 0.25
233 8.08443 2.0277 9.30626 0.5
234 4.43824 8.96315 1.51837 0.25
235 0.753846 8.85854 7.2141 0.25
236 1.99494 5.21785 0.280716 0.25
237 7.71645 1.65358 3.19229 0.25
238 1.19472 6.08268 4.31847 0.25
239 0.110945 3.21747 9.74476 0.25
240 1.56348 8.86284 2.25564 0.5
241 1.95305 9.57977 2.0699 0.25
242 3.77574 8.12629 6.11306 0.25
243 1.93402 6.05792 0.300758 0.25
244 1.39853 0.900672 6.54384 0.25
245 6.61711 7.00015 6.78235 0.25
246 2.04585 8.18359 10.229 0.25
247 2.73619 7.61137 3.03915 0.25
248 5.49218 2.43652 8.60197 0.25
249 6.94693 4.43048 5.27344 0.25
250 7.48195 1.28374 6.50881 0.25
251 0.851504 1.70743 6.59387 0.25
252 7.6536 6.38973 9.34065 0.25
253 4.20168 7.34168 8.89277 0.25
254 1.20707 9.841 1.68112 0.25
255 1.73384 0.70602 1.69702 0.25
256 3.53882 5.79137 4.41916 0.25
257 0.946635 0.0215477 9.56674 0.25
258 4.65079 5.62784 7.30237 0.25
259 1.74209 10.1649 3.94638 0.25
260 0.629389 10.0819 10.2442 0.25
261 7.48415 6.5183 8.24695 0.25
262 5.11059 6.97885 3.7544 0.25
263 8.33032 8.31448 10.0236 0.25
264 7.46781 9.29494 9.72155 0.5
265 4.40966 3.49713 2.4666 0.25
266 4.07132 3.52487 2.12359 0.25
267 3.52786 6.98624 6.07111 0.25
268 3.59766 7.73531 6.27127 0.25
269 7.26107 9.20882 6.13696 0.25
270 3.46936 7.26612 6.4797 0.25
271 3.73548 9.4213 1.34322 0.25
272 6.65134 6.7277 5.46511 0.25
273 10.2996 3.67149 7.57163 0.25
274 3.66137 4.53821 6.37005 0.25
275 0.215292 6.73818 2.20789 0.25
276 8.18601 1.21546 8.62054 0.25
277 2.92385 9.78883 8.1322 0.5
278 4.50646 6.01925 8.49603 0.25
279 2.62017 -0.00482542 8.61993 0.25
280 3.52549 0.369214 9.31622 0.25
281 4.2732 8.80156 3.59916 0.25
282 4.99295 0.802526 2.94036 0.25
283 9.69948 0.404794 9.26624 0.25
284 1.94198 5.22049 10.1173 0.25
285 8.60696 6.61153 1.34473 0.25
286 10.3432 1.48976 1.57421 0.25
287 1.44201 8.15718 3.1396 0.25
288 1.09913 5.68182 4.66225 0.25
289 9.04421 0.866669 1.72512 0.25
290 8.89576 3.97955 1.54851 0.25
291 8.02987 2.72381 9.59188 0.25
292 4.18279 9.40192 1.48791 0.25
293 4.55468 2.59966 6.91171 0.5
294 0.00511697 6.58325 2.62984 0.25
295 7.1188 0.794582 6.95841 0.5
296 2.56641 2.97074 4.6558 0.25
297 0.393533 8.41406 5.31974 0.25
298 4.42176 10.0751 1.00556 0.25
299 9.17508 5.03184 9.90602 0.25
300 2.5337 10.1726 4.5077 0.25
301 4.80468 8.16882 8.07073 0.25
302 4.97552 4.86197 7.56411 0.25
303 8.77567 5.69451 10.0829 0.5
304 3.97148 3.96505 3.24886 0.25
305 1.50398 8.22388 2.60716 0.25
306 9.80493 7.52948 9.28679 0.25
307 0.854413 9.98973 9.84073 0.25
308 8.92464 5.64778 6.8627 0.25
309 8.05977 1.6738 8.67336 0.25
310 6.57567 6.2644 6.22627 0.25
311 1.64828 1.18618 2.44424 0.25
312 8.88934 1.01003 8.68493 0.5
313 1.60544 8.11706 2.1392 0.25
314 1.14318 3.68517 2.3025 0.25
315 2.88211 0.628376 9.01914 0.5
316 6.82591 4.13061 7.13407 0.25
317 6.2259 10.3403 8.57232 0.25
318 9.93003 7.48737 9.7448 0.25
319 9.94283 9.60649 4.24737 0.25
320 0.299166 2.74801 0.180526 0.25
321 2.34788 1.76475 1.13451 0.25
322 1.23126 7.00045 5.22906 0.25
323 6.46092 10.1756 9.30438 0.5
324 7.6378 1.94639 2.72966 0.25
325 9.34612 3.8021 1.68874 0.25
326 2.63543 10.259 5.33769 0.25
327 1.57646 8.57734 7.70543 0.25
328 4.22406 3.6091 2.94771 0.25
329 8.32227 6.91962 3.81293 0.5
330 10.2455 6.71407 1.80711 0.25
331 9.34612 10.2408 4.44581 0.25
332 6.54574 7.76657 0.771969 0.25
333 0.130959 7.84509 9.20722 0.25
334 6.68631 4.6789 1.71193 0.25
335 5.91204 4.35927 0.555734 0.25
336 9.71999 4.09563 1.59896 0.25
337 4.74714 5.62733 8.71286 0.25
338 7.40041 8.36976 2.10986 0.25
339 4.04275 6.06673 8.49416 0.25
340 0.691261 2.82633 10.2093 0.25
341 4.0328 5.80846 4.53556 0.25
342 9.85091 3.73202 7.42842 0.25
343 10.0339 2.00222 3.73325 0.25
344 4.3253 1.34189 2.79503 0.25
345 6.38777 4.33506 10.2438 0.25
346 2.23812 1.89104 7.12984 0.25
347 2.82075 3.90672 0.292956 0.25
348 5.81853 7.66744 0.268944 0.25
349 4.69621 1.70825 7.57785 0.25
350 2.48541 3.51426 7.63058 0.25
351 5.62614 6.26957 3.5483 0.25
352 8.2929 6.28948 1.58096 0.25
353 10.0455 3.29038 7.29603 0.25
354 9.82312 3.30036 2.11414 0.25
355 2.52343 1.51919 2.26855 0.25
356 4.67584 10.0548 0.520146 0.25
357 3.44758 4.35522 5.91579 0.25
358 4.1827 9.82163 0.579941 0.25
359 8.93236 6.68268 0.678632 0.5
360 4.0101 0.0200374 6.3739 0.25
361 0.19297 0.626738 6.34901 0.25
362 0.0730596 7.74953 9.75746 0.25
363 6.88889 2.83582 2.36808 0.25
364 10.3312 6.35212 2.1692 0.25
365 5.90559 9.22324 4.85666 0.25
366 9.22109 4.21086 1.8736 0.25
367 3.45228 0.398482 8.46743 0.25
368 9.38895 6.60442 7.47029 0.25
369 9.28851 4.35723 4.5541 0.5
370 4.6358 1.62735 6.82776 0.5
371 9.57948 6.38799 1.95252 0.5
372 1.09731 2.28492 4.29524 0.5
373 3.48733 10.2628 8.51018 0.25
374 3.44818 0.156679 8.87459 0.25
375 4.6697 0.404216 3.04194 0.25
376 0.697852 5.88254 4.37044 0.25
377 10.0839 7.88322 9.44023 0.25
378 9.38169 9.16244 1.4378 0.25
379 0.260566 3.91478 6.08386 0.25
380 1.59745 2.26719 4.94573 0.25
381 6.40223 5.1021 2.31574 0.5
382 2.11305 7.90847 9.83469 0.25
383 5.58713 8.44047 8.58312 0.25
384 1.50076 6.72902 7.51907 0.25
385 0.710407 7.0095 5.18744 0.25
386 1.71665 5.546 7.4848 0.25
387 1.33407 5.86727 7.48938 0.25
388 2.87724 2.23138 1.66448 0.25
389 5.34128 1.65253 0.89821 0.25
390 3.19616 4.14243 0.468631 0.25
391 4.40831 0.236978 7.02838 0.25
392 1.06853 5.76151 5.17424 0.25
393 9.06518 8.92683 6.38725 0.25
394 10.2899 0.703092 5.95597 0.25
395 2.17438 4.76581 2.80994 0.25
396 3.17194 0.286221 9.68345 0.25
397 7.22086 2.04157 2.58319 0.25
398 9.7986 4.6069 9.7378 0.25
399 2.46947 9.68032 7.45753 0.25
400 7.67127 2.60354 -0.00555644 0.25
401 5.32778 6.50081 3.90191 0.25
402 4.31359 5.75727 8.85987 0.25
403 5.80988 4.888 0.501906 0.25
404 8.59485 3.09363 0.258766 0.25
405 1.71515 5.65011 0.476448 0.25
406 6.35556 9.34132 5.06645 0.25
407 7.24911 6.4427 8.67911 0.25
408 9.83738 8.54026 1.54354 0.25
409 9.8547 6.65157 2.67649 0.25
410 5.86475 0.884027 3.8439 0.25
411 8.12059 9.17306 10.1165 0.25
412 4.60415 2.20848 7.4387 0.25
413 7.19141 2.39054 2.19169 0.25
414 6.89014 5.14063 2.7945 0.25
415 4.45932 0.962127 3.50886 0.5
416 10.0986 0.576015 8.9692 0.25
417 3.10501 7.5663 5.90174 0.5
418 0.659104 0.97456 6.69757 0.5
419 9.31847 0.296445 4.06493 0.25
420 5.55758 8.63152 8.06792 0.25
421 9.33629 6.69276 6.66392 0.25
422 2.3183 7.04384 2.72492 0.25
423 1.79686 5.02597 3.04397 0.25
424 0.0964962 0.0773708 9.54848 0.25
425 2.44788 0.213507 4.21886 0.25
426 2.79343 1.75063 1.88796 0.25
427 7.02086 1.31113 6.28673 0.25
428 7.36678 9.89736 2.10249 0.25
429 5.45619 9.0299 7.71649 0.25
430 10.2919 9.72852 3.44827 0.25
431 7.11235 0.156022 1.00873 0.25
432 2.92539 7.66239 10.2063 0.25
433 2.95627 2.32928 5.11717 0.25
434 5.83773 10.1641 8.89624 0.25
435 0.000744395 3.00581 9.27231 0.25
436 6.37968 4.87908 10.232 0.25
437 0.613849 5.73679 0.0298932 0.25
438 7.75907 0.919731 6.47386 0.25
439 9.79111 10.1606 3.81283 0.5
440 2.38579 2.76272 7.73843 0.5
441 1.50674 3.76378 2.55314 0.25
442 5.82538 7.31531 1.0092 0.25
443 9.6024 9.45664 3.911 0.25
444 1.5747 3.78099 2.06801 0.25
445 5.85671 6.57758 3.8124 0.25
446 8.34396 4.67853 4.20207 0.25
447 6.23352 5.03929 0.311313 0.25
448 5.24821 1.28256 3.46777 0.5
449 10.3168 1.00136 6.41827 0.25
450 2.17581 1.14249 2.33515 0.25
451 3.4021 3.35021 0.42934 0.25
452 5.9787 4.40883 5.26025 0.25
453 6.96693 4.52139 8.43652 0.25
454 1.44012 5.77366 8.30555 0.25
455 1.12716 5.95376 7.9304 0.25
456 2.77802 1.83806 1.40455 0.25
457 10.1081 9.15479 1.06791 0.5
458 1.80607 5.97846 7.21329 0.25
459 1.03858 1.54126 7.02307 0.25
460 2.26966 6.23066 7.26638 0.25
461 4.25813 6.71066 1.25772 0.25
462 4.25581 6.56524 1.72139 0.25
463 1.69694 10.2434 4.45819 0.25
464 9.80096 1.19219 1.11893 0.25
465 7.11367 5.04309 2.35626 0.25
466 4.92024 5.44531 7.98546 0.5
467 3.30527 5.13797 5.59897 0.25
468 1.97236 1.56449 2.22386 0.25
469 4.51323 3.95165 3.17131 0.25
470 4.86796 3.85832 2.39803 0.25
471 2.81612 9.50851 4.9582 0.25
472 1.76728 2.47317 7.48382 0.25
473 2.53259 8.02972 9.5854 0.25
474 9.01755 3.82135 2.00933 0.25
475 8.25573 6.77359 4.56433 0.25
476 3.79789 6.39267 1.91727 0.25
477 9.82864 9.46699 3.44669 0.25
478 8.802 5.8681 1.27367 0.5
479 6.84206 0.582739 1.22963 0.25
480 2.48297 7.97763 10.0782 0.25
481 4.61012 9.40468 1.71386 0.25
482 6.46395 9.60018 5.47539 0.25
483 6.93637 0.108463 0.215813 0.5
484 9.62334 3.38586 7.1376 0.25
485 8.46209 2.84006 10.2229 0.25
486 4.69895 8.58284 3.8155 0.25
487 3.09115 4.15028 10.2778 0.25
488 7.02272 9.68306 1.79363 0.25
489 8.91101 6.44842 3.92633 0.25
490 2.30691 3.10625 8.42411 0.25
491 8.56567 8.98692 6.76314 0.25
492 7.59837 2.82833 9.90423 0.25
493 9.57632 3.87306 7.01891 0.25
494 8.65911 4.25567 4.93323 0.25
495 9.53957 3.54144 6.65368 0.25
496 4.25824 1.75106 6.1975 0.25
497 2.91763 3.44592 0.309425 0.25
498 8.30864 1.38691 9.0398 0.25
499 4.05618 9.07208 1.12149 0.25
500 3.99114 7.22306 9.35677 0.25
501 2.88 10.3313 4.87647 0.25
502 8.91178 5.98756 7.2276 0.25
503 6.89057 8.32862 2.77648 0.25
504 6.4885 7.33876 0.568259 0.25
505 7.66106 1.23211 5.80638 0.5
506 5.4658 10.2907 5.36875 0.25
507 7.28162 8.47424 2.57629 0.25
508 4.67167 8.69931 8.78918 0.25
509 1.03502 9.17265 7.46373 0.25
510 5.7721 4.12518 4.87641 0.25
511 4.46008 0.207527 6.54055 0.25
512 1.30911 4.70477 3.6395 0.25
513 1.59131 5.26663 9.71313 0.25
514 3.7567 2.19975 4.93359 0.25
515 1.58224 1.95546 6.93881 0.5
516 5.89816 9.11203 5.55908 0.5
517 8.66829 6.56061 4.33742 0.25
518 2.79089 0.664766 9.78854 0.25
519 2.90842 9.89449 4.65448 0.25
520 5.00619 2.02664 7.28477 0.25
521 1.25796 4.42631 5.41267 0.25
522 2.1499 0.10349 3.8172 0.25
523 2.88349 3.2255 7.79039 0.25
524 7.88458 1.43297 4.70397 0.25
525 1.95566 6.88285 7.61996 0.25
526 1.79708 5.56778 8.51919 0.25
527 6.58288 9.42715 2.72921 0.5
528 7.53753 8.84661 2.85501 0.25
529 3.3227 6.19726 1.89527 0.25
530 1.29614 7.80723 2.37027 0.25
531 0.387548 2.85478 9.04862 0.25
532 1.85471 8.28115 9.74815 0.25
533 9.08265 9.98349 3.55942 0.25
534 8.82089 4.83926 4.22149 0.25
535 7.26605 6.77481 9.3864 0.25
536 3.92907 9.43885 0.811389 0.25
537 7.41473 2.37821 3.42378 0.25
538 7.64025 4.39012 7.80666 0.25
539 10.239 3.80022 6.78525 0.5
540 5.85547 9.9636 7.92081 0.25
541 9.58235 8.80053 1.25551 0.25
542 7.30011 8.77015 6.02755 0.25
543 9.20338 4.23929 3.83033 0.25
544 1.93701 1.65538 7.50334 0.25
545 0.033908 9.7839 3.97342 0.25
546 0.644695 0.361885 6.38771 0.25
547 9.76359 3.59075 1.71564 0.25
548 9.60345 4.63977 9.31839 0.25
549 1.73016 1.20798 1.47326 0.25
550 9.78096 8.9884 1.6758 0.25
551 2.81523 7.32944 3.43369 0.25
552 8.91369 9.3239 6.692 0.25
553 5.8493 2.8816 5.76456 0.25
554 8.73746 4.437 3.96053 0.25
555 5.86379 8.9956 7.97831 0.25
556 1.21232 8.91702 7.02295 0.25
557 2.95297 9.48569 7.48837 0.25
558 2.24068 3.59566 8.45503 0.25
559 9.67577 0.920437 8.46289 0.25
560 3.85717 4.66064 5.92228 0.25
561 1.01204 3.83169 1.84934 0.25
562 5.24445 5.18053 9.93877 0.25
563 5.46567 9.80465 8.18229 0.25
564 1.7333 1.29801 6.60995 0.25
565 1.81446 1.14061 1.97482 0.25
566 9.68307 6.23378 7.26509 0.25
567 1.58143 6.11664 0.664468 0.25
568 7.98485 1.2108 5.12658 0.25
569 7.2505 3.76602 7.65765 0.5
570 4.61003 3.53091 3.29321 0.25
571 4.54604 3.70899 2.03924 0.25
572 8.54667 1.67921 8.71449 0.25
573 0.236159 6.8663 4.99932 0.25
574 0.305269 0.295418 6.75908 0.25
575 6.46608 3.68976 4.79243 0.25
576 4.95349 1.90137 0.706993 0.25
577 0.854904 8.19798 5.19222 0.25
578 1.26699 5.21207 0.0464221 0.5
579 5.09064 5.31724 7.24241 0.25
580 7.7938 6.94893 4.39897 0.25
581 6.78585 6.47438 8.77318 0.25
582 7.39324 4.31899 5.25684 0.25
583 8.27619 5.6784 6.45687 0.25
584 5.90477 7.043 3.59358 0.25
585 6.64259 0.219547 0.939618 0.25
586 1.74669 2.56468 4.55085 0.25
587 6.05585 9.77581 5.70093 0.25
588 2.96359 1.36395 9.26247 0.25
589 10.2139 3.43873 1.88173 0.25
590 8.96453 6.92885 4.14297 0.25
591 3.69917 2.65706 5.2125 0.25
592 7.07843 5.49523 2.47731 0.25
593 5.55769 9.69547 5.98868 0.25
594 9.05051 6.27255 0.0400405 0.25
595 2.12611 2.12002 7.53692 0.25
596 9.90379 8.44455 1.05466 0.25
597 4.50907 0.817415 2.76243 0.25
598 6.32321 7.39793 1.04297 0.25
599 10.1856 1.08154 1.36968 0.25
600 3.79864 9.39364 1.83738 0.25
601 7.01266 10.0995 2.4741 0.25
602 6.39182 8.25723 2.80164 0.25
603 2.36168 6.65458 7.48423 0.25
604 9.04111 0.639535 0.987739 0.25
605 1.20252 7.93953 2.81527 0.25
606 1.85632 1.34221 7.11711 0.25
607 2.56182 2.24408 7.2359 0.25
608 5.8285 6.14051 5.97053 0.5
609 4.46284 6.20378 1.37598 0.25
610 6.41113 4.81971 0.988695 0.5
611 8.4495 8.46355 7.36105 0.25
612 8.60408 0.220624 4.29917 0.5
613 8.30257 2.45935 9.94107 0.25
614 9.48124 6.73232 1.27149 0.25
615 6.54309 3.99833 7.49031 0.25
616 1.39504 1.21743 6.98494 0.25
617 2.14665 3.36636 8.02691 0.25
618 8.08567 2.92519 0.191548 0.25
619 1.49007 9.59483 2.0749 0.25
620 7.36862 5.26435 2.75148 0.25
621 6.23879 5.27111 1.61977 0.25
622 6.79607 6.6402 9.24728 0.25
623 7.94417 4.34906 4.73317 0.5
624 4.72573 8.56716 8.29885 0.25
625 5.80852 2.34099 10.3192 0.25
626 2.15665 2.75245 4.31534 0.25
627 6.66417 5.59753 2.78417 0.25
628 1.11457 9.96422 10.3007 0.25
629 7.40088 10.0594 10.0391 0.25
630 5.5527 7.63891 0.720858 0.25
631 8.47556 1.9219 5.38615 0.25
632 3.24193 3.74455 0.19029 0.25
633 3.11481 3.69429 0.67063 0.25
634 4.58309 7.94363 8.76783 0.5
635 9.25295 6.36743 7.06502 0.25
636 8.7716 5.12298 9.55229 0.25
637 6.25855 9.37415 4.54177 0.25
638 2.19987 0.300008 4.89283 0.5
639 7.30004 2.88019 2.02406 0.25
640 7.49728 1.64406 7.57427 0.25
641 3.85731 5.93816 4.06194 0.25
642 3.79812 7.58661 6.66244 0.25
643 3.24411 1.71747 9.46224 0.25
644 5.98016 9.9596 4.97021 0.5
645 3.699 3.54979 0.0485314 0.25
646 8.26788 7.24349 4.49839 0.25
647 6.56994 6.25955 5.7117 0.25
648 7.10681 1.24356 7.61244 0.25
649 4.66416 5.98741 9.02204 0.25
650 7.40897 1.84484 3.48516 0.25
651 5.07015 8.62927 7.90476 0.25
652 0.9758 5.55978 8.24743 0.25
653 0.950747 4.61413 5.75983 0.25
654 1.45418 6.30911 7.28142 0.25
655 10.1709 3.87944 1.6659 0.25
656 4.62784 5.10712 7.36555 0.25
657 8.18854 9.28849 6.99464 0.25
658 7.39803 4.33262 8.2028 0.25
659 8.98575 9.9181 4.36889 0.25
660 1.83799 6.21532 7.91963 0.5
661 2.42478 7.28189 3.14102 0.25
662 7.62423 9.0817 5.82637 0.25
663 3.60853 0.667878 8.93018 0.25
664 0.564617 2.32563 0.0626434 0.25
665 8.31011 6.33988 1.04947 0.25
666 5.50724 9.83519 8.66349 0.25
667 8.25542 3.26407 10.1991 0.25
668 7.13332 1.56123 5.41514 0.25
669 3.32723 7.65278 9.51511 0.5
670 0.960248 3.28913 9.54694 0.25
671 0.911789 6.43563 4.85377 0.5
672 5.81888 6.75984 5.54455 0.25
673 4.23633 9.63873 1.92416 0.25
674 7.25326 4.48474 4.44089 0.25
675 8.09657 8.70606 7.56518 0.25
676 5.47438 2.38937 0.732839 0.5
677 9.63349 3.28281 7.58681 0.25
678 0.0104986 0.020013 6.04522 0.5
679 2.09085 2.40206 7.12128 0.25
680 2.81979 7.1304 2.92937 0.25
681 7.86319 8.97966 7.22802 0.25
682 3.39262 6.93866 5.5549 0.25
683 0.989388 2.3956 9.57489 0.25
684 1.53144 8.56417 7.19208 0.25
685 9.08486 0.177309 3.62649 0.25
686 6.7208 9.67108 5.01371 0.25
687 9.36214 3.68669 7.41305 0.25
688 5.33586 7.48315 0.263318 0.25
689 2.39351 2.42324 3.97957 0.25
690 10.1105 8.16435 9.01093 0.25
691 10.3595 8.18499 5.5066 0.25
692 1.39101 4.4599 5.92243 0.25
693 9.62649 2.15257 3.64746 0.25
694 3.38634 3.72529 10.1278 0.25
695 8.30131 1.60616 4.9447 0.25
696 4.98729 0.667017 3.83686 0.25
697 1.17712 8.73711 7.44779 0.25
698 8.57471 5.58414 0.533777 0.25
699 3.66332 7.76392 5.38411 0.25
700 5.44316 7.98107 0.311376 0.25
701 3.54744 4.7172 5.5057 0.25
702 6.73464 3.97287 5.18634 0.25
703 2.08774 0.68238 2.0394 0.25
704 6.53235 4.2591 8.29449 0.25
705 3.95094 5.91424 8.93433 0.25
706 7.54844 1.18929 7.40384 0.25
707 6.67807 7.24675 5.45357 0.25
708 5.56443 6.95676 3.92353 0.25
709 1.34013 4.47154 2.14223 0.5
710 1.37161 4.86509 5.62056 0.25
711 7.25292 4.27231 7.09493 0.25
712 4.6054 8.64996 3.30011 0.25
713 1.31841 5.01998 3.26898 0.25
714 2.10729 10.2141 4.23611 0.25
715 2.66278 3.40927 8.60515 0.25
716 9.47992 8.6715 0.82558 0.25
717 3.03413 5.38584 5.29385 0.25
718 5.90668 3.31588 5.05632 0.5
719 5.24719 2.96161 5.2195 0.25
720 5.43519 0.890053 4.07081 0.25
721 3.27354 7.69962 6.66298 0.25
722 4.06343 5.00496 4.3218 0.25
723 5.84439 7.11821 6.51033 0.25
724 9.61802 0.724647 8.89676 0.25
725 3.67786 0.0260046 6.72006 0.25
726 3.88672 5.43371 4.23011 0.25
727 4.31 5.41534 4.50738 0.25
728 2.2295 7.45805 0.111548 0.5
729 7.6715 2.0135 5.96617 0.25
730 7.81898 1.36075 8.98095 0.25
731 0.821383 5.57339 9.95329 0.25
732 4.06903 7.80343 6.30343 0.25
733 9.6427 2.18896 4.48289 0.25
734 8.71269 7.35794 4.22752 0.25
735 3.45162 2.26214 5.24947 0.25
736 8.97129 5.95645 6.06837 0.25
737 0.77562 4.33452 5.36905 0.25
738 5.075 8.45458 8.71129 0.25
739 2.87889 3.68598 10.2156 0.25
740 8.77757 6.36843 1.76688 0.25
741 6.91743 3.20533 2.73264 0.25
742 5.30534 1.67888 0.399911 0.25
743 9.71051 1.85575 4.07977 0.25
744 2.40387 2.21306 4.71969 0.5
745 0.613963 4.26811 5.91031 0.25
746 6.19739 4.7501 1.68273 0.25
747 7.61712 3.0091 9.4473 0.25
748 7.15898 10.003 9.57804 0.25
749 6.63668 3.93841 7.94548 0.25
750 4.09824 2.09688 6.46198 0.25
751 1.73331 2.0444 4.49083 0.25
752 9.80318 2.33525 4.07441 0.25
753 0.29602 2.45618 9.71131 0.5
754 8.16414 1.81375 5.80277 0.25
755 8.02372 2.83501 10.0786 0.25
756 4.59638 1.93281 1.0324 0.25
757 0.0876263 2.04065 4.33189 0.5
758 2.07899 9.98548 4.67489 0.25
759 4.76407 2.72205 8.18572 0.25
760 4.73638 1.53735 3.96617 0.25
761 5.65693 6.91227 6.0356 0.25
762 0.525282 4.16281 6.40616 0.25
763 6.49127 4.48203 4.6514 0.5
764 6.01832 6.59411 3.36676 0.25
765 7.53476 6.66959 8.96321 0.25
766 1.6457 5.39657 3.39692 0.25
767 7.67904 2.57522 2.05623 0.25
768 5.07876 2.58592 5.8931 0.5
769 0.225264 3.02922 10.1735 0.25
770 6.37438 6.94613 6.07972 0.5
771 5.70812 7.22561 0.0318816 0.25
772 6.96904 9.05871 5.41691 0.5
773 6.00485 4.09482 0.15526 0.25
774 7.04557 8.81587 2.80278 0.25
775 10.0859 7.65871 8.94314 0.25
776 4.50869 9.65668 0.216774 0.25
777 1.09257 8.28057 2.39053 0.25
778 3.05822 0.154483 8.45754 0.25
779 9.87006 8.02651 8.62868 0.25
780 5.23562 4.78618 9.5876 0.25
781 5.47267 7.27461 3.58603 0.25
782 9.40958 6.28461 1.16418 0.25
783 4.25515 8.48922 3.98395 0.25
784 3.25395 3.30966 10.2921 0.25
785 8.57915 8.89057 7.59651 0.25
786 6.67899 6.94685 5.03824 0.25
787 6.25569 6.99087 5.30372 0.25
788 4.95103 1.0531 4.08043 0.25
789 6.55862 5.6185 1.81403 0.25
790 4.98759 2.12584 6.41602 0.25
791 8.497 5.83809 6.07164 0.25
792 4.17862 4.19021 2.51835 0.5
793 10.2866 0.128937 8.74798 0.25
794 1.73385 1.56751 1.80136 0.25
795 1.23798 8.88643 7.87697 0.25
796 2.51315 9.80068 3.95117 0.5
797 0.184623 10.1383 3.72122 0.25
798 9.21499 4.72133 3.94643 0.25
799 4.23753 6.20102 0.641042 0.5
800 9.61517 1.5749 1.27883 0.25
801 6.04941 0.0175828 9.95004 0.25
802 6.36469 7.71742 0.299781 0.25
803 9.56501 5.01987 9.60888 0.25
804 4.33363 5.38994 7.66692 0.25
805 8.83818 3.97363 4.13148 0.25
806 2.20871 9.65219 7.85365 0.25
807 3.05833 4.67704 5.71582 0.25
808 8.97235 5.19015 9.07924 0.25
809 1.29707 5.64316 9.73758 0.25
810 7.3098 1.73607 6.25598 0.25
811 9.32845 4.59917 9.76362 0.25
812 4.02092 6.3032 1.39443 0.25
813 1.95146 3.99453 2.42409 0.25
814 1.47349 0.000282946 10.2557 0.25
815 3.73356 5.2522 4.97462 0.5
816 6.51551 0.248468 9.93611 0.25
817 4.70039 9.39764 0.957467 0.5
818 8.79915 6.03315 0.474242 0.25
819 3.54112 6.37146 1.4836 0.25
820 6.52276 4.7465 8.3668 0.25
821 7.96908 8.53373 7.10715 0.25
822 5.22138 3.81187 2.77962 0.25
823 1.81836 9.20744 7.39216 0.5
824 7.59951 4.42959 7.35775 0.25
825 7.91423 8.85271 6.4543 0.5
826 7.68028 3.11039 2.12808 0.25
827 9.3037 6.26042 6.261 0.25
828 10.1147 4.35591 1.79431 0.25
829 0.918837 7.81928 5.50838 0.25
830 3.72753 5.96879 1.65977 0.25
831 2.64063 7.40759 2.60945 0.25
832 4.02598 5.45351 9.11198 0.25
833 6.1963 6.41688 6.47509 0.25
834 8.54558 3.92636 4.5754 0.25
835 1.2177 1.38435 6.5717 0.25
836 6.96646 5.38687 1.99331 0.25
837 3.70424 7.27664 8.98331 0.25
838 2.57973 9.17112 7.30793 0.25
839 0.0816676 2.78781 4.51493 0.25
840 9.63247 4.47215 3.84937 0.25
841 5.66186 4.6337 10.1666 0.5
842 7.16179 6.36277 9.13684 0.25
843 1.17522 9.35231 1.83879 0.25
844 6.67943 5.14628 1.62971 0.25
845 8.33537 4.15282 4.12066 0.25
846 0.676405 5.44747 4.45377 0.25
847 7.96742 3.19579 9.73568 0.25
848 3.47595 0.996688 9.62122 0.5
849 6.72622 5.75647 2.26645 0.25
850 4.81321 8.21517 3.45272 0.25
851 4.12665 5.81605 1.32415 0.25
852 5.48068 0.625245 3.67821 0.25
853 9.48723 9.75248 4.36199 0.25
854 2.81332 3.00098 8.28315 0.25
855 3.8491 6.75463 1.55479 0.25
856 9.19052 3.17207 7.32812 0.25
857 6.45123 4.28839 5.37363 0.25
858 8.32236 7.51125 3.32978 0.25
859 9.3951 1.14871 1.45103 0.25
860 2.87733 9.40328 4.48694 0.25
861 4.22921 9.182 1.93816 0.25
862 7.56983 1.27994 8.219 0.5
863 0.793311 2.87228 9.38718 0.25
864 3.64799 3.72719 2.32083 0.25
865 0.587246 6.99992 4.68457 0.25
866 2.89027 1.18863 10.0284 0.25
867 2.99792 8.294 9.50514 0.25
868 9.41709 0.869186 1.05189 0.25
869 0.778725 8.34846 5.59955 0.25
870 7.07011 6.85591 8.89257 0.25
871 7.18345 3.23748 2.28415 0.25
872 8.26021 1.40479 7.4945 0.5
873 5.20723 9.89015 5.19216 0.25
874 6.70982 9.24747 4.73664 0.25
875 3.20725 7.78035 5.1814 0.25
876 3.67454 6.02232 1.12307 0.25
877 0.563934 2.37722 3.77218 0.25
878 0.205893 10.2938 9.12357 0.25
879 1.09457 7.7437 5.0286 0.25
880 6.03008 3.85653 4.63577 0.25
881 4.18251 6.57948 8.98984 0.5
882 9.83648 0.481223 6.00344 0.25
883 5.47786 3.13321 5.64565 0.25
884 2.19713 2.15389 1.84941 0.5
885 8.67935 10.2512 3.63283 0.25
886 9.42722 8.33981 1.19683 0.25
887 1.16633 6.34202 7.63896 0.25
888 2.1331 0.455396 1.6355 0.25
889 4.74594 5.11076 8.66839 0.25
890 0.79653 3.87048 6.10453 0.25
891 3.95206 3.4249 2.58739 0.25
892 6.56623 8.67866 2.84408 0.25
893 8.15275 2.42964 0.0441659 0.25
894 1.6999 7.91699 10.09 0.25
895 9.6286 2.92287 7.222 0.25
896 9.75136 0.836162 1.47094 0.25
897 3.71205 8.04544 6.58674 0.25
898 0.987788 5.04169 5.03002 0.5
899 10.3592 0.697265 6.79591 0.25
900 8.66839 6.98339 4.52613 0.25
901 0.478547 8.02751 5.58527 0.25
902 5.09999 1.91509 1.21054 0.25
903 7.84981 7.3913 4.22079 0.25
904 1.27825 6.07581 10.353 0.5
905 8.98075 1.03097 1.25823 0.25
906 9.40068 9.59546 3.51127 0.25
907 4.73898 3.71636 2.81554 0.25