ITEM: TIMESTEP
940000
ITEM: NUMBER OF ATOMS
1000
ITEM: BOX BOUNDS xy xz yz pp pp pp
0.0000000000000000e+00 1.0357442000000001e+01 0.0000000000000000e+00
0.0000000000000000e+00 1.0357442000000001e+01 0.0000000000000000e+00
0.0000000000000000e+00 1.0357442000000001e+01 0.0000000000000000e+00
ITEM: ATOMS id x y z radius
1 1.48812 4.23079 2.93556 0.5
2 1.76649 7.69456 2.64786 0.5
3 4.96261 1.25339 0.773319 0.25
4 0.532052 2.50995 4.44502 0.25
5 9.50979 2.82464 7.01943 0.25
6 0.449494 3.03303 9.46467 0.25
7 4.47735 1.28121 3.12171 0.25
8 9.18485 4.40956 1.87634 0.25
9 9.84666 1.36314 1.6133 0.25
10 8.14722 6.84551 3.81003 0.25
11 10.321 8.88782 1.3191 0.25
12 8.13981 2.7408 9.88514 0.25
13 3.61472 7.39342 6.13423 0.25
14 5.1314 2.31266 0.303809 0.25
15 8.57076 5.7692 6.36543 0.25
16 8.67844 8.45749 6.55003 0.25
17 5.30904 9.11884 8.42693 0.5
18 2.25243 7.69686 9.63863 0.25
19 7.13943 4.50426 4.9549 0.25
20 9.22622 0.838801 1.3352 0.25
21 0.388934 10.0883 9.33275 0.25
22 4.33324 1.39844 3.52836 0.25
23 4.42663 3.72228 3.28773 0.25
24 2.80602 2.9741 4.22938 0.25
25 7.38451 1.93196 5.82892 0.25
26 5.47323 2.53501 8.4434 0.25
27 2.09108 8.8149 10.2594 0.25
28 9.01919 5.91328 6.38992 0.25
29 3.57604 7.53038 5.635 0.25
30 1.36793 8.27808 7.4894 0.25
31 1.57697 7.27761 4.97453 0.25
32 9.08788 6.55341 1.33209 0.25
33 10.2161 8.47241 1.04994 0.25
34 0.391773 2.50876 10.0788 0.25
35 8.27414 2.28201 10.0735 0.25
36 8.29956 8.90268 9.32575 0.25
37 4.16545 4.97187 5.94866 0.25
38 7.2909 0.489887 0.820695 0.25
39 6.04243 4.31582 5.15844 0.25
40 8.57757 4.20878 4.63109 0.25
41 8.18767 7.37652 4.42543 0.25
42 6.41563 8.5272 2.44992 0.5
43 0.21495 8.22829 5.72676 0.25
44 2.81905 10.3069 5.20169 0.25
45 7.39894 6.2958 8.41254 0.25
46 1.01952 8.50622 7.7938 0.25
47 4.20147 8.3555 3.76068 0.25
48 3.03758 9.84585 5.26441 0.25
49 4.89039 5.94091 9.02607 0.25
50 10.2329 9.74585 3.71287 0.25
51 9.13869 9.15155 1.18092 0.25
52 5.95122 7.25329 0.842902 0.25
53 6.42249 5.1469 2.2943 0.25
54 4.86427 4.85134 8.2186 0.25
55 5.70094 6.80207 6.74046 0.25
56 5.1942 1.93107 1.26925 0.25
57 5.40032 1.96166 0.475165 0.25
58 6.4438 4.24357 0.663608 0.25
59 3.86613 7.50224 8.74053 0.25
60 7.47948 6.10078 8.88087 0.25
61 3.40629 0.0355288 9.03755 0.25
62 9.27711 5.76871 6.80105 0.25
63 0.638296 5.65675 4.80167 0.25
64 10.2481 1.58698 1.35176 0.25
65 6.54234 6.70661 6.73399 0.25
66 4.0663 1.09153 3.29032 0.25
67 9.00685 4.78522 8.99615 0.25
68 6.16393 0.162241 10.3154 0.25
69 1.82052 7.33178 3.32447 0.25
70 3.93143 5.41328 3.85869 0.25
71 1.13171 8.4126 2.48423 0.25
72 5.46702 6.69581 3.55949 0.25
73 9.09056 8.55713 7.16675 0.5
74 2.05005 7.05221 2.56209 0.25
75 1.14254 5.94934 0.612919 0.25
76 1.74279 8.4636 10.0806 0.25
77 7.54126 6.5906 8.82674 0.25
78 3.78524 9.49035 1.57183 0.25
79 0.726545 5.61543 9.71329 0.25
80 8.53905 8.88789 9.78368 0.25
81 8.42201 9.35673 7.43538 0.25
82 2.16847 0.460569 1.5022 0.25
83 1.98512 8.35556 2.30453 0.25
84 5.24339 9.4555 5.63842 0.25
85 3.42164 6.5684 1.61898 0.25
86 9.80092 3.56212 2.01235 0.5
87 2.07369 5.54589 8.29174 0.25
88 2.89435 3.945 8.06421 0.25
89 0.251705 10.252 9.78661 0.25
90 7.02207 10.1096 1.6232 0.5
91 3.85377 7.95226 3.70088 0.25
92 9.43405 1.54986 0.924489 0.25
93 8.14671 1.03915 8.31183 0.25
94 0.929345 3.90757 2.46985 0.25
95 7.17271 8.50804 5.93887 0.25
96 7.85346 0.98683 6.76415 0.25
97 5.66042 9.68939 5.56565 0.25
98 10.3091 0.385412 5.92919 0.25
99 5.00468 1.94334 8.30778 0.5
100 5.70543 3.22005 5.88482 0.25
101 4.9711 2.28938 9.87196 0.5
102 4.2617 5.08601 8.69297 0.5
103 7.34284 0.319476 1.25062 0.25
104 1.06845 10.0211 9.87226 0.25
105 1.98408 4.67602 3.30618 0.25
106 6.10684 6.05955 6.42487 0.25
107 5.91147 10.0806 8.42587 0.25
108 1.89631 4.16963 1.87018 0.25
109 7.40504 2.66855 2.7824 0.25
110 5.75782 9.97174 5.91441 0.25
111 1.69427 5.59641 0.0656999 0.25
112 3.78274 5.18735 5.69208 0.25
113 1.76944 0.174931 4.45844 0.25
114 8.65747 6.32417 0.0346135 0.25
115 4.15529 3.68871 2.09298 0.25
116 0.403498 1.98584 3.35949 0.25
117 7.29483 2.22131 2.19223 0.5
118 6.8524 7.96223 2.62224 0.25
119 10.0139 2.56792 4.18359 0.25
120 1.4818 5.61391 9.99101 0.25
121 7.60625 1.88511 5.13102 0.5
122 1.75667 4.7874 2.51398 0.25
123 9.5464 8.75162 1.7765 0.25
124 8.39519 6.29766 0.474897 0.25
125 1.72321 9.73127 4.16151 0.25
126 6.16678 7.58824 0.565483 0.25
127 6.15866 7.12096 0.408803 0.25
128 9.44037 10.0719 4.26452 0.25
129 1.48393 4.75926 3.42209 0.25
130 9.0956 8.79992 1.5195 0.25
131 7.66474 2.87135 2.40446 0.25
132 8.56697 4.64586 4.84999 0.25
133 8.307 9.26566 9.64877 0.25
134 4.6698 3.31317 3.33217 0.25
135 6.26823 9.44874 8.22387 0.5
136 8.38711 8.93088 7.16855 0.25
137 1.48539 9.60178 1.79817 0.25
138 7.14827 4.05843 4.74491 0.25
139 7.10748 3.80243 7.99417 0.5
140 3.84263 8.29986 3.33724 0.25
141 2.79726 1.26006 1.72337 0.25
142 2.45467 2.67418 5.03677 0.25
143 7.19125 1.94059 3.34445 0.25
144 0.223487 6.24655 2.20751 0.25
145 3.9639 7.71763 5.95668 0.25
146 7.28573 9.14569 3.01727 0.25
147 3.89124 5.89324 4.01739 0.25
148 2.5158 1.47995 10.2394 0.25
149 10.3437 7.73758 9.4781 0.25
150 4.41185 4.82096 7.96531 0.25
151 6.94947 9.92173 10.1124 0.25
152 4.2 9.73731 1.38967 0.25
153 5.21369 1.64043 7.56808 0.25
154 5.66901 9.49098 7.79803 0.25
155 4.08173 6.02511 1.12697 0.25
156 0.933423 8.36343 7.2352 0.25
157 5.35306 0.391838 3.89761 0.25
158 8.63344 9.24058 6.41951 0.25
159 3.03002 2.76885 5.62108 0.25
160 2.74683 3.48246 7.88233 0.25
161 3.38098 0.169447 9.49415 0.25
162 4.05142 2.36085 5.82215 0.5
163 6.91359 9.97099 2.44807 0.25
164 5.12607 8.39093 8.22665 0.25
165 0.284729 2.913 9.89243 0.25
166 7.4365 4.11216 6.84006 0.25
167 9.11098 10.143 3.92801 0.25
168 9.71617 7.8432 8.93209 0.25
169 9.77937 6.52263 6.79681 0.25
170 3.51128 0.0793225 8.10229 0.25
171 0.873783 8.80771 6.96773 0.25
172 9.5341 5.93352 7.27607 0.25
173 0.271776 1.54099 3.54856 0.25
174 4.73853 2.09871 5.88189 0.25
175 9.19509 3.18622 7.08014 0.25
176 1.14015 6.42902 0.681289 0.25
177 9.22042 6.38184 7.37952 0.25
178 7.22408 1.30586 5.0417 0.25
179 2.50487 9.43494 7.71042 0.25
180 7.33829 8.90423 2.29551 0.5
181 1.01258 4.02635 5.74063 0.25
182 7.48094 2.14443 2.81466 0.25
183 2.82363 9.93192 4.43605 0.25
184 8.92517 5.15206 9.42981 0.25
185 8.59966 8.78705 6.21364 0.25
186 2.8766 8.15069 9.59071 0.25
187 3.20718 3.48614 10.0484 0.25
188 5.33032 2.17332 7.58151 0.25
189 10.0944 0.856648 6.04966 0.25
190 1.85502 6.95922 3.0049 0.25
191 5.19467 2.56549 9.21255 0.25
192 8.83281 9.19895 7.20413 0.25
193 5.01081 2.13212 9.08098 0.25
194 4.01795 9.37774 1.11106 0.25
195 5.06172 4.60222 9.88016 0.25
196 5.18882 1.85258 0.0507206 0.25
197 8.74069 6.38857 6.81331 0.5
198 7.68233 1.72302 7.01208 0.5
199 6.92728 -0.00971256 9.92144 0.25
200 7.0532 1.03203 6.38659 0.25
201 6.08111 6.4675 6.7679 0.25
202 3.58929 7.85099 5.21917 0.25
203 4.37971 9.44225 0.216831 0.25
204 0.633354 3.71022 6.49752 0.25
205 4.02647 0.588278 6.7013 0.25
206 0.733145 1.797 3.6918 0.25
207 1.05532 5.2532 3.82534 0.5
208 4.02457 4.74295 6.37558 0.25
209 7.25296 9.67111 2.63048 0.25
210 4.4852 0.384415 6.66128 0.25
211 1.31675 4.91517 2.72961 0.25
212 0.355956 3.94582 1.90105 0.5
213 9.54034 4.27489 2.26328 0.25
214 3.33717 5.0396 5.96508 0.25
215 9.9665 0.774068 8.46552 0.25
216 4.7658 2.47151 0.669901 0.25
217 0.495958 7.7866 5.83339 0.25
218 2.19154 1.30885 2.17218 0.5
219 0.788608 4.07534 6.1461 0.25
220 6.66611 9.1603 2.13372 0.25
221 8.4711 7.11398 3.60934 0.25
222 9.48084 6.10829 6.55764 0.25
223 5.53839 9.27051 5.25263 0.25
224 10.0195 2.99967 6.9808 0.25
225 7.96478 1.33543 5.52538 0.25
226 6.3229 8.71539 5.11126 0.25
227 7.15406 -0.00207629 0.938657 0.25
228 5.16698 1.49913 0.383437 0.25
229 2.93869 2.11207 2.16983 0.25
230 8.50904 7.64263 4.21628 0.25
231 6.42087 4.10418 7.04052 0.25
232 7.04642 9.54884 2.21749 0.25
233 8.07449 2.10988 9.36569 0.5
234 4.66291 9.06201 1.52808 0.25
235 0.751072 8.81459 7.46632 0.25
236 1.5521 5.17222 0.385632 0.25
237 7.56926 1.72692 3.09735 0.25
238 1.0874 5.51385 4.67132 0.25
239 0.935703 2.87213 9.3783 0.25
240 1.54862 8.94784 2.10661 0.5
241 1.94395 9.59337 2.02074 0.25
242 4.04467 8.0075 6.33846 0.25
243 1.94158 5.87019 0.404082 0.25
244 1.30746 0.784769 6.95296 0.25
245 6.13172 6.95592 6.88771 0.25
246 2.28078 8.41164 10.0966 0.25
247 2.50223 7.68692 2.99223 0.25
248 5.43042 2.27811 8.83603 0.25
249 6.67396 3.76889 4.70152 0.25
250 7.48256 1.25373 6.47791 0.25
251 1.39706 1.40543 6.22232 0.25
252 7.39302 7.5838 8.66551 0.25
253 3.87954 7.94053 8.95021 0.25
254 1.15464 9.95735 1.98162 0.25
255 2.03792 0.712552 1.87882 0.25
256 3.34764 5.6351 4.59801 0.25
257 0.687883 10.3189 9.56647 0.25
258 4.6121 5.58122 7.33643 0.25
259 1.85934 10.0945 3.83786 0.25
260 0.289432 10.0274 10.2368 0.25
261 7.35043 6.41833 9.25245 0.25
262 5.66538 6.84014 3.16706 0.25
263 8.30198 8.47125 9.64403 0.25
264 7.66478 9.49098 10.0618 0.5
265 4.66508 3.88821 2.75709 0.25
266 4.16736 4.49525 2.44435 0.25
267 3.14201 7.46417 5.8913 0.25
268 3.70187 7.78842 6.37552 0.25
269 7.55289 9.26248 5.96729 0.25
270 3.23329 7.5661 6.38189 0.25
271 3.80336 9.02591 1.4357 0.25
272 6.449 7.00923 5.48018 0.25
273 10.173 4.03651 7.45405 0.25
274 3.48094 4.7772 6.31028 0.25
275 10.1618 6.46328 2.79973 0.25
276 8.05517 1.08316 8.85568 0.25
277 2.85371 9.98497 8.05843 0.5
278 4.34466 5.77449 8.52061 0.25
279 2.98978 10.3347 8.73991 0.25
280 3.46375 0.618412 9.55629 0.25
281 4.44875 8.83609 3.72601 0.25
282 5.22877 0.853841 3.1085 0.25
283 9.46688 0.403415 8.97643 0.25
284 1.48068 5.21365 10.2318 0.25
285 8.60565 6.6332 1.31068 0.25
286 10.3174 1.34274 1.78382 0.25
287 1.57776 8.46111 2.7017 0.25
288 1.08444 5.67932 5.15992 0.25
289 8.92379 1.18262 1.52661 0.25
290 8.81069 4.08488 1.84004 0.25
291 7.78494 2.39796 9.98206 0.25
292 4.24055 9.30853 1.51587 0.25
293 4.89912 2.493 6.9799 0.5
294 0.060663 6.6401 2.44853 0.25
295 7.18341 0.944353 7.07389 0.5
296 2.51574 2.97636 4.65232 0.25
297 0.354996 7.95255 5.37524 0.25
298 4.12378 9.80967 0.872726 0.25
299 9.34877 5.03299 9.72891 0.25
300 2.36579 10.0342 4.52171 0.25
301 4.81364 8.30818 7.88457 0.25
302 4.85679 4.83984 7.70374 0.25
303 8.8754 5.61291 10.0583 0.5
304 3.94381 3.30366 2.32642 0.25
305 1.52393 8.24793 2.29668 0.25
306 9.89476 8.02648 9.37265 0.25
307 0.578277 9.87306 9.78292 0.25
308 8.78862 5.72804 6.79653 0.25
309 7.94808 1.90706 8.63456 0.25
310 6.77933 6.58703 6.28602 0.25
311 1.67211 0.636625 1.52904 0.25
312 8.82167 1.10217 8.62541 0.5
313 1.72246 8.21986 1.90055 0.25
314 1.05717 3.65177 2.04843 0.25
315 2.92561 0.657471 9.03642 0.5
316 7.55372 4.03472 7.33543 0.25
317 6.32444 10.1807 8.58596 0.25
318 9.48299 7.70453 9.31283 0.25
319 10.004 10.1491 3.54616 0.25
320 1.33608 2.44111 10.0014 0.25
321 2.86077 1.59652 2.13476 0.25
322 1.55323 6.78902 4.75686 0.25
323 6.50997 10.1079 9.39088 0.5
324 7.11546 1.84924 2.84679 0.25
325 9.24959 3.95521 1.62148 0.25
326 2.52625 9.9512 5.39108 0.25
327 1.60523 8.5902 7.19662 0.25
328 4.42914 3.54015 2.44456 0.25
329 8.71798 6.89561 4.28487 0.5
330 9.69032 6.33487 2.60139 0.25
331 9.23488 0.0608021 3.57244 0.25
332 6.64108 7.66549 0.761156 0.25
333 10.0579 7.52512 8.7162 0.25
334 6.40868 5.19682 1.77726 0.25
335 5.79091 4.49057 0.825634 0.25
336 9.61146 4.23186 1.77626 0.25
337 4.86208 5.54612 8.68237 0.25
338 7.09375 8.15993 2.23112 0.25
339 3.95658 5.72017 8.87433 0.25
340 0.841948 2.32932 10.0034 0.25
341 3.81855 5.89996 4.546 0.25
342 9.82799 3.67649 7.38357 0.25
343 10.2784 1.83367 3.36872 0.25
344 4.41047 0.807105 2.94098 0.25
345 6.24717 4.23747 0.196219 0.25
346 2.09112 1.74255 7.431 0.25
347 2.79906 4.09789 10.342 0.25
348 6.07385 7.462 0.085333 0.25
349 4.69971 1.57852 7.71041 0.25
350 2.57212 3.18787 8.281 0.25
351 5.00106 6.40613 3.5267 0.25
352 8.29738 6.34957 1.4359 0.25
353 10.1256 3.29207 7.40772 0.25
354 9.80063 3.42396 1.23051 0.25
355 1.82885 1.86644 1.67053 0.25
356 4.4854 10.1428 0.679735 0.25
357 3.3183 4.56417 5.87964 0.25
358 4.31857 9.81404 0.43919 0.25
359 8.99165 6.71261 0.644192 0.5
360 4.2263 0.464963 6.26277 0.25
361 0.132044 0.67659 6.30545 0.25
362 9.56729 7.40428 8.88735 0.25
363 7.12828 2.96891 2.45251 0.25
364 9.94278 6.73594 2.40266 0.25
365 5.8943 9.01395 5.09899 0.25
366 9.2234 3.97283 2.11925 0.25
367 3.45433 0.33895 8.62821 0.25
368 9.74209 6.40895 7.2586 0.25
369 9.25899 4.44936 4.63276 0.5
370 4.66936 1.51 6.9066 0.5
371 9.56661 6.31949 1.8134 0.5
372 1.21522 2.28636 4.07592 0.5
373 3.40258 10.2075 8.53907 0.25
374 3.61476 0.476018 9.10149 0.25
375 5.24819 0.367552 3.31456 0.25
376 0.77417 5.7284 4.3556 0.25
377 9.95358 7.54193 9.23615 0.25
378 9.40445 9.22903 1.61202 0.25
379 0.432171 3.33647 6.26244 0.25
380 2.08531 2.66483 4.64092 0.25
381 6.93512 5.67501 2.1151 0.5
382 2.76437 8.36774 10.0529 0.25
383 5.60676 8.43994 8.42254 0.25
384 1.9 6.89388 7.65945 0.25
385 1.29708 6.87335 5.14826 0.25
386 1.61235 5.71164 7.64298 0.25
387 1.32317 6.0802 7.58693 0.25
388 2.47982 2.39456 2.06802 0.25
389 4.77125 2.04591 1.04817 0.25
390 3.09809 3.94687 9.96896 0.25
391 4.3681 0.776551 6.986 0.25
392 0.631495 5.78394 5.31533 0.25
393 8.99334 8.89448 6.46218 0.25
394 0.113198 0.12864 6.26623 0.25
395 2.12244 4.6533 2.76292 0.25
396 3.06943 0.417616 9.81077 0.25
397 7.07714 2.29668 3.00456 0.25
398 9.87528 4.80078 9.06394 0.25
399 2.35185 9.83762 7.54191 0.25
400 8.16773 3.10863 10.2457 0.25
401 5.18814 6.68425 3.17231 0.25
402 4.50226 5.74076 8.98061 0.25
403 5.82808 5.00648 0.650969 0.25
404 7.23892 3.54473 10.053 0.25
405 1.5331 5.66595 0.511838 0.25
406 6.3327 9.16592 5.20027 0.25
407 7.14278 6.83023 9.02574 0.25
408 9.93993 8.62032 1.45861 0.25
409 10.2431 6.60955 1.97016 0.25
410 5.05681 1.61837 4.22905 0.25
411 7.87524 8.80358 10.2849 0.25
412 4.88572 1.97858 7.49444 0.25
413 6.91249 2.61359 2.66435 0.25
414 6.88547 5.77224 2.81681 0.25
415 4.6783 0.730846 3.63862 0.5
416 9.92974 0.668402 8.92579 0.25
417 3.38857 8.18677 5.95195 0.5
418 0.72851 1.00878 6.52097 0.5
419 8.8509 10.0869 3.4789 0.25
420 5.53146 8.60435 7.92728 0.25
421 9.37508 6.59766 6.55803 0.25
422 2.41614 6.85065 2.86512 0.25
423 1.75461 4.93561 2.9858 0.25
424 10.2869 10.3173 9.41353 0.25
425 2.19973 0.0921864 4.6704 0.25
426 2.0846 2.06337 2.0303 0.25
427 7.12193 1.5411 6.51191 0.25
428 7.40594 9.53127 1.96502 0.25
429 5.36621 9.05221 7.66556 0.25
430 10.0882 9.28107 3.58532 0.25
431 6.68684 10.2321 0.978806 0.25
432 2.6294 7.84418 9.31276 0.25
433 2.88557 2.45921 5.21303 0.25
434 6.17221 9.79571 8.79879 0.25
435 0.785134 3.35618 9.39389 0.25
436 6.31389 4.67245 10.3434 0.25
437 0.626247 6.25711 0.0513006 0.25
438 7.52048 0.797618 6.42409 0.25
439 9.47082 9.69918 3.56447 0.5
440 2.42947 2.78998 7.62953 0.5
441 1.36333 3.73926 2.386 0.25
442 5.80132 7.75028 0.791803 0.25
443 9.89651 9.95221 4.08245 0.25
444 1.53984 3.79385 1.88256 0.25
445 4.97008 6.89173 3.55115 0.25
446 8.4588 4.5347 4.34554 0.25
447 6.19676 5.03893 0.280507 0.25
448 5.12228 1.47754 3.49265 0.5
449 0.468477 0.393281 6.07117 0.25
450 1.69963 1.1148 1.70801 0.25
451 3.47033 3.84354 0.40154 0.25
452 5.95658 4.12592 4.30995 0.25
453 6.68564 4.28358 8.45036 0.25
454 1.30227 5.4469 8.39519 0.25
455 1.33375 5.8574 8.04024 0.25
456 2.48894 1.95154 2.24125 0.25
457 9.81581 9.22417 0.900853 0.5
458 1.73682 6.1146 7.30066 0.25
459 1.27629 1.55992 6.64804 0.25
460 2.0176 5.74546 7.33152 0.25
461 3.74451 6.33087 0.859454 0.25
462 3.33727 6.37398 1.14622 0.25
463 1.48115 10.1644 4.22292 0.25
464 9.85607 1.3593 1.1276 0.25
465 6.59577 5.39804 2.7126 0.25
466 4.84077 5.53717 8.01391 0.5
467 3.3078 5.23956 5.43804 0.25
468 2.04001 1.45473 1.41651 0.25
469 4.21661 3.28222 3.22436 0.25
470 4.60138 4.17362 3.15777 0.25
471 3.11017 10.087 4.83872 0.25
472 2.01972 2.26004 7.28081 0.25
473 3.02067 7.95583 9.98751 0.25
474 9.0297 3.62807 1.85221 0.25
475 9.38914 7.22714 4.34824 0.25
476 3.4447 6.05412 1.56775 0.25
477 10.0519 9.45518 4.05901 0.25
478 8.74662 5.90345 1.03764 0.5
479 6.9195 0.514748 1.52632 0.25
480 2.49305 8.06037 9.78766 0.25
481 4.60756 9.58041 1.651 0.25
482 6.47427 9.63354 5.3871 0.25
483 6.89343 0.156831 0.272303 0.5
484 9.65379 3.26287 7.1969 0.25
485 7.43111 3.14621 9.81257 0.25
486 3.95851 8.75153 3.58801 0.25
487 2.73338 3.6432 10.1721 0.25
488 6.93112 9.38065 1.77253 0.25
489 9.06188 6.59458 3.68411 0.25
490 2.97459 3.26992 7.51817 0.25
491 8.62559 8.88376 6.7524 0.25
492 8.01306 2.62748 0.0372597 0.25
493 9.46229 3.64029 6.98145 0.25
494 8.60502 4.25533 5.12339 0.25
495 9.61657 3.21816 6.70943 0.25
496 4.45099 1.86436 6.19301 0.25
497 2.97402 4.09118 0.455267 0.25
498 8.32333 1.43525 9.04543 0.25
499 4.21415 8.91672 1.1889 0.25
500 4.14884 7.57173 9.13524 0.25
501 2.37862 10.2029 5.04116 0.25
502 9.03672 5.91874 7.20668 0.25
503 6.75453 8.26985 3.04278 0.25
504 6.45424 7.22442 0.85246 0.25
505 7.26019 1.24225 5.74743 0.5
506 5.65479 10.1544 5.49307 0.25
507 7.13621 8.33667 2.69908 0.25
508 4.80275 8.63639 8.61473 0.25
509 1.11993 8.98273 7.73609 0.25
510 5.72702 4.199 4.79441 0.25
511 4.41623 0.833737 6.49707 0.25
512 1.09614 4.79313 3.1429 0.25
513 1.12673 5.32921 9.85148 0.25
514 3.67046 2.66175 5.09046 0.25
515 1.94897 1.7034 6.75443 0.5
516 6.03153 9.23078 5.84404 0.5
517 9.39371 6.86141 3.96344 0.25
518 2.60149 0.61433 9.80713 0.25
519 2.70669 10.3527 4.72123 0.25
520 5.23984 1.89704 7.16627 0.25
521 1.17668 4.47243 5.55587 0.25
522 1.73102 0.171335 3.94228 0.25
523 2.26898 3.47906 7.98742 0.25
524 7.52192 1.34425 4.63825 0.25
525 2.31399 6.65608 7.43528 0.25
526 1.63206 5.80864 8.43074 0.25
527 6.57331 9.37912 2.82779 0.5
528 7.48474 8.62059 2.94003 0.25
529 3.60292 5.87628 2.03605 0.25
530 1.41638 7.81074 1.97973 0.25
531 0.436144 3.42418 9.73935 0.25
532 2.4634 8.54951 0.131577 0.25
533 9.11317 9.74529 4.20995 0.25
534 8.84053 4.69859 4.05696 0.25
535 7.44286 7.20418 8.35161 0.25
536 4.05291 9.41504 0.626914 0.25
537 7.84184 2.46884 2.67424 0.25
538 6.44236 4.01201 7.55517 0.25
539 10.2243 3.64393 6.75295 0.5
540 5.9099 9.97286 7.89693 0.25
541 9.54656 8.84283 1.31804 0.25
542 7.23548 8.92219 6.21146 0.25
543 9.12482 3.93052 4.15621 0.25
544 1.64631 1.99793 7.41627 0.25
545 10.1106 9.69456 3.22961 0.25
546 10.2666 1.04552 6.54388 0.25
547 9.73611 3.90076 1.3367 0.25
548 9.45294 4.58867 9.07072 0.25
549 2.50059 0.79816 1.67463 0.25
550 9.89164 9.07814 1.60292 0.25
551 2.15478 7.67899 3.31695 0.25
552 8.97532 9.30294 6.7871 0.25
553 5.2146 3.29902 5.77476 0.25
554 8.751 4.20887 4.1417 0.25
555 5.81658 8.98005 7.86763 0.25
556 1.02568 9.17751 7.28903 0.25
557 2.79943 9.63024 7.4133 0.25
558 3.22961 3.51561 7.92295 0.25
559 9.59671 1.15994 8.44671 0.25
560 3.7534 4.75712 5.91557 0.25
561 1.10505 3.87959 1.59192 0.25
562 4.95543 4.97742 10.1705 0.25
563 5.57775 9.77718 8.20186 0.25
564 1.74891 1.0406 7.06331 0.25
565 2.07793 0.944046 1.43516 0.25
566 9.80427 6.02377 6.88253 0.25
567 1.599 6.19886 0.664751 0.25
568 7.68806 1.17619 5.10119 0.25
569 7.02258 4.54191 7.36333 0.5
570 4.18392 3.16456 2.74618 0.25
571 4.57085 4.36581 2.70542 0.25
572 8.41112 1.80791 8.72542 0.25
573 0.806053 6.98533 5.02778 0.25
574 0.0870756 1.15705 6.11828 0.25
575 6.30772 3.75884 4.35218 0.25
576 5.12569 1.72927 0.815883 0.25
577 0.533666 7.77954 4.8997 0.25
578 0.896376 5.51758 0.0962732 0.5
579 4.94777 5.13782 7.33958 0.25
580 9.10357 7.32366 4.7778 0.25
581 6.79904 6.77434 8.62279 0.25
582 6.82906 4.06483 5.08724 0.25
583 8.28705 5.78049 6.77747 0.25
584 5.36473 7.07467 3.8374 0.25
585 6.87175 0.373173 1.07456 0.25
586 1.89147 2.57897 4.20567 0.25
587 6.12989 9.95558 5.59655 0.25
588 2.66045 1.34956 9.23399 0.25
589 10.2376 3.75317 1.35137 0.25
590 8.972 7.05825 3.67027 0.25
591 3.52606 2.84537 5.50865 0.25
592 7.0431 5.30192 2.86458 0.25
593 5.4571 9.57295 6.03895 0.25
594 9.1559 6.22681 10.3412 0.25
595 1.76704 2.41192 7.6845 0.25
596 9.73024 8.46905 1.02328 0.25
597 4.86523 0.573386 2.95953 0.25
598 6.19581 7.59369 1.06747 0.25
599 10.2097 1.07952 1.36168 0.25
600 3.89882 9.17901 1.93528 0.25
601 7.3904 9.95469 2.2352 0.25
602 6.27678 8.25002 3.20723 0.25
603 2.26338 6.20128 7.22052 0.25
604 9.12215 0.707629 0.843902 0.25
605 1.16015 7.93921 2.39899 0.25
606 1.64974 1.47959 7.36182 0.25
607 2.11666 2.09796 7.7189 0.25
608 6.57399 5.97223 5.83796 0.5
609 3.667 6.74606 1.17572 0.25
610 6.43686 4.89681 1.03415 0.5
611 8.39065 8.52311 7.48873 0.25
612 8.55951 0.298969 3.83891 0.5
613 7.74591 2.78719 9.60874 0.25
614 9.4926 6.80633 1.23065 0.25
615 7.6534 4.25635 7.75157 0.25
616 1.33705 1.29798 7.03655 0.25
617 2.97442 3.14199 8.0383 0.25
618 7.68269 3.41009 10.1409 0.25
619 1.54184 9.77128 2.26644 0.25
620 6.69856 5.45923 3.19595 0.25
621 6.91343 5.10192 1.60187 0.25
622 6.97576 7.06998 8.24151 0.25
623 7.87404 4.32372 4.82299 0.5
624 4.70456 8.69574 8.17934 0.25
625 4.72979 2.56831 0.187474 0.25
626 2.32308 2.8099 4.20067 0.25
627 7.36391 5.63365 2.75801 0.25
628 0.771531 9.74399 10.2052 0.25
629 7.38739 10.1575 10.1301 0.25
630 5.80874 7.8624 0.2933 0.25
631 8.22186 1.40519 5.10985 0.25
632 3.09091 3.7786 0.0918229 0.25
633 3.3013 4.23475 0.0260841 0.25
634 4.45966 7.97521 8.49334 0.5
635 9.3732 6.23672 6.95129 0.25
636 8.85994 4.90051 9.80677 0.25
637 6.31544 9.11682 4.785 0.25
638 1.82099 9.8754 4.90169 0.5
639 6.81211 2.8088 2.14483 0.25
640 7.52026 1.82278 7.77428 0.25
641 3.40173 5.92486 4.23788 0.25
642 3.62108 7.39725 6.66433 0.25
643 2.58561 1.85575 9.89246 0.25
644 5.95496 9.74664 4.88306 0.5
645 3.35283 3.40396 0.192693 0.25
646 9.02158 7.52943 4.32616 0.25
647 6.80209 6.749 5.73232 0.25
648 7.2259 1.44268 7.61381 0.25
649 4.74093 6.02631 8.61054 0.25
650 7.85605 1.91693 2.68468 0.25
651 5.03686 8.7253 7.81564 0.25
652 1.76143 5.30281 8.55027 0.25
653 0.750692 4.47772 5.76377 0.25
654 1.50685 6.54826 7.6035 0.25
655 10.0841 4.18242 1.60703 0.25
656 4.50785 5.08794 7.53874 0.25
657 8.46729 9.33028 6.91841 0.25
658 6.5257 4.28962 7.96873 0.25
659 9.28436 0.182502 4.11501 0.25
660 2.03302 6.21473 7.95332 0.5
661 2.18798 7.25756 3.02521 0.25
662 7.56475 8.77673 5.8418 0.25
663 3.55834 0.97819 9.26243 0.25
664 0.714908 2.43708 0.147308 0.25
665 8.29932 6.55964 0.932857 0.25
666 5.72108 9.72771 8.67875 0.25
667 7.32823 3.06926 10.3059 0.25
668 6.83258 1.65437 5.21633 0.25
669 3.36518 7.60013 9.41559 0.5
670 10.3419 3.24509 9.68164 0.25
671 0.983067 6.31316 4.78648 0.5
672 5.94877 6.26124 5.5972 0.25
673 4.15979 9.58656 1.89895 0.25
674 7.26174 4.51372 4.47775 0.25
675 8.10686 8.96256 7.62763 0.25
676 4.56046 1.84805 0.404193 0.5
677 9.73909 3.27441 7.6736 0.25
678 9.89618 0.421245 6.6112 0.5
679 2.46299 2.07212 7.28657 0.25
680 2.67755 7.23087 3.05143 0.25
681 8.01313 9.23884 7.14703 0.25
682 3.12856 7.70284 5.43641 0.25
683 0.359413 2.85324 0.0817355 0.25
684 1.33463 8.95977 6.93381 0.25
685 8.74319 9.86761 3.92995 0.25
686 6.66667 9.43937 4.90727 0.25
687 9.31854 3.51962 7.47847 0.25
688 5.63061 7.59986 10.3274 0.25
689 2.23431 2.40171 3.87275 0.25
690 0.0500221 7.42725 9.13257 0.25
691 0.727813 8.16522 5.60889 0.25
692 1.17478 4.39244 6.03733 0.25
693 9.90074 1.94503 3.66747 0.25
694 2.90446 3.32956 0.131026 0.25
695 7.98159 1.28236 4.71273 0.25
696 5.29749 0.889407 4.03349 0.25
697 1.17094 8.70477 7.31999 0.25
698 8.46531 5.8717 0.259908 0.25
699 3.95481 7.9173 5.50731 0.25
700 6.03595 7.84594 10.1661 0.25
701 3.51724 4.8018 5.50776 0.25
702 6.27083 3.5339 4.81171 0.25
703 1.57196 0.780915 2.00254 0.25
704 7.16255 4.30511 8.48762 0.25
705 4.58435 5.95596 9.4264 0.25
706 7.63003 1.31863 7.64558 0.25
707 6.05273 6.72658 5.36061 0.25
708 5.36715 7.13827 3.37175 0.25
709 1.22343 4.44926 2.08604 0.5
710 1.00051 4.84325 5.87989 0.25
711 7.21425 3.75384 7.21652 0.25
712 4.0826 8.74867 4.06515 0.25
713 1.39626 5.22912 3.14995 0.25
714 1.94155 10.1777 4.26065 0.25
715 2.91977 3.80081 7.59043 0.25
716 9.21719 8.69767 1.03643 0.25
717 3.11318 5.3441 4.98422 0.25
718 5.73418 3.62298 5.32234 0.5
719 5.87405 2.9057 5.59627 0.25
720 5.44461 1.32347 4.14262 0.25
721 3.42278 7.84097 6.73678 0.25
722 3.97543 5.09815 4.2393 0.25
723 5.69882 6.36016 6.50413 0.25
724 9.52044 0.818809 8.71259 0.25
725 4.07687 0.106858 6.58923 0.25
726 3.69222 5.51541 4.24795 0.25
727 4.18184 5.54074 4.3085 0.25
728 2.19591 8.56125 9.43552 0.5
729 7.84771 1.79225 5.82234 0.25
730 7.83691 1.53412 8.98464 0.25
731 0.706165 6.07491 9.94395 0.25
732 4.06163 7.47067 6.36582 0.25
733 9.83797 2.2096 4.46635 0.25
734 8.77616 7.47116 3.88811 0.25
735 3.34909 2.45331 5.40867 0.25
736 8.69715 6.20321 6.10467 0.25
737 0.810125 4.24778 5.3462 0.25
738 5.21104 8.3321 8.69423 0.25
739 2.64724 3.73159 0.283661 0.25
740 8.79445 6.33799 1.59111 0.25
741 7.31319 2.97571 2.02891 0.25
742 5.17248 2.22741 0.798985 0.25
743 9.73014 1.84743 4.17774 0.25
744 2.60807 2.23698 4.51614 0.5
745 0.53053 4.01209 5.71098 0.25
746 6.64788 5.50365 1.41206 0.25
747 7.86999 2.15887 -0.00522207 0.25
748 7.18966 10.031 9.67002 0.25
749 7.37295 4.5317 8.04273 0.25
750 4.3719 2.15895 6.5795 0.25
751 1.76978 2.36347 4.56433 0.25
752 9.78698 2.26024 3.95059 0.25
753 0.951159 3.06999 10.0914 0.5
754 8.26522 1.72135 5.49742 0.25
755 7.73217 2.92486 10.1625 0.25
756 5.26658 1.41934 1.16257 0.25
757 0.113607 1.99442 4.1115 0.5
758 2.17068 9.79672 4.09215 0.25
759 5.02354 2.67374 8.21726 0.25
760 4.56852 1.44967 4.00749 0.25
761 5.82513 6.12114 6.07436 0.25
762 0.31899 3.87663 6.18054 0.25
763 6.50822 4.51416 4.57385 0.5
764 5.16029 6.62009 3.94616 0.25
765 7.56845 7.10932 8.80081 0.25
766 1.75571 5.13136 3.43966 0.25
767 6.55341 2.44764 2.32447 0.25
768 5.26722 2.60792 5.98751 0.5
769 1.12624 2.48141 9.56802 0.25
770 6.10341 6.7726 6.10882 0.5
771 5.74702 7.09498 0.040537 0.25
772 6.95787 9.07133 5.51331 0.5
773 5.93577 4.09955 0.567307 0.25
774 7.01295 8.74521 2.96715 0.25
775 10.2051 7.87725 9.02895 0.25
776 4.77264 9.82591 0.281349 0.25
777 1.19482 8.26543 1.95819 0.25
778 3.09987 0.264902 8.3674 0.25
779 0.377666 7.81849 9.1009 0.25
780 5.34587 5.01719 9.9154 0.25
781 5.82858 7.10197 3.5471 0.25
782 9.40869 6.29853 1.09046 0.25
783 4.28574 8.58187 3.27815 0.25
784 3.04276 3.61152 0.565539 0.25
785 8.64271 8.96887 7.58482 0.25
786 6.46929 6.69926 5.04225 0.25
787 6.23819 6.26658 5.1919 0.25
788 4.9369 1.16456 4.18941 0.25
789 7.20319 5.00035 2.05524 0.25
790 4.86186 2.03592 6.37697 0.25
791 8.25535 6.11337 6.31448 0.25
792 3.93137 3.91112 2.81358 0.5
793 10.3 0.427126 8.69317 0.25
794 2.44193 1.22823 1.43962 0.25
795 1.50756 8.61786 7.73932 0.25
796 2.49742 0.156273 4.04563 0.5
797 9.99086 9.25503 3.13095 0.25
798 9.15097 4.33449 3.9024 0.25
799 4.4008 6.69342 1.03811 0.5
800 9.71567 1.75963 1.33864 0.25
801 6.11713 0.0929858 9.83593 0.25
802 6.57405 7.40606 0.342924 0.25
803 9.40253 5.03506 9.2288 0.25
804 4.18075 5.26702 7.91546 0.25
805 8.77051 3.82 4.42643 0.25
806 2.13237 9.72793 7.95289 0.25
807 3.03656 4.79888 5.6271 0.25
808 8.68145 4.72366 9.37948 0.25
809 1.11761 5.8651 9.83618 0.25
810 7.56374 1.67992 6.23134 0.25
811 9.65161 4.70292 9.51165 0.25
812 3.79132 6.34291 1.37205 0.25
813 1.82364 3.92677 2.29569 0.25
814 1.02921 10.0873 0.0603261 0.25
815 3.86643 5.19035 4.94754 0.5
816 6.52956 0.310458 9.96912 0.25
817 4.747 9.44017 0.901321 0.5
818 8.88863 6.08337 0.339195 0.25
819 3.90549 5.89772 1.62455 0.25
820 7.62097 4.26674 8.31386 0.25
821 7.99724 8.6783 7.21851 0.25
822 4.90952 3.78612 3.1863 0.25
823 1.74237 9.27819 7.4713 0.5
824 6.74703 3.79955 7.27074 0.25
825 7.9393 8.88831 6.48533 0.5
826 6.69417 2.42427 1.8622 0.25
827 9.22085 6.31853 6.1582 0.25
828 9.99054 4.22713 2.03441 0.25
829 0.963189 7.909 4.72649 0.25
830 3.74924 6.29888 1.87895 0.25
831 2.46806 7.30949 2.61725 0.25
832 4.17532 5.66338 9.31165 0.25
833 6.5049 6.27622 6.53988 0.25
834 8.40472 3.80389 4.8132 0.25
835 1.48506 1.13668 6.62442 0.25
836 6.88936 5.02108 2.48153 0.25
837 3.91481 7.09504 9.0929 0.25
838 2.40109 9.48864 7.21281 0.25
839 0.114923 2.76186 4.21912 0.25
840 9.34016 4.80873 3.93909 0.25
841 5.5685 4.54062 0.048832 0.5
842 7.08905 7.23212 8.70193 0.25
843 1.10223 9.53267 2.20227 0.25
844 6.76787 4.94981 2.02795 0.25
845 8.3437 3.95389 4.30113 0.25
846 0.604735 5.28089 4.49241 0.25
847 7.47073 2.53972 10.3976 0.25
848 3.08636 1.20131 9.84878 0.5
849 7.35931 5.19346 2.46584 0.25
850 3.71298 8.42797 3.83386 0.25
851 3.90865 6.73686 1.6385 0.25
852 5.70372 1.09486 3.79717 0.25
853 9.61713 10.3327 3.88822 0.25
854 2.51024 3.54041 7.52274 0.25
855 3.60828 5.92669 1.1553 0.25
856 9.38429 3.00363 7.48502 0.25
857 6.38102 3.93618 5.12378 0.25
858 7.91912 7.05299 4.19381 0.25
859 9.40368 1.31871 1.39633 0.25
860 3.13069 10.3492 4.41507 0.25
861 4.44053 9.18597 1.99025 0.25
862 7.43113 1.2956 8.3512 0.5
863 0.20562 3.29236 10.1773 0.25
864 4.06329 4.17382 2.03727 0.25
865 1.14606 7.08338 4.74766 0.25
866 2.39496 1.0386 10.0396 0.25
867 3.04088 7.45767 10.0638 0.25
868 9.51038 1.04798 0.960075 0.25
869 0.258759 8.19852 4.93525 0.25
870 7.24456 6.78685 8.50008 0.25
871 7.02459 2.78206 1.72093 0.25
872 8.20678 1.77609 7.94156 0.5
873 5.32659 9.76988 5.3158 0.25
874 6.71903 8.95513 4.87014 0.25
875 3.79432 8.346 5.28489 0.25
876 4.18864 6.26332 1.5958 0.25
877 0.6114 2.29624 3.69542 0.25
878 0.125604 0.068081 8.99169 0.25
879 0.82746 7.44623 4.72161 0.25
880 5.8028 3.72104 4.53753 0.25
881 4.21102 6.40405 9.00004 0.5
882 10.0066 10.3326 5.97806 0.25
883 5.4665 2.99493 5.45348 0.25
884 2.60046 1.93196 1.49578 0.5
885 8.46579 10.0868 4.24491 0.25
886 9.43375 8.38353 1.44204 0.25
887 1.27289 6.38706 7.99193 0.25
888 1.84981 0.689129 2.37888 0.25
889 5.03084 5.11009 8.63723 0.25
890 0.746752 3.65616 5.97357 0.25
891 4.43906 4.04668 2.33396 0.25
892 6.50887 8.69906 3.15513 0.25
893 7.95687 3.22546 9.81346 0.25
894 2.55519 8.8325 10.0426 0.25
895 9.83858 2.87202 7.41922 0.25
896 9.73474 0.908566 1.43198 0.25
897 3.90598 7.72548 6.76932 0.25
898 0.796255 5.01183 5.20388 0.5
899 0.257929 0.811369 5.86863 0.25
900 9.25466 7.37363 3.92809 0.25
901 0.717321 8.17829 5.10633 0.25
902 4.82255 1.59447 1.16879 0.25
903 8.63745 7.48409 4.67437 0.25
904 1.375 6.27376 10.3796 0.5
905 9.02441 1.18958 1.03055 0.25
906 9.62082 9.60261 4.25584 0.25
907 4.58501 3.46048 2.88915 0.25
908 7.07437 6.37392 8.77566 0.25