ITEM: TIMESTEP
510000
ITEM: NUMBER OF ATOMS
1000
ITEM: BOX BOUNDS xy xz yz pp pp pp
0.0000000000000000e+00 1.0357442000000001e+01 0.0000000000000000e+00
0.0000000000000000e+00 1.0357442000000001e+01 0.0000000000000000e+00
0.0000000000000000e+00 1.0357442000000001e+01 0.0000000000000000e+00
ITEM: ATOMS id x y z radius
1 1.41579 4.37633 2.78402 0.5
2 2.16303 7.80351 2.61092 0.5
3 5.55408 1.72287 1.01325 0.25
4 0.622469 2.84371 4.3215 0.25
5 9.06847 3.46065 7.28161 0.25
6 0.0677305 2.72573 10.1238 0.25
7 4.34066 1.04625 3.75919 0.25
8 9.08551 3.67127 2.31172 0.25
9 9.96173 1.48629 1.79909 0.25
10 7.91005 7.00692 4.13605 0.25
11 10.011 8.71748 0.814277 0.25
12 8.30652 2.93441 10.0568 0.25
13 3.86012 7.8921 6.00241 0.25
14 5.25869 2.40989 0.177714 0.25
15 8.59906 5.72026 6.42152 0.25
16 8.47622 8.82946 6.12482 0.25
17 5.48173 8.82277 8.55271 0.5
18 2.82523 7.86342 10.2612 0.25
19 7.04005 4.74206 4.69732 0.25
20 9.24949 1.11225 1.4662 0.25
21 0.34426 0.337504 9.77102 0.25
22 4.33297 0.568758 3.85845 0.25
23 4.82765 3.36911 2.70552 0.25
24 2.82563 2.71201 4.05594 0.25
25 6.86671 1.80332 6.14331 0.25
26 5.22588 2.75298 8.33513 0.25
27 1.36325 7.99508 0.29619 0.25
28 9.07198 5.94581 6.21698 0.25
29 3.73256 8.07654 5.54274 0.25
30 1.00331 8.87261 6.98493 0.25
31 0.542229 7.31043 4.82705 0.25
32 9.32109 6.57931 1.30153 0.25
33 10.1013 8.42424 1.20155 0.25
34 0.766077 2.42157 9.52694 0.25
35 8.67886 2.59715 10.0784 0.25
36 8.14558 8.44917 10.0156 0.25
37 4.12412 4.97536 5.84212 0.25
38 7.74039 0.246633 1.02348 0.25
39 6.06922 4.31759 4.82391 0.25
40 8.45794 4.20616 4.69234 0.25
41 8.43963 7.55864 4.7328 0.25
42 7.09427 8.56301 2.22072 0.5
43 0.342091 8.46424 5.64622 0.25
44 3.1334 10.0251 4.76658 0.25
45 6.76428 6.2816 8.42039 0.25
46 0.983932 8.44311 7.23989 0.25
47 4.34718 8.43107 3.63951 0.25
48 3.29993 0.13349 4.75718 0.25
49 4.10491 5.87273 9.35779 0.25
50 10.0468 9.41623 3.59124 0.25
51 9.0589 8.97795 1.51047 0.25
52 6.3645 7.51181 10.3605 0.25
53 6.54021 5.25635 1.53768 0.25
54 4.58117 4.95656 8.10835 0.25
55 5.73253 6.10765 6.59986 0.25
56 5.15078 1.47947 1.18865 0.25
57 5.53548 2.50915 0.562024 0.25
58 5.91993 4.60282 0.465377 0.25
59 3.95892 7.37975 9.27954 0.25
60 7.07426 5.93252 8.6507 0.25
61 2.9556 10.2769 8.85032 0.25
62 9.39364 5.80738 6.69897 0.25
63 0.693404 5.17566 4.46663 0.25
64 0.11667 1.2989 1.65618 0.25
65 5.71133 6.92897 6.47076 0.25
66 4.22093 0.761958 3.36812 0.25
67 9.23467 5.26461 9.18054 0.25
68 6.30979 0.155584 10.3555 0.25
69 2.77893 7.84826 3.05237 0.25
70 3.95604 5.71484 3.74766 0.25
71 1.19478 8.29709 2.3603 0.25
72 5.50682 6.69033 3.34805 0.25
73 8.87647 8.66787 7.13932 0.5
74 2.37301 7.61196 3.33917 0.25
75 1.15148 5.92964 0.606317 0.25
76 1.36768 8.28925 10.2493 0.25
77 7.25183 6.37203 8.53665 0.25
78 3.70172 9.67898 1.24312 0.25
79 0.974606 5.19373 9.45932 0.25
80 8.28628 8.54631 9.56169 0.25
81 8.14651 8.81723 7.45496 0.25
82 1.6533 1.06174 2.18794 0.25
83 1.76435 8.35662 2.96214 0.25
84 5.01195 9.59507 5.58851 0.25
85 4.29339 6.20933 0.870357 0.25
86 9.56944 4.30282 1.56657 0.5
87 0.804863 5.5203 8.15769 0.25
88 2.79866 3.84313 8.10156 0.25
89 1.10487 0.369897 10.0897 0.25
90 7.18726 10.1714 1.48032 0.5
91 4.06005 8.73755 3.31856 0.25
92 9.91692 1.22945 1.00179 0.25
93 8.4534 0.833433 8.03737 0.25
94 0.879736 4.29538 1.56913 0.25
95 7.04157 8.98485 6.22237 0.25
96 7.68624 1.18677 7.13497 0.25
97 5.48905 9.8056 5.55137 0.25
98 9.71194 0.561509 6.26476 0.25
99 5.22042 1.98664 8.19354 0.5
100 5.30937 3.57679 5.44 0.25
101 5.40158 2.26317 9.78109 0.5
102 3.99312 5.3196 8.45013 0.5
103 7.40068 0.111243 0.83261 0.25
104 1.0408 10.3395 0.0131933 0.25
105 1.91465 5.29433 3.05578 0.25
106 6.4537 6.52204 6.51296 0.25
107 5.87596 10.0147 8.8201 0.25
108 1.90283 3.77272 1.93098 0.25
109 7.10711 2.03658 2.73776 0.25
110 5.54462 9.97045 6.03527 0.25
111 1.80416 5.53525 0.691418 0.25
112 3.74608 5.21592 5.56428 0.25
113 2.18862 9.8638 4.50321 0.25
114 8.6423 6.05386 0.208443 0.25
115 3.74137 3.45118 2.28635 0.25
116 0.214701 1.74051 3.8795 0.25
117 7.46568 2.67713 2.864 0.5
118 7.42883 8.26896 2.75751 0.25
119 10.0865 2.71616 4.27844 0.25
120 1.68267 5.47967 0.146856 0.25
121 7.18022 2.06443 5.48718 0.5
122 2.05274 4.5653 2.46583 0.25
123 9.72878 9.3893 1.33255 0.25
124 8.49051 6.1285 0.693144 0.25
125 1.43127 10.0922 4.51538 0.25
126 6.36096 7.34992 0.484829 0.25
127 6.28681 7.86192 0.362485 0.25
128 9.41336 9.49522 4.22828 0.25
129 1.488 5.40323 3.21064 0.25
130 9.4124 9.29119 1.72077 0.25
131 6.97443 2.11796 3.18716 0.25
132 8.74216 3.85254 4.92292 0.25
133 7.86736 8.73299 9.74198 0.25
134 5.15159 3.63964 2.45134 0.25
135 5.90607 9.68047 8.08695 0.5
136 8.21607 8.84784 6.96291 0.25
137 1.227 9.58161 2.83637 0.25
138 7.08537 4.3607 5.03221 0.25
139 6.96619 3.85871 7.75598 0.5
140 4.71428 8.24615 3.92838 0.25
141 2.22657 1.92523 2.13649 0.25
142 2.91808 3.1057 4.88828 0.25
143 8.19146 1.51563 3.8235 0.25
144 10.1073 6.75513 2.57735 0.25
145 3.4766 8.197 6.01744 0.25
146 6.69225 9.75405 2.94841 0.25
147 4.40771 5.85415 4.01888 0.25
148 3.23776 1.45541 10.2267 0.25
149 9.69385 7.66253 8.75874 0.25
150 4.25152 5.07021 7.76916 0.25
151 6.9737 9.93171 9.97178 0.25
152 4.13181 9.6022 0.979337 0.25
153 5.35501 1.84412 7.47836 0.25
154 5.30877 9.4689 8.4525 0.25
155 3.69125 6.34872 1.59902 0.25
156 0.663873 8.75243 7.37274 0.25
157 5.62141 0.919514 3.22038 0.25
158 8.58055 9.30748 6.35327 0.25
159 3.37401 3.05533 5.17798 0.25
160 2.6538 3.38754 7.88052 0.25
161 3.08614 10.2695 9.40715 0.25
162 4.129 2.43909 5.77313 0.5
163 7.04789 10.256 2.18235 0.25
164 5.15419 8.34136 8.08045 0.25
165 0.59181 2.86792 9.55067 0.25
166 7.04329 4.09798 6.55616 0.25
167 9.01896 10.1943 4.04586 0.25
168 10.1085 7.54828 9.46378 0.25
169 9.60106 6.81428 7.26759 0.25
170 3.44974 0.235797 8.19698 0.25
171 0.787743 8.98105 7.80692 0.25
172 9.43743 6.03744 7.15199 0.25
173 0.816106 2.64457 4.7506 0.25
174 4.88461 2.32235 6.0916 0.25
175 9.3073 3.74467 7.70667 0.25
176 0.840626 5.60894 0.420778 0.25
177 9.26672 6.48313 7.36809 0.25
178 6.94728 1.37233 5.34251 0.25
179 2.62813 9.33679 7.74988 0.25
180 7.34123 9.42721 2.6768 0.5
181 0.931119 4.02316 5.81032 0.25
182 7.74699 1.27325 3.97338 0.25
183 2.51269 0.155514 5.08558 0.25
184 9.29668 5.38925 9.67485 0.25
185 8.90739 8.90532 6.39232 0.25
186 2.53604 7.70176 9.89457 0.25
187 3.39248 3.14789 0.138529 0.25
188 5.07861 2.67016 7.85019 0.25
189 9.62886 0.122336 6.17517 0.25
190 2.83011 7.57054 3.51439 0.25
191 5.03726 2.51293 8.69823 0.25
192 8.32162 9.30433 6.82905 0.25
193 5.37003 2.17217 8.96619 0.25
194 3.85527 9.15715 1.23309 0.25
195 5.26618 5.25717 9.74776 0.25
196 5.69771 2.54163 0.108617 0.25
197 8.80039 6.25116 6.84998 0.5
198 7.16024 1.67492 7.37845 0.5
199 6.93625 0.0219854 9.75192 0.25
200 7.17162 0.865427 6.59155 0.25
201 5.98312 6.5452 6.62591 0.25
202 3.37164 8.09086 5.20601 0.25
203 4.8677 8.91354 0.41169 0.25
204 0.402623 3.44089 6.43381 0.25
205 3.78117 0.314704 6.98993 0.25
206 0.688877 1.74494 4.08309 0.25
207 1.13157 5.22947 3.83522 0.5
208 3.91884 4.58996 6.10042 0.25
209 6.72732 9.92136 2.47062 0.25
210 4.06541 0.34542 6.53771 0.25
211 1.73342 4.94295 2.37528 0.25
212 0.201298 4.0644 1.82447 0.5
213 9.04593 3.78673 1.79902 0.25
214 3.32504 5.14416 5.86935 0.25
215 10.1199 0.668001 9.03674 0.25
216 4.93524 1.70756 0.44975 0.25
217 0.386153 8.14215 5.2985 0.25
218 2.30446 1.23331 1.88451 0.5
219 0.564208 4.19784 6.17365 0.25
220 6.72117 9.59881 1.76919 0.25
221 8.06242 6.55464 3.94384 0.25
222 9.39913 6.27854 6.47091 0.25
223 5.30373 9.5227 5.1645 0.25
224 9.46482 3.40789 6.93824 0.25
225 7.80271 1.67241 5.52192 0.25
226 6.15038 8.93054 5.03013 0.25
227 7.31112 0.460701 1.20861 0.25
228 5.48073 2.21452 0.954909 0.25
229 2.13735 2.22893 1.21661 0.25
230 8.43496 7.63408 4.22256 0.25
231 6.47058 4.65554 7.14219 0.25
232 7.03859 9.76539 2.10616 0.25
233 7.91323 1.74156 8.60564 0.5
234 4.54105 9.47229 1.72173 0.25
235 0.906686 8.52063 7.74151 0.25
236 1.33396 5.53699 0.484468 0.25
237 8.22625 1.07102 4.02102 0.25
238 1.07455 6.04492 4.04411 0.25
239 0.425146 3.01874 10.0126 0.25
240 1.51027 8.95197 2.45628 0.5
241 1.16763 9.71869 2.32802 0.25
242 3.18397 8.05689 6.39833 0.25
243 1.2644 6.33192 0.4583 0.25
244 0.899053 1.70812 7.08775 0.25
245 5.5226 6.54397 6.73187 0.25
246 1.78317 8.14054 10.3209 0.25
247 2.853 7.50103 2.66226 0.25
248 5.80025 2.13622 8.77618 0.25
249 6.57595 4.44084 4.90539 0.25
250 7.36925 1.28909 6.77081 0.25
251 1.474 1.05233 6.95636 0.25
252 7.50078 7.41051 8.50243 0.25
253 3.76829 7.73216 9.00092 0.25
254 1.63799 9.71656 2.55421 0.25
255 1.33149 0.383265 1.73572 0.25
256 3.47767 6.03352 4.32645 0.25
257 0.655646 0.149919 10.1098 0.25
258 4.88164 5.33445 7.23078 0.25
259 1.70517 9.70954 4.55787 0.25
260 1.50528 10.223 0.215547 0.25
261 7.34083 6.21254 9.06458 0.25
262 5.62693 7.05024 2.96955 0.25
263 8.63483 8.55748 9.94479 0.25
264 7.68651 9.45936 9.85832 0.5
265 4.26292 4.16412 2.61144 0.25
266 3.79112 4.18615 2.72986 0.25
267 3.91933 7.62142 5.59267 0.25
268 3.48211 7.753 6.28314 0.25
269 7.31272 8.79646 5.81481 0.25
270 3.78313 7.42682 6.09918 0.25
271 3.71807 9.33842 1.64159 0.25
272 5.97421 6.77238 5.19017 0.25
273 10.0987 3.51805 8.05392 0.25
274 3.41324 4.74864 6.12303 0.25
275 0.19637 6.97841 2.59644 0.25
276 8.33656 0.664601 8.52313 0.25
277 2.93027 10.006 8.12303 0.5
278 4.34598 6.08376 8.49839 0.25
279 2.61927 0.171137 8.59327 0.25
280 3.48212 0.208399 9.51859 0.25
281 4.16881 8.84404 3.78163 0.25
282 5.00003 1.428 3.11838 0.25
283 9.7054 10.3269 8.91414 0.25
284 1.61742 5.12703 0.429942 0.25
285 8.84892 6.73153 1.22893 0.25
286 0.0369847 1.49632 2.08409 0.25
287 1.39242 7.88079 2.57909 0.25
288 1.34659 5.7368 4.31577 0.25
289 9.17742 1.58449 1.32501 0.25
290 9.37523 4.05476 2.53675 0.25
291 8.23581 2.50561 9.91134 0.25
292 4.10395 9.50542 1.44008 0.25
293 4.72005 2.78065 7.11063 0.5
294 0.228316 6.46828 2.58576 0.25
295 7.1466 0.68456 7.27435 0.5
296 2.77973 3.03062 4.43235 0.25
297 0.821694 8.06114 5.12858 0.25
298 3.97585 9.15902 0.698135 0.25
299 9.12597 4.96545 9.93995 0.25
300 1.56107 0.171861 4.71286 0.25
301 4.71649 8.15785 8.21318 0.25
302 4.98694 5.16502 8.0297 0.25
303 9.19861 5.51168 0.0730962 0.5
304 4.21121 3.504 2.13308 0.25
305 1.67686 8.29011 2.51111 0.25
306 9.81057 7.33494 9.1273 0.25
307 1.42716 10.3921 10.1164 0.25
308 8.99057 5.57178 6.58066 0.25
309 8.66521 1.51528 8.42643 0.25
310 5.97102 7.17913 6.05489 0.25
311 1.93399 0.675039 2.29032 0.25
312 9.02317 0.899954 8.68094 0.5
313 1.29582 8.27841 2.83672 0.25
314 0.857553 4.31823 2.1159 0.25
315 2.97491 0.615361 9.10302 0.5
316 7.24646 3.82928 6.90349 0.25
317 6.246 10.1273 8.58275 0.25
318 9.69529 7.52891 9.66538 0.25
319 10.1961 9.90365 3.39346 0.25
320 1.50273 2.57298 9.84976 0.25
321 2.05766 2.01876 1.65913 0.25
322 1.02232 7.07465 4.75754 0.25
323 6.39058 10.0156 9.37314 0.5
324 7.99621 2.16179 2.85052 0.25
325 9.44426 3.89331 2.08059 0.25
326 3.10782 10.226 4.31779 0.25
327 1.35105 9.18586 7.22724 0.25
328 4.4306 3.92176 2.22235 0.25
329 8.62399 6.91961 4.27202 0.5
330 0.0974859 6.70022 2.19713 0.25
331 9.48955 10.3234 4.21656 0.25
332 6.83167 7.31969 0.660267 0.25
333 10.1828 8.04386 9.29293 0.25
334 6.77909 5.23775 1.08725 0.25
335 5.95286 5.02853 0.49519 0.25
336 9.18301 3.6952 1.32059 0.25
337 4.6202 5.72825 8.63664 0.25
338 7.67061 8.70347 2.72553 0.25
339 3.86222 6.02434 8.5392 0.25
340 1.08178 2.73447 9.66118 0.25
341 3.97428 5.89488 4.26915 0.25
342 10.0275 3.35825 7.562 0.25
343 10.1158 1.77754 4.11368 0.25
344 4.40122 0.871994 2.93489 0.25
345 6.51074 4.23371 10.0105 0.25
346 1.10029 1.59467 7.62645 0.25
347 2.97745 3.87694 10.3231 0.25
348 6.02693 7.66243 0.743753 0.25
349 4.88462 1.69895 7.54587 0.25
350 2.1831 3.33972 8.00352 0.25
351 5.13469 6.82236 3.69879 0.25
352 8.51377 6.55921 1.55633 0.25
353 9.79078 3.09209 7.14322 0.25
354 9.89686 3.72587 2.00255 0.25
355 3.0304 1.40888 1.56998 0.25
356 4.6019 9.70672 0.800799 0.25
357 3.12865 4.72208 5.6658 0.25
358 4.29603 9.47763 0.497025 0.25
359 9.16517 6.476 0.611163 0.5
360 3.71586 0.0369972 6.53596 0.25
361 10.1119 0.601987 6.5169 0.25
362 9.93112 7.97564 9.7264 0.25
363 6.92351 2.31575 2.39527 0.25
364 10.203 6.28269 2.41589 0.25
365 5.74269 9.27552 4.96194 0.25
366 9.03942 4.11924 2.14326 0.25
367 3.55223 0.409451 8.70419 0.25
368 9.76062 6.39293 7.25875 0.25
369 9.00505 3.97383 4.25478 0.5
370 4.98961 1.94588 6.80317 0.5
371 9.77547 6.59974 1.88164 0.5
372 1.16894 2.34088 4.15804 0.5
373 3.42757 10.2807 8.57046 0.25
374 3.41135 0.0259781 9.04482 0.25
375 5.28529 1.11524 2.90702 0.25
376 0.811411 5.67714 4.30131 0.25
377 9.75943 7.76815 9.27518 0.25
378 9.25536 9.22955 1.16544 0.25
379 0.197218 3.82888 6.21276 0.25
380 1.93208 2.17968 4.23511 0.25
381 7.14049 5.50715 1.70798 0.5
382 2.00001 7.6522 10.1176 0.25
383 5.62604 8.5144 7.91346 0.25
384 2.14 6.42837 7.6645 0.25
385 1.24016 6.8965 5.14276 0.25
386 1.11376 5.81663 7.31196 0.25
387 1.35634 6.36572 7.93882 0.25
388 2.4627 1.9505 0.961481 0.25
389 4.81447 1.43499 0.792896 0.25
390 3.11851 3.4178 10.1016 0.25
391 3.9392 0.74485 6.82081 0.25
392 0.617427 5.63571 4.73549 0.25
393 8.68019 8.49497 6.40925 0.25
394 10.1016 0.750489 5.96893 0.25
395 1.92955 4.85156 2.83752 0.25
396 3.04733 0.277024 9.79237 0.25
397 7.59768 1.97258 2.61561 0.25
398 9.35902 4.44131 9.34694 0.25
399 2.3228 9.75131 7.71527 0.25
400 8.01875 3.05904 0.112311 0.25
401 5.39809 7.15769 3.38779 0.25
402 4.20439 5.82999 8.9 0.25
403 6.20941 4.82168 0.114588 0.25
404 7.09561 2.76464 10.1679 0.25
405 1.60504 5.95591 0.384169 0.25
406 6.19072 9.39653 5.12605 0.25
407 7.29305 6.67473 8.94684 0.25
408 9.99056 8.90848 1.28901 0.25
409 9.77541 6.4332 2.63725 0.25
410 5.59904 1.7753 4.12427 0.25
411 8.47647 9.36476 9.6777 0.25
412 4.58842 2.11126 7.42274 0.25
413 7.39618 2.30692 2.28193 0.25
414 6.66521 5.9724 2.10231 0.25
415 4.95812 0.65801 3.4172 0.5
416 10.0095 0.210971 9.26012 0.25
417 3.16403 7.60977 5.77687 0.5
418 0.738242 1.15859 6.71603 0.5
419 9.21668 0.22268 3.88872 0.25
420 5.25655 8.79086 7.83122 0.25
421 9.22365 6.71698 6.49482 0.25
422 2.67205 7.32555 3.07511 0.25
423 1.52363 5.12823 2.82194 0.25
424 0.508907 0.334053 9.29784 0.25
425 2.07733 0.278633 4.74155 0.25
426 2.64682 1.52842 1.22106 0.25
427 6.90121 1.24568 6.68881 0.25
428 7.46066 9.59079 1.90338 0.25
429 5.26145 9.30269 7.9295 0.25
430 9.6268 9.19725 3.77286 0.25
431 7.69003 0.198054 0.465937 0.25
432 2.43198 7.52768 -0.0451638 0.25
433 3.02625 2.7094 5.13442 0.25
434 6.21931 9.65188 8.76717 0.25
435 0.0116215 3.25304 10.048 0.25
436 6.64013 4.60859 0.00259345 0.25
437 1.38636 5.4075 9.6576 0.25
438 7.63404 0.927341 6.66107 0.25
439 9.44142 9.85158 3.61455 0.5
440 2.35722 2.69159 7.5844 0.5
441 1.11843 3.93616 2.29546 0.25
442 7.10387 7.68598 0.634853 0.25
443 9.76647 9.87888 4.27832 0.25
444 1.33859 3.6351 1.96073 0.25
445 5.6004 6.94534 3.79918 0.25
446 8.33292 4.6181 4.83802 0.25
447 6.28185 4.6674 10.0218 0.25
448 4.89027 1.55527 3.85095 0.5
449 9.8431 0.199589 6.61943 0.25
450 3.08169 1.07297 1.91795 0.25
451 3.81646 3.82477 10.1844 0.25
452 5.97799 4.1282 3.87642 0.25
453 7.14255 4.31862 8.28708 0.25
454 1.61631 5.61917 8.3536 0.25
455 1.55558 6.13209 8.34397 0.25
456 2.19075 1.74763 1.32442 0.25
457 9.34572 8.40637 1.09876 0.5
458 1.32093 6.33149 7.43766 0.25
459 1.3899 1.37969 6.50854 0.25
460 1.49908 6.0598 7.06624 0.25
461 3.45245 6.25872 1.09643 0.25
462 3.79774 6.37818 0.763668 0.25
463 1.8263 10.0338 4.1182 0.25
464 10.0316 1.11139 1.48524 0.25
465 6.54601 5.43827 1.99216 0.25
466 4.61808 5.71603 7.85971 0.5
467 3.30323 5.46656 5.50539 0.25
468 3.00036 1.56933 2.03227 0.25
469 4.66402 3.50747 2.28687 0.25
470 4.61543 4.09274 3.02751 0.25
471 3.00071 0.0241867 5.16237 0.25
472 1.69562 2.39988 7.92054 0.25
473 2.49424 7.83496 9.45003 0.25
474 9.41789 4.4033 2.24333 0.25
475 8.93295 7.17154 3.69602 0.25
476 4.1897 6.6585 1.0453 0.25
477 10.1405 9.82879 3.88746 0.25
478 8.94139 5.95807 1.37744 0.5
479 6.96216 0.33577 0.860806 0.25
480 2.31385 8.02707 10.2501 0.25
481 4.47046 9.79676 1.29131 0.25
482 6.32385 9.75323 5.42236 0.25
483 7.04771 0.209597 0.0942694 0.5
484 9.59543 3.4157 7.39342 0.25
485 7.52778 2.83613 9.90331 0.25
486 4.7956 8.45016 3.45248 0.25
487 3.00699 3.47433 0.244061 0.25
488 7.04094 9.29182 1.99892 0.25
489 8.82849 6.2888 3.79624 0.25
490 2.98434 3.10327 7.86826 0.25
491 8.4824 8.92137 6.57815 0.25
492 8.26842 2.56877 0.0617711 0.25
493 9.82568 3.76936 7.62195 0.25
494 8.3639 3.75012 4.55104 0.25
495 9.45363 3.8284 7.21798 0.25
496 4.6328 1.9636 6.14047 0.25
497 3.42071 4.09457 0.0338422 0.25
498 8.25615 1.06435 8.82401 0.25
499 4.13053 9.09692 1.71802 0.25
500 4.03587 7.37612 8.83201 0.25
501 2.71286 9.95901 4.52063 0.25
502 9.15636 5.62489 7.04105 0.25
503 6.93399 8.3514 2.89438 0.25
504 6.74591 7.6426 0.292063 0.25
505 7.33993 1.27638 6.01365 0.5
506 5.46864 10.2679 5.63498 0.25
507 7.27089 8.70675 3.0157 0.25
508 5.14371 8.10991 8.54711 0.25
509 1.40184 8.4387 7.57042 0.25
510 5.6524 4.41485 4.56799 0.25
511 3.54697 0.506355 6.62363 0.25
512 1.83201 5.35407 3.58414 0.25
513 1.74084 5.03674 10.3021 0.25
514 3.69097 2.31264 5.1284 0.25
515 1.84584 1.35284 7.54186 0.5
516 5.79571 9.24196 5.68997 0.5
517 8.91332 6.69414 3.57001 0.25
518 2.76764 0.700184 9.8263 0.25
519 2.67031 10.0123 4.99937 0.25
520 5.07367 2.24802 7.52044 0.25
521 1.17157 4.40272 5.55146 0.25
522 2.38433 10.2372 4.68894 0.25
523 2.32327 3.46937 7.54828 0.25
524 7.80328 2.34738 5.08144 0.25
525 2.31935 6.16432 7.30846 0.25
526 1.29936 5.37047 8.11931 0.25
527 6.39842 9.34094 2.39958 0.5
528 6.74772 9.28161 3.06671 0.25
529 4.55799 6.75077 1.40284 0.25
530 1.97567 8.3944 2.19625 0.25
531 0.266327 3.07694 0.121352 0.25
532 1.64688 8.38643 0.338249 0.25
533 8.9433 9.65215 4.14708 0.25
534 8.80261 4.57707 4.66505 0.25
535 7.07178 7.18878 8.34946 0.25
536 4.317 9.04516 0.350609 0.25
537 7.51615 1.04076 3.55659 0.25
538 6.5733 4.51173 7.60968 0.25
539 10.147 3.68119 6.89384 0.5
540 5.77331 10.3092 8.46838 0.25
541 9.5537 8.94117 1.42393 0.25
542 7.31541 9.30298 5.99424 0.25
543 8.93471 4.5037 3.67628 0.25
544 1.72005 2.11745 7.43404 0.25
545 9.9942 9.50808 3.15236 0.25
546 0.0598131 0.859864 6.29751 0.25
547 9.51022 3.61878 1.68425 0.25
548 9.03462 4.80008 9.15782 0.25
549 1.42667 0.592113 2.17372 0.25
550 9.65923 9.07369 0.954232 0.25
551 3.1239 7.53658 3.11717 0.25
552 8.85988 9.27269 6.7599 0.25
553 5.03789 3.41093 5.09643 0.25
554 8.86271 4.71703 4.15207 0.25
555 5.65123 9.02364 7.80021 0.25
556 1.26192 8.7837 7.97093 0.25
557 2.80141 9.71254 7.44547 0.25
558 2.9789 3.37048 8.23497 0.25
559 9.66878 0.981205 9.0674 0.25
560 3.61632 4.76498 5.6924 0.25
561 0.96273 3.90915 1.84205 0.25
562 5.08577 4.78184 9.59029 0.25
563 5.40457 9.94238 8.62613 0.25
564 1.36007 1.84076 7.31393 0.25
565 2.83073 1.1983 2.37509 0.25
566 9.80086 6.10873 6.80724 0.25
567 0.785619 6.11376 0.383582 0.25
568 7.4965 1.41231 5.22168 0.25
569 7.2477 4.53257 7.17281 0.5
570 4.91415 3.87232 2.09278 0.25
571 4.17597 4.27353 3.06976 0.25
572 8.55038 1.42587 8.87915 0.25
573 0.91177 6.61272 5.41967 0.25
574 0.49011 0.633659 6.21828 0.25
575 5.56777 3.99731 4.20561 0.25
576 5.11286 1.85419 0.895658 0.25
577 0.466213 7.85434 4.90897 0.25
578 1.03569 5.13292 10.2392 0.5
579 5.17666 5.17992 7.5928 0.25
580 8.90697 7.57344 4.01759 0.25
581 6.82875 6.8812 9.03597 0.25
582 7.13316 4.61562 4.24458 0.25
583 8.61779 5.51466 6.93953 0.25
584 5.96567 6.64202 3.59971 0.25
585 7.44213 0.555537 0.692618 0.25
586 1.76979 2.32037 4.68846 0.25
587 5.937 10.0057 5.71574 0.25
588 3.2268 1.34151 9.36227 0.25
589 10.0092 3.59525 1.56518 0.25
590 8.4589 6.525 3.66282 0.25
591 3.80778 2.80515 5.19279 0.25
592 6.85219 5.31187 2.31387 0.25
593 5.25773 9.5636 6.02839 0.25
594 8.62397 5.8259 10.1157 0.25
595 1.48743 1.92465 7.81441 0.25
596 9.87289 8.58889 1.64515 0.25
597 4.76139 1.18913 2.83154 0.25
598 6.78082 7.19902 0.158149 0.25
599 10.1498 1.07943 1.97714 0.25
600 3.79565 9.86222 1.71278 0.25
601 7.45648 9.98592 2.19473 0.25
602 6.61613 8.06896 2.5584 0.25
603 1.98371 5.94945 6.98588 0.25
604 9.08168 0.831532 1.06471 0.25
605 1.60343 8.08768 2.09737 0.25
606 1.77384 1.89155 7.03441 0.25
607 1.99089 2.00233 7.79744 0.25
608 6.73395 6.93176 5.9405 0.5
609 3.85021 5.9404 0.885014 0.25
610 6.61329 4.63584 0.708463 0.5
611 8.20443 8.40227 7.17453 0.25
612 8.40154 0.339957 4.11136 0.5
613 7.98332 2.85262 9.67651 0.25
614 9.75523 6.70954 1.11893 0.25
615 7.60081 3.88098 7.2444 0.25
616 1.36834 1.56477 6.93249 0.25
617 2.57203 3.02354 8.20086 0.25
618 7.49102 2.96871 10.382 0.25
619 1.54823 9.58861 2.06181 0.25
620 6.50131 5.66341 2.46095 0.25
621 7.07298 4.45851 1.25752 0.25
622 6.69421 7.17754 8.62959 0.25
623 7.73306 4.30127 4.58375 0.5
624 4.878 8.48133 8.50831 0.25
625 5.02155 2.04018 0.0380083 0.25
626 2.37663 2.89994 4.17767 0.25
627 7.32129 5.37355 2.42177 0.25
628 1.16266 9.88298 0.313844 0.25
629 7.39414 10.1776 9.91844 0.25
630 5.87499 7.19687 0.606688 0.25
631 7.952 2.12168 5.47662 0.25
632 3.42327 3.6544 0.0602124 0.25
633 3.36545 3.82511 9.94074 0.25
634 4.44704 7.95043 8.92062 0.5
635 9.50171 6.46779 6.89396 0.25
636 8.76304 5.39514 9.8617 0.25
637 6.15282 9.34668 4.6445 0.25
638 2.39945 0.160477 4.06986 0.5
639 7.1586 2.6787 2.12434 0.25
640 7.43813 1.47156 8.06378 0.25
641 3.65035 6.07491 3.87667 0.25
642 3.93091 7.75418 6.47734 0.25
643 3.50807 1.61777 9.70002 0.25
644 5.84782 10.0418 4.95063 0.5
645 3.82031 3.44923 0.211856 0.25
646 8.4953 7.39549 3.72943 0.25
647 6.0842 7.05462 5.56865 0.25
648 7.15235 1.09528 7.87714 0.25
649 4.53045 6.05621 9.03854 0.25
650 8.0293 1.18257 3.58359 0.25
651 4.79013 8.70865 8.14022 0.25
652 1.18252 5.86125 8.1483 0.25
653 0.697871 4.47437 5.75875 0.25
654 1.68942 6.6324 7.64289 0.25
655 10.137 3.95196 1.24876 0.25
656 4.72571 5.04297 7.59136 0.25
657 8.3501 9.22884 7.32906 0.25
658 6.9496 4.59451 7.89667 0.25
659 9.06683 0.135948 4.37943 0.25
660 1.77969 5.79169 7.68829 0.5
661 2.19773 7.20977 3.05761 0.25
662 7.60844 9.17201 5.63435 0.25
663 3.70258 0.427042 9.22802 0.25
664 1.06255 2.24682 9.80996 0.25
665 8.50429 6.45573 1.0788 0.25
666 5.69628 9.54949 8.77638 0.25
667 7.49591 2.49532 10.3702 0.25
668 6.69076 1.58884 5.70245 0.25
669 3.17398 7.64253 9.51514 0.5
670 0.388423 3.35704 9.6666 0.25
671 1.03615 6.2696 4.72802 0.5
672 6.54939 6.24449 5.66542 0.25
673 3.99536 10.0169 1.26199 0.25
674 6.90968 4.26531 4.53919 0.25
675 7.92072 8.33381 7.54596 0.25
676 5.65738 1.80801 0.333664 0.5
677 9.66258 3.01191 7.60719 0.25
678 0.0285832 0.0664012 6.15357 0.5
679 2.19056 1.95732 7.33646 0.25
680 3.06179 7.11636 2.78763 0.25
681 7.90991 9.15602 7.09945 0.25
682 3.65681 7.66949 5.21747 0.25
683 0.350295 2.53942 9.78867 0.25
684 1.26676 9.23872 7.71891 0.25
685 8.85228 10.3923 3.60197 0.25
686 6.52438 9.67421 4.92479 0.25
687 9.62694 3.38335 7.89004 0.25
688 5.50048 7.59693 0.540158 0.25
689 2.34832 2.45567 3.98687 0.25
690 9.92428 8.06827 8.88962 0.25
691 0.216185 7.94499 5.69075 0.25
692 1.09429 4.39019 6.06889 0.25
693 9.62264 2.55817 4.16332 0.25
694 3.43193 3.48983 0.494999 0.25
695 7.77699 1.84225 5.0621 0.25
696 5.55262 1.07759 3.71839 0.25
697 1.15626 8.86893 7.45592 0.25
698 8.81777 5.80184 0.631407 0.25
699 3.28988 8.34106 5.6438 0.25
700 5.63712 7.95857 0.884909 0.25
701 3.33627 5.0282 5.35219 0.25
702 5.94295 3.6749 4.13293 0.25
703 2.1598 0.468046 1.8642 0.25
704 7.5475 4.06084 8.1696 0.25
705 3.75682 5.87434 8.96754 0.25
706 7.57449 1.11174 7.65599 0.25
707 6.40843 6.61124 4.95971 0.25
708 5.8522 7.07694 3.40792 0.25
709 1.56845 4.40281 1.85698 0.5
710 1.08005 4.86499 5.87303 0.25
711 6.79359 3.90012 6.97035 0.25
712 4.5091 8.8486 3.4458 0.25
713 1.62945 4.94004 3.27974 0.25
714 1.88369 10.2086 4.53627 0.25
715 3.07393 3.59578 7.76992 0.25
716 9.4309 8.78477 1.81177 0.25
717 2.995 5.38623 5.10155 0.25
718 5.75779 3.66974 4.87594 0.5
719 5.65645 3.29909 5.60386 0.25
720 5.50975 1.30124 4.13224 0.25
721 3.54713 7.32589 6.50309 0.25
722 4.13872 5.4231 4.1747 0.25
723 6.18822 6.10403 6.46395 0.25
724 9.65033 0.476416 9.00057 0.25
725 4.07989 10.3097 6.8071 0.25
726 3.6523 5.60139 4.12513 0.25
727 4.35268 5.73746 4.52085 0.25
728 2.02093 7.7744 0.505916 0.5
729 7.35651 1.97483 6.24571 0.25
730 8.34338 1.16237 8.39843 0.25
731 1.74677 5.43831 10.0145 0.25
732 3.68867 8.18616 6.43796 0.25
733 9.83756 2.43669 4.64192 0.25
734 8.16615 6.97236 3.72523 0.25
735 3.38711 2.57397 5.42546 0.25
736 8.64023 6.19739 6.14804 0.25
737 0.769135 4.17038 5.36142 0.25
738 5.56898 8.13249 8.27264 0.25
739 3.15945 3.92795 0.402378 0.25
740 8.99562 6.6834 1.68374 0.25
741 6.74668 2.39216 2.84405 0.25
742 5.09025 2.20559 0.561975 0.25
743 9.99045 1.89536 4.59253 0.25
744 2.50467 2.45845 4.70728 0.5
745 0.415782 4.00355 5.74301 0.25
746 7.16962 4.96547 1.20973 0.25
747 8.46658 2.19015 10.2403 0.25
748 7.19646 9.9728 9.51342 0.25
749 7.67788 4.08592 7.67653 0.25
750 4.45808 2.33569 6.44221 0.25
751 1.8477 2.49953 3.85688 0.25
752 9.87487 2.17393 4.23398 0.25
753 0.808655 2.59635 10.337 0.5
754 7.82147 1.89121 5.94395 0.25
755 7.8793 2.74483 10.1716 0.25
756 5.287 1.95215 1.35749 0.25
757 0.246233 2.19635 4.54966 0.5
758 1.62243 0.085556 4.19904 0.25
759 4.76911 2.56636 8.28474 0.25
760 4.66407 0.886812 4.08524 0.25
761 6.55108 6.2301 6.14184 0.25
762 0.454493 3.87541 6.60611 0.25
763 6.34794 4.72624 4.249 0.5
764 5.48815 6.46785 3.75243 0.25
765 7.4243 6.88059 8.4977 0.25
766 1.14464 4.9998 3.09616 0.25
767 7.61901 2.72428 2.13364 0.25
768 4.97333 2.9738 5.74871 0.5
769 1.32503 3.04757 9.97084 0.25
770 5.8306 6.46565 5.96347 0.5
771 5.77613 7.9399 0.400966 0.25
772 6.79908 9.16533 5.45414 0.5
773 6.00716 4.24624 9.97476 0.25
774 6.82251 8.88249 2.79931 0.25
775 10.151 7.65825 8.98453 0.25
776 4.7601 9.39548 0.431835 0.25
777 2.08336 8.58243 2.6751 0.25
778 3.09264 0.245138 8.4802 0.25
779 10.0934 7.83284 8.48662 0.25
780 4.86716 5.05443 9.98138 0.25
781 5.91401 6.74564 3.10201 0.25
782 9.65225 6.2097 1.21518 0.25
783 4.67818 8.73769 3.87677 0.25
784 3.71874 3.90723 0.350864 0.25
785 8.35055 8.43963 7.6651 0.25
786 6.44839 7.00121 5.26267 0.25
787 6.7296 6.57087 5.32285 0.25
788 5.18787 0.93886 4.07634 0.25
789 7.1616 4.71777 1.68483 0.25
790 4.95122 2.63309 6.45099 0.25
791 8.21927 5.78195 6.73078 0.25
792 4.20858 3.49496 2.84919 0.5
793 0.0962885 0.307358 9.01193 0.25
794 2.61226 1.71581 2.34816 0.25
795 1.47225 8.66643 7.14522 0.25
796 1.92593 10.0339 5.20015 0.5
797 9.63864 9.22108 3.27905 0.25
798 9.26188 4.61243 4.46688 0.25
799 3.53886 5.65279 1.5041 0.5
800 10.1539 1.56184 1.34408 0.25
801 6.06244 10.3684 9.99888 0.25
802 6.5534 7.68459 0.783287 0.25
803 9.36263 4.93045 9.4802 0.25
804 4.40606 5.25549 7.32429 0.25
805 8.5126 4.41098 3.88999 0.25
806 2.34969 9.4642 8.11867 0.25
807 2.91556 5.17542 5.55164 0.25
808 8.87378 5.5569 9.39156 0.25
809 1.66029 4.95661 9.79565 0.25
810 7.14984 1.71787 6.58196 0.25
811 9.02275 4.57573 9.61664 0.25
812 3.92088 6.2491 1.24334 0.25
813 1.59817 3.78874 2.33786 0.25
814 1.27208 9.94126 10.1768 0.25
815 3.69633 5.53931 4.85388 0.5
816 6.47998 0.253166 9.88389 0.25
817 4.56444 9.0462 1.09772 0.5
818 8.98262 6.15094 10.2181 0.25
819 4.10322 6.57274 1.52269 0.25
820 7.1722 3.85964 8.47078 0.25
821 7.77195 8.68843 7.1652 0.25
822 4.96621 3.74173 2.91187 0.25
823 1.95178 9.01742 7.65356 0.5
824 6.54676 4.17867 7.24114 0.25
825 7.81593 8.92458 6.3591 0.5
826 7.28773 3.09063 2.29991 0.25
827 9.0862 6.41144 6.10727 0.25
828 9.69982 3.67328 1.20324 0.25
829 1.28783 7.88672 5.07233 0.25
830 4.43357 6.2667 1.34252 0.25
831 2.533 7.12861 2.67289 0.25
832 3.93363 5.46884 9.16888 0.25
833 6.19603 6.94394 6.42653 0.25
834 8.27283 4.13121 4.17535 0.25
835 1.14799 1.34027 7.26416 0.25
836 6.72142 4.97252 1.91832 0.25
837 3.57247 7.24901 9.00028 0.25
838 2.43952 9.4321 7.32102 0.25
839 0.187377 2.86959 4.18682 0.25
840 9.29713 4.61489 3.93067 0.25
841 5.57482 4.81225 10.2111 0.5
842 7.18471 7.15471 8.83039 0.25
843 2.01774 9.55493 2.27087 0.25
844 6.77837 4.85169 1.40833 0.25
845 8.43594 4.57952 4.3297 0.25
846 1.08631 5.43458 4.63248 0.25
847 7.93541 2.2585 10.3037 0.25
848 3.49347 0.884812 9.81052 0.5
849 7.17934 4.94125 2.17073 0.25
850 4.42749 8.41753 3.13339 0.25
851 4.18401 5.81956 1.24273 0.25
852 5.56178 1.56612 3.71656 0.25
853 9.27651 9.93328 4.35274 0.25
854 2.80473 3.30928 7.44963 0.25
855 3.70382 6.69402 1.19345 0.25
856 9.21001 3.2159 7.69135 0.25
857 6.41664 4.06518 4.61037 0.25
858 8.04234 7.4065 4.47651 0.25
859 9.654 1.38119 1.41964 0.25
860 2.64083 10.2079 5.46439 0.25
861 4.2701 9.91224 1.68528 0.25
862 7.65967 0.793639 8.32334 0.5
863 0.101981 3.00915 9.6542 0.25
864 3.53358 3.75985 2.64197 0.25
865 0.692763 6.8572 5.05495 0.25
866 2.82333 1.17122 10.0898 0.25
867 2.73806 8.22508 9.36123 0.25
868 9.59653 0.872605 1.26625 0.25
869 1.11398 8.20078 5.44305 0.25
870 6.9461 6.76026 8.58483 0.25
871 6.82626 2.77904 2.50869 0.25
872 8.18425 1.46416 7.66957 0.5
873 5.14773 10.0389 5.32181 0.25
874 6.51704 9.13655 4.8288 0.25
875 3.16086 7.65808 5.0421 0.25
876 4.08139 6.09054 1.70073 0.25
877 0.538414 2.12807 3.81228 0.25
878 0.0129753 0.503309 9.45114 0.25
879 0.936755 7.63204 4.8225 0.25
880 5.62354 4.46453 4.07462 0.25
881 3.99344 6.5815 8.9926 0.5
882 9.633 0.918993 5.92569 0.25
883 5.44561 3.19043 5.23814 0.25
884 2.7871 2.10948 1.62416 0.5
885 8.65989 9.98662 3.82998 0.25
886 9.86088 9.10059 1.74827 0.25
887 1.84763 6.44985 8.07039 0.25
888 1.7414 0.718104 1.81923 0.25
889 4.74883 5.26801 8.47498 0.25
890 0.669378 3.75211 6.1295 0.25
891 3.9354 3.90219 2.337 0.25
892 6.5024 8.56492 2.68002 0.25
893 7.81148 3.20225 10.0467 0.25
894 1.70961 8.679 10.3139 0.25
895 9.31725 3.03686 7.20913 0.25
896 9.68878 1.03451 1.77922 0.25
897 3.52377 7.85001 6.75035 0.25
898 0.785812 4.94286 5.14925 0.5
899 0.247635 0.571345 6.65766 0.25
900 8.56905 6.98425 3.44261 0.25
901 0.702029 8.15967 5.68151 0.25
902 5.31483 1.38687 0.745889 0.25
903 8.84237 7.57713 4.52469 0.25
904 1.24987 6.01307 10.1784 0.5
905 9.39603 1.2833 1.03394 0.25
906 9.89634 9.44188 4.09563 0.25
907 4.73463 3.90617 2.54629 0.25