ITEM: TIMESTEP
930000
ITEM: NUMBER OF ATOMS
1000
ITEM: BOX BOUNDS xy xz yz pp pp pp
0.0000000000000000e+00 1.0357442000000001e+01 0.0000000000000000e+00
0.0000000000000000e+00 1.0357442000000001e+01 0.0000000000000000e+00
0.0000000000000000e+00 1.0357442000000001e+01 0.0000000000000000e+00
ITEM: ATOMS id x y z radius
1 1.4237 4.14315 2.88991 0.5
2 1.86811 7.65432 2.58161 0.5
3 5.10556 1.307 1.15266 0.25
4 0.433508 2.42608 4.74203 0.25
5 9.5839 2.91944 7.15286 0.25
6 0.427703 2.78215 9.56095 0.25
7 4.55163 1.38409 3.06022 0.25
8 9.04644 4.44666 2.32399 0.25
9 9.80289 1.40911 1.73353 0.25
10 9.0037 6.69141 3.67153 0.25
11 9.01949 8.90783 1.02131 0.25
12 8.14844 2.4933 9.94558 0.25
13 3.28888 7.57421 6.20608 0.25
14 5.0405 2.21494 0.297545 0.25
15 8.78739 5.91414 6.20673 0.25
16 8.82659 8.83823 6.47038 0.25
17 5.38106 9.10457 8.36217 0.5
18 2.31202 7.77997 9.54156 0.25
19 7.05477 4.63661 4.92043 0.25
20 9.34759 0.728092 1.47128 0.25
21 0.521643 10.0972 9.43894 0.25
22 4.4222 1.51065 3.51606 0.25
23 3.74804 3.97928 2.79573 0.25
24 2.70369 2.46982 4.11704 0.25
25 7.28538 1.99484 5.75123 0.25
26 5.50408 2.75491 8.39497 0.25
27 2.01626 8.56776 0.0349547 0.25
28 9.18355 6.08944 6.41589 0.25
29 3.23019 7.50298 5.70244 0.25
30 0.884607 8.67665 7.21423 0.25
31 1.4272 7.34153 4.92912 0.25
32 8.95768 6.68437 1.36135 0.25
33 9.25199 9.29819 0.868311 0.25
34 0.612182 2.42794 10.2836 0.25
35 8.14789 2.02461 10.1749 0.25
36 8.33431 8.64241 9.34665 0.25
37 4.07504 5.01672 5.95249 0.25
38 7.11812 0.557725 0.732943 0.25
39 5.91133 4.17954 5.19767 0.25
40 8.49666 4.41345 4.64141 0.25
41 8.26751 6.47461 4.06729 0.25
42 6.62175 8.64924 2.1984 0.5
43 0.142809 8.3555 5.78418 0.25
44 2.82496 10.1966 5.33018 0.25
45 6.98785 6.59382 8.21059 0.25
46 1.16754 8.25657 7.37976 0.25
47 4.08935 8.54815 3.56688 0.25
48 2.80724 9.73899 5.48809 0.25
49 4.63853 6.23 9.2053 0.25
50 10.0975 9.58173 4.10477 0.25
51 10.126 8.48894 1.22835 0.25
52 6.28304 7.11639 0.577405 0.25
53 6.57022 5.388 1.7112 0.25
54 4.83209 4.99964 8.12109 0.25
55 5.93519 7.17046 6.68255 0.25
56 5.24037 2.10825 1.27445 0.25
57 5.2726 1.79534 0.451403 0.25
58 5.88519 4.26543 0.489941 0.25
59 3.90692 7.75625 8.72803 0.25
60 7.00966 7.05197 8.00705 0.25
61 3.29983 0.0416897 8.83833 0.25
62 9.24344 5.90905 6.89176 0.25
63 0.628449 5.6799 4.69943 0.25
64 10.028 1.76527 1.50651 0.25
65 6.61164 6.67797 6.68458 0.25
66 4.03139 1.35408 3.20928 0.25
67 9.49362 4.91307 9.26326 0.25
68 6.3769 0.174788 10.3504 0.25
69 1.96983 7.43079 3.26274 0.25
70 4.19657 5.8442 4.03606 0.25
71 1.12554 8.40187 2.57393 0.25
72 5.25455 6.87044 3.72973 0.25
73 9.18288 8.76513 7.21476 0.5
74 2.39008 7.06888 2.42864 0.25
75 1.23868 5.71372 0.698999 0.25
76 1.83176 8.34072 10.0168 0.25
77 6.86632 6.95867 8.4579 0.25
78 3.62118 9.4439 1.46622 0.25
79 0.954554 5.17542 9.68759 0.25
80 8.59755 8.69554 9.74306 0.25
81 8.22697 9.18857 7.50921 0.25
82 1.36731 0.783092 2.08916 0.25
83 1.98584 8.38403 2.42991 0.25
84 5.17839 9.39259 5.36266 0.25
85 3.68034 6.58929 1.31609 0.25
86 9.54384 3.54694 2.05015 0.5
87 1.82866 5.44505 8.09385 0.25
88 2.88509 3.90913 8.40983 0.25
89 0.53356 10.352 9.89594 0.25
90 7.06567 10.0887 1.61811 0.5
91 4.09916 8.69071 3.06574 0.25
92 9.43672 1.42859 1.02141 0.25
93 8.20241 0.970036 8.18979 0.25
94 0.806588 3.78039 2.48445 0.25
95 7.83803 8.98272 5.41173 0.25
96 7.84834 1.18504 6.74677 0.25
97 5.57172 9.61795 5.53769 0.25
98 0.205515 0.484371 5.94473 0.25
99 5.25142 2.09811 8.23995 0.5
100 5.51595 3.1909 5.71925 0.25
101 5.08435 2.25519 9.81894 0.5
102 4.20459 5.27757 8.5332 0.5
103 7.03464 0.434292 1.26039 0.25
104 1.24171 9.95028 9.87164 0.25
105 1.98045 4.52679 3.24588 0.25
106 5.83777 6.38434 6.48776 0.25
107 5.87073 10.1642 8.41526 0.25
108 1.7762 4.05317 1.8138 0.25
109 7.46176 2.59891 2.3822 0.25
110 5.4949 9.81935 5.94707 0.25
111 1.82614 5.5702 0.0474808 0.25
112 3.63451 5.2114 5.6715 0.25
113 1.93979 0.193821 4.59157 0.25
114 8.53371 6.17215 0.0970498 0.25
115 4.94863 3.40367 2.68153 0.25
116 0.263913 2.22527 3.48097 0.25
117 6.96909 2.01859 2.49423 0.5
118 6.99309 8.06774 2.5515 0.25
119 9.98421 2.62896 4.52699 0.25
120 1.64981 5.57253 9.93493 0.25
121 7.63611 2.0756 5.04357 0.5
122 1.71559 4.75203 2.42839 0.25
123 9.48428 8.7779 1.71267 0.25
124 8.36796 6.23654 0.540139 0.25
125 1.63183 9.78381 4.1992 0.25
126 6.28967 7.58939 0.607884 0.25
127 5.98803 7.34529 0.283285 0.25
128 9.18805 9.89821 4.16695 0.25
129 1.4752 4.67006 3.39247 0.25
130 10.0154 8.74284 1.66129 0.25
131 7.50333 2.24935 2.01942 0.25
132 8.30805 4.88376 4.75013 0.25
133 8.40671 9.10205 9.56164 0.25
134 3.62936 3.4414 2.90476 0.25
135 6.24719 9.45163 8.42311 0.5
136 8.38916 8.90554 7.18364 0.25
137 1.49383 9.67403 1.82302 0.25
138 6.94116 4.31788 4.55377 0.25
139 6.97124 3.81643 7.68035 0.5
140 4.24312 8.21085 3.21968 0.25
141 1.74302 1.64892 1.69176 0.25
142 2.64653 2.92603 4.91814 0.25
143 7.66291 2.45448 3.2921 0.25
144 0.136876 6.80775 2.08732 0.25
145 3.60123 7.35632 5.9744 0.25
146 6.92589 9.17519 3.25684 0.25
147 3.90298 6.1895 4.24906 0.25
148 2.72643 1.41319 0.000312169 0.25
149 10.1326 7.19573 9.44581 0.25
150 4.41196 4.91514 7.88832 0.25
151 6.98816 9.84731 9.9183 0.25
152 3.77204 9.846 1.16237 0.25
153 5.30652 1.77142 7.51351 0.25
154 5.71457 9.45941 7.80619 0.25
155 4.07654 5.71405 1.46542 0.25
156 0.807266 8.4329 7.65219 0.25
157 4.84093 0.253101 3.71991 0.25
158 8.55948 9.55518 6.76304 0.25
159 3.25712 2.97029 5.34701 0.25
160 2.75389 3.50879 8.10377 0.25
161 3.46652 0.171766 9.32328 0.25
162 3.96557 2.22628 5.79896 0.5
163 6.7289 10.1136 2.40228 0.25
164 5.22527 8.34769 8.19523 0.25
165 0.339109 2.77902 10.0158 0.25
166 7.95151 4.06302 7.18375 0.25
167 9.09241 10.1712 3.76584 0.25
168 0.171128 7.79595 9.13847 0.25
169 9.73224 6.50598 7.22333 0.25
170 3.37521 0.147968 8.04527 0.25
171 1.06535 8.73164 7.99173 0.25
172 9.29418 5.88827 7.4389 0.25
173 0.216635 1.69012 3.56545 0.25
174 4.65063 2.06161 5.918 0.25
175 9.36663 3.31142 7.2183 0.25
176 1.10203 6.14124 0.82392 0.25
177 8.90565 6.27976 7.51583 0.25
178 7.20612 1.48155 5.02978 0.25
179 2.60271 9.3941 7.54985 0.25
180 7.37768 9.17782 2.59321 0.5
181 0.83033 4.11186 5.73614 0.25
182 7.47507 2.05883 3.05412 0.25
183 2.88651 9.71766 4.68726 0.25
184 9.30184 5.17531 9.66295 0.25
185 8.82907 9.34322 6.44131 0.25
186 3.03481 8.31612 9.74774 0.25
187 2.99155 3.61049 0.373681 0.25
188 5.38094 2.36796 7.50784 0.25
189 10.3098 0.884183 5.88892 0.25
190 2.01818 6.88144 2.65369 0.25
191 5.32102 2.64926 9.2105 0.25
192 8.71717 9.29628 7.28452 0.25
193 5.18564 2.25393 8.97282 0.25
194 3.94695 9.32223 1.0768 0.25
195 5.48421 5.40911 9.82197 0.25
196 5.01846 1.79124 0.0276839 0.25
197 8.70961 6.45958 6.77022 0.5
198 7.6203 1.81228 6.9578 0.5
199 6.99695 10.2886 9.87026 0.25
200 7.0626 1.02875 6.41959 0.25
201 6.11954 6.72995 6.74959 0.25
202 3.3556 7.58489 5.19669 0.25
203 4.80251 9.22824 0.527847 0.25
204 0.519351 3.96572 6.55102 0.25
205 4.05394 0.668276 6.69544 0.25
206 0.554198 1.93138 3.83024 0.25
207 1.22324 5.14984 3.84638 0.5
208 3.87878 4.67597 6.2638 0.25
209 7.03855 9.91843 2.75798 0.25
210 4.54256 0.562362 6.61176 0.25
211 1.29433 4.84825 2.68149 0.25
212 0.15138 3.77497 2.05189 0.5
213 9.37096 4.10506 2.45006 0.25
214 3.25961 4.94196 5.87105 0.25
215 9.76784 0.297916 8.57822 0.25
216 4.6796 2.34806 0.61523 0.25
217 0.376862 7.88203 5.90014 0.25
218 2.32409 1.26673 1.87125 0.5
219 0.691608 4.22868 6.20056 0.25
220 6.84651 9.41665 2.00114 0.25
221 8.75994 7.05354 3.51421 0.25
222 9.50477 6.29387 6.75623 0.25
223 5.6198 9.41398 5.08845 0.25
224 10.0806 3.02103 7.13155 0.25
225 7.90424 1.50885 5.4582 0.25
226 6.419 8.86905 5.16997 0.25
227 7.36209 0.192213 0.976348 0.25
228 5.28937 1.32005 0.674034 0.25
229 2.45196 2.42765 1.54494 0.25
230 8.0078 6.84851 3.83151 0.25
231 7.173 4.47869 6.83037 0.25
232 7.01336 9.77946 2.26985 0.25
233 8.12001 1.96732 9.40683 0.5
234 4.50473 9.72139 1.63397 0.25
235 1.31222 8.3022 7.85445 0.25
236 1.79497 5.15436 0.384877 0.25
237 7.48218 2.0157 3.52858 0.25
238 1.10707 5.49253 4.58369 0.25
239 0.872783 2.70503 9.38584 0.25
240 1.54152 8.97856 2.19968 0.5
241 1.82879 9.67705 2.19867 0.25
242 4.05409 7.50347 6.12542 0.25
243 1.96015 6.04314 0.285296 0.25
244 1.25842 0.919209 7.20027 0.25
245 6.45205 7.11149 6.76529 0.25
246 2.33246 8.19892 10.2032 0.25
247 2.44009 7.66019 3.07311 0.25
248 5.55009 2.48512 8.80719 0.25
249 6.54217 4.07002 4.68354 0.25
250 7.49651 1.31354 6.44444 0.25
251 1.36799 1.50224 6.43978 0.25
252 6.90521 6.60254 9.40646 0.25
253 4.1452 7.92828 9.17123 0.25
254 1.08206 9.95659 1.8933 0.25
255 1.87357 0.786528 2.04674 0.25
256 3.2804 5.6329 4.24931 0.25
257 0.956347 10.3014 9.62098 0.25
258 4.47285 5.52499 7.08275 0.25
259 2.00157 10.0517 3.91397 0.25
260 0.597271 10.0246 10.3023 0.25
261 7.08844 7.39089 8.45435 0.25
262 5.65514 6.92399 3.89764 0.25
263 8.40629 8.2732 9.70507 0.25
264 7.70233 9.40305 9.91073 0.5
265 4.43595 3.82863 3.18231 0.25
266 5.00952 4.26771 2.74246 0.25
267 3.00094 7.85892 5.97847 0.25
268 3.66057 7.80679 6.2603 0.25
269 7.42497 9.05917 6.17621 0.25
270 3.22929 8.06618 6.37384 0.25
271 3.98265 9.09547 1.51426 0.25
272 6.66367 6.92258 5.41553 0.25
273 0.138402 3.72065 7.76092 0.25
274 3.40989 4.57599 6.186 0.25
275 10.2426 6.16677 2.52198 0.25
276 8.10185 0.908809 8.7259 0.25
277 2.82076 10.0419 7.89864 0.5
278 4.36028 6.03158 8.50892 0.25
279 2.87413 10.2387 8.70021 0.25
280 3.57421 0.594245 9.46606 0.25
281 4.24297 8.41275 4.0328 0.25
282 4.99546 0.649762 3.03221 0.25
283 9.77226 0.688375 9.29516 0.25
284 1.82874 5.17713 10.189 0.25
285 8.49108 6.77593 1.25912 0.25
286 10.2066 1.62878 1.99175 0.25
287 1.66527 8.4074 2.76166 0.25
288 1.05532 5.6494 5.07558 0.25
289 8.96027 1.01217 1.55213 0.25
290 8.67817 4.25606 2.0451 0.25
291 7.72361 2.26582 10.0412 0.25
292 4.07097 9.57193 1.45062 0.25
293 4.78186 2.58285 6.9597 0.5
294 10.3283 6.68659 2.5405 0.25
295 7.24404 1.00568 7.12269 0.5
296 2.5815 2.84962 4.40228 0.25
297 0.310647 8.05164 5.48818 0.25
298 3.97277 9.32699 0.545811 0.25
299 8.99087 4.84028 9.89342 0.25
300 2.42678 9.87587 4.63865 0.25
301 4.94094 8.24988 7.86411 0.25
302 4.82898 4.92833 7.60871 0.25
303 8.86877 5.53134 10.2287 0.5
304 4.57302 3.2221 2.38498 0.25
305 1.52293 8.23812 2.35691 0.25
306 0.255942 7.36682 9.30131 0.25
307 0.751558 9.9045 9.86092 0.25
308 8.80806 5.76017 6.674 0.25
309 8.01591 1.74207 8.68932 0.25
310 6.75868 6.3605 6.27377 0.25
311 1.69004 0.592325 2.44143 0.25
312 8.88494 1.04891 8.53422 0.5
313 1.79817 8.25302 1.9939 0.25
314 0.930072 3.6381 1.98946 0.25
315 2.90152 0.620862 9.09699 0.5
316 7.75576 3.82646 7.6166 0.25
317 6.33258 10.1528 8.5663 0.25
318 0.458692 7.75219 9.56183 0.25
319 10.0159 10.0604 4.13512 0.25
320 1.45014 2.5623 10.1083 0.25
321 2.15657 1.91904 1.46338 0.25
322 1.44463 6.89592 4.73254 0.25
323 6.60546 10.1566 9.29729 0.5
324 7.14504 2.2684 3.24925 0.25
325 9.14299 4.14211 1.95051 0.25
326 2.37003 10.0197 5.47791 0.25
327 1.18526 9.09487 7.23602 0.25
328 4.50415 3.43912 2.88914 0.25
329 8.70547 6.96083 4.30494 0.5
330 9.80776 6.08054 2.33735 0.25
331 9.35634 0.19528 3.75149 0.25
332 6.70631 7.74219 0.39184 0.25
333 10.0795 7.99064 9.23999 0.25
334 6.72218 4.97821 1.36828 0.25
335 5.79995 4.73697 0.341567 0.25
336 9.56519 4.36921 2.03832 0.25
337 4.79451 5.75536 8.55018 0.25
338 7.33309 8.39048 2.31385 0.25
339 3.96146 5.91768 8.85381 0.25
340 1.07364 2.3432 10.1579 0.25
341 3.5657 5.93189 4.50694 0.25
342 9.95376 3.7082 7.62557 0.25
343 10.1603 1.97468 3.56506 0.25
344 4.24099 1.06825 2.84286 0.25
345 5.97008 4.10482 10.3293 0.25
346 2.09424 1.82627 7.66975 0.25
347 3.59895 3.80509 10.209 0.25
348 5.85485 7.78942 0.453347 0.25
349 4.88478 1.6909 7.75651 0.25
350 2.66894 3.64851 7.65737 0.25
351 5.12123 6.38707 3.60288 0.25
352 8.16504 6.54418 1.48447 0.25
353 10.235 3.27265 7.60035 0.25
354 9.5006 3.75479 1.28808 0.25
355 2.42789 1.6257 2.56118 0.25
356 4.17325 9.62743 0.135219 0.25
357 3.24654 4.4429 5.74057 0.25
358 4.39314 9.24647 0.321602 0.25
359 8.85076 6.7274 0.617917 0.5
360 4.20571 0.660115 6.23045 0.25
361 0.116584 0.713884 6.3084 0.25
362 0.0896579 8.08312 9.51852 0.25
363 7.08869 2.54238 2.04818 0.25
364 9.86183 6.54119 2.49434 0.25
365 6.05748 9.16148 4.94662 0.25
366 8.9202 3.91704 2.33301 0.25
367 3.51078 0.35797 8.51566 0.25
368 9.48239 6.32729 7.58078 0.25
369 9.08181 4.71172 4.73987 0.5
370 4.68151 1.56835 7.00482 0.5
371 9.41377 6.50826 1.88464 0.5
372 1.06142 2.25246 4.3631 0.5
373 3.32725 10.2328 8.41008 0.25
374 3.58076 0.467687 8.95662 0.25
375 4.77743 0.218949 3.1888 0.25
376 0.836266 5.79593 4.24933 0.25
377 10.2946 7.64436 9.55787 0.25
378 9.6671 8.37278 1.45151 0.25
379 0.355348 3.50827 6.42201 0.25
380 2.16323 2.83535 4.67748 0.25
381 7.09121 5.018 1.9882 0.5
382 2.83882 8.27216 10.1893 0.25
383 5.67798 8.41024 8.38366 0.25
384 2.18276 6.73752 7.41451 0.25
385 1.22479 6.93056 5.17569 0.25
386 1.37568 5.90351 7.67435 0.25
387 1.27866 6.38226 7.69087 0.25
388 2.80133 2.34494 1.90952 0.25
389 4.7357 2.22879 1.16857 0.25
390 3.26735 3.44373 10.2914 0.25
391 4.43717 0.843024 7.02038 0.25
392 0.560344 5.73539 5.1855 0.25
393 9.20986 9.03618 6.61975 0.25
394 0.164548 0.225228 6.36281 0.25
395 2.04332 4.49654 2.72951 0.25
396 3.27557 0.457769 9.77014 0.25
397 7.37819 2.50167 2.85928 0.25
398 9.55566 4.1943 9.68802 0.25
399 2.31892 9.72683 7.29857 0.25
400 8.25018 2.87361 10.2803 0.25
401 5.58703 6.50875 3.56932 0.25
402 4.46993 5.89361 8.89483 0.25
403 6.23015 4.97194 0.260964 0.25
404 7.52233 3.48637 10.158 0.25
405 1.63907 5.64065 0.468092 0.25
406 6.41845 9.35507 5.25507 0.25
407 7.23153 7.06499 8.81402 0.25
408 9.34247 9.10153 1.3482 0.25
409 9.99243 6.84683 2.20279 0.25
410 5.09781 1.39348 4.21348 0.25
411 7.94506 8.77502 10.2347 0.25
412 4.96378 2.13347 7.51212 0.25
413 7.02928 2.77367 2.54592 0.25
414 7.11902 5.57575 2.48953 0.25
415 4.41647 0.800419 3.54707 0.5
416 10.0782 0.57477 8.91887 0.25
417 3.69263 8.03689 5.63257 0.5
418 0.727045 1.10689 6.71398 0.5
419 9.16162 0.0462675 3.2829 0.25
420 5.6492 8.57592 7.88973 0.25
421 9.37798 6.73182 6.92044 0.25
422 2.75586 6.98333 2.77062 0.25
423 1.72099 4.79209 2.96647 0.25
424 0.160893 0.0865174 9.56794 0.25
425 2.41769 0.0066794 4.56328 0.25
426 2.72187 1.84712 2.11399 0.25
427 7.08393 1.50518 6.47578 0.25
428 7.51251 9.83938 2.21692 0.25
429 5.50059 8.99612 7.6404 0.25
430 10.1982 9.34035 3.65288 0.25
431 7.28147 10.0764 0.865729 0.25
432 2.83308 7.95633 9.44597 0.25
433 2.86886 2.59445 5.23576 0.25
434 6.01982 9.97878 8.85568 0.25
435 0.639921 3.14475 9.28081 0.25
436 6.38477 4.22563 10.1439 0.25
437 0.602701 5.87523 0.103571 0.25
438 7.60315 0.886063 6.38592 0.25
439 9.63466 9.85709 3.49234 0.5
440 2.57524 2.88708 7.68419 0.5
441 1.2575 3.65223 2.30881 0.25
442 6.30972 7.3241 1.02719 0.25
443 9.63056 9.72638 4.2127 0.25
444 1.43715 3.69621 1.85421 0.25
445 5.2489 6.67934 3.25375 0.25
446 8.40854 4.67353 4.29829 0.25
447 6.59207 4.59433 0.068383 0.25
448 5.16806 1.22209 3.47257 0.5
449 0.567285 0.503947 6.32595 0.25
450 2.06062 0.94454 2.49635 0.25
451 3.76205 3.61866 0.631922 0.25
452 5.77858 4.32433 4.39325 0.25
453 6.43236 4.28103 7.93191 0.25
454 1.19651 5.75229 8.49823 0.25
455 1.3847 6.1307 8.16306 0.25
456 2.63656 1.95303 1.61233 0.25
457 9.6714 8.70806 0.651713 0.5
458 1.53581 6.22679 7.2518 0.25
459 1.18641 1.71197 6.85892 0.25
460 1.62155 5.7273 7.26488 0.25
461 3.63208 5.85756 1.70071 0.25
462 3.63103 6.35967 1.7633 0.25
463 1.654 10.282 4.30775 0.25
464 9.85865 1.32473 1.24818 0.25
465 6.66847 5.63314 2.17703 0.25
466 4.65971 5.66531 7.87028 0.5
467 3.15211 5.24952 5.4284 0.25
468 1.99869 1.45448 2.46782 0.25
469 3.74636 3.61106 2.44491 0.25
470 4.09647 4.12027 3.10265 0.25
471 3.09307 9.82707 5.12054 0.25
472 2.33366 2.47907 7.0133 0.25
473 3.02076 7.8487 9.94969 0.25
474 8.78258 3.78943 1.8845 0.25
475 8.27967 7.5629 4.43316 0.25
476 4.0867 6.51536 1.66473 0.25
477 9.76433 9.30447 3.91238 0.25
478 8.68378 6.02914 1.19329 0.5
479 6.58163 0.266967 1.35954 0.25
480 2.58313 8.03002 9.86623 0.25
481 4.12271 10.0413 1.491 0.25
482 6.41555 9.60071 5.64274 0.25
483 7.07577 0.0480676 0.222692 0.5
484 9.79197 3.3262 7.34938 0.25
485 7.5934 3.05257 9.89223 0.25
486 4.47314 8.22897 3.65114 0.25
487 3.15306 3.94575 10.3495 0.25
488 7.29746 9.45378 1.91694 0.25
489 9.15379 7.45962 4.17453 0.25
490 2.42737 3.2432 8.36573 0.25
491 8.68829 9.08656 6.86978 0.25
492 8.0142 2.42074 0.106773 0.25
493 9.63035 3.76424 7.1805 0.25
494 8.33334 4.5162 5.07192 0.25
495 9.71314 3.36147 6.879 0.25
496 4.44037 1.82702 6.26203 0.25
497 3.92526 3.93042 0.260503 0.25
498 8.33483 1.32686 8.95595 0.25
499 4.43927 9.29647 1.33658 0.25
500 4.18926 7.45544 9.06632 0.25
501 2.39506 10.2542 5.03323 0.25
502 8.88436 5.86846 7.2041 0.25
503 6.65494 8.29709 2.85099 0.25
504 6.52875 7.33445 0.216032 0.25
505 7.30596 1.26621 5.72944 0.5
506 5.56874 10.1111 5.51882 0.25
507 7.09624 8.486 2.77629 0.25
508 4.90002 8.61782 8.57609 0.25
509 1.62141 8.42156 7.48223 0.25
510 5.62354 4.22484 4.85121 0.25
511 4.32035 1.06237 6.54354 0.25
512 1.06151 4.73962 3.16831 0.25
513 1.45142 5.13043 9.80338 0.25
514 3.59975 2.20013 5.15149 0.25
515 1.90792 1.81176 6.93595 0.5
516 5.90865 9.0953 5.74244 0.5
517 8.71538 7.69531 4.21611 0.25
518 2.79546 0.586704 9.91879 0.25
519 2.8148 10.1778 4.80616 0.25
520 5.25036 2.03945 7.1212 0.25
521 1.07927 4.44422 5.46242 0.25
522 2.06356 0.21366 4.16396 0.25
523 3.10016 3.35214 7.81205 0.25
524 7.50551 1.55471 4.58665 0.25
525 2.32916 6.33181 7.03043 0.25
526 1.69585 5.77715 8.42239 0.25
527 6.45884 9.44288 2.66797 0.5
528 7.19553 8.72113 3.26042 0.25
529 4.54462 6.62591 1.41302 0.25
530 1.47724 7.90027 2.0043 0.25
531 0.308198 3.23993 9.65007 0.25
532 2.2525 8.22642 0.30562 0.25
533 8.98971 9.74609 3.75695 0.25
534 8.88428 4.73804 3.98629 0.25
535 7.07682 6.29983 9.01479 0.25
536 4.37503 9.13522 0.820304 0.25
537 7.5232 1.62105 2.8371 0.25
538 6.79284 4.35653 7.08635 0.25
539 10.3537 3.72477 7.01354 0.5
540 5.98181 9.89445 7.90735 0.25
541 9.70948 8.84097 1.30246 0.25
542 7.72515 8.7985 5.85509 0.25
543 9.14899 4.03253 4.38022 0.25
544 1.72878 2.09784 7.58294 0.25
545 10.3044 9.84501 3.75867 0.25
546 10.0804 1.07809 6.26143 0.25
547 9.50938 4.1682 1.6326 0.25
548 9.31662 4.39974 9.26976 0.25
549 1.58 1.1673 1.79579 0.25
550 9.28866 8.60796 1.28292 0.25
551 2.42063 7.29381 3.43668 0.25
552 9.03067 9.45815 6.89279 0.25
553 5.10053 3.2093 5.50781 0.25
554 8.80173 4.3098 4.2134 0.25
555 5.92676 9.02978 7.86287 0.25
556 1.55014 8.73719 7.90185 0.25
557 2.85302 9.68107 7.23613 0.25
558 2.43156 3.72766 8.42993 0.25
559 9.5533 0.708499 8.31681 0.25
560 3.681 4.71654 5.7671 0.25
561 0.735166 3.86688 1.56599 0.25
562 5.68027 5.21869 9.34473 0.25
563 5.63039 9.78119 8.19703 0.25
564 1.65516 1.18498 7.27344 0.25
565 1.65782 1.11154 2.31849 0.25
566 9.71271 6.00807 7.15524 0.25
567 1.62225 6.0817 0.712545 0.25
568 7.70138 1.32434 5.02604 0.25
569 7.48559 4.53809 7.51654 0.5
570 4.08992 3.28323 2.61251 0.25
571 4.6059 4.26549 3.05818 0.25
572 8.48944 1.71568 8.72168 0.25
573 0.67089 6.95414 5.0391 0.25
574 0.140057 1.18901 6.24211 0.25
575 6.19939 4.00666 4.30561 0.25
576 5.28334 1.68883 0.937293 0.25
577 0.325975 7.72293 5.10058 0.25
578 1.10523 5.28504 0.0657448 0.5
579 4.88379 5.25046 7.2505 0.25
580 8.04971 7.18806 4.63662 0.25
581 7.62856 6.80097 8.73723 0.25
582 6.79945 4.25469 5.07008 0.25
583 8.33954 5.95627 6.44464 0.25
584 5.11682 7.13933 3.36011 0.25
585 6.90186 0.125486 0.932016 0.25
586 1.76735 2.60033 4.51768 0.25
587 5.95719 9.83944 5.68349 0.25
588 2.53265 1.27013 9.33945 0.25
589 9.95 3.88016 1.46366 0.25
590 8.77943 7.47422 3.77539 0.25
591 3.72879 2.71321 5.26746 0.25
592 6.68303 5.37078 2.56242 0.25
593 5.23528 9.38063 5.84165 0.25
594 9.02383 6.22804 0.0701823 0.25
595 1.9863 2.45201 7.35749 0.25
596 9.72237 9.29527 1.09417 0.25
597 4.51104 0.587486 2.88174 0.25
598 6.69707 7.32203 0.691021 0.25
599 10.2561 1.27481 1.56078 0.25
600 3.83956 9.43739 1.88276 0.25
601 7.22323 10.2093 2.35998 0.25
602 6.22001 8.21973 2.6403 0.25
603 1.92494 5.99741 7.03396 0.25
604 9.28538 0.608586 0.956427 0.25
605 1.14288 7.92007 2.36577 0.25
606 1.64992 1.59597 7.59138 0.25
607 2.10374 2.34633 7.76293 0.25
608 6.18154 5.975 5.9389 0.5
609 3.42624 6.1947 1.33553 0.25
610 6.38791 4.63157 0.851426 0.5
611 8.52257 8.46439 7.32973 0.25
612 8.52848 0.235712 3.59415 0.5
613 7.77013 2.59937 9.69301 0.25
614 9.33145 6.95527 1.24227 0.25
615 7.57258 4.05332 8.07158 0.25
616 1.20864 1.42166 7.25301 0.25
617 2.28409 3.56564 7.95529 0.25
618 7.90762 3.21682 10.267 0.25
619 1.29414 9.7344 2.27575 0.25
620 6.75844 5.86623 2.62095 0.25
621 6.6224 4.52633 1.61231 0.25
622 7.58764 6.3184 8.9298 0.25
623 7.7062 4.44366 4.56337 0.5
624 4.78804 8.60945 8.12359 0.25
625 4.64191 2.09314 0.0920912 0.25
626 2.1975 2.60169 4.23169 0.25
627 7.0288 5.04482 2.72581 0.25
628 1.0608 9.83473 10.2894 0.25
629 7.45826 10.1268 10.0084 0.25
630 6.04733 7.76466 0.959725 0.25
631 8.16263 1.52264 5.11907 0.25
632 3.43691 3.71125 0.31129 0.25
633 3.76516 3.45639 0.116135 0.25
634 4.6246 7.99714 8.60428 0.5
635 9.28118 6.26448 7.1613 0.25
636 8.77736 5.17685 9.56097 0.25
637 6.51884 9.12169 4.8186 0.25
638 1.75461 9.92907 4.93939 0.5
639 6.67432 2.7274 2.20997 0.25
640 7.57657 1.82283 7.75208 0.25
641 3.46591 6.06769 4.03986 0.25
642 3.4731 7.74214 6.70244 0.25
643 2.78216 1.68943 10.0122 0.25
644 6.06452 9.9381 4.98485 0.5
645 3.27884 3.70866 0.803103 0.25
646 8.05197 7.25722 4.11225 0.25
647 6.8324 6.4554 5.73126 0.25
648 7.21328 1.55312 7.5835 0.25
649 4.81456 6.20013 8.76978 0.25
650 7.73676 1.67816 3.23769 0.25
651 5.15487 8.63983 7.76028 0.25
652 1.46598 5.32001 8.4527 0.25
653 0.692092 4.55909 5.79931 0.25
654 1.63283 6.66987 7.51262 0.25
655 9.93758 4.14156 1.84353 0.25
656 4.43104 5.11572 7.38469 0.25
657 8.22716 9.37164 7.07487 0.25
658 6.70889 4.4794 7.55947 0.25
659 9.07229 0.069087 4.1523 0.25
660 2.0244 6.05014 7.74203 0.5
661 2.32211 7.15629 2.94028 0.25
662 7.73048 9.30054 5.85167 0.25
663 3.58111 0.955827 9.13174 0.25
664 0.860628 2.6478 0.202271 0.25
665 8.19164 6.49863 0.934932 0.25
666 5.6197 9.77162 8.68934 0.25
667 7.41782 3.01648 0.0391622 0.25
668 7.01353 1.83804 5.33018 0.25
669 3.51113 7.72349 9.42197 0.5
670 10.3202 2.94282 9.76905 0.25
671 0.926644 6.34169 4.79755 0.5
672 5.87287 6.47903 5.58252 0.25
673 3.73997 9.88525 1.68698 0.25
674 7.0409 4.78839 4.47581 0.25
675 8.1441 8.67805 7.5411 0.25
676 4.6356 1.60636 0.600323 0.5
677 9.77356 3.27604 7.88646 0.25
678 9.84258 0.424169 6.33699 0.5
679 2.40069 2.15279 7.40496 0.25
680 2.78061 7.31861 3.12533 0.25
681 7.89012 8.98142 7.22262 0.25
682 2.97362 7.84453 5.45594 0.25
683 0.427758 2.91293 0.121968 0.25
684 1.25497 9.1702 7.76427 0.25
685 8.87413 9.99989 3.32696 0.25
686 6.71993 9.76429 5.25887 0.25
687 9.47147 3.5927 7.60919 0.25
688 5.52904 7.65923 0.850802 0.25
689 1.87599 2.18395 4.27521 0.25
690 9.81206 7.60958 9.50684 0.25
691 0.649391 8.24759 5.7432 0.25
692 1.14159 4.40736 5.9574 0.25
693 9.74762 2.0771 3.78385 0.25
694 3.12576 4.05807 0.481019 0.25
695 8.0084 1.50231 4.64492 0.25
696 5.11169 0.645193 3.90051 0.25
697 1.20724 8.73092 7.57781 0.25
698 8.43412 5.75004 0.430329 0.25
699 3.72298 7.34179 5.47378 0.25
700 5.64863 8.1126 0.745484 0.25
701 3.3931 4.83086 5.37148 0.25
702 6.24626 3.66602 4.67628 0.25
703 2.21377 0.558455 2.28436 0.25
704 6.76606 4.09685 8.31658 0.25
705 4.22471 5.9951 9.32695 0.25
706 7.72085 1.42467 7.52192 0.25
707 6.11787 6.87305 5.32914 0.25
708 5.61351 6.97737 3.40921 0.25
709 1.13105 4.32861 2.08705 0.5
710 1.11882 4.82435 5.71616 0.25
711 7.55255 3.82371 7.16967 0.25
712 4.55353 8.72294 3.75192 0.25
713 1.37748 5.08364 3.10214 0.25
714 2.10672 10.1355 4.31568 0.25
715 2.82888 3.46222 8.63437 0.25
716 10.0986 9.02235 1.2325 0.25
717 2.83963 5.29328 5.06726 0.25
718 5.727 3.47224 5.10965 0.5
719 5.8723 2.89864 5.59965 0.25
720 5.39972 0.972275 4.13313 0.25
721 3.72033 8.16618 6.60779 0.25
722 4.09089 5.37865 4.3096 0.25
723 5.63881 6.81314 6.47115 0.25
724 9.62264 0.742819 8.79206 0.25
725 4.21428 0.209226 6.47861 0.25
726 3.75807 5.68456 4.15573 0.25
727 4.09526 5.84128 4.59255 0.25
728 2.40135 8.64703 9.649 0.5
729 7.75702 1.88923 5.7797 0.25
730 7.8089 1.33236 8.91693 0.25
731 0.727065 5.82745 9.99001 0.25
732 3.65537 7.32601 6.45754 0.25
733 9.76803 2.23841 4.58947 0.25
734 8.33412 7.21902 3.67674 0.25
735 3.35673 2.48369 5.38484 0.25
736 8.91445 6.41784 6.10044 0.25
737 0.575574 4.27904 5.40374 0.25
738 5.29053 8.38993 8.73089 0.25
739 3.48902 4.21056 0.189897 0.25
740 8.64796 6.62455 1.68162 0.25
741 7.08042 2.17164 1.77053 0.25
742 5.08358 2.13165 0.796362 0.25
743 9.66235 1.89965 4.21556 0.25
744 2.41825 2.20583 4.7991 0.5
745 0.318682 4.25443 5.86036 0.25
746 7.07257 4.62675 1.32509 0.25
747 7.7307 2.03907 0.123993 0.25
748 7.30106 9.99035 9.60758 0.25
749 7.209 4.29186 8.18437 0.25
750 4.28272 2.15098 6.56765 0.25
751 1.79249 2.69182 4.98613 0.25
752 9.73537 2.39714 4.13944 0.25
753 0.981134 3.12703 10.0185 0.5
754 8.16119 1.90199 5.54733 0.25
755 7.77455 2.73656 10.1799 0.25
756 5.31005 1.58239 1.46237 0.25
757 0.0524948 2.03123 4.28268 0.5
758 2.12816 9.67341 4.27097 0.25
759 5.01631 2.78511 8.21184 0.25
760 4.61156 1.42886 3.99557 0.25
761 5.65227 6.52402 6.04563 0.25
762 0.177406 3.95534 6.25578 0.25
763 6.29528 4.68814 4.74601 0.5
764 4.82517 6.7254 3.49523 0.25
765 6.83565 6.76664 8.93557 0.25
766 1.82285 5.03182 3.35644 0.25
767 6.57296 2.66055 2.66573 0.25
768 5.24607 2.54899 5.97559 0.5
769 1.22275 2.50263 9.70295 0.25
770 6.2553 6.89128 6.05878 0.5
771 5.53899 7.44406 0.406728 0.25
772 7.07165 9.13073 5.51076 0.5
773 5.60447 4.40464 0.0866415 0.25
774 6.76683 8.78509 2.95867 0.25
775 10.1751 7.52849 9.09292 0.25
776 4.71904 9.60396 0.142731 0.25
777 1.2216 8.32402 2.02812 0.25
778 3.0569 0.259144 8.43572 0.25
779 9.72549 7.31029 9.12752 0.25
780 5.30777 4.99288 9.60871 0.25
781 5.43788 7.34208 3.70809 0.25
782 9.3899 6.46446 1.12931 0.25
783 3.97332 8.04565 3.6845 0.25
784 3.6083 4.11385 0.654461 0.25
785 8.62232 8.89248 7.58939 0.25
786 6.4374 6.66684 5.03397 0.25
787 6.08067 6.35979 5.19094 0.25
788 4.85867 0.954796 4.18054 0.25
789 6.45993 4.68426 2.11438 0.25
790 4.81827 2.0269 6.39733 0.25
791 8.41894 6.23243 6.11833 0.25
792 4.44104 3.94813 2.39566 0.5
793 10.1476 0.0907103 8.90365 0.25
794 1.65959 1.56765 2.13346 0.25
795 1.3359 8.6418 7.11189 0.25
796 2.78021 10.1549 4.03091 0.5
797 10.354 9.69632 3.30102 0.25
798 9.25745 4.44505 4.07293 0.25
799 3.56413 5.56864 0.950068 0.5
800 9.54525 1.66177 1.46798 0.25
801 6.13112 10.3143 9.97774 0.25
802 6.27264 7.75884 0.13451 0.25
803 9.451 4.67524 9.70624 0.25
804 4.04048 5.20452 7.75019 0.25
805 8.71199 4.00033 4.62145 0.25
806 2.13882 9.69705 7.73362 0.25
807 2.91311 4.7436 5.49366 0.25
808 9.11915 5.2305 9.18647 0.25
809 1.16246 5.6341 9.79601 0.25
810 7.44423 1.77703 6.20158 0.25
811 9.08091 4.3314 9.73424 0.25
812 3.88356 6.14236 1.42372 0.25
813 1.70173 3.82425 2.26937 0.25
814 1.44603 10.1009 10.3303 0.25
815 3.62094 5.33626 4.85707 0.5
816 6.56331 0.181687 9.96642 0.25
817 4.48082 9.83814 0.839276 0.5
818 8.8331 5.98554 0.464855 0.25
819 4.36713 6.14021 1.51103 0.25
820 7.22066 3.85622 8.38385 0.25
821 8.1343 8.56237 7.05316 0.25
822 3.66566 3.83984 3.2403 0.25
823 1.89602 9.14569 7.42061 0.5
824 7.14352 4.05756 7.00325 0.25
825 8.09409 9.03989 6.4474 0.5
826 6.31872 2.36307 2.31576 0.25
827 9.27941 6.60929 6.37068 0.25
828 9.86905 4.1129 2.34338 0.25
829 0.68116 7.95208 4.79013 0.25
830 4.12274 6.46138 1.17257 0.25
831 2.64075 7.41135 2.67772 0.25
832 4.15012 5.50285 9.15645 0.25
833 6.32604 6.31235 6.55647 0.25
834 8.27828 4.04154 4.83984 0.25
835 1.40236 1.23226 6.86619 0.25
836 6.41341 5.19841 2.13041 0.25
837 3.74596 7.28947 8.83554 0.25
838 2.4952 9.36778 6.9954 0.25
839 0.096177 2.77301 4.58617 0.25
840 9.42847 4.88068 4.10055 0.25
841 5.95624 4.78317 9.92448 0.5
842 7.3642 6.73545 9.13946 0.25
843 1.05399 9.4593 1.9527 0.25
844 6.35217 4.9373 1.67913 0.25
845 8.33079 4.15972 4.33127 0.25
846 0.674264 5.31833 4.34987 0.25
847 7.5389 2.50523 0.131621 0.25
848 3.19502 1.22382 9.71157 0.5
849 6.56499 4.88248 2.55637 0.25
850 4.55163 8.58712 3.30445 0.25
851 3.73976 6.2887 0.962715 0.25
852 5.54108 0.726563 3.72093 0.25
853 9.53107 10.235 4.13054 0.25
854 2.97197 3.16284 8.29831 0.25
855 4.06347 6.03768 1.86025 0.25
856 9.39988 3.05199 7.61793 0.25
857 6.35062 3.98017 5.10405 0.25
858 8.72626 6.3499 3.8815 0.25
859 9.43982 1.20165 1.48561 0.25
860 3.29513 10.0211 4.64313 0.25
861 4.11699 9.82188 1.93562 0.25
862 7.54519 1.25512 8.23018 0.5
863 0.200754 3.22029 10.1334 0.25
864 5.12665 3.81402 2.53731 0.25
865 1.018 7.14552 4.77231 0.25
866 2.63462 0.973748 10.1805 0.25
867 3.11792 7.34119 9.91188 0.25
868 9.64812 0.927017 1.14156 0.25
869 0.332838 8.23939 4.9786 0.25
870 7.21061 6.59231 8.63784 0.25
871 6.61769 2.33643 1.92595 0.25
872 8.31481 1.72682 7.9806 0.5
873 5.30672 9.79951 5.11171 0.25
874 6.74526 9.53291 4.87954 0.25
875 3.80429 7.63575 5.03925 0.25
876 4.14539 5.98835 1.05612 0.25
877 0.516358 2.42491 3.80633 0.25
878 0.0955511 10.2786 9.15824 0.25
879 0.593593 7.4436 4.81787 0.25
880 5.74724 3.81718 4.49498 0.25
881 4.15842 6.64807 8.91219 0.5
882 10.2553 0.0498891 5.88877 0.25
883 5.40027 2.8742 5.3817 0.25
884 2.0949 2.16646 2.13372 0.5
885 8.51363 9.76168 3.70753 0.25
886 9.78218 9.1924 1.59329 0.25
887 1.58054 6.58115 8.02897 0.25
888 2.21406 0.437194 1.79845 0.25
889 4.98979 5.28973 8.49462 0.25
890 0.603222 3.79848 6.06573 0.25
891 4.88548 3.82111 2.9046 0.25
892 6.28405 8.66561 2.89802 0.25
893 8.03585 2.98688 9.83698 0.25
894 2.51143 8.58965 0.097857 0.25
895 9.87126 2.89591 7.56867 0.25
896 9.85135 0.934081 1.59793 0.25
897 3.98064 7.68105 6.61271 0.25
898 0.736566 5.01159 5.06565 0.5
899 0.471772 0.889491 6.01899 0.25
900 8.33891 7.6188 3.93012 0.25
901 0.678004 8.14944 5.26366 0.25
902 4.85887 1.73699 1.26435 0.25
903 7.92852 6.7813 4.32482 0.25
904 1.31512 6.13483 0.0296236 0.5
905 9.14782 1.04103 1.09393 0.25
906 9.25686 9.39176 4.01848 0.25
907 4.05607 3.62639 2.9232 0.25