ITEM: TIMESTEP
160000
ITEM: NUMBER OF ATOMS
1000
ITEM: BOX BOUNDS xy xz yz pp pp pp
0.0000000000000000e+00 1.0357442000000001e+01 0.0000000000000000e+00
0.0000000000000000e+00 1.0357442000000001e+01 0.0000000000000000e+00
0.0000000000000000e+00 1.0357442000000001e+01 0.0000000000000000e+00
ITEM: ATOMS id x y z radius
1 1.45035 4.26963 2.93109 0.5
2 2.39424 7.28018 2.5285 0.5
3 5.09838 2.06673 1.28338 0.25
4 0.619275 1.83104 3.57984 0.25
5 10.1875 3.17045 7.46239 0.25
6 0.507214 3.17235 9.4758 0.25
7 4.74891 0.643691 2.98932 0.25
8 8.75235 4.06327 2.14201 0.25
9 10.3561 1.01921 1.52719 0.25
10 9.04186 7.39597 4.19302 0.25
11 9.0662 8.18079 0.713313 0.25
12 7.93424 3.0356 0.0710602 0.25
13 3.77634 7.49808 6.1818 0.25
14 5.42033 1.98845 0.0754165 0.25
15 8.89189 6.438 6.19058 0.25
16 8.34319 8.57222 6.92995 0.25
17 5.28551 9.22164 8.43957 0.5
18 2.62967 8.01186 9.72894 0.25
19 7.01561 4.14613 4.40144 0.25
20 9.16234 1.25577 1.0473 0.25
21 0.165794 10.1633 9.36588 0.25
22 4.63521 0.929496 2.64699 0.25
23 3.98712 4.31151 2.71764 0.25
24 2.96414 2.41662 4.39265 0.25
25 7.93638 2.36289 6.06956 0.25
26 5.44169 2.40123 8.93613 0.25
27 1.4468 8.01104 10.1103 0.25
28 8.64099 6.15211 6.47756 0.25
29 3.88779 7.45946 5.74701 0.25
30 1.10917 8.68689 7.07993 0.25
31 1.00194 7.8213 4.90551 0.25
32 9.02795 6.50273 1.27609 0.25
33 8.88095 8.63935 0.576093 0.25
34 0.852709 2.69182 10.0375 0.25
35 8.0506 2.84247 0.546931 0.25
36 7.98793 8.51915 9.50606 0.25
37 3.23219 4.22226 6.19541 0.25
38 7.58034 0.543552 1.19349 0.25
39 6.40923 3.70771 5.00443 0.25
40 8.29574 4.62176 3.97321 0.25
41 8.96415 7.4514 3.23383 0.25
42 6.20906 8.95234 2.51431 0.5
43 0.901398 8.4563 5.41232 0.25
44 1.77102 10.1282 3.8315 0.25
45 7.49255 6.68844 9.16929 0.25
46 1.15378 8.49558 7.54446 0.25
47 4.55864 8.86582 3.24769 0.25
48 2.23737 0.0252893 3.83066 0.25
49 3.98415 5.98119 9.16001 0.25
50 0.0113941 9.76082 3.8297 0.25
51 9.58528 8.83476 1.60123 0.25
52 5.7105 7.41087 0.855776 0.25
53 6.4235 4.62568 1.65065 0.25
54 4.03742 5.12915 7.57646 0.25
55 5.7204 6.4284 6.73728 0.25
56 5.30396 1.62973 1.53113 0.25
57 4.96025 1.97396 0.359126 0.25
58 5.70037 4.71817 0.323111 0.25
59 3.8931 7.24377 9.34939 0.25
60 7.2234 6.32872 9.43226 0.25
61 3.57641 0.0955237 8.44613 0.25
62 8.96602 6.52142 6.65508 0.25
63 0.6088 5.22847 4.37112 0.25
64 10.3403 1.35752 1.94975 0.25
65 6.15575 7.00056 6.80668 0.25
66 4.26968 0.855287 3.00208 0.25
67 9.46842 4.93182 9.19966 0.25
68 6.21804 0.215751 0.153851 0.25
69 2.87991 6.99656 3.00739 0.25
70 4.16939 5.68423 3.90447 0.25
71 1.21169 8.15343 2.00961 0.25
72 5.60824 6.86609 3.32027 0.25
73 8.93393 9.36111 7.28255 0.5
74 2.81056 7.45527 3.10215 0.25
75 1.00431 5.82991 0.634656 0.25
76 2.01047 8.7522 10.0287 0.25
77 6.99875 6.75298 9.18763 0.25
78 3.31293 9.79293 1.60468 0.25
79 1.36457 4.89989 9.53581 0.25
80 8.35077 8.85699 9.41451 0.25
81 8.62379 8.94218 7.81472 0.25
82 1.37605 0.220709 2.12397 0.25
83 1.63235 7.86473 2.07224 0.25
84 5.1172 9.72349 5.68544 0.25
85 3.83471 6.54476 0.980568 0.25
86 9.76373 4.16863 1.73075 0.5
87 0.874777 5.77114 8.31012 0.25
88 2.68878 3.8652 8.17665 0.25
89 0.752445 0.0927632 9.92675 0.25
90 6.94574 9.88425 1.73924 0.5
91 4.55126 8.6318 3.67985 0.25
92 9.86103 0.874786 1.48316 0.25
93 8.15326 0.88677 8.29292 0.25
94 0.891726 4.01332 1.50498 0.25
95 7.7985 9.10719 5.53556 0.25
96 7.58964 1.0683 7.0519 0.25
97 5.52038 9.8463 5.51958 0.25
98 9.87781 0.592895 6.0005 0.25
99 5.17667 1.9826 8.3212 0.5
100 5.30067 2.93882 5.28589 0.25
101 5.2729 2.15716 9.68232 0.5
102 4.16195 5.51623 8.2287 0.5
103 7.11153 0.490265 0.98818 0.25
104 0.911326 9.89219 0.170953 0.25
105 2.09199 4.55825 3.16542 0.25
106 6.39842 6.48518 6.29449 0.25
107 5.62023 9.89627 8.64755 0.25
108 1.41035 3.92511 1.65541 0.25
109 7.54035 2.60476 2.5682 0.25
110 5.75837 10.067 5.88113 0.25
111 2.2323 5.21034 0.17318 0.25
112 3.8138 5.21708 5.71956 0.25
113 2.65418 9.52245 4.70158 0.25
114 8.53471 5.93872 0.0558035 0.25
115 4.54024 3.21518 2.43573 0.25
116 0.330485 2.6673 4.41403 0.25
117 6.82835 2.46066 2.49612 0.5
118 6.13231 8.20893 2.53178 0.25
119 10.0446 2.0436 3.81813 0.25
120 1.66659 5.85939 0.100997 0.25
121 8.43289 2.14918 5.4364 0.5
122 1.71815 4.85435 2.45356 0.25
123 9.14302 9.0204 1.7841 0.25
124 8.32127 6.07751 0.440236 0.25
125 2.24304 9.88312 5.38859 0.25
126 5.84386 7.44638 0.409433 0.25
127 6.06296 7.7406 0.732114 0.25
128 9.29891 9.82481 4.37115 0.25
129 1.7143 5.33136 3.30426 0.25
130 9.5055 9.3592 1.71231 0.25
131 7.38741 2.81215 2.10441 0.25
132 8.53734 4.05175 4.67979 0.25
133 7.83242 8.98351 9.41745 0.25
134 3.69176 4.01486 3.04241 0.25
135 6.12231 9.63681 8.12308 0.5
136 8.47736 8.77887 7.36555 0.25
137 1.21392 8.71143 2.10933 0.25
138 7.37537 5.02265 4.76589 0.25
139 7.26786 4.52479 7.63312 0.5
140 4.53746 8.14077 3.59783 0.25
141 2.18333 1.48408 1.39246 0.25
142 2.97006 2.86125 4.57472 0.25
143 8.06403 0.962471 3.04479 0.25
144 9.7027 6.27176 2.48572 0.25
145 3.866 7.93382 5.89951 0.25
146 7.76637 8.78359 2.57146 0.25
147 4.37833 5.24518 3.96082 0.25
148 2.39727 1.64273 10.1723 0.25
149 9.80802 7.51057 9.4614 0.25
150 4.49423 5.32793 7.58057 0.25
151 6.93636 9.98838 10.0775 0.25
152 3.61218 9.80161 1.1821 0.25
153 5.33242 1.66121 7.67965 0.25
154 5.42971 9.7085 7.78224 0.25
155 3.80379 5.72434 1.7733 0.25
156 0.708012 8.76202 7.38901 0.25
157 5.2572 1.39073 3.90789 0.25
158 8.71996 8.55281 6.56344 0.25
159 3.16022 2.66719 5.39561 0.25
160 2.51553 3.39549 7.98589 0.25
161 3.26509 0.441601 8.74479 0.25
162 4.1649 2.26883 6.00982 0.5
163 6.91635 9.87821 2.50199 0.25
164 5.58315 8.54091 8.26636 0.25
165 0.512669 2.96261 9.91315 0.25
166 6.62457 4.30327 6.64187 0.25
167 8.81469 10.2576 3.80096 0.25
168 0.215059 7.66745 9.17669 0.25
169 9.57671 5.81993 7.29065 0.25
170 3.32149 0.0311526 8.93311 0.25
171 0.820459 9.25995 7.52825 0.25
172 9.17873 6.48299 7.11005 0.25
173 0.772185 2.15803 3.20879 0.25
174 4.91422 1.91428 6.17505 0.25
175 9.6934 2.95157 7.38391 0.25
176 1.03122 5.3273 0.457748 0.25
177 9.63439 6.25542 7.05185 0.25
178 7.71165 2.37727 5.60208 0.25
179 2.73958 9.53464 7.91045 0.25
180 7.10584 8.81469 2.18486 0.5
181 0.822831 4.13185 5.77702 0.25
182 7.65185 1.31612 3.85756 0.25
183 2.9965 10.2187 4.44279 0.25
184 9.35552 4.72964 9.91724 0.25
185 9.04427 8.89979 6.65709 0.25
186 2.24782 8.3482 9.96609 0.25
187 3.50784 4.17057 10.0288 0.25
188 5.16784 2.50438 7.78893 0.25
189 9.93181 0.271312 6.354 0.25
190 2.5764 7.54057 3.54503 0.25
191 4.98992 2.54807 8.73026 0.25
192 8.81317 9.38227 6.46558 0.25
193 4.72578 2.43447 9.19076 0.25
194 3.51289 9.37737 1.42601 0.25
195 4.85715 5.18356 9.82026 0.25
196 5.05352 2.31215 0.0505648 0.25
197 9.34478 5.90974 6.52971 0.5
198 7.40939 1.81939 7.03759 0.5
199 6.88269 0.109806 9.96062 0.25
200 7.15936 1.08818 6.28522 0.25
201 6.15122 6.58288 6.70896 0.25
202 3.34827 7.62895 5.13068 0.25
203 4.87686 9.33518 0.188685 0.25
204 0.122492 3.8627 6.10285 0.25
205 3.90604 0.2927 6.76789 0.25
206 0.824081 2.77774 4.2159 0.25
207 1.28322 5.23487 3.90805 0.5
208 3.65848 4.44085 6.08159 0.25
209 7.50308 9.19853 2.66553 0.25
210 3.96939 10.1579 6.69571 0.25
211 1.30546 4.95893 2.68006 0.25
212 0.380383 3.82529 2.01392 0.5
213 8.82554 3.64296 1.8477 0.25
214 3.32645 5.12387 5.88447 0.25
215 9.72888 0.909293 9.25286 0.25
216 5.74415 1.76976 0.837052 0.25
217 0.405146 8.2333 5.52716 0.25
218 2.92982 1.50863 1.47665 0.5
219 0.824906 4.26286 6.24385 0.25
220 6.42248 9.67219 2.58126 0.25
221 8.64828 7.61552 4.28295 0.25
222 8.78144 6.21755 6.95425 0.25
223 5.28259 9.47607 5.21177 0.25
224 10.2161 4.10625 7.5762 0.25
225 8.03546 1.57829 5.35673 0.25
226 6.31937 8.93966 5.4931 0.25
227 7.25165 0.188758 1.39353 0.25
228 4.92427 1.87277 0.859601 0.25
229 2.32809 2.40853 1.0715 0.25
230 8.52902 7.3495 3.44098 0.25
231 7.07682 3.58017 7.11186 0.25
232 6.70752 9.49595 2.28712 0.25
233 7.66459 1.95105 8.4663 0.5
234 4.29347 9.66903 1.67533 0.25
235 0.907989 8.849 7.82746 0.25
236 1.44078 5.63832 0.46329 0.25
237 8.37105 1.23489 3.33555 0.25
238 1.13356 5.89292 4.29114 0.25
239 0.157776 2.77919 9.58399 0.25
240 1.46101 8.26661 2.6838 0.5
241 1.42648 8.94575 2.48365 0.25
242 3.69674 8.30147 6.23383 0.25
243 0.949326 6.28598 0.429555 0.25
244 1.04775 1.31786 7.30011 0.25
245 5.68029 6.86648 6.86467 0.25
246 1.54432 8.11158 0.258062 0.25
247 3.10646 7.33182 2.68934 0.25
248 5.11999 1.71195 9.06304 0.25
249 7.10255 4.61076 4.57211 0.25
250 7.42283 1.31231 6.61689 0.25
251 1.6099 1.12048 6.51823 0.25
252 6.76714 7.21148 8.37152 0.25
253 3.78155 7.99326 8.86182 0.25
254 0.828706 8.42358 2.25983 0.25
255 1.00291 10.2712 2.14097 0.25
256 4.22653 5.95308 4.63924 0.25
257 0.556707 10.0827 10.1831 0.25
258 4.86887 4.69084 7.16028 0.25
259 2.28261 9.74197 4.90861 0.25
260 0.943394 0.0176775 0.0336039 0.25
261 6.76026 6.33508 9.25643 0.25
262 5.86638 6.56689 2.98447 0.25
263 8.41242 8.55903 9.8012 0.25
264 7.5958 9.56626 9.92489 0.5
265 4.67547 3.84946 2.99289 0.25
266 5.25933 3.61588 2.48747 0.25
267 3.49706 7.19829 5.86764 0.25
268 3.51557 7.88607 6.27118 0.25
269 7.5546 9.39824 5.89127 0.25
270 3.33077 7.35986 6.31569 0.25
271 3.51307 9.43589 1.90248 0.25
272 6.17702 6.65509 5.5316 0.25
273 9.51009 3.58729 6.63306 0.25
274 3.27903 4.33252 5.71374 0.25
275 10.151 6.28183 2.67983 0.25
276 8.58156 1.08811 8.10083 0.25
277 2.87977 10.1851 8.33484 0.5
278 4.27268 6.31232 8.45913 0.25
279 3.7557 0.297612 8.91383 0.25
280 2.79405 0.659918 8.81689 0.25
281 4.19621 8.79659 4.00689 0.25
282 4.51551 0.91298 3.78415 0.25
283 9.68396 0.378472 8.5794 0.25
284 1.90883 5.50475 0.369352 0.25
285 8.6406 6.63917 1.07104 0.25
286 0.414214 1.36371 1.71796 0.25
287 2.21473 7.96308 2.87658 0.25
288 1.43563 5.59483 4.62759 0.25
289 9.18805 0.768202 0.991252 0.25
290 9.65613 3.81922 2.35635 0.25
291 8.31802 2.78995 0.14136 0.25
292 3.80112 9.72597 1.59725 0.25
293 4.89882 2.58338 7.09996 0.5
294 0.132336 6.58896 2.47082 0.25
295 6.90514 0.983787 6.99955 0.5
296 3.23512 2.77272 4.1457 0.25
297 0.791474 8.04602 5.71088 0.25
298 4.37263 9.30035 0.328415 0.25
299 8.87334 4.87032 9.70265 0.25
300 2.4826 10.3233 5.54502 0.25
301 4.91834 8.5056 8.42839 0.25
302 4.60135 4.50309 7.57563 0.25
303 8.90123 5.22228 10.3688 0.5
304 4.03264 3.36632 2.46434 0.25
305 1.97888 7.8617 2.45189 0.25
306 10.2745 7.45264 9.49426 0.25
307 1.01489 10.0148 10.0271 0.25
308 9.30764 6.57959 6.24655 0.25
309 8.21453 1.62324 8.77579 0.25
310 6.50818 6.9318 6.46884 0.25
311 1.66678 9.82225 1.90908 0.25
312 8.74705 1.09875 8.74212 0.5
313 1.24726 7.64892 2.18866 0.25
314 0.567449 4.37325 1.48146 0.25
315 3.25401 0.652821 9.45544 0.5
316 6.44079 3.8602 8.09172 0.25
317 5.91268 9.45083 8.82992 0.25
318 0.224356 7.88785 9.62935 0.25
319 10.3313 10.1658 4.07626 0.25
320 1.17653 2.32991 10.0593 0.25
321 2.3182 1.90334 1.11989 0.25
322 1.1573 7.32933 4.85458 0.25
323 6.38809 10.133 9.48356 0.5
324 7.89522 2.29415 2.78054 0.25
325 9.20261 3.73791 2.10696 0.25
326 1.77238 0.288004 3.85353 0.25
327 1.464 9.06551 7.07325 0.25
328 4.40705 3.45848 2.84 0.25
329 8.41039 6.9533 4.03403 0.5
330 10.0066 6.7335 2.4438 0.25
331 9.02062 0.249783 3.9273 0.25
332 5.52084 7.74322 0.148375 0.25
333 10.2208 7.87305 8.82809 0.25
334 6.15645 5.03104 1.58178 0.25
335 5.70158 5.17416 0.420233 0.25
336 9.20876 3.59432 1.61637 0.25
337 4.66406 6.00266 8.57419 0.25
338 6.43041 8.35455 2.10179 0.25
339 3.78535 6.14866 8.41746 0.25
340 0.384783 2.49705 9.94826 0.25
341 4.32135 5.62714 4.34875 0.25
342 9.45669 3.67671 7.13342 0.25
343 10.1974 2.78003 4.3181 0.25
344 4.14786 1.03785 3.46166 0.25
345 6.43606 4.29751 10.242 0.25
346 1.54299 1.37555 7.49829 0.25
347 2.98958 3.59052 10.2269 0.25
348 6.32604 7.55256 0.348785 0.25
349 4.8626 1.63732 7.70146 0.25
350 2.05585 3.42526 7.83101 0.25
351 5.78704 6.76591 3.76141 0.25
352 8.18317 6.62987 1.21042 0.25
353 9.73351 4.00003 7.44413 0.25
354 10.1073 3.42603 1.78348 0.25
355 2.99999 1.99839 2.02045 0.25
356 4.42847 9.93644 0.831334 0.25
357 3.07257 4.82171 5.60476 0.25
358 4.16935 9.77294 0.40468 0.25
359 9.04098 6.27236 0.54538 0.5
360 4.08722 0.222662 6.36664 0.25
361 10.2527 0.720957 6.30733 0.25
362 0.182649 8.13699 9.1521 0.25
363 7.35899 3.04998 2.52537 0.25
364 10.3378 6.43882 1.70392 0.25
365 5.96028 9.01948 5.15258 0.25
366 9.05332 4.06329 1.72747 0.25
367 3.80442 0.133937 9.78064 0.25
368 9.45327 6.28284 7.50346 0.25
369 9.21075 4.31361 4.56962 0.5
370 4.95937 1.65871 7.033 0.5
371 9.61124 6.60993 1.76739 0.5
372 1.28084 2.29704 3.8038 0.5
373 3.65192 0.0414312 9.31057 0.25
374 2.84584 0.206133 9.02489 0.25
375 4.80744 1.1763 4.02848 0.25
376 0.673552 5.70279 4.20636 0.25
377 10.1432 7.89446 9.32345 0.25
378 9.48881 8.31439 1.59704 0.25
379 0.427876 4.02753 6.42043 0.25
380 2.01497 2.32962 4.03568 0.25
381 6.77199 5.29616 2.05214 0.5
382 1.80834 8.25021 9.84835 0.25
383 5.97281 8.46061 7.88193 0.25
384 1.57723 6.52211 7.26174 0.25
385 0.619349 6.70812 5.19782 0.25
386 1.19919 5.82398 7.48557 0.25
387 1.52498 6.07022 7.17866 0.25
388 2.68582 2.62757 1.37053 0.25
389 5.75032 1.47823 1.2881 0.25
390 3.05182 4.08753 10.0485 0.25
391 4.37766 0.0518222 6.74509 0.25
392 0.499586 5.51723 4.68249 0.25
393 8.82953 8.69689 7.03138 0.25
394 10.0396 0.494633 5.56488 0.25
395 2.10401 4.6037 2.6794 0.25
396 2.68445 1.07265 9.13096 0.25
397 7.45833 2.09756 2.57112 0.25
398 9.28401 4.41885 9.09599 0.25
399 2.3543 9.7781 8.13654 0.25
400 7.5189 2.73986 10.3336 0.25
401 6.1086 6.6956 3.38589 0.25
402 4.14618 5.97017 8.72253 0.25
403 6.07982 4.9675 0.137771 0.25
404 7.55099 3.13466 9.48873 0.25
405 1.39321 6.11324 0.47964 0.25
406 6.26601 9.4161 5.34219 0.25
407 6.82056 6.51326 8.75763 0.25
408 8.8342 8.47158 1.03573 0.25
409 10.1611 6.33445 2.21423 0.25
410 5.729 0.686318 4.07783 0.25
411 8.26779 9.30801 10.0691 0.25
412 4.94463 2.09532 7.65778 0.25
413 7.47126 2.37818 3.01654 0.25
414 7.45839 5.51534 2.26223 0.25
415 4.78838 1.38669 3.28676 0.5
416 9.77936 0.42848 9.10972 0.25
417 3.10595 7.81597 5.79349 0.5
418 0.859184 1.24604 6.57154 0.5
419 9.0773 0.112253 3.44497 0.25
420 5.545 8.79198 7.87746 0.25
421 8.74627 5.8362 7.37557 0.25
422 2.47488 7.11995 3.30387 0.25
423 1.77636 4.8933 2.95891 0.25
424 0.0280328 0.246645 9.528 0.25
425 2.61057 0.133393 4.67435 0.25
426 2.96856 2.29942 1.61263 0.25
427 6.98212 1.53442 6.47733 0.25
428 6.54958 9.2229 1.83868 0.25
429 5.61304 9.25029 7.80868 0.25
430 9.45442 9.50122 4.0661 0.25
431 6.97244 0.00077524 1.06995 0.25
432 2.8566 7.6417 9.97277 0.25
433 2.92417 2.95448 5.02079 0.25
434 5.81292 9.80875 9.15095 0.25
435 10.3456 3.21061 9.32833 0.25
436 6.46962 4.73075 0.173616 0.25
437 1.2449 5.73062 9.63833 0.25
438 7.52266 0.830144 6.58827 0.25
439 9.66407 10.1159 3.81184 0.5
440 2.32893 2.6686 7.82647 0.5
441 1.08041 3.87528 2.45657 0.25
442 5.31505 7.69279 0.993744 0.25
443 9.79676 9.6274 4.41095 0.25
444 1.08241 3.76901 1.99159 0.25
445 5.592 6.37668 3.9094 0.25
446 8.37014 4.90283 4.42286 0.25
447 6.28459 4.74083 10.0875 0.25
448 5.21341 0.703428 3.59283 0.5
449 10.2129 0.535322 6.73731 0.25
450 2.66176 1.52721 2.153 0.25
451 3.34686 3.98792 0.486329 0.25
452 5.75116 4.33774 4.74523 0.25
453 7.517 3.92382 7.94932 0.25
454 1.76709 5.7406 8.63228 0.25
455 1.10284 6.04129 7.9299 0.25
456 2.7715 2.17237 1.21415 0.25
457 9.6033 8.6282 0.861714 0.5
458 2.39446 6.42389 7.48701 0.25
459 1.47361 1.54483 6.20981 0.25
460 1.98112 6.63524 7.50965 0.25
461 4.16695 6.65793 1.70355 0.25
462 4.19492 6.73198 1.21854 0.25
463 1.98584 10.3176 5.34378 0.25
464 9.95835 1.2852 1.69256 0.25
465 7.15567 5.9344 2.14102 0.25
466 5.10882 4.98842 7.79291 0.5
467 3.43272 5.55486 5.64685 0.25
468 1.92399 1.43657 1.8731 0.25
469 3.87329 3.82674 2.59096 0.25
470 4.47897 4.34188 2.90553 0.25
471 2.27722 9.90486 3.96446 0.25
472 2.08126 1.93398 7.68345 0.25
473 2.9345 8.22223 9.37136 0.25
474 9.26687 4.19019 2.20293 0.25
475 7.89947 7.49855 4.00575 0.25
476 4.22003 6.26371 1.09174 0.25
477 10.2382 9.78534 4.31047 0.25
478 8.47773 5.94023 1.17466 0.5
479 7.44555 0.617877 0.679696 0.25
480 2.66946 8.14387 10.1863 0.25
481 4.0739 9.94495 1.23238 0.25
482 6.44956 9.86448 5.30058 0.25
483 6.95166 0.101554 0.340706 0.5
484 9.81045 3.466 7.35247 0.25
485 7.97932 2.99027 9.66976 0.25
486 4.30133 8.42228 3.28113 0.25
487 3.35859 3.70915 9.88447 0.25
488 6.27079 9.61898 2.06314 0.25
489 8.32363 7.00638 4.74707 0.25
490 2.70987 3.07625 8.33724 0.25
491 8.61812 8.99976 6.74846 0.25
492 7.91193 2.49074 0.127144 0.25
493 9.55801 3.21177 6.99305 0.25
494 8.51825 4.45552 4.32581 0.25
495 10.0291 3.06016 7.01912 0.25
496 4.50378 1.77983 6.43017 0.25
497 3.22859 3.5221 0.373538 0.25
498 7.46341 1.35922 8.8277 0.25
499 3.91254 9.26992 1.73679 0.25
500 4.26952 7.29689 9.0591 0.25
501 2.27675 9.64966 4.43756 0.25
502 9.46586 6.6155 6.70226 0.25
503 6.31644 8.3973 2.9742 0.25
504 5.59361 7.81439 0.620114 0.25
505 7.50446 1.71136 5.97024 0.5
506 5.68843 10.2396 5.38612 0.25
507 6.64727 8.3389 2.5619 0.25
508 4.9514 8.18293 8.04513 0.25
509 1.38779 8.80737 7.87276 0.25
510 5.76192 4.35563 5.26191 0.25
511 4.30045 0.568199 6.68361 0.25
512 2.14809 5.04998 3.23725 0.25
513 2.04711 5.59034 10.2065 0.25
514 3.98379 2.78294 5.46407 0.25
515 2.15029 1.50588 7.06158 0.5
516 5.7191 9.24791 5.82956 0.5
517 7.92608 7.32318 4.47894 0.25
518 2.94222 1.32826 9.51378 0.25
519 2.69856 9.75392 4.23245 0.25
520 5.41731 2.13627 7.55848 0.25
521 0.960063 4.47379 5.46902 0.25
522 2.6172 9.96504 4.63658 0.25
523 2.48063 3.37857 7.50066 0.25
524 8.03481 1.75199 4.93846 0.25
525 1.6634 7.02071 7.37339 0.25
526 1.60532 5.41754 8.26165 0.25
527 6.90386 9.37495 3.05683 0.5
528 7.31012 8.74033 2.85922 0.25
529 4.0553 5.79347 0.939869 0.25
530 1.68955 7.47392 2.40707 0.25
531 0.371041 2.90027 9.12328 0.25
532 1.7792 7.77945 0.560772 0.25
533 9.04419 9.8299 3.93365 0.25
534 8.83985 4.83529 4.54412 0.25
535 7.24202 7.14954 8.4365 0.25
536 4.72711 9.04331 0.533523 0.25
537 8.15596 1.32011 3.843 0.25
538 7.29793 4.03976 7.13113 0.25
539 10.2151 3.73214 6.85038 0.5
540 5.79141 10.3083 8.93357 0.25
541 9.13358 8.66927 1.37426 0.25
542 7.72396 8.60302 5.63967 0.25
543 9.59878 4.6636 3.995 0.25
544 1.68373 2.00946 6.90338 0.25
545 10.3039 10.1194 3.49949 0.25
546 0.414303 0.818043 6.04845 0.25
547 9.60927 3.51442 1.98457 0.25
548 9.15552 4.85849 8.85831 0.25
549 1.44612 10.0809 2.26697 0.25
550 9.13556 8.17874 1.25713 0.25
551 2.94486 7.15893 3.52019 0.25
552 8.41086 9.4456 6.76657 0.25
553 5.59827 2.54408 5.27818 0.25
554 9.20873 4.9924 4.22341 0.25
555 5.99099 8.92592 7.69755 0.25
556 1.20913 9.29889 7.83201 0.25
557 2.46807 9.90247 7.66708 0.25
558 2.58423 3.50357 8.49462 0.25
559 9.23701 1.05474 9.23887 0.25
560 3.55303 4.75988 5.72375 0.25
561 1.05199 3.56358 1.52733 0.25
562 5.20786 5.38713 9.5271 0.25
563 5.87035 10.2538 8.42095 0.25
564 1.37319 1.6792 7.09797 0.25
565 2.79093 1.05336 2.06131 0.25
566 8.92602 6.32369 7.47206 0.25
567 1.12657 6.3142 0.893692 0.25
568 7.74769 2.00545 5.27746 0.25
569 6.55127 3.99339 7.31998 0.5
570 3.90761 3.51864 2.95587 0.25
571 5.09216 3.94819 2.80193 0.25
572 7.82293 1.54884 9.11374 0.25
573 0.725112 7.00822 4.77138 0.25
574 0.702248 0.50762 6.30244 0.25
575 5.81659 3.91114 4.52322 0.25
576 5.31307 1.65163 1.03459 0.25
577 0.519477 7.84835 4.78711 0.25
578 1.48528 5.155 10.2604 0.5
579 5.28432 4.95541 7.08813 0.25
580 8.25565 6.93987 3.31812 0.25
581 7.15408 6.32292 8.42966 0.25
582 7.22211 4.66842 5.05426 0.25
583 9.16749 6.2241 5.85557 0.25
584 5.31556 6.65914 3.62368 0.25
585 7.43795 0.181 0.909885 0.25
586 1.697 2.31417 4.40012 0.25
587 6.05182 9.85164 5.52822 0.25
588 2.83588 0.725838 10.2237 0.25
589 0.101047 4.15417 1.42044 0.25
590 8.34931 7.44764 4.67156 0.25
591 3.59963 2.43878 5.53189 0.25
592 6.43856 5.18846 2.77004 0.25
593 5.379 9.83492 6.03216 0.25
594 8.63612 5.78567 9.87538 0.25
595 1.62049 1.89904 7.42634 0.25
596 8.94424 8.94679 0.95664 0.25
597 4.32158 1.36251 3.82468 0.25
598 5.35885 7.42773 0.486445 0.25
599 10.3339 1.52189 1.46882 0.25
600 3.5284 9.63692 2.37877 0.25
601 7.24791 9.51433 2.3711 0.25
602 5.80189 8.432 2.8416 0.25
603 1.88466 6.82251 7.98106 0.25
604 9.12261 1.37383 1.55155 0.25
605 1.82765 7.66813 2.90676 0.25
606 1.7987 1.91239 6.42019 0.25
607 2.47445 2.09708 7.37245 0.25
608 6.7846 6.89026 5.75213 0.5
609 3.73803 6.82723 1.43282 0.25
610 6.22765 4.80446 0.866022 0.5
611 8.92111 8.63068 7.54533 0.25
612 8.49281 0.564038 3.58453 0.5
613 8.27209 3.08719 10.0703 0.25
614 9.49959 6.51111 1.06887 0.25
615 6.78636 3.949 8.4353 0.25
616 1.56991 1.55444 6.68354 0.25
617 2.20622 3.23077 8.31609 0.25
618 7.53827 2.74991 9.80544 0.25
619 0.934747 8.80822 2.52894 0.25
620 7.31796 5.18058 2.57798 0.25
621 6.66783 4.98361 1.40974 0.25
622 7.45648 6.71907 8.25705 0.25
623 7.7836 4.39659 4.55457 0.5
624 5.11442 8.6153 8.03733 0.25
625 5.79721 1.94914 0.395509 0.25
626 2.77111 2.76789 4.07501 0.25
627 6.90258 5.34694 2.81404 0.25
628 1.18882 10.1849 0.472348 0.25
629 7.34166 10.2847 10.0592 0.25
630 6.17129 7.0809 0.29911 0.25
631 8.44969 1.5238 5.1202 0.25
632 3.34818 3.89402 0.0296655 0.25
633 2.90007 3.91751 0.196923 0.25
634 4.47945 7.87488 8.60283 0.5
635 9.17555 6.01826 7.18301 0.25
636 8.81832 5.38886 9.60931 0.25
637 6.43392 9.11471 4.99038 0.25
638 1.91818 10.3145 4.51988 0.5
639 7.25884 2.83743 2.95046 0.25
640 7.4715 1.64083 7.75798 0.25
641 4.24641 6.13863 4.16598 0.25
642 3.61684 7.56317 6.66303 0.25
643 2.20384 1.32063 0.100312 0.25
644 5.84023 9.74478 4.84357 0.5
645 3.78058 4.13165 0.136635 0.25
646 8.00205 7.36171 3.53327 0.25
647 6.11938 7.21184 5.56176 0.25
648 7.34182 1.23616 7.48765 0.25
649 4.37901 6.28298 8.98702 0.25
650 7.88496 1.00976 3.53267 0.25
651 5.46975 8.27528 7.89102 0.25
652 1.31166 5.75464 8.37725 0.25
653 1.14831 4.89479 5.75659 0.25
654 2.0291 6.20698 7.2067 0.25
655 0.135669 4.49512 1.72966 0.25
656 4.45794 4.89575 7.36872 0.25
657 8.81897 8.91715 6.25133 0.25
658 7.23878 3.77142 7.52725 0.25
659 8.5955 0.101618 4.17323 0.25
660 1.82733 6.05449 7.88447 0.5
661 2.28352 7.62295 3.20531 0.25
662 7.44774 8.89745 5.84926 0.25
663 2.55561 0.602971 9.24252 0.25
664 1.3407 2.74973 9.85587 0.25
665 8.34915 6.49965 0.706922 0.25
666 5.47185 10.005 8.21573 0.25
667 7.48902 2.66198 9.36837 0.25
668 7.99541 2.79189 5.73319 0.25
669 3.28148 7.58933 9.32436 0.5
670 0.126021 3.27819 9.79558 0.25
671 0.818114 6.14133 4.85092 0.5
672 6.54766 6.5706 5.16651 0.25
673 3.86993 9.92079 0.763919 0.25
674 7.1879 4.21337 4.877 0.25
675 8.89913 8.55875 7.99628 0.25
676 5.40595 2.43018 0.739651 0.5
677 9.52718 3.66643 7.7027 0.25
678 0.174295 0.177782 6.00523 0.5
679 1.98065 2.2426 7.25009 0.25
680 3.06006 6.78171 2.62967 0.25
681 8.21014 9.0326 7.01799 0.25
682 3.79571 7.80492 5.34309 0.25
683 0.9549 3.11086 9.72739 0.25
684 1.25188 9.45108 7.35839 0.25
685 8.63358 10.252 3.31807 0.25
686 6.19564 10.295 5.20874 0.25
687 9.33933 3.29316 7.44001 0.25
688 6.63462 7.19673 0.522908 0.25
689 2.50518 2.3351 4.09452 0.25
690 9.75939 7.75843 9.01418 0.25
691 0.453532 8.57869 5.22393 0.25
692 1.20748 4.38122 5.92565 0.25
693 9.70745 2.13422 4.18411 0.25
694 3.76096 3.76096 10.1894 0.25
695 7.57528 1.59238 5.1818 0.25
696 5.51706 1.45026 3.49082 0.25
697 1.198 8.98416 7.45643 0.25
698 8.62109 5.69323 0.461032 0.25
699 3.6426 7.35569 5.37863 0.25
700 6.87006 7.6369 0.356727 0.25
701 3.42925 5.10994 5.39559 0.25
702 6.24028 3.73711 4.58894 0.25
703 1.74526 10.3047 1.93363 0.25
704 7.66006 4.37406 8.30749 0.25
705 3.65002 5.90526 8.79476 0.25
706 7.55145 0.797988 7.44057 0.25
707 5.75318 6.95314 5.42476 0.25
708 5.7641 6.3703 3.45912 0.25
709 1.13653 4.5266 2.0747 0.5
710 1.40331 4.58877 5.47844 0.25
711 6.75595 4.23129 8.05565 0.25
712 4.14702 8.35538 3.7335 0.25
713 1.72576 4.83073 3.41317 0.25
714 2.37827 10.1595 5.06295 0.25
715 2.99753 3.50706 8.16944 0.25
716 9.75038 9.25668 1.27364 0.25
717 3.19376 5.58783 5.24572 0.25
718 5.79333 3.30806 5.0536 0.5
719 5.69568 2.92244 5.64014 0.25
720 5.91563 1.08628 3.46155 0.25
721 3.18529 7.81272 6.54058 0.25
722 3.9362 5.34864 4.23458 0.25
723 6.02356 6.20242 6.37743 0.25
724 9.39824 0.716868 8.90538 0.25
725 3.59973 0.0598529 6.42427 0.25
726 3.88317 5.84329 4.29943 0.25
727 4.32804 5.19376 4.48991 0.25
728 2.11819 7.71475 10.2753 0.5
729 8.21653 1.97619 6.12804 0.25
730 7.93407 1.22456 8.68511 0.25
731 1.65277 5.73967 9.96131 0.25
732 3.98925 7.91897 6.41906 0.25
733 9.91581 2.48411 4.00141 0.25
734 8.28959 7.63325 3.85773 0.25
735 3.99723 2.27664 5.31981 0.25
736 8.61523 5.6911 6.39823 0.25
737 0.783295 4.59225 5.91222 0.25
738 5.27415 8.17871 8.37999 0.25
739 3.45935 3.41269 10.312 0.25
740 8.58867 6.62285 1.55058 0.25
741 6.95642 3.13925 2.23847 0.25
742 5.32981 1.74277 0.525328 0.25
743 10.0557 2.98386 3.80606 0.25
744 2.29444 2.71023 4.6764 0.5
745 0.396933 4.248 5.93496 0.25
746 6.41341 5.40321 1.32363 0.25
747 8.53885 2.75076 0.582082 0.25
748 7.13477 10.1323 9.64985 0.25
749 7.20631 4.19168 8.29331 0.25
750 4.38262 2.15798 6.77275 0.25
751 2.24845 2.76218 3.92932 0.25
752 9.82919 2.61017 4.48981 0.25
753 0.844509 2.46773 9.36743 0.5
754 8.26291 1.57887 5.84474 0.25
755 7.98593 2.71553 10.0628 0.25
756 4.85156 1.64599 1.28847 0.25
757 0.300488 2.50828 3.7577 0.5
758 2.35205 0.232092 5.08846 0.25
759 5.00968 2.6791 8.25182 0.25
760 5.13948 0.880632 2.84624 0.25
761 6.26507 6.33182 5.91085 0.25
762 0.421693 3.53392 6.36891 0.25
763 6.47296 4.46361 4.93049 0.5
764 5.42147 6.84993 4.10639 0.25
765 6.89835 7.01181 8.80157 0.25
766 1.32772 4.99438 3.20482 0.25
767 7.01635 2.42956 3.16515 0.25
768 5.14373 2.55428 5.93203 0.5
769 0.721468 2.16337 10.0893 0.25
770 5.81939 6.92733 6.16147 0.5
771 6.56351 7.64704 0.774638 0.25
772 6.98405 9.31821 5.41259 0.5
773 6.01629 4.33578 9.99991 0.25
774 6.81828 8.62891 2.88158 0.25
775 10.1453 7.46355 9.02031 0.25
776 4.67635 9.59121 0.552197 0.25
777 0.877456 7.93411 2.32777 0.25
778 3.95329 0.449442 9.42402 0.25
779 9.65378 7.29971 9.03472 0.25
780 5.06261 4.93845 9.42729 0.25
781 5.36293 6.5118 3.15156 0.25
782 9.23767 6.10943 1.32928 0.25
783 4.15165 8.85173 3.52674 0.25
784 3.72014 3.64432 0.325801 0.25
785 9.18127 8.93472 7.87895 0.25
786 6.47097 7.36367 5.24739 0.25
787 6.68996 7.03295 4.97859 0.25
788 5.52749 1.16121 3.08622 0.25
789 6.55824 5.67591 2.70113 0.25
790 5.21363 2.12254 6.54307 0.25
791 8.79705 5.96375 6.06 0.25
792 4.58408 3.97467 2.30922 0.5
793 10.1882 0.627332 9.19515 0.25
794 2.38005 1.31839 1.8478 0.25
795 1.53954 8.66754 7.38124 0.25
796 3.00507 9.9966 5.16982 0.5
797 10.1087 9.60777 3.47546 0.25
798 9.68039 4.86561 4.44685 0.25
799 3.44481 6.43084 2.04976 0.5
800 10.1158 0.870175 1.97328 0.25
801 6.01163 0.0300716 10.1186 0.25
802 5.94479 7.94588 0.275305 0.25
803 9.21798 4.65063 9.48837 0.25
804 4.78329 5.21857 7.18112 0.25
805 9.10099 4.67877 3.84148 0.25
806 2.60868 9.4864 7.46336 0.25
807 2.97098 5.318 5.5709 0.25
808 9.27003 5.19128 9.69948 0.25
809 1.56138 5.35184 9.65713 0.25
810 7.88858 2.08989 6.49251 0.25
811 8.82735 4.62306 9.24616 0.25
812 3.85209 6.37758 1.44207 0.25
813 1.52343 3.93548 2.18431 0.25
814 1.35203 10.083 10.3183 0.25
815 3.8659 5.41272 4.97384 0.5
816 6.45345 0.322881 10.0934 0.25
817 4.20017 9.29159 1.04612 0.5
818 8.9905 5.96506 10.1979 0.25
819 4.02454 5.94149 1.38645 0.25
820 7.73227 3.93289 7.45138 0.25
821 8.45156 8.47588 7.74632 0.25
822 4.02676 4.39105 3.15726 0.25
823 1.96466 9.29129 7.61479 0.5
824 7.0404 4.39182 6.90519 0.25
825 8.11761 8.87814 6.25079 0.5
826 6.80042 2.84539 3.11775 0.25
827 8.73485 5.78378 6.89392 0.25
828 9.64404 3.40892 1.52294 0.25
829 1.06472 6.88653 5.09168 0.25
830 3.70026 6.11304 1.05501 0.25
831 3.12512 7.1136 2.25404 0.25
832 3.91275 5.56934 8.91723 0.25
833 6.01768 6.64226 7.16678 0.25
834 8.7495 4.29852 3.90719 0.25
835 1.48001 1.18727 7.04024 0.25
836 6.9337 4.65941 1.73516 0.25
837 3.84542 7.45442 8.85018 0.25
838 2.95821 9.88896 7.58935 0.25
839 0.171755 1.77592 3.8636 0.25
840 9.2796 5.03308 4.74325 0.25
841 5.49124 4.89158 10.0102 0.5
842 6.93675 6.77575 8.34696 0.25
843 0.710032 8.8673 2.08735 0.25
844 6.68807 4.49684 1.30473 0.25
845 8.72692 4.79818 4.07799 0.25
846 0.967493 5.50531 4.53624 0.25
847 8.27132 2.4142 0.482916 0.25
848 2.31817 1.01739 9.78321 0.5
849 6.69468 6.01221 2.35245 0.25
850 4.77707 8.42675 3.24953 0.25
851 3.41271 6.44023 1.29269 0.25
852 5.71617 1.17638 3.90861 0.25
853 9.02694 10.2248 4.25031 0.25
854 2.89952 3.14179 7.8302 0.25
855 4.07248 6.14417 1.83416 0.25
856 9.74408 3.28378 7.81725 0.25
857 6.13406 3.9918 5.38535 0.25
858 9.02399 7.24201 3.7116 0.25
859 9.63696 0.964309 1.01294 0.25
860 3.11191 9.73258 4.48873 0.25
861 3.56356 9.92699 2.03865 0.25
862 7.45633 0.982613 8.16354 0.5
863 0.570135 3.44937 9.90158 0.25
864 4.9384 3.33063 2.18735 0.25
865 0.735036 7.5024 4.58777 0.25
866 2.84979 1.56007 9.95018 0.25
867 3.42123 8.34779 9.58828 0.25
868 9.58367 1.28804 1.33877 0.25
869 0.327066 7.96292 5.9047 0.25
870 7.26403 6.7091 8.72856 0.25
871 6.91848 3.14675 2.74795 0.25
872 8.11339 1.30729 7.58845 0.5
873 5.22166 10.013 5.24894 0.25
874 6.56934 9.58646 4.87591 0.25
875 3.16375 7.21726 5.41267 0.25
876 3.48183 5.98167 1.4544 0.25
877 0.710184 2.33396 4.35653 0.25
878 10.1435 0.0894507 9.17188 0.25
879 0.714751 8.13153 5.16476 0.25
880 5.51832 4.00323 4.98033 0.25
881 3.81584 6.68908 8.86662 0.5
882 9.80554 0.690342 6.51677 0.25
883 5.37346 3.28184 5.66235 0.25
884 2.30147 2.09873 1.8117 0.5
885 9.67988 9.4168 3.57638 0.25
886 9.27787 9.15785 1.3248 0.25
887 1.20283 6.28944 7.53485 0.25
888 1.27068 10.1546 1.75539 0.25
889 4.3466 4.86085 7.87996 0.25
890 0.629196 3.80719 6.02171 0.25
891 4.8793 3.46223 2.73851 0.25
892 6.46493 8.78231 3.20965 0.25
893 7.70556 3.14632 10.0365 0.25
894 2.01559 8.22425 0.406822 0.25
895 10.042 3.67933 7.65144 0.25
896 10.0254 1.22333 1.19681 0.25
897 3.59395 8.0638 6.72225 0.25
898 1.02997 5.07671 4.99774 0.5
899 0.312396 0.704039 6.53075 0.25
900 8.13609 7.71716 4.31701 0.25
901 0.252724 8.14726 5.0905 0.25
902 5.59505 1.98353 1.35769 0.25
903 8.81932 6.96831 3.35837 0.25
904 0.975594 5.87421 10.2397 0.5
905 9.36179 0.909698 1.44189 0.25
906 9.99618 9.49409 3.9334 0.25
907 4.1811 3.93879 2.94059 0.25