ITEM: TIMESTEP
890000
ITEM: NUMBER OF ATOMS
1000
ITEM: BOX BOUNDS xy xz yz pp pp pp
0.0000000000000000e+00 1.0357442000000001e+01 0.0000000000000000e+00
0.0000000000000000e+00 1.0357442000000001e+01 0.0000000000000000e+00
0.0000000000000000e+00 1.0357442000000001e+01 0.0000000000000000e+00
ITEM: ATOMS id x y z radius
1 1.49956 4.32078 2.90462 0.5
2 1.84247 7.77166 2.65581 0.5
3 5.62886 1.80874 1.27723 0.25
4 0.498657 2.67391 4.45384 0.25
5 9.44787 2.95585 6.69318 0.25
6 0.465797 3.40949 9.60285 0.25
7 4.75987 1.63235 3.61893 0.25
8 9.14035 4.51665 1.83338 0.25
9 9.9232 1.45829 1.86233 0.25
10 7.99376 7.28171 4.56904 0.25
11 9.50362 8.81286 0.558529 0.25
12 7.79391 2.53164 9.79337 0.25
13 3.49583 7.31362 6.06865 0.25
14 5.2878 2.17551 0.113027 0.25
15 8.75995 6.01362 6.15445 0.25
16 8.69508 8.62193 6.4696 0.25
17 5.20514 8.97852 8.22705 0.5
18 2.75183 8.64077 10.0136 0.25
19 7.01913 4.47912 4.81257 0.25
20 9.24962 1.05967 1.45654 0.25
21 0.538798 10.1405 9.43799 0.25
22 5.0888 1.51738 3.97173 0.25
23 3.72367 3.90068 2.44315 0.25
24 2.71355 2.74201 4.09061 0.25
25 7.24049 1.87814 5.95395 0.25
26 5.25584 2.75552 8.32991 0.25
27 1.64612 8.25859 0.0746272 0.25
28 9.19368 6.1568 6.30277 0.25
29 3.58566 7.53986 5.65843 0.25
30 1.29977 8.4683 7.25327 0.25
31 1.12179 7.29082 4.76356 0.25
32 8.97284 6.75499 1.13625 0.25
33 9.15039 9.05793 0.790766 0.25
34 1.16821 3.04383 9.88774 0.25
35 7.79406 2.80952 9.35695 0.25
36 8.50097 9.10578 9.30298 0.25
37 4.23106 4.88066 5.57494 0.25
38 7.39043 0.299948 0.592312 0.25
39 5.76869 4.38033 5.05775 0.25
40 8.53112 4.32839 4.49386 0.25
41 8.83991 7.4076 4.53014 0.25
42 6.64219 8.5815 2.27459 0.5
43 0.372445 8.44197 5.91326 0.25
44 3.25029 10.078 4.72607 0.25
45 7.41308 7.12275 9.01682 0.25
46 1.14352 8.6287 7.72773 0.25
47 4.45197 8.51337 3.59803 0.25
48 3.30279 9.69591 5.02162 0.25
49 4.32207 5.85134 9.40121 0.25
50 10.0569 9.2557 3.58902 0.25
51 10.008 8.96673 1.59064 0.25
52 6.29598 7.84528 0.0932116 0.25
53 6.58487 5.55465 1.78737 0.25
54 4.67809 4.86824 8.25163 0.25
55 6.17316 5.99358 6.8116 0.25
56 4.79673 1.79368 1.25188 0.25
57 5.34929 2.29236 0.629154 0.25
58 6.22572 4.14345 0.602762 0.25
59 3.91938 8.09606 9.09852 0.25
60 7.40406 7.37813 8.53606 0.25
61 3.07121 0.00597287 8.92569 0.25
62 9.33594 5.8531 6.71961 0.25
63 0.456622 5.5662 4.68622 0.25
64 0.00457791 1.24557 1.90882 0.25
65 5.59232 6.19362 6.23525 0.25
66 4.53807 1.51066 3.99578 0.25
67 9.1212 4.99884 8.94511 0.25
68 6.27025 0.105777 10.3348 0.25
69 1.90993 7.27555 3.24553 0.25
70 3.61433 6.25 4.11288 0.25
71 0.973519 8.4223 2.40524 0.25
72 5.32121 6.97163 3.68429 0.25
73 9.0835 8.71789 7.17285 0.5
74 2.19702 7.1917 2.43315 0.25
75 0.989007 6.0053 0.709723 0.25
76 1.85297 8.66391 0.0275152 0.25
77 7.47192 6.83958 8.59266 0.25
78 3.66547 9.561 1.35523 0.25
79 1.27826 5.31515 9.89217 0.25
80 8.54958 8.98754 9.77423 0.25
81 8.13655 9.36156 7.34381 0.25
82 2.24811 0.623216 2.3576 0.25
83 1.00858 8.62278 2.83712 0.25
84 5.15256 9.27305 5.32234 0.25
85 3.60649 6.57848 1.74957 0.25
86 9.61138 3.62586 2.08185 0.5
87 1.35541 5.45985 8.51534 0.25
88 2.71251 4.02281 8.06879 0.25
89 0.499412 10.2822 9.9073 0.25
90 7.11136 10.1832 1.59479 0.5
91 4.70674 8.15521 3.84264 0.25
92 9.98342 1.06832 1.15548 0.25
93 8.46165 1.05655 8.23383 0.25
94 0.865437 3.98621 2.54824 0.25
95 7.3986 8.56151 5.56658 0.25
96 7.71499 1.0776 7.14387 0.25
97 5.49142 9.57328 5.40861 0.25
98 10.3413 0.513762 6.04553 0.25
99 5.25841 1.98461 8.14664 0.5
100 5.29466 3.13624 5.59568 0.25
101 5.23629 2.21221 9.727 0.5
102 4.10191 5.25697 8.56929 0.5
103 7.58441 0.14072 1.02841 0.25
104 1.3222 10.0491 9.93694 0.25
105 2.0602 4.85314 3.07722 0.25
106 5.94764 6.83614 6.69898 0.25
107 5.60932 9.98815 8.49571 0.25
108 1.62797 4.18398 1.82835 0.25
109 6.86558 2.27582 2.63434 0.25
110 5.49617 9.79862 5.82523 0.25
111 1.79554 5.8409 0.443527 0.25
112 3.7371 5.13946 5.53121 0.25
113 1.81968 0.384481 4.8411 0.25
114 8.44579 6.12411 0.0297244 0.25
115 4.70953 3.76295 3.14499 0.25
116 0.158353 1.74047 3.64197 0.25
117 7.67609 2.5566 2.84293 0.5
118 7.06672 7.93298 2.55768 0.25
119 9.9012 2.48246 4.42435 0.25
120 1.84496 5.70138 10.3518 0.25
121 7.61124 1.98014 5.31668 0.5
122 1.63132 4.87935 2.36566 0.25
123 9.68427 8.30701 1.26026 0.25
124 8.34571 6.05996 0.514036 0.25
125 1.61079 9.98813 4.54209 0.25
126 6.22048 7.42932 0.368549 0.25
127 6.25619 7.8828 0.600849 0.25
128 9.25133 9.88743 3.69602 0.25
129 1.63051 4.92534 3.34959 0.25
130 9.77646 8.5254 1.69125 0.25
131 6.90246 2.64318 2.98784 0.25
132 8.26569 4.68129 4.26216 0.25
133 8.22653 9.34287 9.64818 0.25
134 3.84917 4.40553 2.47922 0.25
135 6.03302 9.37566 8.33068 0.5
136 8.30167 8.9675 7.09609 0.25
137 1.5248 9.72786 1.90121 0.25
138 7.03907 4.01449 4.62919 0.25
139 6.7186 4.35869 7.6489 0.5
140 4.60377 8.1641 3.29883 0.25
141 2.08835 1.95596 2.18159 0.25
142 2.97597 2.97278 4.86385 0.25
143 7.39285 1.46559 2.92059 0.25
144 9.73339 6.74135 2.31595 0.25
145 3.90529 7.6227 6.10138 0.25
146 7.47677 9.18938 2.88708 0.25
147 3.48097 5.89999 3.84661 0.25
148 3.06432 1.72505 10.2369 0.25
149 9.53132 7.708 8.77772 0.25
150 4.40365 4.91451 7.91251 0.25
151 6.92468 9.89369 9.80354 0.25
152 4.08773 9.89008 1.39996 0.25
153 5.3331 1.40327 7.54417 0.25
154 5.73016 9.06657 7.66572 0.25
155 4.35492 6.15969 1.19952 0.25
156 0.859394 8.68369 7.3073 0.25
157 4.85248 0.236976 3.26495 0.25
158 8.5444 9.43591 6.5759 0.25
159 3.35987 2.78896 5.24567 0.25
160 2.67136 3.59898 7.88179 0.25
161 3.21881 0.146124 9.44161 0.25
162 3.88406 2.01168 5.73009 0.5
163 6.78254 9.98653 2.25108 0.25
164 5.01185 8.25899 8.26743 0.25
165 0.874865 3.12254 9.52089 0.25
166 7.09343 3.84037 6.71366 0.25
167 9.13978 9.86854 4.10177 0.25
168 10.2919 7.51683 9.01431 0.25
169 9.77456 6.49173 7.0467 0.25
170 3.36077 0.424728 8.21236 0.25
171 0.842751 9.20778 7.15214 0.25
172 9.45052 5.7608 7.21426 0.25
173 0.827609 1.62426 4.23559 0.25
174 4.63512 1.88217 5.81427 0.25
175 9.20999 3.4304 6.69468 0.25
176 0.911226 6.49199 0.694642 0.25
177 9.13636 6.1168 7.46204 0.25
178 7.24379 1.38484 5.21646 0.25
179 2.46733 9.51415 7.91783 0.25
180 7.4984 8.91724 2.18915 0.5
181 0.949938 4.19314 5.6884 0.25
182 7.65246 1.8893 2.99172 0.25
183 2.58193 9.6189 4.53236 0.25
184 8.98701 5.19412 9.3937 0.25
185 8.68422 9.09872 6.23681 0.25
186 2.82833 7.80172 10.1812 0.25
187 3.00423 3.56635 0.322192 0.25
188 5.24019 2.34801 7.48202 0.25
189 10.2922 0.905864 5.73385 0.25
190 1.90925 7.03005 2.83224 0.25
191 5.17747 2.62013 9.05678 0.25
192 8.56407 9.3635 7.07092 0.25
193 5.24812 2.14309 8.89745 0.25
194 4.04174 9.51598 0.995035 0.25
195 5.42594 4.86174 9.5554 0.25
196 5.71409 2.28976 10.352 0.25
197 8.76773 6.45084 6.81449 0.5
198 7.26372 1.64955 7.20964 0.5
199 6.88299 10.3365 9.77467 0.25
200 7.21273 0.793023 6.43913 0.25
201 5.79155 6.30215 6.70502 0.25
202 3.56488 7.8999 5.27307 0.25
203 4.6252 9.54542 0.347057 0.25
204 0.641759 3.62675 6.39864 0.25
205 4.14511 0.292549 6.33546 0.25
206 0.647753 1.78016 3.79575 0.25
207 0.936772 5.25328 3.71457 0.5
208 4.19221 4.5264 5.92867 0.25
209 7.46181 9.58281 2.53457 0.25
210 4.184 0.0290168 6.76597 0.25
211 1.21282 5.01803 2.69569 0.25
212 0.241501 3.84626 2.05326 0.5
213 9.50361 4.34663 2.24791 0.25
214 3.4541 4.92188 5.8762 0.25
215 10.1464 0.848567 8.7519 0.25
216 5.04149 1.79326 0.0221012 0.25
217 0.198068 8.21536 5.44732 0.25
218 1.94484 1.39447 1.70731 0.5
219 0.880838 4.3695 6.15436 0.25
220 6.88041 9.19921 1.94728 0.25
221 7.98599 7.32499 4.06838 0.25
222 9.57559 6.30698 6.59434 0.25
223 5.52134 9.30992 4.94268 0.25
224 9.92508 3.00713 6.76561 0.25
225 8.07953 1.37377 5.476 0.25
226 6.37794 8.85209 5.01805 0.25
227 7.16756 10.3118 0.852759 0.25
228 5.48902 2.24754 1.13944 0.25
229 2.15773 2.49291 1.40075 0.25
230 8.81525 7.49699 4.08277 0.25
231 7.69637 4.44792 7.13365 0.25
232 7.10685 9.61377 2.13698 0.25
233 8.14791 2.18002 9.2263 0.5
234 4.53387 9.18229 1.59327 0.25
235 0.861073 9.02868 7.64126 0.25
236 1.71205 5.43643 0.782628 0.25
237 7.88808 1.46678 2.96575 0.25
238 0.90435 5.88357 4.05217 0.25
239 0.207355 3.26385 10.0721 0.25
240 1.40946 9.1128 2.40628 0.5
241 1.87275 9.67299 2.22147 0.25
242 3.8884 7.74427 6.57368 0.25
243 1.78935 6.26708 0.70715 0.25
244 1.13003 1.56497 6.39147 0.25
245 5.75133 5.80997 6.53858 0.25
246 2.03711 8.21046 10.1265 0.25
247 2.2121 7.6461 3.33718 0.25
248 5.4923 2.50583 8.63616 0.25
249 6.71184 4.1509 4.99126 0.25
250 7.42143 1.18764 6.6983 0.25
251 0.913348 1.46328 7.32564 0.25
252 7.23116 5.9242 8.73296 0.25
253 4.28535 7.29875 9.04344 0.25
254 1.22627 10.1276 1.97357 0.25
255 1.7328 0.762554 2.1949 0.25
256 3.8714 5.29473 4.13321 0.25
257 0.987657 10.3425 9.69794 0.25
258 4.49839 5.51262 7.34869 0.25
259 1.58319 0.133811 4.4668 0.25
260 0.585472 9.99435 10.3084 0.25
261 7.11455 7.10168 8.2646 0.25
262 5.57279 7.02458 3.29553 0.25
263 8.49148 8.61018 9.37744 0.25
264 7.46807 9.34744 9.68445 0.5
265 4.53266 3.75781 2.30275 0.25
266 4.799 3.33814 2.41757 0.25
267 3.10045 7.37381 5.74366 0.25
268 3.50397 7.58933 6.42094 0.25
269 7.30813 9.22806 6.10483 0.25
270 3.04787 7.45228 6.23759 0.25
271 3.82541 9.06672 1.19119 0.25
272 6.32713 6.41725 5.29566 0.25
273 10.2367 3.63414 7.44142 0.25
274 3.66943 4.52781 6.05569 0.25
275 9.95869 6.41055 2.60197 0.25
276 8.3182 1.05769 8.77977 0.25
277 2.91449 10.1203 8.17802 0.5
278 4.46633 5.98853 8.56374 0.25
279 2.63382 0.124853 8.753 0.25
280 3.54043 0.494849 9.48701 0.25
281 4.14258 8.86634 3.47444 0.25
282 4.7474 1.07518 2.93253 0.25
283 9.65887 0.402621 9.25011 0.25
284 1.86127 5.31149 0.315186 0.25
285 8.46359 6.73583 1.17121 0.25
286 10.1357 1.50926 2.29129 0.25
287 1.10932 8.09837 2.79089 0.25
288 0.908334 5.58187 4.45381 0.25
289 9.291 1.42938 1.11071 0.25
290 8.7671 4.27942 1.73738 0.25
291 8.20302 2.79196 9.69182 0.25
292 4.11645 9.41285 1.46361 0.25
293 4.80323 2.30734 6.84273 0.5
294 10.1344 6.87857 2.54335 0.25
295 7.03242 0.726264 7.16503 0.5
296 2.88195 3.02791 4.3671 0.25
297 0.717642 8.19318 5.56757 0.25
298 4.00049 9.97646 0.917208 0.25
299 9.34857 5.14178 9.72927 0.25
300 2.42514 10.0347 4.67722 0.25
301 4.78837 7.93563 7.89836 0.25
302 4.86814 4.90031 7.74616 0.25
303 8.83858 5.5428 10.0574 0.5
304 4.28825 4.02737 3.20277 0.25
305 1.43401 8.42395 2.61913 0.25
306 9.83927 7.31222 8.94966 0.25
307 0.828018 9.91874 9.89022 0.25
308 8.89727 5.78386 6.53906 0.25
309 8.07414 1.82994 8.49765 0.25
310 5.62862 6.51999 5.90358 0.25
311 2.5729 0.506837 1.98496 0.25
312 9.06734 1.13816 8.72403 0.5
313 1.88798 8.59794 2.64047 0.25
314 0.902918 3.69273 2.12014 0.25
315 2.83656 0.750175 9.18415 0.5
316 6.66611 3.8961 6.99195 0.25
317 6.10035 10.0752 8.55471 0.25
318 10.0719 7.38272 9.41621 0.25
319 9.68344 9.04463 3.8224 0.25
320 0.791538 2.65325 0.242526 0.25
321 1.94047 2.18884 1.75281 0.25
322 1.18116 6.78899 4.79558 0.25
323 6.36614 10.0447 9.27087 0.5
324 7.76631 1.76182 2.59914 0.25
325 9.15308 4.09497 1.5466 0.25
326 3.07564 10.0861 5.20614 0.25
327 1.54157 8.88988 7.04042 0.25
328 4.48147 4.01628 2.77694 0.25
329 8.49892 6.77918 4.27216 0.5
330 9.924 6.20529 2.19572 0.25
331 9.06692 9.45567 4.31101 0.25
332 6.6562 7.16448 0.436811 0.25
333 10.2874 7.943 8.94082 0.25
334 6.74104 5.18137 1.50202 0.25
335 5.83454 4.5372 0.615289 0.25
336 9.57062 4.23235 1.7886 0.25
337 4.7887 5.60835 8.70499 0.25
338 7.2869 8.20083 2.14014 0.25
339 3.96345 5.96798 8.69009 0.25
340 0.989546 3.06177 10.3472 0.25
341 3.43433 5.45474 4.08581 0.25
342 9.80672 3.68998 7.23148 0.25
343 10.0418 1.70326 3.89511 0.25
344 4.24882 1.46941 3.50425 0.25
345 6.25907 4.15681 0.108034 0.25
346 2.22283 1.91522 7.10242 0.25
347 3.54077 3.47448 10.1236 0.25
348 5.94225 7.48611 0.758329 0.25
349 4.88935 1.54708 7.6565 0.25
350 3.05091 3.39099 7.68455 0.25
351 5.54976 6.74853 4.1017 0.25
352 8.28593 6.3426 1.43365 0.25
353 10.0189 3.22371 7.27456 0.25
354 9.6578 3.47117 1.31121 0.25
355 2.60951 1.38287 1.40289 0.25
356 4.31675 10.2714 0.682824 0.25
357 3.26951 4.50694 5.71499 0.25
358 4.25094 9.73883 0.531806 0.25
359 8.64675 6.74207 0.460247 0.5
360 3.75447 0.00914239 6.42271 0.25
361 0.0528976 0.780895 6.45222 0.25
362 10.2849 7.84017 9.42511 0.25
363 7.03761 2.75927 2.48396 0.25
364 9.466 6.36008 2.31156 0.25
365 6.02875 9.12015 4.81545 0.25
366 9.10785 4.12833 2.05471 0.25
367 3.47966 0.658456 8.64122 0.25
368 9.63512 6.18691 7.4331 0.25
369 9.06377 4.78172 4.50401 0.5
370 4.83 1.44591 6.90433 0.5
371 9.57378 6.60553 1.60378 0.5
372 1.03452 2.34077 4.11369 0.5
373 3.44764 0.0996401 8.55616 0.25
374 3.45821 0.328978 9.01871 0.25
375 4.55997 0.648194 3.03076 0.25
376 0.469577 5.6578 4.19813 0.25
377 9.87012 7.71815 9.1364 0.25
378 10.1019 8.55711 1.34444 0.25
379 0.326204 3.79937 6.03415 0.25
380 1.63352 2.69695 4.61034 0.25
381 7.03114 5.07285 2.16295 0.5
382 2.31852 7.77189 10.1125 0.25
383 5.42556 8.39377 8.60915 0.25
384 1.84666 6.74095 7.64023 0.25
385 0.761492 6.96379 4.95698 0.25
386 1.44985 5.62111 7.66104 0.25
387 1.32707 6.11144 7.71435 0.25
388 2.43749 2.19537 1.09047 0.25
389 4.9887 1.52823 0.804332 0.25
390 3.34285 3.28892 0.201266 0.25
391 4.57407 0.121355 6.50024 0.25
392 0.953479 5.7182 4.93175 0.25
393 9.09433 8.96323 6.51747 0.25
394 10.2314 0.364167 6.5194 0.25
395 2.09534 4.75496 2.56334 0.25
396 3.1893 0.468703 9.8077 0.25
397 7.27396 1.94495 2.63007 0.25
398 9.94472 4.98409 9.13046 0.25
399 2.58628 9.78817 7.55033 0.25
400 7.53894 2.78027 10.2852 0.25
401 5.70095 6.62894 3.62809 0.25
402 4.3569 5.71826 8.96892 0.25
403 6.09552 4.95985 0.480754 0.25
404 8.23188 2.8208 0.562728 0.25
405 1.48688 5.90287 0.806938 0.25
406 6.3761 9.31949 5.10914 0.25
407 7.03672 6.68755 8.50198 0.25
408 9.37203 8.6689 0.985631 0.25
409 10.0919 7.04579 2.06797 0.25
410 5.86855 0.981909 3.82509 0.25
411 7.80486 8.6623 9.88256 0.25
412 4.82414 2.01784 7.57148 0.25
413 7.20217 2.31676 2.26954 0.25
414 7.01738 5.67598 2.66152 0.25
415 4.74246 0.849553 3.69697 0.5
416 10.096 0.693832 9.2548 0.25
417 3.31568 8.11461 6.02663 0.5
418 0.648128 1.10873 6.684 0.5
419 9.20556 9.8217 4.56674 0.25
420 5.52751 8.36758 8.11676 0.25
421 9.3949 6.69942 6.81335 0.25
422 2.56941 7.53339 2.5867 0.25
423 1.65193 4.98141 2.83484 0.25
424 0.142852 10.357 9.5979 0.25
425 2.49701 0.0770818 4.46998 0.25
426 2.36548 1.67315 1.12057 0.25
427 6.96932 1.23647 6.59457 0.25
428 7.56083 9.67225 2.01001 0.25
429 5.49381 8.55108 7.68078 0.25
430 0.0620577 9.39739 3.82649 0.25
431 6.72977 0.0831829 0.915416 0.25
432 2.97725 8.19306 10.0162 0.25
433 2.94299 2.50868 5.13389 0.25
434 5.77995 9.7542 8.86894 0.25
435 0.0215047 3.06605 9.64736 0.25
436 6.49664 4.54361 10.2676 0.25
437 0.676905 5.91011 10.2057 0.25
438 7.67727 0.795757 6.66791 0.25
439 9.84329 9.66701 4.22377 0.5
440 2.53696 2.84766 7.64425 0.5
441 1.3188 3.79916 2.43733 0.25
442 6.04095 7.45635 10.3 0.25
443 9.66048 9.49322 3.53049 0.25
444 1.32513 3.74458 1.91694 0.25
445 5.26169 6.46171 3.77895 0.25
446 8.30039 4.11157 4.13438 0.25
447 6.52815 4.82741 0.257524 0.25
448 5.37297 1.27615 3.30583 0.5
449 0.358947 0.389949 6.36264 0.25
450 2.4827 0.934468 1.66353 0.25
451 3.66149 4.01071 0.404951 0.25
452 5.70354 4.47986 4.56405 0.25
453 6.97365 4.2905 8.38163 0.25
454 1.58989 5.88624 8.50214 0.25
455 1.35726 6.24403 8.24223 0.25
456 2.01629 2.01408 1.27599 0.25
457 9.83496 9.32377 0.983599 0.5
458 1.66399 6.00055 7.33414 0.25
459 1.31496 1.18706 7.12121 0.25
460 2.06224 6.01423 7.06537 0.25
461 4.24824 6.69215 1.26893 0.25
462 3.76289 6.79873 1.34161 0.25
463 1.61753 10.2417 4.93192 0.25
464 10.0184 0.988315 1.67515 0.25
465 6.6803 5.7621 2.25485 0.25
466 4.82815 5.55998 8.00738 0.5
467 3.25685 5.34266 5.56918 0.25
468 2.72821 1.33075 1.88397 0.25
469 3.9148 4.09614 2.8726 0.25
470 4.09014 3.74181 2.0939 0.25
471 3.09649 9.61849 4.49251 0.25
472 1.98508 2.37364 7.80099 0.25
473 2.71121 7.84928 9.74681 0.25
474 8.87912 3.78104 1.8322 0.25
475 8.80295 6.61043 3.62558 0.25
476 3.53533 6.33156 1.35264 0.25
477 10.1188 9.75965 3.51575 0.25
478 8.82425 5.9803 1.05966 0.5
479 7.14941 0.372852 1.05562 0.25
480 2.51915 8.2038 9.99124 0.25
481 4.43174 9.66353 1.72111 0.25
482 6.39985 9.6856 5.42793 0.25
483 6.98169 10.2936 0.121404 0.5
484 9.63159 3.3399 6.97074 0.25
485 8.27414 2.52677 0.104039 0.25
486 4.131 8.40308 3.25766 0.25
487 3.10482 3.46129 10.196 0.25
488 7.28599 9.45639 1.65612 0.25
489 7.91715 6.5533 3.84518 0.25
490 2.20486 3.52129 7.74869 0.25
491 8.6101 9.01326 6.74828 0.25
492 7.71982 3.01605 9.80819 0.25
493 9.59122 3.75561 6.76793 0.25
494 8.34468 4.70868 4.7612 0.25
495 9.67144 3.32492 6.49755 0.25
496 4.80248 1.52577 6.12173 0.25
497 3.7614 3.97498 10.2223 0.25
498 8.49336 1.51161 9.06275 0.25
499 4.31439 9.0729 1.13012 0.25
500 4.20482 7.71438 9.31105 0.25
501 2.84568 10.3214 4.76173 0.25
502 8.95883 5.83651 7.0944 0.25
503 6.89079 8.29154 2.91086 0.25
504 6.66879 7.65183 0.428047 0.25
505 7.54234 1.17846 5.93644 0.5
506 5.43201 10.0441 5.38195 0.25
507 7.25889 8.37312 2.6234 0.25
508 4.60877 8.57887 8.49117 0.25
509 1.35837 9.08819 7.77401 0.25
510 5.46798 4.1172 4.75491 0.25
511 4.26204 10.1544 6.33974 0.25
512 1.27675 4.60089 3.53211 0.25
513 1.70128 5.25892 10.1343 0.25
514 3.80759 2.1982 4.97657 0.25
515 1.63331 1.74179 7.46136 0.5
516 5.89673 9.08996 5.57358 0.5
517 8.32304 6.57856 3.56614 0.25
518 2.87082 0.751458 10.041 0.25
519 2.82296 10.0249 4.37562 0.25
520 5.2575 1.8287 7.36895 0.25
521 1.18137 4.53173 5.39593 0.25
522 2.05938 0.343081 4.35121 0.25
523 2.91652 3.24169 8.13801 0.25
524 7.56529 1.45047 4.79782 0.25
525 2.36793 6.66606 7.58101 0.25
526 1.93856 5.53742 8.54247 0.25
527 6.76848 9.40649 2.69115 0.5
528 7.54552 8.69029 2.91051 0.25
529 3.46375 5.82039 1.32361 0.25
530 1.67992 8.37625 2.23433 0.25
531 0.373964 3.00478 9.32203 0.25
532 1.62257 7.99294 9.99967 0.25
533 9.49593 10.2678 3.87575 0.25
534 8.6463 4.46242 4.01363 0.25
535 7.34027 6.21635 9.08969 0.25
536 4.40233 9.25368 0.66755 0.25
537 7.71188 2.15092 3.47696 0.25
538 7.47998 4.55305 7.59526 0.25
539 10.3281 3.60134 6.71016 0.5
540 5.8376 10.0731 8.10673 0.25
541 9.70071 8.80245 1.29588 0.25
542 7.28486 8.7218 5.99405 0.25
543 9.34956 4.05806 4.35571 0.25
544 2.17753 1.41778 7.20103 0.25
545 10.1703 9.06273 4.03016 0.25
546 10.2682 1.19218 6.56887 0.25
547 9.63736 3.94577 1.40034 0.25
548 9.53417 4.75834 9.0136 0.25
549 2.08158 1.09425 2.34848 0.25
550 9.81223 8.54392 0.870367 0.25
551 2.39611 7.23692 3.42403 0.25
552 8.95452 9.40052 6.78763 0.25
553 5.40069 2.826 5.1923 0.25
554 8.82529 4.02394 4.23856 0.25
555 5.88334 8.72544 8.00376 0.25
556 1.16101 9.43927 7.45349 0.25
557 2.97465 9.46727 7.68212 0.25
558 2.38043 3.95791 7.63332 0.25
559 9.79423 1.25474 8.76223 0.25
560 3.75226 4.68889 5.61356 0.25
561 0.910955 3.77502 1.65193 0.25
562 5.10983 4.85175 9.94306 0.25
563 5.44961 9.6973 8.12256 0.25
564 1.47975 1.83415 6.69553 0.25
565 2.50595 1.02182 2.15704 0.25
566 9.78956 5.98906 6.95204 0.25
567 1.35435 6.40635 0.76139 0.25
568 7.70787 1.21662 5.2163 0.25
569 7.36243 3.81129 7.38259 0.5
570 4.24384 4.44372 2.77759 0.25
571 4.34845 3.34149 2.16712 0.25
572 8.5785 1.82328 8.67364 0.25
573 0.360147 6.98211 4.70348 0.25
574 0.0668068 1.21254 6.11989 0.25
575 5.98458 3.6651 4.54032 0.25
576 5.19794 1.96366 0.99925 0.25
577 1.12289 7.92613 5.4643 0.25
578 1.15884 5.45052 0.225406 0.5
579 4.93161 5.22475 7.33642 0.25
580 9.17852 6.73875 3.89913 0.25
581 6.73167 6.71117 8.92442 0.25
582 7.25013 4.09142 5.0934 0.25
583 8.36943 5.88846 6.45463 0.25
584 4.88251 6.79159 3.57581 0.25
585 6.90746 0.435101 0.596284 0.25
586 1.94187 2.97843 4.27188 0.25
587 5.89961 9.84935 5.57657 0.25
588 2.84458 1.47788 9.43589 0.25
589 10.0738 3.6316 1.51276 0.25
590 8.05266 7.02525 3.70944 0.25
591 3.75337 2.621 5.21355 0.25
592 6.59623 5.46034 2.64503 0.25
593 5.2418 9.35524 5.82053 0.25
594 8.86801 6.2757 10.2401 0.25
595 2.3341 2.09687 7.51183 0.25
596 9.23465 9.01295 1.24956 0.25
597 4.31163 1.09953 3.18667 0.25
598 6.51483 7.36651 0.0184873 0.25
599 9.99115 1.0222 2.16453 0.25
600 3.72454 9.19218 1.68042 0.25
601 7.27264 10.0197 2.29103 0.25
602 6.39313 8.29784 2.96031 0.25
603 2.4703 6.31694 7.25884 0.25
604 9.13707 0.673908 1.26184 0.25
605 1.27118 8.05429 2.28798 0.25
606 1.87379 1.59967 6.83638 0.25
607 2.51314 2.30825 7.03994 0.25
608 5.89935 7.19248 6.00057 0.5
609 4.0501 6.81014 1.77019 0.25
610 6.42406 4.73345 1.04619 0.5
611 8.35986 8.59213 7.39487 0.25
612 8.53479 10.0227 4.38411 0.5
613 8.23614 2.33869 10.013 0.25
614 9.35005 6.95558 0.930563 0.25
615 6.5931 3.66661 7.40178 0.25
616 1.46561 1.38329 6.74025 0.25
617 2.65449 3.55937 7.39292 0.25
618 7.85351 2.75038 0.268333 0.25
619 1.43547 9.89256 2.38728 0.25
620 6.67796 5.9895 2.71515 0.25
621 6.56944 4.7322 1.73892 0.25
622 6.89315 6.3672 9.22231 0.25
623 7.79184 4.19937 4.66825 0.5
624 4.64374 8.39916 7.97884 0.25
625 5.56116 1.80822 10.2101 0.25
626 2.39839 3.09376 4.25843 0.25
627 6.89043 5.25875 2.89705 0.25
628 1.06545 9.85893 10.3383 0.25
629 7.36759 10.1199 9.8586 0.25
630 5.76323 7.24721 0.312882 0.25
631 8.31964 1.74195 5.29331 0.25
632 3.37747 3.7856 0.0886786 0.25
633 3.823 3.60072 0.185798 0.25
634 4.4282 7.84991 8.58521 0.5
635 9.3701 6.21506 7.03166 0.25
636 8.90969 4.87293 9.77288 0.25
637 6.4537 9.32229 4.63374 0.25
638 2.31364 10.3553 5.27968 0.5
639 7.30812 2.77839 2.10288 0.25
640 7.4155 1.47361 7.85913 0.25
641 3.79402 5.50529 3.73921 0.25
642 3.34932 7.17593 6.4904 0.25
643 3.13007 1.84696 9.71716 0.25
644 5.97186 9.875 4.81611 0.5
645 3.12976 4.06144 0.417858 0.25
646 8.92127 7.1477 3.74949 0.25
647 5.91825 6.62306 5.5219 0.25
648 7.08321 1.11458 7.80204 0.25
649 4.73385 6.00191 9.02845 0.25
650 7.64664 1.62161 3.42088 0.25
651 5.09583 8.30539 7.81673 0.25
652 1.12593 5.87342 8.58633 0.25
653 0.832437 4.66811 5.73067 0.25
654 1.49685 6.46743 7.4311 0.25
655 10.0029 4.07152 1.69332 0.25
656 4.45909 5.05069 7.43801 0.25
657 8.15811 9.36292 6.86911 0.25
658 7.35298 4.33735 8.02222 0.25
659 8.89035 9.53362 3.87489 0.25
660 2.04251 6.05389 7.89517 0.5
661 2.28482 7.3387 2.92768 0.25
662 7.55295 9.02481 5.68302 0.25
663 3.61261 0.856567 9.07969 0.25
664 1.2442 2.63644 10.2103 0.25
665 8.19025 6.40733 0.93038 0.25
666 5.36724 9.60542 8.64695 0.25
667 8.27529 3.00898 0.0980846 0.25
668 7.00773 1.59354 5.58617 0.25
669 3.43211 7.80004 9.59766 0.5
670 0.672663 3.31493 9.08514 0.25
671 0.664984 6.27987 4.62748 0.5
672 6.59868 7.02545 6.05104 0.25
673 3.88627 9.6687 1.79161 0.25
674 7.17834 4.42964 4.3474 0.25
675 8.06474 8.94775 7.55463 0.25
676 5.68813 1.70169 0.545088 0.5
677 9.4767 3.28833 7.45604 0.25
678 9.68974 0.819671 6.21779 0.5
679 2.02378 2.37844 7.27142 0.25
680 2.67728 7.51463 3.14881 0.25
681 7.80389 9.09748 7.09799 0.25
682 3.15488 7.72949 5.38408 0.25
683 1.17868 2.79514 9.47481 0.25
684 1.30154 9.33042 6.99691 0.25
685 9.29354 10.2381 4.34373 0.25
686 6.70666 9.61454 4.96883 0.25
687 9.28262 3.63781 7.17733 0.25
688 5.49796 7.6039 0.592953 0.25
689 2.22827 2.68985 3.97246 0.25
690 9.78545 8.11316 8.80327 0.25
691 0.358521 7.91059 5.81822 0.25
692 1.27487 4.53414 5.88024 0.25
693 9.59405 1.89855 3.76038 0.25
694 2.9498 3.99387 10.3216 0.25
695 8.03264 1.47595 4.96013 0.25
696 5.31607 0.509682 3.33723 0.25
697 1.23503 8.95651 7.33266 0.25
698 8.52571 5.66705 0.365971 0.25
699 3.92973 7.89871 5.64235 0.25
700 5.54106 7.20367 0.820225 0.25
701 3.37453 4.86639 5.38341 0.25
702 6.3464 3.80486 4.92317 0.25
703 2.14574 0.740324 1.90965 0.25
704 6.6563 3.86013 8.24594 0.25
705 3.90383 5.81231 9.14523 0.25
706 7.52856 1.07998 7.63352 0.25
707 6.73637 6.36259 5.57648 0.25
708 5.25414 6.66343 3.31597 0.25
709 1.05692 4.46458 2.08658 0.5
710 1.20269 4.99965 5.65824 0.25
711 6.92783 4.28883 6.88022 0.25
712 3.96489 8.43837 3.71225 0.25
713 1.19982 4.92526 3.16397 0.25
714 2.01427 10.3242 4.66746 0.25
715 2.27645 3.83542 8.14746 0.25
716 9.48656 8.91874 1.65627 0.25
717 3.07194 5.67794 5.29069 0.25
718 5.72969 3.62453 5.29663 0.5
719 5.61555 3.1065 5.95183 0.25
720 5.80589 0.636898 3.42927 0.25
721 3.12609 7.63902 6.66508 0.25
722 3.70241 6.07752 4.59544 0.25
723 6.22207 6.48041 6.86533 0.25
724 9.69205 0.860288 9.009 0.25
725 3.84234 0.383771 6.71874 0.25
726 3.82175 5.78475 4.17398 0.25
727 3.3201 5.85831 4.29985 0.25
728 2.47798 8.32718 0.308582 0.5
729 7.71478 1.877 6.10139 0.25
730 8.03329 1.50026 8.89918 0.25
731 1.07082 5.7828 9.91088 0.25
732 3.82626 7.25452 6.46114 0.25
733 9.80535 2.10859 4.68413 0.25
734 8.43487 7.39368 3.79999 0.25
735 3.38302 2.31333 5.22744 0.25
736 8.87612 6.51763 6.10857 0.25
737 0.714733 4.3519 5.31354 0.25
738 4.92029 8.38129 8.7531 0.25
739 3.29961 3.89138 10.0017 0.25
740 8.76427 6.57108 1.51991 0.25
741 7.14611 3.07655 2.86815 0.25
742 5.00273 1.98177 0.49286 0.25
743 9.81835 1.66146 4.36218 0.25
744 2.38469 2.50453 4.72558 0.5
745 0.500534 4.27086 5.84325 0.25
746 7.01978 4.71895 1.46424 0.25
747 8.05762 3.19677 9.45217 0.25
748 7.1505 10.0491 9.43283 0.25
749 6.78962 3.61258 7.83047 0.25
750 4.43842 1.783 6.30558 0.25
751 1.70045 2.20905 4.54171 0.25
752 9.77795 2.0561 4.18455 0.25
753 0.544985 2.60512 9.88212 0.5
754 8.13803 1.6872 5.82226 0.25
755 7.98335 2.78016 10.1585 0.25
756 5.22552 1.94842 1.48341 0.25
757 0.169229 1.98033 4.34589 0.5
758 1.96804 9.8602 4.78599 0.25
759 4.8175 2.6096 8.15857 0.25
760 5.38423 1.11092 3.98873 0.25
761 6.39634 6.93785 6.5589 0.25
762 0.501974 4.10939 6.35548 0.25
763 6.45722 4.28165 4.33057 0.5
764 5.0271 6.81511 4.08558 0.25
765 7.41276 6.36662 8.60969 0.25
766 1.40173 5.33296 3.08091 0.25
767 7.6819 2.50868 2.09868 0.25
768 5.11832 2.49301 5.80934 0.5
769 0.486532 3.08553 0.12222 0.25
770 6.30955 6.33512 6.13814 0.5
771 5.80602 7.98283 0.756547 0.25
772 6.8472 9.11164 5.59473 0.5
773 5.78841 4.20852 0.277327 0.25
774 7.08882 8.80322 2.82794 0.25
775 9.99369 7.67905 8.62758 0.25
776 4.59036 10.0042 0.30627 0.25
777 1.25779 8.51467 2.03427 0.25
778 3.06362 0.399423 8.62546 0.25
779 9.70636 7.88894 8.32238 0.25
780 5.46286 5.25958 9.82137 0.25
781 5.10077 7.14652 3.2539 0.25
782 9.2631 6.50283 0.848879 0.25
783 4.54588 8.67376 3.17865 0.25
784 3.38841 4.26429 0.0169732 0.25
785 8.52516 9.06447 7.50858 0.25
786 6.74478 6.71044 5.23171 0.25
787 6.89691 6.80059 5.72477 0.25
788 5.46839 0.709669 3.7654 0.25
789 6.34036 4.80921 2.18089 0.25
790 4.9325 1.93845 6.27576 0.25
791 8.39359 6.33092 6.15893 0.25
792 4.13383 3.38795 2.80415 0.5
793 0.0448223 0.458336 8.92438 0.25
794 2.42988 1.53936 2.26475 0.25
795 1.62808 8.74556 7.52546 0.25
796 2.09439 9.97484 3.99644 0.5
797 0.153796 9.30966 4.30201 0.25
798 9.10059 4.2505 3.98631 0.25
799 4.71147 6.5287 1.81131 0.5
800 10.188 1.44295 1.4588 0.25
801 6.04579 0.0799906 9.87152 0.25
802 6.43428 7.43696 0.846079 0.25
803 9.47879 5.15694 9.25399 0.25
804 4.16824 5.32983 7.7049 0.25
805 8.94989 4.04469 4.70187 0.25
806 2.25155 9.9348 7.89817 0.25
807 2.99144 4.95788 5.71342 0.25
808 8.76047 4.78816 9.22446 0.25
809 1.55276 5.7359 9.98096 0.25
810 7.30545 1.65289 6.41042 0.25
811 9.67997 4.81298 9.50892 0.25
812 4.01832 6.38352 1.52884 0.25
813 1.68738 3.96902 2.23457 0.25
814 1.39252 10.2608 0.0898827 0.25
815 3.55638 5.36996 4.84506 0.5
816 6.51691 0.246584 9.93933 0.25
817 4.75866 9.74052 1.03897 0.5
818 8.84827 6.04106 0.309392 0.25
819 3.92071 5.99516 1.29413 0.25
820 6.47939 4.25235 8.42805 0.25
821 7.9461 8.61753 7.15065 0.25
822 3.91784 4.15398 2.01451 0.25
823 1.8878 9.46044 7.44456 0.5
824 7.24496 4.55727 7.15191 0.25
825 7.94246 8.89023 6.36836 0.5
826 7.74816 3.00989 2.19571 0.25
827 9.3521 6.66235 6.28634 0.25
828 9.9604 4.35493 2.10225 0.25
829 1.14073 7.4335 5.58845 0.25
830 3.68337 6.07139 1.71469 0.25
831 2.4633 7.86933 2.92158 0.25
832 4.15041 5.3835 9.26349 0.25
833 5.67055 6.65762 6.37664 0.25
834 8.56515 4.25051 4.90115 0.25
835 1.10759 1.65334 6.9117 0.25
836 6.39024 5.32789 2.20821 0.25
837 3.88206 7.24955 9.31677 0.25
838 2.60719 9.27809 7.39987 0.25
839 10.3192 2.72239 4.29714 0.25
840 9.00743 4.71083 3.73706 0.25
841 5.83122 4.79395 10.1675 0.5
842 6.9339 6.27352 8.76502 0.25
843 1.05569 9.65161 2.08881 0.25
844 6.3125 5.12737 1.73767 0.25
845 8.50831 3.86212 4.55971 0.25
846 0.552984 5.19611 4.38877 0.25
847 8.17327 3.22061 9.97083 0.25
848 3.43954 1.20309 9.78261 0.5
849 6.51871 4.98186 2.60772 0.25
850 4.25356 8.03152 3.62248 0.25
851 4.01008 6.31268 2.01088 0.25
852 5.58388 0.66319 2.9539 0.25
853 9.31474 9.42088 3.84275 0.25
854 2.40309 3.32643 8.16765 0.25
855 3.91941 6.40914 1.02039 0.25
856 9.1358 3.14601 7.06392 0.25
857 6.21568 4.25983 5.0942 0.25
858 8.45836 7.28018 4.78658 0.25
859 9.70338 1.30735 1.41287 0.25
860 2.78164 9.64104 4.06387 0.25
861 4.15636 9.24342 1.92388 0.25
862 7.74172 1.05841 8.36158 0.5
863 0.773162 2.81141 9.1529 0.25
864 4.83878 3.29389 2.96676 0.25
865 0.789422 7.07477 4.49116 0.25
866 2.89835 1.25838 10.1967 0.25
867 2.8348 7.93197 9.2109 0.25
868 9.64275 0.815081 1.45403 0.25
869 1.1142 8.20093 5.85946 0.25
870 7.20188 6.6557 8.97603 0.25
871 7.35263 3.11888 2.41676 0.25
872 8.13137 1.52317 7.68648 0.5
873 5.21285 9.71851 5.0544 0.25
874 6.82559 9.12071 4.88258 0.25
875 3.81366 8.32618 5.43914 0.25
876 4.2047 5.97118 1.67036 0.25
877 0.442706 2.22043 3.65311 0.25
878 0.316422 0.117389 9.12539 0.25
879 1.35727 7.54423 5.13424 0.25
880 5.73176 4.04656 4.33904 0.25
881 4.24069 6.52297 9.12604 0.5
882 10.0362 0.125096 6.08984 0.25
883 5.74036 2.89333 5.55479 0.25
884 2.6801 2.03215 1.71897 0.5
885 9.05319 10.3197 3.88858 0.25
886 9.30832 8.50376 1.47625 0.25
887 1.43529 6.57858 7.89245 0.25
888 1.62357 0.711523 1.68579 0.25
889 4.83299 5.11207 8.67575 0.25
890 0.797491 3.8907 6.01288 0.25
891 4.86586 3.72648 2.66924 0.25
892 6.63681 8.71421 3.00148 0.25
893 7.81367 2.33499 10.2704 0.25
894 1.91888 7.84518 0.0764128 0.25
895 9.62109 2.90227 7.15816 0.25
896 9.56267 1.14154 1.85091 0.25
897 3.51595 7.44394 6.86623 0.25
898 0.840778 4.99393 4.97914 0.5
899 0.352164 0.859948 6.05758 0.25
900 8.53068 7.0203 3.48712 0.25
901 0.862781 7.76063 5.83519 0.25
902 5.22809 1.49729 1.22117 0.25
903 9.1363 7.13494 4.19641 0.25
904 1.32656 6.29052 0.104894 0.5
905 9.51431 0.998117 1.0434 0.25
906 9.64345 9.99103 3.47471 0.25
907 4.17887 4.06682 2.43152 0.25