ITEM: TIMESTEP
240000
ITEM: NUMBER OF ATOMS
1000
ITEM: BOX BOUNDS xy xz yz pp pp pp
0.0000000000000000e+00 1.0357442000000001e+01 0.0000000000000000e+00
0.0000000000000000e+00 1.0357442000000001e+01 0.0000000000000000e+00
0.0000000000000000e+00 1.0357442000000001e+01 0.0000000000000000e+00
ITEM: ATOMS id x y z radius
1 1.39561 4.49124 2.73193 0.5
2 2.22698 7.33304 2.3098 0.5
3 5.64369 1.64333 0.926762 0.25
4 0.538461 1.93934 3.71388 0.25
5 10.2584 3.28295 7.69663 0.25
6 0.460422 2.5095 9.40983 0.25
7 4.97068 0.675695 2.80626 0.25
8 9.00149 4.25431 2.26745 0.25
9 9.60756 1.23043 1.78049 0.25
10 8.92136 7.42615 4.31366 0.25
11 10.0422 8.95062 0.806905 0.25
12 8.00593 2.6663 10.0056 0.25
13 3.36531 8.01084 6.10429 0.25
14 5.45655 2.42532 10.2991 0.25
15 8.59393 5.76433 6.21127 0.25
16 8.9061 8.72734 6.64753 0.25
17 5.40533 9.387 8.31857 0.5
18 2.55648 7.90026 9.36529 0.25
19 7.2145 4.54749 4.9688 0.25
20 9.11676 0.685696 1.24032 0.25
21 0.514329 0.00777712 9.97845 0.25
22 4.90505 0.932697 2.43721 0.25
23 5.01903 3.56333 2.76796 0.25
24 2.78792 2.44441 4.20645 0.25
25 7.87792 2.43437 6.31491 0.25
26 5.28325 2.58321 8.20325 0.25
27 1.15315 8.03748 0.126771 0.25
28 8.83256 6.23659 6.16264 0.25
29 2.93445 7.96226 5.82685 0.25
30 0.864729 9.03235 7.23885 0.25
31 1.05621 7.78626 4.68338 0.25
32 9.145 6.54066 1.19857 0.25
33 10.0054 8.59296 1.22134 0.25
34 1.1721 2.72134 10.0905 0.25
35 8.19776 2.26745 10.2715 0.25
36 8.02443 8.70014 9.40596 0.25
37 2.84522 4.19253 5.96712 0.25
38 6.9704 0.138704 1.24059 0.25
39 5.57226 3.941 4.83497 0.25
40 8.5448 4.34871 4.7781 0.25
41 8.97933 6.89808 3.65079 0.25
42 6.1272 9.09044 2.44006 0.5
43 0.235709 8.68393 5.23928 0.25
44 2.88048 9.53798 4.45452 0.25
45 7.05111 7.05837 8.35334 0.25
46 1.16097 8.72923 6.94541 0.25
47 4.653 8.2136 4.05573 0.25
48 3.23887 9.7505 4.17903 0.25
49 4.2772 5.94741 9.2779 0.25
50 9.78148 9.93608 3.43082 0.25
51 8.85037 8.81315 1.15987 0.25
52 6.34256 7.413 0.74907 0.25
53 6.58741 4.87212 1.88482 0.25
54 4.8537 4.75699 8.17633 0.25
55 6.11539 7.13943 7.04943 0.25
56 5.15465 1.55661 1.11177 0.25
57 5.74784 2.48525 0.356548 0.25
58 5.84604 4.80018 0.429858 0.25
59 3.89596 7.26439 9.36118 0.25
60 7.31299 7.38683 8.52069 0.25
61 3.56181 10.2134 8.23846 0.25
62 9.04707 5.79452 6.46311 0.25
63 0.698965 5.38163 4.21273 0.25
64 9.94455 1.55362 1.58538 0.25
65 6.12791 6.35148 6.7029 0.25
66 4.50554 0.847428 2.69581 0.25
67 9.45643 5.35319 9.25919 0.25
68 6.07831 10.3147 10.339 0.25
69 2.9473 7.28096 2.54879 0.25
70 3.9902 5.85353 4.07474 0.25
71 1.22316 7.96402 1.85001 0.25
72 5.44988 6.58711 3.54428 0.25
73 9.15523 8.96206 7.29614 0.5
74 2.70483 7.64288 2.74819 0.25
75 1.02774 5.86444 0.544991 0.25
76 1.98217 8.63778 10.2832 0.25
77 7.02836 7.08497 8.78683 0.25
78 3.51386 9.23997 1.35545 0.25
79 1.11892 5.02162 9.51492 0.25
80 8.41178 8.93633 9.50793 0.25
81 8.46832 9.08882 7.45625 0.25
82 1.24505 0.398077 2.37297 0.25
83 1.64526 7.82736 2.16786 0.25
84 5.39667 9.92954 4.91562 0.25
85 4.14502 6.70715 1.22624 0.25
86 9.7841 3.99119 1.5675 0.5
87 1.04947 5.49718 8.31293 0.25
88 2.75814 3.89271 8.43575 0.25
89 0.932352 10.0784 10.0409 0.25
90 6.85227 9.86386 1.58784 0.5
91 4.70027 8.48461 3.64599 0.25
92 9.28024 1.48593 1.09358 0.25
93 8.50106 1.09408 8.44042 0.25
94 0.951044 4.19715 1.73723 0.25
95 7.4435 8.85101 6.10389 0.25
96 7.78615 1.15022 7.27348 0.25
97 5.56968 9.72404 5.34036 0.25
98 10.003 0.500944 6.29164 0.25
99 5.35814 1.88685 8.19615 0.5
100 5.24162 2.76043 5.46902 0.25
101 5.54042 2.21869 9.59747 0.5
102 4.46041 5.45006 8.30172 0.5
103 7.18764 0.213265 0.805865 0.25
104 1.21743 0.0214615 0.344682 0.25
105 1.97279 4.55633 3.28183 0.25
106 5.56211 6.97295 6.46824 0.25
107 5.91221 9.92652 8.30545 0.25
108 1.89319 3.87573 1.95715 0.25
109 7.37469 2.38791 2.74645 0.25
110 5.36443 9.45384 5.65731 0.25
111 1.81723 4.70473 0.364669 0.25
112 3.28647 4.90659 5.39833 0.25
113 2.3047 10.0153 5.11578 0.25
114 8.5688 5.9061 0.162611 0.25
115 3.7879 3.67364 2.70021 0.25
116 0.0620699 2.52947 4.65123 0.25
117 7.60492 3.04983 2.54761 0.5
118 6.05784 8.40228 2.37552 0.25
119 9.97345 2.08398 3.752 0.25
120 1.73868 5.54982 0.295212 0.25
121 8.26206 2.38029 5.64728 0.5
122 2.06189 4.66933 2.43075 0.25
123 8.90346 8.93981 1.5967 0.25
124 8.33227 6.12549 0.580879 0.25
125 1.5444 0.0760208 4.25327 0.25
126 6.20629 7.61777 0.298146 0.25
127 5.97997 7.18467 0.477141 0.25
128 8.96827 9.79935 4.31827 0.25
129 1.95259 5.08925 3.42528 0.25
130 8.60733 8.5435 1.462 0.25
131 7.15023 2.63641 3.09494 0.25
132 8.44956 5.15215 4.58538 0.25
133 8.03787 9.17534 9.28174 0.25
134 5.01711 3.55026 2.25414 0.25
135 6.28715 9.39603 7.9448 0.5
136 8.54874 8.84793 7.00454 0.25
137 0.996382 8.96819 2.30157 0.25
138 7.21071 4.5338 4.39616 0.25
139 7.00419 3.7288 7.72261 0.5
140 4.29091 8.6738 3.41267 0.25
141 2.76862 2.054 1.74002 0.25
142 2.84971 2.73788 4.60629 0.25
143 7.45866 1.09474 3.21523 0.25
144 9.86544 6.35305 2.52357 0.25
145 2.98744 7.68141 6.2539 0.25
146 7.58756 8.88245 2.73914 0.25
147 3.52142 5.80113 4.03054 0.25
148 2.76754 1.54415 9.96158 0.25
149 0.0451085 8.01542 9.21129 0.25
150 4.43044 4.8225 7.87364 0.25
151 6.87605 9.90477 9.82624 0.25
152 3.96683 9.115 1.13841 0.25
153 5.39056 2.19181 7.5035 0.25
154 5.64183 9.45941 7.63052 0.25
155 3.81452 5.60463 1.57037 0.25
156 0.884313 8.52383 7.34486 0.25
157 5.06225 1.51596 3.77556 0.25
158 8.9183 8.95914 6.218 0.25
159 3.339 2.61617 5.31442 0.25
160 2.6003 3.5257 8.14187 0.25
161 3.30842 0.23137 8.49428 0.25
162 4.14116 2.07543 5.80463 0.5
163 6.90946 9.94675 2.41235 0.25
164 5.3717 8.57446 8.3467 0.25
165 0.864911 3.07746 9.85898 0.25
166 7.08955 4.44402 8.70623 0.25
167 8.38927 10.3005 3.89151 0.25
168 10.2196 7.29532 8.82179 0.25
169 8.92421 6.45871 7.45939 0.25
170 3.44374 10.1888 8.71582 0.25
171 1.20635 8.46533 7.7034 0.25
172 9.28924 6.07621 6.82303 0.25
173 0.829018 2.33795 3.53506 0.25
174 4.73087 1.81904 6.15278 0.25
175 9.84217 3.00355 7.63988 0.25
176 0.848814 5.54467 0.260513 0.25
177 9.13004 6.00092 7.29285 0.25
178 7.55599 2.44476 5.95811 0.25
179 2.87288 9.85149 7.51825 0.25
180 7.11656 8.88095 2.133 0.5
181 0.754659 4.0734 5.71994 0.25
182 7.54527 1.68561 3.97632 0.25
183 2.61609 0.352858 4.86441 0.25
184 9.60129 5.05488 9.99322 0.25
185 9.26026 9.12539 6.60451 0.25
186 2.42102 8.1069 9.87258 0.25
187 3.92766 3.89293 0.391563 0.25
188 5.01553 2.36641 7.78498 0.25
189 9.908 10.3386 6.07678 0.25
190 2.62077 7.8283 3.25393 0.25
191 5.12593 2.32745 8.59605 0.25
192 8.96478 9.42001 6.31561 0.25
193 5.27493 2.56328 8.97857 0.25
194 3.94057 9.1842 1.6305 0.25
195 4.92637 5.29107 9.89097 0.25
196 5.96915 2.43763 10.2258 0.25
197 8.60545 6.32438 6.81295 0.5
198 7.4311 1.84322 7.29328 0.5
199 6.74791 0.00847173 9.72923 0.25
200 7.26241 0.978618 6.55361 0.25
201 5.81652 6.75345 6.80245 0.25
202 3.44767 7.68484 5.17253 0.25
203 4.92413 9.60654 0.599036 0.25
204 0.132724 3.76454 6.2045 0.25
205 4.0358 10.2931 6.23894 0.25
206 0.578698 2.66451 4.6041 0.25
207 1.38557 5.30523 3.86793 0.5
208 2.77673 4.65617 6.07898 0.25
209 7.57742 9.31778 2.47392 0.25
210 3.96372 -0.00114041 6.74121 0.25
211 1.80539 5.06405 2.56671 0.25
212 0.24889 3.97118 2.1008 0.5
213 9.08587 3.83829 1.43276 0.25
214 3.52586 4.63225 5.6889 0.25
215 10.2496 0.681106 9.05164 0.25
216 5.07338 1.7628 0.330888 0.25
217 0.457185 8.21941 5.21282 0.25
218 2.66582 1.48149 2.24593 0.5
219 0.83365 4.21042 6.17982 0.25
220 6.44082 9.79268 2.58081 0.25
221 8.44516 7.70036 4.43127 0.25
222 9.27067 6.26913 6.3841 0.25
223 5.73909 9.58047 4.82763 0.25
224 10.2926 4.1356 7.61789 0.25
225 7.97366 1.71304 5.60715 0.25
226 6.59684 9.29 4.95382 0.25
227 7.06601 0.620674 1.08604 0.25
228 5.6566 2.15471 0.777919 0.25
229 1.79766 2.10423 1.84036 0.25
230 8.76887 7.22356 3.36567 0.25
231 7.51751 4.78252 7.94357 0.25
232 6.72494 9.51882 2.27246 0.25
233 8.17389 1.7759 8.5878 0.5
234 4.11036 10.0477 1.62856 0.25
235 1.38628 8.38259 7.18894 0.25
236 1.29274 5.48193 0.439797 0.25
237 7.90544 1.3754 3.29099 0.25
238 1.28116 6.05222 4.17862 0.25
239 0.437113 2.85126 9.7508 0.25
240 1.1943 8.27809 2.55994 0.5
241 1.27649 9.08283 2.71806 0.25
242 3.16229 7.36169 6.56108 0.25
243 1.26283 6.32221 0.566786 0.25
244 1.07342 1.26963 7.51461 0.25
245 6.27886 6.6526 7.02641 0.25
246 1.26528 8.07067 10.0064 0.25
247 2.8927 7.13245 2.01917 0.25
248 5.56135 1.73558 8.96239 0.25
249 7.29842 4.12738 4.73328 0.25
250 7.52575 1.29459 6.88089 0.25
251 1.61246 1.34235 6.82118 0.25
252 6.64205 6.30778 9.17495 0.25
253 3.63101 7.72951 8.76406 0.25
254 0.530848 8.69668 2.40834 0.25
255 0.9662 0.101316 2.61669 0.25
256 4.17843 5.2723 4.57206 0.25
257 1.34467 10.2887 10.2431 0.25
258 4.78577 4.61222 7.1962 0.25
259 2.06151 9.92445 4.69303 0.25
260 1.50609 9.96353 0.251301 0.25
261 7.45401 7.22352 8.93449 0.25
262 5.11286 6.73276 3.8943 0.25
263 8.33894 8.65217 9.8386 0.25
264 7.61459 9.68255 9.63087 0.5
265 4.44767 4.2105 2.86307 0.25
266 4.11767 4.23514 3.25637 0.25
267 3.40973 7.95592 5.58002 0.25
268 3.46218 7.61947 6.28225 0.25
269 7.47255 8.65037 5.68244 0.25
270 3.76854 7.81465 5.94186 0.25
271 3.48822 9.47162 1.82972 0.25
272 6.76037 6.62085 5.79641 0.25
273 9.66408 3.43365 6.75372 0.25
274 3.24012 4.49261 6.09069 0.25
275 10.0909 6.6843 2.83284 0.25
276 8.83608 0.939043 8.09191 0.25
277 2.81913 10.1567 8.23389 0.5
278 3.84596 5.98841 8.44986 0.25
279 3.77786 0.182007 8.55016 0.25
280 2.88867 0.497913 8.69599 0.25
281 4.91457 8.22906 3.26463 0.25
282 4.48191 0.926763 3.53049 0.25
283 9.82069 0.0176852 9.15298 0.25
284 1.65096 5.13602 0.492902 0.25
285 8.78591 6.77658 1.02591 0.25
286 10.0115 1.32435 1.99754 0.25
287 2.28985 7.88522 2.87058 0.25
288 1.48202 5.797 4.65449 0.25
289 8.76752 0.991313 1.4454 0.25
290 9.46546 4.02512 2.224 0.25
291 8.13067 2.69387 0.0825038 0.25
292 3.83813 9.57906 1.45775 0.25
293 4.36311 2.13508 7.22359 0.5
294 0.0296994 6.37565 2.57495 0.25
295 7.10723 0.915037 7.31418 0.5
296 3.01796 2.89005 4.18018 0.25
297 0.591151 7.81629 5.48043 0.25
298 4.42805 8.9241 0.906687 0.25
299 9.16068 4.88554 9.8759 0.25
300 1.98669 0.257779 4.07293 0.25
301 4.62661 8.39398 8.08957 0.25
302 5.13224 4.96143 7.40869 0.25
303 9.13742 5.47981 0.108275 0.5
304 4.14907 3.38523 2.45145 0.25
305 1.87908 7.97997 2.64236 0.25
306 0.258954 7.6231 8.97116 0.25
307 1.01859 9.97195 0.187145 0.25
308 8.6277 5.56949 6.63966 0.25
309 8.67969 1.40864 8.81633 0.25
310 6.11558 6.19793 6.2216 0.25
311 1.14738 10.0543 1.88519 0.25
312 9.12708 0.832517 8.78968 0.5
313 1.17383 7.59222 2.21706 0.25
314 0.824452 4.47363 2.14909 0.25
315 3.47853 0.591308 9.14505 0.5
316 6.12867 4.41221 7.63825 0.25
317 6.08206 9.59381 8.7031 0.25
318 0.110984 7.49539 8.46386 0.25
319 9.99557 10.0464 3.83412 0.25
320 0.970414 2.69608 0.26817 0.25
321 2.30902 2.10592 1.94063 0.25
322 0.815625 7.04972 5.05827 0.25
323 6.25347 10.0118 9.30176 0.5
324 7.62068 2.53789 3.15646 0.25
325 9.10937 3.8263 1.95717 0.25
326 2.95225 9.35 4.02604 0.25
327 1.16404 9.22458 7.60601 0.25
328 4.25028 3.90038 2.49807 0.25
329 8.32378 7.0542 4.0332 0.5
330 9.68963 6.8013 2.58575 0.25
331 8.62994 0.350821 4.06387 0.25
332 6.5684 7.50135 10.2811 0.25
333 9.81839 7.60078 8.86682 0.25
334 6.38238 5.13184 1.52764 0.25
335 5.90448 5.28068 0.272063 0.25
336 9.30703 3.45396 1.60527 0.25
337 4.26033 6.14758 8.43924 0.25
338 6.38998 8.56152 1.99985 0.25
339 3.52741 5.86149 8.78663 0.25
340 0.949493 3.05901 -0.025765 0.25
341 3.82629 5.49 4.30977 0.25
342 9.55154 3.65285 7.18685 0.25
343 10.0066 2.65707 4.44342 0.25
344 4.245 1.01426 3.09969 0.25
345 6.40009 4.11881 10.288 0.25
346 1.51717 1.38456 7.68414 0.25
347 3.59481 3.20943 0.108782 0.25
348 5.71796 7.50873 0.133499 0.25
349 5.43718 1.66952 7.52941 0.25
350 2.51228 3.10528 8.38095 0.25
351 5.52215 6.11217 3.52555 0.25
352 8.35803 6.79573 1.24488 0.25
353 9.8166 3.97308 7.50302 0.25
354 9.89603 3.83955 2.30046 0.25
355 2.37665 1.00893 1.74643 0.25
356 4.03799 9.78601 0.715511 0.25
357 3.64125 4.87138 6.11659 0.25
358 4.14511 9.2423 0.708607 0.25
359 9.06586 6.34241 0.48032 0.5
360 3.80224 0.381473 6.42828 0.25
361 0.0346859 0.559629 6.50787 0.25
362 9.99302 7.58355 8.38172 0.25
363 6.95227 2.74244 2.70094 0.25
364 10.2601 6.58277 1.79112 0.25
365 6.2968 9.61023 4.86923 0.25
366 9.14344 4.2618 1.77557 0.25
367 3.98037 0.0867744 9.37836 0.25
368 9.63849 6.03442 7.12749 0.25
369 9.15174 5.13224 4.36183 0.5
370 5.1416 1.76711 6.83528 0.5
371 9.51152 6.50231 1.86271 0.5
372 1.06913 2.24693 4.22436 0.5
373 3.83006 10.2586 8.96597 0.25
374 2.99847 0.0113991 8.8694 0.25
375 4.6421 1.28145 3.76844 0.25
376 0.777306 5.90385 4.12012 0.25
377 10.2465 7.82879 8.74877 0.25
378 9.05513 9.20962 0.895767 0.25
379 0.426323 4.04919 6.45203 0.25
380 1.83505 2.29727 4.24275 0.25
381 6.67132 5.56598 2.00674 0.5
382 2.0562 8.42449 9.85029 0.25
383 5.65303 8.47986 7.92343 0.25
384 1.45716 6.65216 7.46364 0.25
385 0.381513 6.85998 5.09421 0.25
386 1.19797 5.86807 7.5198 0.25
387 1.28066 6.26182 7.27686 0.25
388 1.5905 1.64498 1.75691 0.25
389 4.8543 1.64802 0.762202 0.25
390 3.96997 3.57086 -0.00229251 0.25
391 3.85506 9.94926 6.54993 0.25
392 0.624845 5.68858 4.63584 0.25
393 8.68986 8.38275 7.03368 0.25
394 10.2893 0.759252 6.01566 0.25
395 2.11212 4.37275 2.87531 0.25
396 2.72406 0.823466 9.00769 0.25
397 7.85456 2.39255 2.7347 0.25
398 9.54876 4.48088 9.30156 0.25
399 2.58525 9.53592 7.81488 0.25
400 8.30967 2.97217 9.75871 0.25
401 5.38732 6.30008 3.91771 0.25
402 4.06913 5.84059 8.82144 0.25
403 6.19544 4.91082 0.0646791 0.25
404 7.7696 3.6415 9.87989 0.25
405 1.52895 5.91851 0.578442 0.25
406 6.42861 9.53043 5.33112 0.25
407 7.32119 6.74315 9.04863 0.25
408 9.80003 8.97829 1.21681 0.25
409 10.1336 6.24748 2.14362 0.25
410 5.84268 1.0157 3.93208 0.25
411 8.1887 9.45661 10.0508 0.25
412 5.00106 1.94022 7.53437 0.25
413 7.09565 2.46178 2.3108 0.25
414 6.47958 6.03442 2.61122 0.25
415 4.8404 1.39725 3.01656 0.5
416 10.1604 0.3285 9.35477 0.25
417 3.35237 7.29138 5.73154 0.5
418 0.901354 1.33768 6.70774 0.5
419 8.88556 0.6447 3.78183 0.25
420 5.32844 8.78291 7.94729 0.25
421 9.18213 6.63284 6.75126 0.25
422 2.63551 7.09463 2.85004 0.25
423 1.97438 4.85938 2.9575 0.25
424 0.579619 0.245625 9.54403 0.25
425 2.39371 0.337793 4.38272 0.25
426 1.9754 1.2262 1.94062 0.25
427 7.03427 1.3904 6.74017 0.25
428 6.54544 9.28558 1.87722 0.25
429 5.73377 8.98636 7.69489 0.25
430 9.16767 9.54285 3.92129 0.25
431 7.00653 0.625197 0.534097 0.25
432 2.6419 7.6891 9.79192 0.25
433 2.8921 2.62538 5.12588 0.25
434 5.72118 9.97511 8.74587 0.25
435 0.203473 3.01001 9.38838 0.25
436 6.61077 4.53841 0.114688 0.25
437 1.74781 5.49909 9.76287 0.25
438 7.70614 0.801064 6.83277 0.25
439 9.24536 10.2711 3.832 0.5
440 2.31557 2.95193 7.66726 0.5
441 1.06202 4.03961 2.2025 0.25
442 6.82452 7.25166 0.707109 0.25
443 9.45862 9.65909 4.31734 0.25
444 1.36724 3.89903 1.87391 0.25
445 5.86323 6.40627 3.74209 0.25
446 8.48794 4.37248 4.29503 0.25
447 6.25538 4.52147 10.0628 0.25
448 5.27029 0.805797 3.52548 0.5
449 10.1408 0.0898414 6.48183 0.25
450 2.80126 1.21559 1.55348 0.25
451 3.16702 3.90563 10.2922 0.25
452 5.73536 3.89604 5.31493 0.25
453 7.30372 4.11235 7.18744 0.25
454 2.03566 5.6776 8.4121 0.25
455 1.1411 5.93535 8.01285 0.25
456 2.00156 1.73805 2.03609 0.25
457 9.43029 8.51615 0.700616 0.5
458 1.58004 5.91356 7.15198 0.25
459 1.51733 1.56839 6.37929 0.25
460 2.0665 6.00691 7.08622 0.25
461 3.99997 6.54385 2.0052 0.25
462 4.341 6.69142 1.69885 0.25
463 1.64473 10.0223 4.42358 0.25
464 9.6745 1.26219 1.30772 0.25
465 6.426 5.53118 2.72682 0.25
466 4.45593 5.24818 7.24695 0.5
467 3.79971 4.84977 5.35208 0.25
468 3.01244 1.6909 1.54405 0.25
469 4.69266 3.31314 2.50747 0.25
470 4.94788 4.05414 2.94396 0.25
471 3.08319 9.98679 4.64143 0.25
472 1.91953 2.23267 7.66902 0.25
473 2.88329 8.15339 9.66807 0.25
474 9.4249 4.50144 2.09237 0.25
475 7.99697 7.51488 3.55827 0.25
476 4.4481 6.30917 1.39337 0.25
477 9.75081 10.0173 4.25474 0.25
478 8.56381 6.11687 1.29032 0.5
479 6.86074 10.1916 0.892712 0.25
480 2.46784 7.81155 10.2687 0.25
481 3.85409 9.9943 1.20076 0.25
482 6.31894 9.65759 5.79449 0.25
483 6.8232 0.0222248 0.127078 0.5
484 9.87731 3.46306 7.51226 0.25
485 7.9769 3.47614 10.3299 0.25
486 4.2521 8.22896 3.69181 0.25
487 3.83168 3.37851 0.499726 0.25
488 6.31482 9.69558 2.08043 0.25
489 7.79975 7.23462 4.49442 0.25
490 2.79784 3.59943 7.67191 0.25
491 8.79984 9.16678 6.69604 0.25
492 8.47684 2.65566 10.0856 0.25
493 9.66887 3.16108 7.15448 0.25
494 8.62634 4.71147 4.51701 0.25
495 10.1383 3.0648 7.27102 0.25
496 4.44556 1.69322 6.5102 0.25
497 3.16548 3.4212 -0.0307997 0.25
498 7.97171 1.24295 9.10578 0.25
499 3.96665 9.66536 1.9306 0.25
500 4.26551 7.25705 9.07739 0.25
501 2.60506 9.82782 4.76038 0.25
502 9.01729 5.65589 6.95189 0.25
503 6.26874 8.49318 2.86653 0.25
504 6.46575 7.21523 0.34033 0.25
505 7.533 1.72415 6.23757 0.5
506 5.41316 9.99522 5.74354 0.25
507 6.58748 8.42329 2.41407 0.25
508 4.83659 7.94778 8.03577 0.25
509 1.63556 8.80431 7.0642 0.25
510 6.23823 3.78573 5.29719 0.25
511 3.56322 10.3143 6.45906 0.25
512 1.77348 4.66957 3.73959 0.25
513 2.03163 5.14331 0.180844 0.25
514 3.92899 2.00367 5.09091 0.25
515 2.13627 1.5733 7.29452 0.5
516 5.98057 9.12166 5.35829 0.5
517 7.69278 7.5349 4.02372 0.25
518 3.03268 1.18439 9.16154 0.25
519 2.82562 10.2374 4.97491 0.25
520 5.01763 2.35566 7.26705 0.25
521 0.918097 4.46859 5.3685 0.25
522 2.4161 10.2953 4.70316 0.25
523 2.1487 3.47648 8.26977 0.25
524 7.84415 1.86691 5.18656 0.25
525 2.33025 6.70192 7.6794 0.25
526 1.76429 5.3546 8.14253 0.25
527 7.01466 9.38386 2.91383 0.5
528 7.20354 8.63279 2.83132 0.25
529 4.45788 5.93672 1.04788 0.25
530 1.57944 7.60263 2.61606 0.25
531 0.0287062 2.6389 9.68419 0.25
532 1.22844 7.62993 10.1722 0.25
533 8.68528 9.83231 3.88696 0.25
534 8.81764 4.6082 4.00029 0.25
535 6.6773 6.34789 8.69972 0.25
536 4.62524 9.18575 0.540851 0.25
537 7.98133 1.5898 3.71089 0.25
538 7.46008 4.24653 7.96735 0.25
539 10.29 3.71005 6.98837 0.5
540 6.02295 10.3408 8.60873 0.25
541 9.32418 8.94519 1.28653 0.25
542 7.50126 9.29251 6.18563 0.25
543 9.72505 4.60247 4.24122 0.25
544 1.68397 2.14428 7.20014 0.25
545 9.96383 0.0427754 3.46138 0.25
546 0.338192 0.888891 6.27368 0.25
547 9.55323 3.53369 2.0393 0.25
548 9.30629 4.8511 9.07421 0.25
549 1.34051 10.2817 2.32735 0.25
550 9.57098 9.24066 0.911741 0.25
551 2.90578 7.41742 3.10534 0.25
552 9.1206 9.57665 6.74949 0.25
553 5.51419 2.42425 5.28071 0.25
554 9.27771 4.47868 4.03004 0.25
555 6.07838 8.65123 7.86184 0.25
556 1.6844 8.60946 7.54143 0.25
557 2.17801 9.74724 8.01568 0.25
558 3.07308 3.70852 8.10369 0.25
559 9.8344 1.01341 9.02717 0.25
560 3.20174 4.96534 5.89696 0.25
561 0.915742 3.68907 1.90103 0.25
562 5.17022 5.23149 9.48742 0.25
563 6.19535 10.1491 7.93887 0.25
564 1.42001 1.60354 7.2047 0.25
565 3.21698 1.39106 1.82006 0.25
566 9.62031 6.36571 6.77625 0.25
567 0.697472 6.03289 0.168674 0.25
568 7.58422 2.09259 5.60204 0.25
569 6.77615 4.60488 8.04966 0.5
570 4.51349 3.60835 2.13539 0.25
571 4.66065 4.19559 3.30903 0.25
572 8.40078 1.52442 9.18912 0.25
573 0.62386 6.94458 4.63017 0.25
574 0.790797 0.662438 6.27547 0.25
575 6.23262 3.56686 4.53959 0.25
576 5.23077 1.96302 0.76552 0.25
577 0.691633 8.21523 4.72025 0.25
578 1.33609 5.01951 10.244 0.5
579 5.03987 4.98156 6.90219 0.25
580 8.31302 7.27305 3.25847 0.25
581 7.52261 6.39204 8.76364 0.25
582 7.04776 4.88538 4.68845 0.25
583 8.16948 5.75712 6.41022 0.25
584 5.82252 6.87705 3.54116 0.25
585 6.73782 0.309598 0.804185 0.25
586 1.67326 1.95432 4.55586 0.25
587 5.80769 9.70853 5.72005 0.25
588 3.43698 0.918508 9.88581 0.25
589 10.0672 3.46665 2.0156 0.25
590 7.95705 7.66824 4.40171 0.25
591 3.86981 2.50593 5.18264 0.25
592 6.80945 4.87942 2.37997 0.25
593 5.337 9.42675 5.09325 0.25
594 8.59298 5.776 10.0241 0.25
595 1.53226 1.90692 7.64722 0.25
596 9.56149 8.61437 1.40098 0.25
597 4.25857 1.39159 3.45532 0.25
598 6.71536 7.62554 0.396758 0.25
599 10.0224 1.07895 1.55561 0.25
600 3.14107 9.82584 1.75573 0.25
601 7.24589 9.61764 2.22009 0.25
602 5.92346 8.77796 3.12126 0.25
603 2.24813 6.43504 7.24926 0.25
604 9.00251 0.787699 0.73018 0.25
605 1.92884 7.61385 2.96322 0.25
606 2.01257 2.07986 6.8216 0.25
607 2.45598 2.21618 7.55084 0.25
608 5.60764 6.6745 5.75035 0.5
609 3.85399 6.86242 1.58923 0.25
610 6.46984 4.93739 0.751107 0.5
611 8.40535 8.60284 7.38246 0.25
612 8.04175 0.685694 3.71477 0.5
613 7.78711 3.01951 0.0274457 0.25
614 9.59748 6.44791 1.06509 0.25
615 6.52613 4.22251 7.40921 0.25
616 1.59876 1.8215 6.80691 0.25
617 2.93559 3.21869 8.02505 0.25
618 8.23543 3.49036 9.86718 0.25
619 0.729481 9.01255 2.74358 0.25
620 6.96555 6.05472 2.45433 0.25
621 6.84915 5.0338 1.47244 0.25
622 7.09953 6.12081 8.5385 0.25
623 7.88211 4.68937 4.69653 0.5
624 4.92589 8.74788 8.22366 0.25
625 5.11581 2.03718 10.2445 0.25
626 2.50975 2.83242 4.22477 0.25
627 7.25414 5.59737 2.47987 0.25
628 1.54846 10.2859 0.676649 0.25
629 7.21669 10.2366 9.84096 0.25
630 5.81152 7.94741 0.302283 0.25
631 8.29465 1.79555 5.17443 0.25
632 3.51055 3.70533 0.182115 0.25
633 3.53922 3.59774 10.1083 0.25
634 4.3748 7.73544 8.49781 0.5
635 9.30407 6.43489 7.15575 0.25
636 8.81672 5.32991 9.82637 0.25
637 6.72064 9.77388 5.06621 0.25
638 2.53732 10.0091 4.01132 0.5
639 6.87245 2.90838 2.20512 0.25
640 7.60393 1.69215 8.06499 0.25
641 4.28675 5.49197 4.12896 0.25
642 3.7965 7.93612 6.43151 0.25
643 2.86234 1.23617 0.0378048 0.25
644 6.0592 10.1689 5.25745 0.5
645 3.42582 4.12599 0.367932 0.25
646 8.51483 7.60214 3.58056 0.25
647 6.2768 6.43311 5.77132 0.25
648 7.64159 1.27662 7.70556 0.25
649 4.48056 6.07341 8.85078 0.25
650 7.59428 1.26717 3.69461 0.25
651 5.12247 8.34835 8.00218 0.25
652 1.47515 5.68738 8.3149 0.25
653 1.03503 4.89599 5.64819 0.25
654 1.75379 6.41344 7.11956 0.25
655 10.3012 3.46511 1.62325 0.25
656 4.85534 4.59468 7.68597 0.25
657 8.60573 9.61009 6.63819 0.25
658 7.3814 4.49813 7.56568 0.25
659 8.25141 0.178671 4.30021 0.25
660 1.79835 6.12064 7.8209 0.5
661 2.39307 7.43747 3.07799 0.25
662 7.68698 9.10288 5.75968 0.25
663 2.78775 0.350722 9.19016 0.25
664 1.22057 2.25159 10.3539 0.25
665 8.41132 6.6005 0.782443 0.25
666 5.75481 9.88989 7.81486 0.25
667 8.14586 3.88468 10.1146 0.25
668 7.82091 2.85271 6.0965 0.25
669 3.28689 7.69266 9.39979 0.5
670 0.494665 3.34099 9.70053 0.25
671 0.935617 6.33103 4.78684 0.5
672 6.13642 7.26692 5.75058 0.25
673 3.75231 9.51773 0.99416 0.25
674 6.77183 4.85205 5.10553 0.25
675 8.10234 8.8039 7.64671 0.25
676 5.7715 1.77374 0.190776 0.5
677 9.49523 3.70994 7.74431 0.25
678 0.303954 0.171311 5.95124 0.5
679 2.08732 2.36102 7.23428 0.25
680 2.77888 6.81936 2.39611 0.25
681 8.47989 9.29795 7.00064 0.25
682 3.04725 7.38292 5.09199 0.25
683 0.918935 2.64949 9.61617 0.25
684 1.41356 8.83479 7.90525 0.25
685 8.65344 0.250367 3.58219 0.25
686 5.83892 10.1514 5.96447 0.25
687 9.39453 3.27969 7.56025 0.25
688 5.41185 7.76855 0.488341 0.25
689 2.31169 2.42437 4.07962 0.25
690 9.9264 8.01252 9.13823 0.25
691 0.732865 8.56907 5.09618 0.25
692 1.17913 4.41951 5.81567 0.25
693 9.56161 2.08852 4.09141 0.25
694 3.47984 3.72582 0.670371 0.25
695 7.49057 1.61631 5.49927 0.25
696 5.41403 1.56849 3.41837 0.25
697 1.31134 8.83201 7.38518 0.25
698 8.64868 5.74098 0.609035 0.25
699 2.99033 7.86722 5.31907 0.25
700 5.39823 7.91217 0.00891907 0.25
701 3.62434 5.11005 5.70435 0.25
702 5.89015 3.96297 4.47036 0.25
703 1.3242 0.213254 1.91076 0.25
704 7.54394 3.65348 7.1987 0.25
705 3.82044 5.74025 9.21271 0.25
706 7.83868 0.817603 7.71097 0.25
707 6.61236 6.42285 5.38642 0.25
708 5.60317 6.77581 3.93273 0.25
709 1.57216 4.6016 1.9368 0.5
710 1.43981 4.67139 5.43462 0.25
711 6.34163 4.02914 7.78772 0.25
712 4.45426 8.25601 3.26927 0.25
713 1.53715 4.8228 3.35923 0.25
714 2.05211 10.2586 4.35146 0.25
715 2.69837 3.98358 7.96496 0.25
716 8.83617 8.28619 1.06779 0.25
717 4.11284 5.18576 5.57473 0.25
718 5.7986 3.14642 5.04526 0.5
719 5.77152 2.61615 5.62168 0.25
720 5.80233 1.2737 3.48941 0.25
721 3.91802 7.47335 6.23997 0.25
722 3.70545 5.96893 4.4585 0.25
723 5.81964 7.29664 6.6925 0.25
724 9.7686 0.560471 9.08783 0.25
725 4.32351 0.245976 6.44879 0.25
726 4.13 5.76879 4.5342 0.25
727 3.32473 5.59782 4.42542 0.25
728 1.86846 7.68015 9.7283 0.5
729 8.22784 2.09935 6.37705 0.25
730 8.37737 1.06163 8.92176 0.25
731 1.97817 5.55532 10.2111 0.25
732 3.2858 7.88424 6.62931 0.25
733 9.84756 2.48123 4.00404 0.25
734 8.72633 7.72475 4.03431 0.25
735 3.56085 2.1557 5.36978 0.25
736 8.49553 6.60356 6.13065 0.25
737 0.687144 4.55684 5.81718 0.25
738 4.97124 8.25402 8.46068 0.25
739 3.30629 3.32801 0.460335 0.25
740 8.83465 6.75117 1.54654 0.25
741 6.97233 3.12421 3.00598 0.25
742 5.26493 2.26353 0.374915 0.25
743 9.95752 2.94958 4.07286 0.25
744 2.404 2.1877 4.74253 0.5
745 0.362788 4.19337 6.00519 0.25
746 6.67478 5.43606 1.23574 0.25
747 8.19807 2.30022 0.396723 0.25
748 7.03172 10.1042 9.35891 0.25
749 6.78576 4.04812 7.05664 0.25
750 4.11516 2.03432 6.52539 0.25
751 2.01307 2.70732 4.36599 0.25
752 9.56652 2.4569 4.40503 0.25
753 0.533675 2.35757 10.205 0.5
754 8.28893 1.7703 6.0107 0.25
755 8.25182 3.09402 10.2361 0.25
756 5.46297 1.95987 1.27067 0.25
757 0.215873 2.59006 3.91064 0.5
758 1.8102 10.1943 3.91803 0.25
759 4.82936 2.36577 8.21465 0.25
760 5.3539 0.998496 2.72515 0.25
761 5.7729 7.2587 6.1435 0.25
762 0.501286 3.55196 6.49994 0.25
763 6.5903 4.22584 4.70307 0.5
764 5.77389 6.4818 3.24189 0.25
765 6.81459 6.72795 9.05137 0.25
766 1.5893 5.18294 3.04909 0.25
767 7.27929 2.76581 1.94436 0.25
768 5.24749 2.34403 6.05348 0.5
769 0.559136 2.93591 0.280029 0.25
770 6.33554 6.90883 6.33604 0.5
771 5.51707 7.2915 0.513083 0.25
772 6.97307 9.25062 5.61654 0.5
773 5.90743 4.16082 10.1774 0.25
774 6.72544 8.74018 2.79987 0.25
775 10.1778 7.58827 9.19624 0.25
776 4.46391 9.63644 0.540452 0.25
777 0.786948 7.81773 1.98511 0.25
778 4.15249 0.270887 8.96939 0.25
779 10.0455 7.87218 9.55351 0.25
780 4.90399 4.85008 9.67962 0.25
781 5.37879 7.05589 3.59979 0.25
782 9.31195 6.07674 1.19753 0.25
783 4.69839 7.98818 3.6143 0.25
784 3.05515 3.75016 0.370356 0.25
785 8.57496 8.75137 7.81954 0.25
786 6.14016 6.52586 5.25189 0.25
787 6.08483 7.02772 5.23805 0.25
788 5.59778 1.32569 3.04442 0.25
789 7.22392 5.14282 2.33543 0.25
790 4.87587 2.44239 6.75682 0.25
791 8.34066 6.11875 6.10396 0.25
792 4.38977 3.54257 3.1408 0.5
793 0.219154 0.338949 9.13871 0.25
794 3.19101 1.92873 1.9317 0.25
795 1.26172 9.17682 7.09143 0.25
796 1.84671 0.257125 4.92586 0.5
797 9.42927 9.61303 3.4701 0.25
798 9.63921 4.79871 3.81315 0.25
799 3.25761 6.47546 1.83676 0.5
800 9.43881 1.64738 1.53392 0.25
801 5.86954 10.2234 9.91852 0.25
802 6.11447 7.23945 10.3395 0.25
803 9.51912 4.90926 9.51667 0.25
804 4.40846 4.53095 7.46944 0.25
805 9.41556 4.42693 4.54946 0.25
806 2.52462 9.56667 7.26966 0.25
807 3.99458 4.74792 5.79905 0.25
808 9.32776 5.35129 9.73256 0.25
809 1.59598 5.06008 9.5999 0.25
810 7.88953 2.12377 6.72817 0.25
811 9.10834 4.5832 9.47255 0.25
812 3.97541 6.37057 1.58468 0.25
813 1.57258 3.91996 2.35639 0.25
814 1.21681 9.92627 0.616362 0.25
815 3.66348 5.5094 5.0607 0.5
816 6.28269 0.168504 9.93141 0.25
817 4.51189 9.57593 1.23261 0.5
818 8.90528 6.13916 10.1258 0.25
819 4.18784 5.93755 1.47446 0.25
820 7.63367 4.0742 7.54102 0.25
821 8.09876 8.94648 7.14481 0.25
822 5.17257 3.96462 2.48758 0.25
823 1.87787 9.29998 7.49913 0.5
824 7.27061 4.13036 8.37321 0.25
825 8.17452 9.01641 6.38337 0.5
826 7.15761 3.27429 2.02631 0.25
827 8.99775 6.68983 6.28397 0.25
828 9.79695 3.26232 1.63951 0.25
829 0.57204 7.27307 5.44291 0.25
830 4.0493 6.22733 1.0891 0.25
831 2.55944 6.77244 1.96805 0.25
832 3.872 5.4612 8.71516 0.25
833 5.75542 6.47143 6.43293 0.25
834 8.99056 4.57143 4.83311 0.25
835 1.47659 1.12001 7.27501 0.25
836 7.11314 4.91461 1.9282 0.25
837 3.81464 7.32716 8.88192 0.25
838 2.37256 9.93159 7.613 0.25
839 0.0355774 1.88067 3.7878 0.25
840 9.19215 4.81601 3.68079 0.25
841 5.5053 4.82422 10.1086 0.5
842 7.0996 6.29156 8.99352 0.25
843 0.51164 9.17952 2.31127 0.25
844 6.44843 4.66312 1.464 0.25
845 8.98156 4.3697 4.42979 0.25
846 1.05411 5.63179 4.39921 0.25
847 8.60226 2.46865 0.122425 0.25
848 2.73905 0.806103 9.77904 0.5
849 6.86777 5.30128 2.63129 0.25
850 4.36561 8.6706 3.93242 0.25
851 3.69657 6.51239 1.24282 0.25
852 5.49878 1.38022 3.91947 0.25
853 8.66185 10.2169 4.2923 0.25
854 2.32079 3.71792 7.81778 0.25
855 3.84313 6.01771 1.86063 0.25
856 9.76039 3.36613 7.9671 0.25
857 6.44142 3.49758 4.94196 0.25
858 9.07864 7.01054 4.10714 0.25
859 9.2149 1.15811 1.47567 0.25
860 2.45478 0.0629889 5.24485 0.25
861 3.42006 9.72354 1.32897 0.25
862 7.73923 1.01429 8.40793 0.5
863 0.72202 2.98529 9.39178 0.25
864 3.72717 3.87123 3.222 0.25
865 0.974487 7.32697 4.69161 0.25
866 2.99494 1.48869 9.542 0.25
867 3.29256 8.26589 9.913 0.25
868 9.42621 0.997788 1.00738 0.25
869 0.148498 8.03025 5.5373 0.25
870 7.06758 6.61199 8.62705 0.25
871 6.92433 3.29747 2.49975 0.25
872 8.3144 1.39934 7.7632 0.5
873 5.32981 10.2597 5.29419 0.25
874 6.73774 9.91006 5.54861 0.25
875 3.83978 7.76318 5.41262 0.25
876 3.70478 6.01564 1.34785 0.25
877 0.443247 2.18954 4.54638 0.25
878 0.153014 10.3532 9.53526 0.25
879 0.92801 8.05018 5.12204 0.25
880 5.9369 4.2552 4.96383 0.25
881 3.92982 6.54924 8.99941 0.5
882 9.80401 0.826218 6.04626 0.25
883 5.55135 3.01256 5.79637 0.25
884 2.26446 1.67557 1.34731 0.5
885 8.94429 9.68723 3.46888 0.25
886 9.10536 8.48134 1.40087 0.25
887 1.0723 6.3553 7.70607 0.25
888 0.946839 0.0769106 2.13147 0.25
889 4.84083 5.09195 7.8174 0.25
890 0.60505 3.77645 6.07047 0.25
891 3.9755 4.11422 2.82185 0.25
892 6.4163 8.9425 3.15451 0.25
893 7.87783 3.14305 9.91712 0.25
894 1.599 7.94476 0.043151 0.25
895 10.081 3.73039 7.82078 0.25
896 9.54817 0.814631 1.43894 0.25
897 3.6349 7.55321 6.71185 0.25
898 1.08699 5.17322 4.95402 0.5
899 0.494847 0.612916 6.62515 0.25
900 8.17929 7.74155 3.95435 0.25
901 0.325039 8.43305 4.79103 0.25
902 5.29402 1.46403 0.632285 0.25
903 8.5542 6.807 3.33375 0.25
904 1.34237 5.99015 10.2148 0.5
905 8.95721 1.13514 1.0722 0.25
906 9.70904 9.67415 3.89935 0.25
907 4.71818 3.84193 2.51942 0.25