ITEM: TIMESTEP
310000
ITEM: NUMBER OF ATOMS
1000
ITEM: BOX BOUNDS xy xz yz pp pp pp
0.0000000000000000e+00 1.0357442000000001e+01 0.0000000000000000e+00
0.0000000000000000e+00 1.0357442000000001e+01 0.0000000000000000e+00
0.0000000000000000e+00 1.0357442000000001e+01 0.0000000000000000e+00
ITEM: ATOMS id x y z radius
1 1.11935 4.5833 2.80059 0.5
2 2.03202 7.28411 2.22929 0.5
3 5.68202 2.08285 1.11565 0.25
4 0.847157 1.81386 3.85875 0.25
5 9.28986 3.75377 7.31772 0.25
6 0.122746 2.99612 9.88646 0.25
7 4.40586 1.43828 3.30527 0.25
8 8.93378 4.31458 2.34739 0.25
9 9.80378 1.25405 1.88242 0.25
10 9.05531 7.17642 4.21043 0.25
11 9.99007 8.1136 1.4697 0.25
12 7.51009 2.87546 10.0008 0.25
13 3.44083 8.10621 5.96438 0.25
14 5.01245 2.16265 0.0776794 0.25
15 8.50677 5.86846 6.66008 0.25
16 8.42154 8.52572 6.72901 0.25
17 5.15795 9.04379 8.54264 0.5
18 2.81635 7.926 9.29061 0.25
19 7.05799 4.34498 5.0812 0.25
20 9.26454 0.814762 1.35409 0.25
21 0.394442 0.255046 9.77564 0.25
22 4.08201 1.1775 3.56998 0.25
23 4.02504 3.69541 2.19377 0.25
24 2.85677 2.42045 4.31145 0.25
25 7.942 2.27861 6.12143 0.25
26 5.47972 2.65044 8.34069 0.25
27 1.2438 7.87538 9.69042 0.25
28 8.9386 5.90091 6.41968 0.25
29 3.06169 7.99175 5.6566 0.25
30 1.14465 8.44475 7.54967 0.25
31 0.413161 7.31544 4.95738 0.25
32 9.11727 6.67627 1.08452 0.25
33 9.76714 8.09144 1.00989 0.25
34 0.491524 2.27801 10.1231 0.25
35 7.55828 2.94009 9.53315 0.25
36 7.94912 8.5182 9.60197 0.25
37 2.82075 4.28982 6.07744 0.25
38 6.84323 0.409576 1.49244 0.25
39 5.61491 4.26229 4.99188 0.25
40 8.40201 4.77062 4.59105 0.25
41 8.93166 6.47999 3.7165 0.25
42 6.99873 8.57496 2.02038 0.5
43 0.403043 8.4576 5.47668 0.25
44 3.08627 9.54926 4.49526 0.25
45 6.76452 6.52816 8.78738 0.25
46 0.935945 8.82601 7.72819 0.25
47 4.64563 8.71019 3.43647 0.25
48 3.36561 9.95151 4.35056 0.25
49 4.20256 5.91287 9.28885 0.25
50 10.2248 9.59996 3.46344 0.25
51 9.51462 9.22753 1.28446 0.25
52 6.07717 7.46398 0.00920398 0.25
53 6.78261 4.57984 2.18773 0.25
54 4.33917 4.54804 8.01951 0.25
55 5.86831 7.1075 6.84758 0.25
56 5.47105 1.63954 1.35074 0.25
57 5.02981 2.44711 0.455317 0.25
58 5.84339 4.93094 0.534362 0.25
59 4.12586 7.24542 9.25647 0.25
60 7.04413 6.20766 8.97523 0.25
61 3.2949 0.14865 8.71679 0.25
62 8.97697 5.82285 6.9018 0.25
63 0.667541 5.25573 4.35671 0.25
64 10.087 1.67657 1.85686 0.25
65 6.61427 6.74204 6.57357 0.25
66 4.14935 1.01128 3.13887 0.25
67 9.36694 5.35286 9.20032 0.25
68 6.19934 0.0569139 0.138593 0.25
69 2.56061 7.16137 2.75394 0.25
70 3.79426 5.67594 3.7257 0.25
71 1.2162 8.02926 2.2392 0.25
72 5.31206 6.67191 3.23598 0.25
73 8.85666 9.08896 7.50461 0.5
74 2.25162 7.577 2.88714 0.25
75 1.08175 5.96319 0.595987 0.25
76 2.21373 8.19187 0.0948719 0.25
77 7.22803 6.53265 8.61157 0.25
78 4.0373 9.94411 1.62602 0.25
79 0.849692 5.19267 9.45455 0.25
80 8.37708 8.70296 9.46809 0.25
81 8.15132 9.38341 7.28474 0.25
82 2.09835 0.63367 1.88469 0.25
83 1.76146 7.75018 1.70137 0.25
84 5.28626 9.4822 5.69712 0.25
85 4.18098 6.53962 1.35627 0.25
86 9.70744 4.24803 1.45158 0.5
87 1.05722 5.55179 8.12127 0.25
88 2.64646 3.8225 8.18631 0.25
89 0.671036 0.0323155 10.133 0.25
90 6.69841 10.0485 1.72044 0.5
91 4.36039 8.36549 3.46557 0.25
92 9.36763 1.65986 1.35049 0.25
93 8.62882 1.23467 8.47049 0.25
94 0.821689 4.00437 1.86685 0.25
95 8.00183 8.66135 5.67033 0.25
96 7.92205 1.17102 7.40327 0.25
97 5.62762 9.79338 5.58884 0.25
98 10.1069 0.219627 6.14739 0.25
99 5.18578 1.94029 8.33963 0.5
100 5.19678 2.80101 5.17952 0.25
101 5.3668 2.1101 9.77056 0.5
102 4.22285 5.37353 8.32943 0.5
103 7.13334 0.116022 1.19939 0.25
104 1.37141 9.9193 10.2248 0.25
105 2.06282 4.82522 3.32267 0.25
106 5.86926 6.48035 6.33263 0.25
107 5.82636 10.016 8.93967 0.25
108 1.68665 3.77326 2.27945 0.25
109 7.27286 2.10884 3.071 0.25
110 5.76445 10.0913 5.9749 0.25
111 1.58509 4.66474 0.253826 0.25
112 3.22743 4.72976 5.26579 0.25
113 2.16772 9.70177 5.00096 0.25
114 8.43783 5.98549 0.0761601 0.25
115 5.04053 3.51483 2.78108 0.25
116 0.147943 2.62989 4.41969 0.25
117 7.50055 2.76892 2.6498 0.5
118 7.5004 8.18678 2.32368 0.25
119 10.1755 1.80156 3.73326 0.25
120 1.72207 5.52916 0.22628 0.25
121 8.10731 2.01254 5.44494 0.5
122 1.8206 4.62417 2.55873 0.25
123 9.13059 9.13635 1.52382 0.25
124 8.2665 6.15795 0.522895 0.25
125 1.55403 10.1783 4.04126 0.25
126 6.18347 7.3478 0.505901 0.25
127 5.98239 7.80474 0.337194 0.25
128 9.18466 9.3366 4.06943 0.25
129 1.81049 5.21351 3.37648 0.25
130 9.16987 9.29415 0.991267 0.25
131 7.30016 2.55781 3.29808 0.25
132 8.10106 4.00688 4.39512 0.25
133 7.91899 8.96369 9.43942 0.25
134 3.90396 3.22351 2.29781 0.25
135 5.9081 9.66635 8.16596 0.5
136 8.26731 9.00182 7.0228 0.25
137 1.65551 9.39098 2.23179 0.25
138 7.05522 4.79078 4.85449 0.25
139 6.76292 3.84762 7.55106 0.5
140 4.02327 8.51162 3.79885 0.25
141 2.23919 2.09384 2.19955 0.25
142 3.04621 2.95828 4.94772 0.25
143 8.18299 1.4274 3.82916 0.25
144 9.8087 6.79898 2.40403 0.25
145 3.05002 7.88496 6.17463 0.25
146 6.78415 9.37069 3.16571 0.25
147 4.20794 5.74449 4.00862 0.25
148 2.84298 1.61778 0.0622466 0.25
149 0.0496886 7.43855 8.62611 0.25
150 4.14382 4.92716 7.6946 0.25
151 6.95905 9.95435 10.0407 0.25
152 4.08041 9.92188 1.13726 0.25
153 5.44355 1.63612 7.6134 0.25
154 5.11601 9.72669 8.28239 0.25
155 3.1926 5.76988 1.32106 0.25
156 0.790061 8.7037 7.29607 0.25
157 5.27504 0.559647 4.00514 0.25
158 8.85458 8.66026 6.49155 0.25
159 3.50451 2.36766 5.4937 0.25
160 2.47986 3.38381 8.05855 0.25
161 3.18908 0.464108 8.40562 0.25
162 4.08618 2.16561 5.95849 0.5
163 6.42802 9.85187 2.3858 0.25
164 5.4361 8.51908 8.11061 0.25
165 0.46064 2.66574 9.79773 0.25
166 6.73347 4.48052 8.57419 0.25
167 9.14378 10.1275 3.84991 0.25
168 10.0798 7.93264 9.22459 0.25
169 9.4615 6.86261 7.18122 0.25
170 2.89076 0.00520214 8.96078 0.25
171 0.949864 9.01023 6.90738 0.25
172 9.42851 6.02965 7.07974 0.25
173 1.07248 2.15238 3.61427 0.25
174 4.76087 1.95728 6.31737 0.25
175 9.379 3.76275 7.79737 0.25
176 0.858082 5.70208 0.27255 0.25
177 9.41557 6.43277 7.32607 0.25
178 7.60291 2.4649 5.73305 0.25
179 2.88845 9.69794 7.65898 0.25
180 7.32488 9.26516 2.69495 0.5
181 0.596024 4.06564 5.71596 0.25
182 7.84578 1.16621 4.0269 0.25
183 2.34496 0.13839 4.97704 0.25
184 9.4871 5.07664 9.96116 0.25
185 8.92946 8.54358 6.97993 0.25
186 2.64566 8.02168 9.70344 0.25
187 3.82271 3.61036 0.338739 0.25
188 5.26657 2.52671 7.88356 0.25
189 9.74223 0.239276 5.84102 0.25
190 1.98909 7.46206 3.35169 0.25
191 5.20951 2.552 8.7321 0.25
192 8.93634 9.14957 6.41247 0.25
193 4.99737 2.23278 9.09049 0.25
194 3.66007 9.76324 1.36074 0.25
195 5.46092 5.09463 9.51643 0.25
196 5.26777 2.57586 10.354 0.25
197 8.80056 6.52523 6.8562 0.5
198 7.68217 1.91768 7.24227 0.5
199 6.8924 0.0745614 10.0311 0.25
200 6.87582 1.37176 6.629 0.25
201 6.11353 6.71633 6.68704 0.25
202 3.54481 7.60581 5.09507 0.25
203 4.467 9.31369 0.185575 0.25
204 -0.0231624 4.24074 6.51201 0.25
205 3.9118 10.2662 6.60966 0.25
206 0.59899 2.78122 4.24282 0.25
207 1.25126 5.34924 3.91374 0.5
208 2.68251 4.72646 5.90276 0.25
209 6.70933 9.66402 2.7458 0.25
210 3.75051 0.347524 6.59612 0.25
211 1.6305 5.09955 2.39913 0.25
212 0.10575 4.06762 2.10467 0.5
213 9.04341 3.96212 1.69063 0.25
214 3.45856 4.64216 5.6983 0.25
215 10.2094 0.538986 8.91476 0.25
216 5.2682 1.50435 0.534343 0.25
217 0.602259 8.16429 5.1968 0.25
218 2.38949 1.38528 1.9688 0.5
219 0.734126 4.12043 6.18883 0.25
220 6.64611 9.28791 1.86275 0.25
221 8.72611 7.55928 4.18761 0.25
222 9.31946 6.039 6.57759 0.25
223 5.58618 9.37862 5.26661 0.25
224 9.59439 3.12401 6.68114 0.25
225 7.50401 1.6054 5.61913 0.25
226 6.37824 8.92174 5.31399 0.25
227 7.22854 0.617345 1.28401 0.25
228 5.20769 2.31737 0.926736 0.25
229 1.80446 2.14702 1.32765 0.25
230 8.70815 6.87999 3.47513 0.25
231 7.50304 4.56548 8.00649 0.25
232 6.80945 9.54985 2.26944 0.25
233 8.31177 1.9053 8.66599 0.5
234 3.89875 8.99377 1.39855 0.25
235 0.839879 9.16642 7.39596 0.25
236 1.28706 5.55433 0.380775 0.25
237 8.28127 1.01324 4.06258 0.25
238 1.0667 6.03039 4.27465 0.25
239 0.556243 3.18248 9.72619 0.25
240 1.47225 8.71162 2.09754 0.5
241 1.35543 9.37844 2.60061 0.25
242 3.14367 7.74823 6.62717 0.25
243 1.24018 6.42084 0.540578 0.25
244 0.790272 1.34743 7.2843 0.25
245 6.41647 7.09547 6.8783 0.25
246 1.5246 8.13038 10.0146 0.25
247 2.79091 7.27035 2.28697 0.25
248 5.82546 1.92233 8.79812 0.25
249 7.13226 4.39443 4.57842 0.25
250 7.35371 1.46827 6.79621 0.25
251 1.46973 1.12417 6.67968 0.25
252 7.50568 7.34396 8.10864 0.25
253 3.81084 7.77756 8.59295 0.25
254 1.45453 9.48643 1.81238 0.25
255 2.0154 0.156553 1.83877 0.25
256 3.25833 5.86832 4.3708 0.25
257 0.999644 10.078 9.9041 0.25
258 4.56113 4.69666 7.06951 0.25
259 2.13392 9.62689 4.52161 0.25
260 1.21656 9.78952 0.367062 0.25
261 7.49876 6.34867 8.95554 0.25
262 5.61494 6.68382 2.81343 0.25
263 8.37714 8.48308 9.88891 0.25
264 7.63481 9.54952 9.83457 0.5
265 4.27417 3.91883 2.95857 0.25
266 4.64057 4.27663 3.01605 0.25
267 3.53157 7.95666 5.4761 0.25
268 3.49161 7.73422 6.27739 0.25
269 7.86594 9.12396 5.51494 0.25
270 3.78956 7.78731 5.87115 0.25
271 3.70597 9.63172 1.8265 0.25
272 6.5636 7.20217 5.37984 0.25
273 10.3367 3.51599 7.60736 0.25
274 3.15554 4.68986 6.08426 0.25
275 10.3015 6.70307 2.50831 0.25
276 8.47584 0.782009 8.22517 0.25
277 2.77402 10.1957 8.21866 0.5
278 4.54778 6.13993 8.49225 0.25
279 3.65096 0.532991 8.62163 0.25
280 2.96436 0.923483 8.64423 0.25
281 4.63525 7.92857 3.44681 0.25
282 4.94154 0.86182 2.83253 0.25
283 9.64509 0.101616 9.24844 0.25
284 1.5401 5.13732 0.419432 0.25
285 8.72469 6.90491 0.877948 0.25
286 10.2661 1.29188 2.11072 0.25
287 1.86789 7.88732 2.64123 0.25
288 1.3672 5.76652 4.60802 0.25
289 8.9643 1.02843 1.69805 0.25
290 9.45005 4.23291 2.52886 0.25
291 7.98707 2.70309 9.81975 0.25
292 3.98068 9.49377 1.43774 0.25
293 4.94626 2.63053 7.14941 0.5
294 9.95258 6.39975 2.71876 0.25
295 7.21807 1.0278 7.28886 0.5
296 2.90084 2.85278 4.48618 0.25
297 0.944928 8.01944 4.82117 0.25
298 4.13258 9.97071 0.667411 0.25
299 9.02672 4.93964 9.78341 0.25
300 2.01837 0.0545401 4.0493 0.25
301 4.76083 8.13908 7.68519 0.25
302 4.92695 4.78526 7.4162 0.25
303 8.95049 5.3941 0.0586401 0.5
304 4.78314 3.24225 2.4824 0.25
305 1.63834 7.98182 2.19066 0.25
306 0.093008 7.5883 9.12429 0.25
307 0.949327 10.0918 0.0539867 0.25
308 8.55751 5.91362 7.16183 0.25
309 8.9113 1.53371 8.84234 0.25
310 6.69547 6.58382 6.05546 0.25
311 1.50635 0.466785 2.45071 0.25
312 9.16655 0.858676 8.59558 0.5
313 1.45911 8.13558 2.66819 0.25
314 0.701512 4.48862 2.08739 0.25
315 3.29801 0.603605 9.31091 0.5
316 6.23381 4.94995 7.32424 0.25
317 6.1978 9.6698 8.87273 0.25
318 10.0732 7.50499 9.45171 0.25
319 0.0245073 9.37218 3.90069 0.25
320 0.922428 2.27352 10.3475 0.25
321 1.92232 1.9764 1.8151 0.25
322 0.757629 7.06047 4.75061 0.25
323 6.47811 10.2438 9.42994 0.5
324 7.74435 2.26936 3.20544 0.25
325 9.33425 4.08224 2.06849 0.25
326 3.33335 9.61444 4.03416 0.25
327 1.59915 8.61902 7.27751 0.25
328 4.52184 3.42164 2.83492 0.25
329 8.41438 6.78543 4.17886 0.5
330 10.1593 6.90631 2.06875 0.25
331 8.96292 10.2531 4.26022 0.25
332 6.69998 7.46745 0.584153 0.25
333 9.70747 7.86272 8.84598 0.25
334 6.26068 4.77751 1.68577 0.25
335 6.08531 5.36207 0.43145 0.25
336 9.21126 3.64808 1.31307 0.25
337 4.80076 5.73492 8.70878 0.25
338 7.64247 8.66538 2.24269 0.25
339 4.04066 6.10181 8.466 0.25
340 0.898626 2.4177 9.85168 0.25
341 3.74029 5.77357 4.21396 0.25
342 9.97525 3.17136 7.60135 0.25
343 10.0454 2.59975 4.1684 0.25
344 4.50312 0.658469 2.87985 0.25
345 6.31532 4.14387 0.157695 0.25
346 1.17021 1.37084 7.57597 0.25
347 3.44429 4.27846 0.0915877 0.25
348 5.85599 7.56845 0.790876 0.25
349 4.95813 1.65252 7.67386 0.25
350 2.7041 3.25014 7.61623 0.25
351 5.34017 7.09391 3.53039 0.25
352 8.34965 6.88995 1.15858 0.25
353 9.77833 3.06941 7.09193 0.25
354 9.73404 3.85733 2.18093 0.25
355 2.90198 1.59135 1.43055 0.25
356 4.58932 9.29844 1.15376 0.25
357 3.54204 5.05108 5.99711 0.25
358 4.51998 9.77531 0.938359 0.25
359 8.98301 6.34268 0.437967 0.5
360 4.22918 0.279642 6.6332 0.25
361 0.14637 0.375429 5.92927 0.25
362 9.65065 7.672 9.3005 0.25
363 6.93387 2.44372 2.95551 0.25
364 10.0427 6.42888 2.17773 0.25
365 6.01621 9.18876 5.15376 0.25
366 9.03441 4.41656 1.82303 0.25
367 3.76646 10.3421 9.41005 0.25
368 9.86682 6.20347 7.23675 0.25
369 8.83245 4.08668 4.10018 0.5
370 4.97226 1.64325 6.97439 0.5
371 9.49465 6.65431 1.74135 0.5
372 1.26955 2.41831 4.28974 0.5
373 3.33559 10.2524 9.15118 0.25
374 2.82209 0.440307 8.75863 0.25
375 5.29841 0.766125 3.10606 0.25
376 0.605429 5.77938 4.23723 0.25
377 10.026 7.47574 8.9748 0.25
378 9.54002 8.85412 1.64034 0.25
379 0.333486 3.88137 6.48813 0.25
380 1.91668 2.10944 4.54511 0.25
381 6.57594 5.26541 2.30744 0.5
382 2.43013 8.35725 10.0137 0.25
383 5.65578 8.66093 7.63143 0.25
384 1.55528 6.57175 7.34664 0.25
385 1.14833 6.90173 5.009 0.25
386 1.58765 5.61497 7.403 0.25
387 1.43291 6.07395 7.28306 0.25
388 2.11986 1.85683 0.96663 0.25
389 5.27648 1.32157 1.03173 0.25
390 3.59655 4.01577 0.500298 0.25
391 3.49335 10.3228 6.36167 0.25
392 0.428495 5.56225 4.71213 0.25
393 8.48213 8.59683 7.20528 0.25
394 10.2384 0.69676 6.26618 0.25
395 1.82189 4.47402 3.06552 0.25
396 3.0728 1.22421 9.0044 0.25
397 7.62353 1.9862 2.73609 0.25
398 9.55399 4.54039 9.24946 0.25
399 2.50694 9.51414 7.92279 0.25
400 7.6003 3.24414 10.3104 0.25
401 5.74136 6.9352 3.2175 0.25
402 4.33331 5.81725 8.83351 0.25
403 6.35027 4.9802 0.280467 0.25
404 7.67083 2.72396 0.654486 0.25
405 1.56342 5.99147 0.501368 0.25
406 6.42148 9.43519 5.25084 0.25
407 7.50263 6.89686 8.83407 0.25
408 9.60511 8.42352 1.31674 0.25
409 9.55901 6.37604 2.42747 0.25
410 5.80944 1.63394 3.68946 0.25
411 8.32806 9.30839 10.0833 0.25
412 4.75251 2.02507 7.60104 0.25
413 7.17594 2.11477 2.58201 0.25
414 6.78812 5.4801 2.98808 0.25
415 4.70628 0.7441 3.54163 0.5
416 10.0741 0.300526 9.31223 0.25
417 3.35301 7.2507 5.7727 0.5
418 0.759356 1.29144 6.55766 0.5
419 9.34237 0.14031 4.05103 0.25
420 5.26294 8.84218 7.80905 0.25
421 9.48411 6.47836 6.36884 0.25
422 2.10384 7.12007 2.93846 0.25
423 1.73833 4.9477 2.92985 0.25
424 0.504899 0.046897 9.30829 0.25
425 2.24109 0.124669 4.49801 0.25
426 2.43698 1.55995 1.22557 0.25
427 6.95976 1.6616 6.99951 0.25
428 7.26889 9.78361 2.13326 0.25
429 5.28182 9.37541 7.91708 0.25
430 9.46086 9.36096 3.64098 0.25
431 7.38199 0.377944 0.864056 0.25
432 2.67851 7.49528 9.46019 0.25
433 3.08165 2.61089 5.32882 0.25
434 5.70441 9.46839 8.87433 0.25
435 0.0713204 3.3423 9.53667 0.25
436 6.5933 4.54122 0.317032 0.25
437 1.49678 5.54548 9.69779 0.25
438 7.21322 1.09573 6.45718 0.25
439 9.74551 9.87262 4.06202 0.5
440 2.18291 2.71556 7.78133 0.5
441 0.856276 4.07183 2.292 0.25
442 6.48186 7.50792 10.1114 0.25
443 9.61289 9.09582 4.06607 0.25
444 1.17104 3.71771 2.08314 0.25
445 5.58466 6.65799 3.67071 0.25
446 8.56055 4.60961 5.03454 0.25
447 6.38945 4.61473 10.2937 0.25
448 5.17487 1.45201 3.31712 0.5
449 10.1596 0.059062 5.67631 0.25
450 3.02528 1.85752 1.87868 0.25
451 3.05632 3.55421 0.199755 0.25
452 5.95999 4.12626 4.22283 0.25
453 7.36257 4.14841 7.10987 0.25
454 1.6948 6.07666 8.49596 0.25
455 1.2904 5.8112 7.76118 0.25
456 2.0006 1.70128 1.42268 0.25
457 10.1212 8.84743 1.12446 0.5
458 1.845 5.84277 7.04331 0.25
459 1.46221 1.49029 6.33027 0.25
460 2.23894 6.13351 7.06975 0.25
461 3.83155 6.19248 2.04929 0.25
462 4.26634 6.27491 1.80814 0.25
463 1.7589 9.70046 4.14745 0.25
464 9.81555 1.48702 1.44689 0.25
465 7.10072 5.13205 2.75511 0.25
466 4.47652 5.39805 7.27966 0.5
467 3.71558 4.72768 5.26019 0.25
468 2.71561 2.11202 2.23506 0.25
469 4.37759 3.32976 2.32708 0.25
470 3.95206 4.04756 2.55779 0.25
471 2.99454 10.0014 4.72427 0.25
472 1.73505 2.2023 7.55215 0.25
473 3.16213 8.16313 9.55016 0.25
474 9.35117 4.5738 2.15073 0.25
475 7.91854 7.16171 3.81867 0.25
476 4.1866 6.04819 1.37267 0.25
477 10.0781 9.18056 4.17375 0.25
478 8.58428 6.16159 1.24701 0.5
479 6.64898 0.0743455 1.13093 0.25
480 2.58997 7.58206 9.97015 0.25
481 4.31359 9.15985 1.5203 0.25
482 6.47753 9.92272 5.33918 0.25
483 6.91935 0.0268 0.402996 0.5
484 9.63687 3.4738 7.47002 0.25
485 7.96767 2.56625 0.26027 0.25
486 4.48702 8.62105 3.8963 0.25
487 3.87111 3.98994 0.0458743 0.25
488 7.15264 9.33368 1.90834 0.25
489 8.24248 7.23776 4.76663 0.25
490 2.02435 3.32903 8.15292 0.25
491 8.70424 8.95482 6.82448 0.25
492 7.83592 3.2162 9.84593 0.25
493 9.91485 3.62892 7.7977 0.25
494 8.2239 4.4706 4.25485 0.25
495 9.69223 3.96427 7.51846 0.25
496 4.38026 1.66861 6.49954 0.25
497 3.04218 3.9363 10.2219 0.25
498 8.09606 1.44366 9.20655 0.25
499 3.58729 9.30696 1.45557 0.25
500 4.45073 7.27111 8.84971 0.25
501 2.63459 9.65739 4.75176 0.25
502 9.03422 6.04801 7.33193 0.25
503 7.071 8.13432 2.61293 0.25
504 6.46499 7.69477 0.235771 0.25
505 7.34289 1.86085 6.25987 0.5
506 5.58082 10.2397 5.50669 0.25
507 7.3909 8.51398 2.6795 0.25
508 5.16415 8.00765 8.00681 0.25
509 1.20839 9.20007 7.69361 0.25
510 5.67034 4.42391 4.50529 0.25
511 3.96779 0.13766 6.1785 0.25
512 1.8163 4.85894 3.75123 0.25
513 1.83888 5.07147 0.0632855 0.25
514 3.51632 1.91388 5.40062 0.25
515 1.86619 1.39666 7.33741 0.5
516 6.14421 9.41544 5.8707 0.5
517 7.9478 7.36089 4.30269 0.25
518 3.41297 1.37054 9.37076 0.25
519 2.62891 10.071 5.06808 0.25
520 5.22869 2.06391 7.5945 0.25
521 0.706052 4.49265 5.3972 0.25
522 2.31162 10.0561 4.70385 0.25
523 2.79267 3.00475 8.11309 0.25
524 7.43113 1.7129 5.18458 0.25
525 2.27248 6.72674 7.66265 0.25
526 1.82066 5.57823 8.36023 0.25
527 6.37779 9.08384 2.63454 0.5
528 6.83364 8.9136 3.23404 0.25
529 3.96061 5.84509 0.948299 0.25
530 1.4106 7.59261 2.05652 0.25
531 0.285042 3.47633 9.96422 0.25
532 1.49259 7.63469 10.0529 0.25
533 9.04005 9.6603 3.67863 0.25
534 8.88795 4.18026 4.93033 0.25
535 7.05385 7.23706 8.24439 0.25
536 4.43517 9.71316 0.404504 0.25
537 7.61233 0.832224 3.74806 0.25
538 7.25643 4.13156 7.99544 0.25
539 10.0097 3.69793 6.93586 0.5
540 5.99788 0.201695 8.85651 0.25
541 9.30491 8.79436 1.20501 0.25
542 7.59166 8.82694 5.8078 0.25
543 9.55273 4.46299 4.2606 0.25
544 1.53669 2.00205 7.16362 0.25
545 0.164535 9.8394 3.79897 0.25
546 0.0529279 1.14637 6.26736 0.25
547 9.38394 3.69235 1.75659 0.25
548 9.22945 4.83122 8.99044 0.25
549 1.63529 0.449013 1.99179 0.25
550 9.8157 8.49108 1.80719 0.25
551 2.47941 7.33887 3.26073 0.25
552 9.19606 8.94868 6.83166 0.25
553 5.65823 2.64414 5.19886 0.25
554 9.2235 4.36717 4.63929 0.25
555 5.61426 9.22502 7.5453 0.25
556 1.2329 9.33335 7.20619 0.25
557 2.08083 9.82571 8.01049 0.25
558 2.218 3.80502 8.0175 0.25
559 9.89904 0.976974 8.73403 0.25
560 3.11392 4.98461 5.72519 0.25
561 0.696681 3.60976 2.18423 0.25
562 5.10625 4.7969 9.74869 0.25
563 5.67558 10.2883 8.54508 0.25
564 1.10821 1.70391 7.17981 0.25
565 2.89745 1.65318 2.37548 0.25
566 9.76289 6.02692 6.78595 0.25
567 0.763298 6.24965 0.388239 0.25
568 7.32434 2.05171 5.50472 0.25
569 6.77979 4.76763 7.90736 0.5
570 4.23704 3.0703 2.69925 0.25
571 4.20858 4.36691 2.78351 0.25
572 8.59569 1.53879 9.26446 0.25
573 1.0236 6.75542 5.46611 0.25
574 0.401849 1.19164 5.92771 0.25
575 5.5378 3.92628 4.37776 0.25
576 5.25018 1.81267 0.932772 0.25
577 0.24782 7.71216 5.29115 0.25
578 1.09962 5.10299 10.1464 0.5
579 5.00554 4.93855 6.9894 0.25
580 8.19561 6.74933 3.52584 0.25
581 7.17279 7.22098 9.0758 0.25
582 7.22363 4.72372 5.31953 0.25
583 8.19548 6.14664 6.97622 0.25
584 5.30186 6.26616 3.51307 0.25
585 6.90126 0.487555 0.939478 0.25
586 1.76125 2.37633 4.86314 0.25
587 6.05291 10.0648 5.59836 0.25
588 3.16018 0.820246 10.106 0.25
589 9.89368 3.6183 1.7915 0.25
590 8.3598 7.58213 4.44675 0.25
591 3.93671 2.07852 5.22863 0.25
592 7.14226 4.78901 2.43646 0.25
593 5.5245 9.6629 6.08745 0.25
594 8.456 5.78358 9.96921 0.25
595 1.29482 1.86476 7.56079 0.25
596 9.46792 8.49372 0.851338 0.25
597 4.93093 0.379249 2.94397 0.25
598 6.55569 7.21005 0.187966 0.25
599 10.1684 1.21969 1.57527 0.25
600 3.89672 9.47827 2.22324 0.25
601 6.88902 10.0064 2.4606 0.25
602 6.68492 7.95275 2.33538 0.25
603 2.49045 6.46905 7.34959 0.25
604 9.15179 0.91049 0.872924 0.25
605 1.43984 7.66227 2.59024 0.25
606 1.86802 1.9408 6.80152 0.25
607 2.16991 1.97078 7.65167 0.25
608 6.18618 6.22327 5.63427 0.5
609 3.99022 6.66896 1.84101 0.25
610 6.47634 4.91814 0.985055 0.5
611 8.10281 8.89153 7.41788 0.25
612 8.65353 0.375361 3.75601 0.5
613 7.70289 2.48596 10.221 0.25
614 9.55894 6.51712 0.904801 0.25
615 6.5354 4.48419 7.18876 0.25
616 1.43969 1.62295 6.77735 0.25
617 2.2258 3.40709 7.68052 0.25
618 7.85702 3.07244 0.373908 0.25
619 1.12461 9.41704 2.12639 0.25
620 6.85336 5.89244 2.68837 0.25
621 6.88673 5.23653 1.57579 0.25
622 6.92064 7.43337 8.68433 0.25
623 7.79375 4.44198 4.90561 0.5
624 4.95002 8.47139 8.05849 0.25
625 5.19241 1.72692 0.0623313 0.25
626 2.46676 2.69982 4.24483 0.25
627 7.16143 5.79422 2.27535 0.25
628 1.65616 9.79023 0.293669 0.25
629 7.37902 10.2438 10.1076 0.25
630 5.84446 7.05828 0.784798 0.25
631 7.86418 1.30578 5.38979 0.25
632 3.44527 3.77077 0.136717 0.25
633 3.10722 4.04339 0.379818 0.25
634 4.51784 7.91271 8.352 0.5
635 9.55975 6.45626 6.86381 0.25
636 8.69892 5.39167 9.70542 0.25
637 6.42813 9.23176 4.85471 0.25
638 2.63165 9.9484 4.07632 0.5
639 6.81343 2.42994 2.49531 0.25
640 7.81981 1.7911 8.02775 0.25
641 3.39415 5.96491 3.87821 0.25
642 3.827 8.03504 6.34186 0.25
643 2.78527 1.07214 0.0141097 0.25
644 5.92131 9.88146 4.87294 0.5
645 3.50754 3.29582 0.136717 0.25
646 8.3374 7.23994 3.54188 0.25
647 6.69125 6.78026 5.59039 0.25
648 7.65404 1.36552 7.842 0.25
649 4.70364 6.01436 9.14805 0.25
650 8.06857 0.959657 3.606 0.25
651 5.25954 8.34765 7.65839 0.25
652 1.41999 5.83007 8.18629 0.25
653 1.04435 4.81909 5.7134 0.25
654 1.77569 6.30602 7.01642 0.25
655 10.1621 3.64638 1.40738 0.25
656 4.47343 4.60168 7.52244 0.25
657 8.97104 9.42303 6.87646 0.25
658 7.36422 4.40963 7.55732 0.25
659 8.6704 10.0111 3.89502 0.25
660 1.97975 6.09553 7.75913 0.5
661 1.78797 7.47569 2.90371 0.25
662 7.6226 9.3821 5.88232 0.25
663 2.68195 0.911299 8.9996 0.25
664 0.489359 2.43995 0.265588 0.25
665 8.34633 6.6539 0.686728 0.25
666 5.38849 9.79554 8.68883 0.25
667 8.15371 2.793 0.678358 0.25
668 8.07517 2.65649 5.7921 0.25
669 3.42896 7.48675 9.17767 0.5
670 0.814295 2.83061 9.55899 0.25
671 0.844003 6.25822 4.91235 0.5
672 5.72923 6.83256 5.51574 0.25
673 4.41225 9.6576 1.39975 0.25
674 6.7602 4.74493 5.23605 0.25
675 7.74712 9.23549 7.50727 0.25
676 5.72381 2.13999 0.380338 0.5
677 9.48385 2.99174 7.50096 0.25
678 10.0885 0.864771 5.62522 0.5
679 2.03375 2.17482 7.18451 0.25
680 2.67629 6.82792 2.41554 0.25
681 8.46562 9.42086 6.90509 0.25
682 3.16635 7.24528 5.06879 0.25
683 0.194316 2.63286 10.2596 0.25
684 1.49344 8.98648 6.885 0.25
685 9.33606 0.0557606 3.54501 0.25
686 6.31533 0.0194365 5.25307 0.25
687 9.58786 3.30224 7.94628 0.25
688 5.45382 7.36754 0.795701 0.25
689 2.36047 2.23571 4.22144 0.25
690 9.90408 7.52471 8.47397 0.25
691 0.12514 8.12078 5.20288 0.25
692 1.02567 4.29194 5.80599 0.25
693 9.7582 1.80256 3.9802 0.25
694 3.78653 3.57128 10.2138 0.25
695 7.00509 1.7139 5.52581 0.25
696 5.27119 1.04139 3.91447 0.25
697 1.19626 8.88645 7.3196 0.25
698 8.56489 5.76198 0.571673 0.25
699 3.08537 7.68712 5.23556 0.25
700 5.47922 7.78891 1.05382 0.25
701 3.51008 5.08779 5.48647 0.25
702 6.22403 3.6945 4.9233 0.25
703 1.88929 0.816709 2.29787 0.25
704 7.45237 3.63123 7.15673 0.25
705 3.87658 5.88964 8.89831 0.25
706 7.78856 0.887881 7.83018 0.25
707 6.20697 7.17513 5.03264 0.25
708 5.72934 6.41402 3.27869 0.25
709 1.45529 4.38801 1.96304 0.5
710 1.21086 4.49172 5.36451 0.25
711 6.19606 4.44983 7.51063 0.25
712 4.36348 8.09147 3.84088 0.25
713 1.53564 4.80852 3.36265 0.25
714 2.03786 10.0613 4.27741 0.25
715 2.33254 3.59187 8.4897 0.25
716 9.66867 9.46111 0.850478 0.25
717 3.9584 5.19112 5.34772 0.25
718 5.48074 3.43535 5.00848 0.5
719 5.49528 2.93949 5.55146 0.25
720 5.42812 1.48268 4.00712 0.25
721 3.84991 7.5003 6.31312 0.25
722 3.90768 5.35451 4.04623 0.25
723 5.6352 6.85917 6.47513 0.25
724 9.72478 0.539711 9.00407 0.25
725 3.92267 0.19061 7.05151 0.25
726 3.41459 5.48397 4.00441 0.25
727 4.177 5.5887 4.4332 0.25
728 2.00004 7.86255 9.52751 0.5
729 8.13471 1.83934 6.16424 0.25
730 8.49388 1.17815 8.94512 0.25
731 1.77551 5.48677 10.0582 0.25
732 3.3596 8.14746 6.49609 0.25
733 9.96426 2.24177 3.85653 0.25
734 8.7745 7.31621 3.78416 0.25
735 3.33717 2.11803 5.85884 0.25
736 8.56135 6.10169 6.22114 0.25
737 0.609828 4.53187 5.86546 0.25
738 5.16887 8.31973 8.425 0.25
739 3.5045 3.94957 10.0309 0.25
740 8.82595 6.88714 1.36866 0.25
741 6.95308 2.8712 3.15314 0.25
742 5.04421 1.96009 0.511353 0.25
743 9.68134 2.6337 3.83787 0.25
744 2.4773 2.46579 4.94871 0.5
745 0.251768 4.23434 6.08234 0.25
746 6.40231 5.2351 1.62833 0.25
747 8.04536 3.01662 9.44963 0.25
748 7.19126 10.1454 9.66659 0.25
749 6.85603 4.22126 6.88091 0.25
750 4.53911 2.16596 6.66568 0.25
751 1.99903 2.55788 4.42798 0.25
752 9.64019 2.29554 4.24887 0.25
753 0.825806 3.02312 10.3201 0.5
754 7.88227 1.48746 5.89742 0.25
755 7.95611 2.92535 10.2441 0.25
756 5.20668 2.08312 1.37171 0.25
757 0.323957 2.34465 3.74268 0.5
758 1.94232 9.99522 3.76561 0.25
759 4.9739 2.65236 8.28693 0.25
760 4.46725 1.37571 3.82413 0.25
761 5.62994 6.69745 5.97672 0.25
762 10.2974 3.79554 6.21805 0.25
763 6.41684 4.37711 4.7369 0.5
764 5.06176 6.67688 3.70326 0.25
765 7.40689 6.9154 8.3674 0.25
766 1.36404 5.21813 3.15072 0.25
767 7.10069 2.32192 2.11339 0.25
768 5.08258 2.37178 5.74949 0.5
769 1.33416 2.45838 10.1786 0.25
770 6.20861 7.14468 6.08739 0.5
771 5.47365 7.75986 0.511327 0.25
772 7.10244 9.28726 5.36012 0.5
773 5.98973 4.27146 10.2445 0.25
774 6.94838 8.61783 2.77967 0.25
775 10.2203 7.84882 8.74612 0.25
776 4.67397 9.36053 0.672331 0.25
777 1.35626 8.02624 1.74779 0.25
778 3.73003 0.0795955 8.92211 0.25
779 10.2664 7.801 8.24358 0.25
780 5.13423 5.27075 9.91913 0.25
781 5.40237 6.27243 3.00596 0.25
782 9.32583 6.21309 1.20303 0.25
783 4.78635 8.30895 3.70039 0.25
784 3.24471 3.50877 10.1173 0.25
785 8.15889 9.29197 7.77429 0.25
786 6.48344 6.77557 5.08873 0.25
787 5.99713 6.68996 5.09784 0.25
788 4.92128 1.43621 4.03859 0.25
789 7.22353 5.45665 1.88454 0.25
790 5.07177 2.23254 6.52237 0.25
791 8.18846 6.24773 6.49977 0.25
792 4.69542 3.98171 2.32636 0.5
793 0.0606538 0.0774237 9.06597 0.25
794 2.50164 1.86436 2.59606 0.25
795 1.44014 8.74536 7.73187 0.25
796 1.61232 10.2183 4.76222 0.5
797 9.7404 9.62086 3.31908 0.25
798 9.53559 4.02468 4.32076 0.25
799 3.29119 6.68928 1.99883 0.5
800 9.58938 1.72067 1.77729 0.25
801 6.07791 10.3227 10.0282 0.25
802 6.3123 7.74114 0.707507 0.25
803 9.37978 4.95053 9.47259 0.25
804 4.0823 4.79048 7.23555 0.25
805 9.13499 4.69506 4.23513 0.25
806 2.57894 9.43016 7.37451 0.25
807 3.91144 4.84626 5.70796 0.25
808 9.19752 5.37561 9.64947 0.25
809 1.32219 5.19497 9.46395 0.25
810 8.0635 2.02023 6.59366 0.25
811 9.06241 4.59619 9.41169 0.25
812 3.80982 6.28585 1.58815 0.25
813 1.3072 3.93466 2.53346 0.25
814 1.35719 10.2063 0.246822 0.25
815 3.60386 5.17608 4.68964 0.5
816 6.46117 0.253509 10.1423 0.25
817 3.97939 9.28376 0.778782 0.5
818 8.75848 6.1615 10.1124 0.25
819 3.72743 5.83422 1.37998 0.25
820 7.4722 3.92973 7.56622 0.25
821 7.81871 9.09725 6.99644 0.25
822 3.56691 3.64024 2.4381 0.25
823 1.90796 9.27143 7.49249 0.5
824 6.85073 4.14692 8.25638 0.25
825 8.20174 9.03656 6.26789 0.5
826 6.92572 2.79061 2.1648 0.25
827 9.02903 6.29182 6.23357 0.25
828 9.70229 3.4446 1.36849 0.25
829 1.20989 7.29172 4.6846 0.25
830 3.82156 6.30865 1.08626 0.25
831 2.64433 6.9529 1.95524 0.25
832 4.03232 5.48797 9.091 0.25
833 6.343 6.44952 6.35839 0.25
834 8.62269 4.80941 4.18262 0.25
835 1.22868 1.26216 7.0664 0.25
836 7.14215 4.93225 1.9316 0.25
837 4.01617 7.33518 8.72018 0.25
838 2.45211 9.88272 7.63173 0.25
839 0.346662 1.66623 3.92285 0.25
840 9.26059 3.89199 4.69469 0.25
841 5.7585 4.9441 10.1878 0.5
842 7.38646 7.34409 8.62182 0.25
843 1.07765 9.76495 1.74028 0.25
844 6.72461 4.79352 1.7386 0.25
845 8.82453 4.61214 4.64346 0.25
846 0.883829 5.64745 4.51123 0.25
847 8.28197 3.12 9.9264 0.25
848 2.74618 1.35092 9.67687 0.5
849 7.34608 5.27172 2.31215 0.25
850 4.21035 8.84765 3.53699 0.25
851 3.69507 6.72345 1.3626 0.25
852 5.74522 1.12651 3.69653 0.25
853 9.01587 9.78938 4.19658 0.25
854 2.37483 3.03882 8.40915 0.25
855 3.4644 5.96422 1.74081 0.25
856 9.20839 3.38819 7.60075 0.25
857 5.95457 3.99751 5.20748 0.25
858 9.14187 6.62244 4.19527 0.25
859 9.39381 1.26424 1.62346 0.25
860 2.20378 10.1435 5.21652 0.25
861 4.20012 9.52597 1.85906 0.25
862 7.84883 1.09741 8.55177 0.5
863 0.314537 2.92285 9.35999 0.25
864 5.06538 4.03199 2.91883 0.25
865 0.644722 6.93631 5.18105 0.25
866 3.4068 1.55214 9.85346 0.25
867 3.48788 7.95742 9.87271 0.25
868 9.48647 1.21515 1.13102 0.25
869 1.07609 8.3306 5.20022 0.25
870 7.01253 6.96294 8.66144 0.25
871 6.7721 2.84379 2.70499 0.25
872 8.38774 1.37627 7.82378 0.5
873 5.29629 9.84468 5.31393 0.25
874 6.67973 9.67123 4.91376 0.25
875 3.93274 7.58351 5.42925 0.25
876 3.40241 6.25899 1.34093 0.25
877 0.528972 2.34238 4.5061 0.25
878 0.188976 0.477738 9.33035 0.25
879 0.459635 7.82065 4.854 0.25
880 6.0254 3.7226 4.44945 0.25
881 4.16612 6.59833 8.95936 0.5
882 10.1358 0.414184 6.61643 0.25
883 5.02358 3.07884 5.54505 0.25
884 2.50686 2.26925 1.52927 0.5
885 9.35084 9.91966 3.42374 0.25
886 9.45622 9.02628 0.783612 0.25
887 1.25833 6.32679 7.69447 0.25
888 1.97904 0.337977 2.32181 0.25
889 4.61763 4.97794 7.80869 0.25
890 0.415856 3.75046 6.02012 0.25
891 4.71221 3.77924 3.06837 0.25
892 6.54929 8.35853 2.59914 0.25
893 7.53712 2.81214 0.162377 0.25
894 1.89186 7.8741 10.2982 0.25
895 9.3237 3.27993 7.11286 0.25
896 9.75274 0.973084 1.48439 0.25
897 3.6212 7.73899 6.68745 0.25
898 0.983363 5.17206 5.05712 0.5
899 0.32554 0.77767 6.15791 0.25
900 8.32733 7.49854 3.94226 0.25
901 0.430104 8.0103 5.60167 0.25
902 5.71167 1.60359 0.912286 0.25
903 8.53763 6.4197 3.48718 0.25
904 1.28565 6.08434 10.2016 0.5
905 9.01595 1.25213 1.2408 0.25
906 9.94839 9.25439 3.65147 0.25
907 4.07263 3.57906 2.66057 0.25