ITEM: TIMESTEP
660000
ITEM: NUMBER OF ATOMS
1000
ITEM: BOX BOUNDS xy xz yz pp pp pp
0.0000000000000000e+00 1.0357442000000001e+01 0.0000000000000000e+00
0.0000000000000000e+00 1.0357442000000001e+01 0.0000000000000000e+00
0.0000000000000000e+00 1.0357442000000001e+01 0.0000000000000000e+00
ITEM: ATOMS id x y z radius
1 1.31406 4.339 2.80918 0.5
2 1.90227 7.90156 2.94391 0.5
3 5.71552 1.94329 1.09069 0.25
4 0.55373 2.75313 4.54938 0.25
5 9.62542 3.62368 7.80094 0.25
6 0.129736 3.2477 9.90977 0.25
7 5.21156 0.958275 2.86121 0.25
8 8.74899 3.92135 1.7183 0.25
9 9.9219 1.24135 1.5898 0.25
10 7.98992 6.93418 3.57636 0.25
11 9.99213 9.27048 1.28786 0.25
12 7.6493 2.61055 10.1 0.25
13 3.60062 8.02677 6.28958 0.25
14 5.21664 2.50385 0.128819 0.25
15 8.54986 5.71842 6.24881 0.25
16 8.50585 8.3956 6.63447 0.25
17 5.4496 8.86823 8.59386 0.5
18 2.36083 7.65786 9.60077 0.25
19 6.97365 3.74796 4.66468 0.25
20 9.35701 1.01208 1.00945 0.25
21 0.304491 0.306607 9.52624 0.25
22 4.99275 1.32272 2.66431 0.25
23 4.64314 4.08874 2.32932 0.25
24 2.71624 2.32795 4.30445 0.25
25 7.17861 1.85687 5.91259 0.25
26 5.50194 2.6826 8.3063 0.25
27 1.52647 8.27734 0.0215216 0.25
28 8.66445 5.85343 6.7238 0.25
29 3.86294 8.13973 5.88757 0.25
30 1.2553 8.31517 7.20556 0.25
31 0.510234 7.4778 4.63821 0.25
32 9.13495 6.79564 1.20153 0.25
33 10.1339 8.80025 1.26848 0.25
34 0.453549 2.36016 10.1321 0.25
35 7.87562 2.22282 9.8827 0.25
36 8.56102 8.94919 9.53509 0.25
37 4.35242 5.18339 5.43108 0.25
38 7.28227 10.2905 0.88316 0.25
39 6.36968 3.8062 5.23308 0.25
40 8.66262 4.24679 4.46432 0.25
41 8.06162 6.7271 4.57591 0.25
42 6.61126 8.44866 2.38362 0.5
43 10.255 8.27796 5.2832 0.25
44 2.98701 0.06299 4.82977 0.25
45 7.34335 7.27854 8.22862 0.25
46 1.11483 8.40985 7.67985 0.25
47 4.21808 8.49044 3.41865 0.25
48 3.22776 10.0209 4.95714 0.25
49 4.31432 6.05062 9.2898 0.25
50 9.9205 9.56211 3.6002 0.25
51 9.02612 8.7795 0.761901 0.25
52 6.51091 7.26034 0.107429 0.25
53 6.51654 5.37204 1.72788 0.25
54 4.49488 5.02214 8.11267 0.25
55 5.5306 6.73544 6.54983 0.25
56 5.17194 1.56618 1.31195 0.25
57 5.55674 2.4879 0.49616 0.25
58 5.83929 4.39445 0.506369 0.25
59 3.81583 7.87572 9.20632 0.25
60 6.94932 7.33046 7.99465 0.25
61 2.97393 0.0682966 9.00169 0.25
62 8.76486 6.35514 6.78648 0.25
63 0.814317 5.19126 4.48628 0.25
64 9.94946 1.68441 1.75416 0.25
65 6.40433 7.05637 6.67252 0.25
66 4.78088 0.817142 2.7553 0.25
67 9.10536 4.95633 9.00584 0.25
68 6.17825 0.175042 10.2572 0.25
69 2.40505 7.76224 3.47427 0.25
70 3.4105 5.81037 4.02437 0.25
71 1.17567 8.02876 2.68398 0.25
72 5.35977 6.49922 3.35099 0.25
73 8.89777 8.5052 7.3004 0.5
74 2.24379 7.30563 3.24967 0.25
75 1.18716 5.66897 0.789804 0.25
76 1.9243 8.39059 0.28146 0.25
77 7.08634 6.83016 8.16358 0.25
78 3.73445 9.2086 1.21366 0.25
79 0.819581 5.74065 9.75909 0.25
80 8.3184 8.61282 9.71998 0.25
81 8.52707 9.59572 7.15884 0.25
82 1.96461 0.610227 1.89712 0.25
83 1.86487 8.54603 2.47457 0.25
84 5.26331 9.53763 5.76091 0.25
85 4.43687 6.34662 1.45573 0.25
86 9.81376 4.30938 1.66857 0.5
87 1.04 5.60668 8.53869 0.25
88 2.9517 3.90128 8.2045 0.25
89 0.622729 0.316632 9.91688 0.25
90 6.99708 10.0874 1.5908 0.5
91 4.11934 8.97232 3.36829 0.25
92 9.16247 1.39211 1.70486 0.25
93 8.32508 1.27167 8.35096 0.25
94 0.996752 4.20758 2.07616 0.25
95 7.73898 9.11377 5.55414 0.25
96 7.71856 1.27536 7.18778 0.25
97 5.58931 9.76804 5.70085 0.25
98 10.2586 0.758305 5.98284 0.25
99 5.04264 2.0907 8.33263 0.5
100 5.66264 2.65105 5.27059 0.25
101 5.19643 2.21224 9.7418 0.5
102 3.95248 5.33383 8.48052 0.5
103 6.58048 0.301313 1.21743 0.25
104 0.869579 9.97078 10.0285 0.25
105 2.05668 5.08509 3.19532 0.25
106 6.23132 6.2846 6.39276 0.25
107 5.82394 9.9797 8.68989 0.25
108 1.83164 3.4348 2.30801 0.25
109 7.30904 2.46328 3.01604 0.25
110 5.75115 9.97889 6.07994 0.25
111 1.98182 5.66758 0.369275 0.25
112 3.96926 5.42539 5.69075 0.25
113 1.98835 0.0491298 4.66577 0.25
114 8.69802 6.28902 0.0195079 0.25
115 3.88451 3.75565 3.22821 0.25
116 0.464434 1.86725 3.6412 0.25
117 7.48304 2.24123 2.30037 0.5
118 7.00589 8.05225 2.93059 0.25
119 10.0397 2.46678 4.2432 0.25
120 1.62186 5.56554 10.3076 0.25
121 7.72347 2.09302 5.36599 0.5
122 2.02142 4.31166 2.65636 0.25
123 9.13801 9.08023 1.52909 0.25
124 8.45923 6.30984 0.485068 0.25
125 1.52502 9.83134 4.2185 0.25
126 6.24896 7.3034 0.584367 0.25
127 6.42911 7.72915 0.348844 0.25
128 9.10453 9.4912 3.87989 0.25
129 1.60436 5.31384 3.24851 0.25
130 8.84178 8.70642 1.22101 0.25
131 7.74688 2.56286 2.90494 0.25
132 8.4519 4.30781 4.85427 0.25
133 8.15726 9.05836 9.91246 0.25
134 5.04778 4.06604 2.66817 0.25
135 6.16464 9.57482 8.21809 0.5
136 8.42241 9.09976 7.02564 0.25
137 1.15748 9.65404 1.80039 0.25
138 7.11905 4.06966 4.34111 0.25
139 7.18066 4.56448 7.72277 0.5
140 4.46942 7.99484 3.43618 0.25
141 1.94998 1.95584 2.02944 0.25
142 3.11656 2.94949 4.88394 0.25
143 7.54778 1.11276 3.46719 0.25
144 10.2802 6.38022 1.93842 0.25
145 3.35436 8.05208 5.84169 0.25
146 6.81958 9.41349 3.06649 0.25
147 3.83675 5.61382 3.87324 0.25
148 3.1113 1.65629 0.0705971 0.25
149 9.58602 7.90815 8.89377 0.25
150 4.16453 5.0431 7.76535 0.25
151 6.84218 9.9012 9.83698 0.25
152 4.064 9.49127 0.954521 0.25
153 5.15215 1.76283 7.68585 0.25
154 5.38893 9.47211 8.0598 0.25
155 3.53295 6.18325 1.18489 0.25
156 0.875974 8.57342 7.24004 0.25
157 4.69129 1.289 4.09334 0.25
158 8.90277 9.2062 6.35555 0.25
159 3.48206 2.81379 5.24196 0.25
160 2.6567 3.54193 8.00104 0.25
161 3.10256 0.052507 9.50577 0.25
162 4.01491 2.26559 5.97645 0.5
163 6.6759 9.93343 2.23406 0.25
164 5.19827 8.34589 8.16973 0.25
165 0.528544 2.54783 9.69709 0.25
166 6.62913 4.11028 6.78213 0.25
167 8.86685 10.268 3.84594 0.25
168 10.3457 7.97852 8.78388 0.25
169 9.22637 6.09868 7.49658 0.25
170 3.43903 0.308571 8.3284 0.25
171 0.990921 9.09677 7.25398 0.25
172 9.21941 6.675 6.86079 0.25
173 1.01669 1.64507 4.3897 0.25
174 4.65773 2.03628 6.24695 0.25
175 9.84197 3.15708 7.76224 0.25
176 0.873077 6.03833 0.669416 0.25
177 9.67767 6.49974 6.88484 0.25
178 7.53238 1.44602 5.19938 0.25
179 2.69018 9.37484 7.93444 0.25
180 7.34953 9.14684 2.56839 0.5
181 1.08072 4.19022 5.92276 0.25
182 8.07686 1.17071 3.52643 0.25
183 2.68839 9.8217 4.3566 0.25
184 9.07779 5.20134 9.45226 0.25
185 8.7976 8.7062 6.27963 0.25
186 2.58999 8.4705 9.78809 0.25
187 3.05217 4.15511 10.182 0.25
188 5.34447 2.65323 7.8356 0.25
189 9.87432 0.970384 6.21404 0.25
190 2.67663 7.35055 3.51707 0.25
191 5.30261 2.71193 9.17306 0.25
192 8.90384 9.18947 7.0103 0.25
193 4.89402 2.41846 9.05785 0.25
194 4.20492 9.00649 1.03167 0.25
195 5.30573 5.17748 9.55826 0.25
196 5.71098 2.46191 0.027529 0.25
197 9.30105 6.03845 6.41586 0.5
198 7.17799 1.80218 7.20571 0.5
199 6.83315 0.00417627 9.73541 0.25
200 7.15418 0.986583 6.45299 0.25
201 6.03088 6.64919 6.70909 0.25
202 4.08847 8.21868 5.4624 0.25
203 4.53629 9.88918 0.244041 0.25
204 0.509301 3.43231 6.40283 0.25
205 3.91293 0.162946 6.61649 0.25
206 0.877741 1.85491 3.95215 0.25
207 1.17411 5.2116 3.85114 0.5
208 4.27644 4.70494 5.56485 0.25
209 6.84845 9.70824 2.66629 0.25
210 3.76437 0.607322 6.56593 0.25
211 1.88937 4.73013 2.49741 0.25
212 0.34887 3.81214 1.86303 0.5
213 9.10403 4.27526 1.679 0.25
214 3.67618 5.0786 5.93792 0.25
215 10.0388 0.652507 8.77046 0.25
216 4.80025 1.88837 0.59908 0.25
217 10.2358 7.80416 5.34086 0.25
218 2.09278 1.27133 1.69732 0.5
219 0.713856 4.30593 6.228 0.25
220 6.81939 9.05109 2.0076 0.25
221 8.36334 6.84963 3.25153 0.25
222 8.92925 5.96973 7.06823 0.25
223 5.41793 9.4861 5.28267 0.25
224 9.79965 3.86477 7.36448 0.25
225 8.0945 1.70851 5.87848 0.25
226 6.22551 8.94013 5.00665 0.25
227 7.02586 0.347746 1.17645 0.25
228 5.40078 2.30757 0.935332 0.25
229 2.75076 2.27286 1.5474 0.25
230 8.22268 7.1952 4.358 0.25
231 7.54545 3.73767 7.01382 0.25
232 6.95086 9.53702 2.18077 0.25
233 8.03408 1.94714 9.20205 0.5
234 4.58706 9.48515 1.6436 0.25
235 0.962723 8.87361 7.68149 0.25
236 1.52259 5.44109 0.459813 0.25
237 7.72242 0.995564 3.90285 0.25
238 0.990088 5.95695 3.99197 0.25
239 0.543144 3.06411 9.72338 0.25
240 1.34216 9.01497 2.15883 0.5
241 1.59448 9.66181 1.99137 0.25
242 2.9789 7.70485 5.92535 0.25
243 1.74497 6.27257 0.91323 0.25
244 1.17233 1.66693 6.7258 0.25
245 5.88859 7.07243 6.73972 0.25
246 1.97104 8.11103 10.2697 0.25
247 2.58916 8.03122 3.05879 0.25
248 5.6197 2.5563 8.76119 0.25
249 6.64819 3.88735 4.28944 0.25
250 7.43002 1.33453 6.71186 0.25
251 1.39686 1.01285 7.20745 0.25
252 7.19535 6.06178 8.87763 0.25
253 3.97448 7.26411 8.72871 0.25
254 0.930168 9.97382 2.01707 0.25
255 1.57581 0.733699 1.56979 0.25
256 4.25638 5.8123 4.57173 0.25
257 0.614887 10.2646 9.73798 0.25
258 4.69252 5.33557 7.1773 0.25
259 1.52531 10.2282 4.48861 0.25
260 0.923953 9.89164 0.145852 0.25
261 6.65177 6.92075 8.12696 0.25
262 5.46433 6.13916 3.70271 0.25
263 8.42851 8.5815 9.23163 0.25
264 7.51378 9.41071 9.7408 0.5
265 4.34911 3.35519 2.59668 0.25
266 3.87617 3.13307 2.60256 0.25
267 4.0836 7.91194 6.28263 0.25
268 3.38616 7.64606 6.17958 0.25
269 7.52665 9.40513 5.89466 0.25
270 3.74913 7.56834 6.51931 0.25
271 4.02556 8.87242 1.48437 0.25
272 6.41912 7.2356 5.37757 0.25
273 10.029 3.05443 6.4907 0.25
274 3.82959 4.61769 5.79496 0.25
275 10.2369 6.90262 2.61997 0.25
276 8.19311 0.855312 8.56043 0.25
277 2.90664 10.0771 8.28664 0.5
278 4.4427 6.20168 8.48738 0.25
279 2.64222 0.299653 8.76734 0.25
280 3.50882 0.379554 9.65026 0.25
281 4.42594 8.73646 3.75724 0.25
282 4.84564 0.585238 3.60177 0.25
283 9.47275 0.115814 9.03359 0.25
284 1.55958 5.09498 0.0567396 0.25
285 8.62622 6.87793 1.1121 0.25
286 0.00960968 1.44757 1.6586 0.25
287 1.41683 8.45589 2.63867 0.25
288 1.31607 5.79103 4.31222 0.25
289 9.37371 0.602661 1.30711 0.25
290 8.79441 4.26598 2.093 0.25
291 8.12137 2.53822 10.2058 0.25
292 4.18176 9.33522 1.40072 0.25
293 4.89291 2.70045 7.12077 0.5
294 0.15104 6.51855 2.38937 0.25
295 7.06271 0.910917 7.15709 0.5
296 2.93551 2.73866 4.40032 0.25
297 0.267633 8.03098 5.0876 0.25
298 4.19616 9.16029 0.569662 0.25
299 9.34131 4.94106 9.78093 0.25
300 1.75786 9.48357 4.46245 0.25
301 4.73634 8.10767 8.18503 0.25
302 4.96981 5.14415 8.02192 0.25
303 8.97891 5.57916 10.1376 0.5
304 4.23308 4.13771 3.14193 0.25
305 1.53674 8.1598 2.28723 0.25
306 9.9286 8.16567 8.66506 0.25
307 0.758007 10.3325 10.2778 0.25
308 8.61019 6.23752 6.30983 0.25
309 8.15805 1.70382 8.49368 0.25
310 6.72445 6.922 6.30482 0.25
311 2.05752 0.385616 2.32619 0.25
312 8.97072 1.07446 8.68314 0.5
313 1.10363 7.88387 2.16458 0.25
314 0.666125 4.05535 2.45558 0.25
315 2.92177 0.7592 9.25292 0.5
316 6.56161 4.38153 7.23123 0.25
317 6.27996 10.202 8.58864 0.25
318 10.2357 7.95832 8.31222 0.25
319 10.2137 10.025 3.68566 0.25
320 1.23762 2.47419 0.100085 0.25
321 2.24697 2.11712 1.62801 0.25
322 0.643603 6.99579 4.73863 0.25
323 6.34867 9.98677 9.32002 0.5
324 7.10011 1.68315 2.66466 0.25
325 9.17611 3.94554 2.03623 0.25
326 2.75796 10.1634 5.20626 0.25
327 1.62365 8.68124 7.05847 0.25
328 4.39044 3.69351 3.03072 0.25
329 8.58968 6.75626 3.97562 0.5
330 9.85212 6.96748 2.40383 0.25
331 9.21197 10.3107 4.22671 0.25
332 6.66872 7.23674 0.873783 0.25
333 10.2612 7.51644 9.01606 0.25
334 6.75753 5.27627 1.33259 0.25
335 5.76007 4.90103 0.54562 0.25
336 9.25573 3.79165 1.60162 0.25
337 4.57619 5.75598 8.54927 0.25
338 7.29412 8.32606 2.63407 0.25
339 3.99555 6.06088 8.40288 0.25
340 0.923729 2.45062 10.0391 0.25
341 4.108 5.46466 4.29192 0.25
342 9.81919 3.12655 6.95366 0.25
343 0.029715 1.67817 3.81964 0.25
344 4.52557 0.524647 3.13619 0.25
345 6.18621 4.56003 10.1507 0.25
346 1.44256 2.08049 7.70636 0.25
347 3.43702 4.02718 0.548114 0.25
348 6.01499 7.72715 0.605604 0.25
349 4.68367 1.63393 7.73179 0.25
350 2.87 3.32615 7.62419 0.25
351 5.70914 6.75737 3.10523 0.25
352 8.33108 6.58855 1.33936 0.25
353 9.60056 3.63691 6.99505 0.25
354 10.0061 3.80079 2.19386 0.25
355 2.77983 1.12766 2.07872 0.25
356 4.01133 9.93102 0.949719 0.25
357 3.3592 4.64992 5.95912 0.25
358 4.17263 9.66512 0.528533 0.25
359 9.00187 6.80949 0.497904 0.5
360 3.44598 0.264215 6.39931 0.25
361 0.283721 0.565247 6.27306 0.25
362 0.0180335 7.53567 8.52077 0.25
363 7.31872 2.8385 2.71002 0.25
364 10.2499 6.85355 2.10031 0.25
365 5.81365 9.26539 5.02036 0.25
366 9.26188 4.43755 2.19509 0.25
367 3.48619 0.523372 8.82168 0.25
368 9.43414 6.57886 7.32104 0.25
369 9.2899 4.10279 4.27141 0.5
370 4.89114 1.77783 6.97486 0.5
371 9.56126 6.67069 1.77237 0.5
372 1.19088 2.35953 4.46191 0.5
373 3.43233 0.00886249 8.74001 0.25
374 3.44689 0.222436 9.1494 0.25
375 4.54128 0.821881 3.94133 0.25
376 0.762711 5.66881 4.33443 0.25
377 9.94006 7.64662 8.63557 0.25
378 8.98227 9.17488 1.02926 0.25
379 0.335584 3.88482 6.22539 0.25
380 1.9008 2.26575 4.65388 0.25
381 7.20596 5.26202 1.98017 0.5
382 2.31403 8.47944 10.2513 0.25
383 5.67659 8.47827 7.96142 0.25
384 1.24262 6.66305 7.54953 0.25
385 1.1017 6.97271 4.54717 0.25
386 1.67272 5.50496 7.69918 0.25
387 1.21512 5.77331 7.62159 0.25
388 3.0997 1.88401 1.70829 0.25
389 5.00337 1.46374 0.793152 0.25
390 3.53023 4.25277 0.0985026 0.25
391 3.98235 0.487727 7.00359 0.25
392 0.668975 5.5253 4.81896 0.25
393 8.9824 8.41799 6.61501 0.25
394 0.216202 0.414232 5.839 0.25
395 2.00717 4.70228 2.97076 0.25
396 3.09672 0.391372 9.89045 0.25
397 7.00676 2.08621 2.9374 0.25
398 9.86988 4.71821 9.08635 0.25
399 2.52299 9.77433 7.69887 0.25
400 7.65947 3.05721 9.79107 0.25
401 5.82852 6.51069 3.53618 0.25
402 4.19772 5.89217 8.82092 0.25
403 6.10695 5.16532 0.296379 0.25
404 8.08657 3.72258 0.0470763 0.25
405 1.67131 5.82116 0.778072 0.25
406 6.28428 9.36298 5.14115 0.25
407 6.79055 6.69962 8.60131 0.25
408 9.64528 8.9207 1.45342 0.25
409 0.337389 6.69433 1.98105 0.25
410 6.00387 1.21926 4.06213 0.25
411 7.55486 8.75109 9.38847 0.25
412 4.77517 2.112 7.61713 0.25
413 6.90028 2.51625 2.64115 0.25
414 6.95723 5.69297 2.4673 0.25
415 4.67939 1.22272 3.33806 0.5
416 9.9371 0.334094 9.11056 0.25
417 3.80283 7.43324 5.73489 0.5
418 0.797827 0.977033 6.64289 0.5
419 9.08351 0.307298 3.91101 0.25
420 5.27283 8.67525 7.78883 0.25
421 9.39183 5.79797 7.13176 0.25
422 2.3064 7.32781 2.72741 0.25
423 1.65587 4.9973 2.82609 0.25
424 0.399065 0.261731 9.04892 0.25
425 2.23001 9.64733 4.33618 0.25
426 2.84097 1.39766 1.65873 0.25
427 6.98511 1.4267 6.5213 0.25
428 7.45383 9.60721 2.00876 0.25
429 5.09256 9.0742 7.9867 0.25
430 9.48431 9.29544 3.52959 0.25
431 6.76473 0.054732 0.886614 0.25
432 2.61441 8.07005 9.52274 0.25
433 3.05293 2.72164 5.40747 0.25
434 5.89081 9.52619 8.90106 0.25
435 0.272273 3.37284 9.4303 0.25
436 6.49194 4.819 0.158801 0.25
437 0.944588 6.01335 10.1358 0.25
438 7.67076 0.957605 6.68054 0.25
439 9.42696 10.024 3.51961 0.5
440 2.27183 2.92363 7.70122 0.5
441 1.04405 3.78176 2.27706 0.25
442 7.00386 7.64902 0.890756 0.25
443 9.38407 9.79486 4.2538 0.25
444 1.39025 3.44517 2.07899 0.25
445 5.5524 6.92726 3.53842 0.25
446 8.41116 4.65667 4.45749 0.25
447 6.23246 5.09241 10.2265 0.25
448 5.60632 0.907785 3.55845 0.5
449 0.0614259 0.932078 6.39041 0.25
450 2.41379 0.713446 2.13449 0.25
451 3.41598 3.38975 10.329 0.25
452 5.85612 4.35334 4.9026 0.25
453 7.36101 4.25558 8.39141 0.25
454 1.8641 5.61411 8.68226 0.25
455 1.14208 5.90657 8.09612 0.25
456 2.62144 1.82556 1.50954 0.25
457 9.70274 8.94382 0.630569 0.5
458 1.57997 5.76519 7.27674 0.25
459 1.84157 0.992288 6.9864 0.25
460 2.17089 6.50824 7.29752 0.25
461 3.84667 6.43127 0.892602 0.25
462 4.14054 6.70104 1.19777 0.25
463 1.59803 10.1862 4.96501 0.25
464 9.55358 1.55207 1.49336 0.25
465 6.56203 5.55458 2.20199 0.25
466 4.45019 5.68587 7.85698 0.5
467 3.51072 5.40555 5.67648 0.25
468 2.38619 1.20687 2.3673 0.25
469 4.62098 4.15982 2.85755 0.25
470 4.54435 3.59957 2.21028 0.25
471 3.1469 10.0776 4.46125 0.25
472 2.16668 2.26007 7.29803 0.25
473 2.95441 8.10597 9.90675 0.25
474 9.0927 4.05927 2.49003 0.25
475 8.9921 7.45575 4.016 0.25
476 4.05019 6.5825 1.6731 0.25
477 9.90672 9.77751 4.0418 0.25
478 8.83368 6.10749 1.13673 0.5
479 6.80037 0.573034 0.809549 0.25
480 2.3751 8.04537 9.95317 0.25
481 4.28724 9.77284 1.31264 0.25
482 6.42187 9.7718 5.39599 0.25
483 6.87107 0.145178 0.118985 0.5
484 9.75725 3.39592 7.36412 0.25
485 7.97111 3.23022 0.18236 0.25
486 4.73658 8.38022 3.60897 0.25
487 3.03683 4.24442 0.297803 0.25
488 7.15481 9.36007 1.77732 0.25
489 9.13207 6.5962 3.47077 0.25
490 2.17526 3.6068 8.04848 0.25
491 8.69848 8.85549 6.70342 0.25
492 7.94879 2.65361 9.70989 0.25
493 10.1281 3.0834 7.35408 0.25
494 8.59552 3.85722 4.66666 0.25
495 10.1216 3.52612 7.61134 0.25
496 4.30265 1.84791 6.51524 0.25
497 3.43912 3.5105 0.451267 0.25
498 8.51949 1.40569 9.18159 0.25
499 4.50293 9.00792 1.4357 0.25
500 3.88039 7.37253 9.16925 0.25
501 2.50157 0.0603629 4.86355 0.25
502 8.9677 6.60259 6.42088 0.25
503 6.62329 8.36535 3.08522 0.25
504 6.78196 7.44953 0.461279 0.25
505 7.52237 1.2119 5.89384 0.5
506 5.59868 10.2945 5.67674 0.25
507 7.08548 8.58869 2.99609 0.25
508 4.90976 8.43612 8.93513 0.25
509 1.39238 8.81043 7.86674 0.25
510 5.99405 4.08232 5.30026 0.25
511 3.51639 0.317033 6.90539 0.25
512 1.82498 5.12261 3.63313 0.25
513 1.43086 5.20109 9.95088 0.25
514 3.50811 2.00131 5.43957 0.25
515 1.91081 1.54509 7.51249 0.5
516 5.97551 9.24091 5.7012 0.5
517 9.16836 7.08151 3.65019 0.25
518 2.74538 0.722347 10.0487 0.25
519 2.74409 10.3206 4.38864 0.25
520 5.21225 2.25733 7.57657 0.25
521 1.31659 4.54026 5.70234 0.25
522 2.32702 10.0913 4.56619 0.25
523 2.88289 3.13471 8.11772 0.25
524 8.49478 2.25819 5.24496 0.25
525 1.64576 6.66877 7.26964 0.25
526 1.47941 5.31108 8.50416 0.25
527 6.2712 9.36456 2.52527 0.5
528 7.05434 9.04864 3.28589 0.25
529 3.824 6.40005 2.09342 0.25
530 1.24014 8.30945 1.85821 0.25
531 0.446889 3.57037 9.80862 0.25
532 1.59695 7.80614 10.2063 0.25
533 8.74481 9.78636 3.68784 0.25
534 8.88402 4.54476 4.72961 0.25
535 7.53498 6.47083 8.84662 0.25
536 4.41408 9.35862 0.17991 0.25
537 8.23313 1.59753 3.70942 0.25
538 7.57268 3.99505 7.49273 0.25
539 10.3225 3.6402 6.88412 0.5
540 5.89714 10.3399 8.29118 0.25
541 9.30871 8.87792 1.12233 0.25
542 7.47753 8.80161 5.83083 0.25
543 9.25351 4.79463 4.02212 0.25
544 2.02719 1.95885 6.86996 0.25
545 10.105 9.82391 3.23851 0.25
546 0.400574 0.070805 6.15996 0.25
547 9.5715 3.72703 1.96683 0.25
548 9.40802 4.54916 9.03284 0.25
549 1.55616 0.794567 2.06327 0.25
550 9.44975 9.38278 1.24466 0.25
551 2.91022 7.73046 3.35553 0.25
552 9.14992 8.88787 6.68525 0.25
553 5.45564 3.05254 5.47073 0.25
554 8.82516 4.73505 4.21449 0.25
555 5.63924 9.02319 7.90314 0.25
556 1.31732 9.21532 7.59785 0.25
557 3.01906 9.61511 7.68409 0.25
558 2.51316 4.01967 7.97031 0.25
559 9.72039 1.09231 8.7624 0.25
560 3.91958 5.00125 5.50878 0.25
561 1.08788 3.71944 1.81188 0.25
562 4.87312 4.89836 9.71704 0.25
563 5.50011 9.96669 8.28372 0.25
564 1.22986 1.9481 7.31033 0.25
565 1.9663 0.945063 2.29058 0.25
566 8.93897 6.50484 7.23306 0.25
567 1.30425 6.16382 0.896835 0.25
568 8.01888 1.43653 5.43334 0.25
569 6.88788 3.80961 7.42379 0.5
570 4.93731 3.80544 3.06715 0.25
571 4.11464 3.26855 2.16616 0.25
572 8.5998 1.71552 8.7914 0.25
573 1.02399 6.95451 5.02703 0.25
574 0.531232 0.28526 6.53535 0.25
575 5.67363 3.99632 4.51297 0.25
576 5.18565 1.93129 0.958481 0.25
577 0.654495 7.87785 4.85928 0.25
578 0.878786 5.41814 0.162681 0.5
579 5.06396 5.24124 7.54439 0.25
580 8.69544 7.35071 4.43083 0.25
581 6.93537 6.99976 8.90869 0.25
582 7.27308 4.12102 4.79204 0.25
583 8.77621 5.99297 5.89968 0.25
584 5.09614 6.82017 3.6561 0.25
585 7.27506 0.36359 0.74091 0.25
586 1.69324 2.77219 4.83256 0.25
587 6.02599 9.99996 5.67979 0.25
588 3.00407 1.46004 9.57493 0.25
589 10.0324 3.57026 1.79683 0.25
590 8.8555 6.9644 3.33964 0.25
591 3.82258 2.44675 5.31548 0.25
592 6.66017 5.30282 2.59511 0.25
593 5.43539 9.63874 6.19586 0.25
594 9.17372 6.21471 0.112367 0.25
595 1.67712 2.21563 7.23204 0.25
596 9.66321 8.49884 1.21263 0.25
597 4.33831 0.574251 3.58421 0.25
598 6.62553 6.94231 0.461712 0.25
599 10.0372 1.62424 1.27451 0.25
600 3.77739 9.30797 1.68398 0.25
601 7.18971 9.93776 2.33452 0.25
602 6.15042 8.20123 2.97472 0.25
603 1.93205 6.58595 6.88426 0.25
604 8.88985 1.18507 0.877138 0.25
605 1.46475 7.66262 2.4253 0.25
606 1.58396 1.81902 6.94478 0.25
607 1.87882 2.3207 7.6977 0.25
608 6.77055 6.33694 5.89282 0.5
609 4.28482 6.2536 0.989381 0.25
610 6.39102 4.73422 0.915732 0.5
611 8.21268 8.86688 7.4288 0.25
612 8.27404 0.408763 3.86544 0.5
613 7.81256 2.76553 0.177192 0.25
614 9.54272 6.94258 1.0018 0.25
615 6.38725 4.40562 7.68086 0.25
616 1.49817 1.28987 6.81215 0.25
617 2.46301 3.63869 7.61519 0.25
618 7.84864 3.43707 10.0766 0.25
619 1.2465 9.77256 2.33944 0.25
620 6.5204 5.74044 2.70002 0.25
621 6.67958 4.41695 1.55042 0.25
622 7.39135 6.85337 9.10133 0.25
623 7.92184 4.11674 4.43296 0.5
624 4.76751 8.46375 8.53915 0.25
625 4.89123 2.15054 0.123621 0.25
626 2.45184 2.76015 4.2366 0.25
627 7.15784 5.25069 2.72547 0.25
628 1.23443 9.64163 10.2639 0.25
629 7.25802 10.1835 9.89461 0.25
630 5.74571 7.33348 0.539394 0.25
631 8.42928 2.09869 5.71394 0.25
632 3.23473 3.82562 0.134812 0.25
633 3.69964 3.80472 0.18046 0.25
634 4.40422 7.85875 8.77119 0.5
635 9.26518 6.24276 7.00419 0.25
636 8.82859 4.9075 9.78111 0.25
637 6.20404 9.38354 4.66991 0.25
638 2.20001 9.7126 5.11414 0.5
639 7.00013 2.85569 2.30861 0.25
640 7.38666 1.62781 7.895 0.25
641 4.20909 5.90844 4.0427 0.25
642 3.30417 7.71286 6.66531 0.25
643 3.23828 1.70361 9.95473 0.25
644 5.88222 10.0069 4.98168 0.5
645 3.067 3.63179 10.0839 0.25
646 8.44439 7.4968 4.01538 0.25
647 6.68112 7.06146 5.75509 0.25
648 7.07679 1.24973 7.86092 0.25
649 4.62038 6.10392 8.94841 0.25
650 7.7508 1.45337 3.79447 0.25
651 4.84352 8.6386 8.03394 0.25
652 1.47445 5.80108 8.44952 0.25
653 0.846898 4.63491 5.84802 0.25
654 1.33886 6.22153 7.33266 0.25
655 10.1244 3.72684 1.32241 0.25
656 4.65447 5.02398 7.59815 0.25
657 8.58272 9.37376 6.65079 0.25
658 7.52258 4.007 7.96262 0.25
659 8.76885 0.0657574 4.30122 0.25
660 1.78732 6.20878 7.8818 0.5
661 2.61713 7.52187 3.05058 0.25
662 7.27146 9.09059 6.18744 0.25
663 3.64913 0.688753 9.26192 0.25
664 0.746551 2.3374 0.134796 0.25
665 8.3333 6.65023 0.825321 0.25
666 5.49953 9.57283 8.55536 0.25
667 8.31142 3.31795 10.2018 0.25
668 7.11984 1.66749 5.392 0.25
669 3.13044 7.56317 9.3651 0.5
670 0.615017 2.78276 9.26863 0.25
671 0.812094 6.26659 4.68143 0.5
672 6.13556 6.34688 5.51653 0.25
673 3.8219 9.69557 1.36677 0.25
674 7.29249 4.54567 4.54357 0.25
675 8.1305 9.35107 7.35201 0.25
676 5.52023 1.8199 0.344045 0.5
677 9.36299 3.20934 7.13038 0.25
678 10.0501 0.228386 6.43484 0.5
679 2.3008 2.11417 7.79508 0.25
680 2.98407 7.77431 2.83396 0.25
681 8.08795 9.50141 6.87808 0.25
682 4.32933 8.01472 5.85276 0.25
683 0.160315 2.77521 10.0016 0.25
684 1.45136 9.19429 7.09882 0.25
685 8.89255 0.231965 3.42907 0.25
686 6.58542 9.63267 4.92654 0.25
687 9.64468 2.86845 7.34682 0.25
688 5.62862 7.56644 0.0630048 0.25
689 2.24906 2.33357 4.35633 0.25
690 9.78172 7.45148 9.09966 0.25
691 0.221879 8.08 5.56831 0.25
692 1.21309 4.54654 6.19753 0.25
693 9.65073 2.26855 3.96001 0.25
694 2.75656 3.86749 0.104055 0.25
695 8.38283 1.80366 5.39174 0.25
696 5.17254 1.39523 3.92537 0.25
697 1.30606 8.77572 7.37445 0.25
698 8.82801 6.03062 0.423066 0.25
699 3.61104 8.21254 5.4539 0.25
700 5.56073 7.80658 0.417662 0.25
701 3.46788 4.91134 5.54331 0.25
702 6.15753 3.77192 4.40458 0.25
703 2.25184 0.256418 1.87932 0.25
704 6.91169 4.44802 8.37297 0.25
705 3.68741 5.9459 8.78117 0.25
706 7.5036 1.20902 7.65994 0.25
707 6.34432 6.95141 4.94248 0.25
708 5.42621 6.60106 3.89625 0.25
709 1.73842 4.12494 1.96517 0.5
710 1.17219 4.97765 5.90694 0.25
711 7.00288 4.39768 6.95972 0.25
712 4.60688 8.8053 3.2994 0.25
713 1.60411 4.82586 3.29325 0.25
714 1.89271 9.93011 4.57141 0.25
715 2.47506 3.81419 8.4265 0.25
716 9.21888 8.40669 0.971383 0.25
717 3.14593 5.2092 5.36612 0.25
718 5.78596 3.34871 4.94139 0.5
719 5.25519 2.80398 5.09308 0.25
720 5.69717 1.57115 3.85967 0.25
721 3.37477 7.23484 6.41359 0.25
722 3.31778 5.79245 4.49782 0.25
723 5.74052 6.31089 6.45765 0.25
724 9.57813 0.621052 8.91558 0.25
725 3.88057 0.414917 6.13688 0.25
726 3.79046 5.85142 4.35189 0.25
727 3.5879 5.45985 4.25829 0.25
728 1.83667 8.32196 9.62018 0.5
729 7.65604 1.92302 6.03735 0.25
730 8.21696 1.30715 8.82409 0.25
731 1.24486 5.65782 9.95588 0.25
732 3.09166 8.0135 6.3389 0.25
733 9.8222 2.07603 4.40628 0.25
734 8.37902 7.23483 3.58544 0.25
735 3.39243 2.46505 5.63246 0.25
736 8.82307 5.42892 6.47419 0.25
737 0.949447 4.3304 5.4213 0.25
738 5.10887 8.1245 8.58542 0.25
739 2.99527 3.77214 0.556654 0.25
740 8.79782 6.70223 1.59852 0.25
741 7.79962 2.96355 2.54095 0.25
742 5.062 2.32115 0.563112 0.25
743 10.1188 1.63973 4.24067 0.25
744 2.43025 2.6857 4.95902 0.5
745 0.630433 4.11582 5.79282 0.25
746 6.97648 4.82806 1.4733 0.25
747 8.33461 2.39041 9.76967 0.25
748 7.09597 10.0012 9.47189 0.25
749 6.61328 4.16452 8.08912 0.25
750 4.5224 2.27546 6.61463 0.25
751 1.87408 2.18451 4.11224 0.25
752 10.0721 2.02414 3.97184 0.25
753 0.760647 3.0712 10.339 0.5
754 8.09274 2.17891 6.04676 0.25
755 7.97391 2.9689 10.0941 0.25
756 5.37462 2.067 1.38961 0.25
757 0.300555 2.04638 4.43386 0.5
758 1.48292 9.74603 4.7357 0.25
759 5.00143 2.84614 8.24963 0.25
760 5.34494 1.40938 3.05459 0.25
761 5.97787 6.21433 5.97909 0.25
762 0.622815 3.93633 6.56353 0.25
763 6.58971 4.39164 4.84365 0.5
764 5.25056 6.98727 3.15069 0.25
765 7.15828 6.41409 8.48806 0.25
766 1.22314 5.04197 3.05813 0.25
767 6.80241 2.47101 2.1478 0.25
768 5.04109 2.53175 5.76469 0.5
769 1.33576 2.69079 10.053 0.25
770 5.997 6.90004 6.03125 0.5
771 6.00993 7.91921 0.15356 0.25
772 6.92327 9.20875 5.47922 0.5
773 5.88817 4.23938 0.026463 0.25
774 6.70803 8.90208 2.99778 0.25
775 10.01 7.89036 9.05887 0.25
776 4.37644 10.1532 0.663787 0.25
777 1.02786 8.37509 2.33224 0.25
778 3.11184 0.389406 8.61194 0.25
779 9.60222 7.79905 9.38917 0.25
780 4.95353 5.31631 9.92115 0.25
781 5.05832 6.34233 3.74748 0.25
782 9.47333 6.44207 1.01221 0.25
783 4.30608 8.26135 3.88103 0.25
784 2.99261 3.42517 0.188128 0.25
785 8.61139 9.1992 7.43712 0.25
786 6.77964 6.86322 5.30021 0.25
787 6.51547 6.4765 5.1558 0.25
788 5.34724 1.58721 3.50832 0.25
789 6.83197 4.64093 1.98914 0.25
790 4.9954 2.32982 6.46039 0.25
791 8.92041 5.49538 6.001 0.25
792 3.94413 3.8998 2.49593 0.5
793 10.2956 0.186124 8.79049 0.25
794 1.99205 1.50543 2.33339 0.25
795 1.62256 8.45051 7.54049 0.25
796 2.1281 10.256 3.94359 0.5
797 9.74879 9.4618 3.13579 0.25
798 9.24575 4.81156 4.48617 0.25
799 3.84117 5.64936 0.83075 0.5
800 9.62354 1.36975 1.97042 0.25
801 6.01237 10.3432 9.86384 0.25
802 6.52834 7.69758 0.807437 0.25
803 9.48559 4.94531 9.30275 0.25
804 4.20716 5.22224 7.33198 0.25
805 8.92199 4.56654 3.74406 0.25
806 2.29479 9.62564 8.14667 0.25
807 3.16376 5.11109 5.8897 0.25
808 8.72439 4.98244 9.30278 0.25
809 0.927296 5.27199 9.73981 0.25
810 7.37324 1.78848 6.38804 0.25
811 9.57766 4.56477 9.48575 0.25
812 3.93704 6.27149 1.3282 0.25
813 1.44898 3.61241 2.53987 0.25
814 1.23554 10.1397 10.3002 0.25
815 3.74885 5.39097 4.98542 0.5
816 6.41487 0.217044 9.86054 0.25
817 4.76466 9.48406 0.888771 0.5
818 9.34863 6.17987 0.596114 0.25
819 3.65416 6.29082 1.68857 0.25
820 7.26144 4.77153 8.4764 0.25
821 7.95681 9.03866 7.03516 0.25
822 4.9939 3.82302 2.24218 0.25
823 2.05855 9.08193 7.55487 0.5
824 7.47443 4.21846 7.07178 0.25
825 8.10556 9.00276 6.26188 0.5
826 7.13141 2.77927 1.83543 0.25
827 9.0478 5.53649 6.90501 0.25
828 9.64434 3.54794 1.49531 0.25
829 1.049 7.7848 5.1736 0.25
830 4.12938 6.10815 1.78327 0.25
831 2.58406 7.73418 2.62551 0.25
832 3.98543 5.75333 9.17522 0.25
833 6.54747 6.59374 6.54904 0.25
834 8.57311 3.87305 4.14561 0.25
835 1.24007 1.47381 7.16299 0.25
836 6.51697 5.06467 2.14661 0.25
837 3.50336 7.1997 8.85045 0.25
838 2.68458 9.39348 7.42846 0.25
839 0.143481 2.74659 4.2433 0.25
840 9.69501 4.72378 4.35717 0.25
841 5.47418 4.83094 10.1959 0.5
842 7.05798 6.53867 8.9764 0.25
843 0.796417 9.57938 2.24023 0.25
844 6.56358 4.89192 1.65378 0.25
845 8.5543 4.3494 4.01289 0.25
846 1.11758 5.51781 4.61314 0.25
847 8.40339 2.86145 9.94427 0.25
848 3.46171 1.03908 9.99242 0.5
849 6.83573 4.90113 2.48993 0.25
850 4.58802 8.35441 3.08645 0.25
851 4.29348 5.86989 1.39159 0.25
852 5.50703 1.21949 4.22081 0.25
853 8.93456 9.92052 4.13539 0.25
854 2.47172 3.31051 8.32823 0.25
855 3.62088 6.62841 1.36533 0.25
856 9.37292 3.2546 7.62082 0.25
857 6.4855 3.68501 4.76923 0.25
858 7.91524 6.85256 4.091 0.25
859 9.48556 1.08777 1.47201 0.25
860 2.91906 10.0704 4.01945 0.25
861 4.17147 9.66341 1.7783 0.25
862 7.57613 1.27513 8.50242 0.5
863 0.156913 2.84 9.53157 0.25
864 3.53913 3.39874 2.94182 0.25
865 0.583344 6.74062 5.19585 0.25
866 2.79251 1.22239 10.3377 0.25
867 3.065 7.6297 10.1675 0.25
868 9.19281 1.42486 1.19366 0.25
869 0.613722 8.38743 4.88568 0.25
870 7.27958 6.86945 8.63386 0.25
871 7.44508 2.9424 2.2121 0.25
872 8.09536 1.6307 7.71398 0.5
873 5.26773 9.95396 5.47838 0.25
874 6.6511 9.14826 4.81664 0.25
875 3.82109 7.89143 5.18771 0.25
876 3.78796 5.85454 1.54295 0.25
877 0.689198 2.28435 3.7922 0.25
878 0.0130648 0.52791 9.16598 0.25
879 0.935432 7.41901 4.80072 0.25
880 5.55835 4.03242 5.04682 0.25
881 3.96155 6.59339 8.94185 0.5
882 10.1179 0.291397 5.69641 0.25
883 5.06232 3.19635 5.33644 0.25
884 2.65949 1.87203 2.25382 0.5
885 8.57896 10.232 3.45793 0.25
886 9.22819 8.60144 1.48936 0.25
887 1.03532 6.21412 7.72838 0.25
888 1.99409 0.501726 1.45971 0.25
889 4.73494 5.26669 8.44024 0.25
890 0.798769 3.80034 6.11458 0.25
891 4.05018 3.35528 3.00296 0.25
892 6.28658 8.7264 2.97255 0.25
893 7.52653 3.08382 10.2646 0.25
894 1.8338 7.88086 0.297851 0.25
895 9.34961 3.69819 7.4181 0.25
896 9.72312 1.30325 1.11936 0.25
897 2.93989 7.50195 6.38549 0.25
898 1.03876 5.03483 5.19493 0.5
899 0.187235 0.565174 6.77142 0.25
900 8.81219 7.4032 3.60131 0.25
901 0.683384 8.09669 5.36616 0.25
902 5.49884 1.47287 0.980979 0.25
903 8.51555 6.93373 4.66802 0.25
904 1.4503 6.19323 0.214889 0.5
905 9.04408 0.981498 1.34818 0.25
906 9.58814 9.40717 3.97325 0.25
907 4.66918 3.71884 2.64251 0.25