ITEM: TIMESTEP
200000
ITEM: NUMBER OF ATOMS
1000
ITEM: BOX BOUNDS xy xz yz pp pp pp
0.0000000000000000e+00 1.0357442000000001e+01 0.0000000000000000e+00
0.0000000000000000e+00 1.0357442000000001e+01 0.0000000000000000e+00
0.0000000000000000e+00 1.0357442000000001e+01 0.0000000000000000e+00
ITEM: ATOMS id x y z radius
1 1.26532 4.32496 2.86297 0.5
2 2.25282 7.35456 2.37308 0.5
3 4.89794 1.96533 1.04113 0.25
4 0.672117 1.90142 3.64141 0.25
5 10.2565 3.2052 7.60781 0.25
6 0.551118 2.93995 9.64041 0.25
7 4.61578 0.716671 2.87673 0.25
8 8.54103 3.86204 2.11708 0.25
9 9.73389 1.03796 1.68634 0.25
10 8.60525 7.09808 4.5723 0.25
11 9.87005 8.29359 1.57755 0.25
12 7.70851 2.60256 9.97709 0.25
13 4.00998 7.81848 6.2377 0.25
14 5.43879 1.7366 -0.0503802 0.25
15 9.23316 6.15365 6.08598 0.25
16 8.79991 8.65611 6.51419 0.25
17 5.31537 9.36991 8.35287 0.5
18 2.66692 8.06683 9.41032 0.25
19 7.30911 4.02614 5.00202 0.25
20 9.18415 0.697914 1.07949 0.25
21 0.402799 10.1278 9.681 0.25
22 4.20584 0.952471 2.73821 0.25
23 3.73188 3.70698 2.48808 0.25
24 2.96096 2.6574 4.36789 0.25
25 8.05279 2.43192 5.98794 0.25
26 5.75663 2.50502 8.7018 0.25
27 1.0757 7.77499 9.68923 0.25
28 9.51887 6.45285 6.28167 0.25
29 3.99355 8.20317 5.96073 0.25
30 1.10997 8.97435 7.73716 0.25
31 0.71768 7.33324 5.50948 0.25
32 9.14405 6.5818 1.47398 0.25
33 9.70999 8.70684 1.80566 0.25
34 0.760467 2.75556 10.3532 0.25
35 7.42181 2.36177 10.298 0.25
36 8.30423 8.83894 9.19386 0.25
37 2.82057 4.67622 6.21437 0.25
38 7.17407 0.624494 1.03528 0.25
39 6.04089 3.94281 4.33116 0.25
40 8.27506 4.9723 4.3227 0.25
41 7.85987 7.3982 4.37286 0.25
42 6.26477 9.30984 2.6234 0.5
43 0.741263 8.6261 5.53478 0.25
44 3.01782 9.64317 4.07653 0.25
45 7.55563 6.78148 9.20458 0.25
46 1.15609 9.15302 7.28851 0.25
47 4.12061 8.63812 3.85964 0.25
48 3.08881 10.1293 4.19573 0.25
49 4.70156 6.04123 9.18232 0.25
50 10.3245 9.54957 3.62242 0.25
51 8.99894 8.70251 0.895342 0.25
52 5.8153 7.70284 0.199181 0.25
53 6.43681 4.73162 1.6359 0.25
54 4.35302 4.85613 7.7384 0.25
55 6.4328 7.36821 6.60651 0.25
56 5.21542 1.88972 1.41386 0.25
57 5.11091 1.45188 0.217614 0.25
58 5.92777 4.26075 0.322985 0.25
59 3.89775 7.08864 9.28003 0.25
60 7.15964 6.64478 9.5397 0.25
61 3.70707 0.197362 8.50935 0.25
62 9.45064 5.98429 6.47897 0.25
63 0.658656 5.33311 4.46647 0.25
64 9.91201 1.47523 1.67421 0.25
65 6.6766 6.58768 6.83987 0.25
66 4.15813 0.529 3.08082 0.25
67 9.35666 5.52358 9.38521 0.25
68 6.14885 0.0351746 10.2051 0.25
69 2.85706 7.13768 2.68274 0.25
70 3.86225 5.8481 3.7826 0.25
71 1.15495 8.27256 1.92485 0.25
72 5.77297 6.68796 3.52683 0.25
73 9.22661 8.88179 7.27118 0.5
74 2.69854 7.60389 2.96686 0.25
75 0.806573 5.85623 0.74057 0.25
76 2.07387 8.46194 0.245226 0.25
77 7.1212 6.99693 9.17189 0.25
78 4.11578 10.0892 1.39804 0.25
79 1.05133 4.98367 9.69966 0.25
80 8.48256 8.81374 9.64932 0.25
81 8.51099 9.11376 7.2875 0.25
82 1.3219 0.313976 1.7739 0.25
83 1.59137 8.05596 2.03276 0.25
84 5.42067 9.75945 5.14848 0.25
85 4.05729 6.52527 0.981241 0.25
86 9.57088 4.08688 1.89695 0.5
87 1.29103 5.18039 8.31866 0.25
88 3.01376 3.95084 8.09889 0.25
89 0.87165 9.93059 9.68464 0.25
90 6.88516 10.0227 1.52611 0.5
91 4.44172 8.49454 3.48191 0.25
92 9.15807 1.43833 1.27612 0.25
93 8.43524 0.97412 8.24836 0.25
94 0.696464 3.96278 1.82224 0.25
95 7.625 9.26917 5.9189 0.25
96 7.76922 1.21215 6.98073 0.25
97 5.78217 9.83395 5.45637 0.25
98 10.2089 0.508283 5.96525 0.25
99 5.23633 2.1619 8.30168 0.5
100 5.32439 3.10125 5.73088 0.25
101 5.41824 2.22892 9.75322 0.5
102 4.53827 5.33805 8.27766 0.5
103 6.84898 0.223987 0.921199 0.25
104 0.988428 10.278 0.120471 0.25
105 1.82726 4.61068 3.24749 0.25
106 6.03987 6.72109 6.33015 0.25
107 5.71726 10.0021 8.34117 0.25
108 1.64422 4.21284 1.81125 0.25
109 7.25559 2.00522 2.84126 0.25
110 5.68373 9.81511 5.91998 0.25
111 1.96079 4.97742 0.383509 0.25
112 3.19028 5.01373 5.38677 0.25
113 2.20754 9.83628 5.12633 0.25
114 8.57442 6.02003 0.348783 0.25
115 4.90079 3.86977 2.55915 0.25
116 0.131405 2.5016 4.54415 0.25
117 6.77228 2.57381 3.01164 0.5
118 5.86757 8.64028 2.60294 0.25
119 10.0344 2.06893 3.62098 0.25
120 1.5936 5.73904 0.30106 0.25
121 8.31336 2.24677 5.26687 0.5
122 1.60548 4.86543 2.44918 0.25
123 9.30985 9.13494 0.957105 0.25
124 8.34913 6.15487 0.784821 0.25
125 1.47913 0.261122 4.43742 0.25
126 5.91683 7.5094 0.640018 0.25
127 6.01408 7.21105 0.250079 0.25
128 9.45798 9.88336 4.40032 0.25
129 1.65636 5.05886 3.41549 0.25
130 8.78728 9.23574 0.921759 0.25
131 6.77242 1.88376 2.792 0.25
132 8.41349 4.09997 4.14696 0.25
133 8.20026 9.18645 9.54624 0.25
134 3.8363 3.25466 2.32579 0.25
135 6.06628 9.55483 7.81141 0.5
136 8.64267 8.88412 6.91629 0.25
137 1.20932 8.7681 2.03055 0.25
138 7.02991 4.4886 4.33183 0.25
139 7.02145 4.63052 7.50559 0.5
140 4.20317 8.18676 3.19149 0.25
141 1.94459 1.95585 1.55452 0.25
142 2.86225 3.00291 4.74491 0.25
143 8.21725 1.19357 3.33513 0.25
144 10.0387 6.2447 2.62762 0.25
145 3.67944 8.20707 6.29911 0.25
146 7.36263 8.51524 1.91104 0.25
147 4.29397 5.78143 3.94719 0.25
148 2.32975 1.50647 10.1265 0.25
149 0.161661 7.7346 8.9653 0.25
150 4.51929 5.26151 7.52093 0.25
151 6.82329 9.77504 9.84276 0.25
152 4.18947 9.865 0.953273 0.25
153 5.30657 1.95759 7.6438 0.25
154 5.2875 9.67501 7.67546 0.25
155 3.60308 5.55377 1.57307 0.25
156 1.085 8.66022 7.36605 0.25
157 4.88263 1.36249 3.95745 0.25
158 9.0298 9.0022 6.18009 0.25
159 3.29909 2.81442 5.55325 0.25
160 2.73649 3.537 8.02447 0.25
161 3.28688 0.371677 8.70298 0.25
162 4.05191 2.20545 6.14195 0.5
163 7.17088 9.91641 2.20345 0.25
164 5.40939 8.61186 8.3014 0.25
165 0.324593 2.92215 10.0488 0.25
166 7.2432 4.02832 6.49484 0.25
167 8.9418 10.2676 3.82187 0.25
168 9.83224 7.79299 9.39606 0.25
169 8.92516 6.41077 7.49412 0.25
170 3.50521 0.0304467 8.98385 0.25
171 1.53217 8.44425 7.19833 0.25
172 9.50519 5.98914 6.99165 0.25
173 0.983222 2.32232 3.53933 0.25
174 4.94296 1.70096 6.38657 0.25
175 9.86922 2.9142 7.68361 0.25
176 0.772638 5.43676 0.456102 0.25
177 9.13821 6.03138 7.31611 0.25
178 7.71583 2.58408 5.62273 0.25
179 3.08495 9.98538 7.68177 0.25
180 6.70655 8.94022 1.9017 0.5
181 0.621387 4.16753 5.64014 0.25
182 7.44304 0.809584 3.47482 0.25
183 2.60321 0.121923 4.98575 0.25
184 9.16877 4.95035 9.96726 0.25
185 9.31816 8.72697 6.49938 0.25
186 2.46323 8.06083 9.87777 0.25
187 3.42602 3.89024 0.461202 0.25
188 5.2161 2.45231 7.58808 0.25
189 9.71714 0.388197 6.03473 0.25
190 2.54965 7.87759 3.30018 0.25
191 5.37898 2.79219 8.82251 0.25
192 9.46232 9.20484 6.52257 0.25
193 5.28661 2.81893 9.3368 0.25
194 3.70768 9.9919 1.09317 0.25
195 5.36159 5.11605 9.60404 0.25
196 4.9496 1.72629 10.173 0.25
197 8.97037 6.5315 6.76327 0.5
198 7.69493 1.97172 7.08005 0.5
199 6.78882 10.2748 9.76379 0.25
200 7.16975 1.30465 6.36285 0.25
201 6.32122 6.88302 6.68396 0.25
202 3.92892 7.79433 5.24377 0.25
203 4.34292 8.84683 0.32908 0.25
204 10.3454 3.83224 6.16826 0.25
205 3.99046 0.533971 6.3779 0.25
206 0.60543 2.61384 4.48736 0.25
207 1.2031 5.21833 3.98049 0.5
208 2.80938 5.16396 6.14297 0.25
209 7.45005 8.96372 2.06036 0.25
210 3.93146 0.0310303 6.41183 0.25
211 1.14917 5.02362 2.69002 0.25
212 0.134236 3.63236 2.16592 0.5
213 8.59375 3.63211 1.662 0.25
214 3.42817 4.76349 5.71838 0.25
215 9.96616 0.627109 9.11301 0.25
216 5.67086 2.10783 0.71858 0.25
217 0.737105 8.2333 5.21837 0.25
218 2.36042 2.24056 2.08254 0.5
219 0.744136 4.08361 6.0895 0.25
220 6.76827 9.92621 2.53318 0.25
221 9.00369 7.12543 4.23735 0.25
222 9.73661 6.34102 6.74158 0.25
223 5.76708 9.43377 5.15561 0.25
224 10.2866 4.11197 7.34544 0.25
225 7.77586 1.75649 5.35823 0.25
226 6.71993 9.24205 5.07632 0.25
227 7.3188 0.171396 1.17851 0.25
228 5.00262 1.60826 0.689088 0.25
229 1.75626 1.34976 2.18581 0.25
230 7.81533 7.20326 3.92227 0.25
231 7.85712 3.97723 7.22679 0.25
232 6.78712 9.62092 2.15212 0.25
233 8.06898 1.71132 8.42523 0.5
234 3.57113 9.17722 1.402 0.25
235 1.38111 8.8504 6.99111 0.25
236 1.25665 5.56753 0.589771 0.25
237 8.19539 1.30512 3.81469 0.25
238 1.22599 5.90747 4.19304 0.25
239 0.314706 2.7021 9.25189 0.25
240 1.29291 8.33193 2.6048 0.5
241 1.42467 9.00539 2.4235 0.25
242 3.2851 8.003 6.49942 0.25
243 1.15489 6.53145 0.494628 0.25
244 1.00953 1.52601 7.47812 0.25
245 6.79209 7.08845 6.84569 0.25
246 1.2768 8.09925 10.0944 0.25
247 3.00997 7.15361 2.19108 0.25
248 5.28669 1.86695 9.05881 0.25
249 7.11303 4.01753 4.54462 0.25
250 7.54255 1.47959 6.59999 0.25
251 1.63974 1.28119 6.95701 0.25
252 6.94013 7.38938 8.25076 0.25
253 3.75851 7.73461 8.7201 0.25
254 0.772585 8.6087 2.09183 0.25
255 0.998802 10.2814 1.7973 0.25
256 3.4936 6.0801 4.57418 0.25
257 1.14044 10.2504 10.0141 0.25
258 5.02597 4.8608 7.01063 0.25
259 1.94406 9.88781 4.69698 0.25
260 1.40382 10.1037 0.0166259 0.25
261 6.71053 6.77806 9.29596 0.25
262 5.80425 7.12922 3.7059 0.25
263 8.247 8.40426 9.44648 0.25
264 7.4945 9.35739 9.67362 0.5
265 4.27538 3.60488 3.0371 0.25
266 4.59274 4.3505 3.21057 0.25
267 4.10146 7.77003 5.75352 0.25
268 3.57487 7.69694 6.30101 0.25
269 7.70245 9.00884 5.50643 0.25
270 3.8335 7.3683 6.00447 0.25
271 3.67017 9.98624 1.62426 0.25
272 6.45019 7.10348 5.5246 0.25
273 9.3675 3.41243 6.89912 0.25
274 3.23841 4.87279 6.19311 0.25
275 10.2213 6.55181 3.0181 0.25
276 8.83489 0.928549 7.88328 0.25
277 3.03803 10.1832 8.37331 0.5
278 4.00091 5.83607 8.53519 0.25
279 3.76842 0.449938 8.92405 0.25
280 2.81715 0.499551 8.80401 0.25
281 4.86932 8.28747 3.57031 0.25
282 4.70946 0.473586 3.74959 0.25
283 9.57904 10.286 9.03141 0.25
284 1.72011 5.37343 0.614858 0.25
285 8.75991 6.75222 1.36323 0.25
286 10.1959 1.09972 1.85441 0.25
287 2.33307 7.92693 2.84217 0.25
288 1.48642 5.7191 4.62071 0.25
289 8.83436 0.702338 1.46276 0.25
290 9.30766 3.61344 2.374 0.25
291 7.63496 2.8212 0.0157694 0.25
292 3.88633 9.63261 1.32771 0.25
293 4.6352 2.54022 7.06207 0.5
294 0.196313 6.37438 2.70005 0.25
295 7.00385 1.14664 7.06245 0.5
296 3.10799 3.12261 4.34312 0.25
297 0.69165 7.88753 4.83367 0.25
298 4.303 9.76528 0.474996 0.25
299 8.7392 5.15275 9.78731 0.25
300 1.97351 0.309654 4.24895 0.25
301 4.58594 8.53572 8.5336 0.25
302 5.20532 4.73583 7.46597 0.25
303 8.91935 5.41097 0.172558 0.5
304 4.569 3.64913 2.25017 0.25
305 1.96036 8.06061 2.42419 0.25
306 10.3217 8.03161 9.33176 0.25
307 1.00212 9.8535 10.1981 0.25
308 8.96986 5.86688 6.39846 0.25
309 8.59237 1.31833 8.659 0.25
310 6.27576 6.39442 6.54369 0.25
311 1.72437 10.1139 2.20526 0.25
312 8.94738 0.730365 8.65048 0.5
313 1.16604 7.75682 2.07705 0.25
314 0.338007 4.31639 1.83641 0.25
315 3.24407 0.655061 9.42026 0.5
316 6.55955 3.6355 7.67775 0.25
317 6.07423 9.7298 8.54733 0.25
318 10.1653 7.73394 9.73526 0.25
319 0.122583 10.0709 3.59856 0.25
320 1.19524 2.46877 0.0842471 0.25
321 1.74478 1.75584 1.95115 0.25
322 0.900176 7.05815 5.01955 0.25
323 6.42966 10.0405 9.16393 0.5
324 7.05494 1.97582 3.3083 0.25
325 8.9397 3.61572 2.00282 0.25
326 3.00383 9.94813 3.68419 0.25
327 1.59992 8.90568 7.90202 0.25
328 4.64035 3.52278 2.69329 0.25
329 8.51249 7.6783 4.1219 0.5
330 9.78163 6.60199 2.73579 0.25
331 9.23647 0.306611 3.83107 0.25
332 5.52416 7.3924 0.952976 0.25
333 9.73333 7.40648 9.08367 0.25
334 6.15812 5.08415 1.42879 0.25
335 5.59437 4.54725 0.553817 0.25
336 9.099 3.62145 1.56907 0.25
337 4.50067 6.03172 8.41415 0.25
338 6.00436 8.72177 2.14805 0.25
339 3.84157 5.88263 8.99298 0.25
340 0.363626 2.44073 10.1683 0.25
341 3.91595 5.95776 4.30502 0.25
342 9.46052 3.60064 7.388 0.25
343 10.0476 2.59186 4.31157 0.25
344 4.20457 0.401331 3.61006 0.25
345 6.64988 4.69334 10.112 0.25
346 1.40489 1.48441 7.70502 0.25
347 3.48477 4.06195 10.0139 0.25
348 6.2842 7.1839 0.706025 0.25
349 5.05208 1.62867 7.83067 0.25
350 2.66963 3.26532 8.43179 0.25
351 6.15013 6.55799 3.26217 0.25
352 8.33902 6.64968 1.57686 0.25
353 9.82473 3.97724 7.46472 0.25
354 9.85604 3.3546 1.81833 0.25
355 2.90659 1.70745 2.11422 0.25
356 4.40659 9.11224 1.18151 0.25
357 3.66837 5.10543 6.02081 0.25
358 4.53467 9.50409 0.866768 0.25
359 9.06324 6.41641 0.762026 0.5
360 4.36085 0.250974 6.23616 0.25
361 0.0253564 0.926843 6.15348 0.25
362 9.82503 7.36875 9.61374 0.25
363 7.05994 2.17967 2.47676 0.25
364 10.2906 6.68385 1.98645 0.25
365 6.2735 9.43225 4.97682 0.25
366 8.87606 4.03428 1.80313 0.25
367 3.86122 0.376674 9.76575 0.25
368 9.56499 5.93494 7.494 0.25
369 9.07752 4.33113 4.00975 0.5
370 4.78734 1.55916 7.13999 0.5
371 9.56542 6.43435 2.03738 0.5
372 1.20014 2.16317 4.22724 0.5
373 3.81256 0.199109 9.32896 0.25
374 3.00217 0.0583728 9.06245 0.25
375 4.80779 0.840771 4.05552 0.25
376 0.771472 5.79397 4.27842 0.25
377 10.2088 7.53434 9.28636 0.25
378 9.28242 8.27078 0.79757 0.25
379 0.39537 3.85897 6.39417 0.25
380 2.03852 2.26187 4.2986 0.25
381 6.62752 5.28563 2.06553 0.5
382 2.21826 8.44202 10.1295 0.25
383 5.68226 8.44591 7.91893 0.25
384 1.39653 6.3775 7.31765 0.25
385 1.27535 7.11559 4.59658 0.25
386 1.57567 5.57506 7.5969 0.25
387 1.52948 5.88748 7.21967 0.25
388 2.17339 1.21238 2.40183 0.25
389 5.71262 2.011 1.20946 0.25
390 3.34427 4.23883 0.129739 0.25
391 3.67049 0.345778 6.71413 0.25
392 0.598587 5.67976 4.81776 0.25
393 8.8083 8.38343 6.88999 0.25
394 0.129516 0.326884 6.37202 0.25
395 1.93669 4.66416 2.72923 0.25
396 2.55751 0.807506 9.1567 0.25
397 7.45368 2.29403 3.22104 0.25
398 9.18262 4.73719 9.0988 0.25
399 2.80006 9.59318 7.9529 0.25
400 8.19167 2.44234 9.89842 0.25
401 5.90551 7.0601 3.22751 0.25
402 4.32873 5.78978 8.85385 0.25
403 5.98603 4.7889 0.320144 0.25
404 8.39257 3.17582 9.52779 0.25
405 1.25752 6.06203 0.62991 0.25
406 6.60519 9.67791 5.28385 0.25
407 6.7856 6.84615 8.84654 0.25
408 9.853 8.69935 1.32038 0.25
409 10.3389 6.22448 2.24449 0.25
410 5.73546 1.16078 3.88712 0.25
411 7.71939 8.65755 9.96325 0.25
412 4.8367 2.12531 7.64779 0.25
413 7.42698 2.45536 2.71271 0.25
414 7.29918 5.33714 2.50319 0.25
415 4.33142 1.12483 3.48782 0.5
416 9.87359 0.169542 9.34332 0.25
417 3.3603 7.84731 5.71947 0.5
418 0.901215 1.32739 6.74806 0.5
419 9.06941 0.0578278 3.37621 0.25
420 5.32486 8.75261 7.83651 0.25
421 9.68668 6.72261 7.08386 0.25
422 2.51538 7.10807 2.9985 0.25
423 1.59425 4.96638 2.94568 0.25
424 0.387421 0.161062 9.39356 0.25
425 2.35119 0.186274 4.58415 0.25
426 2.47186 1.63085 2.42155 0.25
427 7.11716 1.7742 6.59098 0.25
428 6.35497 9.57364 1.89276 0.25
429 5.44041 9.18942 7.66451 0.25
430 9.53751 9.46186 4.09005 0.25
431 7.15667 10.182 0.862348 0.25
432 2.5382 7.67746 9.5988 0.25
433 2.87665 2.93266 5.21931 0.25
434 5.72213 9.91792 8.86326 0.25
435 0.383224 3.23591 9.20932 0.25
436 6.45119 4.91148 0.200059 0.25
437 1.38095 5.74081 9.69229 0.25
438 7.51758 1.00522 6.55484 0.25
439 9.73995 10.0937 3.68907 0.5
440 2.29162 2.85306 7.93161 0.5
441 0.939883 3.87364 2.23089 0.25
442 5.34068 7.68728 0.116961 0.25
443 9.94387 9.72892 4.28637 0.25
444 1.22368 3.87984 1.76091 0.25
445 5.70341 6.66698 3.01097 0.25
446 8.4266 4.70499 4.71171 0.25
447 6.16046 4.89305 10.1804 0.25
448 5.17641 0.935951 3.38336 0.5
449 9.87523 0.893202 5.93897 0.25
450 2.85366 1.96848 1.62533 0.25
451 2.86864 3.5601 10.2915 0.25
452 5.74385 4.36868 5.00052 0.25
453 7.51704 4.48357 8.01518 0.25
454 1.52035 5.95159 8.70122 0.25
455 1.23183 5.61041 7.97757 0.25
456 1.96917 1.67726 2.41592 0.25
457 9.11626 8.35058 1.48047 0.5
458 1.98338 5.84635 7.4106 0.25
459 1.64614 1.30556 6.51427 0.25
460 2.22018 6.26916 7.44811 0.25
461 3.98116 6.50255 1.7883 0.25
462 4.30925 6.53801 1.43211 0.25
463 1.55326 10.1029 4.52019 0.25
464 9.64683 1.36319 1.29818 0.25
465 7.24137 5.81251 2.27125 0.25
466 5.1741 5.4584 7.37904 0.5
467 3.62237 4.80231 5.25822 0.25
468 2.42024 1.95646 1.40411 0.25
469 4.10353 3.62078 2.10621 0.25
470 3.86758 3.84256 2.99546 0.25
471 2.93139 9.76662 4.56248 0.25
472 1.82569 2.24294 7.72699 0.25
473 2.96296 8.14602 9.81227 0.25
474 8.97795 3.97159 2.3473 0.25
475 8.54069 7.4063 3.38979 0.25
476 4.30819 6.11438 1.14009 0.25
477 10.3728 9.78513 4.02518 0.25
478 8.71417 5.9973 1.42742 0.5
479 6.879 0.585823 0.614346 0.25
480 2.35701 7.62579 10.046 0.25
481 4.05266 9.24648 1.54188 0.25
482 6.62529 10.098 5.58777 0.25
483 6.85593 10.2722 0.1577 0.5
484 9.86261 3.39641 7.49251 0.25
485 8.18265 3.29112 9.96767 0.25
486 4.02504 8.18145 3.64614 0.25
487 3.78018 3.96859 0.0660081 0.25
488 6.40316 9.96614 2.16692 0.25
489 9.12196 7.90567 3.92496 0.25
490 2.81631 3.34152 7.60381 0.25
491 9.00481 9.09102 6.65593 0.25
492 7.93951 2.42211 10.3734 0.25
493 9.51979 3.12121 7.23589 0.25
494 8.50964 4.55369 4.28502 0.25
495 10.0017 2.96582 7.23361 0.25
496 4.44601 1.64813 6.40309 0.25
497 3.2257 3.68262 9.90839 0.25
498 7.7412 1.21096 8.85178 0.25
499 3.39985 9.62956 1.35511 0.25
500 4.31653 7.26504 9.05205 0.25
501 2.46023 9.65031 4.73398 0.25
502 9.14201 5.76078 6.83994 0.25
503 6.28501 8.62579 2.9124 0.25
504 5.53964 7.3214 0.424759 0.25
505 7.51048 1.92139 5.98772 0.5
506 5.73866 10.2807 5.66298 0.25
507 6.32795 8.6083 2.41521 0.25
508 4.68362 8.34038 8.07008 0.25
509 1.62062 9.27438 7.14837 0.25
510 5.83817 3.9614 5.31852 0.25
511 4.20677 0.256066 6.73919 0.25
512 2.06123 4.9758 3.1366 0.25
513 1.88265 5.40701 0.142451 0.25
514 3.99978 2.31104 5.38151 0.25
515 2.07893 1.53361 7.47297 0.5
516 6.218 9.29674 5.73343 0.5
517 8.95913 7.63016 3.51535 0.25
518 2.7777 1.19372 9.37657 0.25
519 2.71759 9.95639 5.04228 0.25
520 5.266 2.13286 7.17918 0.25
521 0.814691 4.48427 5.39008 0.25
522 2.32709 10.12 4.80768 0.25
523 2.26281 3.50701 8.17683 0.25
524 7.65264 1.96302 4.8812 0.25
525 2.24524 6.6992 7.25109 0.25
526 1.62745 5.54264 8.39603 0.25
527 7.2536 9.32311 2.7171 0.5
528 7.20151 8.70167 2.37589 0.25
529 4.0734 5.63252 0.916603 0.25
530 1.58656 7.69963 2.40401 0.25
531 0.813767 2.93759 9.24081 0.25
532 1.41026 7.62229 10.0389 0.25
533 9.14338 9.81102 4.00825 0.25
534 8.84628 4.53089 4.68612 0.25
535 7.38113 7.21219 8.39096 0.25
536 4.5235 9.36455 0.378392 0.25
537 7.89119 0.96603 3.68409 0.25
538 7.61359 4.39227 7.16568 0.25
539 10.1127 3.59195 6.8929 0.5
540 5.9979 10.3006 8.59016 0.25
541 9.49413 8.68029 0.980535 0.25
542 7.81966 9.67204 5.98626 0.25
543 9.58295 4.85146 4.09039 0.25
544 1.68221 2.09607 7.21987 0.25
545 10.3151 9.83553 3.20577 0.25
546 0.339636 0.762405 6.53202 0.25
547 9.38611 3.36361 1.91599 0.25
548 9.0999 5.25486 9.04467 0.25
549 1.29602 0.0165231 2.18913 0.25
550 9.76536 8.26622 1.04429 0.25
551 2.62032 7.38129 3.44149 0.25
552 9.22666 9.52484 6.87687 0.25
553 5.07401 2.80029 5.38008 0.25
554 9.23599 4.83405 4.45687 0.25
555 5.7756 8.80989 7.55612 0.25
556 1.89239 8.83544 7.11926 0.25
557 2.38656 9.85151 8.14363 0.25
558 3.19074 3.57498 7.86321 0.25
559 9.64391 0.981443 9.01328 0.25
560 3.19441 5.2375 5.83779 0.25
561 0.821856 3.51647 1.89695 0.25
562 5.11643 4.70131 9.51275 0.25
563 5.90563 10.3258 8.06626 0.25
564 1.39321 1.66615 7.20825 0.25
565 2.66095 2.42484 1.49363 0.25
566 9.87174 6.23802 7.20372 0.25
567 0.791516 6.32264 0.636113 0.25
568 7.555 2.25257 5.31267 0.25
569 7.17014 3.75648 7.21834 0.5
570 4.3899 3.24041 2.32601 0.25
571 4.25175 4.01033 3.31599 0.25
572 8.18792 1.36214 9.05024 0.25
573 1.41312 6.90211 5.03822 0.25
574 0.241308 0.95615 7.00195 0.25
575 5.76108 4.23312 4.55231 0.25
576 5.34335 1.8047 0.930129 0.25
577 0.724297 7.73887 5.79441 0.25
578 1.24568 4.98226 0.129921 0.5
579 4.93675 5.25792 6.68963 0.25
580 8.02045 7.51147 3.59386 0.25
581 7.03679 6.47487 8.59136 0.25
582 7.15845 4.46935 4.82042 0.25
583 8.71684 6.23317 6.16643 0.25
584 5.35065 6.54923 3.39137 0.25
585 7.28897 0.269545 0.68611 0.25
586 1.77488 2.13725 4.7326 0.25
587 6.1322 10.049 5.76756 0.25
588 3.08764 0.984365 10.2091 0.25
589 10.0462 3.6934 1.52412 0.25
590 9.21793 7.39097 3.88199 0.25
591 3.78625 2.65848 5.59487 0.25
592 6.34655 5.99837 2.16802 0.25
593 5.50236 9.44605 5.5485 0.25
594 8.53115 5.96948 10.1939 0.25
595 1.39443 1.93173 7.65717 0.25
596 9.50115 9.00608 1.40224 0.25
597 4.3574 0.604786 4.02378 0.25
598 5.4724 7.73984 0.606785 0.25
599 10.1127 1.16566 1.3945 0.25
600 3.72662 9.84216 2.11704 0.25
601 7.27192 9.47273 1.96233 0.25
602 6.24502 8.9785 3.33809 0.25
603 2.22049 6.69212 7.76534 0.25
604 8.94491 0.879823 0.65225 0.25
605 1.84743 7.7816 2.83244 0.25
606 2.08553 2.04202 6.9224 0.25
607 2.27616 2.11408 7.85327 0.25
608 6.10041 6.16836 5.83999 0.5
609 3.84863 6.76297 1.39412 0.25
610 6.37024 4.55266 0.878975 0.5
611 8.46883 8.59182 7.22531 0.25
612 8.52441 0.585071 3.6416 0.5
613 7.72147 3.12722 9.97844 0.25
614 9.60493 6.64823 1.27464 0.25
615 6.81564 3.99778 7.86783 0.25
616 1.63812 1.7516 6.85479 0.25
617 3.01267 3.13889 8.08277 0.25
618 8.49588 2.89566 9.91265 0.25
619 0.932052 9.00879 2.37303 0.25
620 6.92032 5.11318 2.74014 0.25
621 6.89924 4.6358 1.47634 0.25
622 7.40358 6.67249 8.29198 0.25
623 7.75887 4.38702 4.43894 0.5
624 4.96297 8.66863 8.17169 0.25
625 5.72155 2.03461 0.189435 0.25
626 2.59906 3.01395 4.27991 0.25
627 6.4852 5.26396 2.80918 0.25
628 1.29471 10.3395 0.472033 0.25
629 7.23566 10.0231 9.87036 0.25
630 6.31124 7.67067 0.813633 0.25
631 8.02291 1.6421 4.92798 0.25
632 3.33319 3.77996 0.0149916 0.25
633 2.98194 4.01371 10.1032 0.25
634 4.40244 7.77338 8.52794 0.5
635 9.43096 6.37379 7.38978 0.25
636 8.68136 5.64772 9.78882 0.25
637 6.73763 9.70724 4.84082 0.25
638 2.36737 9.9906 4.04783 0.5
639 7.20365 2.64088 2.31727 0.25
640 7.65102 1.67106 7.78185 0.25
641 3.56075 6.23639 4.075 0.25
642 3.85855 7.39471 6.56062 0.25
643 2.42588 1.19818 0.105029 0.25
644 6.12547 10.1398 4.96364 0.5
645 3.10201 3.50812 0.343804 0.25
646 8.26693 7.10614 3.78038 0.25
647 6.85411 6.27018 5.57427 0.25
648 7.52745 1.31039 7.46556 0.25
649 4.79523 5.90568 8.77071 0.25
650 7.91235 0.860565 3.2085 0.25
651 5.17956 8.28494 7.9884 0.25
652 1.18229 5.71145 8.47271 0.25
653 1.03714 4.83906 5.67358 0.25
654 1.85576 6.28924 7.15266 0.25
655 10.2682 4.1408 1.64331 0.25
656 4.7333 4.8383 7.39423 0.25
657 8.9922 9.47003 6.45173 0.25
658 7.63471 4.19506 7.6099 0.25
659 8.86522 0.269336 4.17987 0.25
660 1.70363 6.16376 7.97488 0.5
661 2.19938 7.51389 3.1318 0.25
662 8.01481 9.36796 5.62337 0.25
663 2.59231 0.330478 9.23092 0.25
664 1.24183 2.94471 10.2159 0.25
665 8.36748 6.57158 1.06472 0.25
666 5.47864 10.0549 7.92536 0.25
667 8.68051 3.36544 9.94344 0.25
668 8.11771 2.83411 5.70492 0.25
669 3.24292 7.5571 9.33483 0.5
670 0.0693182 3.02734 9.57832 0.25
671 1.02526 6.31942 4.82246 0.5
672 6.01877 6.86292 5.39658 0.25
673 4.35811 9.59116 1.33007 0.25
674 7.07947 4.40249 5.34549 0.25
675 8.12209 8.85677 7.51013 0.25
676 5.04119 2.25598 0.34176 0.5
677 9.65086 3.724 7.83221 0.25
678 9.90584 0.724599 6.70342 0.5
679 2.14001 2.28261 7.38968 0.25
680 2.75689 6.7618 2.3579 0.25
681 8.74571 9.40962 6.89656 0.25
682 3.66049 8.18159 5.07814 0.25
683 0.817242 3.10005 10.0048 0.25
684 1.89084 8.57471 7.55378 0.25
685 8.59932 10.2004 3.42912 0.25
686 6.23912 0.153932 5.5794 0.25
687 9.4825 3.23624 7.7274 0.25
688 6.71282 7.49617 0.628726 0.25
689 2.50472 2.51296 4.15501 0.25
690 10.1659 7.35183 8.83872 0.25
691 0.52623 8.21079 5.71002 0.25
692 1.05825 4.31574 5.77269 0.25
693 9.55022 2.10331 3.84454 0.25
694 3.61166 3.48899 0.270212 0.25
695 7.28958 1.87001 5.22989 0.25
696 4.93061 1.65884 3.59111 0.25
697 1.53906 8.88083 7.43392 0.25
698 8.68523 5.71205 0.781022 0.25
699 3.97545 8.17097 5.49068 0.25
700 6.56412 7.31063 1.08154 0.25
701 3.61575 5.21807 5.52992 0.25
702 5.55074 3.80792 4.44911 0.25
703 1.76191 0.250466 1.99455 0.25
704 7.46768 4.95206 8.00107 0.25
705 4.22228 5.97777 9.32688 0.25
706 7.6355 0.878927 7.36281 0.25
707 6.91516 6.82514 5.41934 0.25
708 5.46142 7.04472 3.33658 0.25
709 1.07002 4.62607 2.04609 0.5
710 1.31328 4.47014 5.40649 0.25
711 6.51623 4.0778 7.45409 0.25
712 4.48444 7.98175 3.52422 0.25
713 1.4624 4.63211 3.56046 0.25
714 1.9427 10.306 4.45186 0.25
715 2.82074 3.85614 7.66608 0.25
716 8.61555 8.82674 1.16901 0.25
717 4.06884 5.08349 5.30784 0.25
718 5.44685 3.34929 5.04059 0.5
719 5.41088 2.5714 5.04166 0.25
720 5.34309 1.65846 3.29192 0.25
721 3.42985 7.26753 6.30881 0.25
722 3.93299 5.48289 4.12766 0.25
723 6.17211 7.17665 6.20872 0.25
724 9.51661 0.446197 9.03496 0.25
725 3.9646 0.255258 5.96309 0.25
726 3.50466 5.74868 4.15056 0.25
727 4.28045 5.61132 4.42042 0.25
728 1.83568 8.0092 9.57862 0.5
729 8.28769 1.95372 5.96468 0.25
730 8.23211 1.00413 8.63678 0.25
731 1.50919 5.57126 10.1245 0.25
732 3.75967 7.85451 6.67022 0.25
733 9.86457 2.44485 3.81911 0.25
734 8.58428 6.88454 4.05697 0.25
735 3.50529 2.32646 5.5472 0.25
736 9.34875 6.8524 6.22299 0.25
737 0.642135 4.54138 5.90359 0.25
738 5.00519 8.29567 8.46909 0.25
739 3.67067 3.65229 10.0911 0.25
740 8.77811 6.57906 1.85617 0.25
741 6.52376 2.08692 2.46968 0.25
742 5.48606 1.70801 0.48159 0.25
743 10.0001 2.89753 3.9468 0.25
744 2.4517 2.43687 4.87333 0.5
745 0.302422 4.14429 5.96708 0.25
746 6.66414 5.07369 1.3332 0.25
747 7.14898 2.69982 0.213228 0.25
748 7.10274 10.0027 9.44804 0.25
749 7.02467 4.37646 8.16381 0.25
750 4.27444 1.92666 6.79571 0.25
751 2.09965 2.7481 4.24723 0.25
752 9.58277 2.40069 4.28112 0.25
753 0.920659 2.40108 9.75462 0.5
754 8.16095 1.58697 5.6917 0.25
755 8.08065 2.84027 10.1666 0.25
756 5.01686 1.47255 1.16387 0.25
757 0.306811 2.5221 3.86358 0.5
758 1.63817 10.3251 4.0698 0.25
759 5.2843 2.80848 7.96339 0.25
760 4.71537 1.1789 2.85293 0.25
761 6.1267 6.89827 5.8531 0.25
762 0.228352 3.3901 6.28479 0.25
763 6.49157 4.15571 4.89287 0.5
764 5.7098 6.27588 3.24185 0.25
765 7.05961 7.2709 8.73124 0.25
766 1.18076 4.97209 3.22324 0.25
767 7.28124 2.99944 2.6413 0.25
768 5.18711 2.41551 6.07285 0.5
769 0.736616 2.189 0.0342008 0.25
770 6.79763 6.81333 6.11538 0.5
771 6.53724 7.19171 0.260411 0.25
772 7.27974 9.60281 5.42515 0.5
773 6.22736 4.43686 9.93495 0.25
774 6.74929 8.73503 2.61746 0.25
775 9.99045 7.846 8.95407 0.25
776 4.58121 9.02206 0.716067 0.25
777 0.750242 8.0805 2.14618 0.25
778 3.96084 0.610166 9.35611 0.25
779 10.2187 7.70439 8.54427 0.25
780 4.97331 4.97978 9.86978 0.25
781 5.33779 6.90163 3.78067 0.25
782 9.47045 6.19174 1.37357 0.25
783 4.44905 8.27747 3.89819 0.25
784 3.3617 3.3229 10.2518 0.25
785 8.5928 8.7932 7.68542 0.25
786 6.47919 6.15661 5.19561 0.25
787 6.02239 6.41328 5.19062 0.25
788 4.86618 1.56398 3.10682 0.25
789 6.41334 5.75031 2.59942 0.25
790 5.12795 2.02909 6.69022 0.25
791 9.04647 6.56694 6.03564 0.25
792 4.26477 4.27616 2.5475 0.5
793 10.3247 0.276609 9.13831 0.25
794 2.17073 2.4117 1.41801 0.25
795 1.44654 9.30843 7.61907 0.25
796 1.80542 0.112749 5.15012 0.5
797 9.78482 9.38179 3.59326 0.25
798 9.68369 4.61015 4.4655 0.25
799 3.24212 6.50976 1.83022 0.5
800 9.38597 1.40683 1.71336 0.25
801 6.02095 10.2691 9.75535 0.25
802 5.82088 7.0736 0.729369 0.25
803 9.17181 5.08236 9.49676 0.25
804 4.56803 5.11687 7.033 0.25
805 9.11907 5.1107 4.03767 0.25
806 2.86765 9.59333 7.47683 0.25
807 3.91764 4.83781 5.675 0.25
808 9.15374 5.44844 9.79984 0.25
809 1.50475 5.24027 9.80131 0.25
810 8.11253 2.11781 6.41751 0.25
811 8.73134 4.99061 9.24406 0.25
812 3.917 6.29387 1.43274 0.25
813 1.48726 3.97366 2.21576 0.25
814 1.0393 9.86868 0.345364 0.25
815 3.64834 5.40497 4.80203 0.5
816 6.41655 0.205132 9.84323 0.25
817 3.81509 9.2821 0.770836 0.5
818 8.98651 6.14668 0.0798971 0.25
819 3.99801 5.76402 1.38563 0.25
820 7.7575 4.68797 7.64281 0.25
821 8.12861 8.91814 7.00598 0.25
822 3.81657 3.35353 2.8436 0.25
823 2.1968 9.24586 7.64386 0.5
824 7.22299 4.3824 6.85872 0.25
825 8.30146 9.13028 6.30443 0.5
826 6.88329 3.0714 2.33832 0.25
827 9.7161 6.79572 6.56556 0.25
828 9.5894 3.49974 1.47881 0.25
829 0.923122 7.47304 4.69181 0.25
830 3.83468 6.0519 1.00569 0.25
831 2.63997 6.9532 1.88833 0.25
832 3.99992 5.40182 8.84051 0.25
833 5.95773 7.13977 6.61956 0.25
834 8.66456 4.91894 3.92779 0.25
835 1.3521 1.17049 7.31412 0.25
836 6.74583 4.48428 1.94873 0.25
837 3.85494 7.23748 8.83401 0.25
838 2.61899 9.95166 7.7044 0.25
839 0.155822 1.86108 3.6717 0.25
840 9.31992 4.38318 4.70306 0.25
841 5.52413 4.55073 10.1521 0.5
842 6.95139 6.91075 8.36006 0.25
843 0.786162 9.00497 1.90234 0.25
844 6.57686 4.21706 1.55652 0.25
845 8.77048 4.97182 4.38569 0.25
846 1.0428 5.64109 4.56312 0.25
847 7.59131 2.48132 0.379894 0.25
848 2.40535 0.786583 9.8728 0.5
849 6.79908 6.02282 2.39917 0.25
850 3.9332 8.59809 3.39765 0.25
851 3.54738 6.43967 1.13129 0.25
852 5.3432 1.51531 3.83899 0.25
853 9.26441 10.3088 4.17916 0.25
854 2.41852 3.54075 7.72209 0.25
855 3.78822 5.98392 1.81023 0.25
856 9.9298 3.30202 7.96994 0.25
857 6.16153 3.63666 5.23822 0.25
858 8.218 7.30736 4.7481 0.25
859 9.31739 0.953629 1.43911 0.25
860 2.44309 10.165 5.36602 0.25
861 4.10368 9.72228 1.74875 0.25
862 7.64504 0.933208 8.10924 0.5
863 0.418503 3.36452 9.78512 0.25
864 4.97978 4.26039 2.87085 0.25
865 1.06219 6.9195 5.40186 0.25
866 2.61152 1.51312 9.7433 0.25
867 3.34036 7.85358 10.0533 0.25
868 9.38004 1.09337 0.934386 0.25
869 1.07724 8.2411 4.85466 0.25
870 7.29733 6.86946 8.74914 0.25
871 6.73226 2.55416 2.24712 0.25
872 8.29866 1.33051 7.52707 0.5
873 5.37947 10.2352 5.28177 0.25
874 6.8217 10.1248 5.13177 0.25
875 3.9923 7.40052 5.49123 0.25
876 3.5335 5.97696 1.38938 0.25
877 0.488029 2.09972 4.52959 0.25
878 10.2617 10.3428 9.57368 0.25
879 0.531099 7.83812 5.34067 0.25
880 5.38199 4.03233 4.89275 0.25
881 4.18392 6.54405 8.85235 0.5
882 0.147907 0.0648467 5.94163 0.25
883 5.59261 2.71698 5.48313 0.25
884 2.32908 1.38563 1.71857 0.5
885 9.29173 9.43922 3.64238 0.25
886 9.02329 9.02142 1.33277 0.25
887 1.15537 5.91657 7.53531 0.25
888 1.50738 10.2727 1.73258 0.25
889 4.86166 4.94055 7.78161 0.25
890 0.423307 3.70747 5.90697 0.25
891 4.69917 3.89304 3.07229 0.25
892 6.68385 8.92661 3.13812 0.25
893 8.04786 2.85046 9.69223 0.25
894 1.65468 7.8992 -0.0113972 0.25
895 10.1388 3.71767 7.70756 0.25
896 9.7396 0.84007 1.20631 0.25
897 3.32966 7.56035 6.69803 0.25
898 1.14234 5.13807 5.01197 0.5
899 0.156624 1.21158 6.55403 0.25
900 8.81374 7.18985 3.7563 0.25
901 0.964774 8.21167 5.67375 0.25
902 5.32197 2.28266 1.06806 0.25
903 7.75689 7.73552 3.97354 0.25
904 0.952398 5.96658 10.3462 0.5
905 8.89622 1.11229 1.1532 0.25
906 10.0787 9.37127 4.00118 0.25
907 4.16751 3.59586 2.5859 0.25
908 7.11518 6.52324 9.06553 0.25