ITEM: TIMESTEP
950000
ITEM: NUMBER OF ATOMS
1000
ITEM: BOX BOUNDS xy xz yz pp pp pp
0.0000000000000000e+00 1.0357442000000001e+01 0.0000000000000000e+00
0.0000000000000000e+00 1.0357442000000001e+01 0.0000000000000000e+00
0.0000000000000000e+00 1.0357442000000001e+01 0.0000000000000000e+00
ITEM: ATOMS id x y z radius
1 1.44917 4.29467 2.96589 0.5
2 1.86032 7.77127 2.65617 0.5
3 4.90931 1.47746 0.93451 0.25
4 0.567616 2.66651 4.32826 0.25
5 9.45457 2.94393 7.035 0.25
6 0.381422 2.8449 9.3809 0.25
7 4.30061 1.16325 3.18645 0.25
8 9.00971 4.2474 1.8725 0.25
9 9.91956 1.10038 1.65881 0.25
10 8.10251 7.12711 3.5282 0.25
11 9.87431 8.36953 1.58472 0.25
12 8.18624 2.70872 9.72683 0.25
13 3.54752 7.40187 6.06775 0.25
14 5.39597 2.37816 0.22733 0.25
15 8.61133 5.87986 6.36993 0.25
16 8.81193 8.92064 6.35969 0.25
17 5.31642 8.96894 8.36831 0.5
18 2.35667 7.76824 9.49882 0.25
19 7.13691 4.37296 5.07812 0.25
20 9.3954 1.03442 0.952373 0.25
21 0.378584 10.2153 9.56155 0.25
22 4.36836 1.35277 3.64385 0.25
23 4.76158 3.49684 2.91852 0.25
24 2.89612 2.64588 4.14585 0.25
25 7.46665 2.01902 5.69829 0.25
26 5.41373 2.65122 8.25608 0.25
27 1.68995 8.42864 10.2798 0.25
28 9.03786 6.1043 6.43564 0.25
29 3.63515 7.47547 5.57966 0.25
30 1.18678 8.40362 7.31335 0.25
31 1.49552 7.18451 4.94537 0.25
32 8.94088 6.59685 1.45718 0.25
33 9.82388 8.87571 1.69165 0.25
34 0.506322 2.64623 10.2008 0.25
35 8.47923 2.32142 9.93102 0.25
36 8.49191 9.17514 9.43279 0.25
37 4.27014 4.72465 5.51141 0.25
38 6.87714 0.611547 0.919394 0.25
39 6.4482 3.81973 5.32566 0.25
40 8.60539 4.41871 4.59766 0.25
41 7.68196 7.11187 4.25884 0.25
42 6.83591 8.767 2.14252 0.5
43 0.398714 8.39945 5.72445 0.25
44 3.15147 10.2184 4.95257 0.25
45 7.58316 6.68288 9.01697 0.25
46 1.14228 8.55968 7.75087 0.25
47 4.30783 8.45007 3.6081 0.25
48 2.91007 9.93893 5.32349 0.25
49 4.66659 6.03211 9.00857 0.25
50 10.1678 9.29192 3.94531 0.25
51 9.01285 8.86591 0.89169 0.25
52 6.25478 7.57948 10.3239 0.25
53 6.78439 4.76043 2.21232 0.25
54 4.72923 4.79934 8.24433 0.25
55 5.38688 6.85318 6.58461 0.25
56 5.22797 2.16767 1.23575 0.25
57 5.47858 1.89835 0.458375 0.25
58 6.31273 4.19557 0.509927 0.25
59 3.81554 7.66842 8.80839 0.25
60 7.32546 6.95032 9.35666 0.25
61 3.50731 10.1377 8.98271 0.25
62 9.38946 5.94109 6.76205 0.25
63 0.566629 5.4903 4.96778 0.25
64 9.84454 1.28622 2.1443 0.25
65 6.23869 7.04585 6.74579 0.25
66 4.01204 0.931952 3.4851 0.25
67 9.10112 5.03772 9.05912 0.25
68 6.18392 0.148645 10.3865 0.25
69 2.51991 7.48893 2.6379 0.25
70 3.84394 5.20882 3.77423 0.25
71 1.16161 8.47447 2.72802 0.25
72 5.72446 6.86327 3.53265 0.25
73 9.31171 8.79419 6.96797 0.5
74 2.41019 7.60259 3.15178 0.25
75 0.898414 6.01612 0.786514 0.25
76 1.68121 8.01037 10.0221 0.25
77 7.18229 6.9486 8.88047 0.25
78 3.88086 8.93239 1.60569 0.25
79 0.86276 5.42729 9.81048 0.25
80 8.52196 8.89568 9.88376 0.25
81 8.45495 9.07048 7.60425 0.25
82 2.26899 0.334216 2.26844 0.25
83 1.88544 8.38046 2.26895 0.25
84 5.14311 9.29613 5.27907 0.25
85 3.90408 5.73922 1.0804 0.25
86 9.62493 3.41918 1.90103 0.5
87 1.7546 5.43501 8.18585 0.25
88 2.98164 3.84724 7.8742 0.25
89 0.57039 0.156763 9.90182 0.25
90 7.114 10.3161 1.74852 0.5
91 4.83896 8.57776 3.60394 0.25
92 9.09576 0.941303 1.77009 0.25
93 8.30941 1.02055 8.21552 0.25
94 0.883106 3.87674 2.57283 0.25
95 7.43488 8.74811 6.1265 0.25
96 7.71579 1.0939 6.74866 0.25
97 5.49389 9.56234 5.44032 0.25
98 10.2443 0.596036 6.55882 0.25
99 5.19607 1.92159 8.21579 0.5
100 5.19877 2.98181 5.37197 0.25
101 5.35971 2.38162 9.74032 0.5
102 4.05075 5.18721 8.44798 0.5
103 7.1102 0.729751 1.42643 0.25
104 1.12346 9.8488 9.79369 0.25
105 1.8566 4.79006 3.30589 0.25
106 6.00322 6.2324 6.53717 0.25
107 5.97621 9.91959 8.35147 0.25
108 1.6667 4.41472 1.84443 0.25
109 7.28109 2.70287 2.80199 0.25
110 5.43468 9.63463 5.90865 0.25
111 1.6664 5.77377 0.333149 0.25
112 3.99081 5.13237 5.597 0.25
113 1.90059 10.0337 3.84395 0.25
114 8.41963 6.16627 0.208591 0.25
115 3.61737 4.07373 2.5308 0.25
116 0.21248 1.90211 3.44853 0.25
117 7.11189 2.28112 2.28543 0.5
118 7.30113 8.19393 2.3624 0.25
119 10.0405 2.62286 4.282 0.25
120 1.5592 5.72367 10.18 0.25
121 7.72287 1.88935 4.9915 0.5
122 1.4749 4.9394 2.55385 0.25
123 9.84015 8.64095 0.723998 0.25
124 8.30166 6.09437 0.673028 0.25
125 1.751 9.79726 4.60992 0.25
126 6.36482 7.52808 0.461906 0.25
127 6.13403 7.95533 0.338343 0.25
128 9.26675 9.57325 3.92031 0.25
129 1.39841 4.82675 3.50729 0.25
130 9.41663 8.9759 0.603332 0.25
131 7.38053 3.03085 2.45488 0.25
132 8.4642 4.90201 4.65154 0.25
133 8.29014 9.33808 9.88076 0.25
134 4.82154 3.76488 3.33392 0.25
135 6.24523 9.19019 8.4176 0.5
136 8.52732 8.87956 7.15819 0.25
137 1.53476 9.61592 1.68731 0.25
138 7.01713 4.33782 4.59915 0.25
139 7.15907 3.79579 7.75141 0.5
140 4.60565 8.27195 3.28211 0.25
141 2.40776 1.65945 2.35843 0.25
142 2.54285 2.73199 5.01076 0.25
143 7.5254 2.04833 3.30928 0.25
144 0.0458288 6.65619 2.42202 0.25
145 3.95372 7.67737 5.95758 0.25
146 7.17924 9.18572 3.23987 0.25
147 4.06159 5.61245 3.83887 0.25
148 2.87714 1.44464 10.1316 0.25
149 9.82295 8.19271 9.16743 0.25
150 4.38943 4.77722 7.92293 0.25
151 6.86695 9.9018 9.98721 0.25
152 3.91507 9.2989 1.23415 0.25
153 5.29993 1.56401 7.48842 0.25
154 5.77392 9.26971 7.82099 0.25
155 4.00033 6.56792 1.53257 0.25
156 0.795416 8.72718 7.46735 0.25
157 5.39293 0.427261 3.66059 0.25
158 8.55903 9.592 6.88683 0.25
159 2.93508 2.67908 5.44089 0.25
160 2.74398 3.41786 7.90772 0.25
161 3.51181 10.2222 9.47169 0.25
162 4.00522 2.28159 5.68328 0.5
163 6.801 10.2458 2.51896 0.25
164 5.15607 8.25876 8.17003 0.25
165 0.335857 2.95691 9.8467 0.25
166 7.55989 4.31717 6.85547 0.25
167 9.12535 10.0624 3.92886 0.25
168 9.85015 7.38877 9.36288 0.25
169 9.77609 6.69893 6.77121 0.25
170 3.64515 0.0875051 8.2385 0.25
171 0.879349 9.19333 7.34014 0.25
172 9.64565 6.0592 7.19035 0.25
173 0.267609 1.48154 3.69499 0.25
174 4.59108 2.01974 5.9187 0.25
175 9.13397 3.2889 6.92502 0.25
176 0.902661 6.49177 0.754475 0.25
177 9.35803 6.42132 7.4178 0.25
178 7.37232 1.2612 4.91804 0.25
179 2.7665 9.43397 7.56994 0.25
180 7.55953 9.30682 2.60683 0.5
181 1.08713 3.98446 5.88497 0.25
182 7.5559 2.27198 2.88111 0.25
183 2.62107 9.69363 4.59308 0.25
184 9.01759 5.31578 9.49116 0.25
185 8.66802 9.41651 6.37455 0.25
186 3.05326 8.09807 9.84419 0.25
187 2.93708 4.03122 0.53655 0.25
188 5.34065 2.08945 7.5226 0.25
189 0.193645 0.266514 6.3317 0.25
190 2.82716 7.34218 3.04534 0.25
191 5.39935 2.69039 9.09468 0.25
192 8.80303 9.27302 7.27595 0.25
193 5.29517 2.18698 9.01161 0.25
194 4.27664 8.91289 1.27207 0.25
195 5.01188 4.90224 9.86488 0.25
196 5.41832 1.93371 10.3114 0.25
197 8.777 6.47181 6.93443 0.5
198 7.67914 1.80165 6.96026 0.5
199 6.92427 0.0460217 9.91521 0.25
200 7.03447 1.11062 6.28021 0.25
201 5.876 6.69492 6.74787 0.25
202 3.66863 7.67522 5.13875 0.25
203 4.7265 9.26852 0.21948 0.25
204 0.562844 3.78617 6.48015 0.25
205 4.53574 0.290718 6.77174 0.25
206 0.658525 1.84992 3.68787 0.25
207 1.05495 5.1105 4.08668 0.5
208 4.10653 4.38472 5.90652 0.25
209 7.25923 10.0214 2.79506 0.25
210 4.30526 0.721674 6.70791 0.25
211 1.09046 4.91505 2.86787 0.25
212 0.245464 3.84871 2.09989 0.5
213 9.3279 4.0274 2.27984 0.25
214 3.63544 5.06008 5.91267 0.25
215 10.006 0.723884 8.59842 0.25
216 5.04537 2.67666 0.480467 0.25
217 0.707513 8.03048 5.86195 0.25
218 1.9212 1.34467 1.91764 0.5
219 0.712124 4.21325 6.19801 0.25
220 7.06554 9.57707 2.03525 0.25
221 8.28893 7.5473 3.6872 0.25
222 9.44348 6.38521 6.49573 0.25
223 5.54326 9.35607 4.94872 0.25
224 9.92477 3.09688 7.0242 0.25
225 8.02106 1.40812 5.4313 0.25
226 6.48734 9.01798 5.06274 0.25
227 7.14798 0.284497 1.10294 0.25
228 5.21513 1.4693 0.523244 0.25
229 2.28899 2.43772 1.822 0.25
230 7.93633 7.53656 4.42007 0.25
231 6.60226 4.49457 7.05072 0.25
232 7.14244 9.94192 2.34822 0.25
233 8.06626 2.13135 9.24631 0.5
234 4.62049 9.59565 1.62373 0.25
235 1.01781 9.02952 7.85375 0.25
236 1.57672 5.36575 0.55951 0.25
237 7.92368 1.98539 3.02918 0.25
238 1.03879 5.4897 4.79545 0.25
239 0.785651 2.6747 9.29869 0.25
240 1.39238 8.91439 2.08109 0.5
241 1.69229 9.60315 2.17541 0.25
242 3.99378 8.05487 6.34537 0.25
243 1.7369 6.21837 0.638135 0.25
244 1.37658 0.838609 6.88952 0.25
245 5.76741 7.15786 6.6932 0.25
246 2.08002 8.22004 10.1502 0.25
247 1.87056 7.02991 2.87304 0.25
248 5.5787 2.44115 8.69765 0.25
249 6.5905 4.04795 4.52802 0.25
250 7.49045 1.37396 6.40735 0.25
251 1.44514 1.68974 6.46677 0.25
252 6.87529 6.90975 7.97547 0.25
253 4.22271 7.76521 9.13449 0.25
254 1.07126 9.88932 1.63168 0.25
255 2.00361 0.62313 1.94308 0.25
256 3.71455 5.82034 4.62056 0.25
257 0.903814 10.23 9.59683 0.25
258 4.49 5.33995 7.31463 0.25
259 2.11483 9.4732 4.51518 0.25
260 0.745664 10.3155 0.0324883 0.25
261 6.81711 6.94349 9.25621 0.25
262 5.75038 7.36567 3.57281 0.25
263 8.4342 8.68127 9.44162 0.25
264 7.51194 9.4655 9.89757 0.5
265 4.0547 3.50261 3.00407 0.25
266 3.71543 3.22271 2.27269 0.25
267 3.12906 7.34544 5.74287 0.25
268 3.56007 7.8452 6.28681 0.25
269 7.51398 9.55957 6.14796 0.25
270 3.13684 7.63633 6.16071 0.25
271 4.35049 8.81058 1.78435 0.25
272 6.2853 7.08469 5.3832 0.25
273 10.1003 3.96563 7.43546 0.25
274 3.72287 4.61411 6.10072 0.25
275 9.8904 6.20663 2.82003 0.25
276 8.11255 1.04124 8.70644 0.25
277 3.1066 10.0627 7.93881 0.5
278 4.17679 5.93089 8.31 0.25
279 3.25803 10.3492 8.60449 0.25
280 3.73108 0.24366 9.74088 0.25
281 3.82699 8.22829 3.48167 0.25
282 5.07437 0.805092 2.97717 0.25
283 9.62933 0.553263 9.31042 0.25
284 1.62458 5.35491 0.0711247 0.25
285 8.46178 6.62355 1.4353 0.25
286 10.2692 1.31001 1.84362 0.25
287 1.67514 8.55394 2.69064 0.25
288 1.35066 5.75784 5.05992 0.25
289 9.42167 0.539441 1.09475 0.25
290 8.73169 3.91188 1.64462 0.25
291 7.99704 2.33608 10.0014 0.25
292 4.25426 9.28584 1.61425 0.25
293 4.89253 2.45145 6.96267 0.5
294 10.025 6.65028 2.79875 0.25
295 7.00512 1.20427 6.975 0.5
296 2.66899 2.86981 4.53181 0.25
297 0.463674 7.98467 5.42675 0.25
298 4.03166 8.97416 0.852835 0.25
299 9.26046 5.13455 9.82445 0.25
300 2.47847 10.1917 4.50321 0.25
301 4.76723 8.27723 7.8073 0.25
302 4.89224 4.77354 7.74854 0.25
303 8.85476 5.65013 10.1751 0.5
304 3.97097 4.38776 2.59443 0.25
305 1.43295 8.212 2.38414 0.25
306 9.65936 7.84238 9.52124 0.25
307 0.670011 9.99783 9.97246 0.25
308 8.93679 5.76898 6.82664 0.25
309 8.01293 1.77961 8.56246 0.25
310 6.59143 6.97815 6.35524 0.25
311 2.35734 0.338969 1.78883 0.25
312 8.94617 1.14408 8.52123 0.5
313 1.58539 8.10593 1.97733 0.25
314 0.971785 3.77158 2.10269 0.25
315 3.20187 0.478707 9.14635 0.5
316 7.66032 4.14369 7.33674 0.25
317 6.46672 9.94015 8.50917 0.25
318 10.0515 7.58474 9.78323 0.25
319 10.0401 9.5171 4.325 0.25
320 1.36677 2.45001 9.81901 0.25
321 2.18832 2.02182 2.19598 0.25
322 1.49404 6.75697 4.69056 0.25
323 6.54597 10.1583 9.29629 0.5
324 7.28037 1.89297 2.90027 0.25
325 9.20653 3.88748 1.50203 0.25
326 2.70267 0.0368905 5.25696 0.25
327 1.45438 8.7356 7.04664 0.25
328 3.90907 3.95221 2.86295 0.25
329 8.42892 6.93142 4.1296 0.5
330 9.70915 6.04305 2.42741 0.25
331 9.37973 10.1342 4.35504 0.25
332 6.86981 7.56111 0.492449 0.25
333 10.221 7.5182 8.97678 0.25
334 6.49559 4.81807 1.76132 0.25
335 5.85563 4.35012 0.69079 0.25
336 9.49414 4.08543 1.81504 0.25
337 4.70644 5.60415 8.68497 0.25
338 7.52544 8.64112 2.2145 0.25
339 3.82683 5.89698 8.75416 0.25
340 0.939721 2.44274 10.0904 0.25
341 4.1068 5.63413 4.32334 0.25
342 9.62476 3.79463 7.34456 0.25
343 10.1979 1.67657 3.67642 0.25
344 4.21486 0.638805 3.12329 0.25
345 6.26737 4.30467 10.3357 0.25
346 2.04952 1.63421 7.79302 0.25
347 3.50797 3.57716 0.184954 0.25
348 6.0539 7.67397 0.751287 0.25
349 4.82621 1.41306 7.70417 0.25
350 2.50219 3.33451 7.50759 0.25
351 5.83953 6.61146 3.1169 0.25
352 8.22597 6.21504 1.58229 0.25
353 10.0138 3.4548 7.40253 0.25
354 9.85788 3.45848 1.19119 0.25
355 2.32018 1.29801 1.29063 0.25
356 3.97081 9.4555 0.522467 0.25
357 3.3388 4.67512 5.79792 0.25
358 4.33456 9.09849 0.436219 0.25
359 8.73194 6.69391 0.731354 0.5
360 4.13087 0.398209 7.02284 0.25
361 0.185036 0.737955 6.20641 0.25
362 -0.0314992 7.34329 9.45197 0.25
363 6.90458 2.99245 2.64112 0.25
364 9.63395 6.5536 2.59531 0.25
365 6.06522 9.22077 4.84784 0.25
366 9.05246 3.77156 1.97235 0.25
367 3.69084 0.149255 8.69825 0.25
368 9.85457 6.54261 7.21907 0.25
369 9.22726 4.74843 4.59558 0.5
370 4.72383 1.38788 6.91444 0.5
371 9.50539 6.48957 1.88532 0.5
372 1.1777 2.31968 4.0171 0.5
373 3.59784 10.0063 8.50995 0.25
374 3.81162 0.122421 9.21543 0.25
375 5.09987 0.359608 3.20278 0.25
376 0.680046 5.58635 4.47158 0.25
377 10.1319 7.82746 9.35998 0.25
378 9.30143 8.4931 0.76039 0.25
379 0.275554 3.46018 6.20168 0.25
380 2.18826 2.77216 4.62605 0.25
381 6.22333 5.30127 2.28755 0.5
382 2.48272 8.49763 10.124 0.25
383 5.54145 8.22605 8.45026 0.25
384 2.03628 6.83866 7.75378 0.25
385 1.23092 6.81567 5.16464 0.25
386 1.22557 5.85766 7.68681 0.25
387 1.15929 6.34388 7.7919 0.25
388 2.17733 2.29294 1.33123 0.25
389 4.89264 2.38468 0.934087 0.25
390 3.42212 4.01264 0.44334 0.25
391 4.8273 0.676874 6.6662 0.25
392 0.928826 5.70201 5.24963 0.25
393 9.10439 9.33851 6.51041 0.25
394 10.0185 0.962334 6.3297 0.25
395 1.90752 4.87581 2.78579 0.25
396 3.27461 0.172569 9.83766 0.25
397 7.13105 2.31698 3.10498 0.25
398 9.88251 4.88623 9.17315 0.25
399 2.55035 9.87732 7.49212 0.25
400 8.22609 3.16748 9.92937 0.25
401 5.72239 7.09388 3.11458 0.25
402 4.29111 5.78813 8.78914 0.25
403 5.82915 4.86951 0.540573 0.25
404 7.32992 3.27352 0.0219873 0.25
405 1.39758 5.81231 0.730109 0.25
406 6.38879 9.42577 5.21382 0.25
407 6.81363 6.7373 8.73955 0.25
408 9.9404 8.78088 1.22829 0.25
409 9.93841 6.85847 2.39945 0.25
410 5.17695 1.69082 4.03802 0.25
411 7.77878 8.69318 9.872 0.25
412 4.9395 1.86576 7.43779 0.25
413 6.78719 2.60137 2.86303 0.25
414 6.4137 5.31524 2.99473 0.25
415 4.69315 0.684359 3.63678 0.5
416 10.0949 0.741097 9.04448 0.25
417 3.45472 8.11824 5.71777 0.5
418 0.841467 1.20226 6.48377 0.5
419 9.34981 0.135583 4.01697 0.25
420 5.58778 8.42062 8.00422 0.25
421 9.35288 6.83291 6.65428 0.25
422 2.46862 7.19057 3.42077 0.25
423 1.50512 5.0118 3.06267 0.25
424 0.140511 0.284773 9.64611 0.25
425 2.19403 10.3267 4.1079 0.25
426 2.10393 1.77021 1.3287 0.25
427 7.11802 1.63116 6.34398 0.25
428 7.58029 10.1493 2.3861 0.25
429 5.46492 8.90524 7.67984 0.25
430 0.0811164 9.49225 3.61926 0.25
431 7.09618 10.1723 1.00476 0.25
432 2.76001 8.05204 9.39613 0.25
433 2.73565 2.29754 5.2149 0.25
434 6.06132 9.84477 8.82245 0.25
435 0.741407 3.12529 9.14668 0.25
436 6.32126 4.76875 10.217 0.25
437 0.473403 6.10116 0.0465727 0.25
438 7.46804 0.923034 6.36978 0.25
439 9.85759 9.9808 3.77211 0.5
440 2.40729 2.67577 7.97171 0.5
441 1.32274 3.80918 2.40918 0.25
442 6.20938 7.12287 0.172536 0.25
443 9.67981 9.32734 3.95182 0.25
444 1.40757 3.95338 1.86486 0.25
445 5.40609 6.73315 3.17318 0.25
446 8.47208 4.7306 4.22654 0.25
447 6.21896 4.99051 0.235185 0.25
448 5.00649 1.4793 3.33137 0.5
449 0.0714712 1.09316 6.53943 0.25
450 2.25887 0.780567 1.51881 0.25
451 3.06768 4.09167 10.031 0.25
452 5.79991 4.0906 4.92589 0.25
453 6.62586 3.89609 8.33516 0.25
454 1.03535 5.67539 8.48915 0.25
455 1.13749 6.04049 8.19068 0.25
456 2.01768 2.06326 1.74082 0.25
457 9.1472 8.64807 1.54515 0.5
458 1.43611 6.27739 7.40561 0.25
459 1.28519 1.64703 6.91171 0.25
460 1.63317 5.80106 7.35002 0.25
461 3.70434 6.54585 1.07659 0.25
462 3.95378 6.17219 0.827389 0.25
463 1.63861 10.132 4.22474 0.25
464 9.45184 1.31518 1.75749 0.25
465 6.70787 4.97605 2.70722 0.25
466 4.7513 5.4843 7.98695 0.5
467 3.59403 5.42416 5.52781 0.25
468 2.60296 1.13625 1.69947 0.25
469 4.78652 4.02821 2.86048 0.25
470 4.37783 3.18795 2.85741 0.25
471 3.07944 9.72572 4.89057 0.25
472 2.00615 2.16391 7.6029 0.25
473 3.26302 7.75975 10.1164 0.25
474 8.93341 3.49434 1.50522 0.25
475 8.84394 7.18975 4.64587 0.25
476 4.33848 6.04995 1.11942 0.25
477 9.97253 9.34189 3.46291 0.25
478 8.73347 5.88622 1.20419 0.5
479 6.72426 0.442228 1.36919 0.25
480 2.54273 8.08282 9.84721 0.25
481 4.12349 9.7551 1.50607 0.25
482 6.3669 9.69574 5.61841 0.25
483 6.89767 0.118251 0.338362 0.5
484 9.56495 3.39241 7.17035 0.25
485 7.44057 2.90825 10.069 0.25
486 4.28082 7.94632 3.45566 0.25
487 3.16199 3.59876 0.536976 0.25
488 7.53284 9.77374 2.01339 0.25
489 9.05804 7.07002 3.73031 0.25
490 2.54849 3.33657 8.34438 0.25
491 8.77247 9.13856 6.78349 0.25
492 8.32842 2.68733 10.2308 0.25
493 9.41053 3.69199 6.86169 0.25
494 8.52738 4.5265 5.04075 0.25
495 9.57714 3.30609 6.68911 0.25
496 4.33239 1.75559 6.28239 0.25
497 3.27506 3.65241 10.0604 0.25
498 8.37262 1.45578 8.93828 0.25
499 4.66257 9.11622 1.51573 0.25
500 4.12031 7.30477 8.95544 0.25
501 2.77094 0.160547 4.76838 0.25
502 9.1727 5.95668 7.23205 0.25
503 6.89598 8.38098 2.71295 0.25
504 6.645 7.84465 0.141799 0.25
505 7.35626 1.21185 5.63531 0.5
506 5.45892 10.0148 5.49165 0.25
507 7.37218 8.58272 2.68824 0.25
508 4.66601 8.65415 8.70564 0.25
509 1.49136 8.90936 7.87661 0.25
510 6.01544 4.05158 5.34649 0.25
511 4.52657 0.661562 7.13362 0.25
512 0.920355 4.76371 3.35394 0.25
513 1.36723 5.3173 9.97169 0.25
514 3.56231 1.98373 5.1753 0.25
515 2.01051 1.74379 7.04679 0.5
516 5.88497 9.03957 5.53988 0.5
517 9.0851 7.22265 4.22977 0.25
518 2.88643 0.541752 9.90951 0.25
519 2.9277 10.0639 4.54689 0.25
520 5.30791 1.82673 7.101 0.25
521 1.37102 4.44624 5.7828 0.25
522 1.80565 9.62971 4.12779 0.25
523 2.94198 3.10961 7.63141 0.25
524 7.67386 1.25386 4.53409 0.25
525 2.31059 6.52179 7.45988 0.25
526 1.53572 5.74661 8.5097 0.25
527 6.68942 9.51598 2.72058 0.5
528 7.45035 8.75692 3.12376 0.25
529 4.69613 5.91172 1.48111 0.25
530 1.22202 7.85907 2.1829 0.25
531 0.402149 3.31527 9.45995 0.25
532 2.18994 8.44096 0.19953 0.25
533 9.17499 9.84879 3.51694 0.25
534 8.87095 4.91858 3.91866 0.25
535 7.28917 6.6142 8.17678 0.25
536 4.52036 8.81497 0.852245 0.25
537 7.74765 2.71433 2.64429 0.25
538 6.58041 4.28101 7.51569 0.25
539 10.1907 3.75786 6.748 0.5
540 6.06354 9.71557 7.9009 0.25
541 9.5147 8.80175 1.05184 0.25
542 7.34906 9.12887 6.35938 0.25
543 9.24536 4.09041 4.16758 0.25
544 1.681 1.90812 7.72918 0.25
545 0.137944 9.67544 4.08011 0.25
546 0.443593 0.339771 5.93482 0.25
547 9.6663 3.94788 1.38066 0.25
548 9.4151 4.70799 9.10298 0.25
549 2.2713 0.864162 2.36097 0.25
550 9.69543 8.34346 1.09313 0.25
551 2.15633 7.11837 2.45343 0.25
552 9.09568 9.53013 6.96451 0.25
553 5.5081 2.628 5.31511 0.25
554 8.81912 4.37402 4.09961 0.25
555 5.87095 8.82954 7.86299 0.25
556 1.32354 9.35204 7.61786 0.25
557 3.02686 9.72833 7.29284 0.25
558 2.56382 3.82176 8.15096 0.25
559 9.63654 1.05141 8.45671 0.25
560 3.81391 4.68936 5.62489 0.25
561 0.872284 3.90407 1.68798 0.25
562 5.35062 5.24679 9.64643 0.25
563 5.6332 9.59417 8.19013 0.25
564 1.78711 1.05121 7.11349 0.25
565 2.47816 0.772935 1.9744 0.25
566 9.84265 6.20055 6.7283 0.25
567 1.30373 6.30712 0.863523 0.25
568 7.89333 1.1542 4.99587 0.25
569 7.18227 4.69551 7.42386 0.5
570 4.34107 4.24437 2.86833 0.25
571 3.90055 3.10951 2.70084 0.25
572 8.53678 1.77725 8.6547 0.25
573 0.690039 6.88819 5.15051 0.25
574 0.6439 0.54208 6.29995 0.25
575 6.09346 4.10456 4.53306 0.25
576 5.2183 1.89281 0.853818 0.25
577 0.387331 7.68238 4.97742 0.25
578 0.91368 5.4837 0.24396 0.5
579 4.94323 5.12965 7.32399 0.25
580 8.41775 6.99655 4.90132 0.25
581 6.903 6.23038 8.76774 0.25
582 6.82765 3.97868 4.95055 0.25
583 8.49033 5.78009 6.77602 0.25
584 5.24299 6.71707 3.61845 0.25
585 6.70849 0.127072 1.01832 0.25
586 1.86854 2.56592 4.31117 0.25
587 5.88029 9.78373 5.7001 0.25
588 3.14276 1.22059 9.35768 0.25
589 10.1461 3.7137 1.50251 0.25
590 8.78158 7.50559 3.84808 0.25
591 3.42746 2.68658 5.55519 0.25
592 6.82004 5.42632 2.77194 0.25
593 5.2063 9.23686 5.75068 0.25
594 8.89696 6.36156 0.0943689 0.25
595 1.68825 2.3847 7.92443 0.25
596 9.65686 9.16195 1.36799 0.25
597 4.68578 0.464179 2.97111 0.25
598 6.66564 7.37163 0.101493 0.25
599 9.83641 1.5896 1.72661 0.25
600 4.0685 9.139 2.05507 0.25
601 7.23704 0.0947317 2.54572 0.25
602 6.40336 8.33464 2.56775 0.25
603 1.9658 6.22627 7.24597 0.25
604 8.93875 1.16357 0.922651 0.25
605 1.1205 7.98481 2.65959 0.25
606 1.65394 1.38627 7.52352 0.25
607 2.049 2.02924 8.09448 0.25
608 6.63128 6.22537 6.06204 0.5
609 3.47663 6.07032 1.06474 0.25
610 6.39385 4.83045 0.962567 0.5
611 8.704 8.37885 7.20986 0.25
612 8.65515 0.149837 4.23922 0.5
613 7.67022 2.58995 9.72107 0.25
614 9.23051 6.91437 1.27224 0.25
615 7.69785 4.25079 7.84828 0.25
616 1.35005 1.25222 7.13401 0.25
617 2.26022 3.45801 7.92956 0.25
618 7.8158 3.27805 10.2048 0.25
619 1.20325 9.73329 2.10739 0.25
620 6.82255 5.11261 3.17347 0.25
621 6.59566 5.27199 1.5836 0.25
622 7.15687 6.19006 8.30256 0.25
623 7.84052 4.51608 4.69574 0.5
624 4.76012 8.55031 8.19759 0.25
625 4.99274 2.59264 10.3254 0.25
626 2.32159 2.68733 4.17606 0.25
627 6.53059 5.76456 2.81311 0.25
628 1.0345 9.90576 -0.0348487 0.25
629 7.29454 10.1577 10.1247 0.25
630 6.05204 7.17389 0.629477 0.25
631 8.32457 1.47415 5.03762 0.25
632 3.07551 3.83953 0.0918573 0.25
633 3.49455 4.01605 10.3122 0.25
634 4.47187 7.90857 8.47062 0.5
635 9.47991 6.40515 6.95146 0.25
636 8.81399 5.0003 9.83705 0.25
637 6.50889 9.46181 4.76774 0.25
638 1.95419 0.145401 4.86972 0.5
639 6.5689 2.77851 2.39327 0.25
640 7.63205 1.77631 7.67771 0.25
641 3.78027 5.98707 4.11224 0.25
642 3.36253 7.51994 6.57735 0.25
643 3.23481 1.61303 9.73746 0.25
644 5.95337 9.97487 4.99454 0.5
645 2.72272 4.07486 0.0828274 0.25
646 8.36838 7.42489 4.66493 0.25
647 6.61594 7.00092 5.81601 0.25
648 7.23611 1.51789 7.58795 0.25
649 4.63015 6.04898 8.49872 0.25
650 8.05235 2.30501 2.72597 0.25
651 5.12795 8.57053 7.76294 0.25
652 1.40147 5.26411 8.53843 0.25
653 0.892735 4.49606 5.82807 0.25
654 1.53031 6.69772 7.75143 0.25
655 9.96584 4.11015 1.71422 0.25
656 4.48322 4.87454 7.49412 0.25
657 8.27313 9.32814 7.22493 0.25
658 6.44936 3.95616 7.85045 0.25
659 9.02124 9.84574 4.36536 0.25
660 1.87286 6.10354 7.94957 0.5
661 2.32839 7.16991 2.9287 0.25
662 7.66034 9.10356 5.94931 0.25
663 3.87822 0.597501 9.41079 0.25
664 0.868958 2.8229 0.131608 0.25
665 8.16141 6.35991 1.07877 0.25
666 5.71857 9.55534 8.67108 0.25
667 7.6953 2.94385 0.187725 0.25
668 7.02504 1.6211 4.99509 0.25
669 3.51141 7.62417 9.40763 0.5
670 10.3263 3.14643 9.57843 0.25
671 0.911256 6.22746 4.76661 0.5
672 6.06404 6.28905 5.64879 0.25
673 3.79749 9.41953 1.71806 0.25
674 7.14278 4.77338 4.84499 0.25
675 8.38288 8.55085 7.5311 0.25
676 4.73161 2.00615 0.337953 0.5
677 9.52679 3.43833 7.66588 0.25
678 10.1166 0.553795 5.70902 0.5
679 2.40965 1.94007 7.67402 0.25
680 2.16136 6.83012 3.21337 0.25
681 8.06921 8.86205 7.29776 0.25
682 3.26796 7.45275 5.26886 0.25
683 0.486625 3.11009 10.2982 0.25
684 1.31948 9.23436 7.09657 0.25
685 9.16767 10.415 3.56301 0.25
686 6.6469 9.78987 5.21161 0.25
687 9.17299 3.64968 7.30215 0.25
688 5.66993 7.39994 0.737654 0.25
689 2.54901 2.38883 3.88377 0.25
690 10.1617 7.9916 8.86109 0.25
691 0.8541 8.27814 5.44606 0.25
692 1.19058 4.36074 6.21709 0.25
693 9.84806 1.86008 3.99863 0.25
694 2.68644 3.61904 0.256609 0.25
695 8.14624 1.37299 4.54374 0.25
696 5.40945 0.926206 3.76679 0.25
697 1.24336 8.92563 7.43839 0.25
698 8.43346 5.69946 0.445087 0.25
699 4.06134 7.69999 5.4717 0.25
700 5.99775 7.41328 1.12702 0.25
701 3.46917 4.96214 5.47256 0.25
702 6.29147 3.60825 4.54692 0.25
703 1.81089 0.613093 1.50431 0.25
704 7.06037 4.08881 8.4257 0.25
705 4.17252 5.94468 9.18172 0.25
706 7.65406 1.32889 7.44867 0.25
707 6.01507 6.67014 5.25863 0.25
708 5.31759 7.18614 3.46756 0.25
709 1.0397 4.48993 2.15015 0.5
710 1.19533 4.84853 6.00657 0.25
711 7.27129 4.01174 7.02225 0.25
712 4.10924 8.08732 3.93873 0.25
713 1.13292 5.20133 3.31909 0.25
714 2.05742 9.94006 4.34422 0.25
715 3.00513 3.6017 8.30591 0.25
716 9.33551 9.24981 0.978139 0.25
717 3.48387 5.74766 5.12055 0.25
718 5.87728 3.36227 5.19957 0.5
719 5.28013 3.30687 5.69918 0.25
720 5.53935 1.39117 3.86999 0.25
721 3.18762 8.02945 6.49228 0.25
722 3.62319 4.96584 4.20414 0.25
723 5.57674 6.42893 6.43285 0.25
724 9.61382 0.854237 8.88557 0.25
725 4.07503 0.270698 6.56645 0.25
726 3.69281 5.46733 4.20082 0.25
727 4.10966 5.16376 4.16371 0.25
728 2.02575 8.40712 9.47791 0.5
729 7.89525 1.78491 5.77209 0.25
730 7.87609 1.44686 8.88468 0.25
731 0.717262 5.87296 9.98215 0.25
732 3.84889 7.58224 6.49301 0.25
733 9.9374 2.34884 4.68356 0.25
734 8.33491 7.64726 4.16874 0.25
735 3.19509 2.23085 5.46305 0.25
736 8.58464 6.35327 6.253 0.25
737 1.06009 4.19681 5.47046 0.25
738 5.02982 8.32789 8.58946 0.25
739 3.05122 3.38264 0.0525723 0.25
740 8.69408 6.37678 1.81695 0.25
741 6.93327 3.02845 2.14782 0.25
742 5.32371 2.30329 0.696799 0.25
743 9.79129 1.90551 4.51987 0.25
744 2.49093 2.07287 4.56617 0.5
745 0.629624 4.10313 5.71589 0.25
746 6.13409 5.08656 1.61157 0.25
747 8.29017 2.22989 0.00312008 0.25
748 7.22621 10.1001 9.63447 0.25
749 7.28114 4.45736 8.09096 0.25
750 4.37104 1.9865 6.74295 0.25
751 1.79373 2.03062 4.26502 0.25
752 9.74849 2.26729 4.20752 0.25
753 1.02299 3.11718 9.81808 0.5
754 8.31872 1.76083 5.47116 0.25
755 7.86875 2.80348 10.1092 0.25
756 5.2089 1.69097 1.28561 0.25
757 0.175286 1.99877 4.21837 0.5
758 2.22164 9.84431 4.83087 0.25
759 4.94722 2.58264 8.17857 0.25
760 4.68969 1.47976 4.03054 0.25
761 5.83521 6.1386 6.10752 0.25
762 0.259615 3.98381 6.10949 0.25
763 6.43586 4.57831 5.00156 0.5
764 5.5852 6.37123 3.46803 0.25
765 7.08905 6.96754 8.40969 0.25
766 1.59941 5.20299 3.50893 0.25
767 6.45174 2.36337 2.62753 0.25
768 4.89739 2.62758 5.94705 0.5
769 1.01314 2.363 9.55497 0.25
770 5.90708 6.91545 6.05368 0.5
771 5.64523 7.85601 0.55567 0.25
772 6.90131 9.19862 5.72847 0.5
773 5.90718 4.11128 0.259847 0.25
774 7.02083 8.87482 2.89934 0.25
775 9.75492 7.70953 9.05315 0.25
776 4.30761 9.50681 0.176167 0.25
777 0.942449 8.31318 2.30021 0.25
778 3.30325 0.363058 8.39149 0.25
779 9.73829 8.05183 8.71035 0.25
780 5.18024 4.80892 9.46868 0.25
781 5.49099 7.04372 3.90482 0.25
782 9.29733 6.40022 1.15618 0.25
783 4.13301 8.35834 3.1349 0.25
784 2.7769 3.69113 10.08 0.25
785 8.8211 8.78278 7.53179 0.25
786 6.36212 6.6992 4.99278 0.25
787 6.34088 6.25179 5.24385 0.25
788 5.13591 1.1538 4.0608 0.25
789 6.89327 5.54434 1.90052 0.25
790 4.75685 2.01219 6.4245 0.25
791 8.22188 6.2015 6.52452 0.25
792 4.26729 3.69908 2.33362 0.5
793 10.3083 0.378863 8.85265 0.25
794 2.56472 1.22544 2.16133 0.25
795 1.59624 8.57309 7.53696 0.25
796 2.57447 9.7283 3.87315 0.5
797 0.235418 9.94662 3.73965 0.25
798 9.23621 4.55354 3.9131 0.25
799 3.26274 6.38359 1.66335 0.5
800 9.60838 0.893432 1.95861 0.25
801 6.07371 0.0343252 9.87342 0.25
802 6.53189 7.90431 0.64877 0.25
803 9.48288 5.15941 9.34354 0.25
804 4.16402 5.21504 7.66873 0.25
805 8.85853 4.02346 4.48733 0.25
806 2.4807 9.57024 7.9166 0.25
807 3.17105 5.19421 5.76415 0.25
808 8.62563 4.99143 9.39136 0.25
809 1.18811 5.77008 9.8967 0.25
810 7.5942 1.79439 6.15122 0.25
811 9.59317 4.78439 9.63584 0.25
812 3.92275 6.14576 1.30116 0.25
813 1.6712 4.10586 2.25937 0.25
814 1.44183 9.96663 10.1538 0.25
815 3.8791 5.09887 4.90315 0.5
816 6.47366 0.302192 9.95215 0.25
817 4.56258 9.55794 0.902844 0.5
818 8.81216 6.03606 0.485601 0.25
819 4.37998 6.26675 1.50079 0.25
820 7.54429 4.08083 8.30236 0.25
821 8.20912 8.50354 7.03128 0.25
822 4.4553 3.43007 3.25293 0.25
823 2.03647 9.22639 7.45822 0.5
824 6.82368 4.07928 7.10237 0.25
825 8.04825 9.08751 6.5488 0.5
826 6.34865 2.43698 2.1162 0.25
827 9.03613 6.61877 6.28301 0.25
828 9.81981 4.03384 2.17495 0.25
829 0.791998 7.75718 4.68872 0.25
830 4.19392 5.78611 1.54121 0.25
831 2.01681 7.26604 3.24807 0.25
832 3.99299 5.48399 9.05579 0.25
833 6.33473 6.576 6.61254 0.25
834 8.42091 4.04812 4.78527 0.25
835 1.54276 1.2897 6.6748 0.25
836 6.97858 5.27065 2.32726 0.25
837 3.66647 7.19008 8.83155 0.25
838 2.58008 9.60665 7.07121 0.25
839 0.124929 2.79541 4.12178 0.25
840 9.38417 5.01322 3.83533 0.25
841 5.65238 4.73249 10.1247 0.5
842 6.86404 6.51584 8.31109 0.25
843 1.03818 9.44902 1.69795 0.25
844 6.9025 5.05478 1.89507 0.25
845 8.39028 4.18432 4.28645 0.25
846 0.678361 5.08636 4.68427 0.25
847 7.91213 2.49374 0.156937 0.25
848 3.51835 0.951386 9.97043 0.5
849 6.82 5.75338 2.36335 0.25
850 4.61885 8.1322 3.75938 0.25
851 3.69898 5.81531 1.50449 0.25
852 5.71103 1.16269 3.44431 0.25
853 9.51628 9.63755 4.35938 0.25
854 2.9843 3.1127 8.17687 0.25
855 4.20403 6.47436 1.09035 0.25
856 9.20526 3.12056 7.39833 0.25
857 6.61648 3.53575 4.90376 0.25
858 7.74267 6.93488 3.76716 0.25
859 9.52166 0.911602 1.43781 0.25
860 3.06242 9.53681 4.44296 0.25
861 4.1968 9.596 1.9547 0.25
862 7.5649 1.24168 8.23439 0.5
863 0.259237 3.42217 9.92275 0.25
864 3.4558 3.65207 2.27377 0.25
865 1.05065 6.97572 4.8176 0.25
866 2.73257 0.946568 10.1038 0.25
867 3.03421 7.32061 10.0045 0.25
868 9.14843 1.24858 1.39019 0.25
869 0.12606 8.15124 5.05271 0.25
870 7.27985 6.54316 8.62718 0.25
871 6.65614 2.71791 1.89382 0.25
872 8.3176 1.69358 7.86981 0.5
873 5.22844 9.73647 5.08257 0.25
874 6.8559 9.3584 5.03354 0.25
875 3.99648 8.12209 5.19111 0.25
876 3.98149 6.16284 1.82009 0.25
877 0.50826 2.2867 3.54617 0.25
878 0.174516 0.0875955 9.17369 0.25
879 0.672935 7.30635 4.82543 0.25
880 5.81054 3.73135 4.56998 0.25
881 4.16837 6.57875 8.77458 0.5
882 9.9135 10.2422 6.02715 0.25
883 5.57038 2.89321 5.71305 0.25
884 2.71048 1.85653 1.70726 0.5
885 8.76621 10.099 3.60272 0.25
886 9.82895 9.11672 0.878159 0.25
887 1.35563 6.52099 8.22201 0.25
888 1.53045 0.671708 1.94302 0.25
889 4.80849 5.09837 8.64979 0.25
890 0.705054 3.6971 6.03814 0.25
891 3.65583 3.54943 2.71209 0.25
892 6.53429 8.73921 2.79702 0.25
893 7.79065 3.04619 9.74468 0.25
894 2.06852 8.73441 10.1881 0.25
895 9.71588 3.00142 7.45512 0.25
896 9.70885 1.33959 1.28737 0.25
897 3.63169 7.94204 6.75568 0.25
898 1.09738 4.99552 5.2793 0.5
899 0.322573 0.633417 6.65034 0.25
900 8.76218 7.57502 4.35697 0.25
901 0.671363 8.12198 5.02636 0.25
902 4.81096 1.90666 1.14101 0.25
903 7.97535 7.14941 4.73105 0.25
904 1.15873 6.28643 0.10037 0.5
905 9.00302 0.794323 1.26738 0.25
906 9.47564 9.42159 3.50145 0.25
907 4.3947 3.84062 3.01416 0.25