ITEM: TIMESTEP
500000
ITEM: NUMBER OF ATOMS
1000
ITEM: BOX BOUNDS xy xz yz pp pp pp
0.0000000000000000e+00 1.0357442000000001e+01 0.0000000000000000e+00
0.0000000000000000e+00 1.0357442000000001e+01 0.0000000000000000e+00
0.0000000000000000e+00 1.0357442000000001e+01 0.0000000000000000e+00
ITEM: ATOMS id x y z radius
1 1.26378 4.45938 2.79973 0.5
2 1.91616 8.02486 3.1471 0.5
3 5.75774 2.06238 1.18514 0.25
4 0.621855 2.93187 4.17821 0.25
5 9.03826 3.36481 6.80012 0.25
6 0.334956 3.5471 9.73586 0.25
7 4.64598 0.294338 3.70585 0.25
8 8.90117 4.0081 2.16307 0.25
9 10.0588 1.20899 1.70924 0.25
10 8.39748 7.36552 3.61499 0.25
11 0.127897 8.66148 1.38737 0.25
12 7.7052 2.74263 0.0896548 0.25
13 3.11509 7.62767 6.05031 0.25
14 5.11396 2.58299 0.311675 0.25
15 8.7879 5.81723 6.19699 0.25
16 8.86337 8.61417 6.33927 0.25
17 5.42378 8.99477 8.63823 0.5
18 2.95138 7.81781 10.1668 0.25
19 7.25137 4.40705 5.14301 0.25
20 9.48184 1.00735 1.06059 0.25
21 0.172851 0.485332 9.71006 0.25
22 4.92043 0.0112308 3.3905 0.25
23 4.23795 3.67056 3.23221 0.25
24 2.67994 2.26172 4.40308 0.25
25 6.96413 1.79787 5.98437 0.25
26 5.22821 2.76292 8.39689 0.25
27 1.26988 8.38964 10.2252 0.25
28 8.75973 5.68624 6.72497 0.25
29 3.14081 7.52409 5.49388 0.25
30 1.32722 8.49688 7.31003 0.25
31 0.57001 7.46063 4.80431 0.25
32 9.17822 6.75214 1.12973 0.25
33 10.0924 8.33473 1.20075 0.25
34 0.503728 2.88538 0.0609062 0.25
35 7.65166 2.33872 0.287029 0.25
36 8.11605 8.44841 9.42162 0.25
37 4.11694 4.66976 5.601 0.25
38 7.48381 0.321236 1.27718 0.25
39 6.32149 4.16119 5.21503 0.25
40 8.64441 3.93987 4.79398 0.25
41 7.75834 6.82709 3.7359 0.25
42 7.17128 8.51949 1.98989 0.5
43 0.368401 8.58495 5.55988 0.25
44 2.97076 9.90224 5.10653 0.25
45 7.48925 6.98551 8.86669 0.25
46 1.12882 8.69089 7.75522 0.25
47 4.56896 8.35621 3.4433 0.25
48 2.99745 0.027787 5.2434 0.25
49 4.29868 5.93454 9.32291 0.25
50 10.0488 9.13759 3.45959 0.25
51 9.49343 9.29744 0.894099 0.25
52 6.00303 7.9637 0.350578 0.25
53 6.30803 5.05002 2.10266 0.25
54 4.59774 4.94327 8.06739 0.25
55 5.71117 7.24642 6.48645 0.25
56 5.48943 1.65525 1.33826 0.25
57 5.3755 2.74362 0.683693 0.25
58 5.85546 4.74319 0.505245 0.25
59 4.00658 7.27341 9.13919 0.25
60 7.25173 6.92781 9.29331 0.25
61 3.30471 10.309 8.87075 0.25
62 8.6539 6.14818 6.97185 0.25
63 0.67202 5.22328 4.4212 0.25
64 10.0708 1.65157 1.96405 0.25
65 6.36193 6.67999 6.57741 0.25
66 4.46161 0.288275 3.29522 0.25
67 9.4123 5.25631 9.19825 0.25
68 6.32539 0.0984844 0.11621 0.25
69 1.72072 7.36485 2.96746 0.25
70 3.49153 5.79119 3.79366 0.25
71 2.36609 8.49302 2.32617 0.25
72 5.07735 6.71965 3.5263 0.25
73 8.71922 8.62086 7.37936 0.5
74 2.01226 7.51234 2.5439 0.25
75 1.14844 6.04528 0.65075 0.25
76 2.00716 8.87748 10.1869 0.25
77 6.97297 7.02891 8.88121 0.25
78 3.96215 9.17872 0.870346 0.25
79 0.970264 5.35847 9.5341 0.25
80 8.46542 8.63949 9.64564 0.25
81 8.02604 9.01354 7.23869 0.25
82 1.68092 1.01013 1.66501 0.25
83 1.55665 8.51014 2.59718 0.25
84 5.41869 9.1859 5.78565 0.25
85 4.02206 5.85386 1.63737 0.25
86 9.70494 4.1382 1.47473 0.5
87 0.918427 5.75113 8.25689 0.25
88 2.66777 3.93241 8.13167 0.25
89 1.02266 0.358072 9.92225 0.25
90 7.00205 10.1239 1.66386 0.5
91 4.52278 8.40721 2.97773 0.25
92 9.29445 1.38878 1.7757 0.25
93 8.21904 0.703232 8.11324 0.25
94 0.820077 4.3791 1.70031 0.25
95 7.63785 9.15784 5.79229 0.25
96 7.50135 1.0937 7.08774 0.25
97 5.68658 9.55923 5.70599 0.25
98 9.8696 0.582319 6.17815 0.25
99 5.00803 2.01981 8.36073 0.5
100 5.23526 3.35064 5.39681 0.25
101 5.2805 2.5034 9.91604 0.5
102 4.07317 5.2685 8.51482 0.5
103 7.61732 0.234271 0.806505 0.25
104 0.944772 10.303 10.1971 0.25
105 1.88408 5.21112 3.14826 0.25
106 5.62181 6.46608 6.18378 0.25
107 5.92078 10.0447 8.85763 0.25
108 1.86779 3.63538 2.20626 0.25
109 7.22916 2.02394 2.71864 0.25
110 5.79578 9.76074 6.11537 0.25
111 1.46062 5.66502 0.77027 0.25
112 3.7254 5.04133 5.52859 0.25
113 2.02819 9.95487 4.20388 0.25
114 8.49422 5.89464 0.245259 0.25
115 4.2076 3.51513 2.00007 0.25
116 0.536091 1.66496 4.01009 0.25
117 7.11909 2.71364 2.98772 0.5
118 7.54379 8.04435 2.40641 0.25
119 10.1114 2.39843 4.08164 0.25
120 1.53891 5.63085 0.168367 0.25
121 7.37736 1.91597 5.34278 0.5
122 1.98726 4.46161 2.54103 0.25
123 9.77959 9.1482 1.66115 0.25
124 8.37661 6.09021 0.693388 0.25
125 1.51028 0.0632272 4.58719 0.25
126 6.04429 7.44102 0.355108 0.25
127 5.81601 7.68245 0.730791 0.25
128 9.58511 9.35053 4.14319 0.25
129 1.5112 5.4618 3.20854 0.25
130 9.33765 9.15327 1.3501 0.25
131 6.93298 2.04504 3.18202 0.25
132 8.88511 3.52588 4.79757 0.25
133 8.08005 8.91702 9.43484 0.25
134 4.7563 3.65091 3.19665 0.25
135 5.93507 9.65189 8.16995 0.5
136 8.26738 8.74305 6.8657 0.25
137 1.4813 9.69396 2.01782 0.25
138 7.30611 3.90408 5.31114 0.25
139 6.85574 3.93223 8.0662 0.5
140 4.54608 8.28498 3.91043 0.25
141 2.073 1.93508 2.20421 0.25
142 3.21682 2.81487 4.77103 0.25
143 8.2622 1.44099 3.59338 0.25
144 10.1565 7.02573 2.10784 0.25
145 3.43752 7.28024 5.84369 0.25
146 6.91404 9.41287 3.06475 0.25
147 3.87492 5.49058 3.78383 0.25
148 2.93976 1.6594 10.1686 0.25
149 0.114388 7.92448 8.63038 0.25
150 4.21771 5.09991 7.75874 0.25
151 7.03429 9.82451 10.066 0.25
152 4.13725 9.66356 0.988465 0.25
153 5.4007 1.96057 7.69512 0.25
154 5.23724 9.77965 8.38631 0.25
155 3.77288 6.70345 1.32226 0.25
156 0.890856 8.78479 7.33339 0.25
157 5.26092 1.5115 3.46394 0.25
158 8.88647 9.09059 6.33021 0.25
159 3.62177 2.76035 5.0999 0.25
160 2.45343 3.51846 7.96804 0.25
161 3.46626 0.109035 9.36937 0.25
162 4.16153 2.2686 5.92514 0.5
163 6.96604 10.1329 2.36993 0.25
164 5.07887 8.49937 8.13733 0.25
165 0.368646 2.76513 9.94502 0.25
166 6.92964 3.8013 6.95459 0.25
167 9.16413 10.0321 3.86068 0.25
168 9.77692 8.0899 9.02805 0.25
169 9.59053 6.46336 7.61332 0.25
170 3.46103 0.382331 8.12032 0.25
171 0.982922 9.2718 7.21394 0.25
172 8.92632 6.58434 7.0708 0.25
173 0.756777 2.89425 4.65968 0.25
174 4.85784 2.17186 6.25332 0.25
175 9.15371 3.53621 7.28165 0.25
176 0.722149 5.93403 0.361565 0.25
177 9.3926 6.70562 7.1892 0.25
178 6.94866 1.27978 5.23626 0.25
179 2.88714 9.46685 7.58878 0.25
180 7.46767 9.18501 2.60972 0.5
181 0.93587 4.24956 5.85987 0.25
182 7.86997 1.21047 3.85255 0.25
183 2.20814 10.168 5.04523 0.25
184 9.24349 5.32098 9.69424 0.25
185 9.13913 8.86118 6.74159 0.25
186 2.46476 7.80859 9.95545 0.25
187 3.2609 4.38091 10.2064 0.25
188 5.03619 2.66281 7.91662 0.25
189 9.68006 0.0869001 6.05273 0.25
190 1.83031 7.06441 2.598 0.25
191 4.96459 2.64985 8.80507 0.25
192 8.50392 9.34619 6.53919 0.25
193 5.16679 2.30744 9.12088 0.25
194 4.45163 9.2848 0.810445 0.25
195 5.38945 5.38721 9.76934 0.25
196 5.54377 2.7889 0.195929 0.25
197 9.29817 6.19385 6.55579 0.5
198 7.07073 1.72623 7.17024 0.5
199 6.98502 10.2854 9.8946 0.25
200 6.85624 0.79056 6.49813 0.25
201 5.82008 6.7699 6.58458 0.25
202 3.42198 7.59816 5.03847 0.25
203 4.97455 0.098154 0.625385 0.25
204 0.383422 3.51912 6.31324 0.25
205 4.02879 0.327181 6.37167 0.25
206 0.909248 1.84086 4.32052 0.25
207 1.12592 5.40887 3.8211 0.5
208 4.01627 4.40606 5.9617 0.25
209 6.96048 9.76334 2.68668 0.25
210 4.43947 0.112184 6.51228 0.25
211 1.79092 4.90107 2.42399 0.25
212 0.245997 3.94302 1.94858 0.5
213 9.0862 3.92559 1.73246 0.25
214 3.40661 4.96482 5.90627 0.25
215 9.90563 0.771382 8.95821 0.25
216 5.33256 1.7973 0.522264 0.25
217 0.541797 8.10838 5.39935 0.25
218 2.31423 1.26308 1.87272 0.5
219 0.592901 4.33275 6.22415 0.25
220 6.62619 9.54372 1.87651 0.25
221 8.86475 7.27609 3.38828 0.25
222 8.96323 5.84078 7.17222 0.25
223 5.65707 9.15981 5.36901 0.25
224 9.50562 3.29121 6.5323 0.25
225 7.79447 1.31694 5.40867 0.25
226 6.46092 8.74979 5.15035 0.25
227 6.97603 0.495095 1.31874 0.25
228 5.41928 2.43836 1.10418 0.25
229 2.22936 2.23218 1.34772 0.25
230 8.03009 6.93448 4.17716 0.25
231 6.71799 4.70964 7.23238 0.25
232 6.98547 9.64227 2.23068 0.25
233 7.96384 1.91922 8.3109 0.5
234 4.55476 9.41126 1.61562 0.25
235 0.940186 9.15303 7.7108 0.25
236 1.14419 5.66549 0.417074 0.25
237 8.38627 1.01053 3.70796 0.25
238 0.65422 6.12055 3.92648 0.25
239 0.517632 3.11641 9.63599 0.25
240 1.92262 9.12584 2.28962 0.5
241 1.83014 9.70418 1.6973 0.25
242 3.85059 7.29452 6.13368 0.25
243 1.37129 6.44023 0.646803 0.25
244 1.08688 1.40113 7.39797 0.25
245 6.18674 7.15302 6.68579 0.25
246 1.79405 8.46059 10.2213 0.25
247 1.98864 7.31718 3.38717 0.25
248 5.55104 2.11885 8.85322 0.25
249 6.81195 4.1392 5.31466 0.25
250 7.19322 1.22849 6.70473 0.25
251 1.53156 1.21724 6.60846 0.25
252 6.62464 7.00046 7.95355 0.25
253 3.71725 7.72 8.91566 0.25
254 1.60692 9.84595 2.50248 0.25
255 1.40754 0.646396 1.4575 0.25
256 3.47737 6.02072 4.56024 0.25
257 0.527843 0.193134 9.98971 0.25
258 4.87073 5.19685 7.21435 0.25
259 1.57969 10.118 4.22908 0.25
260 1.39774 10.2374 10.3459 0.25
261 6.81251 6.70407 9.21507 0.25
262 5.36727 6.38366 3.34533 0.25
263 8.29437 8.24169 9.83277 0.25
264 7.51632 9.24816 9.91547 0.5
265 4.22692 4.11994 2.49876 0.25
266 3.78712 4.17412 2.28287 0.25
267 3.03405 7.95146 5.71765 0.25
268 3.5501 7.65249 6.17153 0.25
269 7.57391 8.63858 5.66055 0.25
270 3.28529 8.09331 6.11899 0.25
271 4.33335 8.83297 1.04091 0.25
272 6.62658 6.82851 5.39971 0.25
273 9.75168 3.25834 7.80545 0.25
274 3.51815 4.53878 6.13087 0.25
275 0.257755 7.00293 2.0751 0.25
276 8.0889 0.784825 8.56563 0.25
277 3.15765 9.98326 8.14092 0.5
278 4.42735 6.00951 8.45431 0.25
279 2.86533 0.0343554 8.66982 0.25
280 3.64761 0.543432 9.41734 0.25
281 4.14606 8.34841 3.17078 0.25
282 4.47827 1.1195 3.3961 0.25
283 9.39738 0.121402 9.12739 0.25
284 1.4767 5.23727 0.42871 0.25
285 8.7087 6.79064 0.983444 0.25
286 0.159754 1.45794 1.84923 0.25
287 2.20196 7.96384 2.4413 0.25
288 1.01785 5.96868 4.19155 0.25
289 9.42122 0.616208 1.46714 0.25
290 9.14245 4.4354 2.37101 0.25
291 8.14086 2.48803 0.266527 0.25
292 4.25642 9.28266 1.27129 0.25
293 4.66356 2.74448 7.18568 0.5
294 0.0801075 6.76733 2.48513 0.25
295 6.79616 0.873444 7.20455 0.5
296 2.96402 2.61132 4.36697 0.25
297 0.981081 7.94833 5.36282 0.25
298 4.41601 9.71348 0.51133 0.25
299 9.06646 4.91368 9.84668 0.25
300 1.80901 0.0911055 4.99794 0.25
301 4.64181 8.28957 8.29495 0.25
302 5.08336 4.94982 7.98102 0.25
303 9.00283 5.41841 0.0821544 0.5
304 4.48971 3.28202 2.4093 0.25
305 2.00719 8.41038 2.6236 0.25
306 10.2728 8.16615 9.02713 0.25
307 1.35446 0.0350752 9.87063 0.25
308 8.50646 6.11131 6.51612 0.25
309 8.61172 1.44423 8.11173 0.25
310 6.53062 6.32169 6.23692 0.25
311 1.80611 0.79709 2.10442 0.25
312 8.82176 0.869167 8.60343 0.5
313 1.98566 8.33228 2.10259 0.25
314 0.876403 4.35436 2.15165 0.25
315 2.94826 0.612579 9.1484 0.5
316 7.00997 3.5782 7.3805 0.25
317 6.33218 9.95246 8.71212 0.25
318 10.0183 8.02321 9.48301 0.25
319 10.1937 9.63132 3.18789 0.25
320 1.29267 2.60477 10.2695 0.25
321 2.06879 1.9357 1.68588 0.25
322 0.7197 7.01497 4.9619 0.25
323 6.46939 9.98808 9.46174 0.5
324 7.84644 2.53814 3.13793 0.25
325 9.42199 4.08727 2.10561 0.25
326 3.11705 10.2474 4.71572 0.25
327 1.66931 8.80188 7.13293 0.25
328 4.50327 3.76769 2.36776 0.25
329 8.48968 6.67848 3.70477 0.5
330 10.2689 6.57848 2.03046 0.25
331 9.68261 10.1596 3.89947 0.25
332 6.5064 7.31683 0.466294 0.25
333 9.68352 7.65305 8.83308 0.25
334 6.34137 5.27876 1.61208 0.25
335 5.85153 5.18013 0.62212 0.25
336 9.24744 3.55448 1.44037 0.25
337 4.72502 5.63984 8.622 0.25
338 7.80357 8.48778 2.42304 0.25
339 3.90734 5.95181 8.54467 0.25
340 0.810451 2.51556 10.1483 0.25
341 3.76919 5.76514 4.19828 0.25
342 9.80978 3.08529 7.30876 0.25
343 0.103468 1.65041 4.23964 0.25
344 4.27552 0.77023 3.10465 0.25
345 6.68821 4.40877 0.072418 0.25
346 1.55746 1.27437 7.59104 0.25
347 3.71215 3.73978 0.0318126 0.25
348 5.62251 7.28128 0.62779 0.25
349 4.93267 1.74085 7.71936 0.25
350 2.70791 3.12089 8.02893 0.25
351 4.81338 7.07554 3.23917 0.25
352 8.3365 6.80278 1.32413 0.25
353 9.73768 2.95323 6.74334 0.25
354 9.84984 3.79549 2.16972 0.25
355 3.03473 1.48692 1.91353 0.25
356 4.22978 10.1275 1.18048 0.25
357 3.14654 4.60427 5.80565 0.25
358 4.157 10.1208 0.707737 0.25
359 9.00047 6.4198 0.453727 0.5
360 4.24153 0.436312 6.82696 0.25
361 10.1299 0.640694 6.59536 0.25
362 9.71747 7.64656 9.33942 0.25
363 6.95467 2.25197 2.35533 0.25
364 9.92755 6.23351 2.2176 0.25
365 5.98492 9.01617 5.00989 0.25
366 9.10788 4.37278 1.88373 0.25
367 3.49607 0.671117 8.59935 0.25
368 9.09083 6.62998 7.60287 0.25
369 9.00784 3.83137 4.12323 0.5
370 5.06258 1.91369 7.01103 0.5
371 9.60262 6.68485 1.6917 0.5
372 1.32668 2.51213 4.29091 0.5
373 3.62598 0.120104 8.50727 0.25
374 3.55458 0.374752 8.94875 0.25
375 4.83509 1.44227 3.16617 0.25
376 0.6074 5.68353 4.22033 0.25
377 10.1041 7.70441 9.01463 0.25
378 9.85475 9.36628 1.26686 0.25
379 0.21174 3.9579 6.18032 0.25
380 1.86339 2.5284 4.78432 0.25
381 6.79902 5.64565 2.08368 0.5
382 2.08211 8.05767 10.2096 0.25
383 5.51983 8.62876 8.01397 0.25
384 2.23768 6.38872 7.54757 0.25
385 0.774831 6.66849 5.30631 0.25
386 1.12991 5.85421 7.47406 0.25
387 1.52696 6.38207 8.05314 0.25
388 2.7513 2.09043 1.24136 0.25
389 5.14685 1.53295 0.933285 0.25
390 3.48529 3.97045 10.0075 0.25
391 4.10608 10.1915 6.29386 0.25
392 0.476352 5.55249 4.71804 0.25
393 8.62419 8.45023 6.69306 0.25
394 10.2166 0.763507 5.91874 0.25
395 1.89529 4.79515 2.91381 0.25
396 3.35007 0.452692 9.82448 0.25
397 7.73538 2.25037 2.77434 0.25
398 9.51441 4.42359 9.22683 0.25
399 2.57442 9.82623 7.66268 0.25
400 7.78985 2.74193 9.89993 0.25
401 5.21737 6.79487 3.08625 0.25
402 4.27475 5.78897 8.87003 0.25
403 6.26969 5.01916 0.403302 0.25
404 8.60344 3.26705 9.85552 0.25
405 1.57542 6.01877 0.46826 0.25
406 6.43383 9.23522 5.05453 0.25
407 6.79947 6.61846 8.68959 0.25
408 9.98863 8.66281 1.5069 0.25
409 9.93632 6.66343 2.401 0.25
410 5.31199 1.38515 4.40023 0.25
411 8.10691 8.98013 10.3189 0.25
412 4.5728 2.0682 7.62668 0.25
413 7.4039 2.44915 2.42522 0.25
414 6.33024 5.72263 2.69959 0.25
415 5.01066 0.716645 3.20444 0.5
416 9.80997 0.405368 9.2741 0.25
417 3.77389 7.87743 5.61637 0.5
418 0.754647 1.09926 6.84387 0.5
419 9.35824 0.0441286 3.59973 0.25
420 5.07769 8.93718 7.95681 0.25
421 9.46894 5.84295 7.2709 0.25
422 2.20528 7.29593 2.92447 0.25
423 1.5453 5.18184 2.79791 0.25
424 0.262919 0.394718 9.24728 0.25
425 2.26978 0.217162 4.85159 0.25
426 2.88613 1.62992 1.49877 0.25
427 6.75434 1.30222 6.54405 0.25
428 7.45718 9.64117 2.01536 0.25
429 5.23078 9.38918 8.05029 0.25
430 9.71079 8.98324 3.77751 0.25
431 7.55944 0.648284 0.519683 0.25
432 2.46109 7.94954 0.114443 0.25
433 3.18879 2.86266 5.27625 0.25
434 6.00239 9.56505 8.92737 0.25
435 0.216404 3.29824 9.29078 0.25
436 6.76065 4.73399 0.450443 0.25
437 1.30685 5.73047 9.71838 0.25
438 7.34147 0.830947 6.68425 0.25
439 9.45456 9.60339 3.45715 0.5
440 2.09731 2.82356 7.71218 0.5
441 1.05276 3.91761 2.28356 0.25
442 6.62764 7.3506 0.946387 0.25
443 9.86207 9.74965 4.07241 0.25
444 1.34169 3.60172 2.03337 0.25
445 5.26986 7.18846 3.38682 0.25
446 8.55132 4.43558 4.92906 0.25
447 6.53904 4.8548 10.3211 0.25
448 4.81802 0.829344 4.11574 0.5
449 9.82311 0.16454 6.516 0.25
450 2.96295 1.12239 2.24736 0.25
451 2.85053 3.60488 0.0547087 0.25
452 6.13295 4.37613 4.22474 0.25
453 7.28592 4.45444 8.43209 0.25
454 1.73862 5.612 8.42667 0.25
455 1.80708 6.10837 8.41265 0.25
456 2.42082 1.76059 1.35278 0.25
457 10.146 8.89028 0.726202 0.5
458 1.37289 6.32796 7.47892 0.25
459 1.19126 1.49754 6.38208 0.25
460 1.44355 6.03802 7.10869 0.25
461 4.01186 6.63659 1.77435 0.25
462 3.90118 6.19405 1.94574 0.25
463 1.83651 0.123012 4.1899 0.25
464 9.70722 1.55499 1.64719 0.25
465 6.39318 5.27006 2.56536 0.25
466 4.74617 5.62165 7.82309 0.5
467 3.31921 5.3496 5.59262 0.25
468 2.86067 1.56682 2.34938 0.25
469 4.45552 3.37706 2.92162 0.25
470 4.15958 4.1353 2.98015 0.25
471 2.61908 10.0122 5.36555 0.25
472 1.85365 2.17124 7.97043 0.25
473 2.54132 7.73725 9.4722 0.25
474 9.55387 4.56087 2.11616 0.25
475 8.73539 6.55321 4.38865 0.25
476 3.5303 5.9913 1.60724 0.25
477 10.1811 9.59518 3.70351 0.25
478 8.77568 6.12754 1.35522 0.5
479 7.12575 0.131403 1.00866 0.25
480 2.61758 8.24289 10.1286 0.25
481 4.19154 9.72865 1.48974 0.25
482 6.67021 9.60308 5.28063 0.25
483 7.0351 0.159305 0.254726 0.5
484 9.479 3.24543 7.03188 0.25
485 8.34423 3.2024 10.2838 0.25
486 4.66351 8.73861 3.71578 0.25
487 3.62913 4.19765 0.114337 0.25
488 7.06778 9.29308 1.95453 0.25
489 9.21886 6.53864 3.63171 0.25
490 2.15063 3.57942 7.57801 0.25
491 8.65622 8.91714 6.67966 0.25
492 7.84986 2.35966 10.1938 0.25
493 9.65849 3.57435 7.3462 0.25
494 8.4051 3.58911 4.52023 0.25
495 9.38817 3.73044 6.89184 0.25
496 4.53342 1.86914 6.42221 0.25
497 3.28548 3.46874 0.241949 0.25
498 8.09324 1.2942 8.74435 0.25
499 4.72491 9.12056 1.21 0.25
500 3.97171 7.30198 8.65099 0.25
501 2.81492 9.88242 4.62989 0.25
502 8.67857 6.55961 6.60526 0.25
503 7.0738 8.12586 2.57059 0.25
504 6.33496 7.69975 0.654503 0.25
505 7.27438 1.12885 5.93667 0.5
506 5.53277 9.98289 5.64422 0.25
507 7.44262 8.41386 2.72615 0.25
508 5.0316 8.00876 8.27805 0.25
509 1.37539 9.1522 7.92534 0.25
510 5.93679 4.4088 4.99047 0.25
511 4.00705 -0.0170229 6.80246 0.25
512 1.81591 5.22961 3.57532 0.25
513 1.62387 5.1241 -0.0253511 0.25
514 3.63461 1.99993 5.52164 0.25
515 2.09907 1.56677 7.02572 0.5
516 6.25831 9.16081 5.73707 0.5
517 9.14623 6.67125 4.14315 0.25
518 2.93641 0.689162 9.95857 0.25
519 2.49422 9.74686 4.99548 0.25
520 4.97919 2.24392 7.69876 0.25
521 1.17748 4.6266 5.68676 0.25
522 2.32875 9.95637 4.6115 0.25
523 2.27168 3.22051 8.29443 0.25
524 8.21624 1.27129 5.13197 0.25
525 2.32971 5.98564 7.21145 0.25
526 1.33793 5.45118 8.27585 0.25
527 6.52095 9.17148 2.50317 0.5
528 6.916 8.88396 3.10338 0.25
529 3.21845 5.87652 1.18119 0.25
530 2.29929 8.7016 2.85124 0.25
531 0.670263 3.474 9.39162 0.25
532 1.55807 8.82109 0.123748 0.25
533 9.09443 9.57557 4.11536 0.25
534 8.98192 4.35009 4.69242 0.25
535 7.08612 6.98063 8.04882 0.25
536 4.62669 10.1626 0.441093 0.25
537 7.51636 1.04052 3.61373 0.25
538 6.76395 4.66094 7.69846 0.25
539 10.1339 3.60669 6.77022 0.5
540 6.04246 10.2761 8.45893 0.25
541 9.74237 8.94458 1.22171 0.25
542 7.92389 8.88657 5.47114 0.25
543 8.94714 4.38372 3.64176 0.25
544 1.70127 2.14255 7.5039 0.25
545 9.99229 9.1977 3.01115 0.25
546 0.192835 0.832217 6.29434 0.25
547 9.46465 3.58933 1.91446 0.25
548 9.21871 4.78718 9.05609 0.25
549 1.32994 0.844977 1.93794 0.25
550 10.237 9.07543 1.46086 0.25
551 1.93672 6.94412 3.07575 0.25
552 8.89853 9.28462 6.84346 0.25
553 5.19099 3.14734 5.0179 0.25
554 8.94247 4.53882 4.18793 0.25
555 5.56469 9.07952 7.86049 0.25
556 1.32544 9.44309 7.51353 0.25
557 3.04001 9.904 7.3628 0.25
558 2.64756 3.81472 7.64777 0.25
559 9.5141 1.11671 8.90399 0.25
560 3.63446 4.59756 5.65523 0.25
561 0.981165 3.89476 1.82107 0.25
562 5.41737 4.9318 9.53531 0.25
563 5.56235 10.1453 8.55686 0.25
564 1.51787 1.67857 7.33682 0.25
565 2.60377 1.22751 2.57972 0.25
566 8.80861 6.26683 7.42716 0.25
567 0.871013 6.42551 0.47969 0.25
568 7.43317 1.19786 5.13934 0.25
569 7.29107 4.24079 7.37148 0.5
570 4.88356 3.54421 2.70102 0.25
571 3.7668 4.25715 2.83254 0.25
572 8.53038 1.53437 8.60969 0.25
573 0.28013 6.77679 5.17287 0.25
574 0.635992 0.527303 6.40091 0.25
575 5.69339 4.25088 4.54251 0.25
576 5.29634 1.9878 1.02484 0.25
577 0.734574 7.87001 4.9756 0.25
578 0.948797 5.34955 10.2114 0.5
579 5.19845 5.08233 7.49187 0.25
580 8.24481 6.45694 4.36277 0.25
581 7.15661 6.33015 8.52796 0.25
582 7.34196 4.48567 4.64231 0.25
583 8.69974 6.32684 6.12278 0.25
584 5.40859 7.00309 3.8062 0.25
585 7.23264 0.57497 0.89358 0.25
586 1.74132 3.02389 4.6972 0.25
587 6.03154 9.92397 5.74835 0.25
588 2.75538 1.33124 9.39578 0.25
589 10.0329 3.54888 1.82449 0.25
590 9.16551 7.04307 3.77557 0.25
591 3.82744 2.40244 5.28707 0.25
592 6.85848 5.23744 2.72736 0.25
593 5.63557 9.31521 6.18627 0.25
594 8.50117 5.73316 9.82353 0.25
595 1.84829 1.71974 7.72957 0.25
596 9.64427 8.46633 1.13549 0.25
597 4.50592 1.14739 2.87206 0.25
598 6.44838 7.73262 0.165928 0.25
599 10.1917 1.65128 1.45048 0.25
600 3.96191 8.91933 1.34558 0.25
601 7.36016 9.89887 2.44077 0.25
602 6.7658 7.98065 2.26028 0.25
603 1.94482 5.90091 6.93647 0.25
604 8.9881 1.20744 1.024 0.25
605 2.50774 8.21533 2.7426 0.25
606 1.53607 2.08418 6.99907 0.25
607 2.15858 2.10181 7.56985 0.25
608 5.96604 6.02471 5.72683 0.5
609 4.35507 6.2355 1.71267 0.25
610 6.34038 4.79032 1.06384 0.5
611 7.98568 8.53684 7.25486 0.25
612 8.5615 0.241048 3.80152 0.5
613 8.07633 2.99973 0.301307 0.25
614 9.58574 6.65468 0.893576 0.25
615 7.38472 3.56901 7.63508 0.25
616 1.30984 1.58526 6.88988 0.25
617 2.59443 3.3153 7.54195 0.25
618 8.18065 3.04065 9.79488 0.25
619 1.95356 9.85057 2.11906 0.25
620 6.4959 5.38548 3.02991 0.25
621 6.98625 4.77397 1.44787 0.25
622 7.40156 6.54425 8.10366 0.25
623 7.90796 4.09029 4.82932 0.5
624 4.96518 8.4063 8.62325 0.25
625 5.11196 2.12451 0.213699 0.25
626 2.48494 2.70869 4.20761 0.25
627 7.25615 5.4948 2.67638 0.25
628 1.09994 9.88255 0.151924 0.25
629 7.43369 10.0559 10.0542 0.25
630 5.70344 7.1352 0.150552 0.25
631 8.10804 1.71033 5.38285 0.25
632 3.23304 3.91224 0.0642377 0.25
633 3.27679 3.49573 10.1522 0.25
634 4.4827 7.78101 8.80938 0.5
635 9.26008 6.27971 7.26388 0.25
636 8.77989 5.27584 9.74471 0.25
637 6.24142 9.2202 4.60419 0.25
638 2.59806 0.15107 4.22757 0.5
639 7.0363 2.79704 2.29912 0.25
640 7.36925 1.61256 7.89698 0.25
641 3.418 6.15412 4.05293 0.25
642 3.26171 7.75488 6.52837 0.25
643 2.92823 1.80674 9.6498 0.25
644 5.94086 9.79144 5.0291 0.5
645 2.80943 4.11856 0.0286456 0.25
646 8.39179 6.93806 4.48216 0.25
647 6.59376 6.41312 5.73158 0.25
648 6.94656 1.30056 7.8139 0.25
649 4.67401 6.02437 8.9593 0.25
650 7.97069 1.09176 3.39876 0.25
651 4.74142 8.78333 8.34336 0.25
652 1.38075 5.91063 8.25105 0.25
653 0.683076 4.65199 5.79174 0.25
654 1.8008 6.56659 7.65968 0.25
655 10.163 3.46249 1.3729 0.25
656 4.71363 4.92222 7.58606 0.25
657 8.46007 9.1792 7.0602 0.25
658 7.19217 4.64708 8.02489 0.25
659 9.28119 0.021097 4.14055 0.25
660 1.79507 5.78477 7.69041 0.5
661 2.46493 7.68392 2.76852 0.25
662 7.70391 8.53124 5.15138 0.25
663 3.60416 0.911474 9.05815 0.25
664 0.980604 2.71036 0.23104 0.25
665 8.32699 6.55572 0.870108 0.25
666 5.52446 9.71086 8.79211 0.25
667 8.56087 2.78331 10.0115 0.25
668 6.76613 1.60544 5.57379 0.25
669 3.31719 7.5569 9.50233 0.5
670 0.25975 2.77256 9.43749 0.25
671 0.537201 6.32113 4.64381 0.5
672 5.77614 6.68041 5.37243 0.25
673 3.83052 9.45044 1.32138 0.25
674 7.08962 4.04547 4.86501 0.25
675 7.58516 8.78897 7.42183 0.25
676 5.84185 2.21243 0.473908 0.5
677 9.43851 2.74234 7.18326 0.25
678 0.0671735 0.101221 6.14232 0.5
679 2.02981 2.29899 7.12613 0.25
680 2.39338 7.03072 3.28664 0.25
681 8.14483 9.16507 6.75797 0.25
682 3.16855 7.98839 5.21036 0.25
683 0.264713 3.20851 10.1229 0.25
684 1.51391 9.26289 7.05728 0.25
685 8.95859 10.1573 3.40593 0.25
686 6.6683 9.49329 4.74683 0.25
687 9.40168 3.12404 7.50519 0.25
688 5.2512 7.266 0.29226 0.25
689 2.14827 2.38208 4.38476 0.25
690 10.1326 7.51303 8.56701 0.25
691 0.0437672 8.13327 5.51566 0.25
692 1.02378 4.65517 6.16419 0.25
693 9.76769 2.08128 3.80684 0.25
694 3.1888 4.25652 0.369747 0.25
695 7.82692 1.5268 4.96767 0.25
696 5.40115 1.11995 3.66866 0.25
697 1.33121 8.98354 7.42174 0.25
698 8.71793 5.78774 0.666284 0.25
699 3.51421 7.22604 5.34567 0.25
700 5.13108 7.14494 0.80967 0.25
701 3.27237 4.8867 5.43638 0.25
702 6.03593 3.89397 4.3266 0.25
703 2.20093 0.528838 1.94661 0.25
704 7.4526 3.98334 8.47781 0.25
705 3.85162 5.82674 9.0361 0.25
706 7.36128 1.20286 7.55508 0.25
707 6.47896 6.69789 4.89081 0.25
708 5.59953 6.79824 3.38651 0.25
709 1.57806 4.34943 1.93931 0.5
710 1.04468 5.0589 5.85078 0.25
711 6.62441 3.86404 7.36185 0.25
712 4.41327 8.7803 3.26395 0.25
713 1.51799 4.97163 3.29671 0.25
714 1.9671 10.2574 4.58301 0.25
715 2.20095 3.93139 7.89235 0.25
716 9.38541 8.85552 0.990858 0.25
717 2.89919 5.16234 5.28616 0.25
718 5.84204 3.61427 4.99065 0.5
719 5.6133 3.18029 5.69051 0.25
720 5.47437 1.00845 4.12812 0.25
721 3.69136 8.03207 6.4741 0.25
722 3.53078 5.35323 4.07504 0.25
723 5.49289 6.91606 6.2333 0.25
724 9.42484 0.616974 9.0023 0.25
725 4.46224 0.599687 6.41085 0.25
726 3.262 5.71804 4.24189 0.25
727 4.03517 5.35372 4.25111 0.25
728 1.67918 8.05769 0.44516 0.5
729 7.46767 1.86418 6.07493 0.25
730 8.22669 1.19922 8.2882 0.25
731 1.62793 5.56013 10.054 0.25
732 3.34869 7.28385 6.35255 0.25
733 9.99441 2.22326 4.5662 0.25
734 8.82443 7.40361 3.86981 0.25
735 3.4755 2.50806 5.57041 0.25
736 9.10932 5.48461 6.43302 0.25
737 0.806138 4.354 5.4364 0.25
738 5.43082 8.32356 8.41164 0.25
739 3.46378 3.86096 0.470405 0.25
740 8.85612 6.85076 1.47345 0.25
741 6.70341 2.14408 2.77081 0.25
742 5.1579 2.27427 0.658135 0.25
743 10.2158 1.78859 4.63573 0.25
744 2.49717 2.84172 4.92101 0.5
745 0.453501 4.2046 5.80564 0.25
746 6.84875 5.22748 1.45232 0.25
747 8.01393 2.02506 0.133815 0.25
748 7.22106 9.9082 9.62152 0.25
749 7.57322 3.83751 7.99923 0.25
750 4.52826 2.31914 6.61141 0.25
751 2.03333 2.58209 3.93603 0.25
752 10.0428 1.91823 4.20281 0.25
753 1.00404 3.27704 10.076 0.5
754 7.84021 1.64033 5.77924 0.25
755 8.13603 2.74108 10.2148 0.25
756 5.37335 2.11495 1.52797 0.25
757 0.382901 2.25965 4.47382 0.5
758 1.93611 0.386205 4.57066 0.25
759 4.74224 2.71592 8.34578 0.25
760 5.18199 0.203003 3.78388 0.25
761 5.502 6.66961 5.75133 0.25
762 0.479289 3.932 6.56298 0.25
763 6.63696 4.71388 4.76133 0.5
764 4.92732 7.12474 3.74135 0.25
765 6.76473 7.0421 8.42866 0.25
766 1.11613 5.17586 3.08116 0.25
767 7.47721 2.94115 2.43546 0.25
768 4.99978 2.70775 5.71603 0.5
769 1.15655 2.58841 9.799 0.25
770 6.17953 6.96083 5.95973 0.5
771 5.26825 7.5994 0.688337 0.25
772 7.19743 9.0713 5.17208 0.5
773 6.27023 4.41148 10.1923 0.25
774 6.99164 8.62231 2.68118 0.25
775 9.99292 8.01299 8.63033 0.25
776 4.48468 0.0662896 0.828348 0.25
777 1.84866 8.75562 2.9634 0.25
778 3.1949 0.312816 8.56085 0.25
779 10.1847 7.842 8.20062 0.25
780 5.07573 4.97428 9.89739 0.25
781 5.56817 6.54727 3.79074 0.25
782 9.39217 6.2774 1.04263 0.25
783 4.18497 8.5319 3.65691 0.25
784 2.96501 3.8448 0.469205 0.25
785 8.0285 8.78239 7.67059 0.25
786 6.57655 6.30745 5.24226 0.25
787 6.05641 6.35105 5.02627 0.25
788 5.48742 0.641916 3.79268 0.25
789 7.10828 4.98758 1.90294 0.25
790 5.05199 2.52596 6.53859 0.25
791 9.03696 6.05861 5.87754 0.25
792 3.79348 3.51076 2.64945 0.5
793 10.1713 0.340205 8.99671 0.25
794 2.44284 1.71104 2.44923 0.25
795 1.60588 8.72612 7.66246 0.25
796 1.71952 9.66673 4.80688 0.5
797 9.67516 8.88985 3.25491 0.25
798 9.37254 4.43466 4.382 0.25
799 4.49529 6.70299 1.14853 0.5
800 9.67372 1.31814 2.02408 0.25
801 6.17182 10.2278 10.078 0.25
802 6.12454 7.25803 0.77897 0.25
803 9.42322 4.85413 9.52755 0.25
804 4.40844 5.19071 7.28938 0.25
805 8.5711 4.35458 3.97048 0.25
806 2.63834 9.38667 8.01418 0.25
807 2.94006 5.05806 5.79728 0.25
808 8.96997 5.51143 9.31154 0.25
809 1.43204 5.27308 9.5759 0.25
810 7.16216 1.65581 6.43454 0.25
811 9.05458 4.50387 9.45875 0.25
812 3.90935 6.27463 1.4734 0.25
813 1.47473 3.76915 2.51954 0.25
814 1.20317 9.93748 9.99335 0.25
815 3.5258 5.3519 4.8527 0.5
816 6.55915 0.137014 10.0349 0.25
817 4.86081 9.82283 1.06646 0.5
818 8.71838 6.06096 10.1698 0.25
819 3.4793 6.31198 1.23246 0.25
820 7.1396 4.19509 8.821 0.25
821 7.74804 8.76787 6.87505 0.25
822 4.51464 4.06935 3.30076 0.25
823 2.04196 9.32824 7.55568 0.5
824 6.52244 4.31459 7.46918 0.25
825 8.15642 8.7503 6.16123 0.5
826 6.66867 3.07667 2.52234 0.25
827 9.24635 5.51853 6.87205 0.25
828 9.68239 3.36181 1.51588 0.25
829 1.16177 7.56352 5.57217 0.25
830 3.73293 5.89576 1.20692 0.25
831 2.46666 7.47708 3.27193 0.25
832 4.09078 5.45751 9.24973 0.25
833 6.04737 6.36585 6.40847 0.25
834 8.27161 3.96883 4.18756 0.25
835 1.4813 1.17191 7.11075 0.25
836 6.73195 4.97181 2.29557 0.25
837 3.55936 7.17841 8.92095 0.25
838 2.64592 9.63203 7.20242 0.25
839 0.226785 2.70164 3.93883 0.25
840 9.34526 4.56276 3.85523 0.25
841 5.76333 4.9604 10.2594 0.5
842 6.85625 6.57203 8.21164 0.25
843 2.04055 10.1741 2.4331 0.25
844 6.63014 4.89239 1.77795 0.25
845 8.54181 4.27928 4.4579 0.25
846 0.926052 5.62792 4.57245 0.25
847 8.35009 2.31675 10.1796 0.25
848 3.36143 1.21325 9.71349 0.5
849 7.23667 5.06979 2.37763 0.25
850 4.89354 8.73321 3.20897 0.25
851 4.23388 6.04106 1.20773 0.25
852 5.25141 1.43505 3.96238 0.25
853 9.41287 9.86754 4.24672 0.25
854 1.94151 3.54176 8.02927 0.25
855 3.51974 6.46061 1.73184 0.25
856 9.03284 3.02272 7.21085 0.25
857 6.6004 3.96745 4.88192 0.25
858 7.98563 7.26875 3.80611 0.25
859 9.60655 1.05823 1.55762 0.25
860 2.18126 9.78606 5.38362 0.25
861 4.10399 9.25903 1.74598 0.25
862 7.44348 0.963934 8.23584 0.5
863 0.0344122 3.12168 9.71491 0.25
864 3.75693 3.76478 1.96515 0.25
865 0.232127 7.06066 4.80593 0.25
866 2.82101 1.14189 10.1831 0.25
867 2.79731 8.07811 9.24988 0.25
868 9.3327 1.43492 1.29645 0.25
869 0.864072 7.93198 5.82873 0.25
870 7.22866 6.80016 8.49527 0.25
871 6.60567 2.56627 2.51833 0.25
872 8.02431 1.2966 7.58 0.5
873 5.32475 9.53388 5.39669 0.25
874 6.61187 8.92352 4.74835 0.25
875 3.4993 8.04459 4.83894 0.25
876 3.89518 6.29299 0.97325 0.25
877 0.840544 2.06101 3.8381 0.25
878 10.2087 0.673668 9.38113 0.25
879 0.998088 7.47579 5.07445 0.25
880 5.92696 4.63536 4.53697 0.25
881 4.10702 6.56701 8.91899 0.5
882 9.75925 0.953124 5.88535 0.25
883 5.5346 2.9397 5.24601 0.25
884 2.69847 2.22273 1.95372 0.5
885 8.76919 9.83705 3.76956 0.25
886 9.44586 8.73374 1.53196 0.25
887 2.03803 6.35464 8.06111 0.25
888 1.89473 0.62361 1.59073 0.25
889 4.82788 5.16596 8.44573 0.25
890 0.714069 3.84843 6.07655 0.25
891 4.19479 4.00541 2.04541 0.25
892 6.63868 8.4051 2.47923 0.25
893 7.85106 3.11328 10.1781 0.25
894 1.92276 8.69961 0.323671 0.25
895 9.21038 2.90603 6.78075 0.25
896 9.87769 1.33618 1.22447 0.25
897 3.72478 7.48194 6.59885 0.25
898 0.774319 5.06318 5.20133 0.5
899 0.249634 0.573344 6.71811 0.25
900 8.79537 7.0484 4.22773 0.25
901 0.379439 8.1292 5.83155 0.25
902 5.65225 1.61265 0.88436 0.25
903 7.82866 6.47532 4.01682 0.25
904 1.27626 6.20591 10.2642 0.5
905 9.13376 1.02101 1.48028 0.25
906 10.0295 9.26613 3.96472 0.25