ITEM: TIMESTEP
390000
ITEM: NUMBER OF ATOMS
1000
ITEM: BOX BOUNDS xy xz yz pp pp pp
0.0000000000000000e+00 1.0357442000000001e+01 0.0000000000000000e+00
0.0000000000000000e+00 1.0357442000000001e+01 0.0000000000000000e+00
0.0000000000000000e+00 1.0357442000000001e+01 0.0000000000000000e+00
ITEM: ATOMS id x y z radius
1 1.52737 4.21023 2.94756 0.5
2 2.09716 7.47611 2.53042 0.5
3 5.08999 1.48521 1.04028 0.25
4 0.690532 2.77427 4.56487 0.25
5 9.17061 3.43281 6.85135 0.25
6 0.317341 2.9819 9.47806 0.25
7 4.22829 1.05552 3.60232 0.25
8 9.18058 4.59245 2.18188 0.25
9 9.67511 1.68166 1.36545 0.25
10 8.81683 7.60514 3.89642 0.25
11 9.86118 8.23703 1.76646 0.25
12 8.02788 2.54089 10.1801 0.25
13 3.3949 8.16481 5.95192 0.25
14 5.67496 2.11495 0.165546 0.25
15 8.49055 5.88625 6.46257 0.25
16 8.81141 8.71916 6.16046 0.25
17 5.25335 9.07204 8.63483 0.5
18 2.4885 7.8734 9.53465 0.25
19 7.15768 4.4317 4.82769 0.25
20 8.96985 1.30433 1.22612 0.25
21 0.195065 0.0869325 9.83142 0.25
22 4.24103 0.556935 3.49896 0.25
23 3.88721 3.97597 3.02539 0.25
24 2.96218 2.40906 4.36057 0.25
25 7.45833 2.20662 6.1844 0.25
26 5.35003 2.76054 8.43114 0.25
27 0.729455 8.25013 10.2399 0.25
28 8.55165 6.30735 6.74225 0.25
29 2.91634 7.8939 5.83062 0.25
30 1.27815 8.50278 7.69179 0.25
31 0.291232 7.26693 5.4605 0.25
32 9.08985 6.62229 1.19348 0.25
33 9.68623 8.18565 1.293 0.25
34 1.0495 2.9542 10.0137 0.25
35 8.22236 2.59313 9.73604 0.25
36 8.1354 8.41806 9.62415 0.25
37 3.55171 4.97486 6.56743 0.25
38 7.26965 0.332015 1.15758 0.25
39 6.10901 4.28064 4.98454 0.25
40 8.55411 4.4238 4.57806 0.25
41 9.23552 6.93327 3.79699 0.25
42 7.32122 8.68521 1.93787 0.5
43 0.622986 8.63035 5.8717 0.25
44 3.11814 10.1441 4.87699 0.25
45 7.48543 6.75364 8.288 0.25
46 1.01747 8.96941 7.71826 0.25
47 4.07812 8.83518 3.4032 0.25
48 2.92608 9.82973 5.19307 0.25
49 4.05598 6.03959 9.35178 0.25
50 9.7131 9.45312 3.88346 0.25
51 9.68106 9.31548 1.23271 0.25
52 6.41849 7.61844 0.682747 0.25
53 6.78039 5.63651 1.75523 0.25
54 4.06172 5.19934 7.68844 0.25
55 5.51446 7.03616 6.54214 0.25
56 4.83335 1.80755 1.30242 0.25
57 5.84682 1.81127 0.514732 0.25
58 5.79574 4.54885 0.492373 0.25
59 3.86332 7.22689 9.40352 0.25
60 7.23432 7.17858 8.15479 0.25
61 3.41151 0.16264 8.81935 0.25
62 8.89189 6.20985 6.43159 0.25
63 0.641924 5.43919 4.25015 0.25
64 10.0931 1.56512 1.56048 0.25
65 6.362 7.15733 6.43197 0.25
66 4.09122 0.913254 3.14644 0.25
67 9.22933 5.08035 9.07883 0.25
68 6.15769 10.3157 10.271 0.25
69 2.81382 7.46621 2.77519 0.25
70 4.05028 6.03293 3.996 0.25
71 1.30713 8.15913 2.82408 0.25
72 5.49286 6.87461 3.50208 0.25
73 9.16797 8.70746 7.17182 0.5
74 2.54936 7.85219 3.02261 0.25
75 0.892674 6.03913 0.660611 0.25
76 1.83544 8.00075 0.441773 0.25
77 7.01714 6.74688 8.26023 0.25
78 4.40368 9.24653 1.5311 0.25
79 0.739114 5.20892 9.60234 0.25
80 8.46388 8.76496 9.61515 0.25
81 8.49387 9.05946 7.4223 0.25
82 1.54541 0.948987 2.37507 0.25
83 1.62422 7.90813 2.12429 0.25
84 5.2603 9.56958 5.37272 0.25
85 3.97916 6.76228 1.11558 0.25
86 9.69184 4.09253 1.3833 0.5
87 0.905085 5.63919 8.3208 0.25
88 2.82705 3.89227 7.97676 0.25
89 0.503461 10.1487 10.1779 0.25
90 6.96461 10.3127 1.81979 0.5
91 4.58409 8.80371 3.18442 0.25
92 9.6417 0.859759 1.33897 0.25
93 8.41585 1.01545 8.4695 0.25
94 0.951736 4.27949 1.77928 0.25
95 7.26963 8.83168 6.17612 0.25
96 7.85394 0.895066 7.13059 0.25
97 5.69986 9.80016 5.31948 0.25
98 9.84558 0.767785 6.24586 0.25
99 5.16974 2.02254 8.40424 0.5
100 5.3659 3.43107 5.81507 0.25
101 5.50458 2.03426 9.83089 0.5
102 4.02661 5.35216 8.46042 0.5
103 7.0262 0.410996 0.685239 0.25
104 1.34647 10.1929 10.2779 0.25
105 1.68176 5.27474 2.89007 0.25
106 5.9875 6.38933 6.33364 0.25
107 6.09389 9.89713 8.64148 0.25
108 2.04713 3.78167 1.99952 0.25
109 7.28091 2.33416 2.89876 0.25
110 5.71647 10.0546 5.74285 0.25
111 1.88902 5.47193 0.674617 0.25
112 3.64786 5.28423 5.57103 0.25
113 2.50394 0.144107 4.31618 0.25
114 8.59465 5.93662 0.0203877 0.25
115 4.33897 3.75246 1.87228 0.25
116 0.616415 1.97707 3.64544 0.25
117 7.35567 3.0087 2.66013 0.5
118 7.80832 8.20864 2.3678 0.25
119 10.1485 2.40095 4.27388 0.25
120 1.59354 5.65421 0.352033 0.25
121 7.81336 2.19314 5.51136 0.5
122 2.03649 4.55999 2.53612 0.25
123 9.29316 9.44905 1.48724 0.25
124 8.34744 6.22647 0.39351 0.25
125 1.36588 9.96385 4.55707 0.25
126 6.18874 7.68402 0.311601 0.25
127 6.06436 7.28141 0.625025 0.25
128 9.78688 10.2994 4.14468 0.25
129 1.23301 5.28143 3.17692 0.25
130 9.23446 9.37999 0.987209 0.25
131 7.27237 2.57126 3.34677 0.25
132 8.54083 4.76459 4.95081 0.25
133 8.01372 8.86443 9.44132 0.25
134 3.69848 3.49281 2.9522 0.25
135 6.03542 9.43836 8.04988 0.5
136 8.51705 8.87214 6.9552 0.25
137 1.79634 9.42468 1.99342 0.25
138 7.17263 4.86638 4.5808 0.25
139 6.75767 3.71403 7.79591 0.5
140 4.71233 8.34865 3.28127 0.25
141 2.06594 1.84305 2.28563 0.25
142 3.25647 2.90679 5.07665 0.25
143 7.95601 1.59668 3.91742 0.25
144 10.0513 6.80667 2.28754 0.25
145 3.12515 7.89258 6.28565 0.25
146 6.83375 9.39459 3.10851 0.25
147 3.6147 6.22972 4.15331 0.25
148 2.68686 1.59819 10.2086 0.25
149 9.47329 7.75556 8.75428 0.25
150 4.09382 5.39949 7.22232 0.25
151 6.93484 9.78432 9.94023 0.25
152 4.45999 9.36077 1.0677 0.25
153 5.48137 1.92872 7.76066 0.25
154 5.29009 9.70409 8.19794 0.25
155 3.3616 5.81692 1.5215 0.25
156 1.03181 8.74625 7.28572 0.25
157 5.57256 1.08748 3.19775 0.25
158 8.90195 9.22089 6.18587 0.25
159 3.761 2.52109 5.40741 0.25
160 2.57638 3.46833 7.93499 0.25
161 3.37615 0.624655 8.70401 0.25
162 4.27731 2.2114 5.92241 0.5
163 6.79996 10.254 2.54004 0.25
164 5.32758 8.46339 8.19935 0.25
165 0.510259 2.97971 9.94206 0.25
166 6.72177 4.35112 6.70654 0.25
167 9.12338 0.0940388 3.79431 0.25
168 10.2991 7.97835 8.81127 0.25
169 9.75349 5.84974 7.13017 0.25
170 3.79795 10.2896 8.60721 0.25
171 1.30661 9.01718 6.94988 0.25
172 9.31167 6.40204 6.59329 0.25
173 0.804553 2.39901 4.89752 0.25
174 4.90593 2.06442 6.32732 0.25
175 9.26708 3.72105 7.24541 0.25
176 0.633104 5.76904 0.370824 0.25
177 9.6874 6.09535 6.63666 0.25
178 7.09039 2.13116 5.38179 0.25
179 2.77412 9.42876 8.05921 0.25
180 7.44724 9.30477 2.63779 0.5
181 0.878755 4.11615 5.75067 0.25
182 7.58842 1.26404 3.79874 0.25
183 2.62733 9.7254 4.35906 0.25
184 9.41791 4.81979 9.93214 0.25
185 9.25195 8.85997 6.41911 0.25
186 2.35863 8.26792 9.85603 0.25
187 3.23231 3.45047 0.288398 0.25
188 5.16427 2.6687 7.93962 0.25
189 9.62841 0.412049 6.03739 0.25
190 2.5225 7.64598 3.51115 0.25
191 5.05362 2.59044 8.83676 0.25
192 8.64506 9.41171 6.58957 0.25
193 5.27582 2.21015 9.15253 0.25
194 4.57173 9.75898 1.40389 0.25
195 5.24788 5.42119 9.86422 0.25
196 5.93096 1.6684 0.0228584 0.25
197 9.01968 5.73694 6.9481 0.5
198 7.65114 1.59321 7.26138 0.5
199 6.90835 10.2471 9.8153 0.25
200 6.82383 1.35763 6.59277 0.25
201 5.98116 6.83391 6.62411 0.25
202 3.23195 7.632 5.15308 0.25
203 3.91443 9.62479 10.3551 0.25
204 0.324975 3.69299 6.15496 0.25
205 3.90754 0.237477 6.78802 0.25
206 1.01983 1.95986 3.87988 0.25
207 1.24907 5.41252 3.90301 0.5
208 3.89566 4.85338 6.26002 0.25
209 6.84473 9.78234 2.76735 0.25
210 4.176 0.0723319 6.37266 0.25
211 1.58385 4.87836 2.52964 0.25
212 0.238515 4.01128 1.98215 0.5
213 9.1404 3.80051 1.74956 0.25
214 3.29338 4.97435 5.73977 0.25
215 10.0541 0.663214 9.11529 0.25
216 4.97255 2.10092 0.545181 0.25
217 0.443226 8.21613 5.60828 0.25
218 2.01622 1.26211 1.84416 0.5
219 0.89997 4.27978 6.25196 0.25
220 6.57453 9.72395 1.93473 0.25
221 8.34091 7.58491 4.13143 0.25
222 8.98889 6.43854 6.91681 0.25
223 5.58031 9.37295 5.09216 0.25
224 9.60933 3.35614 6.64185 0.25
225 7.63931 1.52172 5.34771 0.25
226 6.3104 8.83045 5.17114 0.25
227 6.81029 0.440345 1.17104 0.25
228 5.57575 1.67119 0.913909 0.25
229 1.80598 2.32781 1.52675 0.25
230 8.74257 6.84466 3.66241 0.25
231 6.64074 4.7703 7.52852 0.25
232 6.93612 9.74941 2.30666 0.25
233 8.15296 1.71581 8.30415 0.5
234 3.70849 9.92226 1.34759 0.25
235 1.03701 9.28447 7.34719 0.25
236 1.11361 5.64297 0.506461 0.25
237 7.97917 1.0962 4.0592 0.25
238 1.2244 6.01109 4.34636 0.25
239 0.0864984 2.75717 9.8093 0.25
240 1.42625 8.87548 2.49146 0.5
241 1.83992 9.55171 2.4416 0.25
242 3.46201 7.64352 6.56153 0.25
243 1.04781 6.42151 0.629449 0.25
244 1.00319 1.27194 7.42519 0.25
245 5.8915 7.34629 6.57925 0.25
246 1.16948 8.28902 0.150181 0.25
247 2.77571 7.19803 2.33221 0.25
248 5.66293 2.00722 8.97376 0.25
249 7.23959 4.47335 4.34227 0.25
250 7.29315 1.43758 6.64858 0.25
251 1.66382 1.1825 6.95465 0.25
252 6.61483 6.0019 8.93819 0.25
253 3.82139 7.41605 8.9439 0.25
254 1.40001 9.56822 2.19284 0.25
255 1.72043 0.516337 2.58926 0.25
256 3.86992 5.2314 4.00428 0.25
257 0.925263 10.1106 9.9068 0.25
258 4.96115 5.30187 7.2916 0.25
259 2.13258 0.184852 4.63691 0.25
260 1.37277 9.77899 0.223519 0.25
261 6.79469 7.17545 8.36702 0.25
262 5.65789 7.35377 3.58252 0.25
263 8.4896 8.43462 9.96552 0.25
264 7.60102 9.36355 9.85849 0.5
265 4.63984 3.79159 2.62894 0.25
266 4.94264 4.0791 2.35842 0.25
267 3.28556 7.98156 5.48139 0.25
268 3.63345 7.8561 6.14043 0.25
269 7.60542 8.74762 5.7587 0.25
270 3.77597 8.05697 5.65501 0.25
271 4.29664 9.66216 1.82383 0.25
272 6.21334 7.02737 4.97636 0.25
273 9.8727 3.57257 7.84372 0.25
274 3.42953 4.75093 6.153 0.25
275 0.0920963 6.51516 2.46878 0.25
276 8.35805 0.582396 8.38353 0.25
277 3.01131 10.1313 8.38478 0.5
278 4.33041 6.1298 8.45056 0.25
279 3.53829 0.309336 8.39016 0.25
280 2.95755 0.385842 8.93411 0.25
281 4.87407 9.17187 3.36883 0.25
282 4.88644 1.61265 3.28086 0.25
283 9.67726 10.4132 8.86387 0.25
284 1.46149 5.25701 0.592548 0.25
285 8.81337 6.81978 0.893779 0.25
286 9.91073 2.0766 1.59846 0.25
287 2.08215 8.14559 2.9511 0.25
288 1.45928 5.59452 4.57213 0.25
289 9.13525 1.19913 0.773938 0.25
290 9.64572 4.40956 2.37489 0.25
291 8.12973 3.01266 9.96457 0.25
292 4.08847 9.58959 1.40914 0.25
293 4.76099 2.65992 7.22165 0.5
294 10.0893 6.673 2.77597 0.25
295 7.09832 0.791532 7.08852 0.5
296 3.13481 2.82241 4.55484 0.25
297 0.120925 8.02892 5.22175 0.25
298 4.67327 9.29013 0.618328 0.25
299 8.97225 4.80258 9.82318 0.25
300 1.68804 9.67462 4.76256 0.25
301 4.58632 8.1213 7.96921 0.25
302 4.90981 5.06473 7.74456 0.25
303 9.01991 5.33176 0.0293081 0.5
304 3.8805 3.5856 2.07937 0.25
305 1.7205 8.16127 2.54984 0.25
306 9.84961 8.08291 8.62082 0.25
307 0.946895 9.96037 0.0434941 0.25
308 8.87342 5.77133 6.18612 0.25
309 8.63759 1.40906 8.75862 0.25
310 6.63797 6.90748 5.91655 0.25
311 1.34688 0.394504 1.80429 0.25
312 9.00086 0.793048 8.77289 0.5
313 1.63059 8.43055 3.01909 0.25
314 0.982709 4.12607 2.30449 0.25
315 3.51008 0.664332 9.40475 0.5
316 7.63486 3.92773 6.99631 0.25
317 6.42504 9.50069 8.65105 0.25
318 10.2581 7.88191 8.30618 0.25
319 9.8593 9.24263 3.42247 0.25
320 1.44659 2.65367 9.85635 0.25
321 1.76355 1.99079 1.87717 0.25
322 0.383318 7.09782 5.02138 0.25
323 6.53113 9.87587 9.27296 0.5
324 7.70216 2.53709 3.12229 0.25
325 9.36402 4.09831 2.05154 0.25
326 2.84207 10.3168 5.21059 0.25
327 1.73215 8.63692 7.56189 0.25
328 4.28484 3.54571 2.33698 0.25
329 8.74072 6.98318 4.33544 0.5
330 10.3317 6.45138 2.00509 0.25
331 9.19521 0.466654 3.57501 0.25
332 6.39326 7.50856 10.2368 0.25
333 10.206 7.56857 9.04805 0.25
334 6.97481 4.86995 1.35551 0.25
335 5.7306 5.01168 0.573604 0.25
336 9.33412 3.40011 1.49973 0.25
337 4.64114 5.80067 8.56696 0.25
338 7.95018 8.73145 2.37928 0.25
339 3.8228 6.08485 8.53033 0.25
340 0.727657 2.79303 10.3549 0.25
341 3.69872 5.71667 4.12823 0.25
342 9.97602 3.32674 7.40231 0.25
343 0.110433 1.81203 3.74745 0.25
344 4.31439 1.1797 2.77485 0.25
345 6.41407 4.39462 10.1024 0.25
346 1.34892 1.38239 7.75629 0.25
347 3.74779 3.79831 10.1237 0.25
348 5.74304 7.55696 0.388094 0.25
349 5.0297 1.72459 7.72774 0.25
350 2.88101 3.16712 7.72064 0.25
351 5.85675 6.5449 3.4332 0.25
352 8.34885 6.94795 1.02747 0.25
353 9.87265 3.03943 6.98964 0.25
354 9.78589 4.01491 2.10971 0.25
355 2.70098 1.4693 1.43229 0.25
356 3.68042 9.20324 0.817556 0.25
357 3.439 4.47627 5.68271 0.25
358 4.2119 9.14187 0.664196 0.25
359 9.10224 6.30632 0.433748 0.5
360 3.78647 10.1633 6.55855 0.25
361 10.2205 0.684382 6.573 0.25
362 0.078648 7.51263 8.60494 0.25
363 6.86923 2.36948 2.67179 0.25
364 10.0073 6.33346 2.38493 0.25
365 5.95623 9.13912 4.95943 0.25
366 9.11789 4.3765 1.75679 0.25
367 3.75644 10.3966 9.11074 0.25
368 9.74864 6.57613 6.73858 0.25
369 9.14605 4.28639 4.83474 0.5
370 5.11811 1.7759 7.01019 0.5
371 9.59367 6.45969 1.7755 0.5
372 1.32476 2.51417 4.3408 0.5
373 3.48363 10.0192 8.88638 0.25
374 3.22159 10.3702 9.14983 0.25
375 5.23592 1.43209 2.99533 0.25
376 0.7277 5.93285 4.26623 0.25
377 9.96598 7.61515 8.65096 0.25
378 9.67088 9.08016 1.72007 0.25
379 0.569082 3.98065 6.53685 0.25
380 2.00222 2.25493 4.52171 0.25
381 7.08442 5.01657 2.06695 0.5
382 1.93417 8.2466 10.073 0.25
383 5.49446 8.47689 7.71193 0.25
384 2.05672 6.51715 7.5927 0.25
385 0.874806 7.06777 4.87211 0.25
386 1.11706 5.93764 7.48539 0.25
387 1.24439 6.36191 7.69099 0.25
388 2.10799 2.19351 1.1409 0.25
389 4.71711 2.18804 0.993632 0.25
390 3.70393 3.60919 0.240077 0.25
391 4.14394 0.52596 6.38202 0.25
392 0.454935 5.67184 4.65006 0.25
393 8.62848 8.50211 6.6189 0.25
394 10.2636 0.957404 6.11817 0.25
395 1.88719 4.86077 2.91953 0.25
396 2.73335 0.767922 9.22554 0.25
397 7.72109 2.34388 2.6831 0.25
398 9.33424 4.25564 9.22324 0.25
399 2.58088 9.82149 7.84603 0.25
400 7.56212 2.42739 10.2471 0.25
401 5.93743 7.02182 3.35737 0.25
402 4.23542 5.9083 8.85621 0.25
403 6.01884 4.91786 0.223884 0.25
404 7.59058 2.71239 0.740801 0.25
405 1.35572 6.04577 0.686567 0.25
406 6.42915 9.31066 5.135 0.25
407 6.8272 6.84956 8.73402 0.25
408 9.52303 8.58077 1.61376 0.25
409 9.66314 6.64141 2.56047 0.25
410 5.45529 1.42315 4.37729 0.25
411 8.21403 9.13901 10.2671 0.25
412 4.71081 2.03814 7.6767 0.25
413 7.27637 2.31254 2.36695 0.25
414 7.49627 5.5601 2.34744 0.25
415 4.85636 0.844021 3.19466 0.5
416 9.98628 0.141254 9.20959 0.25
417 3.43505 7.34065 5.76989 0.5
418 1.00208 1.11198 6.68393 0.5
419 8.88341 0.107823 3.34187 0.25
420 5.16228 8.80892 7.89499 0.25
421 9.07476 6.38704 7.37665 0.25
422 2.49681 7.362 3.1342 0.25
423 1.40449 4.9217 2.95058 0.25
424 0.428527 0.287901 9.41908 0.25
425 2.20821 9.73279 4.67806 0.25
426 2.28422 1.70345 1.19404 0.25
427 6.91144 1.56267 7.04558 0.25
428 7.40525 9.83303 2.15348 0.25
429 5.34225 9.30671 7.95288 0.25
430 9.49058 9.83212 4.20262 0.25
431 6.53655 0.230752 0.798452 0.25
432 2.02665 8.07036 9.56931 0.25
433 3.27784 2.46766 5.31686 0.25
434 5.96981 9.4421 8.84699 0.25
435 10.2027 2.98962 9.42797 0.25
436 6.49366 4.71713 0.0667026 0.25
437 1.49223 5.51837 9.75008 0.25
438 7.10704 0.968878 6.43184 0.25
439 9.47905 10.0282 3.49052 0.5
440 2.26081 2.75993 7.86365 0.5
441 1.31417 3.77584 2.3349 0.25
442 6.77727 7.18233 10.3485 0.25
443 10.2525 10.0858 3.77907 0.25
444 1.55705 3.68804 1.92797 0.25
445 5.66027 6.78402 3.02352 0.25
446 8.37123 4.49359 4.1545 0.25
447 6.06969 4.75898 10.1092 0.25
448 4.81644 1.3813 4.00251 0.5
449 9.88969 0.368093 6.51529 0.25
450 2.69934 1.00297 1.696 0.25
451 3.24731 4.28661 0.217009 0.25
452 5.45588 4.06202 4.45142 0.25
453 7.16492 4.0865 8.27871 0.25
454 1.71006 5.64027 8.42833 0.25
455 1.31914 6.2984 8.19892 0.25
456 1.86963 1.85536 1.41878 0.25
457 10.1112 8.73248 1.21537 0.5
458 1.4246 6.2249 7.17601 0.25
459 1.67774 1.3427 6.4223 0.25
460 1.73328 5.88174 6.95938 0.25
461 3.8975 6.56796 1.9355 0.25
462 4.25039 6.64782 1.58875 0.25
463 1.60067 0.0961937 4.70252 0.25
464 9.68024 1.24522 1.66712 0.25
465 7.14584 5.72403 2.05602 0.25
466 4.63938 5.72556 7.79782 0.5
467 3.22483 5.20189 5.28062 0.25
468 2.77538 1.51142 1.89218 0.25
469 3.78966 3.7434 2.53315 0.25
470 4.39823 4.009 3.08723 0.25
471 3.01985 9.67987 4.68714 0.25
472 1.83435 2.12843 7.70094 0.25
473 2.80888 8.28298 9.7126 0.25
474 9.59379 4.48968 1.91177 0.25
475 8.16293 6.57276 4.13889 0.25
476 4.14931 6.31043 1.21243 0.25
477 10.0904 9.65307 3.6493 0.25
478 8.4839 6.20139 1.12443 0.5
479 7.37081 0.054609 0.739135 0.25
480 2.20048 7.79837 9.95705 0.25
481 3.65466 9.47982 1.25654 0.25
482 6.51627 9.7038 5.44098 0.25
483 6.85068 10.2802 0.204551 0.5
484 9.62151 3.38071 7.11976 0.25
485 7.80164 3.03547 0.406252 0.25
486 4.42178 8.56742 3.61068 0.25
487 3.4493 3.40409 10.1815 0.25
488 7.0384 9.46954 1.91276 0.25
489 8.2759 7.19323 4.89514 0.25
490 2.11498 3.50878 7.86341 0.25
491 8.77349 8.97954 6.59223 0.25
492 7.73544 2.62103 9.82008 0.25
493 9.74509 3.78717 7.39214 0.25
494 8.36558 4.30084 5.06027 0.25
495 9.578 3.78058 6.86745 0.25
496 4.58067 1.71356 6.47253 0.25
497 3.44894 4.22874 10.09 0.25
498 7.79651 1.4596 8.88403 0.25
499 4.15969 10.0494 1.52526 0.25
500 4.2865 7.3864 9.16177 0.25
501 2.64123 0.0614714 4.76864 0.25
502 9.35001 5.89461 6.31088 0.25
503 7.2903 8.18629 2.48297 0.25
504 6.4545 7.24425 0.329472 0.25
505 7.1628 1.61162 5.90762 0.5
506 5.72982 10.2723 5.26798 0.25
507 7.60598 8.5322 2.72932 0.25
508 5.00822 8.03318 8.23965 0.25
509 1.32312 9.35261 7.74646 0.25
510 5.73164 4.40196 4.63175 0.25
511 3.75333 0.229756 6.30216 0.25
512 1.69368 5.52547 3.3127 0.25
513 1.84497 5.24428 0.225471 0.25
514 3.98965 1.9919 5.34032 0.25
515 2.04553 1.45255 7.52356 0.5
516 5.95537 9.29784 5.7053 0.5
517 8.01611 6.87893 4.55029 0.25
518 2.93067 1.22173 9.31388 0.25
519 2.86985 10.1453 4.41164 0.25
520 5.17471 2.24856 7.66234 0.25
521 0.983285 4.50164 5.41258 0.25
522 2.38747 10.1329 4.52864 0.25
523 2.80541 3.17319 8.22824 0.25
524 8.26317 1.90485 4.92668 0.25
525 2.39501 6.19914 7.41145 0.25
526 1.3499 5.38584 8.25246 0.25
527 6.58257 9.15888 2.45183 0.5
528 6.931 8.91083 3.07786 0.25
529 3.96124 5.94541 0.921271 0.25
530 1.40374 7.74101 2.56492 0.25
531 0.0435673 2.55789 9.40468 0.25
532 0.922898 7.82509 0.0512782 0.25
533 9.3169 10.3348 4.21998 0.25
534 8.87067 4.50031 4.13803 0.25
535 7.06934 6.05032 8.73861 0.25
536 4.33426 9.41795 0.241793 0.25
537 7.61311 1.10835 3.3404 0.25
538 6.54179 4.32606 7.52289 0.25
539 10.2975 3.6123 6.7845 0.5
540 6.19134 10.1335 8.18861 0.25
541 9.36682 8.9741 1.31118 0.25
542 7.49381 9.18038 6.04678 0.25
543 9.29357 3.64067 4.37223 0.25
544 1.67639 1.96834 7.20844 0.25
545 9.38247 9.24184 3.60075 0.25
546 0.427493 0.933007 6.05937 0.25
547 9.53138 3.60922 1.93696 0.25
548 9.01105 4.61374 9.01172 0.25
549 1.71377 0.53392 2.0511 0.25
550 9.91674 8.71606 1.93903 0.25
551 2.93645 7.63423 3.27876 0.25
552 9.13594 9.29364 6.64963 0.25
553 5.25034 3.19116 5.43727 0.25
554 9.07146 4.04612 4.16242 0.25
555 5.54195 8.98814 7.61402 0.25
556 1.50519 9.36835 7.24694 0.25
557 3.07445 9.69129 7.78986 0.25
558 2.44063 3.86619 7.63849 0.25
559 9.6935 0.97497 9.14538 0.25
560 3.74309 4.86514 5.79759 0.25
561 1.06609 3.82679 1.90424 0.25
562 5.11222 5.04441 9.52538 0.25
563 5.69857 10.0329 8.28366 0.25
564 1.39001 1.51108 7.26442 0.25
565 2.67158 1.14905 2.21471 0.25
566 9.33307 6.71417 7.03004 0.25
567 0.634597 6.29341 0.354613 0.25
568 7.31929 1.77605 5.0813 0.25
569 7.22494 4.53042 7.15817 0.5
570 3.90048 3.28414 2.50401 0.25
571 4.81081 4.21536 2.86168 0.25
572 8.25491 1.62584 9.06009 0.25
573 1.18544 7.00489 5.20423 0.25
574 0.749749 0.553862 6.15891 0.25
575 5.69087 3.64724 4.28124 0.25
576 5.15116 1.9762 0.973101 0.25
577 0.17142 7.74193 5.61563 0.25
578 1.09829 5.1821 10.3125 0.5
579 5.25833 5.39052 7.71108 0.25
580 8.53614 6.40155 3.80956 0.25
581 7.2194 6.80082 9.03538 0.25
582 7.27858 4.80921 5.087 0.25
583 8.67921 5.39331 6.33892 0.25
584 5.1671 6.8538 3.11161 0.25
585 6.90779 -0.0142613 0.982828 0.25
586 1.86662 2.6282 4.84374 0.25
587 6.14638 10.0197 5.50401 0.25
588 3.48873 1.08619 10.0474 0.25
589 10.0121 3.61086 1.90899 0.25
590 8.03701 7.37633 4.48342 0.25
591 4.17068 2.42475 5.14093 0.25
592 6.71691 5.61967 2.24683 0.25
593 5.41896 9.74503 5.84797 0.25
594 8.54778 5.70037 9.90331 0.25
595 1.43067 1.87848 7.63889 0.25
596 9.41461 8.5669 1.03517 0.25
597 4.73118 1.44999 2.84663 0.25
598 6.69746 7.65694 0.259273 0.25
599 9.7353 1.70804 1.84813 0.25
600 3.99123 9.50293 2.15649 0.25
601 7.24946 10.0679 2.59042 0.25
602 6.99966 8.01374 2.10803 0.25
603 2.25139 5.85827 7.07984 0.25
604 8.74066 0.913258 1.39183 0.25
605 1.69626 7.87469 2.99249 0.25
606 2.08098 1.92955 6.87896 0.25
607 2.29249 2.02065 7.76966 0.25
608 6.31112 6.18577 5.69747 0.5
609 3.85726 6.92252 1.56897 0.25
610 6.44047 4.78974 0.819184 0.5
611 8.39811 8.52448 7.31788 0.25
612 8.53306 0.640433 3.70433 0.5
613 8.18218 2.87145 0.085567 0.25
614 9.55743 6.52488 1.02035 0.25
615 7.42577 3.81603 7.49046 0.25
616 1.64042 1.67118 6.84784 0.25
617 2.46075 3.39218 7.49959 0.25
618 7.43896 2.74407 0.288601 0.25
619 1.42781 9.64354 2.66196 0.25
620 7.33335 5.28851 2.77228 0.25
621 6.22322 5.05041 1.55291 0.25
622 7.39817 6.31665 9.02532 0.25
623 7.86823 4.52034 4.7137 0.5
624 4.83341 8.48104 8.24921 0.25
625 5.22921 2.22242 0.139799 0.25
626 2.63787 2.79518 4.38326 0.25
627 6.80257 5.26964 2.68413 0.25
628 1.70147 10.1669 0.364335 0.25
629 7.32112 10.0769 10.056 0.25
630 5.85562 8.08841 0.490857 0.25
631 8.09472 1.54579 5.22748 0.25
632 3.34528 3.84377 0.00203669 0.25
633 3.71579 4.12357 0.193722 0.25
634 4.40192 7.97987 8.66846 0.5
635 9.47654 6.2588 7.05691 0.25
636 8.66713 5.20962 9.69509 0.25
637 6.72439 9.28505 4.81244 0.25
638 2.12697 10.1052 5.26253 0.5
639 6.85372 2.66014 2.21625 0.25
640 7.70352 1.29327 7.872 0.25
641 3.94442 5.65074 3.73294 0.25
642 3.84973 8.30024 6.148 0.25
643 2.91358 1.27274 0.144639 0.25
644 6.16906 9.81892 4.77057 0.5
645 2.91687 3.86578 0.181117 0.25
646 8.29963 6.80001 3.70739 0.25
647 6.44477 6.84914 5.37336 0.25
648 7.26034 1.11531 7.79174 0.25
649 4.64727 6.22003 8.80179 0.25
650 8.04958 1.21027 3.59759 0.25
651 5.06242 8.29727 7.82572 0.25
652 1.28319 5.85664 8.30691 0.25
653 1.02859 4.91179 5.66171 0.25
654 1.60439 6.58468 7.44192 0.25
655 10.2656 3.61264 1.47296 0.25
656 4.47425 5.09529 7.42387 0.25
657 8.78529 9.28127 7.0266 0.25
658 6.93562 4.4737 7.82708 0.25
659 9.14751 0.463684 4.11959 0.25
660 1.76074 5.85447 7.75557 0.5
661 2.1407 7.74579 3.25388 0.25
662 7.75839 9.21179 5.6003 0.25
663 2.85344 0.281825 9.42061 0.25
664 1.26715 2.99248 9.54648 0.25
665 8.45441 6.71122 0.577996 0.25
666 5.58332 9.71935 8.60765 0.25
667 7.38629 3.14637 0.619171 0.25
668 7.19316 2.42943 5.81094 0.25
669 3.25468 7.67043 9.45776 0.5
670 0.313894 2.59757 10.1796 0.25
671 0.772096 6.36352 4.8735 0.5
672 5.65551 6.47688 5.47801 0.25
673 4.02541 9.14588 1.16736 0.25
674 6.82503 4.85559 4.93616 0.25
675 8.09957 8.78328 7.61325 0.25
676 5.19092 1.45824 0.271838 0.5
677 9.58063 2.95996 7.37704 0.25
678 0.0638183 0.260488 6.02607 0.5
679 2.13405 2.1904 7.30797 0.25
680 2.60828 6.99901 2.78309 0.25
681 8.30498 9.31098 7.03477 0.25
682 2.958 7.19771 5.13712 0.25
683 0.801918 3.1366 9.59457 0.25
684 1.73485 8.89601 7.13143 0.25
685 8.73695 10.1771 3.71387 0.25
686 6.77296 9.69011 5.08313 0.25
687 9.48859 3.42541 7.59335 0.25
688 5.52557 7.85274 0.846849 0.25
689 2.43413 2.36581 4.25754 0.25
690 9.69668 7.43932 9.04106 0.25
691 0.511709 7.89054 5.96221 0.25
692 1.19362 4.45154 5.86739 0.25
693 9.83383 2.51233 3.87898 0.25
694 2.98318 3.51818 10.2005 0.25
695 7.7747 1.74263 4.93693 0.25
696 5.39374 0.985239 3.66014 0.25
697 1.40405 8.99829 7.46769 0.25
698 8.59183 5.79193 0.514715 0.25
699 2.8437 7.66778 5.39003 0.25
700 5.28193 7.5285 0.579657 0.25
701 3.60713 4.86952 5.33644 0.25
702 6.21576 3.64439 4.48345 0.25
703 1.32974 0.871025 1.94926 0.25
704 7.17182 3.55956 8.40844 0.25
705 3.73025 5.94917 8.96717 0.25
706 7.64518 0.858319 7.59019 0.25
707 5.89055 6.66218 4.75771 0.25
708 5.51048 7.23544 3.16035 0.25
709 1.57482 4.3965 2.02965 0.5
710 1.43085 4.67657 5.4788 0.25
711 7.0803 3.80911 7.09728 0.25
712 4.86646 8.72302 3.55709 0.25
713 1.69762 5.01782 3.3492 0.25
714 1.87923 10.1091 4.63627 0.25
715 2.34548 3.88057 8.12964 0.25
716 9.52928 9.02388 0.831314 0.25
717 3.31573 4.7843 4.92842 0.25
718 5.64097 3.66938 5.05382 0.5
719 5.56359 2.86244 5.23919 0.25
720 5.42618 0.987469 4.14249 0.25
721 4.06137 7.80745 5.97922 0.25
722 3.91205 6.01014 4.44932 0.25
723 5.56983 6.58029 6.40404 0.25
724 9.59204 0.477213 9.06398 0.25
725 4.24557 10.1763 6.75663 0.25
726 4.14517 5.5846 4.24474 0.25
727 3.46175 5.90277 4.50911 0.25
728 1.36192 8.02593 9.84092 0.5
729 7.81925 1.83543 6.11126 0.25
730 8.23221 1.17522 8.86148 0.25
731 1.71588 5.50491 10.2094 0.25
732 3.48121 8.1563 6.4823 0.25
733 10.0082 1.93863 4.43072 0.25
734 8.47681 7.2942 3.71601 0.25
735 3.53463 2.06129 5.52696 0.25
736 8.32688 5.94449 6.95624 0.25
737 0.692893 4.56442 5.85943 0.25
738 5.11018 8.29587 8.65094 0.25
739 3.28057 3.77349 9.90811 0.25
740 8.71823 6.89859 1.40881 0.25
741 6.85555 2.55161 3.10899 0.25
742 5.45598 2.09706 0.621951 0.25
743 10.1978 1.64655 4.11972 0.25
744 2.57875 2.50239 4.99514 0.5
745 0.469274 4.11097 5.98436 0.25
746 6.59645 4.71449 1.55986 0.25
747 7.99571 2.9357 9.47889 0.25
748 7.25028 9.97907 9.58863 0.25
749 7.4881 3.74216 8.03836 0.25
750 4.64929 2.15811 6.67226 0.25
751 1.99327 2.41548 4.07062 0.25
752 10.1038 2.07435 3.92751 0.25
753 0.757836 2.41026 9.62726 0.5
754 7.97165 1.46925 5.73912 0.25
755 7.73588 2.88796 10.2592 0.25
756 5.31027 1.81651 1.35865 0.25
757 0.411302 2.02321 4.36167 0.5
758 1.49195 10.1061 4.99964 0.25
759 4.89427 2.70425 8.35583 0.25
760 4.54084 0.727255 3.86931 0.25
761 5.57499 6.34338 5.95363 0.25
762 0.629109 3.4925 6.53879 0.25
763 6.50142 4.39987 4.40373 0.5
764 5.36483 6.43824 3.26426 0.25
765 6.74179 6.34794 8.57603 0.25
766 1.29357 4.76748 3.41124 0.25
767 7.29412 2.62644 2.02854 0.25
768 5.256 2.68998 5.99678 0.5
769 1.11101 2.53193 10.2835 0.25
770 5.91937 7.02085 5.87859 0.5
771 5.63517 7.35386 0.853866 0.25
772 6.97242 9.0907 5.52259 0.5
773 5.92685 4.26571 10.0361 0.25
774 7.05197 8.64065 2.70205 0.25
775 9.85117 7.91484 9.07716 0.25
776 3.83645 9.29669 0.337986 0.25
777 1.27816 8.19127 2.31768 0.25
778 3.81519 0.415476 8.76459 0.25
779 9.42221 7.77586 9.26732 0.25
780 4.7967 5.09765 9.92132 0.25
781 5.16121 7.1885 3.48793 0.25
782 9.21846 6.14512 1.16895 0.25
783 4.44868 9.04592 3.61886 0.25
784 2.98493 4.08452 10.1447 0.25
785 8.60155 8.66126 7.72195 0.25
786 6.33077 6.5763 4.98159 0.25
787 5.95468 6.23167 5.098 0.25
788 5.09581 0.660877 3.90902 0.25
789 6.32678 4.87749 1.98227 0.25
790 5.0962 2.40481 6.61971 0.25
791 8.3335 5.48451 6.76067 0.25
792 4.20416 4.28994 2.38226 0.5
793 0.104052 0.322681 9.00247 0.25
794 2.53466 1.63097 2.31279 0.25
795 1.45877 8.89992 7.93249 0.25
796 1.92639 10.0071 4.02815 0.5
797 9.20546 9.49285 3.99583 0.25
798 9.33456 4.45849 4.0816 0.25
799 3.16791 6.70493 1.91117 0.5
800 9.9081 1.25953 1.17908 0.25
801 6.06496 10.1102 9.80862 0.25
802 5.98642 7.27091 0.102683 0.25
803 9.29603 4.72218 9.43892 0.25
804 4.55852 5.47775 7.07271 0.25
805 8.84417 3.74137 4.51448 0.25
806 2.43074 9.6819 8.2586 0.25
807 3.14823 4.69092 5.38004 0.25
808 9.18594 5.17274 9.58846 0.25
809 1.21731 5.07085 9.65674 0.25
810 7.559 1.86885 6.5031 0.25
811 8.88254 4.42936 9.44948 0.25
812 3.77856 6.48742 1.45661 0.25
813 1.78537 3.72644 2.36184 0.25
814 1.21138 10.2628 0.311091 0.25
815 3.7616 5.30433 4.79038 0.5
816 6.45424 0.0711095 9.85247 0.25
817 4.07398 9.86937 0.758578 0.5
818 8.92429 6.00155 10.0212 0.25
819 3.75547 6.02035 1.3642 0.25
820 6.7897 3.82168 8.51425 0.25
821 8.08922 8.8883 7.14216 0.25
822 4.08168 3.58967 3.24524 0.25
823 2.06383 9.31358 7.71974 0.5
824 6.64871 4.03209 7.11673 0.25
825 8.0951 8.98645 6.30441 0.5
826 6.64935 3.09394 2.30641 0.25
827 8.59013 6.31054 7.24127 0.25
828 9.82818 3.30728 1.60223 0.25
829 0.399449 7.92461 4.78982 0.25
830 3.65599 6.3849 1.00556 0.25
831 2.51504 6.83339 2.31483 0.25
832 4.01558 5.56516 9.14414 0.25
833 6.43922 6.67697 6.31673 0.25
834 8.44371 3.96704 4.71399 0.25
835 1.40549 1.02675 7.36585 0.25
836 6.42344 5.39611 1.93115 0.25
837 3.4698 7.01899 9.10605 0.25
838 2.76841 9.39376 7.54445 0.25
839 0.190559 2.77132 4.32615 0.25
840 9.58255 4.07717 4.26683 0.25
841 5.3945 4.79632 10.2952 0.5
842 6.91643 6.43104 9.01637 0.25
843 1.07972 9.91975 2.43524 0.25
844 6.68004 5.22171 1.48968 0.25
845 8.63674 4.09181 4.24883 0.25
846 0.934431 5.69519 4.5286 0.25
847 7.68513 3.10737 9.79728 0.25
848 2.73084 0.829189 9.97128 0.5
849 6.38154 5.23679 2.37442 0.25
850 4.20354 8.40186 3.18967 0.25
851 3.50786 6.79871 1.22406 0.25
852 5.60445 1.36785 3.89465 0.25
853 9.56114 0.305445 3.88972 0.25
854 2.32458 3.39757 8.31921 0.25
855 3.58452 6.14339 1.7818 0.25
856 9.15555 3.22211 7.2691 0.25
857 6.32129 3.84825 4.93192 0.25
858 9.29101 7.41644 3.98112 0.25
859 9.41095 1.27932 1.19983 0.25
860 2.63267 10.0804 4.03216 0.25
861 3.94972 9.28612 1.6931 0.25
862 7.68494 0.851121 8.41897 0.5
863 0.0876136 3.25319 9.80027 0.25
864 4.78322 4.09061 1.83574 0.25
865 0.725501 6.9781 5.38832 0.25
866 2.81111 1.53773 9.76579 0.25
867 3.15431 8.13589 10.0546 0.25
868 9.20996 1.05964 1.59507 0.25
869 0.525538 8.34038 5.12266 0.25
870 7.2058 6.52537 8.62949 0.25
871 6.62695 2.78712 2.71246 0.25
872 8.3576 0.982582 7.69373 0.5
873 5.41713 9.88337 4.97394 0.25
874 6.37656 9.04633 4.68259 0.25
875 3.66725 7.79679 5.2156 0.25
876 3.33931 6.28107 1.32034 0.25
877 0.825271 2.41074 3.80065 0.25
878 10.3201 0.441697 9.48646 0.25
879 0.189713 7.56667 5.06921 0.25
880 5.85413 4.12216 4.16188 0.25
881 4.05687 6.67324 8.91241 0.5
882 9.78719 1.22171 6.04633 0.25
883 5.70116 3.19178 5.62222 0.25
884 2.46641 2.15236 1.77252 0.5
885 9.01314 9.97434 4.07895 0.25
886 9.04935 8.91411 0.89517 0.25
887 1.65972 6.60572 7.9268 0.25
888 1.30849 0.492638 2.30857 0.25
889 4.43536 4.95334 7.93741 0.25
890 0.824603 3.75421 6.1316 0.25
891 4.74043 3.70944 2.15433 0.25
892 6.80341 8.36378 2.36101 0.25
893 7.85106 2.54637 0.298955 0.25
894 1.4393 7.87999 0.175858 0.25
895 9.36022 2.9856 6.89416 0.25
896 9.25974 1.55026 1.62817 0.25
897 3.92715 7.92522 6.50047 0.25
898 0.946305 5.07897 4.92854 0.5
899 0.382572 0.681216 6.53642 0.25
900 8.11041 7.0936 4.07837 0.25
901 0.839225 8.24836 5.87995 0.25
902 4.72063 1.76383 0.786702 0.25
903 9.02223 6.50896 3.80757 0.25
904 1.15971 6.0299 10.2866 0.5
905 9.14513 0.838453 1.14144 0.25
906 9.97932 9.82968 4.11244 0.25