ITEM: TIMESTEP
10000
ITEM: NUMBER OF ATOMS
1000
ITEM: BOX BOUNDS xy xz yz pp pp pp
0.0000000000000000e+00 1.0357442000000001e+01 0.0000000000000000e+00
0.0000000000000000e+00 1.0357442000000001e+01 0.0000000000000000e+00
0.0000000000000000e+00 1.0357442000000001e+01 0.0000000000000000e+00
ITEM: ATOMS id x y z radius
1 1.25006 4.65572 2.70303 0.5
2 2.73225 7.44071 2.79702 0.5
3 6.00379 1.75735 9.69505 0.25
4 0.533109 2.13934 4.23422 0.25
5 9.41418 3.3058 6.97509 0.25
6 9.75215 3.79619 9.60914 0.25
7 4.54742 1.06211 3.24966 0.25
8 8.88942 4.94533 1.81156 0.25
9 10.1474 1.21429 2.38508 0.25
10 8.20678 7.56872 4.65071 0.25
11 9.43824 9.65202 1.92528 0.25
12 8.30396 2.68858 0.664526 0.25
13 3.60278 9.14463 5.55734 0.25
14 5.45058 2.59497 1.18671 0.25
15 9.19336 5.81231 5.80177 0.25
16 9.17345 9.14059 7.05276 0.25
17 6.80319 10.3081 8.23304 0.5
18 3.24832 8.01672 9.53717 0.25
19 7.23949 4.66345 6.50879 0.25
20 1.12383 1.79758 0.764542 0.25
21 0.456339 1.51249 8.94407 0.25
22 4.13568 0.391074 3.2117 0.25
23 5.35613 3.03383 1.43188 0.25
24 2.56462 2.727 5.3074 0.25
25 6.96634 1.83301 5.81899 0.25
26 5.16585 2.95805 8.51188 0.25
27 2.93638 8.93536 0.202302 0.25
28 9.68345 5.72617 6.73834 0.25
29 3.31368 9.10669 5.17986 0.25
30 1.33936 9.1093 6.91669 0.25
31 0.891822 7.57341 4.68272 0.25
32 9.35868 7.10982 1.40781 0.25
33 9.2852 10.1031 1.76122 0.25
34 0.73626 3.26997 9.80224 0.25
35 8.01083 3.61519 1.29704 0.25
36 7.99571 8.15162 8.90011 0.25
37 2.73289 6.55713 6.16617 0.25
38 7.19577 10.3476 1.5677 0.25
39 5.4761 3.87239 3.97587 0.25
40 6.99733 3.96069 5.0598 0.25
41 8.07999 7.69311 5.65895 0.25
42 5.78016 8.42373 2.77638 0.5
43 0.956833 8.09155 4.6477 0.25
44 0.905078 0.0413187 3.57649 0.25
45 7.16965 6.282 8.4843 0.25
46 1.76008 9.14319 6.78832 0.25
47 4.1271 9.14306 2.91173 0.25
48 1.27018 10.08 3.41041 0.25
49 4.79582 5.59667 9.37946 0.25
50 9.10404 9.40917 4.06208 0.25
51 9.33769 9.62517 0.470145 0.25
52 5.94559 8.1057 0.486305 0.25
53 6.85725 5.0712 1.50702 0.25
54 3.46483 4.9112 7.78031 0.25
55 6.08526 6.04046 6.52035 0.25
56 5.8561 1.80396 9.23034 0.25
57 5.38799 1.77017 0.63007 0.25
58 6.64798 4.6663 0.317103 0.25
59 4.54468 7.42409 8.30552 0.25
60 6.83839 5.84073 8.62807 0.25
61 4.07863 0.633585 7.76307 0.25
62 8.77413 6.04149 5.98779 0.25
63 0.470593 4.82561 3.82161 0.25
64 0.251657 1.32924 2.33608 0.25
65 6.30011 6.70779 6.91533 0.25
66 4.35586 0.765467 2.93776 0.25
67 8.84149 5.13441 9.82924 0.25
68 7.54091 10.2759 1.16652 0.25
69 3.20237 7.0461 3.19687 0.25
70 3.49215 4.13751 3.64819 0.25
71 1.33094 6.88521 1.78482 0.25
72 5.50058 5.4869 3.68957 0.25
73 9.87544 9.05503 7.28848 0.5
74 3.40196 7.49895 3.21382 0.25
75 2.62562 5.09286 0.579222 0.25
76 3.45148 8.12836 0.370823 0.25
77 6.48724 5.87475 8.29833 0.25
78 5.14752 9.45562 10.0635 0.25
79 1.57558 5.91083 9.50041 0.25
80 7.96671 8.21932 8.37387 0.25
81 9.82159 7.7246 8.55646 0.25
82 0.932677 9.23854 2.09229 0.25
83 1.74029 7.02441 2.01679 0.25
84 5.69508 10.3032 5.64516 0.25
85 4.13389 6.88939 1.56103 0.25
86 9.63936 4.21715 2.08203 0.5
87 1.62046 5.46933 9.63179 0.25
88 2.30801 3.12776 7.50336 0.25
89 10.0658 1.55396 9.82475 0.25
90 6.69227 9.24097 2.05302 0.5
91 3.76863 9.48744 2.95303 0.25
92 9.83464 1.53789 2.28991 0.25
93 8.61054 0.915386 8.63436 0.25
94 0.925357 3.74295 1.19931 0.25
95 7.95737 8.90809 6.40514 0.25
96 7.52901 0.672598 7.20398 0.25
97 5.99742 9.88066 5.61361 0.25
98 9.58313 0.985149 5.48323 0.25
99 5.03276 3.13278 7.73463 0.5
100 5.16979 3.2787 5.96266 0.25
101 5.23532 3.99349 8.90364 0.5
102 4.15381 5.07173 8.18222 0.5
103 6.72385 10.3517 1.65876 0.25
104 1.64644 -0.0141847 1.38488 0.25
105 1.96547 4.61322 3.03584 0.25
106 5.82872 6.22461 5.71759 0.25
107 6.12829 10.1078 8.45647 0.25
108 1.05124 3.24259 1.63159 0.25
109 6.87116 2.79535 2.32491 0.25
110 5.97074 9.70931 5.07663 0.25
111 0.824067 5.87941 0.467179 0.25
112 2.78709 5.49899 5.41183 0.25
113 1.18067 10.0287 4.24727 0.25
114 9.1264 7.05417 0.0456235 0.25
115 4.38282 3.39539 2.10643 0.25
116 10.0494 3.01783 4.01967 0.25
117 7.06937 2.92877 3.03804 0.5
118 5.47216 8.00293 3.27909 0.25
119 9.04481 2.30006 4.50259 0.25
120 1.70405 6.01883 0.511629 0.25
121 6.21799 1.6752 5.77253 0.5
122 1.46964 4.08332 2.29914 0.25
123 9.54998 9.29304 0.184911 0.25
124 8.78353 7.236 0.414621 0.25
125 2.38183 0.616984 4.49668 0.25
126 5.81646 7.26708 0.304388 0.25
127 6.01527 7.70387 0.222698 0.25
128 9.33644 8.55796 3.40521 0.25
129 1.72044 5.41552 3.32911 0.25
130 9.61968 9.80431 0.0949277 0.25
131 6.58928 3.22062 2.43949 0.25
132 7.69164 4.81922 5.65636 0.25
133 7.65465 7.90517 8.63331 0.25
134 5.71421 3.15325 1.71269 0.25
135 6.27011 0.258405 8.96984 0.5
136 9.53486 9.16432 7.96866 0.25
137 0.994607 7.82047 1.65037 0.25
138 7.05534 4.38524 6.10626 0.25
139 7.72104 3.19824 9.18142 0.5
140 3.50138 9.47897 3.39848 0.25
141 2.99123 1.59671 2.48553 0.25
142 2.39969 2.25195 5.22826 0.25
143 7.74876 1.19437 3.24429 0.25
144 9.55037 6.56102 2.59474 0.25
145 3.20468 8.9057 5.60659 0.25
146 7.15088 7.59671 3.03499 0.25
147 3.51547 4.70451 3.50598 0.25
148 3.37148 1.61396 10.3247 0.25
149 0.390382 8.7254 9.65068 0.25
150 3.62139 5.35625 7.5982 0.25
151 7.28021 0.084295 0.390597 0.25
152 4.75506 9.67162 10.2006 0.25
153 4.70429 2.46394 7.57237 0.25
154 6.48707 0.575428 8.31414 0.25
155 3.99461 5.4465 1.48259 0.25
156 1.4963 8.97094 6.43698 0.25
157 5.54796 1.18842 3.8395 0.25
158 9.40787 8.82332 6.76105 0.25
159 3.44711 1.45216 5.11698 0.25
160 2.28729 3.05356 7.99814 0.25
161 3.64264 0.461708 8.0589 0.25
162 3.83009 2.01501 6.03121 0.5
163 7.17947 8.76479 2.30297 0.25
164 5.30073 8.2659 7.97412 0.25
165 0.424766 3.00963 9.11366 0.25
166 6.94407 3.40035 8.25397 0.25
167 7.96735 10.2 3.74823 0.25
168 0.373135 7.88546 9.65043 0.25
169 9.71847 6.26009 7.42612 0.25
170 3.99388 0.198534 7.8611 0.25
171 1.51141 8.52973 7.62181 0.25
172 9.18289 6.84045 7.58028 0.25
173 0.707735 3.24904 3.91976 0.25
174 4.41327 2.1658 6.51005 0.25
175 9.30432 2.85881 7.17785 0.25
176 2.72764 4.63789 0.524701 0.25
177 9.64477 6.76339 7.4847 0.25
178 6.71225 2.26625 5.71671 0.25
179 2.34355 9.81915 8.01275 0.25
180 6.6146 7.79201 2.49893 0.5
181 1.01743 4.46007 6.03672 0.25
182 7.49515 1.66377 3.20231 0.25
183 1.57519 9.41035 4.7954 0.25
184 8.82561 5.89444 9.67416 0.25
185 9.82275 8.94518 6.53692 0.25
186 3.47203 8.38129 10.2667 0.25
187 3.54258 3.36299 -0.00643898 0.25
188 5.55932 3.47186 7.27948 0.25
189 10.042 1.00391 5.36937 0.25
190 2.92328 7.30186 3.89958 0.25
191 5.37176 3.2016 8.82563 0.25
192 9.92531 8.99785 6.11473 0.25
193 4.22551 2.08408 9.07096 0.25
194 5.05613 9.92989 9.90572 0.25
195 5.37373 4.99017 9.51787 0.25
196 5.26788 1.31516 0.559171 0.25
197 9.31605 6.31204 6.36543 0.5
198 7.8977 1.22924 7.44649 0.5
199 7.99216 10.1752 0.0636712 0.25
200 6.53125 1.70025 6.99774 0.25
201 6.1815 6.19614 6.08788 0.25
202 4.32656 8.36658 4.95193 0.25
203 4.45543 0.701172 0.601852 0.25
204 10.112 4.32606 6.84247 0.25
205 4.18649 0.404375 6.06101 0.25
206 0.212821 3.25011 4.10023 0.25
207 1.03073 5.24642 3.69784 0.5
208 2.49543 6.32495 5.8322 0.25
209 7.25096 8.06323 2.84114 0.25
210 4.39948 0.568577 6.48259 0.25
211 1.42014 4.45766 2.01517 0.25
212 10.324 4.34237 1.35892 0.5
213 9.05112 5.17157 2.23263 0.25
214 3.01309 5.67896 5.85864 0.25
215 10.1365 0.193683 9.1564 0.25
216 5.84907 2.33086 -0.0319489 0.25
217 1.01283 7.90597 5.06895 0.25
218 2.44413 1.65889 2.88565 0.5
219 1.29513 4.91307 6.03593 0.25
220 7.17266 9.21758 2.63773 0.25
221 7.81136 6.76559 3.65179 0.25
222 8.90966 6.39122 7.59768 0.25
223 6.23623 10.3267 5.70761 0.25
224 0.14074 4.23077 7.00986 0.25
225 7.93869 1.99616 5.25065 0.25
226 6.96848 9.45715 6.04374 0.25
227 6.71629 10.0419 2.04586 0.25
228 5.58549 1.9899 9.60627 0.25
229 3.32909 2.36427 3.00571 0.25
230 8.3441 7.25043 4.95921 0.25
231 7.69654 3.71805 7.73713 0.25
232 6.79919 8.4543 2.18852 0.25
233 8.77872 1.01847 7.81208 0.5
234 3.53407 9.56368 1.92829 0.25
235 1.68711 8.67507 6.86009 0.25
236 1.41821 6.17028 0.9519 0.25
237 7.44786 0.931022 2.92742 0.25
238 0.744928 5.9355 3.80084 0.25
239 -0.0136035 4.28463 9.23564 0.25
240 1.46882 7.60932 2.21012 0.5
241 0.858534 7.98968 2.10572 0.25
242 3.20874 8.44082 5.89621 0.25
243 2.98156 5.36218 0.266132 0.25
244 0.767603 1.18677 7.62594 0.25
245 6.40152 6.4353 6.51881 0.25
246 2.54966 8.63114 0.243436 0.25
247 3.49414 7.19047 2.80687 0.25
248 4.85821 3.65899 8.32722 0.25
249 6.77577 4.44593 6.57794 0.25
250 7.18973 1.49973 7.53841 0.25
251 1.51117 0.691794 7.2242 0.25
252 6.72706 7.34434 8.1176 0.25
253 4.0459 7.70261 7.72525 0.25
254 1.08061 7.27536 1.62848 0.25
255 1.41736 9.16532 2.08525 0.25
256 3.22799 4.96105 4.24974 0.25
257 1.85699 0.216395 1.003 0.25
258 4.58026 5.80321 6.87094 0.25
259 1.217 0.169462 4.28701 0.25
260 1.85069 10.2903 0.559441 0.25
261 6.8611 5.62798 8.09135 0.25
262 5.20401 5.04751 3.70538 0.25
263 8.07799 8.62009 8.67225 0.25
264 7.69952 9.74887 9.90714 0.5
265 4.39138 4.21878 0.835804 0.25
266 3.82387 3.71741 1.15085 0.25
267 3.80438 9.1227 5.14138 0.25
268 3.62693 8.34821 6.16729 0.25
269 8.02938 8.43086 6.2864 0.25
270 3.88932 7.95728 5.91657 0.25
271 3.74109 9.85884 1.61418 0.25
272 5.13841 6.7778 5.93924 0.25
273 9.26296 3.3532 7.42344 0.25
274 2.93375 6.48305 5.73281 0.25
275 9.78623 7.0032 2.67364 0.25
276 9.01479 10.2906 8.05098 0.25
277 3.06839 9.60532 7.96551 0.5
278 4.03843 5.60424 8.78676 0.25
279 4.03802 0.444174 8.27085 0.25
280 3.35349 0.00190203 7.97425 0.25
281 3.6643 9.00379 2.75413 0.25
282 5.2938 0.892439 2.92101 0.25
283 1.12354 0.963954 10.3376 0.25
284 0.840759 6.28935 0.171204 0.25
285 8.19153 7.79013 0.717742 0.25
286 0.11874 0.861268 2.40124 0.25
287 2.13103 7.7402 2.3966 0.25
288 0.894564 5.68972 4.24528 0.25
289 1.43358 2.1787 0.86334 0.25
290 9.01666 3.93027 1.91222 0.25
291 8.38239 2.27995 0.992202 0.25
292 3.6071 10.0251 2.0589 0.25
293 5.23656 3.07856 6.72568 0.5
294 9.6438 7.11479 3.14251 0.25
295 6.99382 0.856519 7.75278 0.5
296 2.56177 2.43933 5.72584 0.25
297 1.43337 7.8866 5.27688 0.25
298 4.63256 10.2224 0.599717 0.25
299 9.33053 5.79422 9.62901 0.25
300 2.36176 10.2052 4.72868 0.25
301 4.47929 7.63968 7.86829 0.25
302 3.4215 5.03833 7.32251 0.25
303 9.17837 6.31484 10.1627 0.5
304 4.79769 3.6344 2.01773 0.25
305 2.10126 7.23122 2.32962 0.25
306 0.327382 8.34924 9.95044 0.25
307 1.87603 10.1111 1.03567 0.25
308 8.7738 6.5769 5.92299 0.25
309 8.9389 1.27412 8.48042 0.25
310 6.23079 6.53902 5.71456 0.25
311 0.871989 9.08391 1.3185 0.25
312 9.26529 0.487161 8.48193 0.5
313 1.34272 6.85771 2.30437 0.25
314 0.175709 3.63877 1.5426 0.25
315 3.29537 0.398237 8.70742 0.5
316 8.15654 4.18284 8.8188 0.25
317 6.48658 9.83854 8.7444 0.25
318 0.633138 7.96666 10.1127 0.25
319 9.11619 9.81345 3.7998 0.25
320 0.36712 3.12975 10.037 0.25
321 3.18323 1.89041 2.87317 0.25
322 1.19472 7.19616 4.66196 0.25
323 7.1354 10.0027 9.04428 0.5
324 8.00394 1.68508 1.83376 0.25
325 8.89665 4.40888 1.77351 0.25
326 0.724902 10.012 3.301 0.25
327 1.88682 8.33623 7.8251 0.25
328 4.74624 3.12179 1.90597 0.25
329 8.06102 6.8898 4.38155 0.5
330 9.07022 6.47794 2.56186 0.25
331 8.51827 0.235064 4.2474 0.25
332 5.32325 7.35269 0.304121 0.25
333 0.641177 8.04352 9.25843 0.25
334 6.44774 5.35938 1.51315 0.25
335 6.15971 4.45088 0.219274 0.25
336 9.42149 4.98833 1.97305 0.25
337 4.17738 5.82129 8.37034 0.25
338 5.90185 7.78831 2.46648 0.25
339 4.40335 5.24318 9.39637 0.25
340 0.0449624 4.50116 8.75118 0.25
341 3.63095 4.6184 4.33601 0.25
342 10.1017 2.86658 7.09177 0.25
343 9.90595 2.61963 3.71141 0.25
344 5.23134 0.514244 2.67545 0.25
345 7.42406 5.05776 0.0350546 0.25
346 1.33673 1.4013 7.57668 0.25
347 2.99237 2.93818 9.99562 0.25
348 6.13385 7.36194 10.3143 0.25
349 4.33142 2.7302 7.77139 0.25
350 1.77981 2.86569 8.10277 0.25
351 5.65265 5.0752 3.444 0.25
352 8.29659 7.33529 0.510332 0.25
353 10.0705 3.52326 6.34827 0.25
354 9.59246 4.4821 1.36623 0.25
355 2.02341 2.18163 2.53466 0.25
356 5.02336 -0.00342623 0.836954 0.25
357 3.2465 6.11104 5.73232 0.25
358 4.55234 0.258784 0.923142 0.25
359 9.26739 6.69604 0.709995 0.5
360 4.55941 10.0795 6.28524 0.25
361 9.71565 0.551454 5.51301 0.25
362 0.90043 7.8081 9.70714 0.25
363 7.08283 3.27447 2.35698 0.25
364 9.13197 7.28145 3.10816 0.25
365 6.84882 9.09887 6.32841 0.25
366 9.08208 4.66841 2.16725 0.25
367 4.29181 0.0105764 8.14361 0.25
368 9.41672 6.42669 7.75942 0.25
369 8.04107 4.52604 5.04167 0.5
370 4.31114 2.77789 7.00542 0.5
371 9.25812 7.04009 2.10462 0.5
372 0.801116 2.85262 4.55916 0.5
373 4.36503 0.186909 7.60362 0.25
374 3.77802 10.3343 8.26159 0.25
375 5.59512 0.906021 3.3387 0.25
376 0.42207 5.71921 3.5047 0.25
377 0.735935 8.30892 9.7343 0.25
378 9.11057 9.2599 0.641951 0.25
379 10.1435 4.43821 7.31259 0.25
380 1.83421 3.29623 4.50122 0.25
381 6.81717 5.50535 2.15953 0.5
382 3.35783 8.83745 0.0345388 0.25
383 5.62058 8.49176 8.22385 0.25
384 1.78947 6.68599 7.65816 0.25
385 0.729269 6.57417 5.1153 0.25
386 1.5831 5.38195 8.33097 0.25
387 1.65509 6.80066 8.1451 0.25
388 2.88286 2.62365 2.81563 0.25
389 6.30113 2.42621 10.1511 0.25
390 3.38388 3.18805 9.91545 0.25
391 4.62928 0.209137 6.24132 0.25
392 0.240296 5.26751 3.78411 0.25
393 9.2343 8.68568 7.19641 0.25
394 9.45011 1.25346 5.85438 0.25
395 2.03747 4.82691 2.60677 0.25
396 2.93612 10.2796 8.24926 0.25
397 7.12523 2.43571 2.41436 0.25
398 8.79474 4.64609 9.73733 0.25
399 2.70565 9.04789 8.30025 0.25
400 8.33131 2.21906 0.513553 0.25
401 5.79377 5.29779 2.21225 0.25
402 4.48485 5.58804 8.65296 0.25
403 6.17832 4.94021 0.210202 0.25
404 8.79427 1.64455 10.3345 0.25
405 2.66748 4.99858 0.101696 0.25
406 6.83505 9.0929 5.77997 0.25
407 6.84683 6.13242 8.23895 0.25
408 9.78931 10.071 1.79468 0.25
409 9.47798 7.40491 2.78059 0.25
410 5.31137 0.864562 4.16498 0.25
411 7.30792 8.5205 9.01708 0.25
412 4.63332 3.43747 7.05827 0.25
413 7.36582 2.87031 2.36267 0.25
414 6.63529 5.7041 3.20741 0.25
415 4.92584 0.422319 3.334 0.5
416 1.05753 1.04225 9.9088 0.25
417 3.64818 8.406 5.35711 0.5
418 0.533356 1.0346 6.87459 0.5
419 8.33753 0.146316 3.80075 0.25
420 6.109 8.6294 7.98485 0.25
421 9.23851 6.02182 7.51348 0.25
422 2.82892 7.05037 3.48775 0.25
423 1.83996 4.44247 2.29359 0.25
424 1.48861 0.431631 9.64382 0.25
425 2.10863 10.2188 4.31643 0.25
426 2.46743 2.38949 2.7424 0.25
427 6.91352 1.62453 7.89703 0.25
428 6.34137 8.54938 2.28505 0.25
429 5.66526 8.8914 7.8707 0.25
430 8.90738 8.70083 3.15536 0.25
431 6.52298 9.88379 1.60263 0.25
432 2.80574 7.80556 9.42629 0.25
433 2.53729 2.10645 4.73457 0.25
434 6.4155 9.96904 9.19245 0.25
435 9.96141 4.3248 8.85283 0.25
436 6.59992 5.10011 0.119498 0.25
437 1.60271 5.45842 0.536445 0.25
438 6.68805 1.48048 7.45906 0.25
439 9.42119 9.26731 3.33989 0.5
440 2.13082 2.45056 7.59412 0.5
441 0.475965 3.78799 1.1658 0.25
442 5.43739 8.1914 0.497994 0.25
443 9.27965 8.55238 2.9207 0.25
444 0.723431 4.23549 1.16356 0.25
445 4.64105 6.50006 3.59196 0.25
446 7.43959 4.15091 4.82301 0.25
447 6.47131 4.71504 10.2413 0.25
448 5.16617 1.51594 3.27079 0.5
449 10.1683 0.538006 5.3713 0.25
450 2.43512 2.20275 2.28966 0.25
451 3.10204 4.38123 2.75928 0.25
452 4.97849 3.20965 3.81982 0.25
453 7.83664 2.57449 9.5454 0.25
454 1.67754 5.67467 8.67006 0.25
455 1.20648 5.54354 8.63876 0.25
456 2.8212 2.24842 3.06636 0.25
457 9.41591 9.68528 1.20232 0.5
458 1.30065 6.77238 7.79128 0.25
459 1.47909 0.708356 6.42656 0.25
460 1.41208 6.61403 7.36753 0.25
461 4.53512 7.00607 1.88418 0.25
462 4.42931 6.53713 1.74087 0.25
463 2.48238 0.159105 4.34237 0.25
464 10.2836 1.53929 2.0439 0.25
465 7.15492 5.66286 3.21403 0.25
466 3.96955 5.41352 6.96282 0.5
467 3.1236 5.19821 5.70389 0.25
468 3.08914 1.62567 1.9916 0.25
469 5.10174 3.42538 1.71178 0.25
470 5.61317 2.66493 1.68969 0.25
471 0.969572 10.0074 3.79962 0.25
472 1.72433 1.79949 7.50905 0.25
473 3.60266 7.69334 9.34521 0.25
474 8.91821 4.19643 2.29306 0.25
475 8.65049 4.59838 3.51306 0.25
476 4.47548 7.28385 1.46917 0.25
477 9.76293 8.62409 3.1525 0.25
478 8.68622 7.40505 1.14841 0.5
479 7.2982 0.386737 1.28376 0.25
480 2.98454 7.75918 9.90968 0.25
481 4.82737 9.34703 0.132366 0.25
482 6.60323 9.04587 5.29952 0.25
483 6.81897 10.1615 0.986921 0.5
484 9.69963 2.96087 6.86376 0.25
485 8.88353 1.60589 0.451036 0.25
486 3.70377 9.06907 3.21706 0.25
487 3.26954 2.98465 10.344 0.25
488 5.99712 8.8841 2.10139 0.25
489 7.84723 6.27961 3.90327 0.25
490 2.19574 3.83758 7.1036 0.25
491 9.43496 9.26484 6.66261 0.25
492 7.93522 2.36964 0.725731 0.25
493 9.70456 3.04364 7.3635 0.25
494 7.49756 4.02396 5.27897 0.25
495 8.91654 3.25586 7.02459 0.25
496 4.0112 2.09735 6.76167 0.25
497 2.51346 2.79709 10.0071 0.25
498 8.28254 1.57247 8.04264 0.25
499 3.99517 9.68645 1.97456 0.25
500 4.56921 6.94867 8.4436 0.25
501 1.28142 10.3419 3.87307 0.25
502 8.51685 6.3194 6.29277 0.25
503 5.97469 8.01896 3.39766 0.25
504 5.68495 8.0345 0.101032 0.25
505 6.79032 2.17183 6.47397 0.5
506 5.74819 9.49617 5.44823 0.25
507 6.03101 7.7158 2.95482 0.25
508 4.36909 7.43763 7.42853 0.25
509 2.05803 8.94335 7.1305 0.25
510 5.02406 3.71532 3.78399 0.25
511 4.27026 10.2817 5.94656 0.25
512 1.81237 5.11081 2.94442 0.25
513 1.16588 6.20335 0.500949 0.25
514 3.01386 1.36293 5.31359 0.25
515 1.55978 1.41872 6.86552 0.5
516 6.68599 9.78786 5.43742 0.5
517 8.7874 4.1086 3.71318 0.25
518 3.05846 0.850357 9.18515 0.25
519 1.37144 9.80366 3.89213 0.25
520 4.98706 2.53364 7.20385 0.25
521 10.2583 4.8328 5.08972 0.25
522 1.64206 10.1883 4.13287 0.25
523 1.90946 3.16553 7.70616 0.25
524 7.36867 1.85453 4.70002 0.25
525 1.3042 6.14881 7.28386 0.25
526 2.0802 5.67365 8.42985 0.25
527 6.7579 8.71051 2.90379 0.5
528 6.89944 8.05064 3.17611 0.25
529 4.48344 5.39097 1.31934 0.25
530 1.71057 7.02857 2.55197 0.25
531 10.0148 4.04716 9.28484 0.25
532 2.26486 8.35237 0.0346715 0.25
533 7.85396 9.98834 4.25202 0.25
534 8.34388 4.30105 4.43761 0.25
535 6.91202 7.07677 8.52409 0.25
536 4.33813 0.246884 0.482167 0.25
537 7.93552 0.855494 2.92213 0.25
538 7.28597 4.0043 7.80346 0.25
539 9.99117 3.66021 7.09854 0.5
540 6.59265 10.2238 9.54244 0.25
541 9.59304 9.21828 0.703293 0.25
542 8.20828 8.72075 5.98386 0.25
543 8.80613 4.72873 5.00998 0.25
544 1.16223 1.06381 6.37887 0.25
545 9.5277 9.63568 3.97243 0.25
546 9.589 0.304181 5.93542 0.25
547 9.198 4.19157 1.50154 0.25
548 9.19182 4.85101 9.9698 0.25
549 1.19985 9.22615 1.66164 0.25
550 9.73797 9.03008 1.11946 0.25
551 3.37136 7.1758 3.68365 0.25
552 9.59008 9.33401 6.22307 0.25
553 4.79207 3.32033 5.62195 0.25
554 8.74569 4.30859 4.77236 0.25
555 5.67424 8.43576 7.71597 0.25
556 1.88891 8.50271 7.34212 0.25
557 2.45302 9.47673 8.3453 0.25
558 2.68591 2.95219 7.79366 0.25
559 9.68613 0.388993 9.10419 0.25
560 2.79931 5.99796 5.54214 0.25
561 1.27748 3.63176 1.51587 0.25
562 5.57048 4.65533 9.16458 0.25
563 6.11464 0.226925 8.2724 0.25
564 0.940787 1.46858 7.26983 0.25
565 2.147 1.7957 2.23002 0.25
566 9.09245 6.06556 7.9973 0.25
567 3.08496 4.92668 0.344241 0.25
568 7.84338 1.94995 4.72029 0.25
569 7.58517 3.81222 8.43786 0.5
570 5.09885 3.30616 2.21932 0.25
571 3.99351 4.22232 1.15303 0.25
572 8.77983 1.61683 8.21798 0.25
573 0.482843 6.88588 4.87272 0.25
574 10.2741 0.770332 6.79612 0.25
575 5.01052 3.05194 4.24461 0.25
576 5.87785 2.24119 9.888 0.25
577 0.382044 7.39233 4.80778 0.25
578 1.30397 5.74713 10.2656 0.5
579 4.47477 5.57715 6.41488 0.25
580 8.03495 7.25279 5.39405 0.25
581 7.12254 6.4441 8.043 0.25
582 7.39009 4.69944 5.99665 0.25
583 9.10303 6.28107 5.64869 0.25
584 4.59288 6.40992 4.11523 0.25
585 7.01907 9.88189 1.66964 0.25
586 1.47195 2.94222 4.34479 0.25
587 6.16066 9.22313 5.2163 0.25
588 3.16238 0.367704 9.40837 0.25
589 10.3505 3.88823 1.91483 0.25
590 8.31741 6.22655 4.0626 0.25
591 3.76718 1.73852 5.334 0.25
592 6.38876 6.0523 2.91926 0.25
593 6.06669 10.2461 5.28293 0.25
594 9.46063 6.92833 9.95923 0.25
595 1.21962 1.87671 7.36077 0.25
596 10.0349 9.39213 0.939649 0.25
597 5.60169 0.546823 3.01423 0.25
598 5.60623 7.71369 0.469058 0.25
599 0.039223 1.0738 1.96934 0.25
600 3.50525 9.85867 1.19618 0.25
601 7.14445 8.2534 2.40159 0.25
602 5.65958 8.42569 3.51049 0.25
603 1.00922 6.38917 7.56971 0.25
604 1.17485 1.42402 1.08964 0.25
605 1.94038 7.47598 2.75894 0.25
606 1.76062 0.742225 6.78068 0.25
607 2.09083 1.8178 7.17025 0.25
608 5.57938 6.73604 5.3008 0.5
609 4.16705 7.324 1.83834 0.25
610 6.58094 5.30683 0.811388 0.5
611 9.73471 8.72041 7.93495 0.25
612 7.74545 0.552192 3.56998 0.5
613 8.73778 2.40867 0.629559 0.25
614 9.43819 6.58228 1.49036 0.25
615 7.06641 2.8807 9.31523 0.25
616 1.25395 0.787801 6.81866 0.25
617 2.53925 2.71196 8.19278 0.25
618 8.42724 1.73305 0.343894 0.25
619 0.724601 7.51229 1.97378 0.25
620 6.41815 5.56284 2.78907 0.25
621 6.53912 5.8168 1.44802 0.25
622 7.19893 7.31933 8.22493 0.25
623 7.04833 4.64076 5.34004 0.5
624 5.31806 8.18205 8.44371 0.25
625 4.93298 1.69672 0.409587 0.25
626 2.12897 2.59579 5.54587 0.25
627 6.86334 5.90061 2.79301 0.25
628 2.1515 0.060952 1.35499 0.25
629 7.56304 10.0021 0.243951 0.25
630 6.62363 7.2382 0.0102386 0.25
631 7.53239 2.0886 5.04716 0.25
632 2.59964 3.29482 10.0162 0.25
633 2.65187 3.03576 9.59179 0.25
634 4.07776 6.94608 7.88346 0.5
635 9.28387 6.46158 7.23855 0.25
636 9.58902 6.59041 9.60345 0.25
637 6.68522 8.69926 6.11858 0.25
638 1.85637 0.471142 3.97917 0.5
639 7.45199 3.57153 3.28978 0.25
640 8.02954 0.512793 7.28393 0.25
641 3.34702 4.52823 3.91556 0.25
642 3.53152 9.57594 5.28799 0.25
643 2.88055 1.56261 10.2774 0.25
644 6.20924 9.1786 5.95881 0.5
645 2.82257 4.0475 2.49935 0.25
646 8.64667 6.58254 3.97417 0.25
647 5.35575 7.21904 5.85272 0.25
648 7.66577 0.507852 7.66099 0.25
649 4.89939 5.74646 8.8959 0.25
650 8.01863 1.59339 3.33395 0.25
651 5.11214 8.62188 8.24675 0.25
652 1.43467 5.60998 9.11885 0.25
653 0.35045 4.69302 5.0884 0.25
654 0.938276 6.55065 8.07397 0.25
655 10.0124 3.69757 1.59639 0.25
656 3.24162 5.4768 7.20139 0.25
657 9.44786 8.91444 6.26613 0.25
658 7.87955 3.89412 9.09615 0.25
659 7.99796 0.139122 4.18586 0.25
660 1.55268 6.07976 8.02394 0.5
661 3.03874 7.49301 3.46461 0.25
662 8.11147 8.21319 5.82244 0.25
663 3.38275 10.1093 8.3683 0.25
664 0.161897 2.76115 9.90461 0.25
665 8.64802 7.70141 0.453637 0.25
666 6.36592 0.417072 7.85972 0.25
667 8.55159 1.28363 0.231849 0.25
668 7.66605 1.60134 5.01065 0.25
669 4.09563 7.42265 8.89509 0.5
670 0.0121214 3.99915 8.87742 0.25
671 0.543063 6.39261 4.32365 0.5
672 5.97048 6.47239 4.74435 0.25
673 5.33681 9.26007 0.156337 0.25
674 6.86987 4.77175 6.90545 0.25
675 9.76737 7.88728 8.12057 0.25
676 5.51062 1.63814 10.2207 0.5
677 10.0944 3.10247 6.63317 0.25
678 10.1151 0.904443 6.0838 0.5
679 1.67753 2.11139 7.11399 0.25
680 3.23643 6.77573 2.69371 0.25
681 9.30604 8.79555 7.69764 0.25
682 4.28738 8.19624 4.46233 0.25
683 0.715007 2.74896 10.0235 0.25
684 1.67236 8.07967 7.46672 0.25
685 7.57997 10.3565 4.49597 0.25
686 6.25288 8.75305 5.30546 0.25
687 9.7059 2.59216 7.21799 0.25
688 6.92227 7.62353 10.2573 0.25
689 1.43851 3.20096 4.77778 0.25
690 0.722112 8.56258 9.33127 0.25
691 0.760335 8.33457 5.02593 0.25
692 1.49794 4.4496 6.03789 0.25
693 9.21968 2.59161 4.87703 0.25
694 3.02041 3.41487 10.2604 0.25
695 7.51963 2.32207 4.60472 0.25
696 5.20423 0.949995 3.67657 0.25
697 1.60158 8.92786 7.28109 0.25
698 8.70419 6.85877 0.201259 0.25
699 3.94178 8.49947 4.64737 0.25
700 6.80252 7.50161 0.374107 0.25
701 3.23044 5.68218 5.43746 0.25
702 5.46128 2.97992 4.40586 0.25
703 1.16312 8.90481 2.40546 0.25
704 7.78582 2.92598 9.89931 0.25
705 4.40271 5.63526 9.11086 0.25
706 7.44494 0.294245 8.046 0.25
707 5.09953 7.11385 6.27739 0.25
708 5.68391 5.08731 3.9345 0.25
709 0.765337 3.98059 1.90687 0.5
710 10.3579 4.49223 4.76868 0.25
711 8.2006 3.67797 8.8712 0.25
712 3.30019 9.24337 3.02459 0.25
713 1.58672 4.8616 3.32734 0.25
714 2.08039 0.274056 4.6891 0.25
715 2.34608 4.25513 6.86002 0.25
716 9.55926 10.0642 0.576697 0.25
717 3.39029 4.74803 5.61716 0.25
718 5.06078 3.39637 4.89074 0.5
719 4.74229 2.87677 5.35032 0.25
720 5.09456 1.28269 4.02566 0.25
721 3.62969 7.54415 5.94065 0.25
722 3.50669 4.14675 4.18485 0.25
723 5.75653 6.00447 6.13098 0.25
724 9.75079 0.0426283 8.80913 0.25
725 4.18639 0.0998128 6.41783 0.25
726 3.18867 4.46327 4.37076 0.25
727 3.81886 4.42643 3.86006 0.25
728 2.83134 8.4449 9.89454 0.5
729 6.78397 1.51351 6.15448 0.25
730 8.43427 1.36781 8.49659 0.25
731 1.26502 5.75147 0.689021 0.25
732 3.56171 8.80344 5.94512 0.25
733 10.0527 2.18245 3.78803 0.25
734 8.24495 6.57144 3.69091 0.25
735 3.42645 1.46348 5.62167 0.25
736 9.93093 6.12944 6.96271 0.25
737 1.28684 4.63353 5.63311 0.25
738 4.85032 8.20709 8.19558 0.25
739 2.73254 3.02241 0.0454924 0.25
740 8.0209 7.38497 0.918173 0.25
741 7.02872 3.54678 3.56586 0.25
742 5.76517 1.4268 0.589049 0.25
743 9.9906 2.40384 3.34155 0.25
744 2.00557 2.67496 4.79246 0.5
745 0.821839 4.8731 5.82782 0.25
746 6.92267 5.529 1.40824 0.25
747 7.68076 3.48016 0.908526 0.25
748 7.5314 10.3372 10.3167 0.25
749 7.39593 2.72884 9.69994 0.25
750 3.66911 2.44305 6.69492 0.25
751 1.04981 3.27883 5.10043 0.25
752 9.59053 2.26174 3.65657 0.25
753 0.0735783 3.52034 9.47958 0.5
754 6.42478 1.54917 6.52431 0.25
755 8.65461 1.92935 0.748198 0.25
756 5.60648 1.45339 9.50181 0.25
757 0.28791 2.59963 3.76286 0.5
758 2.57371 10.0207 4.31448 0.25
759 5.3666 3.84136 6.92178 0.25
760 4.34361 0.728338 3.45815 0.25
761 5.36602 6.30966 5.91531 0.25
762 0.05891 4.08412 7.50269 0.25
763 6.70464 5.09356 6.19233 0.5
764 4.61528 6.0307 3.75738 0.25
765 6.75844 6.61442 8.36361 0.25
766 1.37649 5.28677 3.06446 0.25
767 7.67624 3.40901 2.92913 0.25
768 4.73068 2.63657 6.0361 0.5
769 0.815305 3.27935 9.3519 0.25
770 5.81061 6.75498 6.27231 0.5
771 6.47643 7.68722 0.0925831 0.25
772 7.42485 8.7013 5.97987 0.5
773 6.97544 4.87746 10.3102 0.25
774 6.3873 8.04352 3.14972 0.25
775 0.303685 8.30685 9.44253 0.25
776 4.82947 0.332956 0.511922 0.25
777 0.941997 7.0807 2.01913 0.25
778 4.50508 0.448713 8.02347 0.25
779 0.308191 8.80238 9.17552 0.25
780 5.17298 4.52514 9.50348 0.25
781 5.26398 5.29422 4.13735 0.25
782 8.99772 6.78191 1.4211 0.25
783 3.96196 8.70656 3.03908 0.25
784 2.25243 3.18218 10.3386 0.25
785 10.0418 9.13967 8.01254 0.25
786 5.47708 6.43268 4.66771 0.25
787 5.21871 6.87126 4.63261 0.25
788 4.72588 1.04321 3.72353 0.25
789 7.20312 6.05916 2.50814 0.25
790 4.84231 2.36981 6.7276 0.25
791 9.57582 6.11583 5.65804 0.25
792 4.50321 3.65389 1.36183 0.5
793 0.999758 0.635747 9.63596 0.25
794 2.63684 1.68361 2.1782 0.25
795 1.71347 9.3604 7.22087 0.25
796 1.61561 10.1977 4.84712 0.5
797 9.54704 9.14539 4.12458 0.25
798 8.54407 5.09831 4.84212 0.25
799 3.91709 6.76656 2.28226 0.5
800 10.3114 1.6715 2.52451 0.25
801 7.74604 0.0674438 0.413955 0.25
802 5.61057 7.54348 10.3093 0.25
803 8.99145 5.43286 9.48914 0.25
804 4.69325 5.34086 6.7762 0.25
805 7.90383 3.91376 5.53053 0.25
806 2.56426 9.97343 8.4781 0.25
807 3.56226 5.28421 5.58083 0.25
808 8.99202 5.60277 9.98378 0.25
809 1.9815 5.37784 9.97128 0.25
810 7.27292 1.59899 6.2167 0.25
811 9.09118 4.94637 9.46847 0.25
812 4.18553 6.12355 1.93094 0.25
813 0.627068 3.40961 1.42656 0.25
814 2.2746 0.0179846 0.844287 0.25
815 3.20678 5.10563 4.92628 0.5
816 7.49962 10.1174 0.711124 0.25
817 5.25526 9.97415 0.285946 0.5
818 9.65363 6.88459 0.102273 0.25
819 4.34112 5.75815 1.6248 0.25
820 7.73161 4.20469 7.75587 0.25
821 9.49227 8.31873 7.9557 0.25
822 5.87081 2.88006 1.3405 0.25
823 2.10214 9.04953 7.84615 0.5
824 6.90971 3.83194 8.0916 0.25
825 8.68583 8.86764 6.55069 0.5
826 7.71713 3.15952 3.3497 0.25
827 9.49628 6.07288 7.05622 0.25
828 9.26007 4.6943 1.63851 0.25
829 1.0312 6.77237 4.79938 0.25
830 4.30517 6.20715 1.4256 0.25
831 3.26 7.13644 2.35268 0.25
832 4.22466 5.20374 8.91315 0.25
833 6.14836 5.67446 6.22266 0.25
834 7.61888 4.32478 5.68739 0.25
835 1.13454 1.01023 7.32364 0.25
836 7.2743 5.56939 1.09446 0.25
837 4.06093 7.57933 8.17821 0.25
838 2.98665 10.0508 8.69696 0.25
839 0.0340456 2.03512 4.11661 0.25
840 8.58177 4.71089 4.54967 0.25
841 5.77759 4.61472 9.95896 0.5
842 6.94735 6.93166 8.02539 0.25
843 0.569779 7.94904 1.73904 0.25
844 6.88532 5.9046 1.08565 0.25
845 7.7801 3.78066 5.00014 0.25
846 0.477267 5.6445 4.00904 0.25
847 8.18825 3.57463 0.765259 0.25
848 3.1434 0.905966 9.98625 0.5
849 7.329 5.61697 2.74317 0.25
850 4.01091 9.38287 3.38596 0.25
851 3.92373 6.3983 1.60849 0.25
852 5.47394 1.66819 3.9529 0.25
853 8.33181 10.1349 4.09589 0.25
854 1.94653 3.91625 6.6703 0.25
855 4.33521 5.24862 1.80917 0.25
856 9.22843 2.95693 6.68954 0.25
857 5.06846 3.91954 4.26881 0.25
858 8.09978 7.64219 5.16174 0.25
859 9.44042 1.49342 1.98371 0.25
860 1.13339 9.63449 4.62441 0.25
861 3.25764 9.85865 1.7033 0.25
862 7.83698 0.920836 8.33958 0.5
863 0.526251 2.90344 9.55593 0.25
864 4.02535 3.37791 0.846676 0.25
865 0.730576 7.12939 4.56502 0.25
866 3.06854 1.30267 0.258016 0.25
867 3.6791 7.25003 9.46961 0.25
868 9.87573 1.70257 1.8413 0.25
869 1.04021 8.14261 5.4709 0.25
870 7.25865 6.81244 8.38062 0.25
871 7.36887 3.17928 3.63492 0.25
872 8.28461 0.231383 7.87564 0.5
873 5.74849 8.91947 5.46677 0.25
874 6.68897 8.66661 5.61319 0.25
875 3.95574 8.02571 4.80266 0.25
876 3.91473 5.91809 1.50828 0.25
877 0.0412142 2.90095 4.38409 0.25
878 1.31623 0.626577 10.0654 0.25
879 0.551609 7.83938 4.91345 0.25
880 4.78441 3.499 4.15802 0.25
881 4.38969 6.36159 8.84945 0.5
882 9.77404 0.697605 5.06785 0.25
883 5.15249 3.05301 5.48702 0.25
884 3.09943 2.30426 2.29759 0.5
885 9.07406 8.9782 2.73541 0.25
886 9.83133 9.63883 0.500368 0.25
887 2.11749 6.65794 7.97868 0.25
888 0.623024 9.1249 1.72564 0.25
889 3.87999 4.9378 7.47592 0.25
890 0.0373116 4.69547 6.9208 0.25
891 4.09268 3.85397 0.788954 0.25
892 6.21017 8.43881 3.37242 0.25
893 8.78962 2.07535 0.269534 0.25
894 2.63209 8.12776 0.173651 0.25
895 9.63425 3.3043 6.48283 0.25
896 9.90897 1.22056 1.96548 0.25
897 3.66694 7.88226 6.32465 0.25
898 0.395816 5.11658 4.49955 0.5
899 10.0264 0.289941 5.76555 0.25
900 9.11264 4.72866 3.75997 0.25
901 0.195037 7.66531 5.19868 0.25
902 6.15812 1.95078 10.1234 0.25
903 7.68831 7.65413 5.36466 0.25
904 2.28449 5.65118 0.164213 0.5
905 1.23292 1.87969 1.26486 0.25