ITEM: TIMESTEP
750000
ITEM: NUMBER OF ATOMS
1000
ITEM: BOX BOUNDS xy xz yz pp pp pp
0.0000000000000000e+00 1.0357442000000001e+01 0.0000000000000000e+00
0.0000000000000000e+00 1.0357442000000001e+01 0.0000000000000000e+00
0.0000000000000000e+00 1.0357442000000001e+01 0.0000000000000000e+00
ITEM: ATOMS id x y z radius
1 1.35223 4.4141 2.90929 0.5
2 1.94469 7.66087 2.78683 0.5
3 5.66515 2.08269 1.15903 0.25
4 0.439795 2.75536 4.58244 0.25
5 9.97515 3.66065 7.75415 0.25
6 0.813894 2.7797 10.3467 0.25
7 4.63738 0.670489 2.79595 0.25
8 8.82627 3.82184 1.88157 0.25
9 9.92066 1.20415 1.43219 0.25
10 8.46492 6.69284 4.6838 0.25
11 9.31704 8.20639 1.11853 0.25
12 7.80122 2.46536 10.1467 0.25
13 3.82713 7.46715 6.0865 0.25
14 5.23269 2.32556 0.100967 0.25
15 8.68683 5.69526 6.43903 0.25
16 8.87041 8.78328 6.31132 0.25
17 5.24798 8.99885 8.40855 0.5
18 2.8709 8.31992 10.3204 0.25
19 6.83823 4.09351 5.14083 0.25
20 9.22669 0.790854 1.12243 0.25
21 0.504129 10.2744 9.46128 0.25
22 4.9531 0.985659 2.61918 0.25
23 3.86419 3.99129 2.74858 0.25
24 2.72019 2.50261 4.15808 0.25
25 7.38426 1.92971 5.82865 0.25
26 5.31147 2.77157 8.33864 0.25
27 1.70876 8.02687 0.26543 0.25
28 9.10702 6.03531 6.48419 0.25
29 3.65406 7.49542 5.5848 0.25
30 0.968418 9.26292 7.24688 0.25
31 0.763169 6.9948 5.05361 0.25
32 8.87954 6.65462 1.41278 0.25
33 9.75616 8.21675 1.35701 0.25
34 0.336249 2.41851 9.83043 0.25
35 7.58733 2.45815 9.67744 0.25
36 8.24179 8.71394 9.32732 0.25
37 3.99826 5.03008 5.49064 0.25
38 7.31631 0.0869243 0.797318 0.25
39 5.88399 3.96737 5.26007 0.25
40 8.53164 4.28234 4.5433 0.25
41 8.42208 7.56923 4.68752 0.25
42 6.7443 8.43683 2.26615 0.5
43 0.433904 8.5499 6.06816 0.25
44 3.21262 9.86573 4.59409 0.25
45 6.61247 7.1809 8.56434 0.25
46 1.11069 8.77405 7.14914 0.25
47 4.48586 8.26133 3.51745 0.25
48 3.36055 10.2987 4.41799 0.25
49 4.16075 5.79534 9.24785 0.25
50 10.3258 9.19938 3.8691 0.25
51 9.58075 9.32833 1.44418 0.25
52 6.02682 7.10608 0.818499 0.25
53 7.06308 5.24615 1.80488 0.25
54 4.81678 4.84381 8.09902 0.25
55 6.21787 7.08874 6.83582 0.25
56 5.15831 1.42668 0.986654 0.25
57 5.26432 2.64122 0.488021 0.25
58 6.32738 4.18052 0.407318 0.25
59 3.91412 7.61457 9.01052 0.25
60 6.74152 7.42727 8.16285 0.25
61 3.22948 0.264396 8.75197 0.25
62 9.44546 5.9601 6.8073 0.25
63 0.571413 5.57505 4.97621 0.25
64 10.0092 1.65248 1.65132 0.25
65 6.74775 6.52404 6.30386 0.25
66 4.4163 1.07137 2.57688 0.25
67 9.47209 5.08952 9.16256 0.25
68 6.24756 0.288383 10.268 0.25
69 2.21423 7.24759 3.40377 0.25
70 3.92182 5.47474 3.77994 0.25
71 1.25906 7.93077 2.85084 0.25
72 5.59349 6.93396 3.54465 0.25
73 9.22227 8.78734 7.00637 0.5
74 2.38686 7.09334 3.00341 0.25
75 0.629913 6.00365 0.338269 0.25
76 1.54939 8.10029 10.1311 0.25
77 7.0877 7.20794 8.40444 0.25
78 4.59404 9.44634 1.55054 0.25
79 1.02016 5.18048 9.84191 0.25
80 8.39385 8.66906 9.8321 0.25
81 8.27744 9.22535 7.38148 0.25
82 1.77199 0.672337 1.92635 0.25
83 1.90922 8.20475 2.34481 0.25
84 5.27441 9.53301 5.70384 0.25
85 4.06908 5.85516 1.68546 0.25
86 9.86817 4.02011 1.55317 0.5
87 1.20532 5.32365 8.53771 0.25
88 3.02534 3.75427 8.45775 0.25
89 0.851738 10.1131 9.8139 0.25
90 7.0698 10.1321 1.49231 0.5
91 4.61864 8.29701 3.97501 0.25
92 9.23996 1.33444 1.82276 0.25
93 8.15332 1.36239 8.45966 0.25
94 1.0329 4.3137 2.23719 0.25
95 7.40203 8.87052 5.93484 0.25
96 7.68185 1.21455 7.04396 0.25
97 5.65625 9.76796 5.54697 0.25
98 10.0831 0.557606 6.6169 0.25
99 5.23806 2.03352 8.12467 0.5
100 5.64095 2.81837 5.51835 0.25
101 5.34258 2.25931 9.73054 0.5
102 4.1664 5.16114 8.41469 0.5
103 6.71414 0.44616 1.16286 0.25
104 1.35455 0.399895 9.8566 0.25
105 1.81393 5.34092 3.29694 0.25
106 5.88629 6.38347 6.33431 0.25
107 5.79933 10.0851 8.32234 0.25
108 1.97648 3.68035 2.3733 0.25
109 7.34794 2.2595 2.35556 0.25
110 5.80348 10.0722 5.90257 0.25
111 1.44299 5.7935 0.516273 0.25
112 3.62171 5.24633 5.61336 0.25
113 2.26833 9.62682 4.60425 0.25
114 8.41452 6.20097 0.254537 0.25
115 4.87881 3.49286 2.32608 0.25
116 0.277957 2.03641 3.58481 0.25
117 7.23833 2.86192 2.88015 0.5
118 7.29356 7.98225 2.56532 0.25
119 9.90989 2.49447 4.33017 0.25
120 1.58896 5.51843 0.0742245 0.25
121 7.81509 1.96507 5.23351 0.5
122 2.08364 4.57585 2.71106 0.25
123 9.59059 8.93707 0.64319 0.25
124 8.34002 6.08454 0.733199 0.25
125 1.53137 9.88645 4.70663 0.25
126 5.98445 7.58705 0.62331 0.25
127 5.85527 7.21894 0.27466 0.25
128 9.57918 10.264 3.88187 0.25
129 1.38223 5.41217 3.49126 0.25
130 9.79229 9.32086 0.98668 0.25
131 6.89558 2.33694 2.47193 0.25
132 8.59416 4.48801 4.9868 0.25
133 8.2973 9.16098 9.62807 0.25
134 3.68377 3.44733 2.81889 0.25
135 6.13237 9.40279 8.10539 0.5
136 8.43774 8.93487 7.03009 0.25
137 1.61229 9.59629 1.90913 0.25
138 7.04842 4.18454 4.65119 0.25
139 7.14222 4.56043 7.80723 0.5
140 4.34572 8.28428 3.04628 0.25
141 2.04052 1.93986 1.74709 0.25
142 3.02053 3.00217 4.88589 0.25
143 6.92163 1.30263 3.3113 0.25
144 9.90586 7.03179 2.36068 0.25
145 3.73835 7.88821 5.87554 0.25
146 7.47215 9.28936 2.82507 0.25
147 3.84433 5.89769 4.04963 0.25
148 3.194 1.72103 0.00281926 0.25
149 10.2501 7.52699 8.96284 0.25
150 4.44082 4.84708 7.82585 0.25
151 6.84122 9.89591 9.87544 0.25
152 4.53444 9.19356 1.16449 0.25
153 5.37379 1.85212 7.35371 0.25
154 5.45078 9.49015 7.83829 0.25
155 3.47085 6.51592 1.16855 0.25
156 0.751495 8.88952 7.46757 0.25
157 4.73564 1.28923 4.005 0.25
158 8.65403 9.58814 6.4535 0.25
159 3.48644 2.92596 5.08687 0.25
160 2.73252 3.42916 8.21264 0.25
161 3.15765 0.169683 9.27464 0.25
162 4.04723 2.24613 5.80683 0.5
163 6.71698 9.97378 2.12908 0.25
164 4.96343 8.27421 8.0753 0.25
165 0.404791 2.77805 10.1518 0.25
166 6.68328 4.14678 6.82479 0.25
167 9.13688 10.0208 3.86699 0.25
168 10.1151 8.20398 9.3493 0.25
169 9.51568 6.76433 7.10448 0.25
170 3.63609 0.286231 8.05542 0.25
171 0.992584 8.84067 8.00113 0.25
172 9.6026 5.98572 7.30577 0.25
173 0.935576 1.81156 4.29753 0.25
174 4.64878 1.95552 6.11947 0.25
175 10.1049 3.17642 7.74066 0.25
176 0.537797 6.38471 0.119874 0.25
177 9.23179 6.1575 7.55925 0.25
178 7.30956 1.44934 5.12621 0.25
179 2.71691 9.51053 7.92226 0.25
180 7.50412 8.99512 2.14443 0.5
181 1.16885 4.13757 5.81799 0.25
182 7.45298 1.13679 3.37196 0.25
183 2.72587 0.0708922 4.91685 0.25
184 9.23094 5.39576 9.54168 0.25
185 8.73589 9.21791 6.12693 0.25
186 2.65466 7.484 9.96339 0.25
187 3.73881 3.45009 0.502032 0.25
188 5.25594 2.40991 7.43844 0.25
189 0.0659142 0.262339 6.39152 0.25
190 2.66103 7.02708 3.41315 0.25
191 5.3138 2.67611 9.06505 0.25
192 8.73336 9.23897 7.19931 0.25
193 5.3052 2.17149 8.90564 0.25
194 4.32772 9.74594 1.21469 0.25
195 5.45192 5.34754 9.6132 0.25
196 5.40398 2.70417 0.0291359 0.25
197 8.62777 6.11058 7.02455 0.5
198 7.2455 1.83369 7.01413 0.5
199 6.91373 0.012853 9.79096 0.25
200 7.2463 0.882716 6.38459 0.25
201 6.31086 6.58075 6.61223 0.25
202 3.29624 7.51622 5.2204 0.25
203 4.11705 10.0631 0.457126 0.25
204 0.607848 3.39142 6.29723 0.25
205 3.84396 0.482621 6.34417 0.25
206 0.749443 1.97947 3.86965 0.25
207 1.00417 5.19811 4.05223 0.5
208 4.00662 4.54932 5.65314 0.25
209 7.39623 9.60246 2.44153 0.25
210 3.85646 10.3267 6.3171 0.25
211 1.74687 5.00382 2.61786 0.25
212 0.450623 3.97394 1.99239 0.5
213 9.17266 4.03468 1.5536 0.25
214 3.41156 4.95242 5.98217 0.25
215 9.81657 0.784439 8.6772 0.25
216 5.24245 1.6854 0.558826 0.25
217 0.283757 8.07317 6.04894 0.25
218 2.10352 1.21127 1.59977 0.5
219 0.747381 4.19296 6.1637 0.25
220 6.80215 9.13891 1.88484 0.25
221 8.3045 6.70775 4.14943 0.25
222 9.36041 6.43059 6.72159 0.25
223 5.47155 9.40301 5.27196 0.25
224 9.9691 3.82612 7.2559 0.25
225 8.17975 1.3367 5.44476 0.25
226 6.28442 8.7961 5.23862 0.25
227 7.1691 0.375405 1.15309 0.25
228 5.32246 2.42198 0.92835 0.25
229 2.92371 2.08947 1.69313 0.25
230 8.3078 7.5422 4.17371 0.25
231 7.57307 3.89627 6.98706 0.25
232 7.03671 9.58373 2.05349 0.25
233 7.92139 2.07366 9.13316 0.5
234 3.69715 9.16466 1.30179 0.25
235 1.11125 8.56532 7.64162 0.25
236 1.19562 5.50929 0.88313 0.25
237 7.10523 1.08362 3.75935 0.25
238 0.846351 5.92425 4.2109 0.25
239 0.999992 3.26591 10.3627 0.25
240 1.52317 8.93374 2.34829 0.5
241 1.84263 9.6579 2.33778 0.25
242 3.53196 8.16199 6.25011 0.25
243 1.30564 6.21368 0.664191 0.25
244 1.8828 1.32104 6.62464 0.25
245 6.69092 6.89057 6.70138 0.25
246 2.02491 8.11833 10.2637 0.25
247 2.33118 7.76972 3.43596 0.25
248 5.53364 2.49566 8.68047 0.25
249 6.73881 3.76791 4.72998 0.25
250 7.43025 1.32059 6.58559 0.25
251 1.42514 1.4636 6.47946 0.25
252 7.61596 6.46576 8.90905 0.25
253 3.96404 7.23388 8.64453 0.25
254 1.27485 9.96873 1.84178 0.25
255 1.58285 0.613666 1.49605 0.25
256 3.24108 5.78529 4.53961 0.25
257 0.949464 0.188461 9.61359 0.25
258 4.45663 5.3264 7.19576 0.25
259 1.79145 9.50289 4.79856 0.25
260 1.21713 9.97937 10.1829 0.25
261 7.07194 7.16663 7.90438 0.25
262 5.30106 6.64373 3.89916 0.25
263 8.12295 8.27671 9.60258 0.25
264 7.60032 9.46507 9.80962 0.5
265 4.60729 3.77978 3.03995 0.25
266 5.1045 4.05804 2.91351 0.25
267 3.57757 7.07486 5.9008 0.25
268 3.52635 7.71119 6.33159 0.25
269 7.71102 8.68438 5.57508 0.25
270 3.52529 7.20821 6.3912 0.25
271 4.1756 9.72782 1.72345 0.25
272 6.42466 7.06879 5.24208 0.25
273 9.60108 3.39644 6.5426 0.25
274 3.61386 4.52765 6.03835 0.25
275 10.1437 6.33898 2.72347 0.25
276 7.9185 0.901834 8.58488 0.25
277 3.03604 10.1827 8.24312 0.5
278 4.38503 5.89383 8.30413 0.25
279 2.88446 0.538184 8.46588 0.25
280 3.56298 0.440832 9.50426 0.25
281 4.86541 8.55139 3.59525 0.25
282 4.65375 0.543172 3.61899 0.25
283 9.52207 0.511675 9.36675 0.25
284 1.54983 5.32232 0.546403 0.25
285 8.40072 6.6363 1.41996 0.25
286 10.3357 1.44337 1.3594 0.25
287 1.59597 8.31033 2.75774 0.25
288 0.889249 5.57442 4.65625 0.25
289 9.26918 0.481132 1.53705 0.25
290 8.82365 4.32077 1.78045 0.25
291 8.04173 2.52219 9.73317 0.25
292 4.09966 9.33028 1.40536 0.25
293 4.75551 2.63964 6.91159 0.5
294 10.2393 6.88101 2.68605 0.25
295 6.98053 0.931903 7.02465 0.5
296 2.82126 2.95696 4.43233 0.25
297 0.458486 8.28388 5.61199 0.25
298 4.68541 9.5099 0.787498 0.25
299 8.81801 5.06047 9.75576 0.25
300 1.63474 10.3108 4.86059 0.25
301 4.44578 8.32543 7.93365 0.25
302 4.898 4.76714 7.58731 0.25
303 8.75518 5.79454 10.0629 0.5
304 4.40657 3.45402 2.22115 0.25
305 1.41733 8.08246 2.39425 0.25
306 -0.0010247 7.80099 9.35708 0.25
307 1.31307 10.2574 9.7781 0.25
308 9.11208 5.61343 6.73769 0.25
309 8.1332 1.81748 8.40518 0.25
310 6.55385 6.42274 5.8054 0.25
311 1.492 0.690595 2.26151 0.25
312 8.6938 0.946886 8.76532 0.5
313 0.943081 7.95312 2.42556 0.25
314 1.16278 3.98059 1.87522 0.25
315 3.05808 0.8724 9.1396 0.5
316 6.558 4.2847 7.29517 0.25
317 6.27961 10.0378 8.48471 0.25
318 9.95479 7.94365 9.73421 0.25
319 10.334 9.32303 3.41134 0.25
320 0.627758 2.98169 9.18988 0.25
321 2.46409 1.96238 1.51315 0.25
322 1.2319 6.89628 4.97363 0.25
323 6.39527 10.1637 9.29773 0.5
324 7.78534 2.43269 3.08926 0.25
325 9.21969 4.12297 2.04521 0.25
326 3.10332 9.94412 4.13501 0.25
327 1.3247 9.45673 7.56412 0.25
328 4.50271 3.44693 2.70254 0.25
329 8.91942 7.10372 4.29022 0.5
330 9.86811 6.21547 2.32771 0.25
331 9.14392 10.0663 3.39227 0.25
332 6.51189 7.71711 0.49687 0.25
333 9.78179 8.16775 8.93901 0.25
334 6.78091 4.79867 1.59875 0.25
335 5.92544 4.55045 0.491457 0.25
336 9.28704 3.65201 1.90902 0.25
337 4.72751 5.55423 8.46495 0.25
338 7.46254 8.26756 2.15979 0.25
339 3.94651 5.81796 8.46815 0.25
340 0.37206 2.91977 9.66771 0.25
341 3.72864 5.82197 4.52495 0.25
342 9.72726 3.08674 6.94163 0.25
343 10.1164 1.84634 3.72543 0.25
344 4.17058 0.797249 2.98588 0.25
345 6.38255 4.26214 10.2403 0.25
346 2.09888 1.9811 7.63816 0.25
347 3.27517 3.70138 10.2009 0.25
348 5.62902 7.65181 0.300481 0.25
349 5.0192 1.5848 7.5681 0.25
350 2.72297 3.45485 7.75395 0.25
351 5.37366 7.37834 3.31038 0.25
352 8.18735 6.24239 1.60632 0.25
353 9.59087 3.57969 7.00149 0.25
354 10.0414 4.24148 2.2401 0.25
355 2.52191 1.02051 2.17324 0.25
356 4.56128 9.37762 0.268453 0.25
357 3.18332 4.55845 6.27179 0.25
358 4.60335 9.82346 0.360045 0.25
359 8.68065 6.7684 0.681005 0.5
360 4.10797 0.181129 6.6488 0.25
361 0.11298 0.754511 6.36106 0.25
362 9.61032 8.17354 9.38972 0.25
363 7.08101 2.69655 2.19231 0.25
364 9.77977 6.63727 2.59842 0.25
365 5.83372 9.05313 5.12028 0.25
366 9.34764 4.47585 1.27803 0.25
367 3.59631 0.678349 8.75339 0.25
368 9.63308 6.45023 7.48444 0.25
369 9.10387 3.96985 4.71668 0.5
370 4.77589 1.63007 6.85084 0.5
371 9.49362 6.64108 1.84257 0.5
372 1.15326 2.50727 4.21053 0.5
373 3.65666 0.241371 8.57174 0.25
374 3.5961 0.308896 9.07197 0.25
375 4.44551 0.871648 3.90601 0.25
376 0.467974 5.77426 4.50925 0.25
377 9.92545 7.79528 9.21937 0.25
378 9.28698 9.18055 1.02894 0.25
379 0.359508 3.77238 6.06247 0.25
380 1.81268 2.17678 4.47024 0.25
381 6.5296 4.88715 2.26425 0.5
382 2.21059 7.74171 9.93705 0.25
383 5.42528 8.29641 8.21844 0.25
384 1.71725 6.74899 7.80864 0.25
385 1.02656 6.85928 5.43892 0.25
386 1.39314 5.5266 7.71752 0.25
387 1.16878 6.03184 7.7932 0.25
388 3.17801 1.66965 1.84231 0.25
389 5.59664 1.58625 0.963835 0.25
390 3.72612 3.53577 10.3416 0.25
391 3.45884 0.196637 6.22386 0.25
392 1.0029 5.72167 5.10847 0.25
393 9.06677 9.26954 6.4344 0.25
394 9.9424 1.01028 6.32129 0.25
395 1.87498 4.95753 3.0687 0.25
396 3.09025 0.443723 9.70337 0.25
397 7.73264 2.33227 2.62759 0.25
398 9.35659 4.3459 9.62024 0.25
399 2.49261 9.90115 7.72006 0.25
400 7.75586 2.91339 0.0938497 0.25
401 5.12475 7.00077 3.56095 0.25
402 4.31664 5.73632 8.78573 0.25
403 6.15634 5.062 0.390508 0.25
404 8.6916 3.41838 0.0633798 0.25
405 0.997163 5.9186 0.657046 0.25
406 6.31309 9.25087 5.17367 0.25
407 7.20194 6.72611 8.19388 0.25
408 9.72822 8.52618 0.974505 0.25
409 0.0865809 7.02691 2.25494 0.25
410 5.81717 0.524588 3.75784 0.25
411 7.61904 8.77191 10.0561 0.25
412 4.921 2.06527 7.40311 0.25
413 7.63689 2.68968 2.30201 0.25
414 6.86089 5.27101 2.74426 0.25
415 4.63649 1.24556 3.27119 0.5
416 9.87486 0.767261 9.18753 0.25
417 3.03185 7.5999 5.90378 0.5
418 0.744218 1.07928 6.56777 0.5
419 8.8565 9.71805 3.55243 0.25
420 5.30632 8.58686 7.80397 0.25
421 8.99112 6.73544 6.9403 0.25
422 2.6872 7.4611 2.75458 0.25
423 1.42069 5.13259 3.03141 0.25
424 0.059766 0.200847 9.65879 0.25
425 2.03767 0.0880851 4.6376 0.25
426 2.86819 1.27726 1.87139 0.25
427 7.05685 1.34739 6.3164 0.25
428 7.47848 9.67327 1.89662 0.25
429 5.11524 9.07076 7.71372 0.25
430 10.0482 9.48732 4.17811 0.25
431 6.82188 0.0999068 0.859191 0.25
432 2.96714 7.85587 10.1047 0.25
433 2.98977 2.7204 5.22782 0.25
434 5.92956 9.79064 8.71871 0.25
435 0.936091 2.97176 0.418872 0.25
436 6.59639 4.668 10.1123 0.25
437 0.866358 5.71267 9.8829 0.25
438 7.70147 0.919493 6.62878 0.25
439 9.59039 9.53046 3.59118 0.5
440 2.2973 2.84057 7.87478 0.5
441 1.14392 3.8812 2.34092 0.25
442 6.54083 7.44189 0.0589409 0.25
443 10.0295 10.1419 3.62289 0.25
444 1.5605 3.6621 2.12545 0.25
445 5.32909 6.87716 3.11523 0.25
446 8.45691 4.75219 4.55402 0.25
447 6.60044 4.91174 0.186628 0.25
448 5.24302 0.614876 3.23729 0.5
449 0.195883 0.620858 6.80697 0.25
450 2.03839 0.782867 2.32109 0.25
451 3.51701 4.2161 0.424917 0.25
452 5.64143 4.33854 4.59303 0.25
453 7.45301 4.15917 8.38569 0.25
454 1.50449 5.69673 8.52524 0.25
455 1.31776 6.114 8.35572 0.25
456 2.81269 1.62265 1.49114 0.25
457 9.32799 8.72164 1.67799 0.5
458 1.39754 5.93041 7.35286 0.25
459 1.14305 1.58269 6.9389 0.25
460 1.8106 6.16284 7.192 0.25
461 3.53896 6.50851 1.71488 0.25
462 3.57587 6.02175 1.86128 0.25
463 1.8067 9.68447 4.31943 0.25
464 9.56447 1.50843 1.46888 0.25
465 7.05857 5.39174 2.29454 0.25
466 4.84013 5.47687 7.7596 0.5
467 3.15724 5.02171 5.50542 0.25
468 2.1319 1.29161 2.32307 0.25
469 4.03157 3.59296 2.4918 0.25
470 4.19074 4.11353 3.15954 0.25
471 3.19202 10.237 4.8973 0.25
472 1.8523 2.69439 7.23258 0.25
473 2.59384 7.82594 9.64922 0.25
474 9.27118 4.52287 1.72081 0.25
475 8.89674 7.24762 3.55755 0.25
476 3.58947 5.73803 1.44559 0.25
477 10.2628 9.71016 3.77908 0.25
478 8.80294 5.98325 1.28723 0.5
479 6.52348 0.373132 0.710661 0.25
480 2.53967 8.03685 10.0821 0.25
481 4.1119 8.90683 1.17318 0.25
482 6.44951 9.70785 5.27091 0.25
483 6.92755 0.0776188 0.120141 0.5
484 9.86862 3.38896 7.3079 0.25
485 8.62705 2.86397 10.3386 0.25
486 4.51331 8.68876 3.28035 0.25
487 3.32557 3.33352 0.167139 0.25
488 7.13052 9.42827 1.64219 0.25
489 9.09763 6.38978 4.04798 0.25
490 2.34551 3.29701 8.45174 0.25
491 8.68861 9.10387 6.65856 0.25
492 7.72632 2.89297 9.90826 0.25
493 10.2025 3.0532 7.22494 0.25
494 8.39514 3.99188 4.89097 0.25
495 -0.00176401 3.51202 7.47204 0.25
496 4.26747 1.69326 6.298 0.25
497 3.16957 4.12885 0.108375 0.25
498 8.40112 1.45665 9.30894 0.25
499 3.83222 9.6647 1.33809 0.25
500 4.2508 7.24797 8.9879 0.25
501 2.73623 9.73917 4.46246 0.25
502 9.22106 5.76254 7.22676 0.25
503 7.07255 8.33729 2.90589 0.25
504 6.32989 7.26661 0.445171 0.25
505 7.60086 1.21212 5.84518 0.5
506 5.6321 10.1983 5.417 0.25
507 7.46013 8.44574 2.65244 0.25
508 4.78455 8.47391 8.8742 0.25
509 1.5455 8.68806 7.44578 0.25
510 5.74479 4.39423 5.08247 0.25
511 3.62428 0.220425 6.71553 0.25
512 1.73927 5.23392 3.78123 0.25
513 1.46149 5.21693 10.058 0.25
514 3.57874 2.13575 5.21024 0.25
515 1.77714 1.98048 6.94252 0.5
516 6.05388 9.31218 5.81443 0.5
517 9.02758 6.74166 3.61015 0.25
518 2.81315 0.803104 9.93054 0.25
519 2.8287 9.89955 4.96642 0.25
520 5.33569 2.18104 6.99065 0.25
521 1.32781 4.54477 5.65485 0.25
522 2.49618 10.1098 4.65074 0.25
523 3.00048 3.17025 7.91315 0.25
524 8.46797 1.86139 4.81711 0.25
525 2.20069 6.66558 7.73334 0.25
526 1.67454 5.24006 8.64853 0.25
527 6.68126 9.37955 2.57774 0.5
528 7.69168 8.84337 2.90439 0.25
529 3.64175 5.50126 0.950092 0.25
530 1.03071 8.32637 2.17845 0.25
531 1.32402 2.88359 0.072556 0.25
532 2.04672 8.32879 0.391896 0.25
533 9.39211 9.90839 4.24367 0.25
534 8.89317 4.68275 4.71899 0.25
535 7.11602 6.58303 9.0224 0.25
536 4.46191 9.97269 0.805222 0.25
537 7.80122 1.51465 3.50521 0.25
538 7.6975 4.06861 7.49897 0.25
539 10.3215 3.52693 6.68898 0.5
540 6.15922 10.1838 7.98467 0.25
541 9.65343 8.95576 1.14444 0.25
542 7.46643 9.39394 5.97049 0.25
543 9.19386 4.3632 4.06151 0.25
544 1.5849 1.88632 7.66251 0.25
545 10.0309 8.87674 3.54754 0.25
546 0.351759 0.988102 5.98082 0.25
547 9.636 3.88959 2.22892 0.25
548 9.2844 4.63626 9.1602 0.25
549 1.3953 0.940874 1.8323 0.25
550 9.23952 8.68951 0.955445 0.25
551 2.57557 7.42009 3.72133 0.25
552 8.92986 9.50419 6.8502 0.25
553 5.30758 3.12468 5.35506 0.25
554 8.80273 4.52856 4.27832 0.25
555 5.61978 9.00961 7.77245 0.25
556 1.46304 8.73063 7.94572 0.25
557 2.92544 9.83928 7.57358 0.25
558 2.49489 3.75129 8.46013 0.25
559 9.40732 1.00212 8.46774 0.25
560 3.59291 4.77939 5.56123 0.25
561 1.04613 4.39708 1.76322 0.25
562 5.50459 4.93384 9.32001 0.25
563 5.73302 9.95183 7.85638 0.25
564 1.86964 1.2954 7.14014 0.25
565 1.67363 1.14541 2.18605 0.25
566 9.7515 6.33835 7.00773 0.25
567 0.85205 6.38279 0.569465 0.25
568 7.79558 1.2864 5.15073 0.25
569 7.01609 3.7653 7.4566 0.5
570 4.09076 3.19173 2.60624 0.25
571 4.68816 4.29005 3.1632 0.25
572 8.41773 1.64349 8.79352 0.25
573 0.48119 6.79185 5.45086 0.25
574 0.442252 0.519267 6.09152 0.25
575 5.83711 3.89103 4.44736 0.25
576 5.24538 1.94953 0.929708 0.25
577 0.567777 7.95329 5.21968 0.25
578 0.899717 5.31655 0.202191 0.5
579 4.87197 5.05669 7.07395 0.25
580 8.75917 7.63639 3.89947 0.25
581 6.84888 6.42952 8.25715 0.25
582 7.13559 4.50731 5.06691 0.25
583 8.29951 5.5879 6.68339 0.25
584 5.77178 6.61895 3.17884 0.25
585 7.00288 0.51019 0.731614 0.25
586 1.67241 2.53972 4.72288 0.25
587 6.11239 9.99001 5.45427 0.25
588 3.0762 1.58252 9.47827 0.25
589 10.1297 3.72772 2.26878 0.25
590 8.66402 6.4465 3.83185 0.25
591 3.79921 2.59055 5.20488 0.25
592 6.76725 5.7022 2.4766 0.25
593 5.49198 9.75386 6.08409 0.25
594 8.56862 6.54815 10.3088 0.25
595 1.74376 2.34754 7.59327 0.25
596 10.003 8.61687 1.31009 0.25
597 4.19022 0.725833 3.51204 0.25
598 6.38665 7.41746 0.935816 0.25
599 9.92769 1.62238 1.13302 0.25
600 4.1956 9.25153 1.89273 0.25
601 7.18196 9.98076 2.25684 0.25
602 6.60158 8.17082 3.02933 0.25
603 2.29664 6.31324 7.38138 0.25
604 8.77701 0.989688 1.15141 0.25
605 1.35271 7.60562 2.43052 0.25
606 1.89719 1.53037 7.57903 0.25
607 2.20287 2.3779 7.31768 0.25
608 5.84463 6.21442 5.58764 0.5
609 4.01448 6.29953 1.79706 0.25
610 6.53126 4.74016 0.890573 0.5
611 8.50563 8.47488 7.17323 0.25
612 8.48226 10.2955 3.85186 0.5
613 8.34926 2.40586 10.1851 0.25
614 9.1502 7.04912 1.25757 0.25
615 6.43301 4.23442 7.74854 0.25
616 1.46806 1.22623 6.85148 0.25
617 2.30677 3.59088 8.01971 0.25
618 8.22923 3.1703 0.163904 0.25
619 1.35038 9.73205 2.31071 0.25
620 7.18833 5.64817 2.73866 0.25
621 6.29203 4.97126 1.5886 0.25
622 6.77833 6.28586 8.78464 0.25
623 7.80996 4.36977 4.69806 0.5
624 4.65921 8.56574 8.37777 0.25
625 5.25726 1.90078 0.0765397 0.25
626 2.3812 2.81964 4.18639 0.25
627 6.41615 5.48196 2.75011 0.25
628 1.47671 0.0255658 10.2113 0.25
629 7.29206 10.0529 9.9508 0.25
630 5.5197 7.82741 0.776596 0.25
631 8.46897 1.73739 5.31892 0.25
632 3.45564 3.78794 0.281159 0.25
633 3.63348 4.04825 10.2746 0.25
634 4.47134 7.81964 8.48905 0.5
635 9.27907 6.31132 7.14783 0.25
636 8.77843 5.37925 9.41877 0.25
637 6.15307 9.05809 4.7579 0.25
638 2.30503 10.1472 4.01849 0.5
639 7.41157 3.0708 2.10991 0.25
640 7.42948 1.71209 7.67672 0.25
641 3.41208 6.0655 4.21411 0.25
642 3.8661 7.52787 6.60211 0.25
643 3.27113 1.87173 9.8686 0.25
644 5.88291 9.76523 4.82094 0.5
645 3.56333 3.86665 0.824885 0.25
646 8.44558 7.36425 3.71291 0.25
647 6.47281 6.60985 5.37769 0.25
648 7.06911 1.45009 7.67328 0.25
649 4.69793 6.02574 8.68979 0.25
650 7.27109 1.53807 3.64273 0.25
651 4.77752 8.69756 7.87989 0.25
652 1.02056 5.7696 8.60067 0.25
653 0.836091 4.54515 5.77954 0.25
654 1.47412 6.41194 7.50345 0.25
655 10.2808 3.47842 1.86449 0.25
656 4.49282 4.88469 7.35353 0.25
657 8.34385 9.42588 6.8784 0.25
658 7.57461 3.96498 7.98187 0.25
659 9.16544 0.128394 3.64173 0.25
660 1.88031 5.99603 7.9367 0.5
661 2.65801 7.4566 3.21814 0.25
662 7.65468 9.16665 5.61731 0.25
663 3.76089 0.795105 9.19522 0.25
664 0.402401 2.52407 9.35206 0.25
665 8.13159 6.36955 1.10464 0.25
666 5.53111 9.72081 8.36446 0.25
667 8.44529 3.2334 10.0671 0.25
668 7.11591 1.67484 5.48959 0.25
669 3.3099 7.61024 9.48417 0.5
670 0.493547 3.15962 0.163434 0.25
671 0.778444 6.30016 4.91446 0.5
672 5.63415 6.93441 5.67647 0.25
673 4.42459 8.97785 1.58675 0.25
674 7.10246 4.69859 4.60695 0.25
675 8.11366 8.73537 7.38076 0.25
676 5.81931 2.15871 0.445969 0.5
677 9.39357 3.25293 7.30801 0.25
678 10.1215 0.556139 5.76971 0.5
679 2.22019 2.59528 6.81275 0.25
680 2.79688 7.83981 3.50904 0.25
681 7.98532 9.08079 7.03109 0.25
682 3.34599 7.09884 5.47275 0.25
683 0.65679 2.34271 10.2649 0.25
684 1.33281 9.21929 8.00908 0.25
685 8.93252 9.65939 4.02609 0.25
686 6.56095 9.41995 4.83334 0.25
687 9.75976 2.94556 7.40182 0.25
688 5.18546 7.58389 0.514243 0.25
689 2.23907 2.31038 4.21846 0.25
690 9.86835 7.7128 8.7466 0.25
691 0.746376 8.1916 5.9969 0.25
692 1.15994 4.55592 6.15047 0.25
693 9.69386 2.05511 3.53495 0.25
694 3.27635 3.43777 0.630708 0.25
695 8.25018 1.41357 4.94125 0.25
696 5.16307 1.21682 3.76467 0.25
697 1.2213 8.99514 7.59201 0.25
698 8.76319 5.9498 0.503824 0.25
699 3.54439 7.97721 5.44718 0.25
700 5.30024 8.03208 0.329392 0.25
701 3.20553 4.55504 5.77313 0.25
702 6.28482 3.75935 4.60486 0.25
703 2.26034 0.579965 1.98827 0.25
704 6.9643 4.30238 8.49748 0.25
705 3.81607 5.71435 8.89555 0.25
706 7.47617 1.26597 7.53342 0.25
707 5.95379 7.28453 5.40904 0.25
708 5.2954 6.52614 3.42405 0.25
709 1.73921 4.35243 2.12564 0.5
710 1.19004 4.96731 5.85216 0.25
711 6.96784 4.45904 7.09012 0.25
712 4.44811 8.72487 3.77769 0.25
713 1.54742 4.93478 3.46698 0.25
714 1.98249 9.96957 4.62162 0.25
715 2.75917 3.43951 8.70346 0.25
716 10.0105 9.09786 1.36953 0.25
717 2.74469 4.71053 5.59838 0.25
718 5.94975 3.30387 4.9779 0.5
719 5.77742 2.55214 5.14118 0.25
720 5.64764 1.08136 3.68644 0.25
721 3.32009 7.52799 6.68539 0.25
722 3.73613 5.09836 4.0976 0.25
723 5.87444 6.76987 6.60024 0.25
724 9.43517 0.786375 8.94604 0.25
725 4.24445 0.288493 6.17656 0.25
726 3.51746 5.53638 4.15747 0.25
727 4.02352 5.4448 4.29545 0.25
728 2.46886 7.71375 0.344234 0.5
729 7.85945 1.93886 6.0062 0.25
730 8.01349 1.28649 8.97545 0.25
731 1.3013 5.59505 9.97874 0.25
732 3.9523 7.90082 6.34461 0.25
733 9.80069 2.00593 4.50697 0.25
734 8.14497 7.10979 4.02595 0.25
735 3.37401 2.53096 5.3839 0.25
736 8.65848 6.14423 6.25565 0.25
737 0.937704 4.26499 5.39725 0.25
738 5.04918 8.2909 8.55816 0.25
739 2.97435 3.68502 0.276995 0.25
740 8.68162 6.4621 1.804 0.25
741 6.63494 2.7983 2.34719 0.25
742 5.07234 2.17418 0.523383 0.25
743 9.93839 1.63054 4.20387 0.25
744 2.43262 2.49048 4.83502 0.5
745 0.621251 4.07722 5.75679 0.25
746 6.39913 4.47528 1.56857 0.25
747 7.74929 2.82262 9.39198 0.25
748 7.08524 9.95483 9.4943 0.25
749 6.73571 4.02319 8.1157 0.25
750 4.44186 2.16366 6.50121 0.25
751 1.81273 2.30845 3.92154 0.25
752 9.817 2.08614 4.04219 0.25
753 1.06741 2.67605 9.75485 0.5
754 8.22286 1.67019 5.7803 0.25
755 8.15573 2.84977 10.1045 0.25
756 5.36244 1.7283 1.33943 0.25
757 0.202046 2.07536 4.31928 0.5
758 1.67773 10.2104 4.38106 0.25
759 4.87712 2.70361 8.1834 0.25
760 5.30258 1.23827 2.86882 0.25
761 5.59118 6.72979 6.17093 0.25
762 0.656555 3.85735 6.48558 0.25
763 6.38257 4.49821 4.72484 0.5
764 5.79697 7.13885 3.11402 0.25
765 7.3817 6.85415 8.6874 0.25
766 1.09462 4.98497 3.33862 0.25
767 7.78606 3.12695 2.4269 0.25
768 5.02345 2.40928 5.566 0.5
769 0.701711 3.30085 9.55083 0.25
770 6.31409 7.02413 6.04097 0.5
771 5.34417 7.28067 0.213978 0.25
772 6.96116 9.16283 5.43214 0.5
773 5.9697 4.20361 0.13596 0.25
774 7.18329 8.82954 2.81369 0.25
775 10.2573 8.02461 8.89123 0.25
776 4.22261 9.72705 0.061433 0.25
777 1.08682 8.34805 2.66918 0.25
778 3.32724 0.574136 8.36593 0.25
779 10.2827 7.70446 8.4657 0.25
780 5.19651 4.97783 9.70214 0.25
781 5.76796 6.44979 3.68365 0.25
782 9.31726 6.54771 1.13934 0.25
783 4.83834 8.34123 3.17385 0.25
784 3.13778 3.96116 0.60707 0.25
785 8.59054 8.84309 7.48787 0.25
786 6.18754 6.6746 5.03025 0.25
787 5.72608 6.85855 5.18586 0.25
788 5.38325 1.34171 3.32455 0.25
789 6.25649 5.47139 1.81896 0.25
790 4.95809 2.18805 6.31464 0.25
791 8.22881 5.94276 6.35927 0.25
792 4.50744 4.15867 2.43374 0.5
793 10.1618 0.455766 8.89913 0.25
794 1.84778 1.66781 2.16245 0.25
795 1.46159 9.14105 7.21239 0.25
796 2.15791 10.0389 5.27464 0.5
797 9.87265 9.02642 4.00129 0.25
798 9.29754 4.67977 4.41305 0.25
799 4.09349 6.90831 1.38954 0.5
800 9.71581 1.24387 1.88597 0.25
801 6.01838 0.15044 9.83404 0.25
802 6.12275 7.66957 0.166268 0.25
803 9.31143 4.89734 9.61896 0.25
804 4.19243 5.23665 7.59342 0.25
805 8.74962 4.11741 4.07466 0.25
806 2.35263 9.74472 8.17818 0.25
807 2.92879 4.89504 5.97478 0.25
808 9.10892 5.4601 9.06258 0.25
809 1.77663 5.62532 10.0239 0.25
810 7.49469 1.73423 6.32817 0.25
811 8.90522 4.59413 9.56876 0.25
812 3.79078 6.19484 1.41563 0.25
813 1.57953 3.79632 2.62413 0.25
814 1.13153 10.2896 0.20861 0.25
815 3.57007 5.14677 4.86145 0.5
816 6.52571 0.326827 9.819 0.25
817 3.94563 9.36848 0.647734 0.5
818 8.94307 6.25366 0.163923 0.25
819 3.553 6.00595 1.02542 0.25
820 7.39419 4.6258 8.48203 0.25
821 8.09434 8.55696 6.9094 0.25
822 3.79657 3.85416 3.20062 0.25
823 2.01281 9.226 7.67544 0.5
824 7.42079 4.33286 7.22176 0.25
825 8.07722 9.02327 6.27364 0.5
826 7.38284 3.45727 2.37463 0.25
827 8.94761 6.51768 6.44568 0.25
828 9.78866 3.4481 2.02644 0.25
829 1.00112 7.84424 5.12526 0.25
830 3.98791 5.79407 1.16873 0.25
831 2.58965 7.87614 3.04805 0.25
832 4.0818 5.36027 9.08266 0.25
833 6.34882 6.2476 6.18627 0.25
834 8.41014 3.87003 4.38844 0.25
835 1.5029 0.937357 6.47149 0.25
836 6.69135 5.55552 1.98463 0.25
837 3.77537 7.05106 9.05854 0.25
838 2.56242 9.57457 7.38777 0.25
839 10.3371 2.81609 4.33638 0.25
840 9.5924 4.29772 4.38147 0.25
841 5.84641 4.85261 10.0892 0.5
842 7.24441 6.37117 8.59583 0.25
843 1.15218 9.45123 1.9207 0.25
844 6.63189 5.26433 1.55289 0.25
845 8.35374 4.47384 4.09824 0.25
846 0.504273 5.30826 4.57025 0.25
847 8.16129 3.00663 9.65714 0.25
848 3.48716 1.13137 9.88283 0.5
849 6.27802 5.5988 2.2977 0.25
850 4.08046 8.54713 3.45099 0.25
851 4.21873 6.18219 1.34966 0.25
852 5.40366 0.763281 3.97388 0.25
853 9.5961 10.2842 3.35101 0.25
854 2.81669 2.9941 8.39446 0.25
855 3.31317 6.13142 1.45574 0.25
856 9.6199 3.28587 7.74097 0.25
857 6.37044 3.9058 5.10478 0.25
858 8.57526 7.1424 4.92237 0.25
859 9.48488 0.983257 1.51594 0.25
860 2.94344 10.2186 5.34627 0.25
861 3.94289 8.94218 1.66565 0.25
862 7.45077 1.41313 8.35397 0.5
863 0.479694 2.6925 0.285996 0.25
864 5.20955 3.87967 2.41191 0.25
865 0.29695 7.19123 5.1208 0.25
866 2.89475 1.27829 10.2392 0.25
867 2.76407 8.10225 9.30931 0.25
868 9.14894 1.26735 1.30732 0.25
869 0.654187 8.48437 5.2273 0.25
870 6.88984 6.76991 8.5839 0.25
871 6.92383 3.16166 2.21791 0.25
872 8.17078 1.46823 7.62597 0.5
873 5.28088 9.89133 5.29288 0.25
874 6.58263 8.89395 4.84352 0.25
875 3.11075 7.93909 5.23033 0.25
876 3.93354 6.25525 0.944077 0.25
877 0.548301 2.41574 3.7236 0.25
878 0.155315 0.218301 9.16772 0.25
879 0.696007 7.51339 4.94031 0.25
880 5.52637 3.92347 4.83692 0.25
881 4.11402 6.46997 8.80253 0.5
882 9.67396 0.597236 6.39704 0.25
883 5.38922 2.77066 5.01889 0.25
884 2.60414 1.77379 2.24606 0.5
885 8.94654 10.0103 4.35039 0.25
886 10.0217 8.92978 0.876176 0.25
887 1.28341 6.4499 7.95437 0.25
888 2.08353 0.4944 1.54594 0.25
889 5.00499 5.13488 8.46314 0.25
890 0.876151 3.74471 6.0539 0.25
891 4.9599 3.57828 2.78527 0.25
892 6.69102 8.65757 3.00001 0.25
893 8.16291 2.65226 0.171975 0.25
894 1.83846 8.52803 0.0233382 0.25
895 9.52059 3.74038 7.48905 0.25
896 9.55313 1.20664 1.07808 0.25
897 3.67351 7.94485 6.74049 0.25
898 0.94936 4.95685 5.1285 0.5
899 0.488771 0.385668 6.57658 0.25
900 8.5346 6.88205 3.73236 0.25
901 0.921541 8.13595 5.49805 0.25
902 6.06819 1.78377 1.06636 0.25
903 8.69144 7.85077 4.3474 0.25
904 1.22471 6.19282 10.2971 0.5
905 9.0047 0.912851 1.58146 0.25
906 9.92139 9.95485 4.10224 0.25