ITEM: TIMESTEP
330000
ITEM: NUMBER OF ATOMS
1000
ITEM: BOX BOUNDS xy xz yz pp pp pp
0.0000000000000000e+00 1.0357442000000001e+01 0.0000000000000000e+00
0.0000000000000000e+00 1.0357442000000001e+01 0.0000000000000000e+00
0.0000000000000000e+00 1.0357442000000001e+01 0.0000000000000000e+00
ITEM: ATOMS id x y z radius
1 1.40807 4.29992 2.82155 0.5
2 2.20328 7.43405 2.49997 0.5
3 5.19806 1.48934 0.83953 0.25
4 0.856135 2.17081 3.64161 0.25
5 9.32007 3.62196 7.43344 0.25
6 0.531488 2.9429 9.4699 0.25
7 4.6595 0.456281 3.6989 0.25
8 9.01613 4.04116 2.32637 0.25
9 9.80158 1.39418 1.2776 0.25
10 9.02458 7.36508 3.80561 0.25
11 10.0829 8.2866 1.61443 0.25
12 7.94332 2.98506 9.83377 0.25
13 3.75879 7.4601 6.04763 0.25
14 5.64523 2.13614 10.2958 0.25
15 8.82727 5.78073 6.46968 0.25
16 8.69073 8.63001 6.61774 0.25
17 5.29141 8.99634 8.5927 0.5
18 2.56801 7.89386 9.43384 0.25
19 7.1402 4.51085 5.02219 0.25
20 9.04072 1.40507 0.929701 0.25
21 0.186517 0.0693463 9.84157 0.25
22 4.80783 0.175269 3.32226 0.25
23 4.25574 4.23081 2.65966 0.25
24 2.83097 2.4889 4.16384 0.25
25 7.98802 2.2779 6.30656 0.25
26 5.25262 2.76011 8.28654 0.25
27 1.14181 7.79466 10.1011 0.25
28 9.2693 5.76628 6.52386 0.25
29 4.00346 7.73864 5.75005 0.25
30 1.07845 8.61502 7.72764 0.25
31 0.834178 7.38737 4.64368 0.25
32 9.20859 6.59591 1.02201 0.25
33 9.92224 8.58785 1.92442 0.25
34 1.10493 2.87495 10.1181 0.25
35 7.87229 3.27279 9.44634 0.25
36 8.63091 8.88602 9.6032 0.25
37 3.42934 4.85114 6.46841 0.25
38 7.23824 0.350074 1.2823 0.25
39 5.9554 4.14211 5.16159 0.25
40 8.34337 4.23717 4.87373 0.25
41 8.50002 6.85273 3.29985 0.25
42 6.97131 8.67973 2.15688 0.5
43 0.515586 8.42621 5.61789 0.25
44 3.01273 9.52888 4.53457 0.25
45 7.38959 6.68898 8.22299 0.25
46 0.874851 9.06939 7.65024 0.25
47 4.37124 8.34141 4.07689 0.25
48 3.10662 9.73335 4.14502 0.25
49 4.10079 5.9572 9.30354 0.25
50 10.1513 9.69089 3.41271 0.25
51 9.07728 8.80634 1.11961 0.25
52 6.20827 7.44103 1.00996 0.25
53 6.62721 5.42293 1.68149 0.25
54 4.36675 4.76649 7.83262 0.25
55 5.39037 6.84613 6.5355 0.25
56 4.94051 1.82465 1.16721 0.25
57 5.8742 1.77668 0.253438 0.25
58 5.63948 4.4587 0.534075 0.25
59 3.97143 7.29365 9.40768 0.25
60 7.21493 7.12339 8.10246 0.25
61 3.47172 -0.0049604 8.69439 0.25
62 9.03216 5.92728 6.96312 0.25
63 0.439875 5.28127 4.26841 0.25
64 9.89832 1.17703 1.72749 0.25
65 6.18693 6.99751 6.71524 0.25
66 4.36841 0.431118 3.30371 0.25
67 9.41051 5.29939 9.06232 0.25
68 6.19134 10.1574 0.0471011 0.25
69 2.73115 7.36901 3.04875 0.25
70 4.19908 5.50067 3.7485 0.25
71 1.25567 7.99543 2.5679 0.25
72 5.37478 7.0032 3.48949 0.25
73 8.97659 8.72224 7.3282 0.5
74 2.30919 7.60986 3.19072 0.25
75 0.843563 5.72239 0.683824 0.25
76 2.04784 8.62583 0.141133 0.25
77 6.93319 6.82346 8.36004 0.25
78 3.63901 9.45323 1.5009 0.25
79 1.20413 5.16322 9.56811 0.25
80 8.46591 8.66383 9.98622 0.25
81 8.40489 9.19454 7.39215 0.25
82 1.47421 0.884862 1.97768 0.25
83 1.83454 8.08198 2.17091 0.25
84 5.35646 9.78269 5.90246 0.25
85 3.79733 5.84725 1.50783 0.25
86 9.66845 4.1879 1.50733 0.5
87 1.30654 5.51508 8.37442 0.25
88 2.84404 3.9288 8.1482 0.25
89 0.454792 10.0208 10.0279 0.25
90 6.89462 10.0778 1.54652 0.5
91 4.4196 8.39645 3.61311 0.25
92 9.31344 0.722309 1.33046 0.25
93 8.43429 1.27367 8.55999 0.25
94 0.760567 4.16376 1.82822 0.25
95 7.82441 9.39797 5.40801 0.25
96 7.95787 1.04987 7.23858 0.25
97 5.71976 9.95673 5.70947 0.25
98 9.91795 0.746432 6.08942 0.25
99 5.26726 1.99615 8.16081 0.5
100 5.51455 3.05983 5.51146 0.25
101 5.33663 2.08258 9.58218 0.5
102 4.31351 5.45539 8.25972 0.5
103 7.21554 0.471444 0.765434 0.25
104 1.29079 10.0964 10.2945 0.25
105 1.89011 5.19254 3.06591 0.25
106 5.99965 6.26215 6.26263 0.25
107 5.87073 9.92373 8.68644 0.25
108 1.89007 3.52986 2.08881 0.25
109 7.35959 1.99995 2.92536 0.25
110 5.94479 10.3133 5.96279 0.25
111 2.01804 4.90595 0.482244 0.25
112 3.62969 5.19962 5.52328 0.25
113 2.4195 9.96172 5.19611 0.25
114 8.5211 5.88789 0.00559466 0.25
115 4.54704 3.22359 2.02942 0.25
116 0.155815 2.269 4.64544 0.25
117 7.23035 2.80232 2.88887 0.5
118 7.4474 8.20236 2.45039 0.25
119 10.2566 1.97829 3.47336 0.25
120 1.69418 5.72006 0.449242 0.25
121 8.20028 2.21712 5.50532 0.5
122 1.98991 4.48385 2.41981 0.25
123 9.39296 9.10447 0.81444 0.25
124 8.34448 6.1152 0.441458 0.25
125 1.42654 10.2978 4.51038 0.25
126 6.21464 7.66235 0.550537 0.25
127 6.00862 7.20227 0.580798 0.25
128 9.59446 9.66885 4.42059 0.25
129 1.42255 5.33606 3.2201 0.25
130 9.14948 9.33378 1.21135 0.25
131 6.86083 2.17471 2.98598 0.25
132 8.47851 4.96895 4.46994 0.25
133 8.3677 9.15446 9.96447 0.25
134 3.79932 4.01226 2.78841 0.25
135 6.02387 9.49007 8.09068 0.5
136 8.36447 8.88638 6.98756 0.25
137 1.7294 9.40464 2.16556 0.25
138 7.00407 4.8925 4.78855 0.25
139 6.88419 3.77074 7.64423 0.5
140 4.92115 8.43229 3.47735 0.25
141 2.48107 1.86617 2.29389 0.25
142 3.07018 3.04831 4.82768 0.25
143 7.92771 1.24411 4.11361 0.25
144 10.1595 6.29209 2.03352 0.25
145 3.87626 7.97085 6.21612 0.25
146 6.83884 9.57055 3.15352 0.25
147 4.61411 5.61633 4.04781 0.25
148 2.68012 1.56205 10.1417 0.25
149 9.84809 8.06692 8.79422 0.25
150 4.25244 5.22178 7.60297 0.25
151 6.93598 9.75596 10.1344 0.25
152 3.83758 9.40458 1.03165 0.25
153 5.36326 1.77343 7.50242 0.25
154 5.22026 9.45672 8.02496 0.25
155 3.9463 6.99268 1.72903 0.25
156 0.806052 8.69939 7.33489 0.25
157 5.15084 1.5647 3.13849 0.25
158 8.82341 9.06516 6.3049 0.25
159 3.54671 2.52466 5.38472 0.25
160 2.63135 3.55771 7.95709 0.25
161 3.20795 0.373628 8.50567 0.25
162 4.08275 2.12912 5.86377 0.5
163 6.65037 10.0044 2.3415 0.25
164 5.29818 8.41286 8.04769 0.25
165 0.609354 3.03774 9.93947 0.25
166 6.19196 4.64041 7.12876 0.25
167 9.18878 10.175 3.99615 0.25
168 9.94203 7.47815 9.30379 0.25
169 9.01163 6.65317 7.33678 0.25
170 3.19728 9.93392 8.92602 0.25
171 1.12275 8.75531 6.88444 0.25
172 9.24666 6.29218 7.18385 0.25
173 1.01333 2.6531 3.61447 0.25
174 4.80418 2.00742 6.1276 0.25
175 9.62512 3.61143 7.84406 0.25
176 0.852634 5.55859 0.224656 0.25
177 9.05529 6.31097 7.63272 0.25
178 7.6802 2.48279 5.89392 0.25
179 2.8619 9.43841 7.97136 0.25
180 7.41756 9.33916 2.64265 0.5
181 0.7186 4.21272 5.65398 0.25
182 7.6328 0.945731 3.85463 0.25
183 2.56307 0.284245 4.89731 0.25
184 9.54073 4.95815 9.86214 0.25
185 9.11049 8.78622 6.64317 0.25
186 2.50599 8.12416 9.94722 0.25
187 3.02191 3.81568 9.99218 0.25
188 5.13243 2.66377 7.74199 0.25
189 9.70345 0.28892 5.98972 0.25
190 2.10125 7.42818 3.59256 0.25
191 4.90458 2.52903 8.64726 0.25
192 8.67155 9.49696 6.55722 0.25
193 5.17351 2.25635 8.94094 0.25
194 3.97346 9.00472 1.40872 0.25
195 5.06801 4.99446 9.68772 0.25
196 5.82436 1.74227 10.0669 0.25
197 8.94657 6.50246 6.53772 0.5
198 7.78981 1.80932 7.31104 0.5
199 6.80356 10.1811 9.85254 0.25
200 6.96436 1.53748 6.59112 0.25
201 5.8608 6.61199 6.61584 0.25
202 3.43752 7.77362 5.09831 0.25
203 4.70272 9.82033 0.250291 0.25
204 0.0464903 3.82123 6.15248 0.25
205 3.72514 0.0901767 6.86453 0.25
206 0.612936 2.51761 4.67542 0.25
207 1.1272 5.20936 3.90827 0.5
208 3.62092 4.56153 6.07138 0.25
209 6.86924 9.809 2.6866 0.25
210 3.91478 0.181607 6.41802 0.25
211 1.69157 4.8759 2.37447 0.25
212 0.131295 3.81342 2.02163 0.5
213 8.9917 3.77152 1.52662 0.25
214 3.17159 5.09897 5.67946 0.25
215 10.0652 0.667946 9.13536 0.25
216 5.03104 2.20044 0.422245 0.25
217 0.771644 8.11382 5.30261 0.25
218 2.18589 1.145 2.02586 0.5
219 0.748673 4.31629 6.12219 0.25
220 6.61834 9.33839 1.88012 0.25
221 8.78568 7.65384 4.12372 0.25
222 9.53466 6.06759 6.85241 0.25
223 5.58718 9.50669 5.53075 0.25
224 9.5872 3.63307 7.015 0.25
225 7.62773 1.77552 5.34689 0.25
226 6.34586 9.02832 5.50962 0.25
227 6.94397 0.746234 1.12345 0.25
228 5.61238 1.68619 0.734078 0.25
229 2.0675 2.1838 1.48757 0.25
230 8.14845 7.21324 3.47534 0.25
231 6.77232 4.88895 7.78556 0.25
232 6.87918 9.61248 2.16303 0.25
233 8.04052 1.8455 8.65102 0.5
234 4.66246 9.59733 1.56381 0.25
235 0.899823 9.13767 7.11469 0.25
236 1.25532 5.53151 0.516567 0.25
237 7.99264 0.731828 4.1495 0.25
238 0.961779 5.90015 4.0944 0.25
239 0.148916 2.98736 9.77566 0.25
240 1.54081 8.75082 2.42913 0.5
241 1.60873 9.50035 2.64341 0.25
242 3.50627 8.05327 6.51632 0.25
243 0.863919 6.212 0.76496 0.25
244 1.03226 1.14434 7.43759 0.25
245 5.7161 7.03532 6.82148 0.25
246 1.32496 8.1644 0.0447572 0.25
247 2.92633 7.21824 2.58158 0.25
248 5.64254 2.11553 8.86373 0.25
249 7.16532 4.51336 4.5312 0.25
250 7.47163 1.48968 6.67706 0.25
251 1.6522 1.20086 6.74153 0.25
252 6.68041 6.18911 9.06194 0.25
253 3.70103 7.80541 8.78447 0.25
254 1.28083 9.3273 1.92197 0.25
255 1.24808 0.454617 2.2385 0.25
256 3.68516 5.93675 4.21585 0.25
257 0.938051 10.1015 9.90664 0.25
258 4.75226 5.03555 6.94722 0.25
259 2.06499 9.79542 4.89961 0.25
260 1.31968 9.67579 0.231495 0.25
261 6.91454 7.32138 8.44282 0.25
262 5.20716 6.68729 3.77601 0.25
263 8.35882 8.41935 9.54312 0.25
264 7.67837 9.46967 9.85993 0.5
265 4.67578 3.53119 2.83629 0.25
266 5.14267 3.42338 2.58521 0.25
267 3.61107 7.45613 5.5173 0.25
268 3.41351 7.7323 6.24534 0.25
269 7.67231 9.33816 5.84193 0.25
270 3.30819 7.42152 5.89081 0.25
271 3.93161 9.22835 1.84218 0.25
272 6.4051 7.38588 5.39205 0.25
273 0.225327 3.87165 7.56254 0.25
274 3.16848 4.75068 6.00941 0.25
275 10.2558 6.49616 2.48968 0.25
276 8.33153 0.767604 8.51867 0.25
277 2.84472 10.086 8.26671 0.5
278 4.55508 6.09556 8.62152 0.25
279 3.74989 0.351804 8.582 0.25
280 2.76002 0.369752 8.75912 0.25
281 4.12206 8.75718 3.48071 0.25
282 4.42293 1.25895 3.52761 0.25
283 9.71355 10.343 8.83926 0.25
284 1.65142 5.23215 0.63308 0.25
285 8.81241 6.81713 0.829584 0.25
286 10.1437 1.61469 1.55841 0.25
287 1.89065 7.93275 3.06975 0.25
288 1.22102 5.65688 4.51551 0.25
289 9.21144 1.09733 0.590598 0.25
290 9.37076 3.71561 2.48469 0.25
291 7.78438 3.47488 9.89583 0.25
292 4.14193 9.43623 1.46259 0.25
293 4.73886 2.55375 7.02996 0.5
294 0.235618 6.48892 2.11377 0.25
295 7.19553 1.0929 7.17454 0.5
296 2.93431 2.90288 4.34553 0.25
297 0.972594 7.6967 5.44305 0.25
298 3.83355 9.31553 0.521557 0.25
299 9.07665 4.90157 9.70039 0.25
300 1.81977 0.198883 4.2928 0.25
301 4.59047 8.20535 7.94209 0.25
302 5.0534 5.01806 7.36571 0.25
303 9.10872 5.36643 10.3145 0.5
304 4.12126 3.512 2.0484 0.25
305 1.73947 8.09414 2.59934 0.25
306 9.59439 7.72976 9.04591 0.25
307 0.856781 9.73939 10.2261 0.25
308 8.50019 5.96962 6.88413 0.25
309 8.57 1.53471 8.98069 0.25
310 6.54824 6.99712 6.31516 0.25
311 1.77082 0.218216 1.59399 0.25
312 9.01778 0.931178 8.76292 0.5
313 1.45405 8.13914 2.97791 0.25
314 0.839335 4.13701 2.27179 0.25
315 3.37079 0.636607 9.1926 0.5
316 7.48442 4.21632 6.80896 0.25
317 6.2841 9.60269 8.77719 0.25
318 9.62173 7.76152 9.57242 0.25
319 0.139055 9.97797 3.63792 0.25
320 1.15093 2.48459 0.0516142 0.25
321 2.12848 1.88655 1.94022 0.25
322 0.932284 7.02161 4.92492 0.25
323 6.31772 10.0272 9.28778 0.5
324 7.23209 2.22309 3.33346 0.25
325 9.21424 3.71273 1.97079 0.25
326 2.89915 9.32843 4.04721 0.25
327 1.58306 8.71264 7.68443 0.25
328 4.27495 3.40393 2.49925 0.25
329 8.49463 6.90354 4.0451 0.5
330 9.8069 6.51554 2.39176 0.25
331 9.19856 0.156373 4.33112 0.25
332 6.65927 7.63391 0.314078 0.25
333 0.0512179 7.74934 9.25596 0.25
334 6.81119 5.03366 1.34838 0.25
335 5.61807 4.97106 0.626446 0.25
336 9.25429 3.62494 1.12177 0.25
337 4.77989 5.66556 8.82982 0.25
338 7.68635 8.6994 2.35787 0.25
339 4.10027 6.15524 8.4672 0.25
340 0.743 2.83762 0.0488879 0.25
341 4.14138 5.7302 4.22491 0.25
342 10.1671 3.16337 7.35336 0.25
343 10.0665 2.29641 4.37327 0.25
344 4.17446 0.893029 3.21578 0.25
345 6.38845 4.30442 10.2441 0.25
346 1.45312 1.33137 7.65756 0.25
347 3.36922 3.29376 0.198867 0.25
348 5.77818 7.52963 0.319329 0.25
349 5.04082 1.45343 7.5998 0.25
350 2.23321 3.4232 8.21476 0.25
351 5.1485 7.02487 3.05731 0.25
352 8.39315 6.81142 1.06458 0.25
353 9.76399 3.14864 6.98788 0.25
354 9.71101 3.66533 2.01239 0.25
355 2.68564 1.11822 1.4669 0.25
356 4.26247 10.0599 1.0641 0.25
357 2.98781 4.63549 5.53096 0.25
358 3.94691 9.76647 0.70584 0.25
359 9.083 6.3754 0.342456 0.5
360 3.77147 0.550183 6.61693 0.25
361 9.98792 0.844396 6.6165 0.25
362 10.144 7.75891 9.68851 0.25
363 7.10415 2.16852 2.54625 0.25
364 10.1591 6.77982 2.11969 0.25
365 5.95841 9.21435 5.30205 0.25
366 9.04885 4.16904 1.84422 0.25
367 3.85609 0.0952134 9.48562 0.25
368 9.52804 6.57455 7.54435 0.25
369 9.08343 4.68387 4.21957 0.5
370 5.10508 1.62821 6.81761 0.5
371 9.57279 6.5666 1.67864 0.5
372 1.25347 2.37583 4.30492 0.5
373 3.46872 10.238 9.2228 0.25
374 3.03542 0.0439817 8.95406 0.25
375 4.60167 1.59361 3.18422 0.25
376 0.474009 5.75423 4.04144 0.25
377 9.93774 7.98142 9.31202 0.25
378 9.60097 8.66475 0.985384 0.25
379 0.456095 4.03804 6.4198 0.25
380 1.9569 2.33488 4.40899 0.25
381 7.26747 5.11965 1.93734 0.5
382 2.13582 8.49688 9.97506 0.25
383 5.45016 8.61878 7.63375 0.25
384 1.7954 6.77488 7.44903 0.25
385 0.613897 6.81994 5.18036 0.25
386 1.4091 5.59647 7.56758 0.25
387 1.21884 6.09236 7.47746 0.25
388 2.29971 1.88939 1.14542 0.25
389 4.87144 2.28835 0.88986 0.25
390 2.96537 3.36198 10.2712 0.25
391 4.05048 10.1608 6.72381 0.25
392 0.371653 5.6265 4.5624 0.25
393 8.32515 8.39685 6.94137 0.25
394 0.0350661 0.685488 6.25063 0.25
395 1.92378 4.77202 2.81258 0.25
396 2.61694 0.755131 9.06026 0.25
397 7.72345 2.27228 3.10492 0.25
398 9.65324 4.48852 9.1298 0.25
399 2.37767 9.51718 8.07717 0.25
400 7.53983 2.65467 9.95623 0.25
401 5.13501 6.57194 3.29109 0.25
402 4.29263 5.8446 8.86655 0.25
403 5.92735 4.83928 0.302364 0.25
404 7.93817 2.67384 0.402562 0.25
405 1.33369 5.95678 0.710634 0.25
406 6.36908 9.493 5.35463 0.25
407 6.92492 6.97299 8.82137 0.25
408 9.89777 8.72555 1.4211 0.25
409 10.3253 6.57217 1.67005 0.25
410 5.41398 1.46348 4.44223 0.25
411 7.68799 8.6567 9.88105 0.25
412 4.93874 1.92066 7.49403 0.25
413 7.60865 2.29631 2.59495 0.25
414 7.59567 5.65849 2.30091 0.25
415 4.91355 0.910171 3.11343 0.5
416 9.95158 0.183452 9.23311 0.25
417 3.36969 8.09749 5.70351 0.5
418 0.828782 1.18186 6.71664 0.5
419 9.30113 0.275819 3.83022 0.25
420 5.08021 8.84257 7.88809 0.25
421 9.64134 6.53055 6.65502 0.25
422 2.30894 7.13248 3.21554 0.25
423 1.48199 5.00867 2.81612 0.25
424 0.412737 0.281216 9.46484 0.25
425 2.27154 0.183037 4.46606 0.25
426 2.34574 1.40856 1.28297 0.25
427 7.27661 1.88657 6.81194 0.25
428 7.35759 9.74717 2.04571 0.25
429 5.49612 9.06884 7.85175 0.25
430 9.51024 9.49859 3.94749 0.25
431 6.76876 0.667097 0.657418 0.25
432 2.62924 7.65513 9.84179 0.25
433 3.12817 2.83871 5.2324 0.25
434 5.81384 9.52302 8.86394 0.25
435 0.114863 3.17078 9.33698 0.25
436 6.39448 4.72261 0.276159 0.25
437 1.66073 5.73868 9.86113 0.25
438 7.23994 1.17513 6.41038 0.25
439 9.80233 10.1518 3.89058 0.5
440 2.17044 2.9298 7.67926 0.5
441 1.11799 3.78606 2.40189 0.25
442 6.68044 7.20817 1.07193 0.25
443 9.97041 9.4707 4.23889 0.25
444 1.36146 3.53771 2.03001 0.25
445 5.53152 6.77007 3.07012 0.25
446 8.10098 4.10324 4.42095 0.25
447 6.1068 4.71723 10.2557 0.25
448 4.86536 1.00432 4.10942 0.5
449 9.60059 0.526012 6.41377 0.25
450 2.9204 1.15187 1.96247 0.25
451 3.1681 4.06563 0.485055 0.25
452 5.71844 4.49189 4.56631 0.25
453 7.40641 4.14262 8.09638 0.25
454 1.91079 6.06207 8.5359 0.25
455 1.20377 6.29723 7.90836 0.25
456 2.00974 1.73533 1.51375 0.25
457 9.30155 8.29292 1.54249 0.5
458 1.52986 5.87274 7.11271 0.25
459 1.4325 1.54875 6.41308 0.25
460 1.93582 6.05384 6.98447 0.25
461 3.31072 6.47465 1.26556 0.25
462 3.55203 6.06251 1.06063 0.25
463 1.65654 9.83884 4.63007 0.25
464 9.45942 1.11608 1.53379 0.25
465 7.07373 5.77036 2.24756 0.25
466 4.71034 5.7101 7.29726 0.5
467 3.20666 5.4394 5.32793 0.25
468 2.82752 1.502 2.3266 0.25
469 4.06588 3.87451 2.35086 0.25
470 4.61351 4.03011 2.9738 0.25
471 3.03691 9.9721 4.63253 0.25
472 1.78375 2.23355 7.73156 0.25
473 2.90843 8.08227 9.73414 0.25
474 9.23669 4.47647 2.16708 0.25
475 7.87301 7.2717 4.25453 0.25
476 4.06271 6.13202 1.1929 0.25
477 10.3256 9.59136 3.874 0.25
478 8.59798 6.14196 1.1346 0.5
479 7.23146 10.3338 0.904914 0.25
480 2.53036 7.79445 10.3025 0.25
481 4.35637 9.89897 1.52235 0.25
482 6.55003 9.86402 5.46664 0.25
483 6.88096 0.0172543 0.219896 0.5
484 9.75408 3.41211 7.39978 0.25
485 7.78801 3.08283 0.239452 0.25
486 4.78544 8.60355 3.97546 0.25
487 3.39674 3.45338 10.0333 0.25
488 7.13756 9.33499 1.84755 0.25
489 8.96138 6.92422 4.66824 0.25
490 2.89136 3.17057 7.79139 0.25
491 8.71259 9.09517 6.75227 0.25
492 7.52109 3.02925 9.65756 0.25
493 10.1169 3.61483 7.6419 0.25
494 8.54625 4.70118 4.87534 0.25
495 9.73648 3.88896 7.42628 0.25
496 4.42565 1.6641 6.3617 0.25
497 3.48215 3.65642 0.49875 0.25
498 7.84522 1.28123 9.12057 0.25
499 4.42785 9.14454 1.67934 0.25
500 4.35553 7.38995 9.05057 0.25
501 2.6338 9.81057 4.77776 0.25
502 8.74932 6.22431 7.25509 0.25
503 7.01902 8.22963 2.71778 0.25
504 6.52189 7.23767 0.61839 0.25
505 7.35448 1.85675 6.01358 0.5
506 5.73904 0.0191837 5.50541 0.25
507 7.38194 8.59017 2.80789 0.25
508 5.00817 8.03173 8.05804 0.25
509 1.18969 9.39699 7.41528 0.25
510 5.52141 4.16465 4.88769 0.25
511 4.16659 0.290806 6.83344 0.25
512 1.78656 5.13874 3.56163 0.25
513 2.02192 5.37699 0.305788 0.25
514 3.47665 2.03213 5.39234 0.25
515 2.01648 1.54766 7.3275 0.5
516 6.15783 9.55856 6.04757 0.5
517 8.15597 7.24266 4.64399 0.25
518 2.80314 1.20102 9.15086 0.25
519 2.82199 10.2031 5.00815 0.25
520 5.28075 2.24066 7.43436 0.25
521 0.799925 4.63523 5.36182 0.25
522 2.33358 10.2039 4.82655 0.25
523 2.16479 3.69634 7.73905 0.25
524 7.56993 2.0916 5.00193 0.25
525 2.31812 6.64576 7.50269 0.25
526 1.77727 5.64079 8.40506 0.25
527 6.43351 9.28739 2.6687 0.5
528 6.95771 9.11491 3.1888 0.25
529 4.4699 6.37273 1.33032 0.25
530 1.56829 7.69917 2.32748 0.25
531 0.0917744 2.66107 9.43158 0.25
532 1.46207 7.70877 0.173739 0.25
533 9.14113 9.73469 4.17098 0.25
534 8.48589 4.14595 4.00913 0.25
535 7.13781 6.17012 8.83699 0.25
536 4.23507 9.6135 0.311669 0.25
537 7.72892 0.781016 3.40724 0.25
538 6.58558 4.43912 7.86977 0.25
539 10.3283 3.73095 6.88704 0.5
540 5.93921 0.0511172 8.78638 0.25
541 9.49924 9.00091 1.3144 0.25
542 7.79812 8.92282 5.605 0.25
543 9.48189 4.07487 4.1915 0.25
544 1.51264 2.06105 7.32581 0.25
545 10.1843 10.1777 3.28502 0.25
546 0.459407 0.598559 6.3856 0.25
547 9.41112 3.45811 1.58623 0.25
548 9.38287 4.86646 8.89885 0.25
549 1.73625 0.459852 2.01833 0.25
550 9.95126 8.28993 1.1229 0.25
551 2.64983 7.36623 3.5408 0.25
552 9.11417 9.29145 6.67704 0.25
553 5.13292 3.31241 5.32141 0.25
554 9.00802 3.99073 4.07496 0.25
555 5.86696 8.88616 7.61987 0.25
556 1.39447 9.18185 7.02513 0.25
557 2.51108 9.65097 7.69481 0.25
558 3.0233 3.46668 8.18318 0.25
559 9.61609 0.921538 9.25953 0.25
560 3.4514 4.69125 5.604 0.25
561 0.881141 3.75103 1.96947 0.25
562 4.66435 4.87134 9.97075 0.25
563 5.77396 10.1586 8.37572 0.25
564 1.25059 1.61876 7.31287 0.25
565 2.75891 1.06125 2.48469 0.25
566 9.83294 6.42837 7.11923 0.25
567 0.578253 5.96259 0.356232 0.25
568 7.50294 2.2939 5.4568 0.25
569 6.93751 4.54223 7.13744 0.5
570 3.78266 3.56042 2.58337 0.25
571 5.04656 3.81634 2.90832 0.25
572 8.21409 1.4617 9.32149 0.25
573 0.176359 6.76483 4.89943 0.25
574 0.460539 0.546527 6.87014 0.25
575 5.51062 4.03704 4.41258 0.25
576 5.22924 1.956 0.761398 0.25
577 0.541176 8.12018 4.87724 0.25
578 1.42647 5.12201 10.3133 0.5
579 5.19718 5.30028 6.93765 0.25
580 7.79623 6.99607 3.80611 0.25
581 7.39027 6.92375 9.0371 0.25
582 7.30919 4.96271 5.19692 0.25
583 8.38209 6.01527 6.42454 0.25
584 5.86686 6.99428 3.4212 0.25
585 6.83455 0.262507 0.98649 0.25
586 1.8264 2.27221 4.89036 0.25
587 6.20431 10.1928 5.56363 0.25
588 3.29031 1.05547 9.87072 0.25
589 9.92407 3.43372 1.64557 0.25
590 8.6611 7.36858 4.55449 0.25
591 3.88401 2.2562 5.15396 0.25
592 6.63623 5.65819 2.09292 0.25
593 5.62988 10.0388 6.24402 0.25
594 8.52596 5.60212 9.9286 0.25
595 1.49947 1.80773 7.78834 0.25
596 9.62431 8.9327 1.79504 0.25
597 4.2907 1.27193 2.99877 0.25
598 6.69644 7.64064 0.812259 0.25
599 9.63338 1.56605 1.70304 0.25
600 3.87364 9.51991 2.26202 0.25
601 7.12705 10.0127 2.33248 0.25
602 6.64337 8.08645 2.41445 0.25
603 2.37783 6.22695 7.16915 0.25
604 8.60922 1.26781 1.0545 0.25
605 1.53548 7.67197 2.82271 0.25
606 1.78353 2.05189 6.85903 0.25
607 2.26293 2.16076 7.55213 0.25
608 6.5985 6.41144 5.78414 0.5
609 3.30993 6.04654 1.57077 0.25
610 6.18775 4.71186 0.981438 0.5
611 8.21311 8.67965 7.42817 0.25
612 8.56612 0.349512 3.93319 0.5
613 8.06608 3.28581 10.223 0.25
614 9.66697 6.55463 0.924009 0.25
615 7.43498 3.97269 7.23919 0.25
616 1.46548 1.65636 6.88564 0.25
617 2.64965 3.12258 8.22833 0.25
618 7.52177 2.6793 0.120137 0.25
619 1.21538 9.43444 2.40969 0.25
620 7.67323 5.25778 2.61573 0.25
621 6.67624 4.67285 2.07417 0.25
622 7.49785 6.39753 9.10063 0.25
623 7.80997 4.72793 4.74113 0.5
624 4.85239 8.51445 8.21229 0.25
625 5.20069 2.22636 10.3279 0.25
626 2.52023 2.85147 4.1355 0.25
627 7.19781 5.06697 2.68208 0.25
628 1.54018 10.0772 0.392887 0.25
629 7.25016 10.1058 9.99434 0.25
630 5.7961 7.99041 0.516231 0.25
631 7.9666 1.72835 5.02428 0.25
632 3.23684 3.76939 0.0744725 0.25
633 2.9685 3.57701 0.436215 0.25
634 4.39407 7.91476 8.53369 0.5
635 9.45691 6.77285 7.08688 0.25
636 8.74354 5.23352 9.62543 0.25
637 6.39697 9.18358 5.03028 0.25
638 2.33086 9.80954 4.16348 0.5
639 7.39846 2.41132 2.18644 0.25
640 7.81802 1.55724 7.99852 0.25
641 3.90915 5.9203 3.77465 0.25
642 3.40223 7.301 6.40366 0.25
643 3.02801 1.14784 10.2784 0.25
644 5.9067 9.81292 4.99172 0.5
645 3.12492 4.23482 10.3315 0.25
646 8.02559 7.50768 3.87755 0.25
647 6.63149 7.15197 5.82105 0.25
648 7.34887 1.40354 7.8601 0.25
649 4.62261 6.0194 9.14053 0.25
650 8.12033 0.924473 3.67844 0.25
651 4.94119 8.4501 7.71204 0.25
652 1.43143 6.02744 8.36109 0.25
653 1.00563 4.95486 5.64476 0.25
654 1.55826 6.34779 7.16601 0.25
655 10.205 3.71795 1.31574 0.25
656 4.56481 4.90473 7.34097 0.25
657 8.81972 9.42874 7.07536 0.25
658 7.09105 4.4864 7.83373 0.25
659 8.83793 10.119 4.34057 0.25
660 1.92063 6.07754 7.75069 0.5
661 1.83359 7.41066 3.17939 0.25
662 7.38995 8.936 5.95128 0.25
663 2.70916 0.298961 9.28808 0.25
664 1.27275 2.45738 9.90895 0.25
665 8.46027 6.61625 0.555182 0.25
666 5.46345 9.74279 8.44621 0.25
667 7.51093 2.89985 0.574311 0.25
668 8.15962 2.70317 6.04308 0.25
669 3.3592 7.62034 9.46524 0.5
670 0.263648 2.96981 10.2807 0.25
671 0.730159 6.28329 4.62871 0.5
672 5.98979 6.571 5.42693 0.25
673 3.92997 9.80722 1.24376 0.25
674 6.85646 4.77152 5.29366 0.25
675 7.98276 9.02556 7.64765 0.25
676 5.22723 1.48513 0.0810374 0.5
677 9.72633 2.92981 7.41002 0.25
678 10.2468 0.150587 6.55795 0.5
679 1.9391 2.33073 7.22868 0.25
680 2.55825 6.9325 2.87214 0.25
681 8.32391 9.40729 6.93302 0.25
682 3.71085 8.25582 5.03101 0.25
683 1.00914 2.83256 9.65692 0.25
684 1.57091 8.70503 7.14334 0.25
685 9.07006 10.2319 3.55662 0.25
686 6.52616 10.2234 5.1543 0.25
687 9.9393 3.19317 7.7883 0.25
688 5.3521 7.68155 0.590587 0.25
689 2.34307 2.40928 4.10981 0.25
690 10.309 8.12315 8.96579 0.25
691 0.639957 8.60572 5.16135 0.25
692 1.10949 4.51121 5.76357 0.25
693 9.82064 1.87108 3.67724 0.25
694 3.46578 3.96572 10.055 0.25
695 7.1717 1.97665 5.29364 0.25
696 5.37047 1.28437 3.55964 0.25
697 1.22675 8.95384 7.39187 0.25
698 8.70585 5.73166 0.453565 0.25
699 3.8928 7.82858 5.20673 0.25
700 5.25561 7.42792 0.196936 0.25
701 3.30139 4.93511 5.2081 0.25
702 6.25193 3.81641 4.35903 0.25
703 1.75355 0.742578 1.59389 0.25
704 7.12779 3.81644 8.3375 0.25
705 3.80545 6.0649 8.91477 0.25
706 7.74275 1.13218 7.71447 0.25
707 6.4328 7.16928 4.94861 0.25
708 5.61886 6.56579 3.49451 0.25
709 1.53694 4.22147 1.9167 0.5
710 1.34132 4.73202 5.3986 0.25
711 7.13309 3.9028 6.87513 0.25
712 4.62113 8.877 3.61421 0.25
713 1.58412 4.84923 3.27137 0.25
714 1.92639 10.1748 4.54396 0.25
715 3.00007 3.67542 7.73121 0.25
716 9.14668 9.03971 1.59349 0.25
717 3.10885 5.17267 4.89528 0.25
718 5.73042 3.39216 4.86147 0.5
719 5.24751 2.87344 5.05653 0.25
720 5.51868 1.27193 3.96688 0.25
721 2.97249 7.54347 6.24742 0.25
722 4.25701 5.29195 4.17164 0.25
723 5.56382 6.41653 6.22419 0.25
724 9.56698 0.446196 9.04658 0.25
725 3.4363 0.197027 6.5633 0.25
726 3.78203 5.46181 4.03253 0.25
727 4.49088 5.53892 4.54522 0.25
728 1.86187 7.79841 9.90058 0.5
729 8.05916 1.8206 6.14393 0.25
730 8.27981 1.09984 8.94907 0.25
731 1.89097 5.6768 10.3475 0.25
732 3.75384 7.61686 6.5407 0.25
733 10.0591 2.29822 3.85862 0.25
734 8.48381 7.56926 3.78738 0.25
735 3.3595 2.24609 5.83368 0.25
736 9.19252 5.93562 6.09014 0.25
737 0.626386 4.67079 5.82558 0.25
738 5.08611 8.26977 8.53951 0.25
739 3.69483 3.59732 0.0569896 0.25
740 8.87893 6.77432 1.34103 0.25
741 6.69473 2.42979 2.61192 0.25
742 5.52887 2.08515 0.388113 0.25
743 9.89233 2.69246 4.08358 0.25
744 2.48845 2.60235 4.87012 0.5
745 0.302051 4.21078 5.93258 0.25
746 6.76248 4.61298 1.56643 0.25
747 7.45109 3.52552 9.55857 0.25
748 7.04236 9.8758 9.6361 0.25
749 7.57376 3.83223 7.72424 0.25
750 4.51257 2.03478 6.56531 0.25
751 2.01452 2.7652 4.24179 0.25
752 9.69774 2.18292 4.10589 0.25
753 0.545493 2.32326 9.9205 0.5
754 7.95653 1.58443 5.73862 0.25
755 7.62705 3.08449 10.1677 0.25
756 5.40316 1.76798 1.17385 0.25
757 0.313623 2.5557 3.96884 0.5
758 1.64744 10.0572 4.17266 0.25
759 4.81024 2.58381 8.1269 0.25
760 5.12646 0.447237 3.64113 0.25
761 5.85831 6.35533 5.82131 0.25
762 0.376067 3.54046 6.31564 0.25
763 6.45925 4.53672 4.67651 0.5
764 5.5676 7.27793 3.11077 0.25
765 6.79966 6.50364 8.69957 0.25
766 1.07622 4.93052 3.1538 0.25
767 7.73252 2.68951 2.29686 0.25
768 5.04593 2.56347 5.72432 0.5
769 0.763228 2.35521 0.266314 0.25
770 5.92564 7.05528 6.04857 0.5
771 5.50461 7.19042 0.642436 0.25
772 7.04885 9.25121 5.39632 0.5
773 5.87601 4.32803 10.1339 0.25
774 6.93237 8.76109 2.85084 0.25
775 10.0894 7.68291 8.88886 0.25
776 4.37143 10.02 0.567415 0.25
777 1.35295 8.09169 2.14686 0.25
778 3.8136 0.0967903 8.98131 0.25
779 10.2193 8.00209 8.5088 0.25
780 4.85706 5.30881 10.0066 0.25
781 5.69327 6.91322 3.88298 0.25
782 9.3734 6.13506 1.05391 0.25
783 4.31893 8.79947 3.91244 0.25
784 3.56332 4.08126 0.181283 0.25
785 8.4294 8.93325 7.8316 0.25
786 6.72732 6.99094 5.31127 0.25
787 6.3551 6.69429 5.09712 0.25
788 5.51246 0.79772 3.7299 0.25
789 6.78202 4.88612 2.46552 0.25
790 5.01406 2.26482 6.43533 0.25
791 8.69206 5.9959 6.03547 0.25
792 4.74559 3.91892 2.23886 0.5
793 0.0830749 0.303835 9.05614 0.25
794 2.49477 1.50826 2.66091 0.25
795 1.32571 9.10223 7.81999 0.25
796 1.79059 0.151291 5.10284 0.5
797 9.60348 9.57457 3.47028 0.25
798 9.3411 4.20672 3.76733 0.25
799 3.24214 6.72492 1.98108 0.5
800 9.82369 0.91857 1.29821 0.25
801 5.98852 10.0522 9.94934 0.25
802 6.22789 7.35613 0.159888 0.25
803 9.48828 4.91304 9.36406 0.25
804 4.25693 5.13773 7.04179 0.25
805 9.13186 4.04614 4.53482 0.25
806 2.45062 9.12282 7.89415 0.25
807 2.83199 5.0917 5.31536 0.25
808 9.29267 5.30401 9.58248 0.25
809 1.66928 5.33125 9.66357 0.25
810 7.771 1.87964 6.56407 0.25
811 9.16787 4.56129 9.25689 0.25
812 3.71268 6.30899 1.46826 0.25
813 1.5832 3.61698 2.48027 0.25
814 0.995156 9.98189 0.320122 0.25
815 3.78592 5.41183 4.80236 0.5
816 6.37944 0.0351986 9.9599 0.25
817 4.56093 9.3767 0.894979 0.5
818 8.89913 5.96145 10.0578 0.25
819 4.07544 6.60849 1.32547 0.25
820 6.94159 4.22627 8.20922 0.25
821 7.97196 9.09085 7.13986 0.25
822 4.14384 4.10387 3.15436 0.25
823 1.94116 9.32368 7.44184 0.5
824 6.32696 4.28423 7.47168 0.25
825 8.07393 8.94034 6.37416 0.5
826 7.25868 2.86119 2.13491 0.25
827 9.59833 6.11586 6.33391 0.25
828 9.71067 3.53313 1.17113 0.25
829 0.96541 7.1489 5.41057 0.25
830 4.15191 6.16777 1.63754 0.25
831 2.6277 6.80231 2.40663 0.25
832 3.91895 5.58504 8.94657 0.25
833 6.34963 6.55868 6.44984 0.25
834 8.83186 4.30951 4.84585 0.25
835 1.42141 1.19795 7.14284 0.25
836 6.55631 5.158 2.12629 0.25
837 3.92094 7.36393 8.90966 0.25
838 2.72449 9.26777 7.47103 0.25
839 0.431808 1.92682 3.59739 0.25
840 8.85415 4.17533 3.60079 0.25
841 5.34355 4.80397 10.284 0.5
842 7.0317 6.56103 9.14349 0.25
843 0.869619 9.6116 2.00242 0.25
844 6.45238 4.96954 1.69014 0.25
845 8.63962 4.05756 4.44901 0.25
846 0.780425 5.61061 4.39674 0.25
847 7.29036 3.42848 9.99122 0.25
848 2.56587 0.871173 9.78536 0.5
849 6.80895 5.3991 2.48467 0.25
850 4.81167 8.13147 3.87771 0.25
851 3.69767 6.08699 1.94473 0.25
852 5.23487 1.60117 3.91121 0.25
853 9.37419 10.0762 4.46674 0.25
854 2.6088 3.49078 7.47263 0.25
855 3.6297 6.80641 1.4423 0.25
856 9.39347 3.1988 7.71223 0.25
857 6.33338 3.8027 4.89295 0.25
858 8.95022 6.89069 3.50201 0.25
859 9.42295 1.12099 1.05526 0.25
860 2.48936 0.0764343 5.30112 0.25
861 3.92173 9.74628 1.77952 0.25
862 7.65885 1.01496 8.45365 0.5
863 0.41736 3.42337 9.67663 0.25
864 5.06673 3.14131 2.14532 0.25
865 0.51063 6.97823 4.64635 0.25
866 2.75634 1.56538 9.59864 0.25
867 3.35421 8.19571 9.97112 0.25
868 8.96454 1.11699 1.31032 0.25
869 0.626972 7.96536 5.72448 0.25
870 7.23871 6.60602 8.69219 0.25
871 6.92383 2.46978 2.21335 0.25
872 8.44605 1.19689 7.82694 0.5
873 5.35725 9.95188 5.4429 0.25
874 6.62965 9.69147 4.99367 0.25
875 3.14581 7.46598 5.34728 0.25
876 3.89756 6.52966 1.81641 0.25
877 0.561489 2.04689 4.45997 0.25
878 10.2888 0.410085 9.5243 0.25
879 0.938598 7.8406 4.9309 0.25
880 5.93952 4.19181 4.21277 0.25
881 4.23805 6.64359 9.00565 0.5
882 10.2905 0.947066 5.82971 0.25
883 5.67371 2.71114 5.21067 0.25
884 2.80304 1.8578 1.65938 0.5
885 9.18096 9.78432 3.66657 0.25
886 9.44073 9.44339 1.62015 0.25
887 1.37285 6.60462 7.53709 0.25
888 1.34026 0.43881 1.7594 0.25
889 4.75955 5.05326 7.77283 0.25
890 0.567948 3.85104 5.98977 0.25
891 4.70519 3.21444 2.50844 0.25
892 6.51207 8.45513 2.70683 0.25
893 7.99265 2.75141 10.2321 0.25
894 1.77851 8.10048 0.243031 0.25
895 9.3313 3.18399 7.17595 0.25
896 9.27777 1.52808 1.35909 0.25
897 3.23331 7.69533 6.6761 0.25
898 0.835386 5.1748 4.94967 0.5
899 0.145227 0.919149 6.64265 0.25
900 8.30777 7.56017 4.32161 0.25
901 0.255865 8.29223 5.24471 0.25
902 4.8261 1.79883 0.645465 0.25
903 8.04244 6.71022 3.50813 0.25
904 1.23501 6.09433 0.0412546 0.5
905 8.95473 0.854131 0.936207 0.25
906 9.94494 9.39303 3.75333 0.25