ITEM: TIMESTEP
640000
ITEM: NUMBER OF ATOMS
1000
ITEM: BOX BOUNDS xy xz yz pp pp pp
0.0000000000000000e+00 1.0357442000000001e+01 0.0000000000000000e+00
0.0000000000000000e+00 1.0357442000000001e+01 0.0000000000000000e+00
0.0000000000000000e+00 1.0357442000000001e+01 0.0000000000000000e+00
ITEM: ATOMS id x y z radius
1 1.46133 4.48064 2.74021 0.5
2 2.04713 7.81978 2.61666 0.5
3 5.51597 1.76405 1.01269 0.25
4 0.712583 2.87601 4.20719 0.25
5 9.32392 3.23089 7.30468 0.25
6 0.408103 3.25102 10.0921 0.25
7 4.42571 0.542479 3.55434 0.25
8 8.83149 3.90389 1.33921 0.25
9 9.71965 1.25052 1.68039 0.25
10 8.83868 7.74774 4.26348 0.25
11 9.93991 8.64516 1.03052 0.25
12 7.90386 2.44983 10.0726 0.25
13 3.44814 8.08574 6.20979 0.25
14 5.48311 2.36794 0.0664783 0.25
15 8.74141 5.94949 6.07767 0.25
16 8.71007 8.50162 6.43875 0.25
17 5.33668 8.78727 8.42814 0.5
18 2.80974 8.0376 10.0412 0.25
19 7.16082 4.18457 4.74546 0.25
20 9.19941 0.92863 1.10164 0.25
21 0.287749 0.215845 9.5932 0.25
22 4.56351 0.1129 3.40441 0.25
23 4.85943 3.90073 2.5466 0.25
24 2.80427 2.38027 4.24866 0.25
25 7.21062 1.89708 5.82759 0.25
26 5.46602 2.67899 8.19366 0.25
27 1.8501 8.55397 0.15413 0.25
28 8.92767 6.33148 6.37792 0.25
29 3.40682 8.06887 5.68937 0.25
30 1.30209 8.407 7.51111 0.25
31 0.421551 7.37308 4.84758 0.25
32 9.09692 6.71237 1.32786 0.25
33 10.0583 9.01712 1.27148 0.25
34 0.701107 2.30691 0.00195139 0.25
35 7.69152 2.21675 9.6592 0.25
36 8.0142 8.49581 9.84345 0.25
37 4.12914 5.38594 5.8163 0.25
38 7.14208 0.513666 1.16798 0.25
39 6.41994 3.81201 5.1389 0.25
40 8.49438 4.47461 4.53933 0.25
41 7.88589 7.71346 4.48874 0.25
42 6.59703 8.43096 2.2072 0.5
43 0.0350548 8.35474 5.51646 0.25
44 3.17468 10.2771 4.37435 0.25
45 6.80927 6.69217 9.01224 0.25
46 1.06066 8.76943 7.76945 0.25
47 4.51421 8.52758 3.51659 0.25
48 3.38771 9.8737 4.5887 0.25
49 4.56649 6.09078 9.31937 0.25
50 10.3185 9.72306 3.90658 0.25
51 8.83813 9.06995 1.29738 0.25
52 6.09259 7.7209 10.3072 0.25
53 6.29865 5.37646 1.87339 0.25
54 4.70902 4.86969 8.26758 0.25
55 5.96322 7.32436 6.84961 0.25
56 4.72342 1.8591 1.1978 0.25
57 5.75946 2.3707 0.472498 0.25
58 5.86824 4.34936 0.550158 0.25
59 3.74161 7.99999 9.19684 0.25
60 7.09773 6.34009 9.30713 0.25
61 3.06548 0.0873442 8.87285 0.25
62 9.41909 6.31384 6.55077 0.25
63 0.703423 5.14891 4.38494 0.25
64 9.93298 1.69826 1.70143 0.25
65 6.4839 6.66183 6.70935 0.25
66 4.27722 0.45447 3.14083 0.25
67 9.12186 5.06422 9.00102 0.25
68 5.99361 10.2897 10.1488 0.25
69 2.06244 7.25645 3.11555 0.25
70 3.59619 5.15219 4.08267 0.25
71 1.26898 7.85586 2.56324 0.25
72 5.42676 6.48223 3.5835 0.25
73 9.16786 8.5858 7.0639 0.5
74 2.38865 7.12276 2.72194 0.25
75 1.16616 5.57598 0.727592 0.25
76 1.61611 8.41273 10.0758 0.25
77 7.18316 6.43621 8.81412 0.25
78 4.14943 9.00186 1.44026 0.25
79 1.21463 5.2114 9.86248 0.25
80 8.11649 8.68943 9.35887 0.25
81 8.43595 9.42876 7.2742 0.25
82 1.69634 0.679886 1.98713 0.25
83 1.77293 8.38711 2.32433 0.25
84 5.37116 9.31393 5.52622 0.25
85 4.07707 6.1529 1.07266 0.25
86 9.74476 4.39823 1.83798 0.5
87 1.30292 5.82766 8.5327 0.25
88 2.82453 3.84486 8.01346 0.25
89 0.724459 0.368081 9.87715 0.25
90 6.82899 10.2252 1.48469 0.5
91 4.89965 8.39224 3.25869 0.25
92 9.10966 1.70941 1.40378 0.25
93 8.41422 1.29666 8.24376 0.25
94 1.02273 4.39233 2.0522 0.25
95 7.47074 8.92701 5.86923 0.25
96 7.78212 1.21995 7.10117 0.25
97 5.71152 9.66046 5.42154 0.25
98 10.2138 0.882885 6.02206 0.25
99 5.37208 1.94625 8.25151 0.5
100 5.72954 2.77912 5.41878 0.25
101 5.46554 2.04593 9.68268 0.5
102 4.23573 5.07427 8.77577 0.5
103 6.43784 0.173072 0.855154 0.25
104 0.885423 10.0086 10.1691 0.25
105 2.17349 5.22299 3.20148 0.25
106 5.71856 6.6208 6.36363 0.25
107 5.84916 9.96405 8.58983 0.25
108 1.91386 3.55228 2.24435 0.25
109 7.43969 2.53241 3.011 0.25
110 5.69141 9.99557 5.76679 0.25
111 1.83363 6.06823 0.534794 0.25
112 3.76353 5.32294 6.21915 0.25
113 2.1287 -0.00957992 4.54022 0.25
114 8.66478 6.23327 0.0680817 0.25
115 3.90183 3.59409 3.19438 0.25
116 0.268645 1.78216 3.9874 0.25
117 7.23802 2.23535 2.32328 0.5
118 7.05756 8.04343 2.65297 0.25
119 10.1062 2.74198 4.03753 0.25
120 1.78514 5.71013 0.136434 0.25
121 7.72034 2.16193 5.33694 0.5
122 2.17267 4.41864 2.63993 0.25
123 9.26951 9.09467 0.568009 0.25
124 8.43952 6.21058 0.576464 0.25
125 1.48331 9.98407 4.53961 0.25
126 6.15676 7.35537 0.313368 0.25
127 5.96203 7.81799 0.365952 0.25
128 9.26281 9.49804 3.94936 0.25
129 1.7197 5.49544 3.1923 0.25
130 8.92384 9.33227 0.872054 0.25
131 7.85142 2.46224 2.76024 0.25
132 8.45854 4.21752 5.03426 0.25
133 7.72877 8.83374 9.62341 0.25
134 5.11985 3.60937 2.8872 0.25
135 5.95877 9.44711 7.97085 0.5
136 8.46135 8.97486 7.01302 0.25
137 1.18385 9.6095 1.9361 0.25
138 7.0898 4.45626 4.38084 0.25
139 7.02994 4.69768 7.59372 0.5
140 4.08508 8.52044 3.83972 0.25
141 2.74289 1.296 1.45972 0.25
142 2.87971 2.72137 5.03833 0.25
143 7.55241 1.07954 3.3432 0.25
144 10.3195 6.65319 1.94104 0.25
145 3.1083 7.80485 5.9869 0.25
146 7.02276 9.37333 2.86478 0.25
147 3.87912 5.55157 4.16283 0.25
148 3.16032 1.59929 -0.059373 0.25
149 9.87132 8.04467 9.07589 0.25
150 4.26499 4.76914 8.08513 0.25
151 6.85911 9.93632 9.88146 0.25
152 4.08527 9.34168 1.05808 0.25
153 5.40903 1.65829 7.55599 0.25
154 5.2546 9.45862 8.19887 0.25
155 3.71568 6.6636 1.84327 0.25
156 0.917858 8.70144 7.31779 0.25
157 5.48425 1.25067 3.12486 0.25
158 8.63925 9.36068 6.35884 0.25
159 3.28624 2.87466 5.25613 0.25
160 2.57567 3.41092 7.94027 0.25
161 3.08039 0.12634 9.33384 0.25
162 4.11195 2.12146 5.86878 0.5
163 6.62367 10.0078 2.20035 0.25
164 5.07912 8.20135 8.03719 0.25
165 0.588588 2.45532 9.90566 0.25
166 7.03927 3.90475 6.77566 0.25
167 9.05423 10.2756 3.82248 0.25
168 0.168603 7.66242 8.71126 0.25
169 9.23617 6.63897 7.30069 0.25
170 3.61136 0.236762 8.27329 0.25
171 1.11499 9.01467 7.00886 0.25
172 9.71735 6.12318 6.92182 0.25
173 0.836354 2.8198 4.65164 0.25
174 4.78276 2.01368 6.17377 0.25
175 9.43162 3.67498 7.56939 0.25
176 0.775362 5.6893 0.476523 0.25
177 9.54965 5.88049 7.30536 0.25
178 7.57683 1.37126 5.19568 0.25
179 2.80129 9.64691 7.50739 0.25
180 7.24417 9.08405 2.20832 0.5
181 0.942063 3.99226 5.6757 0.25
182 8.01707 1.25296 3.39634 0.25
183 2.65986 9.60539 4.24013 0.25
184 9.08387 5.34476 9.4021 0.25
185 8.69845 8.86598 6.13727 0.25
186 2.09041 7.51562 10.0609 0.25
187 3.26346 3.67344 0.589904 0.25
188 5.18849 2.57305 7.73044 0.25
189 9.86183 1.14186 6.29785 0.25
190 2.43271 6.94945 3.20159 0.25
191 4.9942 2.49351 9.19702 0.25
192 8.82042 9.29086 7.05072 0.25
193 5.16748 2.12391 8.98095 0.25
194 4.40701 9.41138 1.44646 0.25
195 5.48074 5.30139 9.77804 0.25
196 5.89007 2.18896 0.0388373 0.25
197 8.99938 5.70024 6.80629 0.5
198 7.22326 1.79735 7.13382 0.5
199 6.772 -0.0127905 9.74794 0.25
200 7.27149 0.946529 6.46836 0.25
201 5.96128 6.82216 6.78469 0.25
202 3.40803 7.8867 5.18994 0.25
203 4.47058 9.84127 0.408088 0.25
204 0.204936 3.49888 6.17342 0.25
205 4.00006 -0.0101136 6.55674 0.25
206 0.684552 1.83707 4.29593 0.25
207 1.22327 5.35907 3.81888 0.5
208 4.19897 4.87419 5.6689 0.25
209 6.94907 9.73004 2.50424 0.25
210 4.21719 0.204851 6.16472 0.25
211 2.00966 4.8446 2.4798 0.25
212 0.419819 3.85527 1.93526 0.5
213 9.04111 4.30477 1.56868 0.25
214 3.57036 4.80126 6.20623 0.25
215 10.0657 0.599294 8.81343 0.25
216 4.80837 2.02888 0.407821 0.25
217 0.0612533 7.89032 5.75508 0.25
218 2.28129 1.03067 2.05418 0.5
219 0.818417 4.1023 6.13931 0.25
220 6.63661 9.16135 1.8443 0.25
221 8.93838 7.8011 3.78047 0.25
222 9.0573 6.59075 6.81634 0.25
223 5.66071 9.21825 5.12053 0.25
224 9.7396 3.1574 6.95535 0.25
225 8.14756 1.80595 5.80108 0.25
226 6.58902 8.98242 5.06415 0.25
227 6.63994 0.58086 1.10218 0.25
228 5.45569 2.1825 0.865131 0.25
229 2.89786 1.97856 2.08324 0.25
230 8.16053 7.30632 4.52101 0.25
231 7.79146 3.88634 7.43307 0.25
232 6.89742 9.64114 2.04572 0.25
233 8.13201 1.99804 9.10177 0.5
234 3.74856 9.86615 1.6675 0.25
235 0.94448 9.2029 7.45765 0.25
236 1.67061 5.60983 0.594071 0.25
237 7.8994 0.853321 3.61858 0.25
238 0.98889 6.06093 4.02503 0.25
239 0.66062 2.97177 9.82048 0.25
240 1.22103 8.91667 2.28659 0.5
241 1.5488 9.63982 2.3014 0.25
242 3.05854 7.38042 6.22845 0.25
243 1.22086 6.39481 0.906653 0.25
244 1.35963 1.65066 6.60082 0.25
245 6.33995 7.09018 6.98405 0.25
246 2.03302 8.31147 10.1911 0.25
247 2.24221 7.72269 3.28823 0.25
248 5.71398 2.58442 8.63221 0.25
249 6.76984 4.04507 4.43988 0.25
250 7.46111 1.35826 6.65399 0.25
251 1.13634 1.18393 7.31994 0.25
252 7.38692 6.78816 7.9481 0.25
253 4.02867 7.2074 9.01663 0.25
254 0.730202 9.85346 1.94317 0.25
255 2.04221 0.361823 2.19857 0.25
256 3.2856 5.78033 4.75265 0.25
257 0.560317 10.248 9.8738 0.25
258 4.64309 4.96158 7.32877 0.25
259 1.68928 -0.0125386 4.39324 0.25
260 1.01928 10.1954 0.315491 0.25
261 7.53539 6.40875 9.0967 0.25
262 5.19977 6.74798 3.23155 0.25
263 8.51809 8.61968 9.69464 0.25
264 7.59304 9.58697 9.80279 0.5
265 4.18336 3.3774 2.51323 0.25
266 3.68989 3.62165 2.40638 0.25
267 3.85049 8.16792 5.88567 0.25
268 3.45021 7.6083 6.297 0.25
269 7.80478 9.19712 5.66217 0.25
270 3.91953 7.88735 6.30713 0.25
271 4.20664 9.22058 1.90909 0.25
272 6.80414 6.77367 5.51123 0.25
273 10.3023 4.02059 7.48375 0.25
274 3.90015 4.53172 5.9458 0.25
275 10.1282 6.16602 2.8034 0.25
276 8.3095 0.907619 8.54042 0.25
277 2.99272 10.1546 8.14915 0.5
278 4.4789 6.13883 8.45161 0.25
279 2.76948 0.388345 8.59048 0.25
280 3.48282 0.365054 9.54561 0.25
281 4.80825 8.13174 3.67811 0.25
282 4.66073 1.33541 3.29839 0.25
283 9.42793 0.14536 9.04109 0.25
284 1.97209 5.2666 0.39187 0.25
285 8.61635 6.83263 1.22941 0.25
286 10.2245 1.35111 1.88514 0.25
287 1.44745 8.32189 2.70926 0.25
288 1.25581 5.79794 4.31359 0.25
289 8.98212 0.915212 1.53844 0.25
290 8.65583 4.04691 1.75717 0.25
291 8.01136 2.5737 9.59627 0.25
292 3.98497 9.42824 1.53456 0.25
293 4.81332 2.58377 7.0823 0.5
294 10.2995 6.63752 2.69942 0.25
295 7.05412 0.88687 7.11805 0.5
296 2.79211 2.81545 4.55368 0.25
297 0.302297 8.00775 5.29149 0.25
298 4.53055 9.27893 0.97255 0.25
299 9.3923 5.1391 9.77178 0.25
300 1.70107 9.50502 4.52667 0.25
301 4.61987 8.09257 8.13369 0.25
302 5.1031 5.04057 8.00264 0.25
303 9.04817 5.78919 10.0272 0.5
304 4.38782 3.75578 3.23586 0.25
305 1.3654 8.15368 2.22852 0.25
306 10.2493 8.0938 8.75038 0.25
307 0.840882 0.101082 10.2523 0.25
308 9.25333 6.00814 6.16691 0.25
309 8.21439 1.74598 8.35132 0.25
310 6.55419 6.39004 6.30271 0.25
311 1.35873 0.656002 1.68853 0.25
312 9.02036 1.0407 8.62362 0.5
313 0.965893 7.86821 2.17768 0.25
314 0.798124 4.19475 2.46079 0.25
315 3.10526 0.808977 9.06735 0.5
316 6.7188 4.2967 6.95648 0.25
317 6.29671 9.9496 8.41684 0.25
318 10.3166 7.83354 8.32486 0.25
319 10.2878 10.2236 3.88101 0.25
320 1.53624 2.32414 10.1512 0.25
321 2.89208 1.48051 1.91398 0.25
322 0.63898 6.96348 4.89736 0.25
323 6.41972 10.0225 9.17333 0.5
324 6.83987 1.90563 2.86484 0.25
325 9.15342 3.86142 1.73102 0.25
326 3.09425 10.2309 4.87854 0.25
327 1.72843 8.53593 7.36573 0.25
328 4.24705 3.35435 2.9965 0.25
329 8.27923 7.58508 3.83936 0.5
330 9.77779 6.1099 2.47989 0.25
331 9.43524 10.2431 4.22577 0.25
332 6.68298 7.37037 0.365351 0.25
333 10.2239 7.32157 8.9632 0.25
334 6.49034 5.37228 1.37554 0.25
335 5.88439 4.86592 0.53468 0.25
336 9.32781 4.01639 1.32501 0.25
337 4.64265 5.68083 8.57561 0.25
338 7.32948 8.2948 2.23422 0.25
339 4.12579 5.79479 8.50618 0.25
340 1.05434 2.25935 9.96435 0.25
341 3.82009 5.68703 4.64664 0.25
342 10.238 3.49381 7.47847 0.25
343 10.1505 1.85232 4.12726 0.25
344 4.35351 0.72421 2.74552 0.25
345 6.41771 4.25901 10.3122 0.25
346 1.32111 1.89774 7.45711 0.25
347 3.72149 4.26527 0.23553 0.25
348 5.76341 7.46732 0.556561 0.25
349 4.92962 1.68743 7.65877 0.25
350 2.80031 3.08577 7.67543 0.25
351 5.25829 5.99803 3.6164 0.25
352 8.32623 6.5533 1.51769 0.25
353 10.1343 3.07363 7.20902 0.25
354 9.92381 3.71557 2.13038 0.25
355 1.73826 1.5674 1.93008 0.25
356 3.78027 9.48577 0.731663 0.25
357 3.49036 4.32082 6.01565 0.25
358 4.24715 9.46883 0.578129 0.25
359 8.99143 6.73519 0.597596 0.5
360 4.44534 10.2074 6.42792 0.25
361 0.196664 0.63133 6.35356 0.25
362 10.2739 7.35868 8.43214 0.25
363 7.55604 2.84171 2.60534 0.25
364 9.81102 6.57613 2.62584 0.25
365 6.16969 9.03452 4.94032 0.25
366 9.06842 4.17632 2.0754 0.25
367 3.7464 0.422146 8.73296 0.25
368 9.61967 6.34961 7.39079 0.25
369 9.05017 4.29323 4.04143 0.5
370 5.03113 1.672 6.86024 0.5
371 9.56324 6.51922 1.87911 0.5
372 1.25221 2.3789 4.17633 0.5
373 3.54362 10.2971 8.67712 0.25
374 3.49706 0.212187 9.10429 0.25
375 5.02267 1.36754 2.90462 0.25
376 0.7621 5.6939 4.24909 0.25
377 10.0184 7.70639 8.72497 0.25
378 8.94441 8.83085 0.909196 0.25
379 0.311253 4.04808 6.21044 0.25
380 1.96342 1.98957 4.30427 0.25
381 6.93069 5.76206 1.82942 0.5
382 1.81043 7.89834 10.1176 0.25
383 5.55516 8.34525 7.88403 0.25
384 1.60573 6.61016 7.40256 0.25
385 1.17821 6.90447 4.82729 0.25
386 1.57636 5.4864 7.74819 0.25
387 1.28261 5.89637 7.68039 0.25
388 2.45182 2.14128 2.2798 0.25
389 4.75789 1.63398 0.729326 0.25
390 3.40877 4.17959 0.621283 0.25
391 3.72866 0.201367 6.16885 0.25
392 0.537891 5.50317 4.72225 0.25
393 9.16337 8.80594 6.37368 0.25
394 0.155073 0.44144 5.91125 0.25
395 2.05682 4.78511 2.94833 0.25
396 2.98461 0.411482 9.71342 0.25
397 7.00976 2.31239 3.02927 0.25
398 9.98406 4.87183 9.15367 0.25
399 2.41328 9.86477 7.70382 0.25
400 7.64638 2.80589 10.331 0.25
401 4.96019 6.37749 3.4644 0.25
402 4.36562 5.85355 8.91313 0.25
403 6.37664 4.92759 0.32615 0.25
404 8.34371 3.61476 10.3294 0.25
405 1.46058 5.91293 0.843882 0.25
406 6.50512 9.40674 5.05821 0.25
407 7.54984 6.788 8.71819 0.25
408 9.75447 9.06303 0.909879 0.25
409 10.073 6.8632 2.32986 0.25
410 5.36047 1.38345 4.37176 0.25
411 8.37129 9.44329 9.69917 0.25
412 4.62797 1.95765 7.43451 0.25
413 7.0465 2.73163 2.75026 0.25
414 6.70085 5.89743 2.52835 0.25
415 5.01363 0.651174 3.07927 0.5
416 9.89321 0.273552 9.20348 0.25
417 3.68174 7.40845 5.74312 0.5
418 0.830965 1.03469 6.60378 0.5
419 9.24178 0.295979 3.95568 0.25
420 5.14135 8.65879 7.75328 0.25
421 8.81751 6.38647 7.18651 0.25
422 2.75121 7.47977 2.6521 0.25
423 1.82445 5.15563 2.83653 0.25
424 0.344569 0.103241 9.12786 0.25
425 2.19996 9.53286 4.51478 0.25
426 2.10829 1.73223 2.30702 0.25
427 7.00472 1.36632 6.47367 0.25
428 7.31376 9.6557 1.77075 0.25
429 5.26794 9.1411 7.81435 0.25
430 9.64768 9.25595 3.65208 0.25
431 6.91871 0.29392 0.817058 0.25
432 2.57856 7.57739 10.0859 0.25
433 3.15188 2.38505 5.31503 0.25
434 6.09736 9.51496 8.6869 0.25
435 0.369799 3.30012 9.63774 0.25
436 6.6881 4.53012 0.3121 0.25
437 1.00491 5.59748 9.94655 0.25
438 7.72804 0.949101 6.65868 0.25
439 9.60982 9.99739 3.53914 0.5
440 2.16072 2.75036 7.75136 0.5
441 1.11774 3.95511 2.2524 0.25
442 6.75066 7.79012 0.658788 0.25
443 9.57828 9.73187 4.24489 0.25
444 1.43309 3.63836 2.04528 0.25
445 5.05445 6.35828 3.91781 0.25
446 8.52661 4.74993 4.95445 0.25
447 6.47779 4.80192 10.261 0.25
448 4.79082 1.04834 3.97489 0.5
449 0.0356359 1.0212 6.45431 0.25
450 1.51737 1.09872 1.81432 0.25
451 3.01819 4.03492 10.3128 0.25
452 5.84086 4.26562 4.45018 0.25
453 7.0011 4.60142 8.33625 0.25
454 1.77467 5.21191 8.70556 0.25
455 1.09547 6.12522 8.09414 0.25
456 2.58477 1.65222 2.283 0.25
457 9.38013 8.74197 1.5852 0.5
458 1.73776 5.79569 7.35236 0.25
459 1.41896 0.818147 7.13198 0.25
460 2.22417 5.91609 7.42884 0.25
461 3.49534 6.73811 1.34296 0.25
462 3.86666 6.60449 1.01436 0.25
463 1.73785 10.238 4.87007 0.25
464 9.59825 1.57274 1.30006 0.25
465 6.43569 5.51206 2.34783 0.25
466 4.47138 5.45689 7.87205 0.5
467 3.30446 5.15316 5.94737 0.25
468 1.82246 1.35135 1.46126 0.25
469 4.81049 3.93823 3.0555 0.25
470 4.54676 3.61574 2.27099 0.25
471 3.13288 9.79902 4.13695 0.25
472 2.16694 2.04534 7.47929 0.25
473 2.42641 7.61546 9.62774 0.25
474 8.86723 3.70977 2.11524 0.25
475 8.3183 6.81366 3.82908 0.25
476 4.31719 6.60303 1.25141 0.25
477 9.93753 10.0345 4.2021 0.25
478 8.82785 6.05729 1.28311 0.5
479 6.56929 0.597374 0.628535 0.25
480 2.30802 7.95067 9.9899 0.25
481 3.68546 9.615 1.2376 0.25
482 6.51578 9.8601 5.26231 0.25
483 6.69303 0.0744387 0.145953 0.5
484 9.78596 3.38649 7.40856 0.25
485 8.42912 3.09589 10.2094 0.25
486 4.28663 8.10153 3.66568 0.25
487 3.75693 3.81779 0.468773 0.25
488 6.89754 9.46521 1.61158 0.25
489 8.63405 7.41685 3.14317 0.25
490 2.12057 3.50188 7.95167 0.25
491 8.73294 8.95139 6.60781 0.25
492 7.53486 2.67145 9.81452 0.25
493 9.84541 3.87395 7.42771 0.25
494 8.65058 4.02472 4.62972 0.25
495 9.52678 3.60839 7.09328 0.25
496 4.44743 1.63383 6.30528 0.25
497 3.42796 4.19246 10.1835 0.25
498 8.56861 1.46151 9.05944 0.25
499 4.22264 9.74304 1.85761 0.25
500 3.87169 7.54966 9.43735 0.25
501 2.69383 0.00505624 4.57255 0.25
502 9.67374 5.89765 6.45316 0.25
503 6.79359 8.35786 2.86892 0.25
504 6.44217 7.76039 0.243236 0.25
505 7.56128 1.26471 5.89275 0.5
506 5.56299 10.1038 5.22766 0.25
507 7.23311 8.50804 2.66845 0.25
508 4.96422 8.29152 8.86023 0.25
509 1.34873 9.20158 7.71778 0.25
510 6.02543 4.10125 5.32542 0.25
511 4.03344 10.1359 6.12226 0.25
512 1.91925 5.33247 3.60321 0.25
513 1.88183 5.26922 10.2642 0.25
514 3.54908 2.05084 5.32662 0.25
515 1.80289 1.41132 7.56135 0.5
516 6.16895 9.32402 5.67182 0.5
517 8.54161 7.01687 3.38991 0.25
518 2.71875 0.86227 9.84353 0.25
519 2.72814 10.0893 4.14683 0.25
520 5.18585 2.08372 7.49088 0.25
521 1.20759 4.35764 5.45624 0.25
522 2.44865 9.97898 4.49272 0.25
523 2.74189 3.02924 8.15369 0.25
524 8.44237 2.35764 5.16108 0.25
525 2.11022 6.69932 7.52623 0.25
526 1.37373 5.35977 8.52048 0.25
527 6.34456 9.37693 2.54085 0.5
528 7.34282 8.93602 2.95266 0.25
529 4.70692 6.46875 1.5589 0.25
530 0.988171 8.32122 2.05375 0.25
531 0.807394 3.41618 9.8625 0.25
532 2.33489 8.64658 0.0735771 0.25
533 8.9152 9.78526 3.67673 0.25
534 8.84948 4.80258 4.54706 0.25
535 6.9817 7.02674 8.17189 0.25
536 4.72469 9.50843 0.627402 0.25
537 8.10024 1.63196 3.74948 0.25
538 7.62051 4.21884 7.79487 0.25
539 10.2633 3.66133 6.81803 0.5
540 5.91576 10.2066 8.13574 0.25
541 9.30043 9.08957 1.02985 0.25
542 7.2731 9.12933 6.22373 0.25
543 9.10068 4.93799 3.76059 0.25
544 2.03196 1.97107 7.00154 0.25
545 10.3575 9.93117 3.46855 0.25
546 0.285303 0.09362 6.25225 0.25
547 9.60374 3.6747 1.72582 0.25
548 9.52795 4.7254 9.06288 0.25
549 1.85574 0.387572 1.70463 0.25
550 9.42503 8.66964 0.889159 0.25
551 2.40212 7.32128 3.53504 0.25
552 9.15238 9.27044 6.64738 0.25
553 5.6161 3.13621 5.77987 0.25
554 8.73452 4.94824 4.10405 0.25
555 5.59258 8.80718 7.69187 0.25
556 1.41083 9.31942 7.22758 0.25
557 2.78286 10.0987 7.41666 0.25
558 2.40911 3.88067 7.78011 0.25
559 9.77469 1.05083 8.81055 0.25
560 3.77973 5.04368 5.84494 0.25
561 1.15641 3.97358 1.75749 0.25
562 5.542 4.96054 9.37739 0.25
563 5.49947 9.91837 8.25263 0.25
564 1.55364 1.80986 7.01866 0.25
565 1.83721 0.853965 1.53094 0.25
566 9.57896 6.61926 6.92865 0.25
567 0.964786 5.99754 0.837244 0.25
568 8.06205 1.51143 5.37852 0.25
569 6.99771 3.85857 7.48771 0.5
570 4.74364 3.39026 3.17968 0.25
571 4.05402 3.66292 2.10224 0.25
572 8.64541 1.64071 8.61071 0.25
573 0.952848 6.83693 5.25997 0.25
574 0.406313 0.33641 6.68398 0.25
575 5.98216 3.76406 4.44608 0.25
576 5.03563 2.02577 0.859781 0.25
577 0.697397 7.80111 4.98652 0.25
578 1.25261 5.13033 0.17261 0.5
579 5.02901 5.15693 7.53013 0.25
580 8.03618 6.89997 4.19826 0.25
581 7.45571 7.26843 8.81192 0.25
582 7.20913 4.42306 5.17312 0.25
583 9.02505 5.55411 6.02672 0.25
584 5.42151 6.7368 3.98106 0.25
585 6.98159 0.833831 0.793093 0.25
586 1.75534 2.22161 4.73532 0.25
587 6.01981 10.0148 5.36259 0.25
588 3.13319 1.53516 9.37902 0.25
589 10.1081 3.70987 1.67006 0.25
590 8.87586 7.37076 3.54003 0.25
591 3.92767 2.20224 5.14716 0.25
592 6.84498 5.45216 2.60146 0.25
593 5.50541 9.574 5.9172 0.25
594 8.99136 6.51521 10.2025 0.25
595 1.69805 2.1567 7.33335 0.25
596 9.67891 9.37014 1.27072 0.25
597 4.53495 1.21335 2.85905 0.25
598 6.47306 7.41842 10.2722 0.25
599 10.0435 1.30009 1.39265 0.25
600 3.75253 9.0506 1.77432 0.25
601 7.14508 10.0279 2.10515 0.25
602 6.33872 8.23735 2.88652 0.25
603 2.41438 6.33647 7.46745 0.25
604 8.92282 1.14869 0.719504 0.25
605 1.50886 7.69263 2.13179 0.25
606 1.86522 1.50741 6.82758 0.25
607 1.74616 2.04642 7.77277 0.25
608 5.94662 6.1634 5.83072 0.5
609 3.5652 6.26482 1.12284 0.25
610 6.43874 4.70641 1.02332 0.5
611 8.47239 8.62381 7.40357 0.25
612 8.48867 0.439467 3.77588 0.5
613 8.37924 2.62495 9.97371 0.25
614 9.52607 6.90979 1.19329 0.25
615 6.41791 4.34069 7.31466 0.25
616 1.45882 1.28608 6.9193 0.25
617 2.36423 3.46067 7.50747 0.25
618 7.95105 3.23185 10.3676 0.25
619 1.02548 9.69171 2.3778 0.25
620 6.46737 5.6206 2.83946 0.25
621 6.9911 4.67041 1.55642 0.25
622 7.05313 7.43719 8.52259 0.25
623 7.81516 4.39413 4.63497 0.5
624 4.69829 8.44447 8.48456 0.25
625 5.02682 2.20202 0.0416672 0.25
626 2.41972 2.68114 4.29073 0.25
627 7.18202 5.76258 2.53688 0.25
628 1.2522 9.81072 0.0665656 0.25
629 7.24199 10.2821 9.97607 0.25
630 5.76607 7.05128 0.214861 0.25
631 8.3632 2.27186 5.63736 0.25
632 3.37027 3.91096 0.209893 0.25
633 3.23007 4.4092 0.244938 0.25
634 4.38602 7.85034 8.88596 0.5
635 9.30927 6.24115 7.05424 0.25
636 8.87744 5.11542 9.77081 0.25
637 6.56204 9.22847 4.58616 0.25
638 2.39476 9.98156 5.17101 0.5
639 7.12391 2.99625 2.36812 0.25
640 7.46122 1.7267 7.8219 0.25
641 3.56621 5.92939 4.31953 0.25
642 3.58721 7.88675 6.65885 0.25
643 3.49214 1.82661 10.0855 0.25
644 5.99064 9.74996 4.70068 0.5
645 3.00922 3.5721 0.141617 0.25
646 8.53768 6.99303 4.21245 0.25
647 6.65337 6.42033 5.81607 0.25
648 7.10458 1.39828 7.77009 0.25
649 4.74951 6.14367 8.87353 0.25
650 7.69783 1.29464 3.75356 0.25
651 4.72282 8.56175 7.99416 0.25
652 1.77254 5.67779 8.56558 0.25
653 0.88181 4.50458 5.74243 0.25
654 1.44162 6.14805 7.26854 0.25
655 10.2654 4.12283 1.32759 0.25
656 4.7074 4.77418 7.78106 0.25
657 8.43187 9.40954 6.7798 0.25
658 7.27244 4.20474 8.12424 0.25
659 8.95194 10.3746 4.27851 0.25
660 1.8581 6.14599 7.95323 0.5
661 2.51564 7.41046 3.0532 0.25
662 7.58625 9.38587 5.98485 0.25
663 3.81683 0.570938 9.23473 0.25
664 1.18271 2.1729 0.103815 0.25
665 8.305 6.47218 0.998672 0.25
666 5.5707 9.53361 8.59422 0.25
667 8.06304 3.35602 9.93048 0.25
668 7.1519 1.65204 5.34928 0.25
669 3.1548 7.59589 9.5322 0.5
670 0.526451 2.75691 9.4473 0.25
671 0.922626 6.19701 4.78664 0.5
672 5.88425 6.83235 5.53924 0.25
673 3.66979 9.11914 1.31325 0.25
674 7.19358 4.70796 4.77993 0.25
675 8.20717 9.08187 7.48455 0.25
676 5.45448 1.67203 0.321142 0.5
677 10.0397 3.16196 7.72329 0.25
678 9.97385 0.393347 6.52856 0.5
679 2.22296 2.01847 7.9309 0.25
680 2.7178 7.68772 3.4533 0.25
681 8.01122 9.29363 7.09721 0.25
682 3.81786 8.07396 5.39247 0.25
683 0.444333 2.7276 10.2319 0.25
684 1.6047 8.91205 6.99767 0.25
685 9.14059 0.170956 3.42479 0.25
686 6.74878 9.69955 4.83094 0.25
687 9.86345 3.58905 7.85989 0.25
688 5.36482 7.26094 0.359191 0.25
689 2.3553 2.2214 4.1125 0.25
690 9.84624 7.53137 9.1573 0.25
691 0.480667 8.16051 5.73334 0.25
692 1.2704 4.27502 5.94687 0.25
693 9.66073 2.63484 3.82168 0.25
694 3.49518 3.47254 0.183267 0.25
695 8.46228 1.90276 5.36718 0.25
696 5.40938 1.03713 3.55872 0.25
697 1.39106 8.88051 7.40019 0.25
698 8.87842 5.96982 0.478036 0.25
699 3.08884 7.76709 5.4774 0.25
700 5.31763 7.48976 0.830684 0.25
701 3.48026 4.71476 5.72998 0.25
702 6.32354 4.10636 4.3305 0.25
703 1.30085 0.805467 2.19645 0.25
704 6.53633 4.65069 8.20834 0.25
705 3.88928 5.72718 8.95209 0.25
706 7.5517 1.30739 7.59624 0.25
707 6.5573 6.65812 5.07433 0.25
708 5.03834 6.8158 3.66841 0.25
709 1.78644 4.29489 1.91316 0.5
710 1.32614 4.74752 5.76954 0.25
711 7.19196 4.30311 6.95952 0.25
712 4.49836 8.12022 3.20163 0.25
713 1.76519 4.98135 3.29346 0.25
714 1.92656 9.92381 4.58722 0.25
715 2.39267 3.7397 8.25146 0.25
716 9.1904 9.46094 1.29053 0.25
717 3.05828 4.8533 5.57625 0.25
718 5.82346 3.46514 5.12677 0.5
719 5.444 2.81709 4.99577 0.25
720 5.54501 0.989586 4.03098 0.25
721 3.77858 7.41923 6.52415 0.25
722 3.46808 4.95127 4.47964 0.25
723 5.65188 7.11537 6.5083 0.25
724 9.57457 0.598301 8.94201 0.25
725 4.39223 0.342763 6.62141 0.25
726 3.44869 5.42833 4.4736 0.25
727 3.87863 5.19492 4.49607 0.25
728 2.30213 7.94995 0.344818 0.5
729 7.67608 1.95306 6.02063 0.25
730 8.30087 1.34102 8.69844 0.25
731 1.55547 5.60693 10.0313 0.25
732 3.08612 7.81557 6.52293 0.25
733 9.74922 2.62976 4.36355 0.25
734 8.95108 7.32936 4.06445 0.25
735 3.66639 2.52956 5.40373 0.25
736 8.46312 6.04951 6.42567 0.25
737 0.763097 4.29178 5.31293 0.25
738 5.02533 8.04314 8.47266 0.25
739 3.77679 3.82586 10.3065 0.25
740 8.82254 6.63968 1.71737 0.25
741 7.9003 2.64132 2.28531 0.25
742 5.22924 2.34664 0.500009 0.25
743 9.8601 2.12084 4.57652 0.25
744 2.4801 2.14738 4.86095 0.5
745 0.477701 4.19236 5.73579 0.25
746 6.94163 5.14494 1.33184 0.25
747 7.62103 2.60951 9.34283 0.25
748 7.13787 10.0978 9.49907 0.25
749 6.44136 4.28007 7.77617 0.25
750 4.50974 2.0881 6.53103 0.25
751 1.99665 2.55961 3.97595 0.25
752 9.86589 2.26301 4.1127 0.25
753 1.07952 2.9249 10.3218 0.5
754 8.0444 2.2668 6.00624 0.25
755 7.9873 2.89674 9.95582 0.25
756 5.22583 2.01965 1.31464 0.25
757 0.205295 2.37741 4.50359 0.5
758 1.64513 9.72756 4.95127 0.25
759 4.99314 2.52426 8.21653 0.25
760 4.89527 0.379257 3.74927 0.25
761 5.6453 6.95434 5.96833 0.25
762 0.622382 3.7128 6.42478 0.25
763 6.47017 4.56247 4.87825 0.5
764 5.53686 6.21585 3.9893 0.25
765 7.22471 6.65068 8.34465 0.25
766 1.35549 5.1523 3.09118 0.25
767 6.67289 2.72563 2.36507 0.25
768 5.14359 2.45746 5.7276 0.5
769 1.43685 2.54751 9.69996 0.25
770 6.35209 7.07503 6.18845 0.5
771 5.38437 7.80362 0.377412 0.25
772 7.06441 9.39857 5.50853 0.5
773 5.99318 4.10964 0.153912 0.25
774 6.84289 8.89388 2.81573 0.25
775 10.2869 7.79085 9.16927 0.25
776 3.99817 9.8686 0.432965 0.25
777 0.976532 8.23325 2.53101 0.25
778 3.28625 0.331531 8.58414 0.25
779 9.94316 7.85957 9.54634 0.25
780 5.2078 4.84347 9.69046 0.25
781 5.50712 6.97617 3.5647 0.25
782 9.42515 6.46099 1.08018 0.25
783 4.53634 8.41136 4.00983 0.25
784 3.29536 3.7042 10.1104 0.25
785 8.68029 9.06692 7.47321 0.25
786 6.53719 6.29813 5.37157 0.25
787 6.07001 6.51017 5.22092 0.25
788 5.35068 0.576657 3.7455 0.25
789 7.11223 5.11366 1.81906 0.25
790 5.03567 2.29205 6.44243 0.25
791 8.54318 5.54205 6.24147 0.25
792 4.16047 4.10954 2.68639 0.5
793 10.2427 0.135466 8.81902 0.25
794 2.23816 1.13695 1.29948 0.25
795 1.55059 8.72806 7.78587 0.25
796 2.00617 9.86629 3.903 0.5
797 10.0814 9.50353 3.54831 0.25
798 9.19371 4.99731 4.24532 0.25
799 3.24902 6.08721 1.73197 0.5
800 9.42582 1.66431 1.76221 0.25
801 5.89997 10.1242 9.70356 0.25
802 6.30094 7.57672 0.68967 0.25
803 9.55859 5.16672 9.28712 0.25
804 4.2653 4.75126 7.60799 0.25
805 8.63479 4.78752 3.64345 0.25
806 2.64832 9.48 7.97032 0.25
807 3.1052 4.70304 6.08123 0.25
808 8.73593 4.9914 9.29652 0.25
809 1.69043 5.14681 9.83877 0.25
810 7.26312 1.74893 6.34856 0.25
811 9.68662 4.75559 9.52859 0.25
812 3.8792 6.41257 1.43678 0.25
813 1.54154 3.81795 2.47933 0.25
814 1.29096 10.2726 10.2751 0.25
815 3.67245 5.19624 5.18851 0.5
816 6.29294 0.124585 9.77346 0.25
817 4.29523 10.0004 1.07563 0.5
818 9.18456 6.23285 0.147301 0.25
819 4.23075 6.55827 1.71336 0.25
820 6.78919 5.07491 8.26867 0.25
821 8.03335 8.77789 7.11633 0.25
822 4.97011 3.42017 2.42393 0.25
823 2.08341 9.20523 7.53857 0.5
824 7.60822 4.32013 7.27834 0.25
825 8.00897 8.95173 6.42974 0.5
826 7.0116 2.83377 1.95837 0.25
827 8.61118 6.40212 6.76387 0.25
828 9.82998 3.87536 1.33224 0.25
829 1.12507 7.6586 5.26455 0.25
830 4.32645 6.13668 1.51359 0.25
831 2.66849 7.89672 2.99648 0.25
832 4.19214 5.68695 9.3182 0.25
833 6.09683 6.41778 6.51304 0.25
834 8.3278 4.09554 4.21979 0.25
835 1.14888 1.59309 7.06139 0.25
836 6.76182 5.14604 2.17835 0.25
837 3.61691 7.11226 9.2799 0.25
838 2.43184 9.79393 7.19205 0.25
839 0.23763 2.90315 3.95716 0.25
840 9.56357 4.89795 3.95092 0.25
841 5.73744 4.76835 10.203 0.5
842 7.44418 7.09436 8.36559 0.25
843 0.720339 9.44767 2.09537 0.25
844 6.65292 5.02314 1.69191 0.25
845 8.36782 4.60855 4.05481 0.25
846 1.02783 5.45054 4.59418 0.25
847 7.8016 3.04137 9.54434 0.25
848 3.44678 1.02082 9.88071 0.5
849 7.23819 5.24375 2.31695 0.25
850 4.07611 8.35285 3.33091 0.25
851 3.88705 5.94132 1.43895 0.25
852 5.39086 1.47352 3.84645 0.25
853 9.08384 9.91171 4.13275 0.25
854 2.38354 3.24198 8.31334 0.25
855 3.93685 6.8774 1.45809 0.25
856 9.48129 3.22205 7.74558 0.25
857 6.46693 3.76995 4.67102 0.25
858 8.3718 7.76001 4.5705 0.25
859 9.27769 1.26245 1.48141 0.25
860 2.75954 9.72864 3.76262 0.25
861 3.48669 9.45236 1.62932 0.25
862 7.63799 1.28779 8.39846 0.5
863 0.208759 2.83804 9.80581 0.25
864 3.53884 3.78436 2.8616 0.25
865 0.44639 6.67285 5.25381 0.25
866 2.75368 1.31695 10.0659 0.25
867 2.55407 7.77189 9.16664 0.25
868 9.24026 1.40269 0.982237 0.25
869 0.591554 8.32148 4.9565 0.25
870 7.05029 6.98467 8.66704 0.25
871 7.5044 2.85533 2.06126 0.25
872 8.17045 1.64616 7.60555 0.5
873 5.31861 9.5997 5.06986 0.25
874 6.97625 9.27842 4.8432 0.25
875 3.19022 7.43483 5.11132 0.25
876 3.96627 6.17739 1.89928 0.25
877 0.638488 2.09836 3.90844 0.25
878 10.3828 0.446333 9.18474 0.25
879 0.924811 7.30364 4.93829 0.25
880 5.77407 4.30274 4.96091 0.25
881 4.01038 6.45795 8.95302 0.5
882 10.0505 0.46396 5.76504 0.25
883 5.30921 3.06373 5.37185 0.25
884 2.31644 1.88248 1.59171 0.5
885 8.81124 10.1634 3.43437 0.25
886 9.42046 9.48066 0.834132 0.25
887 1.1937 6.39119 7.65234 0.25
888 1.71065 0.61538 2.48069 0.25
889 4.93625 5.28324 8.46408 0.25
890 0.598687 3.68614 5.90959 0.25
891 3.78781 3.37676 2.80656 0.25
892 6.36574 8.68127 2.88747 0.25
893 8.12493 2.75369 0.0627786 0.25
894 2.0496 8.69441 9.97579 0.25
895 9.66973 2.91922 7.40951 0.25
896 9.6042 1.11187 1.16113 0.25
897 3.28148 7.43142 6.72238 0.25
898 0.874612 4.98123 5.11097 0.5
899 0.191873 0.717686 6.90256 0.25
900 8.80303 6.89596 3.79964 0.25
901 0.805364 8.05944 5.39234 0.25
902 5.12332 1.54654 1.01856 0.25
903 7.68673 7.25306 4.31437 0.25
904 1.2005 6.14893 0.162165 0.5
905 8.83723 1.26595 1.22589 0.25
906 9.92707 9.49035 4.01437 0.25