ITEM: TIMESTEP
850000
ITEM: NUMBER OF ATOMS
1000
ITEM: BOX BOUNDS xy xz yz pp pp pp
0.0000000000000000e+00 1.0357442000000001e+01 0.0000000000000000e+00
0.0000000000000000e+00 1.0357442000000001e+01 0.0000000000000000e+00
0.0000000000000000e+00 1.0357442000000001e+01 0.0000000000000000e+00
ITEM: ATOMS id x y z radius
1 1.54932 4.29779 3.01139 0.5
2 1.99624 7.74917 2.65714 0.5
3 4.96108 2.38325 0.852203 0.25
4 0.53158 2.70719 4.55352 0.25
5 9.38004 2.95277 6.74847 0.25
6 0.831102 2.64958 10.2437 0.25
7 4.58297 0.910242 2.76045 0.25
8 9.21534 4.59177 1.96306 0.25
9 9.77612 1.40828 1.68608 0.25
10 8.70175 7.88412 4.28661 0.25
11 10.1641 8.67377 1.67004 0.25
12 7.77703 2.4898 9.87949 0.25
13 3.30293 7.32017 6.00061 0.25
14 5.59999 1.90083 10.2914 0.25
15 8.493 6.14858 6.20283 0.25
16 8.76672 8.45472 6.63001 0.25
17 5.33633 9.25828 8.51648 0.5
18 2.38329 7.88859 9.4903 0.25
19 7.1546 4.41917 4.68985 0.25
20 9.08357 0.948017 1.46762 0.25
21 0.569526 10.2042 9.51508 0.25
22 4.54859 1.35727 2.84435 0.25
23 4.66708 4.21848 3.11789 0.25
24 2.6829 2.66663 4.012 0.25
25 7.1314 1.7836 5.70939 0.25
26 5.36981 2.70834 8.20841 0.25
27 1.83074 8.39975 10.0846 0.25
28 8.68145 6.3861 6.59109 0.25
29 3.41383 7.48972 5.51283 0.25
30 1.01308 8.6256 7.93487 0.25
31 0.575636 7.10322 4.83797 0.25
32 9.03127 6.73966 1.10197 0.25
33 10.1625 8.57438 1.13968 0.25
34 0.530994 3.28207 9.90002 0.25
35 7.73981 2.79356 9.41057 0.25
36 8.66142 8.98014 10.0453 0.25
37 4.47731 4.72937 5.75666 0.25
38 7.40436 0.399051 0.959177 0.25
39 5.63083 3.93078 5.03776 0.25
40 8.63933 4.51863 4.44707 0.25
41 7.91019 7.59737 4.27102 0.25
42 6.20232 8.58255 2.38793 0.5
43 0.423699 8.41726 6.02919 0.25
44 2.7011 10.2352 5.3727 0.25
45 7.41915 6.66209 8.18391 0.25
46 0.850957 9.03895 7.69099 0.25
47 4.40069 8.36072 3.34595 0.25
48 2.45432 9.89063 5.58544 0.25
49 4.35971 6.0569 9.34922 0.25
50 10.2071 9.95941 3.65965 0.25
51 9.18669 9.31254 1.29755 0.25
52 5.88775 8.04096 0.660899 0.25
53 6.98762 5.43836 1.77267 0.25
54 4.74259 4.82945 8.39169 0.25
55 5.92609 7.47179 6.63413 0.25
56 5.11341 1.62361 1.13869 0.25
57 5.18135 2.09673 10.286 0.25
58 6.18809 4.1658 0.537732 0.25
59 4.24141 7.87879 9.17011 0.25
60 6.94365 6.65812 7.92092 0.25
61 3.28479 0.0547829 8.89763 0.25
62 9.16908 6.57595 6.6004 0.25
63 0.608414 5.59611 4.71241 0.25
64 10.2908 1.32848 1.6436 0.25
65 6.45381 6.79031 6.69404 0.25
66 4.15747 1.10748 2.73945 0.25
67 9.11797 4.73344 9.01642 0.25
68 6.47655 0.1711 0.211941 0.25
69 2.62623 7.67839 3.013 0.25
70 3.687 5.1217 4.10806 0.25
71 1.0789 8.35157 2.63074 0.25
72 5.33625 6.63322 3.634 0.25
73 9.17013 8.57134 7.32003 0.5
74 2.29267 7.79884 3.34335 0.25
75 1.12613 5.9507 0.908466 0.25
76 1.88875 8.00706 0.0609712 0.25
77 7.02455 6.57024 8.42028 0.25
78 4.65614 9.09833 1.29371 0.25
79 0.88424 5.29827 9.92705 0.25
80 8.36202 8.57744 10.0427 0.25
81 8.49089 9.39295 7.60214 0.25
82 1.757 0.55007 2.25839 0.25
83 1.93095 8.41298 2.43163 0.25
84 5.2275 9.31159 5.5457 0.25
85 3.95075 6.24419 0.996004 0.25
86 9.72596 3.71125 2.10702 0.5
87 1.21698 5.34786 8.61016 0.25
88 3.17912 3.60151 8.33422 0.25
89 0.466852 10.3244 9.99519 0.25
90 7.15665 10.2145 1.85474 0.5
91 4.44174 7.86564 3.47193 0.25
92 9.73756 1.0748 0.989271 0.25
93 8.45533 1.18713 8.09931 0.25
94 0.929279 3.97851 2.57226 0.25
95 7.46498 8.75715 6.21742 0.25
96 7.68073 1.22018 6.93511 0.25
97 5.55138 9.58518 5.38099 0.25
98 10.2174 0.55444 6.5989 0.25
99 5.14199 1.96486 8.06842 0.5
100 5.41711 2.81616 5.57764 0.25
101 5.29987 2.15463 9.57343 0.5
102 4.21653 5.33211 8.51905 0.5
103 7.70003 0.153019 1.36874 0.25
104 1.25261 10.0272 10.0247 0.25
105 2.09123 4.75489 3.32557 0.25
106 5.7035 6.69967 6.40967 0.25
107 5.96324 10.2698 8.61592 0.25
108 1.90719 4.10832 1.91541 0.25
109 7.52551 2.83418 2.85969 0.25
110 5.53788 10.0712 5.52495 0.25
111 1.77681 5.68414 0.237785 0.25
112 4.07113 5.0778 5.70058 0.25
113 1.78057 0.138702 4.26375 0.25
114 8.54285 6.08094 0.0100096 0.25
115 4.48654 3.41749 2.19598 0.25
116 0.0314668 2.04902 3.63262 0.25
117 7.34349 2.1959 2.38097 0.5
118 6.59655 7.98946 2.55515 0.25
119 9.93795 2.57528 4.49659 0.25
120 1.62322 5.61034 10.1576 0.25
121 7.53061 1.90022 5.08523 0.5
122 1.84206 4.87164 2.48949 0.25
123 9.30816 8.59958 1.69893 0.25
124 8.46476 5.97619 0.45712 0.25
125 2.0659 9.8297 3.93432 0.25
126 5.95754 7.53783 0.658767 0.25
127 5.78336 7.77209 0.279446 0.25
128 9.48798 10.0781 4.33111 0.25
129 1.98183 5.28279 3.397 0.25
130 8.99753 8.84504 1.40825 0.25
131 7.84571 2.7229 2.45891 0.25
132 8.59544 4.85084 4.75382 0.25
133 8.18847 9.04586 10.2069 0.25
134 4.38118 4.52303 2.8504 0.25
135 6.25461 9.59595 8.35652 0.5
136 8.47966 8.91959 7.30859 0.25
137 1.70869 9.45072 1.7811 0.25
138 7.12615 3.98945 4.89319 0.25
139 6.91093 4.57408 7.79018 0.5
140 3.95731 8.46617 3.11471 0.25
141 1.72608 1.79867 1.85688 0.25
142 2.78642 2.79692 4.9723 0.25
143 7.41459 2.07284 3.48336 0.25
144 9.37329 6.85619 2.40702 0.25
145 3.73384 7.54317 5.86786 0.25
146 7.1992 9.10176 2.95796 0.25
147 3.86497 5.58208 4.11606 0.25
148 2.75562 1.70713 10.0341 0.25
149 0.20514 7.92858 9.18028 0.25
150 4.42971 4.86893 8.01017 0.25
151 7.10503 9.97838 10.0274 0.25
152 4.35618 9.09336 0.835295 0.25
153 5.13943 1.71859 7.28919 0.25
154 5.61301 9.6693 7.95285 0.25
155 3.76141 5.87809 1.84838 0.25
156 0.769805 8.58232 7.47466 0.25
157 4.78253 0.69862 4.1096 0.25
158 8.7474 9.2699 6.55715 0.25
159 3.25612 2.6892 5.15443 0.25
160 2.78981 3.45269 8.05944 0.25
161 3.51527 0.356526 9.28016 0.25
162 3.97625 2.03103 5.67276 0.5
163 6.74527 10.1319 2.46399 0.25
164 5.22433 8.51012 8.10971 0.25
165 0.814205 2.90295 9.84593 0.25
166 6.61747 4.04266 6.83409 0.25
167 9.02789 10.133 4.12035 0.25
168 9.76373 7.92391 9.43721 0.25
169 9.37104 6.44868 7.4327 0.25
170 2.92095 0.340846 8.14928 0.25
171 1.22589 8.54216 7.22796 0.25
172 9.69735 6.58188 6.65923 0.25
173 0.669836 1.66349 4.14435 0.25
174 4.69435 1.67469 6.08538 0.25
175 9.17287 3.37062 6.61864 0.25
176 1.09013 6.43514 0.88877 0.25
177 9.77311 6.07406 6.77888 0.25
178 7.25277 1.17772 5.00296 0.25
179 2.72044 9.35224 7.91124 0.25
180 7.14377 8.93943 2.1928 0.5
181 0.993804 4.17411 5.71119 0.25
182 7.51264 2.01098 3.01983 0.25
183 2.6224 9.68846 4.72826 0.25
184 8.9961 5.07064 9.35444 0.25
185 8.77259 8.8294 6.36731 0.25
186 3.03447 8.15757 9.88124 0.25
187 3.35258 4.17833 0.28528 0.25
188 5.12444 2.25258 7.37059 0.25
189 0.172165 0.235067 6.36776 0.25
190 2.72759 7.61789 3.47977 0.25
191 5.46807 2.58184 8.97547 0.25
192 8.89244 9.21518 7.32685 0.25
193 5.29039 2.11788 8.77209 0.25
194 4.52897 9.57455 1.0268 0.25
195 5.24267 5.2031 10.0295 0.25
196 5.15472 2.54643 10.3446 0.25
197 9.02194 5.76153 6.71026 0.5
198 7.14194 1.77201 6.98458 0.5
199 7.10522 0.126188 10.0509 0.25
200 7.26137 0.798206 6.33081 0.25
201 6.00028 6.92642 6.7333 0.25
202 3.43935 7.85281 5.18004 0.25
203 4.47474 10.3111 0.622514 0.25
204 0.55919 3.88104 6.55026 0.25
205 3.83729 10.2882 6.41306 0.25
206 0.493191 1.91259 3.76339 0.25
207 1.27681 5.47705 3.79728 0.5
208 4.39312 4.46134 6.17325 0.25
209 7.25961 9.5272 2.69648 0.25
210 3.75303 0.342618 6.76548 0.25
211 1.39019 4.95412 2.72289 0.25
212 0.365169 4.00495 1.9897 0.5
213 9.55086 4.47708 2.29495 0.25
214 3.79066 4.95494 6.09277 0.25
215 10.0117 0.757445 8.77154 0.25
216 5.68016 1.65349 0.355216 0.25
217 0.592256 7.99659 6.08852 0.25
218 2.15496 1.24478 1.56052 0.5
219 1.07744 4.3674 6.16933 0.25
220 6.48919 9.33351 2.18282 0.25
221 8.91458 7.45224 4.34724 0.25
222 8.96371 6.53224 7.03923 0.25
223 5.51742 9.14519 5.14185 0.25
224 9.85844 3.02222 6.91633 0.25
225 8.05002 1.38644 5.27443 0.25
226 6.53193 8.79765 5.21123 0.25
227 7.73297 0.0425714 0.87268 0.25
228 4.90825 2.25257 0.327108 0.25
229 2.30832 2.34637 1.39719 0.25
230 8.10408 7.18393 4.33447 0.25
231 7.60735 4.01301 7.10806 0.25
232 6.96064 9.66564 2.31741 0.25
233 8.0643 2.06698 9.34723 0.5
234 3.70347 9.50129 1.20004 0.25
235 0.970386 9.01322 7.22489 0.25
236 1.72659 5.31762 0.55218 0.25
237 7.29593 1.60474 3.36044 0.25
238 1.1647 5.96452 4.25777 0.25
239 0.931137 2.44585 9.85421 0.25
240 1.36939 8.88583 2.22872 0.5
241 1.73737 9.56442 2.22747 0.25
242 3.92387 7.72335 6.30339 0.25
243 1.88778 6.12305 0.547482 0.25
244 1.49683 1.04927 7.01384 0.25
245 6.39731 7.27822 6.7188 0.25
246 2.29929 8.17786 10.2244 0.25
247 2.52602 7.24023 2.774 0.25
248 5.56044 2.39218 8.53011 0.25
249 6.82275 4.34241 5.07073 0.25
250 7.4056 1.27302 6.50587 0.25
251 1.2106 1.69156 6.33162 0.25
252 7.12283 6.54781 9.44486 0.25
253 4.18721 7.40037 8.56558 0.25
254 1.41068 9.80887 1.61817 0.25
255 1.68174 0.695474 1.75079 0.25
256 3.256 5.84043 4.68541 0.25
257 0.923913 0.0557416 9.85284 0.25
258 4.91795 5.34709 7.25514 0.25
259 2.14532 0.0135229 3.92251 0.25
260 0.452022 9.89097 10.3003 0.25
261 6.68351 6.87595 8.29821 0.25
262 5.55599 6.20157 3.6118 0.25
263 8.62848 8.67221 9.64784 0.25
264 7.75199 9.54108 9.86586 0.5
265 4.23911 3.54728 2.98503 0.25
266 4.40822 3.04806 2.96428 0.25
267 2.91888 7.45681 5.75683 0.25
268 3.4761 7.62208 6.28714 0.25
269 7.66447 9.23916 6.09355 0.25
270 2.92704 7.57611 6.231 0.25
271 4.46373 9.60207 1.54942 0.25
272 6.70025 6.73154 5.51357 0.25
273 10.015 3.79001 7.45342 0.25
274 3.93682 4.63355 6.42096 0.25
275 10.0897 6.16062 2.44584 0.25
276 8.28566 1.27111 8.53686 0.25
277 3.01021 10.0144 8.29986 0.5
278 4.56456 5.98585 8.49204 0.25
279 2.77573 10.2029 8.96113 0.25
280 3.43107 0.866445 9.19663 0.25
281 4.3833 8.70881 3.71138 0.25
282 4.85732 0.357548 3.34851 0.25
283 9.5569 0.256059 9.23993 0.25
284 1.69557 5.1988 0.0733121 0.25
285 8.51045 6.73966 1.06493 0.25
286 10.1455 1.56138 2.06426 0.25
287 1.61624 8.42008 2.80706 0.25
288 1.11354 5.6311 4.56325 0.25
289 8.97165 1.37068 1.13666 0.25
290 8.84213 4.26858 1.82844 0.25
291 8.16039 2.7537 9.67446 0.25
292 4.16934 9.35339 1.22727 0.25
293 4.61627 2.53322 6.82762 0.5
294 10.1265 6.60548 2.59391 0.25
295 7.07727 0.786239 7.0379 0.5
296 2.71597 2.85644 4.47626 0.25
297 0.323883 8.13296 5.65429 0.25
298 4.70825 9.33128 0.558245 0.25
299 9.39388 5.23868 9.60257 0.25
300 2.22388 9.66331 4.43181 0.25
301 4.79521 8.50151 7.86956 0.25
302 4.88154 4.72403 7.90062 0.25
303 8.8127 5.59013 9.8578 0.5
304 4.5525 3.93089 2.19616 0.25
305 1.4743 8.19006 2.44129 0.25
306 10.1776 8.20598 9.45194 0.25
307 0.78511 9.9421 9.91082 0.25
308 8.98099 6.29234 6.18794 0.25
309 8.15984 1.74086 8.61878 0.25
310 6.54319 6.41182 6.35014 0.25
311 2.26384 0.493054 2.35559 0.25
312 8.95357 0.929558 8.58162 0.5
313 1.67585 8.1781 2.03872 0.25
314 1.05101 3.75166 2.18142 0.25
315 2.77524 0.520107 9.29896 0.5
316 6.43329 4.26278 7.26131 0.25
317 6.50437 10.2512 8.69651 0.25
318 10.0113 7.90844 9.84293 0.25
319 9.87999 10.2894 3.54763 0.25
320 0.190852 3.13718 9.10549 0.25
321 1.97277 1.94013 1.39473 0.25
322 0.897915 7.04044 4.4484 0.25
323 6.6849 10.3282 9.48064 0.5
324 7.05231 1.93605 3.06839 0.25
325 9.29728 4.17009 1.63149 0.25
326 2.17446 10.2927 5.44004 0.25
327 1.52832 8.62206 7.97288 0.25
328 4.18956 3.74597 2.48711 0.25
329 8.43003 7.52185 3.72366 0.5
330 9.76007 6.13757 2.01559 0.25
331 9.10177 0.136772 3.72637 0.25
332 5.52167 7.26345 0.863165 0.25
333 9.83708 7.52684 9.15682 0.25
334 6.91918 4.9911 1.55792 0.25
335 5.81356 4.53917 0.550878 0.25
336 9.63981 4.36498 1.84676 0.25
337 4.79511 5.65706 8.74347 0.25
338 6.85808 8.2013 2.17857 0.25
339 4.03554 6.05314 8.50776 0.25
340 0.545989 3.11078 9.44006 0.25
341 3.76918 5.77548 4.56832 0.25
342 9.58463 3.77767 7.20816 0.25
343 9.95911 2.04173 3.82871 0.25
344 4.17638 0.627041 2.97568 0.25
345 6.27863 4.16142 0.0471561 0.25
346 1.96862 2.05777 7.5755 0.25
347 3.03364 3.40984 0.448173 0.25
348 6.13445 7.4467 0.182752 0.25
349 4.72334 1.54047 7.49952 0.25
350 2.86723 3.46397 7.58203 0.25
351 5.58684 6.98918 3.85969 0.25
352 8.27207 6.3975 1.30123 0.25
353 9.84089 3.35974 7.34305 0.25
354 9.76221 3.51957 1.39708 0.25
355 2.74637 1.33257 1.97496 0.25
356 4.63047 9.62608 0.132347 0.25
357 3.55718 4.50425 6.06294 0.25
358 4.73668 9.82059 0.594621 0.25
359 8.90418 6.63563 0.390721 0.5
360 4.0389 10.2893 6.87382 0.25
361 0.261628 0.683653 6.38575 0.25
362 9.80689 7.5207 9.66225 0.25
363 7.34043 2.89945 2.45326 0.25
364 9.64806 6.45641 2.36753 0.25
365 6.06966 8.96819 5.04904 0.25
366 9.22588 4.18241 2.13986 0.25
367 2.94801 0.683653 8.55067 0.25
368 9.80654 6.41353 7.15646 0.25
369 9.2934 4.45297 4.58397 0.5
370 4.54246 1.53122 6.83644 0.5
371 9.454 6.76872 1.68681 0.5
372 1.08735 2.3416 4.09116 0.5
373 3.34729 0.313435 8.42329 0.25
374 3.29128 0.53889 8.86654 0.25
375 4.58168 0.349801 3.78643 0.25
376 0.713085 5.80209 4.26606 0.25
377 10.2057 7.69671 9.43743 0.25
378 9.2902 9.13007 1.7407 0.25
379 0.275114 4.06893 6.15122 0.25
380 1.73867 1.86538 4.34897 0.25
381 6.93127 4.96842 2.34677 0.5
382 2.78189 8.0804 10.3236 0.25
383 5.65567 8.59412 8.33137 0.25
384 1.70746 6.55845 7.60128 0.25
385 1.08128 7.07069 4.94218 0.25
386 1.25794 5.46857 7.78065 0.25
387 1.21078 5.94565 7.85866 0.25
388 2.8114 2.17051 1.47411 0.25
389 5.40301 1.6771 0.770446 0.25
390 3.2659 3.80527 0.630737 0.25
391 3.78532 0.370943 6.23145 0.25
392 0.956739 5.76031 5.02692 0.25
393 9.17118 8.79096 6.62095 0.25
394 10.0026 1.00132 6.49143 0.25
395 2.1935 4.58768 2.83415 0.25
396 3.47062 0.709869 9.65023 0.25
397 7.27982 2.40274 3.08666 0.25
398 9.91504 5.0944 9.01442 0.25
399 2.54292 9.72948 7.7473 0.25
400 7.58935 2.80061 10.2796 0.25
401 5.63678 6.51108 4.02281 0.25
402 4.36499 5.88424 8.92416 0.25
403 6.06777 4.97617 0.510336 0.25
404 8.35582 2.78072 0.540071 0.25
405 1.56118 5.77794 0.672919 0.25
406 6.42572 9.24297 5.31571 0.25
407 6.92573 6.92564 8.75146 0.25
408 9.73882 8.52354 1.42039 0.25
409 9.88694 6.9143 2.30913 0.25
410 5.87622 1.0033 3.54849 0.25
411 7.80506 8.8546 9.47384 0.25
412 4.74277 1.99887 7.38254 0.25
413 7.04782 2.81027 2.83869 0.25
414 7.08452 5.60481 2.73222 0.25
415 4.43405 1.0213 3.48953 0.5
416 9.95964 0.621712 9.25778 0.25
417 3.30818 8.09122 5.88457 0.5
418 0.820486 1.08425 6.59818 0.5
419 8.80437 10.1255 3.67658 0.25
420 5.541 8.87918 7.92718 0.25
421 9.02718 6.16813 7.34483 0.25
422 1.90812 7.37393 3.29354 0.25
423 1.83299 4.96048 2.99385 0.25
424 0.0907252 -0.00346226 9.616 0.25
425 2.33104 10.0512 4.63296 0.25
426 2.78787 1.65616 1.56343 0.25
427 6.96625 1.21899 6.39663 0.25
428 7.44251 9.70346 2.25391 0.25
429 5.34964 9.30653 7.79841 0.25
430 10.1368 9.54112 3.3819 0.25
431 7.35788 10.287 1.11661 0.25
432 2.8269 8.08333 9.42781 0.25
433 2.91145 2.35745 5.146 0.25
434 6.19746 10.003 9.00841 0.25
435 0.683358 2.14519 10.1996 0.25
436 6.58223 4.54829 10.2323 0.25
437 0.530068 6.01081 0.258604 0.25
438 7.71818 0.903926 6.53277 0.25
439 9.42497 9.74842 3.59236 0.5
440 2.21005 3.16791 7.60106 0.5
441 1.39199 3.76105 2.52359 0.25
442 6.27524 7.81944 0.905498 0.25
443 9.87728 9.97658 4.03871 0.25
444 1.49636 3.77889 1.99906 0.25
445 5.17073 6.69393 4.09112 0.25
446 8.34751 4.84062 4.28238 0.25
447 6.52269 4.91892 0.245319 0.25
448 5.20901 0.971968 3.13974 0.5
449 0.316444 0.551061 6.82797 0.25
450 2.51318 0.877671 2.11147 0.25
451 3.72427 3.47161 10.3424 0.25
452 6.00043 4.29454 4.84999 0.25
453 7.24337 4.30258 8.34841 0.25
454 1.587 5.64366 8.57076 0.25
455 1.34523 6.06623 8.34247 0.25
456 2.47297 1.88919 1.30939 0.25
457 9.93933 9.29491 1.22277 0.5
458 1.38248 5.78523 7.3765 0.25
459 1.02528 1.72263 6.84612 0.25
460 1.81341 5.64545 7.11379 0.25
461 3.44081 5.83589 1.41537 0.25
462 3.487 6.23824 1.09958 0.25
463 1.64729 10.1075 4.02929 0.25
464 9.89449 1.0379 1.44322 0.25
465 7.07452 5.68025 2.2037 0.25
466 5.01383 5.46824 8.04907 0.5
467 3.55721 5.26652 5.8805 0.25
468 2.34966 1.31119 2.26467 0.25
469 4.71964 4.221 2.58246 0.25
470 4.44406 3.85564 3.32691 0.25
471 2.7913 9.7131 5.21854 0.25
472 1.98981 2.73123 7.01242 0.25
473 3.0634 7.68288 10.0426 0.25
474 9.01418 3.80258 1.85501 0.25
475 8.48218 6.84357 3.47116 0.25
476 3.76847 6.57664 1.34963 0.25
477 10.0677 9.51683 3.85562 0.25
478 8.90543 6.00297 1.0336 0.5
479 7.30323 0.454595 1.42135 0.25
480 2.62562 7.98117 9.88106 0.25
481 3.91624 9.07682 0.979333 0.25
482 6.41726 9.66272 5.5409 0.25
483 7.15597 10.3525 0.394819 0.5
484 9.54862 3.34905 6.96163 0.25
485 8.3449 2.52361 0.126231 0.25
486 3.96821 8.57151 3.58125 0.25
487 2.86943 3.9029 0.319716 0.25
488 6.88055 9.54103 1.88289 0.25
489 9.15486 7.4142 3.5539 0.25
490 2.3754 3.52447 8.27245 0.25
491 8.72959 8.93071 6.89056 0.25
492 7.74097 3.01162 9.86141 0.25
493 9.50156 3.74176 6.70983 0.25
494 8.65553 4.35035 4.9149 0.25
495 9.61937 3.30767 6.50618 0.25
496 4.21276 1.63103 6.2145 0.25
497 3.33887 3.23391 0.0561583 0.25
498 8.46616 1.47983 8.96219 0.25
499 4.12789 9.85084 1.26706 0.25
500 4.24783 7.42663 9.06162 0.25
501 2.38981 0.0504151 4.9633 0.25
502 9.48567 6.25883 6.414 0.25
503 6.53258 8.31303 2.91664 0.25
504 5.48305 7.70041 0.632399 0.25
505 7.50498 1.16213 5.78974 0.5
506 5.3141 9.95413 5.12189 0.25
507 6.94966 8.31525 2.6419 0.25
508 4.86383 8.78775 8.81034 0.25
509 1.2463 9.29261 7.56143 0.25
510 5.93475 3.80027 4.67265 0.25
511 4.18017 0.237686 6.50293 0.25
512 1.62929 4.92123 3.45166 0.25
513 1.36694 5.23876 10.0342 0.25
514 3.62494 1.95252 4.92755 0.25
515 1.69614 2.12412 6.8514 0.5
516 5.95709 9.07585 5.74948 0.5
517 8.9253 7.02827 3.5186 0.25
518 3.08955 0.817323 9.93965 0.25
519 2.78776 10.1437 4.87554 0.25
520 5.08046 2.03404 6.93738 0.25
521 1.30284 4.37446 5.40163 0.25
522 2.22321 0.152775 4.4823 0.25
523 2.87819 2.98741 7.88949 0.25
524 7.56055 1.26635 4.65806 0.25
525 2.18898 6.40114 7.38912 0.25
526 1.70749 5.17952 8.65801 0.25
527 6.55799 9.5353 2.85305 0.5
528 7.2727 8.60125 2.84543 0.25
529 4.1646 6.78446 1.5774 0.25
530 1.45063 7.77686 2.16457 0.25
531 0.386637 2.4888 0.0595857 0.25
532 2.56803 8.51633 0.2165 0.25
533 9.14561 9.75952 4.3568 0.25
534 8.83173 4.99187 4.32296 0.25
535 7.55203 6.55364 9.14524 0.25
536 4.48175 10.047 0.996418 0.25
537 7.825 1.7756 2.83843 0.25
538 7.56328 4.24902 7.53982 0.25
539 10.2628 3.62715 6.79241 0.5
540 5.83859 10.1192 8.07144 0.25
541 9.46633 8.89928 1.38492 0.25
542 7.3648 9.16084 6.46312 0.25
543 9.1735 4.45334 3.84433 0.25
544 1.48215 2.15001 7.60695 0.25
545 10.0315 9.98502 3.16416 0.25
546 0.391049 0.936793 5.94006 0.25
547 9.73704 4.03251 1.46377 0.25
548 9.64861 4.66846 9.04849 0.25
549 1.53529 1.02484 2.11154 0.25
550 9.71481 8.90061 1.79094 0.25
551 2.86496 7.27134 3.16899 0.25
552 9.16033 9.19021 6.8812 0.25
553 5.02662 3.08423 5.43347 0.25
554 8.80066 4.65225 3.99865 0.25
555 5.80534 9.25241 7.85121 0.25
556 1.49163 8.92539 7.21442 0.25
557 3.02836 9.70189 7.65564 0.25
558 2.72234 3.86929 8.28973 0.25
559 9.64895 1.11857 8.60344 0.25
560 3.99885 4.56785 5.91409 0.25
561 1.07325 3.90618 1.68822 0.25
562 5.57515 5.23907 9.63297 0.25
563 5.59342 9.92307 8.39799 0.25
564 1.84027 1.4259 7.02816 0.25
565 2.04276 0.933811 2.25867 0.25
566 9.43434 6.72852 7.07001 0.25
567 1.54925 6.21859 0.884867 0.25
568 7.71185 1.1267 5.10161 0.25
569 6.96903 3.77756 7.41947 0.5
570 4.26254 4.24651 2.43512 0.25
571 4.5194 3.34929 3.36411 0.25
572 8.65242 1.52245 8.46566 0.25
573 1.12311 6.83093 5.32776 0.25
574 0.53644 0.468511 6.06788 0.25
575 6.33461 3.53062 4.77091 0.25
576 4.98816 1.93651 0.745885 0.25
577 0.191081 7.88788 5.1782 0.25
578 1.05628 5.38862 0.358754 0.5
579 5.12193 4.94365 7.53114 0.25
580 8.00074 6.99775 3.46131 0.25
581 7.33983 7.24181 8.75235 0.25
582 7.28999 4.38791 5.19342 0.25
583 8.81973 5.82787 6.01725 0.25
584 4.84855 6.59566 3.72712 0.25
585 6.95404 0.218572 1.13239 0.25
586 1.73862 2.36175 4.45194 0.25
587 5.93663 9.78544 5.61814 0.25
588 2.33465 1.12322 9.52939 0.25
589 10.1748 3.79066 1.51698 0.25
590 9.04715 7.18677 3.96867 0.25
591 3.73477 2.44277 5.10662 0.25
592 6.63487 5.69781 2.51529 0.25
593 5.48424 9.63976 5.84327 0.25
594 8.7285 6.38631 10.0246 0.25
595 1.82485 2.54688 7.47749 0.25
596 9.65644 8.64697 0.982206 0.25
597 4.39446 0.295591 3.317 0.25
598 5.77365 7.72025 1.04498 0.25
599 9.99051 1.09539 1.96618 0.25
600 4.2921 9.16152 1.67373 0.25
601 7.16074 10.0099 2.59494 0.25
602 6.082 8.40369 3.10441 0.25
603 2.23222 5.93299 7.17477 0.25
604 9.11955 0.519909 1.1602 0.25
605 1.14342 7.84055 2.56932 0.25
606 1.64063 1.70004 7.43485 0.25
607 2.07443 2.38962 7.87837 0.25
608 5.88842 6.17335 5.96162 0.5
609 3.73989 5.80538 1.02 0.25
610 6.51171 4.68642 1.02538 0.5
611 8.41646 8.47688 7.63701 0.25
612 8.46219 0.203185 4.18436 0.5
613 8.24855 2.39547 9.99395 0.25
614 9.40018 6.9896 0.962903 0.25
615 6.3203 4.04351 7.68239 0.25
616 1.35341 1.44904 7.13887 0.25
617 2.51883 3.77574 7.83249 0.25
618 7.96474 2.79028 0.265229 0.25
619 1.26314 9.63545 2.00297 0.25
620 7.01391 6.06788 2.54079 0.25
621 6.49299 4.80127 1.73913 0.25
622 7.6843 7.03623 9.07391 0.25
623 7.92378 4.35045 4.75547 0.5
624 4.85572 8.71963 8.33712 0.25
625 5.6238 2.3641 10.1775 0.25
626 2.31225 2.88807 4.18112 0.25
627 6.60866 5.41581 2.88625 0.25
628 0.921025 9.71781 10.2939 0.25
629 7.55608 10.2331 10.1205 0.25
630 6.47972 7.45124 0.569079 0.25
631 8.24376 1.75596 5.11376 0.25
632 3.33675 3.69865 0.173677 0.25
633 3.54958 3.40079 0.459016 0.25
634 4.64536 8.06687 8.54872 0.5
635 9.36717 6.30405 6.92795 0.25
636 9.02507 4.8924 9.79456 0.25
637 6.4835 9.16071 4.82865 0.25
638 1.68517 10.1056 4.89678 0.5
639 6.86521 2.71655 2.4214 0.25
640 7.36131 1.65635 7.63115 0.25
641 3.45704 5.90035 4.24048 0.25
642 3.23633 7.27716 6.50454 0.25
643 2.40246 1.63724 9.61651 0.25
644 6.01623 9.7281 4.91639 0.5
645 3.60877 3.98192 10.2138 0.25
646 8.16645 6.87672 3.91054 0.25
647 6.6777 6.41941 5.92008 0.25
648 7.03058 1.32702 7.64287 0.25
649 4.75546 6.09426 8.99738 0.25
650 7.77338 1.73221 3.35237 0.25
651 5.05151 8.89449 7.9198 0.25
652 1.10554 5.78748 8.63713 0.25
653 1.06859 4.63418 5.78268 0.25
654 1.3451 6.26949 7.47755 0.25
655 10.1202 4.26444 1.71432 0.25
656 4.62748 5.03206 7.57243 0.25
657 8.51941 9.34234 7.05592 0.25
658 7.43529 4.06985 7.97644 0.25
659 9.22038 0.180137 4.21546 0.25
660 1.86537 5.84879 7.87681 0.5
661 2.38981 7.33279 3.2359 0.25
662 7.7623 8.85314 5.84104 0.25
663 3.1594 1.0506 8.86518 0.25
664 0.113799 3.33366 9.56489 0.25
665 8.31012 6.33328 0.762178 0.25
666 5.75441 9.86266 8.85033 0.25
667 8.32312 3.04657 0.12841 0.25
668 6.97401 1.46336 5.3575 0.25
669 3.51245 7.73061 9.37172 0.5
670 1.2957 2.80429 10.0099 0.25
671 0.820676 6.35691 4.77678 0.5
672 5.87986 6.78158 5.53251 0.25
673 4.1917 8.82409 1.30852 0.25
674 7.32929 4.05987 4.44798 0.25
675 8.22233 8.9632 7.73545 0.25
676 5.63118 2.35148 0.565307 0.5
677 9.32796 3.4273 7.44237 0.25
678 10.1597 0.549535 5.84305 0.5
679 2.27585 2.39334 7.38622 0.25
680 2.50781 6.88379 3.14621 0.25
681 8.06602 9.19018 7.35332 0.25
682 2.99738 7.67689 5.29684 0.25
683 0.474863 2.95122 10.2795 0.25
684 1.63593 8.56955 7.48247 0.25
685 8.73125 9.79052 4.02339 0.25
686 6.74085 9.58014 5.14942 0.25
687 9.13109 3.6491 7.05312 0.25
688 6.59171 7.6642 0.091684 0.25
689 2.26567 2.44486 3.88277 0.25
690 10.33 7.494 9.02354 0.25
691 0.78695 8.26157 5.69959 0.25
692 1.45671 4.33777 5.84512 0.25
693 9.54526 2.23894 3.70159 0.25
694 3.07622 4.01451 10.2419 0.25
695 8.02824 1.3926 4.75493 0.25
696 5.08067 1.07832 3.89832 0.25
697 1.24193 8.8064 7.61707 0.25
698 8.90028 5.85966 0.248108 0.25
699 3.82761 7.74439 5.43579 0.25
700 6.57221 7.18218 0.141508 0.25
701 3.63275 4.78132 5.65648 0.25
702 6.66995 3.85641 5.10015 0.25
703 2.155 0.562337 1.91373 0.25
704 6.81374 4.22429 8.50683 0.25
705 3.88772 5.97705 8.99692 0.25
706 7.45364 1.1833 7.48299 0.25
707 6.30153 6.94722 5.31285 0.25
708 5.16273 6.26354 3.90171 0.25
709 1.29531 4.47537 2.12752 0.5
710 1.50542 4.79037 5.63465 0.25
711 6.82054 4.42205 7.03983 0.25
712 4.28551 8.20079 3.82785 0.25
713 1.2007 4.95067 3.2471 0.25
714 2.00491 10.0833 4.32652 0.25
715 2.76595 3.44101 8.58759 0.25
716 9.2199 8.91635 0.960188 0.25
717 3.0766 5.2416 5.68512 0.25
718 5.69954 3.19865 5.02367 0.5
719 5.53754 2.43637 5.32619 0.25
720 5.51223 1.2906 3.72662 0.25
721 3.17414 7.7693 6.62342 0.25
722 3.60697 4.90962 4.52569 0.25
723 5.63091 7.18908 6.43047 0.25
724 9.56723 0.744582 8.9806 0.25
725 3.54648 10.2615 6.83388 0.25
726 3.46449 5.41855 4.45443 0.25
727 3.94617 5.30029 4.49567 0.25
728 2.47222 8.64645 9.7901 0.5
729 7.58541 1.88591 5.84047 0.25
730 7.95948 1.40651 8.92992 0.25
731 0.763319 5.77777 10.233 0.25
732 3.71617 7.24783 6.32565 0.25
733 9.79007 2.07924 4.6449 0.25
734 8.5905 7.09591 4.2791 0.25
735 3.35336 2.20905 5.2491 0.25
736 8.3169 5.99515 6.62476 0.25
737 0.800487 4.40064 5.37387 0.25
738 5.21056 8.51213 8.60963 0.25
739 2.91725 3.54263 10.3235 0.25
740 8.71145 6.58635 1.47445 0.25
741 7.62516 2.77064 1.98035 0.25
742 5.21154 1.80588 0.341291 0.25
743 9.82102 1.8179 4.24311 0.25
744 2.41998 2.20793 4.59797 0.5
745 0.613189 4.39657 5.90775 0.25
746 6.88607 4.54111 1.70415 0.25
747 8.03283 3.19932 9.51919 0.25
748 7.39959 10.1718 9.68228 0.25
749 6.5661 3.92246 8.11735 0.25
750 4.01394 2.07031 6.50741 0.25
751 1.87936 2.17778 4.01201 0.25
752 9.70584 2.30311 4.16939 0.25
753 0.198464 2.56986 9.68003 0.5
754 8.06244 1.73066 5.65155 0.25
755 8.05123 2.7977 10.1749 0.25
756 4.82033 1.99888 1.23814 0.25
757 0.137807 2.10177 4.36541 0.5
758 1.76344 9.69015 4.27084 0.25
759 4.87099 2.72073 8.09872 0.25
760 4.86096 1.6143 3.17168 0.25
761 5.587 6.88995 5.96689 0.25
762 0.622554 4.34406 6.40972 0.25
763 6.56523 4.10139 4.4114 0.5
764 5.10088 7.06556 3.75483 0.25
765 7.09689 6.47496 8.93529 0.25
766 1.52372 5.27337 3.12871 0.25
767 6.59532 2.31633 2.36382 0.25
768 4.90727 2.38649 5.77967 0.5
769 0.536259 2.78647 9.05306 0.25
770 6.27292 7.07644 6.06912 0.5
771 6.17304 7.93311 10.3283 0.25
772 7.01649 9.15301 5.76449 0.5
773 5.82366 4.19868 0.26254 0.25
774 6.78833 8.75817 2.84459 0.25
775 10.087 7.93696 9.015 0.25
776 4.61029 10.1138 0.177755 0.25
777 1.13826 8.18567 2.13136 0.25
778 2.8816 0.23019 8.64372 0.25
779 0.0791912 7.87742 8.70485 0.25
780 5.23822 4.85395 9.74454 0.25
781 5.06517 6.22008 3.45757 0.25
782 9.47226 6.50824 0.914727 0.25
783 4.26728 8.82484 3.22098 0.25
784 3.33332 3.5928 10.0424 0.25
785 8.70137 8.94548 7.75045 0.25
786 6.49844 6.56567 5.05934 0.25
787 6.05067 6.51618 5.20011 0.25
788 5.12074 1.55242 3.59961 0.25
789 6.25898 5.10262 2.08911 0.25
790 4.9089 1.96888 6.42173 0.25
791 8.40704 5.65402 6.24262 0.25
792 4.904 3.55536 2.79713 0.5
793 10.3339 0.409293 8.89995 0.25
794 1.86756 1.42386 2.19866 0.25
795 1.27135 9.06152 7.98313 0.25
796 2.76998 10.0116 4.0901 0.5
797 9.88087 9.53659 2.95614 0.25
798 9.24013 4.93262 3.9886 0.25
799 3.937 5.2868 1.52272 0.5
800 9.93192 1.47173 1.25542 0.25
801 6.2617 0.139281 10.0742 0.25
802 5.6251 7.28418 0.35441 0.25
803 9.42833 5.14637 9.14122 0.25
804 4.29795 5.32628 7.80602 0.25
805 8.75831 4.16193 4.05008 0.25
806 2.47243 9.51311 8.24471 0.25
807 3.23197 4.87265 5.9847 0.25
808 8.87737 4.56832 9.45584 0.25
809 1.1604 5.63656 10.0199 0.25
810 7.29476 1.61356 6.20493 0.25
811 9.78409 4.91246 9.46146 0.25
812 3.84057 6.05601 1.41927 0.25
813 1.85293 3.94453 2.34169 0.25
814 1.2555 10.0263 0.155561 0.25
815 3.61905 5.32349 5.15973 0.5
816 6.72394 0.370556 10.183 0.25
817 4.01638 9.70623 0.545948 0.5
818 9.0509 6.13083 10.2563 0.25
819 3.95855 6.34331 1.75654 0.25
820 6.97093 4.69991 8.53505 0.25
821 8.07152 8.65727 7.36462 0.25
822 4.17262 4.3124 3.24933 0.25
823 1.95803 9.20727 7.72624 0.5
824 7.31927 4.38025 7.17512 0.25
825 8.09543 8.91785 6.64385 0.5
826 6.79757 2.48529 1.95672 0.25
827 8.61903 6.17175 7.03623 0.25
828 10.0323 4.34188 2.16615 0.25
829 0.612038 7.94663 4.8537 0.25
830 4.21895 6.36379 1.3696 0.25
831 2.05108 7.06627 2.92236 0.25
832 4.15958 5.58244 9.22034 0.25
833 6.12042 6.46324 6.59543 0.25
834 8.54476 4.08766 4.47912 0.25
835 1.4551 1.46004 6.71951 0.25
836 6.5803 5.52094 2.07609 0.25
837 3.84758 7.30918 8.86203 0.25
838 2.67731 9.40835 7.42871 0.25
839 0.0334423 2.80315 4.47849 0.25
840 9.62773 4.59009 3.95248 0.25
841 5.8715 4.78765 10.1343 0.5
842 7.23711 6.9379 9.1254 0.25
843 1.23828 9.34422 1.61309 0.25
844 6.51689 5.25455 1.65693 0.25
845 8.31087 4.37447 4.09587 0.25
846 0.846339 5.29287 4.3704 0.25
847 8.19957 3.2414 9.97832 0.25
848 3.09063 1.40807 9.52137 0.5
849 6.30942 5.35334 2.51877 0.25
850 3.99964 8.10512 3.42013 0.25
851 4.25121 5.8923 1.17802 0.25
852 5.5139 0.795766 3.79538 0.25
853 9.54691 10.3431 3.95234 0.25
854 2.54506 3.03338 8.27977 0.25
855 3.4955 6.27607 1.62946 0.25
856 9.0774 3.17121 7.07076 0.25
857 6.36668 4.30588 5.15509 0.25
858 8.19292 7.96882 4.33069 0.25
859 9.44952 1.2621 1.2992 0.25
860 3.07337 9.78861 4.79208 0.25
861 3.85147 9.08387 1.49877 0.25
862 7.62537 1.26273 8.24769 0.5
863 0.920812 3.18189 10.263 0.25
864 4.57311 3.02057 2.45862 0.25
865 0.6715 6.85151 5.23535 0.25
866 2.89309 1.23097 10.1893 0.25
867 3.07938 7.27306 9.80713 0.25
868 9.51089 0.762433 1.3285 0.25
869 0.0896777 8.4116 5.23024 0.25
870 7.38577 6.79297 8.67853 0.25
871 7.16438 2.8216 2.01951 0.25
872 8.10051 1.48076 7.44105 0.5
873 5.17026 9.50616 5.08066 0.25
874 6.89149 9.12548 5.01228 0.25
875 3.75837 8.18787 5.21651 0.25
876 4.28483 5.98622 1.67093 0.25
877 0.382923 2.38395 3.71917 0.25
878 0.286205 0.0898516 9.14827 0.25
879 0.312966 7.51599 4.86297 0.25
880 6.04629 3.4339 4.36332 0.25
881 4.29688 6.67243 8.86042 0.5
882 9.73775 0.528856 6.50448 0.25
883 5.18431 2.70955 5.17898 0.25
884 2.36134 2.04532 2.05778 0.5
885 8.67233 9.87866 4.46662 0.25
886 9.2683 8.46668 1.20417 0.25
887 1.38749 6.39066 7.97659 0.25
888 1.98634 0.480391 1.45634 0.25
889 4.8899 5.16402 8.71169 0.25
890 0.759969 3.9789 6.09852 0.25
891 4.18695 3.24002 2.58372 0.25
892 6.37234 8.79561 3.08199 0.25
893 7.85774 2.3544 10.3677 0.25
894 2.08302 8.48457 0.178361 0.25
895 9.50473 2.97479 7.2668 0.25
896 9.49757 1.01556 1.73009 0.25
897 3.59947 7.5523 6.72949 0.25
898 0.958617 5.04335 5.11242 0.5
899 0.664441 0.318671 6.53429 0.25
900 8.69714 6.79078 3.91571 0.25
901 0.54305 8.25238 5.23342 0.25
902 5.28058 2.05965 1.12491 0.25
903 7.80846 7.24165 3.91048 0.25
904 1.24619 6.22221 0.169324 0.5
905 9.22231 0.972397 0.980831 0.25
906 9.66723 9.58761 4.25419 0.25
907 4.31342 4.02313 2.86394 0.25