ITEM: TIMESTEP
990000
ITEM: NUMBER OF ATOMS
1000
ITEM: BOX BOUNDS xy xz yz pp pp pp
0.0000000000000000e+00 1.0357442000000001e+01 0.0000000000000000e+00
0.0000000000000000e+00 1.0357442000000001e+01 0.0000000000000000e+00
0.0000000000000000e+00 1.0357442000000001e+01 0.0000000000000000e+00
ITEM: ATOMS id x y z radius
1 1.14091 4.45706 2.62855 0.5
2 2.01794 7.839 2.77744 0.5
3 5.29647 1.35938 0.86623 0.25
4 0.41003 2.8804 3.87198 0.25
5 9.35801 2.92684 6.80242 0.25
6 0.496192 3.29008 9.55759 0.25
7 5.40767 0.600107 3.48653 0.25
8 9.03806 3.75268 1.26203 0.25
9 10.0627 1.48095 1.51921 0.25
10 8.34072 6.51971 4.36372 0.25
11 9.8644 8.89748 2.11717 0.25
12 8.02628 2.27879 9.97004 0.25
13 3.44505 8.06116 6.15876 0.25
14 5.33 2.51372 0.468547 0.25
15 8.75751 5.72714 6.35117 0.25
16 8.88365 8.60316 6.74203 0.25
17 5.32934 9.04589 8.30938 0.5
18 3.16742 8.32314 9.96588 0.25
19 7.12738 4.31083 5.27977 0.25
20 9.2012 1.27222 1.46231 0.25
21 0.48869 10.1515 9.43453 0.25
22 4.99432 0.39487 3.52859 0.25
23 3.74279 3.9806 3.08372 0.25
24 2.4876 2.50171 4.0133 0.25
25 6.96788 1.72762 5.82224 0.25
26 5.39132 2.55056 8.18743 0.25
27 2.09737 8.21373 0.13344 0.25
28 9.19411 5.92483 6.50673 0.25
29 3.4331 8.24388 5.64841 0.25
30 1.53643 8.37636 7.40579 0.25
31 1.09548 7.13769 4.61416 0.25
32 9.13794 6.80405 1.29898 0.25
33 10.0247 8.47394 1.89716 0.25
34 1.05868 2.67797 9.84838 0.25
35 7.57127 2.08661 9.81528 0.25
36 8.70387 9.12791 10.1187 0.25
37 4.03276 4.78099 5.80755 0.25
38 7.1629 0.490616 0.964654 0.25
39 6.37373 3.7454 5.24766 0.25
40 8.47282 4.44515 4.65413 0.25
41 8.29631 7.10095 4.96798 0.25
42 7.07561 8.5599 2.02045 0.5
43 0.504083 8.22724 6.14846 0.25
44 2.9104 0.00685844 5.132 0.25
45 6.99385 6.70587 9.2772 0.25
46 1.38696 8.60309 7.8873 0.25
47 4.37743 8.34623 3.21646 0.25
48 2.91477 9.96323 5.40368 0.25
49 4.82681 5.88922 8.99313 0.25
50 9.99391 9.53369 3.7264 0.25
51 9.71598 9.14525 0.923234 0.25
52 5.84892 7.20675 0.760334 0.25
53 6.69875 4.85221 2.24284 0.25
54 4.73535 4.68769 8.24262 0.25
55 5.92175 6.76073 6.95114 0.25
56 4.81439 1.97872 1.17168 0.25
57 5.55678 2.16292 0.791177 0.25
58 6.07749 4.18796 0.581597 0.25
59 4.02162 7.56505 8.60544 0.25
60 6.92069 6.2186 9.16562 0.25
61 3.50965 0.070929 9.11241 0.25
62 9.35564 5.80235 7.01435 0.25
63 0.67128 5.71837 4.64615 0.25
64 0.0994159 1.17604 1.53518 0.25
65 6.69379 6.72074 6.65425 0.25
66 5.27249 0.323764 3.92357 0.25
67 9.16465 4.93148 9.14667 0.25
68 6.20288 10.3185 0.0688895 0.25
69 2.57449 7.9111 3.28925 0.25
70 4.15951 5.41117 4.06086 0.25
71 1.11672 8.15257 2.23682 0.25
72 5.55574 6.61876 3.62663 0.25
73 9.18915 8.55538 7.44262 0.5
74 2.21497 7.60415 3.48454 0.25
75 0.928048 5.99971 0.732989 0.25
76 2.49337 8.41194 0.230868 0.25
77 6.82585 6.60182 8.85214 0.25
78 3.78226 9.63589 1.47809 0.25
79 0.977775 5.64279 9.70213 0.25
80 8.48441 8.65905 10.0843 0.25
81 8.35004 9.15826 7.72145 0.25
82 1.55733 0.701744 2.10698 0.25
83 1.61429 8.46888 2.7858 0.25
84 5.24098 9.08634 5.31158 0.25
85 3.56961 6.55974 1.27063 0.25
86 9.71297 4.39084 1.64332 0.5
87 1.71219 5.16698 8.63371 0.25
88 2.87759 3.8448 7.98799 0.25
89 0.57615 10.3095 9.90289 0.25
90 7.10577 10.1403 1.8955 0.5
91 3.87676 8.25797 3.33927 0.25
92 9.77142 0.878487 1.05658 0.25
93 8.2353 0.820754 8.31492 0.25
94 0.884771 4.15588 1.99639 0.25
95 7.53811 9.05337 6.36102 0.25
96 7.68404 1.09834 6.87843 0.25
97 5.55438 9.4573 5.20081 0.25
98 10.2571 0.0940688 6.35844 0.25
99 4.96504 1.94242 8.08807 0.5
100 5.3941 2.68611 5.14818 0.25
101 5.34441 2.38018 9.61738 0.5
102 4.13597 5.26403 8.38782 0.5
103 7.47041 0.143004 0.927801 0.25
104 0.706286 9.8443 9.72841 0.25
105 1.58742 4.7368 3.21961 0.25
106 6.1231 6.11148 6.57342 0.25
107 5.81258 10.0717 8.48554 0.25
108 1.73388 3.55642 2.32403 0.25
109 7.65476 2.32368 2.43248 0.25
110 5.38407 9.86892 5.22433 0.25
111 1.65733 5.60587 0.354923 0.25
112 3.73565 5.20993 5.72645 0.25
113 1.72045 0.235523 4.41294 0.25
114 8.38316 6.0659 0.117424 0.25
115 4.93847 3.87835 2.42491 0.25
116 0.0359263 1.69002 3.96954 0.25
117 6.93046 2.31638 2.67023 0.5
118 7.46784 7.99949 2.32486 0.25
119 9.84845 2.86045 3.77821 0.25
120 1.6249 5.6499 10.2328 0.25
121 7.29526 1.89628 5.14219 0.5
122 1.92572 4.47514 2.46105 0.25
123 9.16902 8.96395 1.5424 0.25
124 8.45343 6.37444 0.472422 0.25
125 1.64559 9.68847 4.32008 0.25
126 5.94297 7.5072 0.395818 0.25
127 6.24601 7.5292 0.75141 0.25
128 9.02132 9.90478 3.70821 0.25
129 1.27007 5.05574 2.99301 0.25
130 9.28708 8.90143 1.04233 0.25
131 7.38375 1.99577 2.13221 0.25
132 8.24771 4.87716 4.73419 0.25
133 8.27635 9.06808 10.2795 0.25
134 3.78842 4.35311 2.74833 0.25
135 6.13747 9.47169 8.1713 0.5
136 8.46262 8.80151 7.37173 0.25
137 1.65059 9.58065 1.8759 0.25
138 7.03627 4.33797 4.78856 0.25
139 7.11447 3.63917 7.98688 0.5
140 4.23767 8.21178 3.69938 0.25
141 2.28258 1.39157 1.25495 0.25
142 2.38582 2.90178 4.89534 0.25
143 7.81733 2.44303 3.32329 0.25
144 9.6466 6.60623 2.63795 0.25
145 3.15164 7.83922 5.87662 0.25
146 6.94415 8.87464 3.17882 0.25
147 3.91325 5.84568 4.18879 0.25
148 2.4636 1.62578 10.11 0.25
149 10.1057 8.14506 9.2685 0.25
150 4.42394 4.86253 7.83278 0.25
151 6.96912 9.86041 10.067 0.25
152 4.1997 9.85857 1.24962 0.25
153 5.15949 1.65936 7.43156 0.25
154 5.50449 9.58817 7.79413 0.25
155 4.08999 5.83043 1.57321 0.25
156 1.06099 8.59278 7.47508 0.25
157 4.57653 1.63395 3.85455 0.25
158 8.74108 9.39264 6.95545 0.25
159 3.58577 2.74553 4.98437 0.25
160 2.65944 3.40168 7.89869 0.25
161 3.49152 0.163618 9.63636 0.25
162 3.69508 2.66568 5.77904 0.5
163 6.66785 9.91417 2.49023 0.25
164 5.1902 8.37296 7.91101 0.25
165 0.921214 3.01751 9.56004 0.25
166 7.70729 3.96416 7.12078 0.25
167 8.96847 10.2277 4.06154 0.25
168 0.309959 7.62789 9.21151 0.25
169 9.7576 6.5436 7.10672 0.25
170 3.2565 0.42552 8.44902 0.25
171 1.09985 9.09949 7.2669 0.25
172 9.4238 5.91967 7.51673 0.25
173 10.3411 1.71533 4.47584 0.25
174 4.13723 2.00617 5.92156 0.25
175 9.19266 3.38807 6.77767 0.25
176 0.983011 6.4506 0.831334 0.25
177 9.10602 6.32054 7.54785 0.25
178 7.06404 1.14511 5.09404 0.25
179 2.92416 9.53814 7.72051 0.25
180 7.48641 9.11928 2.72101 0.5
181 0.690943 4.11673 5.5487 0.25
182 7.57176 2.17365 2.95769 0.25
183 2.7753 9.72898 4.62049 0.25
184 9.01126 5.26691 9.45533 0.25
185 8.94066 9.15124 6.6199 0.25
186 2.92848 7.51106 9.77961 0.25
187 3.51813 3.8648 10.1232 0.25
188 5.16186 2.18025 7.35226 0.25
189 10.2013 0.376804 5.94255 0.25
190 2.70672 7.64719 3.67517 0.25
191 5.37975 2.58752 8.88449 0.25
192 8.79119 9.13272 7.44332 0.25
193 5.14156 2.1378 8.91413 0.25
194 4.04725 9.37324 1.16143 0.25
195 5.28769 4.76429 9.62987 0.25
196 5.5749 2.4857 0.0248367 0.25
197 8.75523 6.39882 6.80983 0.5
198 7.38168 1.80232 7.01021 0.5
199 6.92727 10.3341 9.95604 0.25
200 6.9752 0.894258 6.4931 0.25
201 6.29574 6.47909 6.84998 0.25
202 3.46571 8.22781 5.18439 0.25
203 4.60687 9.33709 0.222778 0.25
204 0.954761 3.93217 6.33617 0.25
205 4.19754 0.76626 6.6174 0.25
206 0.400167 1.82576 4.3048 0.25
207 1.16082 5.37432 3.62166 0.5
208 3.84222 4.50961 6.17404 0.25
209 7.05817 9.71455 2.85256 0.25
210 4.24169 0.538037 6.198 0.25
211 1.61036 4.8282 2.27602 0.25
212 0.173464 3.89468 1.91671 0.5
213 9.43833 3.92701 1.13056 0.25
214 3.28105 5.11169 5.92009 0.25
215 10.0465 0.938718 8.74863 0.25
216 4.82845 2.40831 0.432789 0.25
217 0.528298 7.73142 5.9421 0.25
218 2.56591 1.13195 1.96191 0.5
219 0.930735 4.30725 5.96565 0.25
220 7.11936 9.33889 2.03456 0.25
221 8.14073 6.87524 4.06744 0.25
222 9.55115 6.21176 6.71632 0.25
223 5.6754 8.95749 5.21314 0.25
224 9.85386 2.95206 6.99131 0.25
225 7.78525 1.49914 5.48168 0.25
226 6.40073 8.92812 5.83584 0.25
227 6.97769 0.00884751 1.12157 0.25
228 5.64642 1.70139 0.840568 0.25
229 3.03514 2.07323 1.45683 0.25
230 8.1329 7.46249 4.70126 0.25
231 6.79904 4.01213 6.84843 0.25
232 7.0405 9.63778 2.40253 0.25
233 8.09211 2.0142 9.28873 0.5
234 4.69222 9.36052 1.6921 0.25
235 1.13071 8.99258 7.78083 0.25
236 1.37107 5.21127 0.52532 0.25
237 7.7038 1.98081 3.38815 0.25
238 1.05844 5.60191 4.41342 0.25
239 0.371088 3.42277 10.0079 0.25
240 1.42007 8.86417 2.09653 0.5
241 1.43034 9.63936 2.31486 0.25
242 3.18048 7.31537 5.97181 0.25
243 1.80334 5.942 0.701211 0.25
244 1.30812 0.855365 6.73551 0.25
245 6.36172 6.96518 6.98126 0.25
246 2.42963 8.17507 10.1411 0.25
247 2.49736 7.2422 2.75689 0.25
248 5.49482 2.22075 8.54385 0.25
249 6.41128 3.92973 4.73325 0.25
250 7.30739 1.19942 6.56798 0.25
251 0.888689 1.68895 6.4647 0.25
252 6.9938 7.55182 8.32106 0.25
253 4.26161 7.31104 8.9158 0.25
254 1.55948 9.75867 1.48628 0.25
255 1.70508 0.630447 1.65207 0.25
256 3.32177 5.46975 4.61864 0.25
257 0.933926 10.2735 9.58289 0.25
258 4.78466 5.32253 7.32165 0.25
259 1.89203 9.90644 3.92819 0.25
260 0.531949 9.88311 10.1543 0.25
261 7.12664 6.18121 8.68583 0.25
262 5.06134 6.55237 3.70131 0.25
263 8.69161 8.83897 9.68211 0.25
264 7.71223 9.5075 9.94496 0.5
265 4.07753 3.60538 2.45809 0.25
266 4.75959 3.11352 2.7881 0.25
267 3.84017 8.32638 5.94167 0.25
268 3.51064 7.58698 6.13841 0.25
269 7.83428 8.85755 5.98036 0.25
270 3.92693 7.90283 6.29407 0.25
271 3.90056 9.17568 1.60535 0.25
272 6.28914 7.07894 5.50526 0.25
273 10.117 3.48805 7.73466 0.25
274 3.36141 4.68832 6.17978 0.25
275 10.0932 6.58429 2.84167 0.25
276 8.07612 0.956625 8.80899 0.25
277 3.09833 10.3002 7.95443 0.5
278 4.18494 6.00586 8.40218 0.25
279 3.1415 0.127601 8.70378 0.25
280 3.57215 0.672509 9.77971 0.25
281 4.88014 8.34752 3.18682 0.25
282 5.32103 1.45652 3.55194 0.25
283 9.69354 0.454083 9.31191 0.25
284 1.61567 5.18621 0.0631809 0.25
285 8.67355 6.91645 1.23528 0.25
286 0.129513 1.58612 1.7564 0.25
287 1.14784 8.44327 2.67426 0.25
288 1.10448 5.75656 4.84683 0.25
289 9.25983 1.54651 1.03699 0.25
290 8.69575 3.9773 1.57687 0.25
291 7.64655 2.55505 9.71965 0.25
292 4.23039 9.50441 1.5839 0.25
293 4.70148 2.40258 6.77974 0.5
294 9.83191 6.14933 2.81648 0.25
295 7.07676 0.879539 7.19785 0.5
296 2.38538 2.82688 4.34207 0.25
297 0.480001 8.14795 5.65235 0.25
298 4.03726 9.70561 0.818899 0.25
299 9.12856 5.05629 9.87671 0.25
300 2.41957 10.0559 4.57087 0.25
301 4.66414 8.32064 7.74764 0.25
302 4.90985 4.65535 7.76658 0.25
303 8.83484 5.8014 9.9637 0.5
304 4.7676 4.2773 2.54868 0.25
305 1.54038 8.20879 2.41199 0.25
306 0.199912 8.08038 9.35184 0.25
307 0.191582 9.95336 9.73698 0.25
308 8.83608 5.67612 6.85296 0.25
309 7.97717 1.76996 8.48602 0.25
310 6.76939 6.54344 6.14073 0.25
311 1.91465 1.05316 2.3087 0.25
312 8.91034 1.02488 8.55529 0.5
313 1.98737 8.47833 2.40557 0.25
314 0.880792 3.675 1.83777 0.25
315 2.97894 0.612932 9.19904 0.5
316 7.70007 3.98553 7.66691 0.25
317 6.30499 10.1566 8.60224 0.25
318 0.479247 7.9976 8.91942 0.25
319 9.73274 9.47545 4.1022 0.25
320 0.360391 2.6086 0.0933752 0.25
321 2.80782 1.5598 1.40907 0.25
322 0.649772 7.09588 4.27993 0.25
323 6.54343 10.0844 9.38394 0.5
324 7.33566 2.57373 3.23202 0.25
325 9.11318 3.97643 1.72363 0.25
326 2.46716 10.2829 5.37845 0.25
327 1.7916 8.72429 7.18167 0.25
328 4.43663 3.94437 2.44175 0.25
329 8.77997 7.141 4.42118 0.5
330 10.243 6.50006 1.9693 0.25
331 9.13234 9.99135 4.5024 0.25
332 5.51385 7.83802 0.286033 0.25
333 10.2535 7.35386 9.03688 0.25
334 6.59909 4.90333 1.75157 0.25
335 5.80549 4.65723 0.622278 0.25
336 9.44861 3.68613 1.54723 0.25
337 4.74997 5.48692 8.65167 0.25
338 7.7353 8.46169 2.37349 0.25
339 3.96497 5.92919 8.88176 0.25
340 0.814174 2.76456 10.2851 0.25
341 3.7537 5.76922 4.64579 0.25
342 9.66639 3.62743 7.47993 0.25
343 9.92904 1.70704 4.12953 0.25
344 5.55975 0.780238 3.96458 0.25
345 6.12157 4.15444 0.0707342 0.25
346 2.00044 1.66043 7.37669 0.25
347 2.83693 3.97543 0.171697 0.25
348 6.41935 7.57126 0.308121 0.25
349 4.7105 1.43368 7.55024 0.25
350 2.18284 3.40059 7.79406 0.25
351 5.81743 6.37514 3.92533 0.25
352 8.41265 6.60431 1.47226 0.25
353 9.90249 3.14459 7.46386 0.25
354 9.52687 4.23873 2.41973 0.25
355 2.26452 1.73067 2.26038 0.25
356 4.36613 10.0936 0.816263 0.25
357 3.06881 4.70765 5.76538 0.25
358 4.33575 9.73544 0.420216 0.25
359 9.11305 6.76896 0.572405 0.5
360 3.87123 0.806996 6.26103 0.25
361 10.2994 0.653626 6.34303 0.25
362 0.329171 7.49515 8.76874 0.25
363 7.42898 2.49495 2.06629 0.25
364 9.98544 6.35744 2.39564 0.25
365 6.11979 8.98751 5.42149 0.25
366 9.06401 4.23266 1.31518 0.25
367 3.55198 0.400796 8.82834 0.25
368 9.60154 6.3932 7.49912 0.25
369 8.96061 4.93332 4.52674 0.5
370 4.60396 1.40852 6.80138 0.5
371 9.51637 6.68309 1.906 0.5
372 0.942813 2.35312 4.15711 0.5
373 3.53835 10.3244 8.54157 0.25
374 3.71861 0.511088 9.31548 0.25
375 5.12315 1.71468 3.92343 0.25
376 0.778716 5.82862 4.11791 0.25
377 10.3397 7.83922 8.94128 0.25
378 9.49752 9.33394 1.30924 0.25
379 0.438781 3.89493 6.48188 0.25
380 1.97191 2.84395 4.56903 0.25
381 6.66096 5.60809 2.0755 0.5
382 2.51704 7.77697 9.79138 0.25
383 5.65371 8.39488 8.07846 0.25
384 1.9321 6.9646 7.66098 0.25
385 1.09667 6.92916 5.05001 0.25
386 1.57273 5.72393 7.51625 0.25
387 1.42218 6.23299 7.35528 0.25
388 3.03232 2.18077 1.97991 0.25
389 4.71676 2.00036 0.676276 0.25
390 3.27158 4.22701 0.00538821 0.25
391 4.6587 0.705326 6.47775 0.25
392 0.672108 5.78358 5.08645 0.25
393 9.27298 8.84357 6.80701 0.25
394 10.2438 0.783588 6.88391 0.25
395 1.858 4.31312 2.9585 0.25
396 3.10052 0.454658 9.93281 0.25
397 7.65998 2.64006 2.84608 0.25
398 9.66731 4.81762 9.11186 0.25
399 2.67714 9.86912 7.4596 0.25
400 8.03057 2.43295 0.0856774 0.25
401 5.3997 6.5886 4.10239 0.25
402 4.37934 5.74023 8.84905 0.25
403 6.08598 5.0465 0.49857 0.25
404 8.32357 3.40965 10.3426 0.25
405 1.33687 5.71013 0.694999 0.25
406 6.51711 9.30519 5.51109 0.25
407 7.1361 6.64955 8.54743 0.25
408 9.54482 8.67862 1.81133 0.25
409 9.50175 6.11576 2.43598 0.25
410 4.34536 0.757981 2.97018 0.25
411 7.8912 8.87919 9.51487 0.25
412 4.78977 1.9243 7.33485 0.25
413 7.40793 2.81408 2.4495 0.25
414 6.3068 4.99056 2.48198 0.25
415 4.84759 0.991407 3.93296 0.5
416 10.0611 0.7904 9.21213 0.25
417 3.77133 7.64396 5.57466 0.5
418 0.544212 0.967669 6.5686 0.5
419 9.20431 0.112186 4.48744 0.25
420 5.45536 8.73491 7.72095 0.25
421 9.38857 6.69093 6.82216 0.25
422 2.4826 7.1897 3.57519 0.25
423 1.72007 4.79787 2.81038 0.25
424 0.153675 0.0761479 9.56539 0.25
425 2.20581 0.151976 4.43772 0.25
426 2.74216 1.8663 2.23606 0.25
427 6.90396 1.39013 6.51491 0.25
428 7.44806 9.86751 2.58418 0.25
429 5.22537 9.16789 7.58778 0.25
430 10.2798 9.89186 3.62666 0.25
431 6.67736 0.380351 0.966307 0.25
432 3.28598 7.81029 9.79604 0.25
433 2.68331 2.57645 5.23906 0.25
434 6.06766 9.80845 8.85067 0.25
435 0.0492948 3.39276 9.62754 0.25
436 6.41615 4.52271 10.2195 0.25
437 0.718537 6.30743 0.0334512 0.25
438 7.48798 0.775785 6.52389 0.25
439 9.70042 10.234 4.00972 0.5
440 2.35032 2.67595 7.80776 0.5
441 0.898614 3.80852 2.31571 0.25
442 5.80996 7.08054 0.291283 0.25
443 9.51292 9.6601 3.66106 0.25
444 1.28018 3.49689 2.15882 0.25
445 5.77526 6.89884 3.9266 0.25
446 8.25141 4.66347 4.30222 0.25
447 6.51775 4.87212 0.212858 0.25
448 4.9967 1.0248 3.03618 0.5
449 0.0907579 0.377976 6.70812 0.25
450 2.09449 1.41481 2.50917 0.25
451 3.49186 3.6236 0.55693 0.25
452 5.7236 4.18379 5.12415 0.25
453 6.77645 4.1223 8.43358 0.25
454 1.38668 5.88963 8.4809 0.25
455 1.41578 5.58344 8.04638 0.25
456 3.07184 1.72199 1.83101 0.25
457 10.2261 8.99699 1.49179 0.5
458 1.85931 6.04422 7.21288 0.25
459 0.908479 1.5598 6.93414 0.25
460 2.11187 5.70228 7.52531 0.25
461 3.58797 5.83889 1.64115 0.25
462 3.44259 6.31187 1.66253 0.25
463 1.53779 10.177 4.20359 0.25
464 9.99196 0.965746 1.49179 0.25
465 6.76072 5.13146 2.67667 0.25
466 4.97945 5.35583 7.99835 0.5
467 3.35467 5.51093 5.54295 0.25
468 1.94125 1.5076 2.05826 0.25
469 4.06314 4.3616 3.13796 0.25
470 3.8787 3.52071 2.89496 0.25
471 3.10442 9.98438 4.95157 0.25
472 1.85944 2.08119 7.5887 0.25
473 2.88285 7.83089 9.40876 0.25
474 8.93173 4.40833 1.69279 0.25
475 8.83736 7.78996 4.08062 0.25
476 3.89322 6.61029 1.62572 0.25
477 9.86073 9.88788 3.37171 0.25
478 8.85045 6.11185 1.11645 0.5
479 7.36981 0.263443 1.37265 0.25
480 2.85608 8.05453 9.80521 0.25
481 4.57941 9.86311 1.59269 0.25
482 6.37552 9.824 5.35074 0.25
483 6.91863 0.03284 0.342142 0.5
484 9.55565 3.26968 7.11614 0.25
485 8.32127 3.02666 10.0074 0.25
486 4.66332 8.02861 3.53831 0.25
487 3.01067 3.86913 10.0696 0.25
488 7.50225 9.60592 2.19389 0.25
489 8.91355 6.93561 3.69593 0.25
490 2.84326 3.07346 8.18465 0.25
491 8.8098 8.93424 7.02995 0.25
492 7.55478 2.40046 10.2024 0.25
493 9.6191 3.67088 6.96498 0.25
494 8.4518 4.56986 5.08714 0.25
495 9.66374 3.28539 6.6454 0.25
496 4.33312 1.48644 6.10025 0.25
497 2.9799 3.64659 0.487349 0.25
498 8.38606 1.35556 9.00452 0.25
499 4.34716 9.03321 1.49341 0.25
500 4.71026 7.23227 8.79 0.25
501 2.44927 0.0604285 4.87067 0.25
502 8.98316 5.93421 7.29961 0.25
503 6.98561 8.06793 2.55371 0.25
504 5.77661 7.65444 0.780885 0.25
505 7.24707 1.03456 5.86909 0.5
506 5.52241 9.67196 4.76721 0.25
507 7.41454 8.3467 2.70065 0.25
508 4.93295 8.51845 8.66689 0.25
509 1.58844 9.04182 7.92832 0.25
510 6.00832 3.96852 5.47359 0.25
511 4.35666 1.01818 6.22876 0.25
512 1.49376 5.19729 2.60665 0.25
513 1.34404 5.33956 9.94083 0.25
514 3.06086 2.31515 5.57498 0.25
515 1.4832 1.98359 6.93387 0.5
516 5.82704 9.47871 5.77365 0.5
517 8.87352 7.422 3.74163 0.25
518 2.64456 0.688062 9.88732 0.25
519 2.85773 10.2519 4.65278 0.25
520 5.21607 1.85083 6.97977 0.25
521 0.929169 4.42613 5.18406 0.25
522 1.95122 0.0692175 3.96478 0.25
523 2.57113 3.30857 7.46053 0.25
524 7.37717 1.26405 4.71103 0.25
525 2.33556 6.62734 7.58677 0.25
526 1.71867 5.61035 8.42456 0.25
527 6.56882 9.13836 2.64568 0.5
528 7.31552 8.51471 3.14695 0.25
529 4.40843 6.81084 1.51732 0.25
530 1.86933 8.19699 2.0594 0.25
531 0.103986 3.07849 9.25587 0.25
532 1.95197 8.27771 10.0128 0.25
533 9.08015 0.0416767 3.60217 0.25
534 8.51664 4.90516 3.92056 0.25
535 7.08274 7.44747 8.84615 0.25
536 4.17486 9.31869 0.589214 0.25
537 7.56023 1.88508 2.5839 0.25
538 6.58764 3.91926 7.61973 0.25
539 10.2775 3.59526 6.98182 0.5
540 5.73831 10.0269 7.96947 0.25
541 9.58887 8.88864 1.38847 0.25
542 7.80971 9.33385 6.04302 0.25
543 9.10353 4.34118 4.11392 0.25
544 1.57155 1.67141 7.63492 0.25
545 10.2341 9.65496 4.10626 0.25
546 10.011 0.857723 5.97329 0.25
547 9.42564 3.89989 2.0734 0.25
548 9.38423 4.50729 9.37965 0.25
549 2.06804 0.940978 1.50519 0.25
550 9.54056 9.20007 1.78877 0.25
551 2.68461 7.73667 2.81823 0.25
552 9.17712 9.26378 7.08989 0.25
553 5.42002 2.82261 5.60515 0.25
554 8.63184 4.42678 4.09145 0.25
555 5.71466 9.11955 7.64511 0.25
556 1.4194 9.3412 7.53437 0.25
557 3.14729 9.78908 7.41144 0.25
558 2.77091 3.53659 8.3729 0.25
559 9.64375 1.2576 8.63219 0.25
560 3.56725 4.69793 5.69237 0.25
561 0.841669 4.0365 1.5027 0.25
562 5.08306 5.00057 10.0196 0.25
563 5.45413 9.81644 8.23981 0.25
564 1.63978 1.22639 6.82887 0.25
565 1.76211 1.07892 1.83168 0.25
566 9.76527 6.05996 7.13483 0.25
567 1.38957 6.11535 0.930549 0.25
568 7.54529 1.13588 5.15238 0.25
569 7.17326 4.41886 7.3837 0.5
570 4.29318 4.39446 2.68864 0.25
571 4.2553 3.24313 2.71823 0.25
572 8.43813 1.69698 8.6634 0.25
573 0.596208 6.78754 5.13547 0.25
574 0.182803 0.740597 5.92062 0.25
575 6.00056 4.19672 4.65567 0.25
576 5.2115 1.85101 0.943274 0.25
577 0.491929 8.22665 5.11707 0.25
578 0.914844 5.57823 0.128748 0.5
579 5.17156 4.99481 7.3851 0.25
580 8.92162 7.82285 4.56443 0.25
581 7.61011 6.83555 8.69579 0.25
582 6.81327 3.96075 5.0355 0.25
583 8.38477 5.68944 6.65873 0.25
584 5.6757 7.07155 3.46179 0.25
585 6.89913 0.379512 1.41409 0.25
586 1.60394 2.55756 4.44815 0.25
587 5.87395 9.88307 5.07589 0.25
588 2.77485 1.33838 9.24959 0.25
589 9.89099 3.94785 2.25072 0.25
590 8.44863 7.10481 3.80008 0.25
591 3.35306 2.32859 5.20365 0.25
592 6.78209 5.57445 2.92849 0.25
593 5.09716 9.51104 5.47807 0.25
594 8.69779 6.47182 0.0511915 0.25
595 2.32728 1.94453 7.59769 0.25
596 9.77493 8.38989 1.47092 0.25
597 5.48305 1.33066 3.99812 0.25
598 5.44874 7.39252 0.522069 0.25
599 10.125 1.21401 1.91285 0.25
600 3.89197 9.52934 1.93069 0.25
601 7.10109 10.1254 2.6057 0.25
602 6.59977 7.95415 2.23104 0.25
603 2.30415 6.17784 7.3618 0.25
604 9.00575 0.830405 1.34725 0.25
605 1.49193 7.82001 2.16565 0.25
606 1.58937 1.31645 7.31387 0.25
607 2.18638 2.09762 7.17307 0.25
608 6.34052 6.02704 5.80927 0.5
609 3.42107 6.10672 1.21472 0.25
610 6.4775 4.69082 0.991489 0.5
611 8.46845 8.35266 7.55715 0.25
612 8.46352 0.0951598 4.50145 0.5
613 8.18767 2.67321 9.71277 0.25
614 9.62653 6.92694 1.18339 0.25
615 7.58634 4.24399 8.13281 0.25
616 1.18804 1.21323 7.06796 0.25
617 2.35926 3.22798 8.27126 0.25
618 8.17707 2.97422 0.138475 0.25
619 1.19333 9.62651 1.84718 0.25
620 6.35373 5.44231 2.7251 0.25
621 6.84009 5.23357 1.43097 0.25
622 7.54552 7.32477 8.81724 0.25
623 7.74756 4.35951 4.82377 0.5
624 4.84735 8.5436 8.15065 0.25
625 5.05714 2.50076 0.0118163 0.25
626 2.013 2.56353 4.14621 0.25
627 6.97499 5.91728 2.71197 0.25
628 0.416002 9.49908 9.86962 0.25
629 7.386 10.1735 10.102 0.25
630 6.18519 7.29262 0.000428134 0.25
631 8.04242 1.84938 5.24137 0.25
632 3.25015 3.74234 0.103032 0.25
633 3.23914 4.04456 0.459151 0.25
634 4.72379 7.84683 8.35196 0.5
635 9.35417 6.25916 7.14302 0.25
636 8.63385 5.07377 9.72515 0.25
637 6.59849 8.84816 5.31086 0.25
638 1.77771 10.1067 4.97056 0.5
639 6.96576 2.76005 2.12336 0.25
640 7.66925 1.73773 7.68236 0.25
641 3.40316 5.77055 4.24026 0.25
642 3.56775 7.74344 6.58201 0.25
643 2.73167 1.86864 9.81544 0.25
644 6.18733 9.30088 4.81668 0.5
645 3.6577 3.5223 0.102704 0.25
646 8.4197 7.7382 4.37916 0.25
647 6.5474 6.72284 5.75102 0.25
648 7.21177 1.45242 7.63678 0.25
649 4.65095 5.89915 8.49051 0.25
650 7.34419 1.75103 3.0226 0.25
651 4.95558 8.71844 7.71513 0.25
652 1.25385 5.40491 8.5023 0.25
653 0.875026 4.64389 5.59251 0.25
654 1.50912 6.73084 7.49896 0.25
655 9.82014 3.68387 1.8769 0.25
656 4.67238 4.91853 7.40352 0.25
657 8.37221 9.24669 7.22059 0.25
658 6.44658 3.91334 8.13078 0.25
659 8.74391 9.84547 4.18336 0.25
660 1.79503 6.24496 7.95375 0.5
661 2.55321 7.47638 3.19161 0.25
662 7.55095 8.53434 6.28622 0.25
663 3.59684 1.02944 9.37009 0.25
664 0.856053 2.19245 9.74566 0.25
665 8.48239 6.66374 0.89384 0.25
666 5.63682 9.65184 8.65595 0.25
667 7.90109 3.25487 10.1751 0.25
668 6.7689 1.45545 5.39546 0.25
669 3.54465 7.52991 9.21551 0.5
670 0.296362 3.50567 9.17733 0.25
671 0.897742 6.3631 4.59009 0.5
672 5.66008 6.45904 5.80961 0.25
673 4.10451 9.95489 1.73356 0.25
674 7.12874 4.73574 5.05749 0.25
675 8.15495 8.69836 7.73178 0.25
676 5.2589 1.82521 0.229628 0.5
677 9.40162 3.21536 7.57838 0.25
678 9.66413 0.464776 6.51866 0.5
679 1.85908 2.50755 7.23675 0.25
680 2.72679 7.05499 3.14537 0.25
681 8.01444 8.9957 7.35085 0.25
682 3.89125 8.37278 5.46136 0.25
683 0.879321 2.55434 9.38702 0.25
684 1.55231 9.14514 7.09506 0.25
685 9.15263 0.375687 4.00299 0.25
686 6.79202 9.61509 5.35541 0.25
687 9.20704 3.58279 7.26556 0.25
688 6.63537 7.17121 0.158084 0.25
689 2.17404 2.11568 3.90524 0.25
690 9.87993 7.72315 9.09991 0.25
691 0.889041 8.05243 5.86468 0.25
692 1.20006 4.25345 5.54702 0.25
693 9.61134 2.13594 4.03985 0.25
694 3.27987 3.42 10.1451 0.25
695 7.8077 1.51146 4.9279 0.25
696 4.43535 1.39622 3.46543 0.25
697 1.45122 8.86901 7.49393 0.25
698 8.4079 5.87198 0.576865 0.25
699 3.07534 7.93152 5.37897 0.25
700 6.59651 7.53691 10.167 0.25
701 3.34209 5.04014 5.43479 0.25
702 5.9419 3.72289 4.51886 0.25
703 2.04782 0.675812 1.98097 0.25
704 7.28402 4.08378 8.51463 0.25
705 4.33625 5.90528 9.26945 0.25
706 7.68262 1.32478 7.39493 0.25
707 6.07227 6.66868 5.54705 0.25
708 5.27335 7.00951 3.7807 0.25
709 1.52791 4.14293 1.86775 0.5
710 1.31235 4.73331 5.37854 0.25
711 7.37605 3.70313 7.34164 0.25
712 4.65046 7.92463 3.07921 0.25
713 1.35674 5.54873 2.9152 0.25
714 1.9637 10.1321 4.32856 0.25
715 3.15797 3.43724 8.06994 0.25
716 9.74193 8.66084 1.01651 0.25
717 3.40982 5.74408 5.02665 0.25
718 5.6826 3.39874 5.21048 0.5
719 5.08214 3.07583 5.24091 0.25
720 4.27182 1.23779 3.04393 0.25
721 3.84669 7.37334 6.40081 0.25
722 4.16331 5.01662 4.34342 0.25
723 5.75624 6.37811 6.70248 0.25
724 9.61778 0.902476 8.99714 0.25
725 3.87006 0.353358 6.499 0.25
726 3.75441 5.3785 4.34142 0.25
727 4.19603 5.49229 4.51238 0.25
728 2.85871 7.82801 0.141549 0.5
729 7.45349 1.76206 5.80512 0.25
730 7.93195 1.42973 8.85527 0.25
731 0.934475 6.13281 9.94599 0.25
732 3.13332 7.71246 6.33052 0.25
733 9.6285 2.95199 4.23559 0.25
734 8.1486 7.3355 4.16257 0.25
735 3.16229 2.7612 5.30552 0.25
736 8.90947 6.14771 6.14926 0.25
737 0.462947 4.49809 5.35915 0.25
738 5.28421 8.29002 8.40238 0.25
739 2.84843 3.48585 0.0335976 0.25
740 8.80744 6.71558 1.6648 0.25
741 6.98842 2.30937 1.93423 0.25
742 5.08621 2.30408 0.854969 0.25
743 9.52305 2.47704 4.44557 0.25
744 2.20892 2.15405 4.70236 0.5
745 0.411049 4.38914 5.87038 0.25
746 6.34735 5.23571 1.46548 0.25
747 7.21732 2.47969 9.836 0.25
748 7.2411 9.97915 9.67024 0.25
749 7.12512 4.41535 8.13866 0.25
750 4.20313 1.93611 6.43442 0.25
751 1.47361 2.07227 4.6252 0.25
752 9.5308 2.57772 3.92951 0.25
753 0.256951 2.63543 9.78477 0.5
754 7.91066 1.94698 5.69208 0.25
755 7.90792 2.76559 10.1142 0.25
756 5.04198 1.5295 1.30364 0.25
757 10.2766 2.44565 4.25653 0.5
758 2.13219 9.67598 4.35738 0.25
759 4.88989 2.64447 8.04411 0.25
760 4.55379 0.530533 3.34374 0.25
761 5.71297 6.20393 6.26389 0.25
762 0.616639 4.35545 6.32465 0.25
763 6.41664 4.49653 5.21829 0.5
764 6.05142 6.75087 3.55966 0.25
765 6.81031 7.05325 8.60731 0.25
766 1.69451 5.22545 3.08587 0.25
767 6.96929 3.04022 2.5201 0.25
768 4.72808 2.51148 5.60356 0.5
769 0.473575 3.06407 0.0114029 0.25
770 6.10915 6.83952 6.25596 0.5
771 6.71909 7.40002 0.643286 0.25
772 7.16345 9.01959 5.74202 0.5
773 5.71991 4.31011 0.276646 0.25
774 6.97965 8.55617 2.78656 0.25
775 10.219 7.67818 9.43047 0.25
776 4.82969 9.69721 0.229185 0.25
777 1.4427 8.17385 1.85938 0.25
778 2.78033 0.417741 8.55238 0.25
779 9.81325 7.81993 9.56375 0.25
780 5.38003 5.27794 9.6658 0.25
781 5.23282 6.79707 3.29922 0.25
782 9.49893 6.45159 1.15299 0.25
783 4.68737 8.49778 3.57765 0.25
784 3.22406 3.26577 0.28125 0.25
785 8.6341 8.78821 7.86555 0.25
786 6.12308 6.84695 5.05177 0.25
787 6.0817 6.33671 5.1834 0.25
788 4.31854 0.912162 3.43344 0.25
789 7.39416 5.295 2.11977 0.25
790 4.58056 1.95028 6.16958 0.25
791 8.40959 6.10101 6.29011 0.25
792 4.54799 3.7645 3.12229 0.5
793 0.0259072 0.590209 8.91992 0.25
794 1.98266 1.46477 1.5789 0.25
795 1.85258 8.653 7.69842 0.25
796 2.65519 10.1043 3.93844 0.5
797 0.11256 10.1254 3.99124 0.25
798 8.9958 4.67343 3.78391 0.25
799 3.78439 5.50984 0.974038 0.5
800 10.1207 1.23549 1.09369 0.25
801 6.12634 10.2051 9.99105 0.25
802 6.06015 7.91294 0.461693 0.25
803 9.44662 4.95768 9.51675 0.25
804 4.35016 5.26302 7.64339 0.25
805 8.77738 4.14161 4.45989 0.25
806 2.55937 9.83795 7.93091 0.25
807 2.9337 5.18711 5.57221 0.25
808 8.65505 4.97507 9.20967 0.25
809 1.33123 5.84499 9.92208 0.25
810 7.25122 1.61671 6.2647 0.25
811 9.33221 4.61941 9.8342 0.25
812 3.84421 6.17946 1.37876 0.25
813 1.35964 3.79227 2.53037 0.25
814 0.910264 9.64118 10.1678 0.25
815 3.86419 5.12081 5.00576 0.5
816 6.48709 0.16042 10.0399 0.25
817 4.74798 9.47282 0.960861 0.5
818 8.85446 6.06468 0.353456 0.25
819 4.30505 6.32154 1.56643 0.25
820 7.41275 4.59167 8.4837 0.25
821 8.09367 8.50591 7.25976 0.25
822 3.63401 3.82913 2.62522 0.25
823 2.14743 9.28292 7.52783 0.5
824 6.87083 3.75194 7.26511 0.25
825 8.19031 8.98851 6.61584 0.5
826 6.49895 2.92197 2.33293 0.25
827 9.31863 6.44932 6.40352 0.25
828 9.87033 3.77386 1.36118 0.25
829 0.537617 7.93461 4.72252 0.25
830 4.10288 6.56406 1.17987 0.25
831 2.19019 7.18776 3.16847 0.25
832 3.99308 5.48044 9.13572 0.25
833 6.55525 6.26175 6.47735 0.25
834 8.4954 4.06454 4.86358 0.25
835 1.18017 1.30399 6.5884 0.25
836 7.13325 4.98738 2.38487 0.25
837 3.89636 7.0581 8.68458 0.25
838 2.85793 9.45316 7.25806 0.25
839 10.3426 2.82879 3.60514 0.25
840 8.96901 5.14949 3.80394 0.25
841 5.8343 4.86917 10.1563 0.5
842 7.2808 7.12914 8.43487 0.25
843 1.37957 9.30966 1.5206 0.25
844 7.05885 5.00249 1.88817 0.25
845 8.30326 4.08904 4.38603 0.25
846 0.679406 5.36907 4.22688 0.25
847 7.49 2.93779 10.0599 0.25
848 3.11387 1.24628 9.91408 0.5
849 7.14426 5.51682 2.59199 0.25
850 4.21239 7.88553 3.34186 0.25
851 3.77238 6.26677 0.919687 0.25
852 4.59263 1.68854 3.04966 0.25
853 9.22863 9.70835 4.10222 0.25
854 2.99876 3.10688 7.68279 0.25
855 3.87428 6.15427 1.88408 0.25
856 9.09203 3.12051 7.18556 0.25
857 6.333 3.47249 4.83377 0.25
858 8.44777 6.62288 4.85794 0.25
859 9.6743 1.30593 1.25786 0.25
860 3.23291 9.94499 4.46773 0.25
861 4.42504 9.64627 1.98723 0.25
862 7.56665 1.11435 8.16949 0.5
863 0.622876 2.98209 9.19382 0.25
864 5.10186 3.47823 2.68397 0.25
865 0.660532 7.07524 4.77793 0.25
866 2.38855 1.13301 10.0247 0.25
867 3.05499 8.13133 9.01592 0.25
868 9.50844 0.869323 1.50709 0.25
869 0.537006 8.60957 5.43108 0.25
870 7.18441 6.97498 8.9107 0.25
871 6.52121 2.505 2.01876 0.25
872 8.33185 1.48577 7.85807 0.5
873 5.40117 9.17021 4.80317 0.25
874 6.86078 9.21172 5.10027 0.25
875 3.2948 7.80244 4.97638 0.25
876 4.24748 6.10407 1.09045 0.25
877 0.36331 2.03031 3.78832 0.25
878 0.304042 0.203675 9.11155 0.25
879 0.377392 7.42018 4.59458 0.25
880 5.59396 3.95888 4.71575 0.25
881 4.41681 6.54123 8.90389 0.5
882 9.73938 0.43916 5.78498 0.25
883 5.11522 3.20755 5.71462 0.25
884 2.38081 2.05438 1.62614 0.5
885 8.6864 0.263072 3.81672 0.25
886 9.3148 8.52731 1.40779 0.25
887 1.17206 5.90857 7.69322 0.25
888 2.22312 0.476959 1.58944 0.25
889 4.82013 5.022 8.62555 0.25
890 0.580563 3.90568 6.01043 0.25
891 4.61678 3.47286 2.48871 0.25
892 6.58964 8.36716 2.49336 0.25
893 8.38914 2.60082 10.165 0.25
894 2.11569 7.81424 10.1699 0.25
895 9.5331 2.82529 7.30455 0.25
896 9.64287 1.31579 1.74685 0.25
897 3.33192 7.27324 6.46752 0.25
898 0.835417 5.07583 4.9432 0.5
899 0.308949 0.330649 6.21808 0.25
900 8.45655 7.62797 3.89064 0.25
901 0.899915 8.29594 5.42718 0.25
902 4.8314 1.52791 0.855275 0.25
903 8.57606 7.60564 4.86902 0.25
904 1.40922 6.31345 0.221023 0.5
905 9.29333 1.03216 1.01959 0.25
906 9.3574 10.033 3.36246 0.25