ITEM: TIMESTEP
720000
ITEM: NUMBER OF ATOMS
1000
ITEM: BOX BOUNDS xy xz yz pp pp pp
0.0000000000000000e+00 1.0357442000000001e+01 0.0000000000000000e+00
0.0000000000000000e+00 1.0357442000000001e+01 0.0000000000000000e+00
0.0000000000000000e+00 1.0357442000000001e+01 0.0000000000000000e+00
ITEM: ATOMS id x y z radius
1 1.42761 4.33076 2.86352 0.5
2 1.96476 7.80705 2.78098 0.5
3 5.17845 2.42262 0.804476 0.25
4 0.476927 2.48282 4.59665 0.25
5 9.91606 3.70798 7.89188 0.25
6 0.37123 3.14163 9.75782 0.25
7 4.07216 0.973012 3.33951 0.25
8 8.88329 3.81729 1.4644 0.25
9 9.61882 1.54825 1.56709 0.25
10 8.58319 7.85146 4.51846 0.25
11 8.96771 8.76429 1.00575 0.25
12 8.32804 2.59209 9.90897 0.25
13 3.4397 7.3788 5.71157 0.25
14 4.94411 1.9097 10.0849 0.25
15 8.34244 6.22812 6.53275 0.25
16 8.72143 8.57082 6.62588 0.25
17 5.24003 8.90772 8.44685 0.5
18 2.77756 8.20591 10.1869 0.25
19 6.93905 4.01981 4.77909 0.25
20 8.94266 1.11008 1.47191 0.25
21 0.700759 10.2629 9.59745 0.25
22 4.1809 0.525916 3.48922 0.25
23 4.63607 3.03142 2.54434 0.25
24 2.65583 2.63166 4.12741 0.25
25 7.30955 2.09769 6.04335 0.25
26 5.38629 2.7157 8.19065 0.25
27 1.79351 7.78967 0.383314 0.25
28 8.73715 6.48203 6.76546 0.25
29 3.841 7.73927 5.61667 0.25
30 1.30798 8.33829 7.65089 0.25
31 0.903034 7.09626 5.00496 0.25
32 8.90331 6.58297 1.46721 0.25
33 8.882 8.94328 1.47709 0.25
34 0.651101 3.00034 0.153284 0.25
35 8.26027 2.10199 9.83647 0.25
36 8.53654 8.92774 9.9511 0.25
37 4.15392 5.1116 5.32605 0.25
38 7.31988 0.0407834 0.980492 0.25
39 6.32417 3.97206 5.31951 0.25
40 8.55973 4.62418 4.36085 0.25
41 7.88263 7.24165 4.45105 0.25
42 6.39056 8.73247 2.44672 0.5
43 0.304366 8.46232 5.75691 0.25
44 3.05658 10.1468 5.11146 0.25
45 7.14688 6.66572 8.16998 0.25
46 0.896047 8.60293 7.80251 0.25
47 4.10645 8.39781 3.31706 0.25
48 3.16478 9.69411 5.23432 0.25
49 4.24972 5.75922 9.12835 0.25
50 10.2437 9.79521 3.58527 0.25
51 10.1215 9.07213 1.4325 0.25
52 6.11514 7.61261 0.0388353 0.25
53 6.58645 5.46824 1.6733 0.25
54 4.97975 4.96425 7.94313 0.25
55 6.00115 7.34811 6.73725 0.25
56 5.48493 1.72647 1.11305 0.25
57 4.74291 2.23133 0.101228 0.25
58 6.20932 4.01539 0.472262 0.25
59 3.85998 6.96816 9.17376 0.25
60 7.1789 7.13163 8.09299 0.25
61 3.17557 10.2597 8.84688 0.25
62 9.19712 6.43195 6.56538 0.25
63 0.767829 5.67165 4.7903 0.25
64 10.1375 1.38173 1.59382 0.25
65 6.48266 6.65312 6.55357 0.25
66 3.97105 0.653778 3.03272 0.25
67 8.73894 5.11216 9.11615 0.25
68 6.36304 0.176037 10.2234 0.25
69 2.52304 7.965 3.23114 0.25
70 4.32247 5.2899 3.89032 0.25
71 1.19732 7.99845 2.68043 0.25
72 5.56861 6.95421 3.58077 0.25
73 9.08073 8.45796 7.33777 0.5
74 2.16718 7.73686 3.50857 0.25
75 0.749389 5.8766 0.691497 0.25
76 1.60944 7.76394 10.2197 0.25
77 6.90702 6.91408 8.50344 0.25
78 4.4237 9.65317 1.38738 0.25
79 0.915922 5.30161 9.76644 0.25
80 8.33002 8.49541 10.156 0.25
81 8.39586 9.30617 7.62998 0.25
82 2.04213 0.725569 1.92357 0.25
83 1.93513 8.44072 2.48625 0.25
84 5.21397 9.55427 5.44738 0.25
85 4.0546 5.81931 1.8062 0.25
86 9.74726 4.32505 1.8593 0.5
87 1.25736 5.22582 8.46198 0.25
88 2.99453 3.7962 8.10073 0.25
89 0.756176 9.85752 9.89855 0.25
90 7.00626 0.0123779 1.6756 0.5
91 4.58997 8.25406 3.03631 0.25
92 9.63286 0.89732 1.05082 0.25
93 8.40598 1.18994 8.38593 0.25
94 1.11661 4.64748 2.2479 0.25
95 7.31284 9.04469 6.41866 0.25
96 7.8272 1.22571 7.08996 0.25
97 5.60816 9.8485 5.45353 0.25
98 10.0697 0.693358 6.50883 0.25
99 5.29339 1.94614 8.076 0.5
100 5.708 2.7753 5.46104 0.25
101 5.35239 2.01072 9.48082 0.5
102 4.26104 5.05528 8.28455 0.5
103 6.95167 0.780878 0.973712 0.25
104 1.18013 10.1116 0.169041 0.25
105 2.15951 5.18442 3.05592 0.25
106 5.64699 6.6291 6.39202 0.25
107 5.93285 9.91627 8.41723 0.25
108 1.89789 3.61065 2.12236 0.25
109 7.32305 2.67272 3.03509 0.25
110 5.64128 10.0906 5.84994 0.25
111 1.54278 5.57801 0.39156 0.25
112 3.74087 5.31681 5.52772 0.25
113 2.28688 0.0277394 4.7698 0.25
114 8.3562 6.23265 0.271402 0.25
115 4.48383 4.24073 2.83525 0.25
116 0.198602 2.15315 3.50075 0.25
117 7.45605 2.29687 2.29239 0.5
118 6.76435 8.11496 2.55723 0.25
119 10.0048 2.54228 4.44128 0.25
120 1.58552 5.39437 10.3065 0.25
121 7.84315 2.27945 5.45574 0.5
122 2.12284 4.33778 2.56313 0.25
123 9.6613 8.3376 1.29882 0.25
124 8.24452 6.18615 0.805839 0.25
125 1.64868 0.0843766 4.33839 0.25
126 6.02745 7.32248 0.437017 0.25
127 5.91034 7.81755 0.486333 0.25
128 9.16277 9.7679 4.14538 0.25
129 1.76192 5.40522 3.18832 0.25
130 10.0459 8.57197 1.5293 0.25
131 7.81097 2.61404 2.94387 0.25
132 8.45959 4.89269 4.72142 0.25
133 8.18147 8.92573 10.284 0.25
134 4.58726 2.9366 3.08164 0.25
135 6.17356 9.22568 8.2248 0.5
136 8.41667 8.91148 7.30055 0.25
137 1.52528 9.7377 1.95052 0.25
138 7.01309 4.32002 4.39652 0.25
139 6.98733 4.58783 7.76055 0.5
140 3.84925 8.68088 3.61881 0.25
141 2.35506 1.89774 2.35467 0.25
142 2.81751 2.81283 5.04361 0.25
143 7.51244 1.28457 3.33866 0.25
144 10.0715 6.83746 2.17522 0.25
145 3.88127 7.47649 6.02818 0.25
146 7.3389 9.32957 2.89651 0.25
147 4.21051 5.75996 3.86339 0.25
148 2.9577 1.75731 10.0044 0.25
149 9.65833 7.82556 8.99622 0.25
150 4.63793 4.83843 7.62244 0.25
151 6.99133 9.77947 9.98273 0.25
152 4.49047 9.33359 0.98636 0.25
153 5.32085 1.67367 7.33611 0.25
154 5.49933 9.3402 7.86136 0.25
155 3.69438 6.5414 1.18897 0.25
156 0.904887 8.42547 7.33148 0.25
157 5.32961 0.946827 2.75622 0.25
158 8.87301 9.3854 6.89519 0.25
159 3.28395 2.79091 5.29819 0.25
160 2.76076 3.37187 7.98448 0.25
161 3.39065 0.0927247 9.31774 0.25
162 4.15054 2.18153 5.73871 0.5
163 6.60184 10.1883 2.34033 0.25
164 4.9788 8.15528 8.13106 0.25
165 0.313095 2.87298 10.1672 0.25
166 7.06491 4.48588 6.655 0.25
167 8.98916 10.1954 3.94831 0.25
168 10.2465 7.50372 9.47757 0.25
169 9.63471 6.52194 7.28627 0.25
170 3.30341 0.340077 8.19576 0.25
171 1.05894 8.78226 7.03571 0.25
172 9.56727 6.14428 6.57228 0.25
173 0.694936 1.51128 4.02838 0.25
174 4.73515 1.90621 6.00721 0.25
175 10.0864 3.27503 7.82295 0.25
176 0.443425 5.93497 0.256622 0.25
177 9.71658 5.83598 6.97904 0.25
178 7.51477 1.69423 5.21962 0.25
179 2.44453 9.45909 8.19431 0.25
180 7.26845 9.07155 2.18931 0.5
181 0.933509 4.03052 5.74626 0.25
182 7.61939 1.55313 3.83596 0.25
183 2.81172 9.76361 4.42627 0.25
184 8.78925 5.33152 9.55785 0.25
185 8.88633 9.05913 6.51147 0.25
186 2.69501 7.39027 10.0889 0.25
187 3.43584 4.26423 10.1727 0.25
188 5.27557 2.21937 7.34751 0.25
189 10.0771 0.446684 6.95751 0.25
190 2.60794 7.69921 3.72935 0.25
191 5.4242 2.60199 8.95751 0.25
192 8.84041 9.14859 7.3465 0.25
193 5.24353 2.17205 8.79913 0.25
194 4.09399 9.7065 1.02984 0.25
195 5.46747 4.9394 9.48662 0.25
196 4.93843 2.47883 10.049 0.25
197 8.95646 5.84402 6.90034 0.5
198 7.29525 1.84764 7.20845 0.5
199 7.0206 10.2439 9.87444 0.25
200 7.38715 1.03848 6.40136 0.25
201 6.00989 6.82955 6.71064 0.25
202 4.06456 8.17482 5.60808 0.25
203 4.18264 9.62509 10.246 0.25
204 0.302786 3.4743 6.26875 0.25
205 3.97455 0.33459 6.3321 0.25
206 0.62167 1.88952 3.67061 0.25
207 1.40901 5.40475 3.87659 0.5
208 4.16688 4.67591 5.52199 0.25
209 7.30789 9.65924 2.50043 0.25
210 4.02045 10.3097 6.67998 0.25
211 1.93484 4.7807 2.48577 0.25
212 0.385952 3.9149 1.99687 0.5
213 9.0465 4.26157 1.588 0.25
214 3.44801 5.00225 5.80652 0.25
215 10.154 0.807939 8.7835 0.25
216 5.40814 1.58313 0.340669 0.25
217 0.504664 8.01565 5.90769 0.25
218 1.93173 1.44668 1.85639 0.5
219 0.71828 4.21771 6.15364 0.25
220 6.59844 9.35053 2.0132 0.25
221 8.93671 7.74133 4.2312 0.25
222 9.1986 6.6289 7.03389 0.25
223 5.54699 9.55391 5.09292 0.25
224 9.81895 3.9541 7.46854 0.25
225 8.41283 1.71828 5.58721 0.25
226 6.43562 9.02941 5.12897 0.25
227 7.23385 0.467246 1.22888 0.25
228 4.89347 2.11981 0.57804 0.25
229 2.29833 2.54738 1.61266 0.25
230 8.19871 6.87589 4.53621 0.25
231 7.88364 4.29729 7.12178 0.25
232 6.90602 9.76637 2.18435 0.25
233 8.0112 1.7727 9.15095 0.5
234 3.8107 8.94377 1.21855 0.25
235 0.749773 8.92199 7.42554 0.25
236 1.35822 5.27132 0.739497 0.25
237 7.47941 1.05748 3.75713 0.25
238 1.40734 5.98033 4.32908 0.25
239 0.328453 2.8312 9.43053 0.25
240 1.45988 9.05324 2.34738 0.5
241 1.86162 9.74474 2.29631 0.25
242 3.69315 7.5181 6.43478 0.25
243 1.02317 6.2615 0.758277 0.25
244 1.41384 1.40105 6.65275 0.25
245 6.38276 7.07796 6.84665 0.25
246 2.05071 7.86825 0.00663422 0.25
247 2.69847 7.59122 2.88222 0.25
248 5.60463 2.44998 8.56719 0.25
249 6.67248 3.98141 4.39659 0.25
250 7.56128 1.40841 6.71831 0.25
251 1.01168 1.54926 6.93658 0.25
252 6.63011 6.38347 9.31206 0.25
253 3.975 7.11074 8.63368 0.25
254 1.16805 10.1333 2.05859 0.25
255 2.03202 0.867162 2.3464 0.25
256 3.46015 5.72677 4.15907 0.25
257 0.93483 10.27 10.0651 0.25
258 4.3601 5.36934 7.15036 0.25
259 2.06984 0.314184 4.49775 0.25
260 0.772397 9.4284 10.2437 0.25
261 7.04795 7.35362 8.53875 0.25
262 5.74703 6.56344 3.80161 0.25
263 8.48357 8.51064 9.68537 0.25
264 7.54439 9.27328 10.0045 0.5
265 4.02704 3.59734 2.64504 0.25
266 3.9244 3.97916 2.32407 0.25
267 3.34992 7.78667 5.54386 0.25
268 3.30746 7.49558 6.16208 0.25
269 7.63745 8.93368 6.0433 0.25
270 2.97323 7.61077 5.83128 0.25
271 3.91663 9.65985 1.51141 0.25
272 6.48997 6.96979 5.3147 0.25
273 9.52304 3.44727 6.62453 0.25
274 3.73616 4.64213 5.8389 0.25
275 10.2607 6.23315 2.64239 0.25
276 8.27133 0.730884 8.53692 0.25
277 3.02374 9.9756 8.1117 0.5
278 4.48595 5.98525 8.38234 0.25
279 2.70639 10.3221 8.7134 0.25
280 3.59856 0.551373 9.35884 0.25
281 4.52412 8.70258 3.25941 0.25
282 4.79394 1.44828 3.07112 0.25
283 9.73396 0.351064 9.36291 0.25
284 1.56824 5.06135 0.363468 0.25
285 8.39194 6.64997 1.55341 0.25
286 9.95341 1.72471 1.8623 0.25
287 1.55385 8.39482 2.74479 0.25
288 1.25508 5.5836 4.6514 0.25
289 8.95853 1.37733 1.08435 0.25
290 8.83739 3.89549 1.94426 0.25
291 7.93358 2.46355 9.62297 0.25
292 4.09434 9.2989 1.29958 0.25
293 4.76891 2.57876 6.96356 0.5
294 0.0182324 6.67247 2.54306 0.25
295 7.19467 0.903129 7.08009 0.5
296 2.66564 2.8549 4.57876 0.25
297 0.335641 8.08795 5.45542 0.25
298 4.51486 9.81508 0.824483 0.25
299 9.25813 5.26604 9.72941 0.25
300 1.61831 9.95399 4.23241 0.25
301 4.48076 8.19442 8.00288 0.25
302 5.06696 5.03379 7.47776 0.25
303 8.78985 5.66454 10.229 0.5
304 4.87361 3.92487 2.9998 0.25
305 1.46661 8.20984 2.30666 0.25
306 9.76275 7.43029 9.29351 0.25
307 1.15626 9.76104 10.1476 0.25
308 8.79221 6.21422 6.31285 0.25
309 8.2764 1.64914 8.42903 0.25
310 6.45347 6.41317 6.0807 0.25
311 2.44007 0.483878 1.82836 0.25
312 9.03643 0.856665 8.7046 0.5
313 0.983079 8.00331 2.25158 0.25
314 0.98427 3.7931 2.54828 0.25
315 2.85851 0.598277 9.14941 0.5
316 6.73626 4.46857 7.00235 0.25
317 6.39759 9.87848 8.56344 0.25
318 9.86217 7.64107 9.78007 0.25
319 0.00934744 10.0706 3.9578 0.25
320 1.09585 2.34027 10.1804 0.25
321 2.14002 2.22951 1.98869 0.25
322 1.04918 7.11656 4.53664 0.25
323 6.62729 9.93589 9.29424 0.5
324 6.93334 1.96283 2.67854 0.25
325 9.27681 3.85299 1.75387 0.25
326 2.77569 9.93961 5.4231 0.25
327 1.6897 8.60515 7.56637 0.25
328 4.38518 3.74948 2.98222 0.25
329 8.36722 7.44015 3.93749 0.5
330 9.97947 6.00008 2.34458 0.25
331 9.16266 0.1308 4.25825 0.25
332 6.52101 7.27015 0.644736 0.25
333 0.0978031 7.95761 9.23278 0.25
334 6.86052 5.11148 1.42905 0.25
335 5.77052 4.33307 0.549249 0.25
336 9.36667 3.92962 1.32781 0.25
337 4.77388 5.61963 8.53152 0.25
338 6.98651 8.3301 2.16827 0.25
339 4.08273 5.73487 8.30843 0.25
340 0.657533 2.50762 10.2426 0.25
341 3.93925 5.90531 4.23479 0.25
342 9.70261 3.21479 7.05548 0.25
343 10.0545 2.10955 3.58548 0.25
344 4.0372 1.18185 2.8702 0.25
345 6.22803 4.12086 10.3189 0.25
346 2.1318 1.66106 7.24137 0.25
347 3.09933 4.00537 0.513117 0.25
348 5.63347 7.47753 0.701383 0.25
349 4.95003 1.45614 7.56267 0.25
350 2.87003 3.23656 7.54637 0.25
351 5.14997 7.00082 3.38255 0.25
352 8.16469 6.38671 1.81768 0.25
353 9.49941 3.62693 7.08415 0.25
354 10.0702 3.63941 2.03096 0.25
355 2.4899 1.3055 1.28636 0.25
356 4.72763 9.47686 0.556554 0.25
357 3.26003 4.56563 6.00327 0.25
358 4.42348 9.82321 0.273098 0.25
359 8.65256 6.73698 0.84269 0.5
360 3.58874 0.171807 6.74573 0.25
361 0.263834 0.624063 6.35495 0.25
362 10.3019 7.95412 9.72011 0.25
363 7.56552 2.92389 2.60215 0.25
364 9.84336 6.46709 2.4753 0.25
365 5.96141 9.28424 5.00397 0.25
366 9.01238 4.41281 2.07648 0.25
367 3.43608 0.636767 8.53798 0.25
368 9.95726 6.23569 6.98241 0.25
369 9.17779 4.42252 4.63908 0.5
370 4.73508 1.50646 6.79933 0.5
371 9.52309 6.422 1.86946 0.5
372 1.09312 2.17816 4.17711 0.5
373 3.53853 0.0527897 8.49796 0.25
374 3.50672 0.355077 8.93632 0.25
375 5.02036 1.30965 2.65741 0.25
376 0.923707 5.79269 4.36659 0.25
377 9.97829 7.95318 9.35322 0.25
378 9.93429 8.7479 1.07235 0.25
379 0.187838 4.04699 6.1902 0.25
380 1.88485 2.08385 4.23538 0.25
381 7.04952 5.04778 2.11085 0.5
382 2.22677 7.50999 10.0866 0.25
383 5.43201 8.14383 8.2445 0.25
384 1.77441 6.71204 7.56987 0.25
385 1.39947 7.17734 4.90554 0.25
386 1.44335 5.53958 7.62416 0.25
387 1.11362 5.91689 7.70548 0.25
388 2.33354 2.24895 1.16823 0.25
389 5.78035 1.75444 0.68746 0.25
390 3.45569 4.26828 0.280361 0.25
391 4.24472 10.25 6.28395 0.25
392 1.152 5.71428 5.11991 0.25
393 9.17055 8.70326 6.62986 0.25
394 10.2401 0.720867 6.05731 0.25
395 2.0307 4.68326 2.99407 0.25
396 3.32053 0.4333 9.72576 0.25
397 6.93338 2.39978 2.84513 0.25
398 9.54747 5.39943 8.99003 0.25
399 2.57157 9.44228 7.77795 0.25
400 8.22518 2.72745 0.0290528 0.25
401 5.37542 6.54687 3.43615 0.25
402 4.32862 5.6151 8.7406 0.25
403 5.83137 4.81427 0.487811 0.25
404 7.56581 3.46637 10.3035 0.25
405 1.22796 5.78239 0.736087 0.25
406 6.43572 9.48219 5.22195 0.25
407 7.10121 7.02745 8.91621 0.25
408 9.21899 8.58377 1.42573 0.25
409 0.191002 6.74757 2.06353 0.25
410 5.44313 0.981808 4.08426 0.25
411 7.68191 8.63624 9.66428 0.25
412 4.89214 1.90194 7.34101 0.25
413 7.05821 2.79047 2.58378 0.25
414 7.01388 5.59784 2.55254 0.25
415 4.63921 0.695884 2.90687 0.5
416 10.117 0.712079 9.28445 0.25
417 3.44872 8.12337 6.14288 0.5
418 0.802885 1.01238 6.55318 0.5
419 9.07921 0.32254 3.77833 0.25
420 5.35444 8.46481 7.88147 0.25
421 9.19112 6.32535 7.40097 0.25
422 2.02516 7.32975 3.23392 0.25
423 1.72045 5.04063 2.83961 0.25
424 0.204699 10.323 9.647 0.25
425 1.84508 9.68801 4.52935 0.25
426 2.26448 1.73351 1.18454 0.25
427 7.16566 1.50658 6.47736 0.25
428 7.32878 9.82546 2.02436 0.25
429 5.20049 8.90132 7.68492 0.25
430 9.88482 9.53388 3.45495 0.25
431 6.87235 0.304553 0.946926 0.25
432 2.98516 7.77894 10.0889 0.25
433 2.97537 2.39529 5.26107 0.25
434 6.0946 9.64503 8.80905 0.25
435 10.3433 3.23978 9.49234 0.25
436 6.37778 4.58806 10.1521 0.25
437 0.885809 5.79022 9.81179 0.25
438 7.82165 1.05168 6.61546 0.25
439 9.68533 10.239 3.78606 0.5
440 2.41691 2.65091 7.79433 0.5
441 1.06775 4.14113 2.25357 0.25
442 6.63747 7.67017 0.84836 0.25
443 9.62116 9.67885 4.30324 0.25
444 1.12999 3.85714 1.90365 0.25
445 5.55813 6.93592 3.03418 0.25
446 8.38228 5.00926 4.22482 0.25
447 6.23244 4.87281 0.158806 0.25
448 4.7128 1.04529 3.74283 0.5
449 0.12115 0.623215 6.77534 0.25
450 2.35432 0.930113 1.60515 0.25
451 3.67173 3.53771 0.00863641 0.25
452 5.72148 4.38077 4.9289 0.25
453 7.13224 4.14136 8.31862 0.25
454 1.39673 5.70581 8.45792 0.25
455 1.06734 6.01207 8.16279 0.25
456 2.0554 2.08503 1.53136 0.25
457 9.41931 9.35132 1.21993 0.5
458 1.34687 5.91486 7.29067 0.25
459 0.983388 1.13988 7.32187 0.25
460 1.79552 5.77117 7.30426 0.25
461 3.7244 6.59401 1.7479 0.25
462 3.67955 6.07921 1.93028 0.25
463 1.77447 0.128137 4.86822 0.25
464 9.75645 1.02442 1.51787 0.25
465 6.75198 5.67885 2.11955 0.25
466 4.63349 5.62229 7.75356 0.5
467 3.26389 5.08415 5.3439 0.25
468 2.70625 1.23275 1.74769 0.25
469 4.80489 3.41408 2.92997 0.25
470 4.15292 3.14635 2.36925 0.25
471 3.19486 9.87195 4.75595 0.25
472 1.80805 2.32 7.52818 0.25
473 2.50035 7.55644 9.65174 0.25
474 9.21159 3.97951 2.27787 0.25
475 8.83616 6.76092 3.90296 0.25
476 3.591 5.78531 1.53949 0.25
477 10.0087 9.63036 3.95282 0.25
478 8.67475 5.94713 1.35939 0.5
479 6.84949 0.586076 0.526273 0.25
480 2.52891 7.82075 10.1209 0.25
481 4.3171 8.92083 1.15157 0.25
482 6.51081 9.8412 5.59588 0.25
483 7.0138 10.2733 0.261878 0.5
484 9.81841 3.48555 7.44326 0.25
485 7.85837 3.27464 9.88954 0.25
486 4.3557 8.69462 3.68509 0.25
487 2.99554 4.22022 0.0454361 0.25
488 6.95777 9.64859 1.71332 0.25
489 8.87255 7.62349 3.38497 0.25
490 2.34992 3.27296 8.19104 0.25
491 8.74407 8.9441 6.92355 0.25
492 7.93593 2.36602 10.1389 0.25
493 10.1978 3.23758 7.31238 0.25
494 8.45316 4.36921 4.75676 0.25
495 10.2734 3.7092 7.54156 0.25
496 4.34883 1.60489 6.16664 0.25
497 3.23686 3.48505 0.307691 0.25
498 8.58411 1.25354 9.23102 0.25
499 3.64971 9.43836 1.14737 0.25
500 4.28584 7.07975 8.94032 0.25
501 2.5924 10.2417 5.12497 0.25
502 9.26898 6.10445 6.19305 0.25
503 6.78017 8.42794 2.96312 0.25
504 6.41724 7.69534 0.450945 0.25
505 7.70554 1.43403 5.94725 0.5
506 5.62461 10.3206 5.39732 0.25
507 7.11425 8.5176 2.64046 0.25
508 4.76549 8.45768 8.86554 0.25
509 1.04672 9.10142 7.77465 0.25
510 5.86817 4.05605 5.27795 0.25
511 3.74148 10.2563 6.34823 0.25
512 2.08273 5.26024 3.55206 0.25
513 1.29744 5.127 9.92858 0.25
514 3.74941 2.11522 5.10524 0.25
515 1.56518 2.0485 6.93209 0.5
516 5.9622 9.32757 5.72482 0.5
517 8.96362 7.15735 3.63678 0.25
518 2.86831 0.693452 9.93572 0.25
519 2.80362 10.1974 4.66942 0.25
520 5.17425 1.98208 6.90881 0.25
521 1.18268 4.33234 5.47678 0.25
522 2.38034 9.88484 4.6764 0.25
523 3.08613 3.02666 7.95463 0.25
524 8.51327 2.38854 5.1624 0.25
525 2.22036 6.55199 7.45018 0.25
526 1.7321 5.35671 8.53341 0.25
527 6.62509 9.59921 2.79561 0.5
528 7.44889 8.82653 2.80657 0.25
529 3.58177 5.56437 1.08645 0.25
530 1.07327 8.45572 2.04569 0.25
531 0.485317 3.25908 9.299 0.25
532 2.05743 8.16846 0.466549 0.25
533 9.06221 9.78832 3.71364 0.25
534 8.84954 5.06349 4.46083 0.25
535 6.90963 6.22596 8.96256 0.25
536 4.08661 9.9518 0.585895 0.25
537 7.18152 1.84361 3.90111 0.25
538 7.68445 4.37071 7.59347 0.25
539 10.2349 3.71277 6.78448 0.5
540 6.25234 9.94845 8.05538 0.25
541 9.66643 8.80652 1.40233 0.25
542 7.51993 9.41597 6.17405 0.25
543 9.25945 4.61571 3.94738 0.25
544 1.52298 1.90041 7.64773 0.25
545 10.3283 10.2642 3.44679 0.25
546 0.269351 0.449843 5.89865 0.25
547 9.72693 3.63244 1.62767 0.25
548 9.2266 4.99609 8.9608 0.25
549 2.35013 0.510207 2.30105 0.25
550 9.44678 8.66178 0.960186 0.25
551 2.91476 7.65358 3.31406 0.25
552 9.22727 9.06632 6.94601 0.25
553 5.30201 3.04776 5.54743 0.25
554 8.82433 4.85938 4.01546 0.25
555 5.64464 8.86594 7.84864 0.25
556 1.16784 9.18624 7.25801 0.25
557 2.92006 9.27269 8.08464 0.25
558 2.46748 3.7919 8.08347 0.25
559 9.79828 1.10041 8.61062 0.25
560 3.71207 4.85458 5.38051 0.25
561 0.985406 4.34552 1.8073 0.25
562 5.05287 4.66056 9.58229 0.25
563 5.80134 9.78948 7.89507 0.25
564 1.8655 1.35999 6.91195 0.25
565 2.44493 0.942679 2.0768 0.25
566 9.65096 6.60292 6.76604 0.25
567 0.610848 6.33959 0.526008 0.25
568 8.04127 1.58381 5.29026 0.25
569 7.23978 3.96688 7.19229 0.5
570 4.49499 3.38073 3.29217 0.25
571 3.8627 3.5128 2.12425 0.25
572 8.59041 1.51327 8.78334 0.25
573 1.28144 6.94085 5.25226 0.25
574 0.576596 0.309329 6.20291 0.25
575 5.85839 4.1759 4.51442 0.25
576 5.28528 1.86698 0.670018 0.25
577 0.418767 7.81685 5.03953 0.25
578 0.867496 5.3386 0.133001 0.5
579 4.89286 5.37108 7.10479 0.25
580 8.3573 6.70022 4.06471 0.25
581 7.53817 6.78906 8.99893 0.25
582 7.22766 4.43084 4.83503 0.25
583 8.47052 5.76495 6.349 0.25
584 5.88455 7.17823 3.25211 0.25
585 7.31055 0.501167 0.766577 0.25
586 1.64696 2.1549 4.67732 0.25
587 6.03783 10.1155 5.68331 0.25
588 2.64984 1.3679 9.38996 0.25
589 10.1868 3.76357 1.56295 0.25
590 9.11035 7.55997 3.81088 0.25
591 3.7605 2.61506 5.2944 0.25
592 6.5387 5.48004 2.54039 0.25
593 5.29669 9.72324 5.91146 0.25
594 8.8562 6.24177 0.324032 0.25
595 2.03531 1.89932 7.63369 0.25
596 9.30929 8.89649 1.77192 0.25
597 4.5059 1.37951 2.69457 0.25
598 6.50037 7.30788 0.157162 0.25
599 9.83521 1.25481 1.97061 0.25
600 4.24365 9.36935 1.78294 0.25
601 7.10373 10.1203 2.38859 0.25
602 6.3543 8.42679 3.22215 0.25
603 2.24403 6.0537 7.35665 0.25
604 8.80074 0.67546 1.34533 0.25
605 1.35983 7.68019 2.30562 0.25
606 1.7125 1.54917 7.39777 0.25
607 2.19805 2.17251 7.2404 0.25
608 5.81103 6.24543 5.76103 0.5
609 4.15418 6.30607 1.92802 0.25
610 6.39595 4.64341 0.958918 0.5
611 8.33484 8.46085 7.49999 0.25
612 8.4016 0.206473 4.01771 0.5
613 8.11811 2.97507 9.61294 0.25
614 9.22921 6.90899 1.32803 0.25
615 6.51013 4.05734 7.2489 0.25
616 1.38928 1.28774 7.08365 0.25
617 2.4104 3.42569 7.73195 0.25
618 7.8657 3.07047 10.3591 0.25
619 1.34764 9.81568 2.42037 0.25
620 6.68322 5.95537 2.56133 0.25
621 6.68083 4.64507 1.67447 0.25
622 7.37543 6.3029 9.11513 0.25
623 7.8014 4.55176 4.42047 0.5
624 4.67894 8.45841 8.41094 0.25
625 5.36334 1.654 10.1865 0.25
626 2.26099 2.86764 4.32727 0.25
627 6.86989 5.19443 2.82497 0.25
628 0.99319 9.63528 0.238935 0.25
629 7.45348 10.0033 10.0481 0.25
630 5.56331 7.05831 0.435012 0.25
631 8.57654 2.13785 5.58997 0.25
632 3.33869 3.87017 0.0484801 0.25
633 3.56016 3.79544 0.466733 0.25
634 4.42645 7.76545 8.66325 0.5
635 9.47063 6.24713 6.99927 0.25
636 8.83599 4.97873 9.89089 0.25
637 6.40535 9.36737 4.72303 0.25
638 1.96655 9.88009 5.24263 0.5
639 7.27144 3.07466 2.24753 0.25
640 7.50855 1.64683 7.82818 0.25
641 3.74608 5.8858 3.78308 0.25
642 3.05512 7.11875 6.00015 0.25
643 2.69991 1.80199 9.60867 0.25
644 6.12502 10.0396 4.9255 0.5
645 3.50373 3.81256 9.94455 0.25
646 8.6634 6.94686 4.37906 0.25
647 6.53816 6.55887 5.63494 0.25
648 7.14877 1.28091 7.70821 0.25
649 4.67624 5.9424 8.86485 0.25
650 7.16995 1.43067 3.65823 0.25
651 4.83697 8.54476 7.92459 0.25
652 0.968725 5.61729 8.5236 0.25
653 0.841098 4.53851 5.74846 0.25
654 1.33452 6.39109 7.48503 0.25
655 10.3404 4.21892 1.37244 0.25
656 4.62681 4.99676 7.19998 0.25
657 8.48128 9.37568 7.16485 0.25
658 7.48828 4.11568 7.94732 0.25
659 8.91422 10.0957 4.46777 0.25
660 1.79753 6.0533 7.96169 0.5
661 2.48078 7.44873 3.29732 0.25
662 7.83352 9.26486 5.8527 0.25
663 3.51322 0.863568 8.94834 0.25
664 1.015 2.71108 0.169683 0.25
665 8.09265 6.36735 1.30613 0.25
666 5.52277 9.62893 8.2898 0.25
667 7.44938 3.01247 10.0923 0.25
668 7.2501 1.90023 5.54794 0.25
669 3.15505 7.34055 9.3807 0.5
670 10.3268 2.8223 9.80582 0.25
671 1.08389 6.37341 4.8352 0.5
672 5.67297 7.01167 5.54031 0.25
673 4.58968 9.18516 1.46122 0.25
674 7.07493 4.81237 4.50227 0.25
675 8.1164 8.89223 7.68223 0.25
676 5.51077 2.3079 0.155511 0.5
677 9.37766 3.27829 7.39926 0.25
678 10.2231 0.00496711 6.42771 0.5
679 1.98883 2.62873 7.21458 0.25
680 2.83492 7.19385 3.13162 0.25
681 7.99465 9.22919 7.34187 0.25
682 3.61107 8.1259 5.42574 0.25
683 0.469526 3.35525 10.242 0.25
684 1.57846 8.85163 7.16078 0.25
685 8.99358 10.3314 3.47671 0.25
686 6.81189 9.77159 5.23664 0.25
687 9.76942 3.00541 7.5068 0.25
688 5.18774 7.41501 0.411234 0.25
689 2.1937 2.45995 4.1086 0.25
690 10.0863 8.06474 8.89401 0.25
691 0.717174 8.34301 5.5696 0.25
692 1.20677 4.33885 6.02882 0.25
693 9.5572 2.583 4.16086 0.25
694 3.04804 3.90609 10.0457 0.25
695 8.38307 1.92163 5.14842 0.25
696 5.29982 0.773288 3.24624 0.25
697 1.23268 8.79122 7.50153 0.25
698 8.63035 5.98235 0.609879 0.25
699 4.16208 7.88983 6.03861 0.25
700 5.28285 7.1641 0.887295 0.25
701 3.27034 4.65558 5.51806 0.25
702 6.19258 3.75722 4.48114 0.25
703 1.67383 0.725658 1.6062 0.25
704 6.64848 4.05319 8.17413 0.25
705 3.85662 5.5712 8.73715 0.25
706 7.62475 1.27001 7.57328 0.25
707 6.00489 7.23783 5.30029 0.25
708 5.86177 6.65387 3.31065 0.25
709 1.72416 4.31708 1.89273 0.5
710 1.32592 4.70626 5.72782 0.25
711 7.16839 4.76999 7.05764 0.25
712 4.55296 8.25672 3.51809 0.25
713 1.78812 4.93185 3.32438 0.25
714 1.93909 10.1747 4.55175 0.25
715 2.71415 3.54923 8.43424 0.25
716 9.81402 8.92315 1.8293 0.25
717 2.83084 4.87169 5.38696 0.25
718 5.98113 3.32533 5.14014 0.5
719 5.80996 2.52537 5.05103 0.25
720 5.31472 0.648868 3.75216 0.25
721 2.90936 7.53167 6.32788 0.25
722 4.0659 5.0815 4.25959 0.25
723 5.63299 7.09185 6.49149 0.25
724 9.71932 0.754346 9.01656 0.25
725 4.00106 0.402086 6.85352 0.25
726 3.83057 5.44899 4.05624 0.25
727 4.2713 5.55153 4.29611 0.25
728 2.61222 7.69227 0.411301 0.5
729 7.82652 2.10199 6.15636 0.25
730 8.27207 1.12597 8.86797 0.25
731 1.30519 5.60881 9.91725 0.25
732 3.57156 7.07538 6.11622 0.25
733 9.67567 2.1654 4.36407 0.25
734 8.84784 7.40834 4.58659 0.25
735 3.44448 2.33188 5.37357 0.25
736 8.36571 6.26769 7.06173 0.25
737 0.696156 4.25711 5.36399 0.25
738 5.07663 8.19885 8.55843 0.25
739 2.85608 3.77247 0.0864256 0.25
740 8.71185 6.40459 1.87509 0.25
741 8.00131 2.77181 2.54291 0.25
742 5.00648 1.8095 0.215559 0.25
743 9.8324 1.80843 3.95946 0.25
744 2.44051 2.18835 4.77378 0.5
745 0.445424 4.22267 5.80028 0.25
746 7.11805 4.70357 1.34378 0.25
747 7.73704 2.06858 9.81158 0.25
748 7.34291 9.87816 9.58704 0.25
749 6.6429 3.89524 7.71601 0.25
750 4.46577 2.08108 6.41588 0.25
751 1.73722 2.54116 3.92718 0.25
752 9.8232 2.31268 3.96485 0.25
753 1.02403 3.01531 9.83397 0.5
754 8.25664 2.01448 5.95102 0.25
755 7.86061 2.80393 10.025 0.25
756 5.10317 2.0471 1.06945 0.25
757 0.10939 2.00375 4.20651 0.5
758 1.52122 10.0594 4.69358 0.25
759 4.90372 2.56358 8.04117 0.25
760 4.56561 0.228464 3.48877 0.25
761 5.50905 6.91494 5.96992 0.25
762 0.562479 3.88877 6.52291 0.25
763 6.42038 4.52437 4.81021 0.5
764 5.41774 7.36769 3.30802 0.25
765 6.68768 6.70376 8.94312 0.25
766 1.3682 5.12158 3.1695 0.25
767 6.92683 2.77459 2.08267 0.25
768 5.12079 2.34303 5.52201 0.5
769 0.817986 2.29974 9.82589 0.25
770 6.20608 7.10851 6.02943 0.5
771 5.4027 7.84079 0.445269 0.25
772 7.01233 9.22318 5.70005 0.5
773 5.82865 3.99345 0.186438 0.25
774 6.99633 8.90629 2.92874 0.25
775 10.1494 7.59996 9.04614 0.25
776 4.62179 9.4205 0.0385822 0.25
777 1.09073 8.40956 2.54142 0.25
778 3.06342 0.281085 8.57801 0.25
779 9.95201 7.74267 8.59858 0.25
780 5.19103 5.14126 9.81979 0.25
781 6.03357 6.95696 3.69298 0.25
782 9.26082 6.42111 1.16852 0.25
783 4.10081 8.841 3.254 0.25
784 3.18269 3.45006 10.1532 0.25
785 8.58778 8.86573 7.73023 0.25
786 6.29501 6.54983 5.15692 0.25
787 5.83206 6.76739 5.15457 0.25
788 5.05386 0.391005 3.46981 0.25
789 6.35718 4.8035 2.10785 0.25
790 5.00438 2.12494 6.4302 0.25
791 8.16384 5.86048 6.81637 0.25
792 4.63129 3.7217 2.27519 0.5
793 0.0905488 0.496504 8.99277 0.25
794 2.57468 1.4223 2.23215 0.25
795 1.32708 8.7155 7.9493 0.25
796 2.38366 10.2059 4.01655 0.5
797 10.0083 9.94272 3.19415 0.25
798 9.29588 5.03555 4.2032 0.25
799 4.41957 6.81244 1.42594 0.5
800 9.86031 1.3604 1.1325 0.25
801 6.19607 10.3196 9.8256 0.25
802 6.15994 7.54502 0.836329 0.25
803 9.15326 5.32862 9.2658 0.25
804 4.22638 5.06809 7.48716 0.25
805 8.7862 4.37289 3.92894 0.25
806 2.34275 9.82808 7.84779 0.25
807 2.99439 4.93108 5.81161 0.25
808 8.56973 4.89797 9.49165 0.25
809 1.72802 5.35281 9.78889 0.25
810 7.45695 1.86824 6.48271 0.25
811 9.54998 5.03323 9.3741 0.25
812 3.88962 6.22025 1.48675 0.25
813 1.41944 3.75523 2.31501 0.25
814 0.563134 9.49187 0.327187 0.25
815 3.74921 5.42625 4.79769 0.5
816 6.64717 0.155181 9.84116 0.25
817 4.00209 9.24169 0.511771 0.5
818 9.12169 6.1143 0.762795 0.25
819 3.6203 6.10194 1.10115 0.25
820 6.74897 4.44077 8.47356 0.25
821 7.99031 8.67862 7.23833 0.25
822 4.25091 2.78299 2.68947 0.25
823 1.82111 9.29173 7.72821 0.5
824 7.59492 4.69515 7.33211 0.25
825 8.15549 9.10756 6.57024 0.5
826 7.33321 2.86131 1.81032 0.25
827 8.76753 6.56379 7.26043 0.25
828 9.86439 3.97616 1.2704 0.25
829 0.825041 7.92143 4.78213 0.25
830 4.00208 5.79585 1.27675 0.25
831 2.36781 7.16097 2.91254 0.25
832 4.10536 5.26579 8.9949 0.25
833 6.08324 6.41352 6.38936 0.25
834 8.47889 4.1624 4.27818 0.25
835 1.05832 1.69421 6.4927 0.25
836 6.38074 5.31869 2.11188 0.25
837 3.53413 7.04463 8.82938 0.25
838 2.45094 9.02121 8.03367 0.25
839 0.113294 2.74755 4.44933 0.25
840 9.6834 4.73345 4.2085 0.25
841 5.61339 4.63662 10.1325 0.5
842 7.1057 6.63159 9.24543 0.25
843 1.06218 9.64652 2.03571 0.25
844 6.44565 5.01847 1.67872 0.25
845 8.364 4.57044 3.94845 0.25
846 0.89751 5.28448 4.42886 0.25
847 7.50847 2.47384 9.96962 0.25
848 3.30146 1.18519 9.67891 0.5
849 6.4409 4.95101 2.54644 0.25
850 4.11341 8.2604 3.81815 0.25
851 4.34669 6.11335 1.496 0.25
852 5.48932 1.1091 3.59046 0.25
853 9.41273 10.0936 4.51476 0.25
854 2.77447 3.05272 8.39165 0.25
855 3.44446 6.24871 1.53714 0.25
856 9.56336 3.34734 7.84439 0.25
857 6.49418 3.77662 4.88641 0.25
858 8.11301 7.67207 4.64702 0.25
859 9.36695 1.24838 1.26111 0.25
860 3.10707 10.1454 4.28965 0.25
861 4.14389 8.88247 1.5466 0.25
862 7.63979 1.14252 8.36859 0.5
863 10.3187 3.32281 10.0211 0.25
864 4.23899 4.37345 2.46102 0.25
865 0.814579 6.84471 5.42432 0.25
866 2.77007 1.06292 10.2376 0.25
867 2.58641 7.83262 9.23506 0.25
868 9.31608 0.749241 1.4329 0.25
869 0.11667 8.23114 5.02142 0.25
870 7.1338 6.57182 8.7304 0.25
871 7.74246 2.94285 2.10579 0.25
872 8.25549 1.56801 7.69852 0.5
873 5.36719 9.99912 5.08996 0.25
874 6.8783 9.3038 4.99658 0.25
875 4.10886 8.43071 6.06559 0.25
876 4.14405 6.23117 1.0467 0.25
877 0.49739 2.37411 3.76872 0.25
878 0.335307 -0.000558123 9.19319 0.25
879 0.655056 7.46495 4.74098 0.25
880 5.60066 3.91938 4.85528 0.25
881 3.96152 6.35777 8.7341 0.5
882 9.76627 0.56783 6.1286 0.25
883 5.36076 2.80302 5.06782 0.25
884 2.76644 1.96246 1.72795 0.5
885 8.64256 10.029 3.60614 0.25
886 9.58602 8.4579 1.74696 0.25
887 1.06911 6.39846 7.90316 0.25
888 1.56822 0.853242 2.08917 0.25
889 4.96342 5.23566 8.32426 0.25
890 0.589223 3.77958 5.98481 0.25
891 4.09622 4.06529 2.77942 0.25
892 6.56646 8.90689 3.12863 0.25
893 8.28141 3.06874 10.0662 0.25
894 1.7645 8.23072 0.0558819 0.25
895 9.4368 3.73643 7.58037 0.25
896 9.34086 1.1891 1.74375 0.25
897 3.23653 7.13954 6.47198 0.25
898 1.03537 4.97937 5.10816 0.5
899 0.506493 0.305671 6.67626 0.25
900 8.98514 7.17218 4.13201 0.25
901 0.628002 8.22554 5.05126 0.25
902 5.57427 2.1669 0.880552 0.25
903 7.8824 6.82738 4.1233 0.25
904 1.17784 6.13652 0.0574834 0.5
905 9.09251 0.886637 1.01298 0.25
906 9.49137 9.48943 3.83885 0.25
907 4.34375 3.28291 2.8233 0.25