ITEM: TIMESTEP
116
ITEM: NUMBER OF ATOMS
1000
ITEM: BOX BOUNDS xy xz yz pp pp pp
0.0000000000000000e+00 1.0357442000000001e+01 0.0000000000000000e+00
0.0000000000000000e+00 1.0357442000000001e+01 0.0000000000000000e+00
0.0000000000000000e+00 1.0357442000000001e+01 0.0000000000000000e+00
ITEM: ATOMS id x y z radius
1 1.63375 5.17219 2.58292 0.5
2 2.94796 6.0851 1.47964 0.5
3 5.9287 2.12369 0.0217096 0.25
4 1.48426 1.8735 4.33784 0.25
5 9.56263 3.19232 6.73059 0.25
6 0.306109 4.08685 9.06375 0.25
7 4.19742 10.0449 4.40506 0.25
8 0.413668 5.89411 2.27064 0.25
9 8.29452 0.630209 2.74588 0.25
10 8.47807 7.67934 5.4613 0.25
11 10.1556 9.54941 2.02459 0.25
12 8.33238 3.0594 0.599898 0.25
13 4.8525 8.40331 4.89029 0.25
14 3.8429 1.01307 0.937503 0.25
15 0.0716022 6.63044 6.57695 0.25
16 0.25367 8.28284 7.95859 0.25
17 6.47202 1.17066 7.97061 0.5
18 2.52865 8.10226 8.60839 0.25
19 6.34813 3.78052 7.95504 0.25
20 1.62484 0.896092 1.29645 0.25
21 0.468367 2.00431 8.94603 0.25
22 5.01944 10.0246 4.26862 0.25
23 4.06482 1.45647 0.950589 0.25
24 2.86812 3.17588 5.3229 0.25
25 7.08367 1.74012 5.10899 0.25
26 4.86497 3.78483 9.10912 0.25
27 2.04276 7.44213 9.53156 0.25
28 9.99706 6.99749 8.24724 0.25
29 1.75752 10.1438 4.81293 0.25
30 0.46479 7.73243 7.14185 0.25
31 1.01257 7.62887 4.47957 0.25
32 8.69689 7.48599 1.38599 0.25
33 10.0437 10.0558 2.10889 0.25
34 10.3034 2.95863 8.98681 0.25
35 7.30676 2.54334 1.15813 0.25
36 9.01447 0.25939 9.99013 0.25
37 3.09464 7.05074 2.99788 0.25
38 6.03051 10.2935 1.39481 0.25
39 4.76045 2.38486 3.50587 0.25
40 6.58368 4.50777 6.35461 0.25
41 6.88777 9.47009 5.25084 0.25
42 5.62131 7.66577 2.95937 0.5
43 1.05988 7.93533 4.88387 0.25
44 9.91579 0.967929 4.51741 0.25
45 6.19628 7.13525 8.92236 0.25
46 1.55571 9.36238 5.57003 0.25
47 4.25344 9.22691 2.64612 0.25
48 9.94771 0.494895 4.59849 0.25
49 6.81538 5.55071 8.35543 0.25
50 9.05726 9.83897 4.04181 0.25
51 9.03349 10.2253 1.233 0.25
52 5.04183 8.01967 0.566913 0.25
53 8.04566 5.99124 2.24157 0.25
54 4.52446 4.73625 7.88896 0.25
55 6.33242 5.67876 6.23591 0.25
56 6.07615 2.37056 9.96959 0.25
57 4.60216 1.13871 9.783 0.25
58 7.07082 4.99536 0.735865 0.25
59 5.6769 8.1797 7.64396 0.25
60 6.34776 6.76248 9.23705 0.25
61 3.63586 0.14067 8.70763 0.25
62 0.170883 5.87007 6.09876 0.25
63 0.353992 4.69071 3.72663 0.25
64 8.91529 1.89804 2.53458 0.25
65 6.51589 7.42567 6.43563 0.25
66 4.66163 10.1032 4.59141 0.25
67 10.0432 4.86939 9.76822 0.25
68 6.49583 0.00334884 2.15055 0.25
69 2.52144 5.72252 1.97622 0.25
70 3.52624 4.02747 2.72891 0.25
71 10.2327 6.98071 1.5956 0.25
72 6.30244 3.52785 5.20024 0.25
73 0.250511 9.0151 8.13424 0.5
74 2.91318 6.80106 1.68564 0.25
75 2.37896 4.72508 9.23712 0.25
76 3.73756 7.88717 9.09305 0.25
77 6.3561 5.51527 8.57229 0.25
78 4.54329 10.2423 0.49332 0.25
79 1.38117 5.64298 7.70697 0.25
80 8.81181 0.01595 9.6146 0.25
81 0.803015 6.76615 9.04602 0.25
82 2.45674 9.63446 0.49939 0.25
83 0.989518 7.05435 1.29096 0.25
84 5.44842 9.32144 4.31675 0.25
85 4.31346 6.08554 0.229564 0.25
86 10.1186 4.11343 2.23566 0.5
87 2.08669 5.95611 8.45641 0.25
88 1.48404 4.44696 6.80373 0.25
89 9.9692 3.88973 0.233264 0.25
90 6.80438 8.55719 3.0748 0.5
91 3.48261 8.77139 2.68913 0.25
92 8.21065 0.563508 2.25307 0.25
93 8.56102 1.64687 8.78243 0.25
94 1.47671 2.10257 1.5682 0.25
95 9.04099 8.94794 7.43386 0.25
96 8.24274 2.15321 6.55919 0.25
97 5.64583 9.45791 5.88755 0.25
98 8.99572 10.2543 7.27123 0.25
99 4.59252 2.50354 8.42344 0.5
100 3.76141 3.03101 6.22496 0.25
101 5.42207 4.50667 9.71654 0.5
102 3.84672 5.10959 7.95964 0.5
103 6.78876 9.63732 0.528386 0.25
104 0.951694 1.55762 0.351677 0.25
105 1.91114 4.98002 3.29379 0.25
106 5.88824 6.58883 6.37922 0.25
107 6.24513 0.536741 7.62129 0.25
108 1.39937 2.47561 1.92915 0.25
109 7.01604 2.76361 2.61788 0.25
110 5.71236 0.269145 6.20838 0.25
111 2.11401 5.85766 9.95041 0.25
112 3.48825 6.48697 4.65552 0.25
113 0.561058 10.1834 3.62872 0.25
114 8.93582 6.26275 0.441139 0.25
115 5.7111 2.86474 1.97822 0.25
116 0.812451 2.86331 3.87444 0.25
117 6.71063 3.65108 3.5262 0.5
118 4.92696 7.74212 3.25884 0.25
119 9.89365 3.10319 4.38324 0.25
120 1.64099 4.96942 10.1294 0.25
121 7.05316 1.43823 5.79422 0.5
122 1.84125 3.43188 2.62942 0.25
123 8.78102 10.0701 0.810322 0.25
124 8.04952 7.02624 10.1611 0.25
125 1.94875 9.30618 3.13983 0.25
126 5.66839 7.09631 1.24839 0.25
127 5.02095 8.05584 1.05459 0.25
128 8.34041 9.12339 4.86094 0.25
129 1.72051 4.66734 3.65201 0.25
130 9.15127 0.0533121 0.768143 0.25
131 7.17281 2.62536 3.0639 0.25
132 8.31071 4.48599 7.33154 0.25
133 8.33782 10.1166 0.226842 0.25
134 5.986 1.3247 1.25391 0.25
135 5.86293 0.405455 8.27728 0.5
136 0.323864 9.60924 8.62804 0.25
137 1.63154 8.50855 1.11373 0.25
138 7.42492 4.89435 7.41236 0.25
139 7.93163 2.8111 9.6072 0.5
140 3.4912 9.1559 4.52112 0.25
141 3.47921 2.6714 1.51842 0.25
142 2.42037 3.22993 5.58224 0.25
143 6.89681 0.342532 3.33348 0.25
144 8.67522 8.54553 2.01546 0.25
145 4.18156 8.68509 5.22956 0.25
146 7.2867 6.86857 4.2919 0.25
147 2.72239 4.51404 2.77837 0.25
148 2.4289 2.17672 9.80611 0.25
149 1.11837 7.93963 9.06326 0.25
150 4.62103 4.81743 7.41897 0.25
151 6.94243 0.154377 0.680817 0.25
152 4.38753 9.62608 9.68697 0.25
153 5.00357 1.87526 8.37747 0.25
154 6.10391 1.86727 7.29158 0.25
155 5.14522 4.76185 2.25517 0.25
156 0.0849408 7.70418 6.8062 0.25
157 4.43163 1.0577 4.82374 0.25
158 0.0266779 8.53385 7.60531 0.25
159 3.64051 0.999371 5.25573 0.25
160 2.25785 3.6079 7.35379 0.25
161 3.32891 0.0236225 9.10448 0.25
162 2.90234 0.997078 6.72466 0.5
163 7.07905 7.88862 2.89904 0.25
164 7.40035 9.61484 8.06723 0.25
165 10.0856 2.33686 9.57531 0.25
166 7.50531 3.90489 8.97598 0.25
167 7.69591 9.9008 3.93139 0.25
168 9.63658 7.5011 9.72216 0.25
169 8.91783 6.50533 7.17696 0.25
170 3.30469 9.88586 9.11666 0.25
171 3.53624 9.61925 6.95982 0.25
172 8.40939 6.23651 7.75331 0.25
173 1.06617 1.54703 3.12501 0.25
174 4.01644 1.99884 6.74407 0.25
175 9.91385 2.89495 6.55505 0.25
176 3.23045 5.56165 9.76543 0.25
177 8.45835 6.30207 7.25699 0.25
178 6.87787 1.7115 4.63295 0.25
179 1.75017 10.2449 7.85338 0.25
180 6.36393 7.32137 3.61642 0.5
181 2.17149 6.21779 4.8298 0.25
182 6.37204 1.47493 2.9148 0.25
183 0.927149 10.0423 2.34808 0.25
184 10.1325 5.65576 0.361433 0.25
185 9.78032 8.98601 6.28131 0.25
186 3.43943 7.5361 9.26037 0.25
187 3.77181 2.55446 10.2588 0.25
188 4.57547 3.24152 7.77607 0.25
189 0.0173041 0.083947 5.93091 0.25
190 3.74834 7.21836 1.88285 0.25
191 5.75148 3.8397 9.62693 0.25
192 8.89331 7.87621 6.54565 0.25
193 4.07701 1.02137 8.64944 0.25
194 5.13406 8.61282 9.27094 0.25
195 6.39685 5.49937 9.824 0.25
196 5.10365 1.05741 0.380557 0.25
197 9.87369 6.17918 6.34632 0.5
198 8.23837 1.94297 7.26343 0.5
199 6.36292 10.2962 10.1818 0.25
200 6.87776 2.39926 6.41231 0.25
201 5.44157 7.51167 5.98031 0.25
202 4.29805 7.3475 4.5569 0.25
203 4.45901 9.64915 1.6688 0.25
204 0.411274 4.44869 6.59513 0.25
205 3.69333 9.70705 5.90612 0.25
206 1.24804 2.79571 4.10777 0.25
207 1.30455 4.38661 4.19546 0.5
208 2.80186 6.62316 3.73151 0.25
209 7.0111 7.19179 4.00129 0.25
210 3.99885 0.624937 6.73468 0.25
211 2.79179 3.4244 1.82557 0.25
212 0.664128 3.89489 1.68712 0.5
213 0.133389 5.76389 3.01754 0.25
214 3.38587 6.83512 5.01119 0.25
215 9.90832 0.0905797 0.2785 0.25
216 7.37602 1.89517 10.2957 0.25
217 0.597057 7.78478 4.73835 0.25
218 2.85968 1.90467 2.90645 0.5
219 2.38681 5.52367 5.08639 0.25
220 7.17182 8.60102 3.74374 0.25
221 8.56246 6.4152 5.72355 0.25
222 8.80247 6.4117 7.99756 0.25
223 5.17266 10.1149 5.62682 0.25
224 8.81772 5.43294 7.29372 0.25
225 8.21626 2.9343 4.40132 0.25
226 5.10819 9.66487 7.02588 0.25
227 6.00503 9.35786 1.66644 0.25
228 6.09945 2.56857 0.0576828 0.25
229 4.72769 3.33821 2.24884 0.25
230 8.87799 7.3721 5.50662 0.25
231 7.98341 4.93706 8.8595 0.25
232 6.64705 7.83996 3.1165 0.25
233 9.02621 1.4389 8.24095 0.5
234 2.88576 0.270099 1.11156 0.25
235 1.24343 8.52078 6.40195 0.25
236 1.50666 4.75492 0.19646 0.25
237 6.79702 0.694434 3.67649 0.25
238 0.974819 5.67753 4.07468 0.25
239 9.83316 6.02874 8.35345 0.25
240 1.22824 7.67251 1.69853 0.5
241 2.08306 8.28321 1.19855 0.25
242 3.93021 8.39265 5.55869 0.25
243 2.34287 4.53131 8.7811 0.25
244 1.08565 0.251213 6.69985 0.25
245 6.67899 7.59409 5.98887 0.25
246 2.04567 7.2725 9.05612 0.25
247 3.64401 5.11583 1.12312 0.25
248 4.92437 3.36316 9.3984 0.25
249 6.01472 5.11196 7.37186 0.25
250 7.58403 2.34629 7.20011 0.25
251 1.62743 2.03054 6.1899 0.25
252 7.87948 8.01076 8.01566 0.25
253 6.45889 8.52733 6.5061 0.25
254 1.08314 8.28178 2.12297 0.25
255 1.98088 9.53086 0.292073 0.25
256 4.20751 5.12265 3.09692 0.25
257 0.232328 10.326 0.691866 0.25
258 4.64666 4.86445 5.92415 0.25
259 0.759803 9.69592 3.61444 0.25
260 0.207405 1.37058 1.57419 0.25
261 6.81773 6.63988 8.5751 0.25
262 5.54652 4.58224 4.57751 0.25
263 8.62412 9.48101 8.70637 0.25
264 7.20118 0.718183 9.71305 0.5
265 2.07642 3.60114 1.13904 0.25
266 4.69055 3.71098 0.585419 0.25
267 1.91727 10.2751 5.26221 0.25
268 3.72712 8.5639 5.99385 0.25
269 8.56487 8.98604 7.25095 0.25
270 4.79451 8.33626 6.81339 0.25
271 2.637 10.1897 1.21014 0.25
272 3.91026 7.02954 6.30509 0.25
273 8.81731 3.44732 7.47897 0.25
274 2.91452 7.02653 3.46465 0.25
275 9.61558 8.31594 2.85959 0.25
276 8.75527 0.421542 8.3651 0.25
277 2.11823 9.82219 8.37837 0.5
278 4.05106 5.77877 8.28789 0.25
279 3.67941 9.51344 9.07948 0.25
280 2.91161 10.1507 9.31024 0.25
281 3.66116 6.79614 10.3461 0.25
282 5.42961 9.94915 2.76025 0.25
283 9.17757 3.74997 9.71117 0.25
284 0.959649 6.87503 0.118223 0.25
285 8.17134 8.37859 9.7922 0.25
286 8.43191 1.33878 1.47722 0.25
287 1.79496 7.25009 1.98836 0.25
288 1.14144 3.97276 4.81004 0.25
289 10.3432 2.07381 2.52745 0.25
290 8.56697 4.03769 3.04343 0.25
291 8.43864 2.83107 1.03546 0.25
292 3.55835 9.70204 0.629968 0.25
293 5.13719 2.78507 7.6253 0.5
294 9.56768 7.42517 3.68251 0.25
295 7.28721 1.72025 7.53427 0.5
296 2.29154 3.71927 5.6999 0.25
297 10.2506 8.1505 5.09983 0.25
298 3.94215 8.60257 0.100629 0.25
299 0.530696 5.09353 0.648342 0.25
300 1.88885 10.2379 2.91297 0.25
301 5.28813 8.10153 9.85063 0.25
302 5.48673 4.53184 6.73537 0.25
303 9.68993 6.30294 0.279541 0.5
304 5.76927 3.06907 0.969312 0.25
305 1.21821 6.89795 1.72424 0.25
306 0.864936 7.82402 9.47822 0.25
307 0.548853 0.254825 0.970899 0.25
308 9.7045 5.26398 5.55751 0.25
309 9.38055 2.5593 8.43106 0.25
310 5.94542 6.62055 5.89519 0.25
311 9.92224 8.29822 0.71261 0.25
312 8.45141 0.917551 8.86626 0.5
313 0.100152 7.26195 1.93335 0.25
314 1.01693 3.32424 2.70198 0.25
315 2.3141 0.257844 9.42672 0.5
316 8.0633 4.20297 10.2153 0.25
317 6.61455 0.495427 8.30224 0.25
318 10.1283 7.48588 9.57831 0.25
319 0.317569 8.71485 3.82541 0.25
320 1.08686 3.39158 10.156 0.25
321 4.2358 1.94531 2.53119 0.25
322 1.23869 7.21253 4.5978 0.25
323 6.47285 0.883348 8.94743 0.5
324 5.75588 1.82442 4.39199 0.25
325 8.262 3.82732 2.72113 0.25
326 10.1404 0.686817 4.17613 0.25
327 2.45012 8.54208 6.44881 0.25
328 6.27821 2.18325 1.73642 0.25
329 8.27933 6.96782 5.26534 0.5
330 7.68013 9.00467 2.35326 0.25
331 7.72642 10.0958 4.37531 0.25
332 6.53284 6.55975 0.220646 0.25
333 9.22379 7.7137 9.93075 0.25
334 7.56379 5.90542 2.29907 0.25
335 6.75638 5.13231 0.384229 0.25
336 0.0955179 6.1057 2.63914 0.25
337 4.02635 5.41249 8.668 0.25
338 5.0357 7.54683 2.49712 0.25
339 4.05479 3.66698 8.84941 0.25
340 0.489851 4.4091 8.0718 0.25
341 4.01246 4.76711 3.79673 0.25
342 9.94087 3.4539 5.43493 0.25
343 0.39128 1.64078 3.81735 0.25
344 4.67701 9.04898 3.39816 0.25
345 7.43863 4.63622 1.51633 0.25
346 0.71318 2.05002 7.55857 0.25
347 2.70549 2.83756 8.97537 0.25
348 6.89413 7.3722 0.118618 0.25
349 5.04896 1.17974 7.81546 0.25
350 1.86332 3.9247 7.31387 0.25
351 6.27815 4.60124 4.82151 0.25
352 8.77534 8.65527 0.193512 0.25
353 9.48421 2.22235 5.10331 0.25
354 10.3105 4.16341 1.52068 0.25
355 3.08366 1.31979 2.45117 0.25
356 4.36471 8.60036 10.155 0.25
357 3.10927 7.22193 5.22254 0.25
358 3.78418 7.90762 0.514587 0.25
359 8.48687 6.89056 0.416036 0.5
360 4.00791 8.89902 7.86372 0.25
361 9.56661 1.44038 6.72551 0.25
362 9.34224 7.81504 9.44354 0.25
363 6.29978 2.98485 3.55378 0.25
364 9.14822 7.2662 3.44394 0.25
365 7.60002 8.9282 6.23571 0.25
366 9.23691 5.57392 2.18451 0.25
367 3.54004 0.279663 8.23051 0.25
368 8.42715 6.17349 8.26531 0.25
369 7.56426 4.21952 5.96322 0.5
370 4.70086 1.87782 7.68623 0.5
371 8.90182 7.83329 2.02247 0.5
372 1.91977 2.47297 4.23397 0.5
373 3.96102 0.049847 8.36148 0.25
374 3.09354 9.75012 9.5804 0.25
375 5.35619 0.0296115 2.49584 0.25
376 0.840819 4.93775 4.49254 0.25
377 10.1776 7.00992 9.43376 0.25
378 10.1703 8.16844 2.53694 0.25
379 9.68516 4.83302 6.6588 0.25
380 3.61054 3.16013 4.11055 0.25
381 7.96635 5.7765 2.96629 0.5
382 2.60275 8.11863 9.72673 0.25
383 5.70011 9.69674 9.7301 0.25
384 1.77312 7.70101 7.29165 0.25
385 0.414468 5.60135 5.0603 0.25
386 2.39768 5.76653 6.67343 0.25
387 1.80772 6.88624 7.12536 0.25
388 5.03835 2.77242 2.55809 0.25
389 7.45632 1.54159 0.266227 0.25
390 3.65463 2.75509 0.353628 0.25
391 4.40331 9.15384 7.69613 0.25
392 0.563742 4.66842 4.17549 0.25
393 0.0849513 8.80826 9.32483 0.25
394 9.53073 0.646461 6.27788 0.25
395 0.968057 4.85402 2.54331 0.25
396 1.82123 10.327 8.90469 0.25
397 5.24881 4.09112 3.27954 0.25
398 9.36983 4.54941 9.28885 0.25
399 1.72458 9.31405 7.9277 0.25
400 8.77593 2.96515 1.39653 0.25
401 1.90893 7.98206 0.0407462 0.25
402 3.92399 5.8396 7.8034 0.25
403 7.05956 5.47348 0.626411 0.25
404 8.05425 2.75393 2.40801 0.25
405 3.19802 5.08366 9.5991 0.25
406 6.6258 9.70359 6.9548 0.25
407 6.47353 6.42256 8.89518 0.25
408 9.5676 10.171 2.19521 0.25
409 9.58329 8.27175 3.36337 0.25
410 4.30831 1.59026 5.82093 0.25
411 7.87676 9.45663 9.0041 0.25
412 4.0981 2.01262 8.14258 0.25
413 6.15828 3.33792 3.87281 0.25
414 7.26268 5.55649 3.86336 0.25
415 4.75655 10.0447 3.57182 0.5
416 9.81945 2.64206 0.4316 0.25
417 4.24846 7.99052 5.00431 0.5
418 1.04055 0.859322 6.25162 0.5
419 8.02168 10.2759 4.01505 0.25
420 5.31007 9.92322 9.51525 0.25
421 8.77258 5.99863 8.60668 0.25
422 2.78263 7.68123 1.68075 0.25
423 2.4766 3.81878 1.75262 0.25
424 0.661151 0.209659 9.5743 0.25
425 2.28334 10.0486 3.15295 0.25
426 3.15362 1.77355 2.22336 0.25
427 7.13157 2.92688 7.78293 0.25
428 6.27295 8.09393 2.86102 0.25
429 7.01628 8.6097 9.02325 0.25
430 8.5617 9.39966 5.20508 0.25
431 6.45754 8.95198 10.2243 0.25
432 2.8366 7.54808 8.00602 0.25
433 2.88296 0.822397 4.40829 0.25
434 5.62603 10.0814 8.48497 0.25
435 9.97338 5.75518 7.95909 0.25
436 7.26693 5.30035 1.0709 0.25
437 1.5352 4.90808 9.63685 0.25
438 7.17528 2.47609 7.49259 0.25
439 9.01861 9.39039 4.61508 0.5
440 1.97892 2.9453 7.52025 0.5
441 1.03834 4.56264 1.51682 0.25
442 4.61135 7.27345 0.289023 0.25
443 8.48555 8.5345 3.41296 0.25
444 0.622592 4.08065 0.954055 0.25
445 5.96992 5.65719 2.58862 0.25
446 6.90013 4.13638 6.30913 0.25
447 7.26219 5.13032 0.312592 0.25
448 3.36339 0.126836 3.25817 0.5
449 10.0635 0.0539414 6.33136 0.25
450 2.2182 1.66961 2.5574 0.25
451 2.53702 4.1239 0.163931 0.25
452 5.65195 2.42323 5.12584 0.25
453 7.09422 3.69706 0.940245 0.25
454 2.44898 5.95667 7.14689 0.25
455 2.19267 6.20855 6.79736 0.25
456 4.29574 1.44587 2.56608 0.25
457 9.59288 9.7861 1.56571 0.5
458 1.49106 7.37618 6.46835 0.25
459 0.610198 1.99036 6.33877 0.25
460 1.76272 7.34841 6.9267 0.25
461 4.47118 5.59408 0.2031 0.25
462 4.53943 5.84548 0.974856 0.25
463 2.15401 9.67685 3.45729 0.25
464 7.90627 1.37917 2.72774 0.25
465 6.79088 5.5308 4.05982 0.25
466 5.10955 5.10499 6.45863 0.5
467 3.74666 6.05391 4.64149 0.25
468 2.97116 2.07553 0.89797 0.25
469 5.1713 1.8724 1.78135 0.25
470 3.72239 0.87046 1.40869 0.25
471 10.2075 0.219246 4.2732 0.25
472 1.15862 1.83982 7.62058 0.25
473 3.64639 7.52778 7.8158 0.25
474 8.93924 4.35036 3.23602 0.25
475 8.83453 6.22405 4.41479 0.25
476 4.74545 6.36406 0.0911312 0.25
477 8.15001 8.75307 3.74738 0.25
478 8.06151 7.36943 9.47552 0.5
479 5.54845 0.0756381 1.38926 0.25
480 2.88215 7.76109 8.44646 0.25
481 5.03727 8.94895 0.813085 0.25
482 8.83566 8.26599 5.55243 0.25
483 6.71779 10.0179 1.20166 0.5
484 9.66513 3.02271 5.40437 0.25
485 8.55142 2.90381 3.16648 0.25
486 3.8128 9.09802 2.88814 0.25
487 3.42104 2.92763 10.3022 0.25
488 5.51645 8.04302 2.29193 0.25
489 7.87969 6.53107 4.81189 0.25
490 4.19593 4.4846 6.48496 0.25
491 10.0087 9.42134 7.07734 0.25
492 8.21094 2.57123 0.487145 0.25
493 10.2588 3.61864 5.78105 0.25
494 7.28912 3.86795 6.56526 0.25
495 9.22627 3.27399 7.69742 0.25
496 3.16262 1.64497 6.98749 0.25
497 3.19282 2.85323 8.16376 0.25
498 8.64798 2.0388 7.94295 0.25
499 2.59213 0.659398 1.05008 0.25
500 5.05309 7.11387 8.21645 0.25
501 0.537476 9.89886 4.0172 0.25
502 9.56515 5.70435 5.80556 0.25
503 5.1493 7.30995 3.4182 0.25
504 4.87113 7.69854 0.239454 0.25
505 7.4532 2.28209 5.47999 0.5
506 6.17016 0.0390461 6.18753 0.25
507 5.77282 6.98003 3.25896 0.25
508 5.98515 8.59479 6.38584 0.25
509 1.68364 9.56277 6.01789 0.25
510 5.01874 2.57399 3.90113 0.25
511 4.77596 8.76127 8.40277 0.25
512 2.24754 4.70316 1.83796 0.25
513 1.92654 5.02996 0.183828 0.25
514 3.03881 10.112 5.41943 0.25
515 0.887589 1.62967 6.92273 0.5
516 5.06603 9.72751 6.26594 0.5
517 8.73096 5.92495 4.80819 0.25
518 1.90365 0.436914 10.0736 0.25
519 0.223905 10.3011 3.98432 0.25
520 5.22331 2.21371 8.08021 0.25
521 10.0605 4.66867 4.77886 0.25
522 1.01104 10.0323 3.86754 0.25
523 1.93276 4.18965 6.88063 0.25
524 8.01954 1.52814 3.9591 0.25
525 2.75736 6.77839 6.48174 0.25
526 2.48966 5.00707 7.86377 0.25
527 7.13678 7.86351 3.68991 0.5
528 6.73312 7.53791 4.26541 0.25
529 5.57821 4.4559 2.18443 0.25
530 0.544154 7.34476 1.74626 0.25
531 0.120733 3.38679 7.88357 0.25
532 2.37488 6.92574 9.20419 0.25
533 9.3532 1.58476 5.93512 0.25
534 8.95438 4.68715 4.81042 0.25
535 7.16435 7.48864 7.63364 0.25
536 4.43728 10.169 1.62732 0.25
537 6.95215 10.1949 3.35554 0.25
538 8.37548 4.7211 8.65262 0.25
539 9.01641 2.65333 5.45639 0.5
540 5.86908 0.416546 9.05384 0.25
541 8.94321 9.73462 1.16657 0.25
542 9.12872 8.55695 7.74444 0.25
543 7.83802 4.47841 5.31113 0.25
544 0.83063 1.57789 6.17488 0.25
545 9.65661 9.76606 4.67488 0.25
546 9.9585 0.371874 7.53166 0.25
547 10.3063 4.40383 2.8928 0.25
548 9.55925 4.85891 9.62791 0.25
549 1.68457 9.17871 0.120799 0.25
550 0.247249 8.32348 2.37232 0.25
551 2.91729 7.46311 2.34846 0.25
552 8.0179 10.0071 6.02676 0.25
553 4.52027 2.64087 5.22438 0.25
554 8.89958 5.15211 4.58604 0.25
555 5.738 10.184 0.374899 0.25
556 2.47702 8.94568 6.73723 0.25
557 2.21515 9.33366 7.7742 0.25
558 1.77544 2.76156 6.79704 0.25
559 8.69771 1.8715 0.258378 0.25
560 2.63833 7.09118 3.87864 0.25
561 1.8549 2.33388 1.76988 0.25
562 5.99186 5.70943 0.18672 0.25
563 5.76544 0.64236 7.57273 0.25
564 1.41923 0.596595 6.85064 0.25
565 2.81826 1.75201 3.62901 0.25
566 7.88561 5.77272 10.071 0.25
567 2.76544 5.01694 9.39351 0.25
568 8.34301 2.59202 4.05146 0.25
569 8.16536 4.23203 9.17623 0.5
570 5.49893 1.9177 2.18159 0.25
571 2.37206 3.33267 0.830066 0.25
572 9.0665 2.19754 8.25362 0.25
573 10.2049 6.98007 3.98874 0.25
574 1.53507 0.816673 5.65557 0.25
575 5.41421 2.66715 4.76134 0.25
576 6.40713 2.18138 10.2865 0.25
577 1.05332 7.64553 3.96478 0.25
578 1.34344 6.34354 0.481941 0.5
579 4.88074 5.35806 5.02459 0.25
580 6.48915 9.27661 5.02773 0.25
581 6.39225 7.55834 8.72871 0.25
582 7.83152 4.67525 7.23293 0.25
583 0.242791 6.37882 6.17788 0.25
584 5.60864 5.49127 2.89932 0.25
585 6.1619 8.26645 10.3048 0.25
586 3.57866 2.24294 4.46704 0.25
587 7.07706 0.17116 5.26209 0.25
588 2.53673 1.48807 9.11566 0.25
589 0.772787 3.57343 2.35057 0.25
590 6.87643 7.04098 5.54106 0.25
591 3.31819 0.51706 6.31334 0.25
592 7.43579 5.42299 3.40136 0.25
593 5.28558 0.0669369 5.99486 0.25
594 10.2202 6.43762 10.1879 0.25
595 0.207462 1.38085 7.07921 0.25
596 9.05441 9.26354 1.36847 0.25
597 5.07515 10.2719 2.90765 0.25
598 5.40713 7.8206 0.83594 0.25
599 9.07959 1.60948 2.1238 0.25
600 3.45136 8.50122 1.11127 0.25
601 6.94183 7.42623 3.10664 0.25
602 4.94936 8.08354 3.61215 0.25
603 1.94735 7.58186 6.48756 0.25
604 1.96853 0.564513 1.46508 0.25
605 1.56215 6.53214 1.67079 0.25
606 1.99219 1.67823 6.1195 0.25
607 1.73755 2.38549 7.95388 0.25
608 5.71538 6.46526 5.19782 0.5
609 4.14414 5.27801 0.0515741 0.25
610 7.68339 5.77347 1.54994 0.5
611 0.731081 9.55571 7.8633 0.25
612 7.35137 0.216961 3.90824 0.5
613 9.08844 2.65688 1.65657 0.25
614 8.8528 7.20691 0.992524 0.25
615 6.1961 3.40123 8.9833 0.25
616 1.11352 1.96798 6.28878 0.25
617 2.22459 2.99122 6.79698 0.25
618 8.29774 3.03503 2.75209 0.25
619 1.69993 8.2214 1.54155 0.25
620 7.73941 5.65916 3.71961 0.25
621 7.58733 6.51686 1.62636 0.25
622 7.56955 7.61205 7.92593 0.25
623 7.21022 4.62563 6.77364 0.5
624 7.03804 9.87792 7.8016 0.25
625 4.79366 0.741007 9.52402 0.25
626 2.64636 3.62249 5.33241 0.25
627 8.59648 5.64693 3.42799 0.25
628 0.651339 0.736386 1.10043 0.25
629 7.15281 10.1456 0.191973 0.25
630 7.21088 8.12238 1.17063 0.25
631 8.56322 2.15865 3.91808 0.25
632 2.85379 3.1775 9.31886 0.25
633 2.25402 2.57776 9.04911 0.25
634 5.20848 7.60284 7.63396 0.5
635 8.85022 6.18708 7.55918 0.25
636 9.88837 6.98603 0.484638 0.25
637 7.38123 8.56263 6.47756 0.25
638 1.4806 9.46082 3.70945 0.5
639 7.06307 4.30739 3.59371 0.25
640 8.28867 1.16057 7.23824 0.25
641 4.37202 4.84928 3.48991 0.25
642 1.49619 0.111086 5.09209 0.25
643 1.94582 2.2866 9.95972 0.25
644 6.8266 10.065 6.31122 0.5
645 2.66513 4.17713 0.635003 0.25
646 7.08968 6.64482 5.31739 0.25
647 4.17177 6.82117 6.71523 0.25
648 7.93233 1.34571 7.51869 0.25
649 5.24614 5.61733 8.43187 0.25
650 5.90295 1.31859 2.85611 0.25
651 6.62098 9.03615 8.50686 0.25
652 1.55237 5.7711 7.27779 0.25
653 0.338835 5.4193 5.90917 0.25
654 1.59046 7.78339 6.20055 0.25
655 0.280346 3.5919 2.21695 0.25
656 4.75725 5.70183 6.21312 0.25
657 9.40607 9.27843 6.1537 0.25
658 7.81758 3.78231 10.354 0.25
659 8.34625 1.01499 4.97703 0.25
660 2.02482 6.82801 6.40563 0.5
661 2.80799 7.22718 1.91106 0.25
662 8.82944 7.52872 8.52515 0.25
663 2.52237 10.0422 8.96271 0.25
664 1.6012 3.36739 10.2135 0.25
665 7.71251 6.82454 9.84351 0.25
666 6.53367 1.67455 7.38966 0.25
667 7.84886 3.18623 2.5822 0.25
668 7.86221 2.68562 4.12813 0.25
669 4.34176 7.22767 7.91695 0.5
670 0.554702 4.75686 7.72726 0.25
671 0.438752 6.05321 4.45398 0.5
672 3.05933 6.26465 2.67981 0.25
673 4.32258 9.84905 0.69666 0.25
674 5.67039 4.18505 8.57903 0.25
675 0.326329 6.58313 8.9954 0.25
676 5.28206 1.7689 0.115296 0.5
677 9.44131 2.00891 4.64905 0.25
678 9.57657 0.200669 6.87193 0.5
679 1.25865 2.21525 7.93416 0.25
680 3.42986 5.52462 1.27639 0.25
681 10.2144 9.40358 8.66955 0.25
682 2.29366 8.67115 4.15374 0.25
683 0.681463 3.13501 9.95191 0.25
684 2.64126 8.49235 6.91799 0.25
685 8.80097 0.490834 5.87231 0.25
686 7.00888 0.162406 5.77249 0.25
687 0.307323 3.69826 6.08057 0.25
688 7.59226 8.37711 0.951792 0.25
689 2.59599 2.61392 4.48475 0.25
690 10.2598 9.19116 10.3429 0.25
691 10.2224 8.62772 5.29006 0.25
692 2.05393 6.18903 2.61782 0.25
693 9.58915 6.04324 3.08424 0.25
694 3.08506 3.60416 9.34298 0.25
695 8.27912 1.83813 4.23124 0.25
696 4.56244 1.33263 5.48091 0.25
697 2.09759 9.84409 6.05231 0.25
698 10.1207 5.61351 1.6721 0.25
699 2.62688 7.91126 3.46375 0.25
700 7.41161 7.93459 1.60126 0.25
701 3.13909 7.57431 4.8705 0.25
702 4.62667 3.93164 5.18066 0.25
703 2.33633 9.20067 0.276939 0.25
704 8.46282 2.80242 10.1177 0.25
705 5.33955 5.91016 8.01777 0.25
706 7.64044 1.13967 7.87357 0.25
707 4.12432 6.8866 5.8577 0.25
708 5.8162 4.71321 4.95554 0.25
709 1.36836 3.23934 2.05629 0.5
710 9.54964 4.52839 4.09844 0.25
711 8.30266 4.4892 9.88067 0.25
712 3.15725 9.16565 2.72469 0.25
713 2.13606 4.93864 3.7547 0.25
714 1.82373 9.79962 3.1018 0.25
715 3.32144 4.51502 6.04735 0.25
716 9.2742 9.95103 0.880223 0.25
717 3.24122 5.06171 5.09822 0.25
718 4.75601 3.2947 5.54647 0.5
719 4.63953 2.91465 6.18504 0.25
720 4.73391 1.42736 5.01644 0.25
721 2.43727 9.13878 4.97234 0.25
722 3.67551 4.42149 3.02208 0.25
723 6.4955 5.59739 5.76594 0.25
724 8.75002 1.8428 10.1106 0.25
725 3.61419 10.1573 6.09655 0.25
726 3.91995 4.75395 3.30658 0.25
727 3.1748 4.3283 2.89801 0.25
728 2.68201 7.60721 9.1555 0.5
729 7.75929 1.67707 5.89346 0.25
730 8.64809 2.03965 8.47678 0.25
731 1.48801 5.2657 0.180475 0.25
732 4.44416 8.68081 4.79677 0.25
733 9.58396 1.04093 3.0672 0.25
734 8.09288 6.56968 5.85548 0.25
735 3.00679 0.280327 5.35558 0.25
736 9.87416 7.15911 7.77318 0.25
737 1.98803 5.77303 4.91446 0.25
738 6.1841 9.02619 8.28299 0.25
739 3.08275 2.78583 8.65018 0.25
740 7.51917 7.77126 9.7891 0.25
741 6.20504 4.40065 3.10601 0.25
742 4.71881 1.58013 9.98747 0.25
743 10.0422 1.23179 2.99684 0.25
744 2.2908 3.20569 4.81958 0.5
745 1.95414 4.61877 5.25562 0.25
746 7.69689 6.33551 2.06869 0.25
747 7.20167 2.43787 0.683271 0.25
748 6.72687 10.2056 9.84629 0.25
749 6.56088 3.12247 9.15315 0.25
750 2.50871 1.34166 7.22543 0.25
751 2.62856 2.49215 4.01125 0.25
752 9.70846 1.46855 3.28908 0.25
753 10.3202 3.61545 8.60527 0.5
754 6.79305 1.97069 6.20509 0.25
755 9.22666 3.11786 1.47389 0.25
756 5.65374 2.10998 9.91769 0.25
757 0.930287 2.13812 3.92606 0.5
758 2.33899 0.0520364 2.79277 0.25
759 5.6813 3.24109 7.84759 0.25
760 5.70177 0.686961 4.67464 0.25
761 6.81823 5.80562 5.42683 0.25
762 10.17 4.98273 6.79499 0.25
763 7.20328 5.54655 7.13884 0.5
764 5.23647 5.41222 3.24855 0.25
765 6.77852 7.78236 8.94184 0.25
766 2.86718 5.41151 3.37908 0.25
767 7.26883 3.97549 3.91876 0.25
768 4.65061 2.38692 6.7704 0.5
769 0.0254959 2.68208 9.37342 0.25
770 5.24052 6.80594 6.05555 0.5
771 7.11422 8.47914 0.840409 0.25
772 7.92303 8.85345 6.92167 0.5
773 7.07686 4.86394 1.2223 0.25
774 5.61739 7.31948 3.60453 0.25
775 0.604139 7.46993 8.81799 0.25
776 3.29254 7.83211 0.447688 0.25
777 0.00722667 7.25064 2.42096 0.25
778 3.54385 0.191485 7.73478 0.25
779 9.83365 9.38106 10.1464 0.25
780 5.13542 5.19346 9.58844 0.25
781 6.43806 3.05078 5.1506 0.25
782 8.36627 7.32615 1.02722 0.25
783 6.5461 6.95143 1.76692 0.25
784 3.41622 2.64646 9.41449 0.25
785 0.587333 10.0411 8.729 0.25
786 5.6833 6.18407 4.52003 0.25
787 5.0867 5.69555 4.25556 0.25
788 4.73807 0.0796137 4.22055 0.25
789 8.28031 6.88682 3.43548 0.25
790 5.37571 2.08035 7.63784 0.25
791 10.3075 6.77718 6.09175 0.25
792 5.16054 3.46838 1.11364 0.5
793 0.502265 0.111588 9.98904 0.25
794 3.76754 2.8389 1.90297 0.25
795 1.35292 8.94085 6.14554 0.25
796 1.12735 10.1403 3.11265 0.5
797 9.30004 10.0128 4.42728 0.25
798 7.96118 4.39798 4.83221 0.25
799 3.86322 5.6562 0.658671 0.5
800 8.3391 0.170624 2.52136 0.25
801 7.37458 10.0411 10.1221 0.25
802 5.78014 7.51201 1.00399 0.25
803 0.00706607 4.85546 10.1518 0.25
804 4.27267 5.08161 5.61392 0.25
805 8.14158 3.7746 6.12523 0.25
806 1.44386 10.1992 8.27919 0.25
807 3.84246 5.57143 4.61974 0.25
808 0.153802 5.30118 0.388884 0.25
809 1.77599 5.10605 8.21055 0.25
810 7.8375 2.44333 4.90135 0.25
811 9.08727 4.91362 9.47389 0.25
812 4.78644 5.78626 1.41259 0.25
813 0.931832 2.64243 1.9564 0.25
814 0.353056 1.139 1.13056 0.25
815 3.683 4.81879 4.49572 0.5
816 7.30211 9.7149 1.54062 0.25
817 4.60875 9.62256 0.0660887 0.5
818 10.0058 7.11265 0.0277339 0.25
819 4.41657 5.82498 2.12542 0.25
820 7.65138 5.27269 9.04448 0.25
821 9.83063 9.56807 9.11961 0.25
822 4.09028 0.943044 0.504699 0.25
823 2.32919 10.0127 7.4129 0.5
824 7.74632 4.05007 8.57284 0.25
825 9.76749 8.95043 7.63544 0.5
826 7.73056 4.01018 4.09739 0.25
827 9.17994 6.85277 6.90079 0.25
828 10.015 4.00041 2.99212 0.25
829 10.2459 6.59876 4.32548 0.25
830 4.63238 5.48857 1.81481 0.25
831 3.1426 5.63565 0.911053 0.25
832 3.61256 4.46969 8.25474 0.25
833 6.39943 6.52436 7.40892 0.25
834 7.73543 3.63736 6.42167 0.25
835 1.41356 1.10242 6.84093 0.25
836 8.39205 5.9134 1.33731 0.25
837 5.73924 8.67742 7.6155 0.25
838 2.06894 9.9469 9.10538 0.25
839 1.1755 1.47522 4.1779 0.25
840 8.1927 4.47004 5.67166 0.25
841 6.08969 5.00119 10.3277 0.5
842 6.75266 7.75906 7.58349 0.25
843 1.52759 8.98796 1.10601 0.25
844 8.61396 5.4683 1.24325 0.25
845 7.08324 3.6806 6.13196 0.25
846 0.585118 4.2503 4.42428 0.25
847 6.02846 3.96385 1.49759 0.25
848 1.93913 1.64105 9.5972 0.5
849 8.00487 6.46403 3.29251 0.25
850 3.5901 9.20362 2.45559 0.25
851 4.9784 6.12019 1.08169 0.25
852 3.8796 0.696366 3.43107 0.25
853 8.10686 9.81451 4.21652 0.25
854 3.75078 4.38877 6.27655 0.25
855 6.09852 4.45683 2.12721 0.25
856 9.73023 3.27267 6.27033 0.25
857 4.3443 2.0629 3.48463 0.25
858 7.92919 8.22585 5.29187 0.25
859 7.48494 0.937643 1.63371 0.25
860 0.54615 10.1503 2.65918 0.25
861 3.23816 9.66649 1.6734 0.25
862 8.05644 1.65624 8.20808 0.5
863 0.390071 2.91819 9.60161 0.25
864 4.50384 3.29814 0.815455 0.25
865 1.46709 7.53231 4.26912 0.25
866 2.05729 1.48696 10.33 0.25
867 3.74992 7.40439 8.29464 0.25
868 7.82812 0.819036 2.00769 0.25
869 10.271 9.08902 5.51722 0.25
870 8.14723 7.4907 6.90297 0.25
871 6.67913 4.34258 3.24248 0.25
872 8.29362 0.774913 7.89114 0.5
873 6.5148 0.227381 5.8904 0.25
874 7.79707 8.48076 6.25671 0.25
875 4.56852 7.32943 4.97255 0.25
876 4.54087 4.99545 1.85107 0.25
877 0.785347 2.72334 4.35259 0.25
878 10.1945 1.87366 0.826084 0.25
879 0.612512 7.73743 4.21996 0.25
880 5.24985 3.0592 5.04849 0.25
881 5.07575 6.56468 7.69131 0.5
882 0.00765339 10.0277 5.64518 0.25
883 4.21257 3.10665 6.01589 0.25
884 4.328 2.70245 2.42412 0.5
885 8.92191 8.79166 3.35714 0.25
886 9.31847 9.46201 0.962368 0.25
887 0.608211 7.10882 7.88852 0.25
888 0.866629 8.31719 0.134487 0.25
889 4.94601 4.54638 7.68874 0.25
890 0.111298 4.13528 6.83637 0.25
891 4.37452 3.98499 0.299191 0.25
892 5.30374 7.70608 3.6288 0.25
893 8.54348 2.66393 2.48557 0.25
894 2.07228 6.93476 9.59545 0.25
895 9.72996 2.51823 5.40489 0.25
896 8.02178 0.981376 2.43985 0.25
897 4.51869 8.50626 6.43298 0.25
898 10.2474 4.28834 4.16275 0.5
899 10.1903 0.402266 7.95762 0.25
900 9.30815 6.53466 2.43711 0.25
901 0.646877 7.39012 3.84524 0.25
902 6.88192 2.02894 10.2476 0.25
903 6.49969 8.9134 4.67009 0.25
904 1.7091 4.8838 8.93345 0.5
905 1.54756 0.652952 1.73429 0.25