ITEM: TIMESTEP
670000
ITEM: NUMBER OF ATOMS
1000
ITEM: BOX BOUNDS xy xz yz pp pp pp
0.0000000000000000e+00 1.0357442000000001e+01 0.0000000000000000e+00
0.0000000000000000e+00 1.0357442000000001e+01 0.0000000000000000e+00
0.0000000000000000e+00 1.0357442000000001e+01 0.0000000000000000e+00
ITEM: ATOMS id x y z radius
1 1.21542 4.56187 2.67725 0.5
2 1.96261 7.78248 2.69204 0.5
3 4.86193 1.84889 1.01361 0.25
4 0.466707 2.67347 4.41921 0.25
5 9.98857 3.49717 7.99201 0.25
6 0.311953 3.28581 9.64189 0.25
7 4.94023 0.68664 2.76882 0.25
8 8.70985 3.6947 1.72873 0.25
9 9.53644 1.60783 1.57788 0.25
10 8.01306 6.64414 3.91624 0.25
11 9.15474 8.59367 1.70116 0.25
12 7.69647 2.53043 10.0874 0.25
13 3.72798 7.36147 6.0536 0.25
14 5.54795 1.69669 10.3358 0.25
15 8.79631 6.10842 6.12562 0.25
16 8.85323 8.71786 6.25201 0.25
17 5.34794 8.93932 8.3917 0.5
18 2.74111 7.60093 10.0269 0.25
19 6.92739 4.44986 5.40449 0.25
20 9.01921 0.9819 1.39689 0.25
21 0.349255 0.0754175 9.60591 0.25
22 4.8326 1.14873 2.50775 0.25
23 4.09325 3.49076 3.22591 0.25
24 2.71392 2.50222 4.23767 0.25
25 7.27654 1.8877 5.98746 0.25
26 5.51982 2.69685 8.24483 0.25
27 1.73973 8.13366 0.248495 0.25
28 8.84735 6.4238 6.49237 0.25
29 3.74051 7.49502 5.5472 0.25
30 1.47476 8.3626 7.42702 0.25
31 0.385592 7.41382 4.82309 0.25
32 8.90403 6.71243 1.28722 0.25
33 8.87895 8.56566 1.30348 0.25
34 0.515323 2.74005 0.0784858 0.25
35 7.96222 2.14752 9.86782 0.25
36 8.07146 8.73068 9.16315 0.25
37 4.26212 5.03032 5.84964 0.25
38 7.23967 10.2318 0.925425 0.25
39 5.79975 4.18767 4.76901 0.25
40 8.59676 4.64715 4.52543 0.25
41 8.22073 7.0057 4.72817 0.25
42 6.18217 8.52796 2.29043 0.5
43 0.371757 8.35301 5.90033 0.25
44 2.89838 0.149368 4.48617 0.25
45 6.77973 6.832 8.24252 0.25
46 1.34062 8.63508 7.85363 0.25
47 4.01602 8.3425 3.66403 0.25
48 3.14272 0.0215425 4.87375 0.25
49 4.45178 6.08016 9.35861 0.25
50 9.80798 9.3018 3.71959 0.25
51 9.91859 8.75709 0.772836 0.25
52 6.29464 7.80047 0.487804 0.25
53 6.78341 5.38772 1.64988 0.25
54 4.56013 5.01177 8.08541 0.25
55 6.35511 6.22917 6.85879 0.25
56 5.63086 2.07804 1.42687 0.25
57 5.2208 1.50718 0.307179 0.25
58 5.90116 4.22064 0.355088 0.25
59 4.02602 7.82637 9.29379 0.25
60 7.05531 7.00143 7.84977 0.25
61 3.34162 0.000120985 8.89257 0.25
62 9.31494 6.54565 6.64371 0.25
63 0.70835 5.18159 4.56954 0.25
64 10.0256 1.57679 1.70126 0.25
65 5.64714 6.40564 6.4554 0.25
66 4.48211 0.847836 2.7133 0.25
67 9.05353 5.19157 8.92582 0.25
68 6.18516 0.0571494 10.2462 0.25
69 2.53901 7.90158 3.15905 0.25
70 3.76092 5.26753 4.00253 0.25
71 1.22133 7.89606 2.47235 0.25
72 5.31142 6.5756 3.69197 0.25
73 9.3265 8.61654 6.88067 0.5
74 2.16679 7.57754 3.39896 0.25
75 1.03652 5.70984 0.539956 0.25
76 1.825 8.52174 10.2528 0.25
77 7.18617 7.14207 8.3069 0.25
78 3.91414 9.06556 1.16867 0.25
79 0.947253 5.0489 9.54079 0.25
80 8.45022 8.76475 9.49141 0.25
81 8.61922 9.26551 7.44047 0.25
82 1.78468 0.682197 1.95147 0.25
83 1.8686 8.49006 2.41098 0.25
84 5.25643 9.57408 5.36971 0.25
85 4.27937 6.06466 1.55881 0.25
86 9.55479 4.36621 1.6631 0.5
87 1.19472 5.3812 8.32451 0.25
88 2.80263 3.86933 8.27592 0.25
89 0.70764 0.283071 9.93175 0.25
90 7.04876 10.1269 1.62125 0.5
91 4.79825 8.38358 3.71108 0.25
92 9.80436 1.00065 1.08817 0.25
93 8.47599 1.26345 8.44033 0.25
94 0.862808 4.53162 1.95334 0.25
95 7.37578 9.34735 6.30405 0.25
96 7.81466 1.20485 7.19645 0.25
97 5.67934 9.80301 5.42417 0.25
98 10.2275 1.0088 6.13765 0.25
99 5.28301 2.003 8.24806 0.5
100 5.46526 3.06801 5.5067 0.25
101 5.43579 2.09791 9.66735 0.5
102 4.04143 5.36388 8.50109 0.5
103 6.69824 0.460877 1.31322 0.25
104 1.01782 9.91166 10.1754 0.25
105 2.02134 5.09435 3.22502 0.25
106 6.19516 6.98095 6.50087 0.25
107 5.89887 9.98511 8.58828 0.25
108 1.66169 3.64247 2.1297 0.25
109 7.11825 2.10062 3.05552 0.25
110 5.71423 10.1733 5.72581 0.25
111 1.75217 6.08338 0.305268 0.25
112 3.8059 5.22078 6.1043 0.25
113 2.04412 10.271 4.32925 0.25
114 8.55223 6.20525 0.126118 0.25
115 4.86214 3.53433 2.24137 0.25
116 0.277409 1.90549 3.47357 0.25
117 7.66417 2.42794 2.6367 0.5
118 6.65095 7.938 2.54563 0.25
119 9.95568 2.482 4.21837 0.25
120 1.71097 5.63349 10.3583 0.25
121 7.77069 2.32573 5.59249 0.5
122 1.94328 4.34872 2.62436 0.25
123 9.66809 9.22378 1.41578 0.25
124 8.36681 6.15612 0.548672 0.25
125 1.47551 9.69296 4.55281 0.25
126 6.01789 7.49466 0.248166 0.25
127 6.35767 7.32996 0.677512 0.25
128 9.3746 9.73991 4.36568 0.25
129 1.58112 5.38689 3.34133 0.25
130 9.83011 9.24247 0.939377 0.25
131 7.37333 2.41566 3.30192 0.25
132 8.46585 5.06307 4.44532 0.25
133 8.17292 9.20111 9.42588 0.25
134 4.41759 3.90795 3.3463 0.25
135 6.12265 9.47193 8.08041 0.5
136 8.61148 8.92733 7.04986 0.25
137 1.14779 9.68638 1.85272 0.25
138 6.96862 4.14013 5.02562 0.25
139 6.93712 4.54129 7.80443 0.5
140 3.68313 8.70292 3.52594 0.25
141 1.96026 1.84757 1.56563 0.25
142 2.98387 2.97308 4.90311 0.25
143 7.37948 0.964674 3.5644 0.25
144 10.0201 6.29473 2.02456 0.25
145 3.91199 7.84724 5.93414 0.25
146 7.09134 9.0478 2.83509 0.25
147 3.97985 5.69528 4.10776 0.25
148 3.01349 1.51659 0.0945826 0.25
149 9.70005 7.88705 8.94828 0.25
150 4.15988 5.12337 7.77937 0.25
151 6.93894 9.85246 9.91613 0.25
152 4.01084 9.49431 0.839939 0.25
153 5.29635 1.59231 7.56232 0.25
154 5.33758 9.52014 8.00919 0.25
155 3.40831 6.27101 1.43221 0.25
156 1.02613 8.54899 7.45883 0.25
157 4.97161 1.52764 3.89877 0.25
158 8.79765 9.49719 6.4637 0.25
159 3.41524 2.8552 5.17448 0.25
160 2.69586 3.42639 8.12627 0.25
161 3.50725 0.147311 9.39682 0.25
162 4.15445 2.25229 5.78083 0.5
163 6.60367 9.96136 2.21871 0.25
164 5.05137 8.38684 7.95243 0.25
165 0.559672 2.61929 9.96414 0.25
166 6.99145 4.12412 6.77673 0.25
167 8.92102 10.2784 3.86606 0.25
168 0.128696 7.87177 8.81796 0.25
169 9.19628 6.60809 7.44603 0.25
170 3.38237 0.548727 8.22554 0.25
171 0.995332 9.04519 7.18862 0.25
172 9.7852 6.45064 6.8919 0.25
173 0.843799 1.66692 4.16618 0.25
174 4.72258 2.02452 6.20349 0.25
175 9.91801 3.03854 7.77775 0.25
176 0.584911 5.68191 0.288899 0.25
177 9.7873 6.04696 7.19249 0.25
178 7.66041 1.6027 5.32219 0.25
179 2.801 9.62581 7.78782 0.25
180 7.17262 8.80963 2.21481 0.5
181 0.86812 4.05288 5.71603 0.25
182 7.90959 1.03448 3.66481 0.25
183 2.67056 9.7069 4.5677 0.25
184 8.99261 5.40042 9.47386 0.25
185 8.77578 9.18387 6.05929 0.25
186 2.2266 8.01656 9.45139 0.25
187 2.99861 3.50164 10.1638 0.25
188 5.3045 2.57353 7.7246 0.25
189 9.8605 1.08831 6.47978 0.25
190 2.70186 7.62981 3.51361 0.25
191 5.43835 2.65669 9.11512 0.25
192 9.01115 9.17117 7.14637 0.25
193 5.19257 2.29465 8.96174 0.25
194 4.41389 9.11207 1.33783 0.25
195 4.91042 4.99918 9.78116 0.25
196 5.05937 1.83807 10.2858 0.25
197 9.21336 5.82536 6.79007 0.5
198 7.2296 1.71856 7.19302 0.5
199 6.94847 10.3354 9.78615 0.25
200 7.42479 0.833482 6.48841 0.25
201 6.03268 6.58796 6.75202 0.25
202 3.565 7.74899 5.11173 0.25
203 4.88796 9.62684 0.39353 0.25
204 0.39463 3.41521 6.37197 0.25
205 4.00638 0.483356 6.43329 0.25
206 0.701385 1.91151 3.74303 0.25
207 1.08461 5.29968 3.84268 0.5
208 4.15253 4.59102 5.67924 0.25
209 7.20211 9.43443 2.56659 0.25
210 3.80732 0.0333841 6.38402 0.25
211 1.90124 4.83947 2.47374 0.25
212 0.243294 4.15077 1.74546 0.5
213 8.85355 4.12725 1.74914 0.25
214 3.5073 4.81257 6.13594 0.25
215 10.13 0.659787 8.97311 0.25
216 5.90599 2.16662 0.541362 0.25
217 0.332002 7.87363 5.84986 0.25
218 2.25969 1.15617 1.66306 0.5
219 0.807165 4.10765 6.20553 0.25
220 6.60361 9.12165 1.97504 0.25
221 8.38996 6.62408 3.56295 0.25
222 8.9666 6.59042 6.98237 0.25
223 5.68226 9.41844 5.09333 0.25
224 10.1321 3.8457 7.66811 0.25
225 8.18132 1.91881 5.9768 0.25
226 6.44575 8.85883 5.32647 0.25
227 7.14318 0.330866 1.1607 0.25
228 5.28808 1.6865 0.794271 0.25
229 2.8955 2.1057 1.56904 0.25
230 8.01175 7.34464 4.373 0.25
231 7.82389 4.05409 7.24745 0.25
232 6.92669 9.52455 2.1632 0.25
233 8.11868 2.0307 9.16502 0.5
234 4.13362 9.86946 1.62998 0.25
235 0.994501 8.98746 7.68792 0.25
236 1.49902 5.6665 0.448115 0.25
237 7.65818 0.703548 3.90919 0.25
238 0.873739 6.02475 4.03796 0.25
239 0.652543 2.97587 9.64212 0.25
240 1.27968 8.99688 2.15958 0.5
241 1.62582 9.59275 1.90143 0.25
242 3.78287 8.14623 6.33474 0.25
243 1.02412 6.5318 0.520016 0.25
244 0.972345 1.74772 7.1134 0.25
245 5.92035 6.10132 6.72584 0.25
246 2.06246 8.0957 10.2354 0.25
247 2.68966 7.67557 2.68554 0.25
248 5.63196 2.49502 8.70608 0.25
249 6.58986 4.15311 5.37548 0.25
250 7.54856 1.30866 6.7625 0.25
251 1.43652 1.05474 6.95501 0.25
252 7.40283 7.12939 9.31869 0.25
253 4.07827 7.30307 8.65951 0.25
254 0.915554 10.0637 2.16699 0.25
255 1.57255 0.648956 1.51957 0.25
256 3.40249 5.9343 4.63784 0.25
257 0.611381 10.1475 9.92236 0.25
258 4.64543 5.29222 7.1652 0.25
259 1.52147 10.0701 4.21674 0.25
260 1.33345 10.2456 0.0369437 0.25
261 7.51632 7.04453 8.00787 0.25
262 5.68794 6.83301 3.44084 0.25
263 8.16827 8.38115 9.48211 0.25
264 7.67491 9.51197 9.87139 0.5
265 4.08193 3.80569 2.46635 0.25
266 4.00282 3.6104 2.01694 0.25
267 3.35666 7.17878 5.72531 0.25
268 3.52875 7.77833 6.28949 0.25
269 7.50067 8.89607 6.13763 0.25
270 3.25642 7.38074 6.18528 0.25
271 4.06363 9.04965 1.68798 0.25
272 6.26839 6.2804 5.34858 0.25
273 9.69142 3.34833 6.59386 0.25
274 3.68868 4.44647 5.79446 0.25
275 10.0335 6.66522 2.71754 0.25
276 8.34419 0.879669 8.67827 0.25
277 3.05087 10.2052 8.12281 0.5
278 4.66147 6.22731 8.465 0.25
279 2.86572 0.0158322 8.84582 0.25
280 3.69382 0.614591 9.44425 0.25
281 4.44934 8.56457 3.45395 0.25
282 4.55344 0.81889 3.5609 0.25
283 9.62347 0.0427457 8.90762 0.25
284 1.78143 5.2449 0.295052 0.25
285 8.44967 6.71629 1.27546 0.25
286 9.72343 1.93683 1.92432 0.25
287 1.40563 8.34971 2.59136 0.25
288 1.0708 5.75482 4.43489 0.25
289 9.02933 1.26978 0.978925 0.25
290 8.64324 3.96253 2.19491 0.25
291 8.19007 2.4828 10.2108 0.25
292 4.04595 9.48788 1.3518 0.25
293 4.98862 2.5064 7.01509 0.5
294 10.2646 6.43679 2.37739 0.25
295 7.14643 0.804321 7.13718 0.5
296 2.82013 2.89612 4.44446 0.25
297 0.378182 8.11945 5.43457 0.25
298 4.31252 9.13022 0.824993 0.25
299 9.30011 5.11452 9.74229 0.25
300 1.42351 9.85432 5.01661 0.25
301 4.82838 7.9816 8.19273 0.25
302 5.02297 5.06266 7.96113 0.25
303 8.89492 5.58456 10.2478 0.5
304 4.93614 3.4784 2.76211 0.25
305 1.51896 8.17015 2.14629 0.25
306 10.0674 8.01679 8.61964 0.25
307 0.835818 6.40568e-05 10.3191 0.25
308 9.27832 6.31589 6.17099 0.25
309 8.299 1.66397 8.55478 0.25
310 5.59892 6.61097 5.9947 0.25
311 1.66909 0.575887 2.36489 0.25
312 9.10242 1.08006 8.82025 0.5
313 1.08322 7.87758 1.98264 0.25
314 0.574712 4.50338 2.33084 0.25
315 2.91655 0.602357 9.30045 0.5
316 6.63696 4.29827 7.1364 0.25
317 6.38341 9.99732 8.48964 0.25
318 10.2636 7.62412 8.42613 0.25
319 9.91463 9.47764 3.30139 0.25
320 1.33966 2.75304 0.205078 0.25
321 2.45151 1.89299 1.43486 0.25
322 0.551249 7.09241 4.44166 0.25
323 6.46906 10.0801 9.2346 0.5
324 7.58802 1.68465 2.49127 0.25
325 9.08467 3.7914 2.03689 0.25
326 2.68842 0.263976 4.92638 0.25
327 1.77189 8.69579 7.14777 0.25
328 4.60296 3.78997 2.58449 0.25
329 8.64645 7.03567 4.11856 0.5
330 9.56406 6.78431 2.54108 0.25
331 9.43232 0.056857 3.84201 0.25
332 6.25075 7.31832 10.1964 0.25
333 0.0960836 7.63768 9.22107 0.25
334 6.86471 4.87851 1.3869 0.25
335 5.74617 4.68232 0.460452 0.25
336 9.14564 3.73273 1.54158 0.25
337 4.6659 5.77228 8.5665 0.25
338 6.782 8.13537 2.08345 0.25
339 4.23826 6.07063 8.37628 0.25
340 0.919213 2.60508 10.3019 0.25
341 3.87911 5.79321 4.64669 0.25
342 9.67501 3.43723 7.06696 0.25
343 10.1359 1.75375 3.58259 0.25
344 4.20783 0.830036 3.13241 0.25
345 6.30692 4.50784 10.0902 0.25
346 1.6806 1.8307 7.79641 0.25
347 3.43244 4.15583 0.102013 0.25
348 5.90487 7.13835 0.515931 0.25
349 4.88186 1.90974 7.55308 0.25
350 3.05378 3.25447 7.86508 0.25
351 5.3998 6.3008 4.17675 0.25
352 8.18571 6.39172 1.51314 0.25
353 9.71885 3.87144 7.28835 0.25
354 9.98898 3.85044 2.03408 0.25
355 2.52602 1.26897 2.34285 0.25
356 4.16901 9.92562 0.721956 0.25
357 3.19305 4.40529 6.00728 0.25
358 4.35772 9.51432 0.488713 0.25
359 8.73144 6.77951 0.590281 0.5
360 3.526 0.419324 6.40913 0.25
361 0.215471 0.707633 6.30967 0.25
362 0.189755 7.40249 8.81309 0.25
363 6.94425 2.54392 3.01758 0.25
364 9.9361 6.75054 2.2293 0.25
365 6.06875 9.07197 5.0517 0.25
366 9.09884 4.2415 2.22408 0.25
367 3.44659 0.749127 8.67632 0.25
368 9.70753 6.52455 7.41896 0.25
369 9.20215 4.4008 4.7058 0.5
370 4.83185 1.6695 6.88841 0.5
371 9.39838 6.50258 1.8005 0.5
372 1.11021 2.40462 4.10862 0.5
373 3.66318 0.265339 8.54727 0.25
374 3.59355 0.456165 8.99268 0.25
375 4.451 1.30232 3.8564 0.25
376 0.633822 5.60717 4.31172 0.25
377 10.0884 7.56634 8.9074 0.25
378 9.99022 8.8686 1.24342 0.25
379 0.347759 3.93376 6.31532 0.25
380 1.76554 2.16573 4.30822 0.25
381 7.04769 4.89031 2.10094 0.5
382 1.91917 8.23561 9.80131 0.25
383 5.54836 8.3767 7.98312 0.25
384 1.34489 6.6008 7.48119 0.25
385 1.05875 7.1182 4.43283 0.25
386 1.76423 5.52279 7.51625 0.25
387 1.3553 5.81096 7.55443 0.25
388 3.09874 1.86229 1.96605 0.25
389 5.71 2.3909 0.971212 0.25
390 3.25284 3.9571 10.0254 0.25
391 4.24888 0.158502 6.14279 0.25
392 0.777174 5.59949 4.79285 0.25
393 9.19916 9.1001 6.29531 0.25
394 0.160758 0.734362 5.79558 0.25
395 1.86611 4.6936 2.94494 0.25
396 3.41162 0.396491 9.8469 0.25
397 7.16764 1.82715 2.65747 0.25
398 9.84535 4.93241 9.1338 0.25
399 2.67479 9.95302 7.42359 0.25
400 7.61361 2.91555 9.74936 0.25
401 5.76558 6.49466 3.82456 0.25
402 4.3632 6.00147 8.83035 0.25
403 6.08861 5.03068 0.278905 0.25
404 8.07979 3.68892 10.2761 0.25
405 1.28636 6.11258 0.630883 0.25
406 6.46254 9.37777 5.21346 0.25
407 7.5627 6.8913 8.49807 0.25
408 9.22828 8.96464 1.39947 0.25
409 10.3253 6.69245 1.94033 0.25
410 5.65636 0.781161 4.097 0.25
411 7.91669 8.88474 10.0993 0.25
412 4.46101 2.1825 7.42806 0.25
413 6.94871 2.28328 2.55676 0.25
414 7.00991 5.47046 2.62393 0.25
415 4.7219 1.38814 3.14004 0.5
416 10.0044 0.202021 9.16558 0.25
417 3.20937 7.95321 5.75637 0.5
418 0.787204 1.12037 6.65423 0.5
419 9.05458 0.22872 3.54442 0.25
420 5.2612 8.72523 7.68267 0.25
421 8.94295 6.20873 7.34471 0.25
422 2.10709 7.14578 3.06984 0.25
423 1.66827 5.16052 2.90276 0.25
424 0.429331 0.0848195 9.1566 0.25
425 1.89133 9.64745 4.85141 0.25
426 2.90884 1.41347 2.04349 0.25
427 7.12797 1.22988 6.52926 0.25
428 7.37621 9.54923 2.06142 0.25
429 5.03955 9.18554 7.73962 0.25
430 9.40642 9.28305 4.06681 0.25
431 6.79645 0.0920206 0.939972 0.25
432 2.57093 7.65338 9.55313 0.25
433 3.00955 2.61053 5.28603 0.25
434 5.84358 9.44501 8.79589 0.25
435 0.49906 3.00842 9.21433 0.25
436 6.50361 4.72531 0.137211 0.25
437 1.08233 5.51312 9.6611 0.25
438 7.83299 0.948665 6.70404 0.25
439 9.2676 9.76616 3.58024 0.5
440 2.57034 2.70691 7.80948 0.5
441 0.920335 4.10471 2.16078 0.25
442 6.6815 7.03148 10.3211 0.25
443 9.67451 10.0605 4.13097 0.25
444 1.20225 3.7255 1.92641 0.25
445 5.49274 6.08246 3.80803 0.25
446 8.39734 4.64983 4.07816 0.25
447 6.23576 4.99279 10.1657 0.25
448 5.27717 0.611299 3.45535 0.5
449 10.3627 0.990042 6.6303 0.25
450 2.05718 0.938555 2.29775 0.25
451 3.79182 3.38696 10.3691 0.25
452 6.10896 4.08699 4.28561 0.25
453 7.14523 4.26985 8.48169 0.25
454 2.01195 5.5775 8.49776 0.25
455 1.13723 5.8541 7.96848 0.25
456 2.80979 1.62905 1.58625 0.25
457 9.51357 8.28097 1.08925 0.5
458 1.76647 5.8956 7.20325 0.25
459 1.58102 1.33015 6.55614 0.25
460 2.21551 6.62668 7.38588 0.25
461 3.52597 5.80739 1.34077 0.25
462 3.97551 5.86125 1.18218 0.25
463 1.63009 0.141792 4.4834 0.25
464 9.80219 1.16905 1.58095 0.25
465 6.82932 5.57127 2.13808 0.25
466 4.5947 5.69779 7.81383 0.5
467 3.37398 5.22825 5.84448 0.25
468 2.00116 1.41398 2.39955 0.25
469 4.5893 3.51998 3.09569 0.25
470 3.7965 3.59725 2.86995 0.25
471 3.06857 10.01 4.46506 0.25
472 2.19783 2.2525 7.33697 0.25
473 2.71325 8.10558 9.43896 0.25
474 9.05059 3.87687 2.52572 0.25
475 8.5433 7.76535 3.83873 0.25
476 4.12931 6.32511 1.1717 0.25
477 9.97818 9.76856 3.7417 0.25
478 8.79678 6.038 1.20151 0.5
479 6.84737 0.552282 0.782259 0.25
480 2.42315 7.98265 9.86299 0.25
481 3.89915 9.91265 1.13539 0.25
482 6.53056 9.79647 5.45464 0.25
483 6.86701 -0.00567273 0.206506 0.5
484 9.85701 3.43361 7.49924 0.25
485 7.95943 3.25632 0.0885006 0.25
486 4.11454 8.84828 3.65648 0.25
487 2.95023 3.9669 0.0621958 0.25
488 6.98246 9.36777 1.77449 0.25
489 9.1183 7.12678 3.58625 0.25
490 2.22335 3.4132 7.97849 0.25
491 8.79546 9.05774 6.61118 0.25
492 8.01736 2.59239 9.70271 0.25
493 10.0323 3.08897 7.25648 0.25
494 8.60508 4.87821 4.95242 0.25
495 10.285 3.36543 7.65372 0.25
496 4.32043 1.79162 6.34631 0.25
497 3.74414 3.81972 0.327565 0.25
498 8.68039 1.51835 9.28127 0.25
499 4.40929 9.42163 1.74286 0.25
500 4.0725 7.36811 9.15678 0.25
501 2.37481 0.136702 4.60447 0.25
502 9.67725 6.31218 6.41392 0.25
503 6.46222 8.25763 2.91631 0.25
504 6.52347 7.46121 0.210123 0.25
505 7.72313 1.27783 5.97828 0.5
506 5.71497 10.2719 5.22531 0.25
507 6.86002 8.30389 2.5588 0.25
508 4.92824 8.40251 8.7643 0.25
509 1.48956 9.09119 7.87266 0.25
510 5.71334 3.80306 4.45163 0.25
511 3.78102 0.286278 5.98532 0.25
512 1.78217 5.04 3.70542 0.25
513 1.76651 5.19539 10.1204 0.25
514 3.78844 2.12579 5.1397 0.25
515 2.02725 1.54184 7.19062 0.5
516 6.01025 9.35952 5.77435 0.5
517 8.83548 7.50192 3.50113 0.25
518 2.99133 0.598706 10.1502 0.25
519 2.57941 10.1606 4.33565 0.25
520 5.28295 2.09007 7.53092 0.25
521 1.13016 4.38434 5.47371 0.25
522 2.278 9.97034 4.70553 0.25
523 2.92201 3.09691 8.3521 0.25
524 8.47768 2.51538 5.44473 0.25
525 1.81633 6.90772 7.48475 0.25
526 1.65797 5.21378 8.31463 0.25
527 6.45474 9.42324 2.68755 0.5
528 7.19923 8.50753 2.8528 0.25
529 4.16303 6.83288 1.19404 0.25
530 1.2222 8.33946 1.80357 0.25
531 0.703867 3.44238 9.48248 0.25
532 2.09156 7.82401 0.30344 0.25
533 8.91337 9.85103 4.21243 0.25
534 8.85466 4.89426 4.19735 0.25
535 7.03631 6.90229 9.1924 0.25
536 4.73162 9.16885 0.582558 0.25
537 7.98309 1.45853 3.92279 0.25
538 7.61811 4.18515 7.681 0.25
539 10.3271 3.6913 6.93185 0.5
540 6.08385 10.1972 8.17052 0.25
541 9.56748 8.91812 1.06346 0.25
542 7.67556 9.31158 5.87476 0.25
543 9.26647 4.13375 4.01774 0.25
544 1.86537 2.19837 6.93434 0.25
545 9.60467 9.09232 3.29723 0.25
546 0.282135 0.30859 5.95558 0.25
547 9.53687 3.6344 1.81056 0.25
548 9.42294 4.79931 8.98831 0.25
549 1.30517 0.720311 1.99656 0.25
550 9.65306 8.7801 1.58671 0.25
551 3.01826 7.64027 3.10928 0.25
552 9.15768 9.39576 6.75791 0.25
553 5.28529 2.92918 5.05506 0.25
554 8.81759 4.39915 4.10992 0.25
555 5.52646 9.20142 7.68068 0.25
556 1.32485 9.36041 7.45349 0.25
557 3.13903 9.78284 7.47033 0.25
558 2.47261 3.84304 7.87212 0.25
559 9.76577 1.01217 9.04374 0.25
560 3.79012 4.91033 5.71488 0.25
561 0.98175 4.10525 1.68909 0.25
562 5.29554 5.31196 9.70658 0.25
563 5.63422 9.98297 8.13953 0.25
564 1.37299 1.74599 7.44913 0.25
565 1.6447 1.12579 2.17006 0.25
566 9.45472 6.803 7.06359 0.25
567 0.792878 6.09999 0.583675 0.25
568 8.11259 1.64926 5.50846 0.25
569 7.12242 3.7803 7.42829 0.5
570 4.78962 3.9257 3.03285 0.25
571 3.6691 3.50548 2.40416 0.25
572 8.65755 1.61657 8.79369 0.25
573 0.820076 7.05055 4.83639 0.25
574 0.50371 0.351316 6.40251 0.25
575 6.55701 3.9148 4.41684 0.25
576 5.65348 1.90423 0.946628 0.25
577 0.583725 7.90605 4.92019 0.25
578 1.06277 5.21481 10.3419 0.5
579 5.07289 5.15896 7.45176 0.25
580 8.28112 7.78316 4.31571 0.25
581 7.37442 6.40904 8.61677 0.25
582 7.23613 4.58234 5.05136 0.25
583 9.1747 5.81657 6.0661 0.25
584 5.17767 6.1801 3.38634 0.25
585 7.24549 0.29747 0.690318 0.25
586 1.63879 2.43853 4.68684 0.25
587 6.12079 10.0774 5.50689 0.25
588 2.87038 1.37037 9.65443 0.25
589 10.0167 3.73032 1.5738 0.25
590 8.57937 7.06303 3.42852 0.25
591 3.88881 2.6009 5.09558 0.25
592 6.55108 5.43952 2.47636 0.25
593 5.42297 9.81459 5.85251 0.25
594 9.09681 6.30257 0.158529 0.25
595 1.73299 2.16927 7.42832 0.25
596 9.04433 8.89564 0.94148 0.25
597 4.14415 1.10894 3.46907 0.25
598 6.31434 7.82984 10.34 0.25
599 9.67483 1.43916 2.0056 0.25
600 3.60952 9.25987 1.54288 0.25
601 7.07108 9.86545 2.39713 0.25
602 5.98364 8.27481 3.00956 0.25
603 1.95151 6.84621 6.99279 0.25
604 9.03451 0.527906 1.26672 0.25
605 1.46539 7.606 2.14419 0.25
606 1.4108 2.02752 7.01873 0.25
607 2.13438 2.07463 7.80799 0.25
608 6.04963 7.29051 5.89346 0.5
609 3.92867 5.74761 1.67034 0.25
610 6.3725 4.64739 0.855504 0.5
611 8.60012 8.48387 7.2143 0.25
612 8.32741 0.402787 3.82029 0.5
613 7.87193 2.73985 0.18974 0.25
614 9.27936 7.01452 1.19835 0.25
615 6.4565 4.05361 7.51012 0.25
616 1.3621 1.56154 6.89353 0.25
617 2.59595 3.45443 7.64002 0.25
618 7.8051 3.34204 9.98739 0.25
619 1.29303 9.73344 2.31453 0.25
620 6.77579 5.89351 2.56874 0.25
621 6.11983 4.63622 1.55053 0.25
622 7.05112 6.41985 9.00466 0.25
623 7.8847 4.62861 4.72759 0.5
624 4.75913 8.45448 8.33968 0.25
625 5.84252 2.06694 0.0254526 0.25
626 2.33796 2.87763 4.2604 0.25
627 6.75918 5.06423 2.80497 0.25
628 1.40146 9.71607 0.0532447 0.25
629 7.33158 10.1637 9.98989 0.25
630 5.55773 7.47491 0.324558 0.25
631 8.43098 2.42993 5.9237 0.25
632 3.35761 3.68978 0.0547347 0.25
633 3.75681 3.87496 10.1906 0.25
634 4.62622 7.74231 8.81293 0.5
635 9.3631 6.32705 7.107 0.25
636 8.81343 5.02778 9.72211 0.25
637 6.51993 9.02183 4.84652 0.25
638 1.96868 0.0862856 5.13218 0.5
639 7.05856 2.82266 2.61709 0.25
640 7.45111 1.62436 7.85038 0.25
641 3.62429 6.0014 4.23914 0.25
642 3.571 7.40616 6.55862 0.25
643 3.05108 1.70256 10.0006 0.25
644 6.20409 9.84143 4.82578 0.5
645 3.31585 3.18833 0.0351824 0.25
646 8.10533 7.51244 3.91069 0.25
647 5.94468 6.59615 5.58336 0.25
648 7.1678 1.21613 7.84209 0.25
649 4.78082 6.08651 8.95744 0.25
650 7.56051 1.23005 3.9322 0.25
651 4.79751 8.80107 7.94722 0.25
652 1.53901 5.70523 8.34388 0.25
653 0.850939 4.5191 5.88307 0.25
654 1.34178 6.17301 7.25637 0.25
655 10.0026 4.06897 1.21396 0.25
656 4.64077 4.99189 7.60121 0.25
657 8.61952 9.42772 6.9516 0.25
658 7.39175 4.04318 8.09659 0.25
659 9.03928 0.283498 4.07456 0.25
660 1.81597 6.21807 7.91817 0.5
661 2.53152 7.43573 3.07322 0.25
662 7.72736 8.87097 5.72678 0.25
663 3.50441 0.987893 9.1551 0.25
664 0.917865 2.7814 0.424021 0.25
665 8.19001 6.43067 0.975951 0.25
666 5.48644 9.65565 8.47696 0.25
667 8.29711 3.30574 10.0643 0.25
668 7.2673 1.73666 5.54964 0.25
669 3.34039 7.59311 9.51232 0.5
670 0.658929 2.5112 9.4433 0.25
671 0.795937 6.34553 4.68071 0.5
672 6.70733 6.99684 5.81288 0.25
673 3.58669 9.49069 1.10429 0.25
674 7.22345 4.35486 4.65308 0.25
675 8.35388 8.79951 7.48667 0.25
676 5.19698 2.26229 0.392407 0.5
677 9.37569 3.51484 7.48933 0.25
678 10.016 0.33155 6.37291 0.5
679 2.53909 1.99066 7.54877 0.25
680 2.90193 7.25708 2.80191 0.25
681 8.22054 9.15078 7.19909 0.25
682 3.32831 7.41454 5.30272 0.25
683 0.252883 2.97083 10.0389 0.25
684 1.46321 9.07543 6.9829 0.25
685 8.70749 10.2177 3.39646 0.25
686 6.87674 9.76515 5.14772 0.25
687 9.5347 3.05239 7.35155 0.25
688 5.67213 7.62225 1.10464 0.25
689 2.23625 2.4344 4.103 0.25
690 9.93542 7.68464 9.33655 0.25
691 0.764276 8.09239 5.71987 0.25
692 1.23213 4.25192 5.97525 0.25
693 9.52232 2.38966 4.03039 0.25
694 3.00373 3.4753 0.3162 0.25
695 8.40634 2.0203 5.57598 0.25
696 5.27836 1.34219 3.62862 0.25
697 1.38737 8.88259 7.41856 0.25
698 8.86497 6.05382 0.459895 0.25
699 3.97204 7.89889 5.42858 0.25
700 5.52971 7.26442 0.774239 0.25
701 3.29576 4.74752 5.64335 0.25
702 6.55439 3.91558 4.929 0.25
703 2.17794 0.466857 2.14243 0.25
704 6.65945 4.15818 8.42339 0.25
705 3.82393 6.04995 8.69961 0.25
706 7.60026 1.17186 7.62828 0.25
707 6.41917 6.6855 5.0391 0.25
708 5.67084 6.31265 3.40763 0.25
709 1.64009 4.31605 1.92434 0.5
710 1.34186 4.73916 5.80392 0.25
711 7.08484 4.50913 7.05955 0.25
712 4.37567 8.48876 3.93539 0.25
713 1.51265 4.90039 3.29852 0.25
714 1.75983 10.0339 4.63137 0.25
715 2.35163 3.65462 8.35492 0.25
716 9.47018 8.97522 0.64042 0.25
717 2.95119 5.07545 5.59423 0.25
718 5.87624 3.38892 5.08005 0.5
719 5.87085 2.77992 5.59836 0.25
720 5.73435 1.15758 3.7375 0.25
721 3.14322 7.74822 6.57242 0.25
722 3.5678 5.03786 4.40163 0.25
723 6.52242 6.72334 6.75771 0.25
724 9.69627 0.502276 9.01419 0.25
725 3.80475 0.284155 6.81478 0.25
726 3.5274 5.51464 4.39563 0.25
727 3.98599 5.32059 4.46174 0.25
728 1.97509 7.48479 10.0254 0.5
729 7.69723 2.01738 6.2324 0.25
730 8.3348 1.31281 8.92695 0.25
731 1.51036 5.59824 9.88581 0.25
732 3.97354 7.69617 6.40892 0.25
733 9.71811 2.01293 4.32561 0.25
734 8.09058 7.06752 3.60917 0.25
735 3.47954 2.37894 5.35222 0.25
736 8.53172 5.99577 6.51747 0.25
737 0.614737 4.38748 5.4732 0.25
738 5.21519 8.19363 8.39087 0.25
739 3.245 3.89632 0.460809 0.25
740 8.68811 6.57348 1.68448 0.25
741 7.25385 2.91639 3.07306 0.25
742 5.71016 1.71099 0.429049 0.25
743 9.90356 1.64086 4.03878 0.25
744 2.38205 2.40003 4.85658 0.5
745 0.445552 4.17094 5.8777 0.25
746 6.61624 4.52906 1.65462 0.25
747 8.45058 2.29822 9.78865 0.25
748 7.17617 10.0683 9.48776 0.25
749 6.53077 3.91038 7.96116 0.25
750 4.43341 2.28059 6.50775 0.25
751 1.81666 2.35814 3.86592 0.25
752 9.8455 2.05813 3.87904 0.25
753 0.926541 3.29269 10.1893 0.5
754 8.07311 2.27425 6.25233 0.25
755 7.99193 2.90895 10.1048 0.25
756 5.33614 1.65678 1.24794 0.25
757 0.144681 1.99655 4.21511 0.5
758 1.31932 10.1539 4.66031 0.25
759 5.00811 2.66507 8.13579 0.25
760 5.29877 1.05746 2.80654 0.25
761 6.65404 7.05298 6.34377 0.25
762 0.69145 3.77781 6.5846 0.25
763 6.51173 4.58969 4.74885 0.5
764 5.015 6.1436 3.85778 0.25
765 7.27765 7.18497 8.86924 0.25
766 1.21229 5.21181 3.10483 0.25
767 7.15154 2.51941 2.18176 0.25
768 5.16197 2.39021 5.60124 0.5
769 1.37095 2.64372 10.1152 0.25
770 6.32497 6.36941 6.12262 0.5
771 5.98004 7.19797 1.0018 0.25
772 7.05712 9.16295 5.55793 0.5
773 5.99256 4.18586 10.2534 0.25
774 6.71431 8.68979 2.81566 0.25
775 10.1433 8.04077 9.09195 0.25
776 4.49496 9.95761 0.31866 0.25
777 1.02783 8.25976 2.23603 0.25
778 3.15861 0.365378 8.61775 0.25
779 9.82883 8.16857 9.43126 0.25
780 5.26775 4.94525 9.44165 0.25
781 5.35188 6.58984 3.13863 0.25
782 9.31938 6.59235 1.01496 0.25
783 4.06167 8.63111 3.21605 0.25
784 3.50436 3.38043 0.444181 0.25
785 8.88304 8.82744 7.49051 0.25
786 6.08621 6.99176 5.24983 0.25
787 6.54046 7.1279 5.34304 0.25
788 5.55598 1.30365 3.20147 0.25
789 6.332 4.77746 1.98159 0.25
790 5.16431 2.11045 6.37064 0.25
791 8.71712 5.65593 6.2353 0.25
792 4.25168 3.13629 2.5304 0.5
793 0.0383047 0.244877 8.86406 0.25
794 1.74572 1.60646 2.00399 0.25
795 1.82218 8.72601 7.64864 0.25
796 2.0872 9.53742 4.17518 0.5
797 9.3651 9.03278 3.68037 0.25
798 9.26027 4.67513 4.00336 0.25
799 3.32934 5.87168 2.06733 0.5
800 9.86644 1.51412 1.21299 0.25
801 6.05552 10.2173 9.83113 0.25
802 6.32462 7.03421 0.290182 0.25
803 9.4259 5.22511 9.2881 0.25
804 4.26898 5.06583 7.29629 0.25
805 8.8698 3.92533 4.23615 0.25
806 2.38795 9.8758 7.85868 0.25
807 3.03305 4.91761 6.04744 0.25
808 8.65893 5.11658 9.23026 0.25
809 1.45227 5.08148 9.74484 0.25
810 7.39344 1.67596 6.47258 0.25
811 9.56032 4.74529 9.4544 0.25
812 3.81099 6.16231 1.53231 0.25
813 1.27137 3.85117 2.39206 0.25
814 1.51388 10.0197 9.98564 0.25
815 3.58651 5.27023 5.10379 0.5
816 6.49114 0.181814 9.88663 0.25
817 4.71439 9.70561 1.08334 0.5
818 9.31536 6.32434 0.594193 0.25
819 3.71162 6.61186 1.30471 0.25
820 6.78535 4.61077 8.58756 0.25
821 8.17618 8.64292 7.02505 0.25
822 3.86207 3.94111 3.26245 0.25
823 2.03857 9.41353 7.4115 0.5
824 7.52228 4.45554 7.32448 0.25
825 8.12746 9.04502 6.41677 0.5
826 7.33784 2.96216 2.25795 0.25
827 8.61912 6.22874 6.95386 0.25
828 9.59158 3.67379 1.31063 0.25
829 1.09417 7.84835 4.89316 0.25
830 4.11275 6.55808 1.60659 0.25
831 2.44946 7.2311 2.63957 0.25
832 4.01702 5.86475 9.15124 0.25
833 5.74238 6.8726 6.40723 0.25
834 8.51878 4.35317 4.88356 0.25
835 1.22583 1.33057 7.30513 0.25
836 6.42016 5.29482 2.0189 0.25
837 3.66927 7.19745 8.9703 0.25
838 2.80459 9.48794 7.27247 0.25
839 0.00603155 2.79722 4.29677 0.25
840 9.39589 3.8081 4.33565 0.25
841 5.52987 4.76288 10.1519 0.5
842 7.48554 6.72437 9.00107 0.25
843 0.837099 9.573 2.206 0.25
844 6.47283 4.99878 1.61394 0.25
845 8.46204 4.21922 4.3676 0.25
846 1.19393 5.34372 4.64159 0.25
847 8.41912 2.81534 9.88547 0.25
848 3.49223 1.12514 9.93164 0.5
849 6.36981 5.00154 2.47032 0.25
850 3.87424 8.59502 4.01311 0.25
851 4.01915 6.20119 1.95751 0.25
852 5.29714 1.12895 4.04367 0.25
853 9.20207 10.2291 4.26129 0.25
854 2.38914 3.1461 8.40892 0.25
855 3.64191 6.21455 1.01648 0.25
856 9.52183 3.31022 7.84996 0.25
857 6.12431 4.10443 5.16322 0.25
858 7.95977 6.81153 4.39526 0.25
859 9.41743 1.26684 1.2539 0.25
860 2.8352 9.74936 4.13059 0.25
861 3.62883 9.7194 1.55466 0.25
862 7.70824 1.20202 8.43553 0.5
863 0.206485 2.7568 9.60003 0.25
864 4.46902 3.3755 1.93011 0.25
865 0.373788 6.92418 4.94768 0.25
866 2.94207 0.999327 0.0205955 0.25
867 3.11182 8.35729 9.62708 0.25
868 9.47684 0.788269 1.44782 0.25
869 0.488845 8.4403 4.99527 0.25
870 7.09064 6.80546 8.65967 0.25
871 7.39869 3.19094 2.70838 0.25
872 8.22355 1.58712 7.74998 0.5
873 5.42991 9.85887 4.99214 0.25
874 6.81469 9.39661 4.89283 0.25
875 3.65297 8.27668 5.25984 0.25
876 3.6683 6.56017 1.80551 0.25
877 0.511343 2.34192 3.62505 0.25
878 0.0765426 0.418088 9.35303 0.25
879 0.835093 7.51933 4.69837 0.25
880 6.16694 3.54931 4.3814 0.25
881 4.2117 6.63547 8.92594 0.5
882 10.0658 0.659787 5.76339 0.25
883 5.65975 2.70723 5.15671 0.25
884 2.41817 1.99077 2.1712 0.5
885 8.51489 10.047 3.87001 0.25
886 9.32004 9.33777 1.05019 0.25
887 1.03918 6.21701 7.63938 0.25
888 2.11947 0.465762 1.63179 0.25
889 4.78049 5.30704 8.36546 0.25
890 0.674078 3.69616 6.0181 0.25
891 4.45735 3.8097 2.13295 0.25
892 6.23846 8.6886 2.97396 0.25
893 7.54669 2.98586 10.2854 0.25
894 2.22362 8.32354 0.269933 0.25
895 9.65406 3.80255 7.79487 0.25
896 9.32537 1.19102 1.73223 0.25
897 3.60679 7.90477 6.72565 0.25
898 0.839772 5.10394 5.32522 0.5
899 0.242755 0.542647 6.80149 0.25
900 8.34179 7.44149 3.51541 0.25
901 0.827327 8.13721 5.25674 0.25
902 5.29149 2.12544 1.06974 0.25
903 8.40688 7.45822 4.682 0.25
904 1.12694 6.13339 10.2596 0.5
905 9.31634 0.827865 0.987809 0.25
906 9.76923 9.57895 4.15389 0.25
907 4.21896 3.84499 2.92154 0.25