ITEM: TIMESTEP
860000
ITEM: NUMBER OF ATOMS
1000
ITEM: BOX BOUNDS xy xz yz pp pp pp
0.0000000000000000e+00 1.0357442000000001e+01 0.0000000000000000e+00
0.0000000000000000e+00 1.0357442000000001e+01 0.0000000000000000e+00
0.0000000000000000e+00 1.0357442000000001e+01 0.0000000000000000e+00
ITEM: ATOMS id x y z radius
1 1.62454 4.25618 2.89909 0.5
2 1.98435 7.80096 2.83569 0.5
3 4.79655 1.95283 0.986479 0.25
4 0.59153 2.65436 4.6118 0.25
5 9.83728 2.86924 7.44502 0.25
6 0.670545 2.80556 10.2548 0.25
7 4.61078 0.915745 2.70057 0.25
8 8.89151 4.31705 2.24012 0.25
9 9.73178 1.54409 1.41799 0.25
10 7.93757 7.51722 3.87633 0.25
11 10.1409 8.74815 1.74205 0.25
12 7.61575 2.54067 9.88853 0.25
13 3.54184 7.24631 5.96059 0.25
14 5.34822 2.30237 -0.0140631 0.25
15 8.85512 6.48065 6.18696 0.25
16 8.44753 8.47542 6.54735 0.25
17 5.3092 9.18202 8.5263 0.5
18 2.32796 7.5105 9.61514 0.25
19 7.24411 4.67208 4.88283 0.25
20 9.04772 0.928795 1.66266 0.25
21 0.325927 10.1158 9.31553 0.25
22 4.67563 1.32585 2.95158 0.25
23 4.97938 3.81648 2.68593 0.25
24 2.76911 2.60255 4.15134 0.25
25 7.38966 2.09368 5.82058 0.25
26 5.45734 2.68773 8.27391 0.25
27 1.85628 8.13566 10.1395 0.25
28 8.8578 6.5524 6.67278 0.25
29 3.57405 7.51851 5.57092 0.25
30 1.30635 8.23489 7.65557 0.25
31 0.669297 7.09298 4.6299 0.25
32 8.9552 6.78205 1.39363 0.25
33 10.283 8.46612 1.34396 0.25
34 0.483762 2.87685 9.39171 0.25
35 7.81439 2.78948 9.45848 0.25
36 8.26883 8.87443 9.41442 0.25
37 4.27965 4.89626 5.86878 0.25
38 6.83448 0.571901 1.016 0.25
39 5.72305 4.04159 5.17194 0.25
40 8.75616 4.43286 4.67048 0.25
41 8.45804 7.09916 3.33149 0.25
42 6.3857 8.61912 2.71149 0.5
43 0.339088 8.23523 5.9927 0.25
44 2.87991 10.1352 5.11309 0.25
45 6.54766 6.96109 8.39839 0.25
46 0.892053 8.56158 7.69782 0.25
47 4.57406 8.59197 3.49174 0.25
48 2.6493 9.85275 5.45 0.25
49 4.3835 5.95584 9.08891 0.25
50 10.0756 9.40011 3.51233 0.25
51 9.56254 9.34852 0.899494 0.25
52 6.42299 7.53646 0.46624 0.25
53 6.99244 5.32643 1.85409 0.25
54 4.90716 4.69659 8.17928 0.25
55 6.52547 7.27609 6.64242 0.25
56 5.40791 1.48799 1.02749 0.25
57 4.94891 2.11544 0.0362669 0.25
58 6.3032 4.18174 0.392725 0.25
59 4.16387 7.61923 8.94597 0.25
60 6.63953 6.85591 7.93094 0.25
61 3.11633 0.0379462 8.87892 0.25
62 9.32218 6.5718 6.90144 0.25
63 0.865286 5.58198 4.7365 0.25
64 10.1722 1.41413 1.49276 0.25
65 6.13656 6.47944 6.57036 0.25
66 4.25504 1.2457 2.77183 0.25
67 8.93001 4.91154 9.25891 0.25
68 6.31006 0.350619 0.00765281 0.25
69 2.64666 7.92662 2.99489 0.25
70 4.26167 5.37701 3.92964 0.25
71 1.32284 8.37634 2.60256 0.25
72 5.52515 6.57304 3.41672 0.25
73 8.82566 8.41552 7.25916 0.5
74 2.15108 7.41704 3.48631 0.25
75 1.02525 5.94506 0.903821 0.25
76 1.98947 7.83805 0.0794839 0.25
77 6.97612 7.09018 8.24739 0.25
78 4.57125 9.38432 1.56123 0.25
79 0.64876 5.86643 9.84232 0.25
80 8.4503 8.76674 9.81514 0.25
81 8.39727 9.40362 7.43676 0.25
82 1.69603 0.58321 1.50351 0.25
83 2.04397 8.33014 2.24836 0.25
84 5.42813 9.19631 5.495 0.25
85 3.81082 6.55463 1.1579 0.25
86 9.61335 3.6021 2.08475 0.5
87 1.59935 5.39414 8.76576 0.25
88 2.68917 3.87819 8.22969 0.25
89 0.301444 10.2056 9.79448 0.25
90 6.86727 10.2073 1.7774 0.5
91 4.7891 8.3017 3.85447 0.25
92 9.69779 0.730632 1.17694 0.25
93 8.24872 1.07083 8.27025 0.25
94 0.851651 3.96862 2.64442 0.25
95 7.79804 9.39583 5.46344 0.25
96 7.68306 1.31343 7.09434 0.25
97 5.59527 9.62174 5.54931 0.25
98 10.0512 0.705372 6.39667 0.25
99 5.11122 2.05858 8.07235 0.5
100 5.47318 2.91242 5.43842 0.25
101 5.07152 2.41232 9.69015 0.5
102 4.24842 5.16956 8.32388 0.5
103 7.04838 0.470867 1.44427 0.25
104 0.980164 9.77694 9.72985 0.25
105 2.1608 4.75908 3.09284 0.25
106 5.8229 7.19151 6.15781 0.25
107 5.84587 10.2328 8.53411 0.25
108 1.67171 4.05605 1.88822 0.25
109 7.66852 2.36685 2.69721 0.25
110 5.4703 9.91307 5.97163 0.25
111 1.53808 5.57389 0.272109 0.25
112 3.81642 5.164 5.72818 0.25
113 1.88657 0.3201 4.25354 0.25
114 8.42904 6.44318 0.149206 0.25
115 3.75801 3.75597 2.73445 0.25
116 0.26452 2.05009 3.56705 0.25
117 6.96201 2.06525 2.71371 0.5
118 6.75068 7.9617 2.70711 0.25
119 10.0409 2.50203 4.364 0.25
120 1.40981 5.62098 10.1318 0.25
121 8.06504 2.2429 5.39426 0.5
122 1.73934 4.80607 2.42428 0.25
123 9.30929 8.78606 1.43784 0.25
124 8.24196 6.38236 0.650825 0.25
125 1.86581 9.89575 3.95194 0.25
126 5.99565 7.374 0.627583 0.25
127 6.01753 7.86263 0.521915 0.25
128 9.28941 9.97161 3.60865 0.25
129 1.95926 5.15032 3.2982 0.25
130 9.27728 8.97076 0.975178 0.25
131 7.55978 2.10823 2.31612 0.25
132 8.76925 4.75663 4.94304 0.25
133 8.34012 9.26003 9.73873 0.25
134 4.96653 3.74581 3.21909 0.25
135 6.13574 9.63416 8.24034 0.5
136 8.28909 8.97457 7.21071 0.25
137 1.79708 9.55645 1.60586 0.25
138 7.18877 4.22424 4.98025 0.25
139 7.15935 4.60488 7.75759 0.5
140 4.50032 8.3522 3.06987 0.25
141 2.18287 1.63242 1.20351 0.25
142 2.99222 2.9422 4.88595 0.25
143 7.72683 1.90851 3.47029 0.25
144 9.54215 6.26257 2.52786 0.25
145 3.82436 7.68021 6.02799 0.25
146 7.54159 8.95671 2.70357 0.25
147 4.12619 5.85063 4.03731 0.25
148 2.86065 1.69862 10.0765 0.25
149 9.46393 7.70902 9.06046 0.25
150 4.59451 4.73698 7.85067 0.25
151 6.98002 10.0081 10.0904 0.25
152 4.4658 9.14967 1.10632 0.25
153 5.28916 1.79525 7.38452 0.25
154 5.43105 9.71149 7.92579 0.25
155 3.95073 5.98203 1.87222 0.25
156 0.928732 8.26996 7.26603 0.25
157 4.61741 0.464782 4.03449 0.25
158 8.6705 9.29172 6.60262 0.25
159 3.46961 2.85006 5.1122 0.25
160 2.66468 3.42664 8.0025 0.25
161 3.21488 0.134915 9.38903 0.25
162 4.17703 2.13985 5.5721 0.5
163 6.84206 10.0447 2.48862 0.25
164 5.10574 8.45432 8.11187 0.25
165 0.467843 2.73649 9.8241 0.25
166 6.72546 4.12171 6.85512 0.25
167 9.12774 9.96034 4.03934 0.25
168 10.3218 7.96134 9.10606 0.25
169 9.25021 6.07856 7.55331 0.25
170 3.28175 0.230843 8.18911 0.25
171 1.14375 8.66448 6.9117 0.25
172 9.80102 6.41911 7.08053 0.25
173 0.893108 1.57885 4.10905 0.25
174 4.75968 1.72774 5.95992 0.25
175 9.41414 3.05172 7.19936 0.25
176 1.1094 6.42973 1.0018 0.25
177 9.83316 5.89372 6.95313 0.25
178 7.77491 1.63568 5.04695 0.25
179 2.62145 9.34265 7.78028 0.25
180 7.14329 8.83311 2.12312 0.5
181 1.16549 4.14426 5.82027 0.25
182 7.42006 1.7245 3.2018 0.25
183 2.44138 9.56205 4.67217 0.25
184 8.77726 5.25609 9.6105 0.25
185 8.7172 8.87012 6.33684 0.25
186 2.94114 8.21668 9.43781 0.25
187 3.07429 3.73215 10.0399 0.25
188 5.33915 2.29964 7.37172 0.25
189 10.0102 0.472988 6.85548 0.25
190 2.49057 7.81403 3.41375 0.25
191 5.26654 2.7476 9.04102 0.25
192 8.74236 9.16616 7.17658 0.25
193 5.05359 2.27591 8.91219 0.25
194 4.40009 9.6602 1.10295 0.25
195 5.10417 5.04855 9.79317 0.25
196 4.57129 2.37851 0.281733 0.25
197 9.15414 5.84542 6.52949 0.5
198 7.22568 1.88901 7.12188 0.5
199 7.02743 0.109375 9.95765 0.25
200 7.25808 1.09276 6.31481 0.25
201 6.06933 7.03457 6.59099 0.25
202 3.45184 7.94991 5.23764 0.25
203 4.07459 10.1072 0.45817 0.25
204 0.574485 3.54851 6.43731 0.25
205 4.0484 0.198299 6.36574 0.25
206 0.713963 1.85665 3.70925 0.25
207 1.39674 5.17652 3.83525 0.5
208 4.14685 4.46948 6.15607 0.25
209 7.46382 9.41876 2.39214 0.25
210 3.60376 0.163001 6.66091 0.25
211 1.38845 4.9087 2.77633 0.25
212 0.197253 4.07027 2.14113 0.5
213 9.32184 4.11926 2.55896 0.25
214 3.45796 4.84561 5.94745 0.25
215 9.928 0.876755 8.68614 0.25
216 5.67715 2.27437 0.400614 0.25
217 0.379741 7.73016 5.91752 0.25
218 2.42453 1.18784 1.80502 0.5
219 1.01823 4.31739 6.2124 0.25
220 6.55684 9.23967 2.32229 0.25
221 7.93143 7.06899 4.15752 0.25
222 8.98314 6.33476 7.15727 0.25
223 5.61013 9.37719 5.05569 0.25
224 10.2283 3.15001 7.33816 0.25
225 8.47645 1.5898 5.64498 0.25
226 6.48358 9.37453 4.82233 0.25
227 7.317 0.435842 1.03487 0.25
228 4.75276 1.95564 0.46491 0.25
229 2.66507 2.29462 1.66605 0.25
230 8.46266 6.70532 3.5924 0.25
231 7.66477 4.11197 6.84375 0.25
232 6.98812 9.57231 2.26007 0.25
233 8.05637 2.04322 9.43087 0.5
234 3.6214 9.3369 1.31907 0.25
235 0.825308 8.8064 7.29553 0.25
236 1.23231 5.18622 0.508161 0.25
237 7.36841 1.59738 3.6738 0.25
238 1.28524 5.86446 4.10311 0.25
239 0.459871 3.23051 0.103506 0.25
240 1.60999 8.85142 2.00556 0.5
241 1.69756 9.60475 2.10033 0.25
242 3.77706 7.79908 6.50002 0.25
243 1.76595 5.81784 0.63972 0.25
244 1.50544 0.803795 6.84174 0.25
245 6.46003 6.80288 6.81891 0.25
246 2.3404 8.12634 10.1357 0.25
247 2.66508 7.49435 2.67062 0.25
248 5.48839 2.40655 8.65857 0.25
249 6.87543 4.58726 5.20882 0.25
250 7.47549 1.49765 6.60627 0.25
251 1.27634 1.46897 6.31433 0.25
252 7.54391 7.3318 9.0825 0.25
253 4.24624 7.28968 8.59531 0.25
254 1.44737 9.70046 1.29763 0.25
255 2.19073 0.475608 1.42937 0.25
256 3.35763 5.64494 4.32505 0.25
257 0.752587 10.1805 9.58396 0.25
258 4.70316 5.19767 7.07752 0.25
259 2.00904 0.0189815 3.84053 0.25
260 0.297766 9.88112 10.1688 0.25
261 7.16721 6.76317 7.94766 0.25
262 5.37618 6.21629 3.81854 0.25
263 8.13761 8.4589 9.60855 0.25
264 7.59266 9.45932 10.017 0.5
265 4.37769 3.19837 2.54492 0.25
266 4.04967 3.20433 2.14063 0.25
267 3.18212 7.19051 5.61664 0.25
268 3.43879 7.52148 6.35104 0.25
269 7.33289 9.07023 6.08505 0.25
270 3.08501 7.20566 6.09659 0.25
271 4.24541 9.77498 1.6013 0.25
272 6.73164 6.44438 5.42442 0.25
273 10.2338 4.10055 7.34953 0.25
274 3.64088 4.45094 6.19404 0.25
275 0.0655577 6.72899 2.36535 0.25
276 8.15801 1.28647 8.76621 0.25
277 2.90532 9.9739 8.2092 0.5
278 4.56717 5.88261 8.22878 0.25
279 2.66837 0.0431647 8.79809 0.25
280 3.48083 0.571645 9.42846 0.25
281 4.21184 8.87963 3.66076 0.25
282 4.77159 0.259483 3.23749 0.25
283 9.50679 0.494201 9.24058 0.25
284 1.25447 5.20217 0.00994505 0.25
285 8.46388 6.96631 1.26407 0.25
286 10.0724 1.88565 1.6186 0.25
287 1.78715 8.49541 2.6597 0.25
288 1.25354 5.56933 4.49698 0.25
289 8.94917 1.20404 1.31109 0.25
290 8.56183 3.98158 1.9804 0.25
291 8.08791 2.67128 9.87611 0.25
292 4.10404 9.36118 1.38016 0.25
293 4.88108 2.51842 6.7489 0.5
294 10.1228 6.77915 2.73055 0.25
295 7.02075 1.00945 7.01409 0.5
296 2.85485 3.00249 4.43846 0.25
297 0.342932 7.98008 5.51258 0.25
298 4.70715 9.37812 0.769305 0.25
299 9.15381 5.23961 9.90709 0.25
300 2.00375 9.72717 4.4638 0.25
301 4.63197 8.51449 7.84647 0.25
302 5.08409 4.64322 7.68474 0.25
303 8.58691 5.74813 10.149 0.5
304 4.13359 3.96104 3.03048 0.25
305 1.65005 8.14345 2.31681 0.25
306 9.8304 8.10231 8.91146 0.25
307 0.499162 9.75491 9.70319 0.25
308 9.30743 6.65636 6.42122 0.25
309 7.88936 1.74342 8.79652 0.25
310 5.98151 6.3404 6.09803 0.25
311 1.49768 0.570092 1.97749 0.25
312 8.88064 1.17505 8.60525 0.5
313 1.53091 8.09683 1.83874 0.25
314 0.875989 3.73129 2.19552 0.25
315 2.81821 0.6961 9.15169 0.5
316 6.6547 4.29212 7.31461 0.25
317 6.35732 10.2453 8.61816 0.25
318 10.197 8.00436 8.61747 0.25
319 9.69501 9.17585 3.66867 0.25
320 0.102179 3.52872 9.60633 0.25
321 2.67519 1.82179 1.39684 0.25
322 1.12776 7.03873 4.40917 0.25
323 6.57998 10.2234 9.40369 0.5
324 7.20985 2.00942 3.46702 0.25
325 9.06592 4.03404 1.84995 0.25
326 2.43671 10.3315 5.30266 0.25
327 1.69859 8.42217 7.52041 0.25
328 4.2016 3.5208 2.92304 0.25
329 8.62797 7.37972 4.01276 0.5
330 10.136 6.54301 1.98678 0.25
331 9.03694 9.49284 4.17288 0.25
332 6.02409 7.2168 1.1007 0.25
333 10.2525 7.5164 9.20726 0.25
334 7.09638 4.92581 1.5277 0.25
335 5.80728 4.47575 0.456833 0.25
336 9.38793 4.34827 2.10311 0.25
337 4.89802 5.59906 8.46339 0.25
338 6.69915 8.19676 2.21513 0.25
339 4.08027 5.88794 8.32979 0.25
340 0.125212 3.06262 9.69652 0.25
341 3.82387 5.88503 4.44501 0.25
342 9.72747 3.84883 7.31246 0.25
343 10.1372 1.9449 3.66917 0.25
344 4.16283 0.727554 2.77903 0.25
345 6.37121 4.31896 10.2394 0.25
346 1.91306 1.78894 7.55193 0.25
347 3.51977 4.27867 0.166298 0.25
348 5.62103 7.5545 0.427116 0.25
349 4.79862 1.60942 7.52526 0.25
350 2.82562 3.44473 7.55425 0.25
351 5.70052 7.01653 3.6086 0.25
352 8.15926 6.66121 1.504 0.25
353 10.1707 3.5868 7.5371 0.25
354 9.73518 3.78554 1.37669 0.25
355 1.99752 1.48197 2.24581 0.25
356 4.68291 9.53686 0.307526 0.25
357 3.43187 4.38823 5.71709 0.25
358 4.49404 9.87049 0.659612 0.25
359 8.88834 6.73623 0.660357 0.5
360 3.93143 10.1188 6.65682 0.25
361 0.18137 0.596858 6.34794 0.25
362 0.0918159 7.61818 8.75429 0.25
363 7.3514 2.60897 2.38829 0.25
364 9.99922 6.42689 2.4515 0.25
365 6.02653 9.53373 4.86229 0.25
366 8.9558 3.84854 2.30758 0.25
367 3.28101 0.45156 8.64785 0.25
368 9.76155 6.06942 7.43291 0.25
369 9.35647 4.18674 4.79022 0.5
370 4.7718 1.60001 6.75593 0.5
371 9.36927 6.64208 1.91159 0.5
372 1.19157 2.32303 4.22205 0.5
373 3.51556 0.023896 8.59693 0.25
374 3.51024 0.293079 9.02079 0.25
375 4.41622 0.257048 3.63361 0.25
376 0.869284 5.56433 4.20202 0.25
377 9.96381 7.69071 8.89026 0.25
378 9.38043 9.27938 1.40011 0.25
379 0.354109 3.7873 6.06416 0.25
380 1.74097 2.10464 4.8105 0.25
381 6.95472 4.73767 2.2911 0.5
382 2.76884 8.27583 9.92351 0.25
383 5.56251 8.55432 8.2357 0.25
384 1.33392 6.37036 7.49912 0.25
385 1.00312 6.92568 4.89233 0.25
386 1.90471 5.41684 7.95951 0.25
387 1.44804 5.55351 7.7933 0.25
388 2.70141 2.22527 2.15737 0.25
389 5.53997 1.92102 0.769294 0.25
390 3.53311 4.0506 10.0467 0.25
391 3.86957 0.578515 6.65932 0.25
392 1.22944 5.78957 4.96628 0.25
393 8.93207 8.5088 6.55531 0.25
394 10.2716 0.632891 5.95785 0.25
395 2.16856 4.66899 2.5883 0.25
396 3.18082 0.500021 9.81396 0.25
397 7.55817 2.22263 3.18199 0.25
398 9.71972 5.01735 9.28853 0.25
399 2.41428 9.76451 7.63825 0.25
400 7.37423 2.84126 10.1544 0.25
401 5.34654 6.72701 3.82813 0.25
402 4.39341 5.71466 8.67679 0.25
403 5.94212 4.94472 0.533795 0.25
404 7.83668 2.78955 0.740646 0.25
405 1.32832 5.66536 0.685774 0.25
406 6.4022 9.67825 5.16361 0.25
407 7.34074 6.78686 8.38491 0.25
408 9.81819 8.60751 1.41659 0.25
409 9.65816 6.72325 2.62326 0.25
410 5.73173 0.893733 3.73994 0.25
411 7.77476 8.74753 10.2984 0.25
412 4.88205 2.0709 7.34671 0.25
413 7.31732 2.6394 2.89985 0.25
414 7.03 5.33597 2.72894 0.25
415 4.3827 0.927356 3.46066 0.5
416 9.95113 0.725738 9.15986 0.25
417 3.14849 7.94433 5.92072 0.5
418 0.775817 0.865889 6.53999 0.5
419 9.11822 9.7966 4.53651 0.25
420 5.36138 8.86799 7.87835 0.25
421 8.9601 5.88239 7.20547 0.25
422 2.07521 7.06416 3.15774 0.25
423 1.85052 5.02885 2.81825 0.25
424 10.2721 -0.000524994 9.50376 0.25
425 2.37186 10.0709 4.5496 0.25
426 2.48588 1.78735 2.28975 0.25
427 7.08894 1.5324 6.34363 0.25
428 7.27117 9.50386 1.87481 0.25
429 5.11913 9.33742 7.8051 0.25
430 0.0989667 9.51313 3.82765 0.25
431 6.93159 0.115933 1.08136 0.25
432 2.7025 7.77812 9.35066 0.25
433 3.03868 2.57572 5.15673 0.25
434 6.08996 10.0063 8.95507 0.25
435 0.945665 3.12405 0.056099 0.25
436 6.5206 4.7687 10.1847 0.25
437 0.625131 6.48215 0.213357 0.25
438 7.70419 1.11097 6.57993 0.25
439 9.81558 9.69884 4.18471 0.5
440 2.55985 2.75172 7.53953 0.5
441 1.28304 3.75085 2.49761 0.25
442 6.20852 7.05793 0.322171 0.25
443 9.69598 9.67903 3.45972 0.25
444 1.32604 3.73977 1.92817 0.25
445 5.24583 6.97283 3.39894 0.25
446 8.54674 4.81793 4.47044 0.25
447 6.40276 5.0392 0.236381 0.25
448 5.20414 0.928932 3.21064 0.5
449 0.0162842 1.04718 6.30051 0.25
450 1.80231 1.0227 2.13208 0.25
451 3.50906 3.4132 0.371198 0.25
452 5.97802 4.39001 4.89466 0.25
453 7.74141 4.28275 8.21733 0.25
454 1.3448 5.82736 8.621 0.25
455 1.11739 5.75619 8.18642 0.25
456 2.7788 1.84692 1.84183 0.25
457 10.2603 9.24395 1.21195 0.5
458 1.89042 5.68716 7.5499 0.25
459 1.10966 1.51473 6.75797 0.25
460 2.29252 6.00715 7.48598 0.25
461 4.07208 6.47215 1.90172 0.25
462 4.19292 6.63809 1.44482 0.25
463 1.55915 10.3171 4.08856 0.25
464 9.85311 1.0591 1.56036 0.25
465 7.01155 5.54637 2.28283 0.25
466 5.01906 5.37842 7.76965 0.5
467 3.32113 5.23209 5.59002 0.25
468 1.68448 1.44338 1.85902 0.25
469 4.59965 3.94102 2.95858 0.25
470 4.84747 3.38111 2.47729 0.25
471 2.804 9.60712 5.03489 0.25
472 2.15027 2.48008 7.01292 0.25
473 3.06196 7.84673 9.76438 0.25
474 8.94242 3.60459 1.86069 0.25
475 9.05397 6.87873 4.35939 0.25
476 4.15726 6.23256 1.12341 0.25
477 10.1671 9.83489 3.52907 0.25
478 8.55334 6.14421 1.28807 0.5
479 6.56541 0.392567 1.33971 0.25
480 2.57255 7.86165 9.78685 0.25
481 3.98125 8.95145 1.23566 0.25
482 6.45705 9.78829 5.61986 0.25
483 6.98868 0.17822 0.340584 0.5
484 9.79489 3.36875 7.34968 0.25
485 7.9482 2.52851 0.309301 0.25
486 4.14753 8.4045 3.39917 0.25
487 3.09079 4.24717 10.2369 0.25
488 6.74217 9.43581 1.88523 0.25
489 8.38106 7.42449 4.74669 0.25
490 2.29197 3.1712 8.11808 0.25
491 8.57077 8.88079 6.81781 0.25
492 7.72416 3.058 9.84747 0.25
493 9.58416 3.47787 6.96559 0.25
494 8.69432 4.27183 5.13447 0.25
495 9.84923 3.07262 6.96198 0.25
496 4.32334 1.61334 6.10396 0.25
497 3.49158 3.96422 0.581187 0.25
498 8.28364 1.44517 9.11122 0.25
499 3.90561 9.78213 1.26022 0.25
500 4.12175 7.18811 9.12634 0.25
501 2.59161 0.0232626 4.78763 0.25
502 9.6604 6.30698 6.65465 0.25
503 6.88535 8.28324 3.06059 0.25
504 6.28938 7.6287 0.916882 0.25
505 7.73301 1.446 5.85993 0.5
506 5.22292 9.98384 5.54239 0.25
507 7.07475 8.27214 2.54091 0.25
508 4.80398 8.59532 8.84014 0.25
509 1.10863 9.02526 7.62329 0.25
510 6.00194 3.9623 4.75299 0.25
511 4.09334 0.194021 6.87093 0.25
512 1.96479 4.64141 3.52964 0.25
513 0.950504 5.45413 9.97131 0.25
514 3.5914 1.9635 5.04916 0.25
515 1.79041 1.82231 6.81222 0.5
516 6.15835 9.0948 5.4444 0.5
517 8.71754 7.07891 4.6784 0.25
518 2.78967 0.790578 9.89622 0.25
519 2.83203 9.9165 4.67096 0.25
520 5.35575 2.00893 7.0101 0.25
521 1.39026 4.47514 5.56453 0.25
522 2.36269 0.117371 4.29337 0.25
523 3.10111 3.23714 7.87789 0.25
524 8.23855 1.79132 4.86596 0.25
525 1.71044 6.6571 7.54489 0.25
526 1.80427 5.83624 8.77375 0.25
527 7.01225 9.47658 2.88718 0.5
528 7.47885 8.49438 2.69811 0.25
529 4.06876 5.81425 0.847492 0.25
530 1.46551 7.72662 2.16714 0.25
531 1.01278 2.71409 9.99878 0.25
532 2.56609 8.49569 0.0103763 0.25
533 9.42898 10.3274 3.92819 0.25
534 9.0594 4.8234 4.54256 0.25
535 7.06534 7.16905 9.06241 0.25
536 4.20602 10.0853 0.970597 0.25
537 7.41858 1.2628 3.29272 0.25
538 7.73778 4.27116 7.34648 0.25
539 10.2896 3.67739 6.77998 0.5
540 5.66908 10.163 8.00883 0.25
541 9.66355 8.93231 1.16236 0.25
542 7.67291 8.97837 5.71295 0.25
543 9.31124 4.14851 4.10491 0.25
544 1.46576 1.95439 7.50851 0.25
545 10.2083 9.07936 3.90136 0.25
546 0.487085 0.149161 6.45362 0.25
547 9.51119 4.14068 1.61243 0.25
548 9.39977 4.67834 9.37538 0.25
549 1.96054 0.923649 1.28399 0.25
550 9.69104 8.9872 1.69566 0.25
551 2.95084 7.63331 3.1209 0.25
552 9.0478 8.97974 6.74192 0.25
553 5.274 2.76301 4.98094 0.25
554 8.93822 4.4907 4.24067 0.25
555 5.6221 9.30192 7.81264 0.25
556 1.26522 9.07698 7.17701 0.25
557 2.86145 9.63715 7.48669 0.25
558 2.27949 3.68081 8.06854 0.25
559 9.6347 1.28469 8.71268 0.25
560 3.8861 4.64577 5.78859 0.25
561 0.857617 3.89364 1.71363 0.25
562 5.46925 5.33458 9.64516 0.25
563 5.49169 9.96855 8.38127 0.25
564 1.78066 1.14248 7.06841 0.25
565 1.67121 0.99209 1.70899 0.25
566 9.41899 6.54068 7.40165 0.25
567 1.47611 6.09245 0.973753 0.25
568 8.2283 1.44722 5.22875 0.25
569 7.15569 3.79666 7.34619 0.5
570 4.47073 3.70583 3.3109 0.25
571 4.58018 3.22221 2.10944 0.25
572 8.40075 1.72991 8.77576 0.25
573 0.840971 6.6183 5.27942 0.25
574 0.175274 0.385002 6.80569 0.25
575 6.49977 3.71127 4.8568 0.25
576 5.10737 1.71105 0.715081 0.25
577 0.376706 7.96585 4.9967 0.25
578 0.753975 5.69361 0.265607 0.5
579 5.174 4.90406 7.22187 0.25
580 9.24315 6.92516 3.89126 0.25
581 7.18028 6.44732 8.74221 0.25
582 7.37046 4.57518 5.3323 0.25
583 9.22818 6.36703 5.95115 0.25
584 5.22735 6.59491 3.04796 0.25
585 6.48538 0.244299 0.873364 0.25
586 1.74249 2.62785 4.68429 0.25
587 5.97638 9.71692 5.82921 0.25
588 2.64371 1.42587 9.29611 0.25
589 10.0282 4.08329 1.58986 0.25
590 8.24503 7.00552 4.52825 0.25
591 3.83682 2.49317 5.04107 0.25
592 6.63228 5.45397 2.544 0.25
593 5.57568 9.39355 5.94485 0.25
594 8.94282 6.20952 0.127875 0.25
595 1.85923 2.29581 7.4153 0.25
596 10.0088 8.6069 0.958261 0.25
597 4.20321 0.349359 3.14797 0.25
598 6.41954 7.13588 0.781878 0.25
599 9.91046 1.44171 1.88044 0.25
600 4.20704 9.40166 1.88853 0.25
601 7.3014 9.85683 2.31143 0.25
602 6.49242 8.40817 3.43427 0.25
603 2.19446 6.51858 7.58048 0.25
604 9.07377 0.44958 1.52697 0.25
605 1.29317 7.89745 2.59423 0.25
606 1.54916 1.46276 7.41472 0.25
607 2.18449 2.12829 7.82143 0.25
608 5.70299 6.79282 5.52108 0.5
609 3.7116 6.67989 1.60805 0.25
610 6.44742 4.64585 0.977051 0.5
611 8.12426 8.60828 7.52905 0.25
612 8.50982 10.0904 4.36563 0.5
613 7.97568 2.27285 10.1633 0.25
614 9.40188 6.94351 1.20434 0.25
615 6.58407 4.1244 7.72161 0.25
616 1.27381 1.19739 7.09183 0.25
617 2.30616 3.40099 7.65336 0.25
618 7.5263 2.81151 0.324575 0.25
619 1.33432 9.54117 1.78398 0.25
620 6.92298 5.83789 2.70614 0.25
621 6.4384 4.55222 1.78749 0.25
622 6.97538 6.69644 9.17032 0.25
623 7.998 4.46709 4.89431 0.5
624 4.77189 8.67138 8.36497 0.25
625 4.90589 2.59612 0.00393271 0.25
626 2.38673 2.93791 4.22229 0.25
627 6.63468 5.05207 2.89047 0.25
628 0.722304 9.57504 10.0883 0.25
629 7.43533 10.1719 10.2129 0.25
630 5.75907 7.09671 0.286641 0.25
631 8.73072 2.00465 5.69326 0.25
632 3.31689 3.83048 0.107887 0.25
633 3.79035 3.81923 0.165325 0.25
634 4.57885 8.00663 8.43617 0.5
635 9.40909 6.14493 7.09462 0.25
636 8.70641 4.97204 10.0338 0.25
637 6.36632 9.89748 4.76459 0.25
638 1.83535 -0.00709132 4.9091 0.5
639 6.9838 2.90387 2.58792 0.25
640 7.39205 1.69338 7.90219 0.25
641 3.63577 5.86513 3.95674 0.25
642 3.41126 7.05889 6.44302 0.25
643 2.84689 1.82439 9.59748 0.25
644 5.88875 10.149 5.30513 0.5
645 3.07039 3.42754 0.0799274 0.25
646 8.76619 6.72368 3.93503 0.25
647 6.23468 6.26103 5.65138 0.25
648 7.03731 1.36352 7.73687 0.25
649 4.7804 6.04118 8.73725 0.25
650 7.84505 1.441 3.42833 0.25
651 4.87978 8.91855 7.95042 0.25
652 1.14472 5.37488 8.64272 0.25
653 1.03196 4.63937 5.86249 0.25
654 1.49323 5.94192 7.39955 0.25
655 9.86836 4.324 1.95984 0.25
656 4.74689 4.8266 7.40105 0.25
657 8.35745 9.38022 6.94971 0.25
658 7.69818 4.08591 7.77854 0.25
659 8.85244 9.75764 3.76891 0.25
660 1.78454 6.13925 8.09616 0.5
661 2.50625 7.40431 3.14465 0.25
662 7.60687 9.45819 5.92401 0.25
663 3.54291 0.816838 9.01412 0.25
664 0.219931 3.26817 9.23197 0.25
665 8.14751 6.75673 0.960956 0.25
666 5.63915 9.87608 8.80108 0.25
667 7.98511 3.07345 0.276911 0.25
668 7.4152 1.92469 5.35309 0.25
669 3.46432 7.57483 9.25727 0.5
670 0.319531 2.51296 10.2816 0.25
671 0.886139 6.31375 4.51692 0.5
672 6.29732 7.19905 5.42855 0.25
673 4.28525 8.98494 1.60583 0.25
674 7.3943 4.40073 4.50593 0.25
675 8.01858 9.115 7.63228 0.25
676 5.11569 2.53473 0.714806 0.5
677 9.67054 3.59636 7.77891 0.25
678 10.1576 10.3487 6.24775 0.5
679 2.28333 2.08274 7.32872 0.25
680 2.86249 7.12938 2.94602 0.25
681 7.9223 9.31823 7.20961 0.25
682 3.16684 7.57412 5.24176 0.25
683 0.863492 2.60712 9.57428 0.25
684 1.61132 8.69854 7.07527 0.25
685 9.3067 10.2523 4.44257 0.25
686 6.64275 10.0358 5.2211 0.25
687 9.33995 3.52325 7.40798 0.25
688 5.56977 7.48158 10.2817 0.25
689 2.27116 2.49142 4.06205 0.25
690 9.81266 7.36096 9.19689 0.25
691 0.748289 8.01895 5.78382 0.25
692 1.49871 4.42314 6.0397 0.25
693 9.74377 2.22407 3.50011 0.25
694 2.83088 3.87948 0.0917281 0.25
695 8.60084 1.78173 5.2499 0.25
696 4.95958 0.865341 3.95543 0.25
697 1.26976 8.62027 7.40527 0.25
698 8.11194 6.02596 0.24835 0.25
699 3.81497 7.99705 5.63319 0.25
700 5.24478 7.27787 0.186985 0.25
701 3.56496 4.78912 5.4432 0.25
702 6.75615 4.08035 5.19408 0.25
703 1.9969 0.627316 1.89709 0.25
704 7.23146 4.23859 8.38606 0.25
705 3.94959 5.8697 8.81601 0.25
706 7.47359 1.30058 7.54395 0.25
707 6.70214 6.88998 5.29789 0.25
708 5.04166 6.5073 3.50487 0.25
709 1.13438 4.4091 2.16131 0.5
710 1.47822 4.87669 5.8663 0.25
711 6.97261 4.52191 6.97262 0.25
712 4.33743 8.42832 3.89208 0.25
713 1.6423 4.84946 3.22023 0.25
714 1.97127 10.1901 4.27505 0.25
715 2.53038 3.467 8.45788 0.25
716 9.71551 8.89611 0.685036 0.25
717 3.05338 5.42481 5.21562 0.25
718 5.87088 3.29164 5.03364 0.5
719 5.90387 2.69443 5.60547 0.25
720 5.36988 1.0995 3.99146 0.25
721 3.04072 7.45874 6.54154 0.25
722 4.09802 5.07286 4.30136 0.25
723 6.19913 7.47046 6.34957 0.25
724 9.49728 0.87923 8.94795 0.25
725 3.65163 10.2738 6.23726 0.25
726 3.81795 5.48877 4.19064 0.25
727 4.23686 5.57143 4.43699 0.25
728 2.14669 8.25517 9.45686 0.5
729 7.85056 2.09443 6.08772 0.25
730 7.78499 1.31894 9.06193 0.25
731 0.757527 6.25914 10.1151 0.25
732 3.83818 7.29247 6.34844 0.25
733 9.85807 2.06406 4.49987 0.25
734 8.27453 6.78947 4.04858 0.25
735 3.47374 2.38013 5.27602 0.25
736 8.54028 6.19867 6.43041 0.25
737 0.940493 4.43497 5.43199 0.25
738 5.18494 8.38877 8.55737 0.25
739 3.05487 4.17518 0.386334 0.25
740 8.59803 6.85573 1.72807 0.25
741 7.19233 2.30009 2.04505 0.25
742 5.3048 1.90605 0.3211 0.25
743 9.91621 1.69638 4.06397 0.25
744 2.47864 2.46595 4.73714 0.5
745 0.683198 4.22736 5.83885 0.25
746 6.84391 4.51756 1.60757 0.25
747 8.16659 3.17082 9.61325 0.25
748 7.29765 10.1482 9.70542 0.25
749 6.91205 3.94629 8.0671 0.25
750 4.20823 2.01273 6.38805 0.25
751 1.91138 2.28346 4.34163 0.25
752 9.86567 2.21985 4.00006 0.25
753 0.816311 3.37494 9.74712 0.5
754 8.34258 1.98037 5.97313 0.25
755 7.82577 2.78506 10.2654 0.25
756 4.95392 1.49923 1.22721 0.25
757 0.215516 2.05083 4.25918 0.5
758 1.54539 9.86696 4.35976 0.25
759 5.01372 2.79334 8.0501 0.25
760 4.77868 1.56924 3.42147 0.25
761 6.08775 7.41482 5.81076 0.25
762 0.573529 4.04287 6.37204 0.25
763 6.62472 4.37198 4.55036 0.5
764 5.62193 6.94342 3.08815 0.25
765 7.28994 7.28678 8.61694 0.25
766 1.52199 5.29855 3.1128 0.25
767 6.82398 2.7223 3.01393 0.25
768 5.16753 2.34793 5.63112 0.5
769 0.148585 3.40979 10.1059 0.25
770 6.49981 6.86209 6.03604 0.5
771 5.72243 7.90721 0.101172 0.25
772 7.06975 9.39029 5.41825 0.5
773 5.93203 4.22539 0.0598877 0.25
774 7.11478 8.72399 2.85529 0.25
775 9.90396 7.85653 9.31313 0.25
776 4.42359 9.91175 0.182496 0.25
777 1.19322 8.1549 2.17292 0.25
778 2.84908 0.290779 8.48574 0.25
779 9.49584 7.55763 9.51207 0.25
780 5.41261 4.80935 9.4838 0.25
781 5.26644 6.1506 3.31307 0.25
782 9.1951 6.45251 1.20449 0.25
783 4.19825 8.80604 3.19629 0.25
784 3.08487 3.66538 0.525718 0.25
785 8.51333 8.98832 7.62706 0.25
786 6.62662 6.54064 4.95369 0.25
787 6.28023 6.88265 4.97377 0.25
788 4.97474 1.36869 3.83432 0.25
789 6.23202 4.94145 2.02257 0.25
790 5.09873 1.94313 6.23391 0.25
791 8.76352 6.1007 5.94713 0.25
792 4.32886 3.86762 2.28709 0.5
793 10.2049 0.481425 8.84031 0.25
794 1.81122 1.40887 1.42545 0.25
795 1.35706 8.66412 7.85148 0.25
796 2.58429 9.82313 3.94393 0.5
797 0.127189 9.25152 4.29922 0.25
798 9.44223 4.60931 4.21158 0.25
799 3.37527 6.25654 2.0685 0.5
800 9.8542 1.2345 1.09418 0.25
801 6.12514 0.12222 9.94529 0.25
802 5.76922 7.66861 0.916232 0.25
803 9.25251 5.21337 9.39318 0.25
804 4.36771 5.06831 7.52271 0.25
805 8.87238 3.98689 4.32835 0.25
806 2.29977 9.55743 8.07255 0.25
807 3.10114 4.65893 5.59187 0.25
808 8.55868 4.81957 9.59671 0.25
809 1.11081 5.94134 10.0215 0.25
810 7.41935 1.91804 6.34067 0.25
811 9.53221 4.97296 9.75616 0.25
812 3.86378 6.25271 1.49339 0.25
813 1.70089 3.87166 2.27262 0.25
814 1.16085 9.87836 10.198 0.25
815 3.74166 5.38682 4.97787 0.5
816 6.63486 0.379442 10.0027 0.25
817 3.95719 9.41554 0.6166 0.5
818 8.56072 6.04099 0.467244 0.25
819 4.04588 5.86329 1.32532 0.25
820 7.5009 4.6762 8.44631 0.25
821 7.80784 8.83282 7.19208 0.25
822 5.1666 3.42949 2.88767 0.25
823 1.85495 9.13827 7.62819 0.5
824 7.46158 4.48842 7.00234 0.25
825 7.94776 9.03368 6.46124 0.5
826 6.55684 2.75417 2.57999 0.25
827 8.59691 6.13387 6.93547 0.25
828 9.76265 4.22498 2.40968 0.25
829 0.880846 7.86763 4.85129 0.25
830 3.66352 6.05783 1.05855 0.25
831 2.36799 7.13774 2.77413 0.25
832 4.21378 5.44212 9.04377 0.25
833 5.82497 6.75558 6.31563 0.25
834 8.58151 4.02389 4.73175 0.25
835 1.52132 1.2268 6.65525 0.25
836 6.53458 5.3151 2.07827 0.25
837 3.84156 7.19707 8.77695 0.25
838 2.48424 9.40173 7.29786 0.25
839 0.127527 2.72765 4.38146 0.25
840 9.7732 4.26838 4.18602 0.25
841 5.73151 4.88098 10.1431 0.5
842 7.41741 6.86696 8.90957 0.25
843 1.42832 9.24076 1.42005 0.25
844 6.59181 4.97237 1.66305 0.25
845 8.47959 4.31874 4.28205 0.25
846 1.00226 5.13198 4.48593 0.25
847 8.17576 3.15523 10.0983 0.25
848 3.26082 1.26017 9.60876 0.5
849 6.30176 5.0723 2.50555 0.25
850 4.54688 8.11776 3.50338 0.25
851 3.36922 6.34425 1.36222 0.25
852 5.36 0.589807 3.83185 0.25
853 9.31567 9.51717 3.74864 0.25
854 2.78751 3.01644 8.23179 0.25
855 4.33467 6.16412 1.58793 0.25
856 9.50745 3.13149 7.71222 0.25
857 6.36348 4.47965 5.22088 0.25
858 8.20583 7.50948 3.43762 0.25
859 9.42732 1.13755 1.35827 0.25
860 2.88513 9.41548 4.56322 0.25
861 3.81047 9.10605 1.69255 0.25
862 7.54642 1.18344 8.35295 0.5
863 0.720845 2.32261 10.0066 0.25
864 3.59705 3.56406 2.28386 0.25
865 0.510943 6.80321 4.96852 0.25
866 2.68824 1.2554 10.0334 0.25
867 3.28472 7.43853 9.99052 0.25
868 9.48125 0.75201 1.62795 0.25
869 0.268427 8.39801 5.20588 0.25
870 6.9945 6.89152 8.71006 0.25
871 6.90332 2.63152 2.24679 0.25
872 8.1371 1.52948 7.66134 0.5
873 5.23916 9.63882 5.21746 0.25
874 6.81695 9.75746 4.8244 0.25
875 3.57433 8.3801 5.40888 0.25
876 3.59092 5.8368 1.48107 0.25
877 0.61708 2.38545 3.70435 0.25
878 0.0877296 0.123283 9.04598 0.25
879 0.517444 7.57076 4.69768 0.25
880 6.26369 3.6541 4.46588 0.25
881 4.20886 6.5459 8.69455 0.5
882 9.74053 0.628436 6.03568 0.25
883 5.7332 2.58409 5.19277 0.25
884 1.9993 2.08004 1.76071 0.5
885 9.06306 0.19299 4.14575 0.25
886 9.48371 8.53351 0.996998 0.25
887 1.14706 5.93132 7.68685 0.25
888 2.39513 0.408386 1.90103 0.25
889 4.95972 5.06815 8.52407 0.25
890 0.825934 3.81513 6.0691 0.25
891 3.87571 3.30057 2.5617 0.25
892 6.82763 8.78944 3.20842 0.25
893 7.51939 2.42016 0.0202229 0.25
894 2.1644 8.59495 10.1153 0.25
895 9.97375 3.20218 7.76658 0.25
896 9.46703 1.22648 1.84059 0.25
897 3.534 7.44638 6.77976 0.25
898 1.13808 5.13592 5.25987 0.5
899 -0.0169656 0.825643 6.75094 0.25
900 8.60086 6.661 4.37069 0.25
901 0.749901 8.12098 5.2739 0.25
902 5.27156 1.93534 1.16477 0.25
903 8.91377 6.93087 3.47649 0.25
904 1.35815 6.32087 0.269698 0.5
905 9.19758 0.769159 1.22264 0.25
906 9.75609 10.1572 3.62306 0.25