ITEM: TIMESTEP
810000
ITEM: NUMBER OF ATOMS
1000
ITEM: BOX BOUNDS xy xz yz pp pp pp
0.0000000000000000e+00 1.0357442000000001e+01 0.0000000000000000e+00
0.0000000000000000e+00 1.0357442000000001e+01 0.0000000000000000e+00
0.0000000000000000e+00 1.0357442000000001e+01 0.0000000000000000e+00
ITEM: ATOMS id x y z radius
1 1.26313 4.51464 2.90272 0.5
2 2.06156 7.69643 2.62667 0.5
3 4.80716 2.14216 0.971542 0.25
4 0.513493 2.74687 4.47873 0.25
5 9.4557 2.92635 6.9873 0.25
6 0.854969 2.77174 10.2433 0.25
7 4.42677 0.826737 3.15717 0.25
8 9.06227 3.40713 1.66692 0.25
9 9.86606 1.07091 1.46263 0.25
10 8.32781 6.86849 4.72886 0.25
11 10.2015 8.68855 0.667569 0.25
12 8.20601 2.98624 9.84075 0.25
13 3.60797 7.32794 5.97262 0.25
14 5.50384 2.13082 0.0156598 0.25
15 8.54164 5.96149 6.3562 0.25
16 8.79638 8.72073 6.45861 0.25
17 5.20121 9.08728 8.30756 0.5
18 3.01075 8.58651 9.91653 0.25
19 7.01212 4.27366 5.25911 0.25
20 9.22781 0.805378 1.0023 0.25
21 0.557087 10.2533 9.36223 0.25
22 4.26883 0.600462 3.55197 0.25
23 4.55406 3.89808 3.21291 0.25
24 2.76723 2.57972 4.16917 0.25
25 7.43592 1.93904 5.71345 0.25
26 5.35249 2.75466 8.27858 0.25
27 1.86891 8.1927 10.2333 0.25
28 8.75329 5.8921 6.81893 0.25
29 3.69968 7.53199 5.51438 0.25
30 1.37939 8.36093 7.44078 0.25
31 0.625651 7.08677 4.78819 0.25
32 8.91938 6.78201 1.3964 0.25
33 10.1917 9.07868 1.01988 0.25
34 0.518298 3.21923 10.2503 0.25
35 8.43748 2.544 9.64707 0.25
36 8.21706 8.76255 10.0118 0.25
37 4.19702 4.78542 5.64345 0.25
38 7.05933 0.573883 0.655713 0.25
39 6.08953 3.91433 5.5275 0.25
40 8.74288 4.39154 4.42201 0.25
41 8.82593 6.60752 4.05292 0.25
42 6.58023 8.59939 2.16939 0.5
43 0.241838 8.28055 6.02129 0.25
44 3.10948 9.80859 4.42829 0.25
45 7.17092 6.5448 9.1718 0.25
46 1.24283 8.61409 7.8307 0.25
47 4.46438 8.25408 3.56541 0.25
48 2.95463 9.45381 4.14053 0.25
49 4.28654 5.92398 9.27067 0.25
50 0.00901633 9.22379 3.27855 0.25
51 9.23522 8.39097 1.31939 0.25
52 6.09668 7.52818 0.899477 0.25
53 7.09546 5.24152 2.00506 0.25
54 4.73978 4.67165 8.33842 0.25
55 5.51904 6.8464 6.65307 0.25
56 5.2925 1.45399 1.2022 0.25
57 5.01951 2.02483 0.114015 0.25
58 6.35615 4.24521 0.489002 0.25
59 3.95211 7.534 8.73917 0.25
60 7.42206 6.9108 9.4177 0.25
61 2.92149 0.173662 8.92322 0.25
62 8.93252 6.28354 7.04379 0.25
63 0.730923 5.71304 4.71058 0.25
64 9.94379 1.55103 1.69932 0.25
65 6.21777 7.39834 6.3547 0.25
66 4.38385 0.346058 3.08391 0.25
67 9.61724 4.77954 9.53649 0.25
68 6.02297 10.3214 10.2474 0.25
69 2.30972 7.39732 3.2521 0.25
70 4.40575 5.62782 4.26579 0.25
71 1.35383 7.8488 2.69741 0.25
72 5.27496 6.83368 3.4951 0.25
73 9.06507 8.6678 7.2163 0.5
74 2.50036 7.10577 2.88534 0.25
75 0.907989 6.06848 0.764859 0.25
76 2.01476 7.74872 10.0164 0.25
77 7.5393 6.84037 8.92048 0.25
78 3.81702 9.91115 1.43131 0.25
79 1.38009 5.3353 10.0208 0.25
80 8.01845 8.62531 9.62547 0.25
81 8.24463 9.35541 7.4329 0.25
82 1.85336 0.623397 1.59712 0.25
83 1.98627 8.43731 2.50234 0.25
84 5.38757 9.11512 5.19012 0.25
85 4.02032 5.89777 1.85974 0.25
86 9.76423 4.13603 1.44841 0.5
87 1.42739 5.2048 8.61559 0.25
88 2.83103 3.86943 8.26295 0.25
89 0.46468 -0.0284378 9.90231 0.25
90 7.04385 10.3479 1.60789 0.5
91 4.61381 8.02943 3.96083 0.25
92 9.112 1.3757 1.57824 0.25
93 8.28242 1.00811 8.06698 0.25
94 0.800006 4.41566 2.26278 0.25
95 7.45196 8.82809 5.86498 0.25
96 7.56071 1.18776 6.98775 0.25
97 5.59957 9.50267 5.38395 0.25
98 0.110183 0.36732 5.95172 0.25
99 5.13074 1.98832 8.09432 0.5
100 5.44997 2.7316 5.51359 0.25
101 5.23312 2.26875 9.68538 0.5
102 4.1783 5.21056 8.49611 0.5
103 7.28371 0.367385 1.01864 0.25
104 1.20582 10.1405 9.77342 0.25
105 2.23367 4.88664 3.26537 0.25
106 6.3468 6.54388 6.59244 0.25
107 5.62819 10.1932 8.32051 0.25
108 1.80683 3.84622 2.20496 0.25
109 7.16529 2.1413 2.39482 0.25
110 5.47727 9.67701 5.84646 0.25
111 1.6633 6.14161 0.481885 0.25
112 3.87307 5.17497 5.65607 0.25
113 1.8838 10.2682 5.16192 0.25
114 8.57475 6.20577 0.0975784 0.25
115 3.80672 3.35488 2.39772 0.25
116 0.336832 1.96144 3.44035 0.25
117 7.18404 2.60779 3.0418 0.5
118 6.97915 8.07259 2.48907 0.25
119 9.98653 2.41453 4.18328 0.25
120 1.73437 5.96532 0.00896725 0.25
121 7.97468 1.89933 5.19354 0.5
122 1.87115 4.73687 2.48447 0.25
123 9.28212 8.78835 0.539378 0.25
124 8.32674 6.23468 0.60156 0.25
125 1.61047 10.3112 4.39623 0.25
126 6.14623 7.51499 0.423111 0.25
127 5.95694 7.10596 0.683439 0.25
128 9.60863 10.0159 4.02471 0.25
129 1.90925 5.28675 3.29801 0.25
130 9.02025 8.70048 0.944911 0.25
131 6.75519 2.26916 2.54662 0.25
132 8.4714 4.73864 4.63762 0.25
133 7.77096 8.89244 9.92615 0.25
134 4.64287 3.44121 3.44538 0.25
135 6.06835 9.53467 8.28445 0.5
136 8.32861 9.00123 7.08263 0.25
137 1.57034 9.62343 1.80593 0.25
138 7.27436 3.98399 4.9297 0.25
139 7.23566 4.63214 7.72187 0.5
140 4.36287 8.47235 3.10609 0.25
141 2.48037 1.35214 1.40209 0.25
142 2.9371 3.00835 4.9605 0.25
143 7.7109 1.63499 3.05786 0.25
144 9.85785 7.15495 2.21616 0.25
145 3.72952 7.82905 5.96043 0.25
146 7.21866 9.34088 2.84926 0.25
147 3.94403 5.60348 4.02797 0.25
148 3.21735 1.69375 10.3304 0.25
149 9.84625 7.83329 9.30861 0.25
150 4.51316 4.83397 7.95337 0.25
151 6.83911 9.86092 9.9062 0.25
152 4.28655 9.93418 1.31732 0.25
153 5.22696 1.74044 7.41574 0.25
154 5.50451 9.42975 7.74045 0.25
155 3.79318 6.69632 1.36989 0.25
156 0.917746 8.64535 7.48492 0.25
157 5.66779 0.787808 3.74054 0.25
158 8.57771 9.55106 6.73597 0.25
159 3.39742 2.86556 5.27867 0.25
160 2.61768 3.43955 8.05906 0.25
161 2.82855 0.195839 9.40121 0.25
162 3.90026 2.14868 5.97237 0.5
163 6.66483 10.1962 2.21847 0.25
164 5.11226 8.4258 8.2071 0.25
165 0.869675 3.14756 9.91878 0.25
166 6.74567 4.00948 6.99575 0.25
167 9.15419 9.97937 3.80594 0.25
168 0.236552 7.86511 8.98912 0.25
169 9.70085 5.92876 7.26495 0.25
170 3.60107 0.174954 8.43262 0.25
171 0.942459 9.07506 7.25506 0.25
172 9.28067 6.65876 7.17594 0.25
173 0.87762 1.70289 4.16515 0.25
174 4.79466 1.70716 6.13482 0.25
175 9.1647 3.38961 7.06879 0.25
176 0.543904 6.38114 0.610319 0.25
177 9.59777 6.61773 6.756 0.25
178 7.52311 1.33055 5.04659 0.25
179 2.73112 9.58366 7.59451 0.25
180 7.39543 9.07305 2.17931 0.5
181 0.984086 4.17406 5.72201 0.25
182 7.38754 1.86603 3.39611 0.25
183 2.50656 10.0806 4.04782 0.25
184 9.32552 5.11847 9.73892 0.25
185 8.8284 9.25208 6.36869 0.25
186 2.9867 7.71261 10.0341 0.25
187 3.2741 3.24796 0.265474 0.25
188 5.1699 2.28896 7.40957 0.25
189 10.3163 0.853726 5.93482 0.25
190 2.66257 7.0788 3.3736 0.25
191 5.3593 2.59519 8.98339 0.25
192 8.65696 9.32032 7.16017 0.25
193 5.1977 2.11113 8.86086 0.25
194 3.96909 9.63283 1.01598 0.25
195 4.99912 4.94043 10.0054 0.25
196 5.15965 2.54066 0.020554 0.25
197 9.2162 6.07817 6.30781 0.5
198 7.23527 1.88044 7.01065 0.5
199 6.76355 -0.0187062 9.77753 0.25
200 7.04543 1.13895 6.22025 0.25
201 6.01928 6.94657 6.70391 0.25
202 3.64401 7.83579 5.11459 0.25
203 4.39344 9.04492 0.43274 0.25
204 0.334604 3.49791 6.24119 0.25
205 3.86921 10.3454 6.22076 0.25
206 0.761933 1.93746 3.74387 0.25
207 1.32984 5.29981 3.7851 0.5
208 4.0934 4.4624 6.039 0.25
209 7.31331 9.74771 2.51337 0.25
210 3.75407 10.3088 6.69758 0.25
211 1.54119 5.09079 2.53609 0.25
212 0.194583 3.95681 2.09464 0.5
213 9.59733 3.3742 1.51091 0.25
214 3.58095 5.14057 6.04652 0.25
215 10.0489 0.919485 8.81288 0.25
216 5.82345 1.67523 0.634093 0.25
217 0.500001 7.86211 6.00885 0.25
218 2.27773 1.10386 2.07091 0.5
219 0.70224 4.23397 6.10915 0.25
220 6.72917 9.2926 1.96325 0.25
221 8.47343 7.33214 4.65553 0.25
222 9.17832 5.83524 7.09556 0.25
223 5.68009 9.43281 4.86727 0.25
224 9.95239 3.02499 6.99027 0.25
225 8.28179 1.2405 5.5472 0.25
226 6.55441 9.26805 4.71272 0.25
227 7.28066 0.0999144 0.587355 0.25
228 4.96737 1.85316 0.599878 0.25
229 2.91426 2.01683 1.91408 0.25
230 8.94937 7.06509 4.01292 0.25
231 7.62558 3.69051 7.28928 0.25
232 7.00512 9.76493 2.1225 0.25
233 8.10415 1.91017 9.35915 0.5
234 4.47804 9.18387 1.64192 0.25
235 1.02416 9.02363 7.73501 0.25
236 1.67839 5.80371 0.853076 0.25
237 7.89712 1.74831 3.52487 0.25
238 1.30524 5.97808 4.14012 0.25
239 0.941198 2.68328 9.79142 0.25
240 1.46928 8.91506 2.1932 0.5
241 1.6268 9.66751 2.32364 0.25
242 3.43937 8.02361 6.29685 0.25
243 1.50758 6.62705 0.596707 0.25
244 1.40634 1.54941 6.47298 0.25
245 5.75087 7.31594 6.52237 0.25
246 2.30653 8.18595 10.1084 0.25
247 2.43014 7.86809 3.30363 0.25
248 5.51363 2.35712 8.56723 0.25
249 6.87902 3.78881 5.1039 0.25
250 7.35749 1.3887 6.52218 0.25
251 1.00682 1.24123 7.21561 0.25
252 7.32651 6.76565 7.95395 0.25
253 4.43222 7.27863 8.84739 0.25
254 1.14396 9.77807 1.6249 0.25
255 2.15182 0.438015 1.95747 0.25
256 3.90057 4.80823 4.25778 0.25
257 0.870034 0.127254 9.65846 0.25
258 4.748 5.32477 7.37115 0.25
259 1.69973 0.224154 4.79872 0.25
260 0.586451 9.90156 10.1961 0.25
261 7.45749 7.30556 9.10976 0.25
262 5.04184 6.42813 3.34526 0.25
263 8.51855 8.75076 9.59976 0.25
264 7.60108 9.61835 9.77224 0.5
265 4.70315 3.40972 2.48067 0.25
266 4.49168 3.64911 2.02048 0.25
267 3.38848 7.15292 5.53341 0.25
268 3.32258 7.61671 6.16377 0.25
269 7.82284 9.1372 5.65494 0.25
270 3.13669 7.2116 5.9442 0.25
271 3.68635 9.41957 1.3544 0.25
272 5.98531 6.88783 5.27033 0.25
273 0.00736381 3.62914 7.52242 0.25
274 3.7018 4.69035 6.28243 0.25
275 9.99282 6.53093 2.92948 0.25
276 8.1803 1.10759 8.57322 0.25
277 2.93619 10.1224 8.2398 0.5
278 4.61107 5.89334 8.44579 0.25
279 2.74217 0.399638 8.52647 0.25
280 3.22735 0.393564 9.67255 0.25
281 4.76727 7.85189 3.48525 0.25
282 5.13204 1.18727 3.30065 0.25
283 9.57289 0.31414 9.07197 0.25
284 1.94482 5.67665 0.415091 0.25
285 8.44112 6.80322 1.27262 0.25
286 10.3224 1.32565 1.55851 0.25
287 1.52455 8.322 2.70349 0.25
288 1.23086 5.65882 4.53884 0.25
289 9.16683 0.526771 1.44209 0.25
290 8.71894 3.71874 1.40113 0.25
291 8.01622 2.52512 9.80705 0.25
292 4.14322 9.52572 1.53331 0.25
293 4.51835 2.42729 6.89292 0.5
294 10.2981 6.66646 2.5998 0.25
295 6.82854 1.04073 6.92679 0.5
296 2.78971 2.98378 4.4642 0.25
297 0.224675 8.0589 5.59922 0.25
298 4.32955 9.91917 0.817006 0.25
299 8.86838 5.0764 9.61401 0.25
300 2.01836 10.0013 4.24615 0.25
301 4.90502 8.1515 7.84581 0.25
302 4.97142 4.61231 7.92133 0.25
303 8.87642 5.70282 10.0606 0.5
304 3.77006 3.46773 2.87241 0.25
305 1.58079 8.12436 2.30565 0.25
306 10.3082 7.92846 9.43803 0.25
307 0.743264 9.99352 9.72179 0.25
308 8.64485 6.3679 6.67958 0.25
309 8.00509 1.55026 8.69506 0.25
310 6.56361 7.2417 5.98013 0.25
311 1.33478 0.749303 1.70057 0.25
312 8.89791 0.972759 8.55232 0.5
313 1.34469 8.12844 1.86869 0.25
314 0.860042 4.08239 1.8439 0.25
315 3.04646 0.920633 9.09043 0.5
316 6.63875 4.34269 7.30449 0.25
317 6.14494 10.2374 8.51245 0.25
318 0.157032 8.32048 9.18506 0.25
319 10.2366 9.74417 3.30073 0.25
320 10.2388 3.34421 9.73298 0.25
321 2.77661 1.54935 1.77862 0.25
322 0.951185 7.14656 4.38415 0.25
323 6.35394 10.1516 9.20064 0.5
324 7.72363 2.13585 3.2038 0.25
325 9.04766 3.91987 1.76835 0.25
326 2.80389 9.44359 4.61866 0.25
327 1.75409 8.66751 7.17596 0.25
328 4.25617 3.34615 2.71928 0.25
329 8.17681 6.95833 4.06804 0.5
330 9.56721 6.43807 2.71763 0.25
331 9.13956 10.2683 3.39502 0.25
332 6.59012 7.44928 0.240118 0.25
333 10.2767 7.7673 8.62713 0.25
334 6.92874 4.81305 1.73801 0.25
335 5.93637 4.53727 0.657996 0.25
336 9.46039 3.67513 1.90171 0.25
337 4.82861 5.52653 8.69196 0.25
338 7.27454 8.3265 2.13697 0.25
339 4.08276 5.98116 8.45935 0.25
340 0.399012 3.33199 9.78331 0.25
341 3.63605 5.25449 4.24781 0.25
342 9.8401 3.66796 7.45018 0.25
343 10.2507 1.84064 3.63691 0.25
344 4.74696 0.64116 2.80348 0.25
345 6.3663 4.41575 10.3624 0.25
346 1.90017 2.02669 7.08272 0.25
347 3.59033 3.99197 0.468401 0.25
348 5.76581 7.25579 0.266354 0.25
349 4.84632 1.48598 7.56703 0.25
350 2.14006 3.44827 8.10228 0.25
351 5.64465 7.07249 3.27386 0.25
352 8.14542 6.5285 1.52587 0.25
353 10.089 3.22769 7.46138 0.25
354 9.48333 4.67959 2.00207 0.25
355 1.86062 1.6545 2.3354 0.25
356 4.62547 9.90462 0.408248 0.25
357 3.31652 4.7139 6.06556 0.25
358 4.26419 9.56026 0.493458 0.25
359 8.80389 6.74948 0.595703 0.5
360 4.21089 10.1517 6.57989 0.25
361 0.202928 0.717235 6.31696 0.25
362 0.138476 8.25373 8.71195 0.25
363 6.98603 2.59116 2.27754 0.25
364 9.82176 6.77444 2.54209 0.25
365 6.1737 9.59097 4.75664 0.25
366 9.24092 3.70672 1.33804 0.25
367 3.63647 0.459656 8.93434 0.25
368 9.74548 6.47876 7.23649 0.25
369 9.28086 4.6212 4.63368 0.5
370 4.72118 1.46202 6.85007 0.5
371 9.37175 6.6261 1.96225 0.5
372 1.1923 2.37383 4.16445 0.5
373 3.44605 10.3281 8.80895 0.25
374 3.28827 0.266722 9.19469 0.25
375 5.59211 0.988689 3.29268 0.25
376 0.858569 5.73197 4.21022 0.25
377 10.1126 8.12489 8.94798 0.25
378 9.31106 8.31808 0.801169 0.25
379 0.273285 3.9774 6.11585 0.25
380 1.71047 2.22507 4.63908 0.25
381 6.67295 4.89411 2.46859 0.5
382 2.52613 7.76482 10.0224 0.25
383 5.59963 8.42602 8.38805 0.25
384 1.38581 6.51577 7.64776 0.25
385 1.11488 7.1574 4.84413 0.25
386 1.64828 5.32685 7.76582 0.25
387 1.26223 5.67664 7.66228 0.25
388 2.62698 2.15977 2.25547 0.25
389 5.65905 1.82645 1.08817 0.25
390 3.39877 3.56003 0.650085 0.25
391 3.67728 0.356491 6.44854 0.25
392 1.07397 5.83264 4.99068 0.25
393 9.19727 8.99957 6.52583 0.25
394 0.243729 0.132948 6.34684 0.25
395 1.9632 4.56781 2.98623 0.25
396 2.78541 0.584277 9.67847 0.25
397 7.54818 2.06061 2.73132 0.25
398 9.08926 4.17733 9.48445 0.25
399 2.41053 9.91863 7.67157 0.25
400 8.22438 3.09554 10.3249 0.25
401 5.58931 6.53806 3.26328 0.25
402 4.39635 5.74618 8.85987 0.25
403 5.97992 5.06501 0.560692 0.25
404 7.29493 3.06157 0.340314 0.25
405 1.33546 6.19055 0.811331 0.25
406 6.51523 9.62002 5.07367 0.25
407 7.24315 7.18127 8.68481 0.25
408 9.77099 8.96856 0.741328 0.25
409 10.1424 6.67656 2.16989 0.25
410 4.81844 1.61797 4.41327 0.25
411 8.00387 9.30178 9.21826 0.25
412 4.76009 1.97575 7.40751 0.25
413 7.5396 2.48042 2.39651 0.25
414 6.90945 5.47068 2.90571 0.25
415 5.05474 0.502196 3.45959 0.5
416 9.92041 0.623795 9.20038 0.25
417 3.07382 7.86725 5.59287 0.5
418 0.836202 1.02089 6.53945 0.5
419 8.86596 9.82353 3.38554 0.25
420 5.53401 8.58512 7.92342 0.25
421 9.5525 5.7229 6.85768 0.25
422 2.77021 7.4624 2.5767 0.25
423 1.82856 5.02842 2.88157 0.25
424 0.0996958 0.0486519 9.55396 0.25
425 2.41076 10.074 4.56008 0.25
426 2.29075 1.87304 2.45378 0.25
427 7.02292 1.61818 6.28115 0.25
428 7.43267 9.79713 1.98959 0.25
429 5.34046 8.96094 7.58417 0.25
430 10.0691 8.94556 3.58213 0.25
431 6.84357 0.182737 0.870604 0.25
432 3.23331 8.0924 9.8326 0.25
433 2.89386 2.6398 5.28843 0.25
434 5.78625 10.0109 8.74556 0.25
435 0.921127 2.28971 10.104 0.25
436 6.45129 4.88812 10.276 0.25
437 0.614327 5.8222 10.2854 0.25
438 7.47552 0.932797 6.53928 0.25
439 9.50454 9.44543 3.43673 0.5
440 2.34446 2.78385 7.80772 0.5
441 0.968003 3.96113 2.30837 0.25
442 6.00972 7.92528 0.647386 0.25
443 10.0377 9.9064 3.71629 0.25
444 1.3319 3.82961 2.02711 0.25
445 5.81138 6.77741 3.67416 0.25
446 8.36242 4.55667 4.1659 0.25
447 6.45751 5.08605 0.365418 0.25
448 4.59044 1.22633 3.77524 0.5
449 0.426559 0.763108 5.89199 0.25
450 1.45115 1.15847 1.98531 0.25
451 2.8142 3.90045 0.212547 0.25
452 6.1907 4.37251 5.30482 0.25
453 7.46843 4.51973 8.47963 0.25
454 1.40996 5.67419 8.55311 0.25
455 1.09229 5.87947 8.21605 0.25
456 2.69063 1.7017 2.24261 0.25
457 9.96877 8.43338 1.3293 0.5
458 1.66087 5.62107 7.36588 0.25
459 1.43 0.94423 7.12775 0.25
460 1.93717 6.0147 7.30718 0.25
461 3.91923 6.64128 1.85899 0.25
462 3.76055 6.23952 2.08601 0.25
463 1.49975 10.1326 4.85898 0.25
464 9.52716 1.50435 1.44952 0.25
465 7.10446 5.56265 2.39974 0.25
466 5.0105 5.29543 8.04513 0.5
467 3.43724 5.3986 5.61645 0.25
468 1.68398 1.53303 1.81942 0.25
469 4.16341 3.51887 3.17205 0.25
470 4.86179 3.81345 2.72909 0.25
471 2.974 9.97253 3.98143 0.25
472 1.86704 2.24277 7.91767 0.25
473 2.8111 7.84209 9.57911 0.25
474 9.03842 4.16202 1.34969 0.25
475 8.26265 7.57672 3.58034 0.25
476 3.55681 5.99728 1.70086 0.25
477 10.2154 9.43078 3.72859 0.25
478 8.68603 6.09103 1.24551 0.5
479 6.93444 0.616569 1.14607 0.25
480 2.74554 8.15102 9.92535 0.25
481 4.55944 9.70563 1.71604 0.25
482 6.40305 9.67593 5.56687 0.25
483 6.69577 0.0619081 0.165925 0.5
484 9.65612 3.30465 7.22537 0.25
485 7.41745 3.0907 10.2278 0.25
486 4.79529 8.29364 3.17338 0.25
487 3.68038 3.54886 0.238688 0.25
488 7.05557 9.57895 1.71491 0.25
489 7.62427 7.45897 4.34744 0.25
490 2.92498 3.08092 8.14935 0.25
491 8.74042 9.03347 6.77221 0.25
492 8.32941 2.61709 10.1728 0.25
493 9.55582 3.73319 7.00833 0.25
494 8.70268 4.35293 4.91733 0.25
495 9.61109 3.33385 6.73547 0.25
496 4.33687 1.56814 6.22989 0.25
497 3.19377 4.23131 0.239216 0.25
498 8.29895 1.19057 9.01713 0.25
499 4.09328 9.17353 1.2609 0.25
500 4.21352 7.68432 9.08845 0.25
501 2.80432 9.91786 4.8016 0.25
502 9.11962 6.62505 6.71126 0.25
503 6.78053 8.40311 2.85241 0.25
504 6.43857 7.25842 0.659291 0.25
505 7.55243 1.25534 5.80743 0.5
506 5.24076 9.85808 5.4492 0.25
507 7.19143 8.4901 2.59063 0.25
508 4.71793 8.53895 8.49801 0.25
509 1.45868 9.06344 7.86374 0.25
510 5.71724 4.15755 5.27292 0.25
511 4.13914 0.277394 6.50754 0.25
512 2.03789 4.99863 3.72536 0.25
513 1.81192 5.50967 10.2806 0.25
514 3.47937 2.0451 5.28394 0.25
515 1.49022 1.65891 7.5527 0.5
516 6.13037 8.99743 5.25525 0.5
517 7.91231 7.65457 3.96368 0.25
518 2.67151 1.0786 9.76714 0.25
519 2.88029 10.2058 4.36134 0.25
520 5.1107 2.00859 6.98865 0.25
521 1.21172 4.52623 5.5045 0.25
522 2.37001 10.3159 4.97701 0.25
523 2.39115 3.57443 7.67257 0.25
524 8.62992 1.71588 4.99126 0.25
525 1.77173 6.74753 7.69392 0.25
526 1.82007 5.48412 8.72525 0.25
527 6.54522 9.58257 2.6361 0.5
528 7.45747 8.82468 2.85301 0.25
529 3.37705 5.74813 1.29365 0.25
530 1.69846 7.77963 1.94103 0.25
531 0.672538 2.3886 0.149503 0.25
532 2.18492 8.40143 0.148745 0.25
533 9.28739 9.63356 4.12496 0.25
534 8.75578 4.89221 4.27171 0.25
535 7.1247 6.49404 8.28262 0.25
536 4.01124 9.18025 0.766706 0.25
537 7.08151 1.46561 3.58651 0.25
538 7.69896 4.01555 7.66965 0.25
539 10.2743 3.6494 6.7822 0.5
540 5.76804 10.1338 7.84217 0.25
541 9.50563 8.6966 1.01093 0.25
542 7.47246 9.32333 5.98657 0.25
543 9.35776 4.49646 3.92085 0.25
544 2.17517 1.60121 7.22868 0.25
545 10.0997 9.46323 2.92218 0.25
546 0.151977 0.935146 6.79135 0.25
547 9.36763 4.20156 2.05796 0.25
548 9.33402 4.50334 9.24998 0.25
549 2.13348 0.945573 1.33814 0.25
550 9.73071 8.5081 0.575919 0.25
551 2.68129 7.54912 3.52605 0.25
552 9.05098 9.38925 6.81583 0.25
553 5.26721 3.10056 5.8021 0.25
554 8.82759 4.47151 3.96645 0.25
555 5.79129 9.02388 7.78441 0.25
556 1.3091 9.34483 7.45131 0.25
557 2.86052 10.0665 7.4835 0.25
558 2.88684 3.45343 8.48206 0.25
559 9.64965 1.19115 8.76212 0.25
560 3.72906 4.6989 5.80846 0.25
561 0.635085 4.56672 1.76866 0.25
562 5.2626 5.3009 9.89397 0.25
563 5.41284 9.78854 8.04865 0.25
564 1.51473 1.90493 6.81454 0.25
565 1.69381 1.06002 1.58167 0.25
566 9.29988 6.20734 7.44284 0.25
567 1.0093 6.6001 0.755646 0.25
568 7.96517 1.14388 5.20852 0.25
569 7.00662 3.82945 7.69316 0.5
570 4.38064 3.08817 3.14523 0.25
571 4.90006 3.80736 2.2388 0.25
572 8.46047 1.56673 8.72801 0.25
573 1.3618 7.01221 5.22283 0.25
574 10.3412 1.14461 6.39597 0.25
575 6.19564 3.58353 4.74739 0.25
576 5.33763 1.59075 0.785198 0.25
577 0.181859 7.86733 5.13449 0.25
578 1.19797 5.52976 0.325457 0.5
579 5.15306 5.06848 7.31013 0.25
580 8.37258 7.12979 3.34182 0.25
581 6.75038 7.10601 8.71188 0.25
582 7.5338 4.31214 5.23737 0.25
583 8.5927 6.24358 5.95118 0.25
584 5.41847 6.73655 3.98416 0.25
585 6.5609 0.467996 0.747014 0.25
586 1.66483 2.72721 4.7185 0.25
587 5.93407 9.49775 5.7635 0.25
588 3.43394 1.54407 9.57477 0.25
589 9.88058 4.3959 2.17255 0.25
590 8.1394 7.59537 4.40939 0.25
591 3.75562 2.50126 5.32279 0.25
592 6.66862 5.70941 2.6013 0.25
593 5.53301 9.14481 5.70434 0.25
594 8.79549 6.43184 10.1191 0.25
595 2.1346 2.03983 7.53797 0.25
596 9.6987 9.13161 1.16312 0.25
597 5.18488 0.944014 2.88324 0.25
598 6.4977 7.70235 0.704772 0.25
599 9.94796 1.54836 1.23089 0.25
600 3.73358 9.62316 1.83277 0.25
601 7.07593 10.1582 2.42841 0.25
602 6.25678 8.38696 2.82892 0.25
603 2.18657 6.41888 7.5214 0.25
604 8.80995 1.0027 0.846174 0.25
605 1.2801 7.77584 2.2142 0.25
606 1.82864 1.54925 6.83979 0.25
607 2.22248 2.43086 7.14123 0.25
608 6.84326 6.49929 6.00491 0.5
609 4.2646 6.30467 1.96586 0.25
610 6.57275 4.80442 1.05124 0.5
611 8.34914 8.53628 7.32302 0.25
612 8.54373 10.3445 3.88715 0.5
613 7.72196 2.91436 9.76053 0.25
614 9.25999 7.05937 1.22483 0.25
615 6.55071 4.43825 7.792 0.25
616 1.40476 1.35974 6.93036 0.25
617 2.48787 3.16834 8.41872 0.25
618 7.79998 3.05355 0.24278 0.25
619 1.19254 9.64099 2.133 0.25
620 7.11156 5.90757 2.79079 0.25
621 6.3964 4.79966 1.83153 0.25
622 6.66995 6.67476 8.43543 0.25
623 8.04555 4.12654 4.68206 0.5
624 4.64789 8.56592 7.99782 0.25
625 5.61856 2.6252 10.2814 0.25
626 2.34785 2.87288 4.2497 0.25
627 6.4029 5.4656 2.88767 0.25
628 1.03749 9.7927 10.0462 0.25
629 7.19524 10.2164 9.97802 0.25
630 5.79906 7.72838 0.206223 0.25
631 8.60451 1.52632 5.43227 0.25
632 3.25471 3.74509 0.215184 0.25
633 3.12547 3.95164 0.633407 0.25
634 4.58165 7.86215 8.44357 0.5
635 9.40264 6.23804 6.95906 0.25
636 9.1993 5.46591 9.44837 0.25
637 6.47775 9.97602 4.71248 0.25
638 2.12125 9.54603 4.87624 0.5
639 7.30528 2.92981 2.33549 0.25
640 7.40706 1.72198 7.75454 0.25
641 3.86099 5.08787 3.85257 0.25
642 3.35888 7.20712 6.39086 0.25
643 3.60319 1.78074 9.99529 0.25
644 5.90805 10.0882 5.1991 0.5
645 2.93798 3.43789 10.283 0.25
646 8.69336 7.38486 3.72698 0.25
647 6.38705 7.05624 5.54154 0.25
648 7.01609 1.38405 7.60797 0.25
649 4.78081 5.95244 8.95489 0.25
650 7.53752 1.40458 3.4359 0.25
651 5.06526 8.60901 7.74453 0.25
652 1.03425 5.48646 8.61304 0.25
653 0.784878 4.58132 5.74504 0.25
654 1.41252 6.03932 7.43021 0.25
655 9.80676 3.91449 2.10842 0.25
656 4.72488 4.84073 7.51447 0.25
657 8.16578 9.45846 6.98133 0.25
658 7.546 4.1463 8.12004 0.25
659 9.31562 0.083804 3.85322 0.25
660 1.79522 6.04823 8.0515 0.5
661 2.73742 7.50551 3.06222 0.25
662 7.88667 8.65022 5.63515 0.25
663 3.64903 0.613686 9.42474 0.25
664 0.0861393 3.36248 10.1651 0.25
665 8.12353 6.58274 0.971255 0.25
666 5.42836 9.75002 8.5722 0.25
667 7.52392 2.61422 0.11545 0.25
668 7.2403 1.70056 5.30291 0.25
669 3.45063 7.62671 9.3128 0.5
670 1.2683 3.01266 10.1377 0.25
671 1.08279 6.42242 4.68224 0.5
672 6.22971 6.20887 5.82236 0.25
673 4.12349 9.95945 1.78398 0.25
674 7.28798 4.44243 4.84228 0.25
675 8.04339 8.86279 7.45687 0.25
676 5.48078 2.41197 0.663616 0.5
677 9.65585 3.26382 7.74307 0.25
678 9.93643 0.495732 6.58484 0.5
679 1.78167 2.33014 7.4506 0.25
680 2.90895 7.94481 3.26637 0.25
681 7.85338 9.11433 7.09383 0.25
682 3.39527 7.41198 5.08392 0.25
683 0.605611 2.8813 0.291561 0.25
684 1.45399 9.08425 7.05963 0.25
685 8.86386 9.58453 3.82638 0.25
686 6.70911 9.9793 5.18426 0.25
687 9.36057 3.61267 7.50381 0.25
688 5.33687 7.54209 0.258651 0.25
689 2.31437 2.38678 4.07061 0.25
690 9.77504 7.74561 8.76477 0.25
691 0.675771 8.23677 5.73265 0.25
692 1.19003 4.52188 6.002 0.25
693 9.80975 1.88025 3.46729 0.25
694 3.4354 3.53019 10.1947 0.25
695 8.38345 1.2722 5.01849 0.25
696 5.29302 0.907782 4.1244 0.25
697 1.36781 8.85841 7.42636 0.25
698 8.79663 5.98902 0.470376 0.25
699 3.76946 8.05532 5.52264 0.25
700 5.61652 7.40489 10.1874 0.25
701 3.39521 4.94631 5.63673 0.25
702 6.3832 3.58848 5.20846 0.25
703 1.64038 0.726884 2.03123 0.25
704 7.02305 4.69167 8.45139 0.25
705 3.92268 5.84456 8.88096 0.25
706 7.43134 1.26076 7.45545 0.25
707 5.93826 6.37505 5.41511 0.25
708 5.42696 6.37009 3.69945 0.25
709 1.44709 4.54197 1.95846 0.5
710 1.14828 4.94436 5.83562 0.25
711 7.08689 4.30805 7.05973 0.25
712 4.96304 8.28982 3.66141 0.25
713 1.73734 4.85725 3.34033 0.25
714 1.94788 10.196 4.66808 0.25
715 3.12834 3.53015 8.05131 0.25
716 9.30504 8.8915 1.40461 0.25
717 3.06096 5.18411 5.36906 0.25
718 5.58476 3.40995 5.21594 0.5
719 5.1728 2.73896 5.13949 0.25
720 4.89596 1.09475 4.41533 0.25
721 2.90285 7.43046 6.34609 0.25
722 4.38536 5.33664 4.70068 0.25
723 5.87064 6.44794 6.57595 0.25
724 9.57447 0.762528 8.94688 0.25
725 3.73876 9.9234 6.44806 0.25
726 4.1432 5.20089 4.29219 0.25
727 3.96882 5.58226 4.5036 0.25
728 2.89419 8.14979 0.229697 0.5
729 7.8607 1.89859 5.94791 0.25
730 7.77016 1.22051 8.93497 0.25
731 1.03514 5.72497 9.98981 0.25
732 3.73891 7.55901 6.41235 0.25
733 9.80528 1.98538 4.33747 0.25
734 8.65793 7.43626 4.2687 0.25
735 3.30801 2.44421 5.49914 0.25
736 8.72811 5.52579 6.42278 0.25
737 0.794599 4.37861 5.282 0.25
738 5.14481 8.39078 8.71836 0.25
739 3.60619 3.97588 10.3297 0.25
740 8.60647 6.6853 1.72547 0.25
741 6.58359 2.7238 2.5926 0.25
742 5.40935 1.75147 0.349487 0.25
743 9.87374 1.66144 3.92074 0.25
744 2.41318 2.40683 4.81698 0.5
745 0.47539 4.18273 5.68167 0.25
746 6.65393 4.40195 1.80269 0.25
747 8.27849 2.17551 9.99412 0.25
748 7.06105 10.1005 9.47747 0.25
749 6.69501 4.36362 8.22831 0.25
750 4.14766 1.82171 6.59798 0.25
751 1.92417 2.15488 4.24087 0.25
752 9.83919 2.11589 3.85944 0.25
753 0.247724 2.66474 9.93577 0.5
754 8.2587 1.62208 5.82116 0.25
755 7.87372 2.7988 10.1788 0.25
756 4.84993 1.62688 0.939908 0.25
757 0.225817 2.01873 4.25469 0.5
758 1.62905 9.79114 4.45219 0.25
759 4.88658 2.6972 8.15819 0.25
760 4.47645 0.460565 3.96827 0.25
761 6.24213 6.15683 6.33976 0.25
762 0.60425 3.87521 6.45425 0.25
763 6.5868 4.22202 4.63919 0.5
764 5.52664 7.17138 3.75776 0.25
765 7.48284 6.7907 8.44377 0.25
766 1.45084 5.22723 3.05481 0.25
767 7.73559 2.92098 2.66808 0.25
768 4.8483 2.48659 5.86165 0.5
769 0.192245 3.12077 9.37177 0.25
770 5.89575 6.82852 6.00495 0.5
771 5.45884 7.14493 0.567079 0.25
772 7.09887 9.25817 5.34436 0.5
773 5.93343 4.25106 0.239756 0.25
774 6.97972 8.90049 2.75991 0.25
775 10.185 7.60403 9.0857 0.25
776 4.71681 9.38172 0.289808 0.25
777 1.15149 8.22046 2.37961 0.25
778 3.24119 0.400929 8.64538 0.25
779 9.72656 7.39545 9.04844 0.25
780 5.36133 4.89345 9.61312 0.25
781 5.0105 6.53419 3.83523 0.25
782 9.33522 6.59725 1.19511 0.25
783 4.35427 7.96788 3.18169 0.25
784 3.13016 3.8986 10.1529 0.25
785 8.50922 8.94784 7.55381 0.25
786 6.2496 6.52471 5.03008 0.25
787 6.42338 6.14051 5.35164 0.25
788 4.87861 0.61635 4.18437 0.25
789 6.22221 5.22033 1.97178 0.25
790 4.99236 1.99242 6.4517 0.25
791 8.68401 5.75913 5.94356 0.25
792 4.15374 3.98931 2.5605 0.5
793 10.3427 0.530171 8.87701 0.25
794 1.98824 1.43157 1.44627 0.25
795 1.71307 8.65068 7.70235 0.25
796 2.30062 0.385783 4.33816 0.5
797 9.97859 8.98241 3.0584 0.25
798 9.08851 4.90668 3.93647 0.25
799 4.50452 6.80635 1.52926 0.5
800 9.56137 1.24853 1.85394 0.25
801 5.92997 10.0906 9.82654 0.25
802 6.28326 7.06182 0.256975 0.25
803 9.17727 4.66328 9.70029 0.25
804 4.39753 5.22784 7.71997 0.25
805 9.05681 4.10592 4.13854 0.25
806 2.47667 9.56003 8.02892 0.25
807 3.04949 5.18041 5.90063 0.25
808 9.64472 5.23354 9.35151 0.25
809 1.48038 5.81363 9.99486 0.25
810 7.4821 1.82311 6.2794 0.25
811 8.85779 4.65447 9.31377 0.25
812 3.91612 6.28206 1.56606 0.25
813 1.42516 3.96332 2.49877 0.25
814 0.98373 9.92881 0.160707 0.25
815 3.79758 4.96336 4.97582 0.5
816 6.26928 0.120273 9.84898 0.25
817 4.7443 9.42254 1.02518 0.5
818 9.07962 6.25204 0.111307 0.25
819 3.55614 6.24205 1.26557 0.25
820 7.35152 5.0158 8.34334 0.25
821 7.9546 8.64205 7.01076 0.25
822 5.00892 3.71339 3.19656 0.25
823 2.0297 9.2982 7.50024 0.5
824 7.53989 4.14773 7.21798 0.25
825 8.06149 8.97863 6.36693 0.5
826 7.37319 3.27181 2.65554 0.25
827 9.06063 5.52538 6.76822 0.25
828 9.90501 3.49287 1.85367 0.25
829 0.575553 7.95967 4.80677 0.25
830 3.88472 5.85443 1.36252 0.25
831 2.73009 7.9448 2.82145 0.25
832 4.05072 5.46613 9.16678 0.25
833 6.48259 6.99376 6.4696 0.25
834 8.83727 3.97716 4.61452 0.25
835 1.06122 1.6784 6.86455 0.25
836 6.65716 5.58396 2.10456 0.25
837 4.02999 7.19725 9.09764 0.25
838 2.53968 9.73729 7.19839 0.25
839 0.0430085 2.71113 4.23837 0.25
840 9.5644 4.96481 4.07579 0.25
841 5.72878 4.86959 10.2688 0.5
842 7.04482 6.9829 8.3147 0.25
843 1.21422 9.3327 1.68674 0.25
844 6.61329 5.22666 1.75303 0.25
845 8.55177 4.101 4.15975 0.25
846 0.879079 5.28407 4.40651 0.25
847 7.97482 2.34784 10.3425 0.25
848 3.35166 1.02648 10.0476 0.5
849 6.27634 5.53155 2.38796 0.25
850 4.64778 8.64968 3.45214 0.25
851 4.32185 6.09236 1.47595 0.25
852 5.23756 1.3882 4.18694 0.25
853 9.62212 10.2262 3.57685 0.25
854 2.82492 3.32021 7.6675 0.25
855 3.49001 6.50903 1.71488 0.25
856 9.23769 3.09273 7.47887 0.25
857 6.55319 4.05388 5.38374 0.25
858 8.53424 6.45484 4.44882 0.25
859 9.37495 0.975702 1.47317 0.25
860 2.84395 0.0829697 3.90541 0.25
861 4.2255 9.5365 2.018 0.25
862 7.52644 1.18945 8.23546 0.5
863 0.955958 3.20238 0.129817 0.25
864 4.01033 3.57915 1.97021 0.25
865 0.897943 6.86616 5.21144 0.25
866 2.76091 1.50817 10.0834 0.25
867 2.81887 7.96974 9.11659 0.25
868 9.17176 1.29301 1.10003 0.25
869 0.0350842 8.37719 5.24153 0.25
870 7.08353 6.68859 8.72169 0.25
871 6.90293 3.07659 2.49678 0.25
872 8.10861 1.49335 7.51094 0.5
873 5.25171 9.58891 5.06365 0.25
874 6.88286 9.65251 4.75499 0.25
875 3.59449 8.36412 5.1418 0.25
876 4.04787 6.27022 1.12207 0.25
877 0.617282 2.3884 3.61184 0.25
878 0.322014 0.235127 9.13148 0.25
879 0.348791 7.53148 4.78992 0.25
880 5.82216 3.90641 4.7564 0.25
881 4.3595 6.5279 8.77329 0.5
882 10.1518 10.3884 6.05851 0.25
883 4.92425 3.11413 5.3629 0.25
884 2.19422 2.02734 1.71901 0.5
885 8.87037 9.76388 4.26986 0.25
886 9.33408 9.14582 0.925632 0.25
887 1.09366 6.14249 7.77481 0.25
888 1.88948 0.53207 2.38171 0.25
889 4.8642 5.01214 8.72897 0.25
890 0.656719 3.75261 5.94902 0.25
891 4.30077 3.23675 2.27113 0.25
892 6.46522 8.8669 2.84986 0.25
893 7.86543 3.31231 10.1074 0.25
894 2.02638 8.61928 10.105 0.25
895 9.70986 2.87641 7.4394 0.25
896 9.57741 1.19367 1.049 0.25
897 3.29647 7.61255 6.64542 0.25
898 1.01107 5.09181 5.12767 0.5
899 0.286055 1.20894 6.0638 0.25
900 8.41881 7.74387 4.00419 0.25
901 0.520337 8.19896 5.2357 0.25
902 5.18936 1.92448 1.10904 0.25
903 8.82429 6.90669 3.56029 0.25
904 1.11218 6.37153 0.0575427 0.5
905 8.90414 0.943869 1.37789 0.25
906 9.8616 9.63941 4.06228 0.25
907 4.62641 3.48209 2.95102 0.25