ITEM: TIMESTEP
880000
ITEM: NUMBER OF ATOMS
1000
ITEM: BOX BOUNDS xy xz yz pp pp pp
0.0000000000000000e+00 1.0357442000000001e+01 0.0000000000000000e+00
0.0000000000000000e+00 1.0357442000000001e+01 0.0000000000000000e+00
0.0000000000000000e+00 1.0357442000000001e+01 0.0000000000000000e+00
ITEM: ATOMS id x y z radius
1 1.48796 4.39422 2.93212 0.5
2 2.05089 7.72345 2.53573 0.5
3 5.03322 2.21393 1.14936 0.25
4 0.481195 2.57233 4.68854 0.25
5 9.43056 2.97861 7.04608 0.25
6 0.936898 2.80141 0.0323074 0.25
7 4.56681 1.25051 2.77114 0.25
8 9.08168 4.39365 1.77107 0.25
9 9.76787 1.35409 1.76235 0.25
10 8.94866 6.81847 3.81769 0.25
11 9.00293 9.09691 1.51348 0.25
12 8.02488 2.38324 10.1287 0.25
13 3.38383 7.36085 6.00776 0.25
14 5.21121 1.93523 10.3126 0.25
15 9.03642 5.70713 6.58188 0.25
16 8.63587 8.68759 6.4402 0.25
17 5.26871 8.95278 8.43886 0.5
18 2.58473 7.67875 10.2794 0.25
19 7.30184 4.52583 4.94054 0.25
20 9.09978 0.905913 1.54426 0.25
21 0.311067 10.1229 9.47988 0.25
22 4.56036 1.58057 3.17449 0.25
23 4.50258 4.22024 3.20749 0.25
24 2.4963 2.59285 4.05852 0.25
25 7.08343 1.84275 5.75653 0.25
26 5.56113 2.58815 8.21512 0.25
27 1.63319 8.36063 10.0446 0.25
28 9.39827 5.94867 6.69035 0.25
29 3.45884 7.42987 5.48135 0.25
30 0.941187 8.84806 7.69422 0.25
31 1.17248 7.39799 4.77661 0.25
32 9.25499 6.67404 1.49755 0.25
33 8.7836 8.72048 1.30763 0.25
34 0.117916 3.12396 9.55989 0.25
35 7.59567 2.14034 9.91335 0.25
36 8.09727 8.46893 9.73478 0.25
37 4.31474 4.72566 5.79621 0.25
38 7.04821 0.603131 0.841791 0.25
39 6.04532 4.14022 5.31584 0.25
40 8.68754 4.4707 4.57066 0.25
41 8.18187 7.03338 3.49297 0.25
42 6.6008 8.50059 2.25807 0.5
43 0.233332 8.76015 5.33669 0.25
44 3.10477 10.1534 4.89566 0.25
45 7.19742 6.98196 8.26092 0.25
46 0.961294 9.04837 7.19605 0.25
47 4.27043 8.48714 3.61367 0.25
48 3.03855 9.81078 5.2313 0.25
49 4.35008 5.86236 9.34738 0.25
50 10.3238 9.69912 3.58667 0.25
51 10.0238 8.61997 1.24354 0.25
52 6.49636 7.13167 0.706003 0.25
53 6.91484 5.43424 1.70112 0.25
54 4.7183 4.79529 8.30206 0.25
55 5.68301 6.62898 6.90004 0.25
56 5.08205 1.40008 0.988319 0.25
57 4.81824 1.99098 0.310428 0.25
58 6.44774 4.23847 0.403691 0.25
59 4.21498 7.67786 9.1373 0.25
60 7.22531 7.40806 8.46373 0.25
61 3.02902 -0.00926017 9.04474 0.25
62 9.47552 5.92369 7.19579 0.25
63 0.559418 5.52681 4.74533 0.25
64 10.2436 1.40257 1.56908 0.25
65 6.30263 7.18035 6.66414 0.25
66 4.12064 1.36378 2.95163 0.25
67 9.08264 4.98027 9.22573 0.25
68 6.22945 0.0985971 0.00394778 0.25
69 2.19064 7.50251 3.21446 0.25
70 3.97145 5.41443 3.95476 0.25
71 1.08385 8.15429 2.08907 0.25
72 5.35744 6.616 3.50156 0.25
73 9.05465 8.70126 7.09455 0.5
74 2.31878 7.00185 2.56467 0.25
75 1.05576 5.81982 0.742646 0.25
76 1.7048 8.05827 0.0511105 0.25
77 6.97463 7.05616 8.72163 0.25
78 4.64418 9.25059 1.54791 0.25
79 1.08202 5.33922 9.77362 0.25
80 8.23886 8.80862 9.36505 0.25
81 8.24072 9.39986 7.507 0.25
82 1.72059 0.641703 1.45229 0.25
83 1.06302 8.44118 2.49953 0.25
84 5.33206 9.6701 5.68363 0.25
85 4.34822 6.3603 1.70101 0.25
86 9.71347 3.77762 2.29676 0.5
87 1.39905 5.39762 8.46267 0.25
88 2.81618 3.78665 8.37866 0.25
89 0.415715 0.181414 9.77787 0.25
90 7.05052 10.3191 1.80565 0.5
91 3.85379 8.28672 3.50178 0.25
92 9.69084 1.10175 0.953793 0.25
93 8.30782 1.19377 8.10811 0.25
94 0.892702 4.07203 2.50199 0.25
95 7.78943 9.05143 5.67469 0.25
96 7.65177 1.33696 6.99821 0.25
97 5.615 9.81146 5.35592 0.25
98 10.3393 0.267611 6.01977 0.25
99 5.08457 2.0327 7.99632 0.5
100 5.29284 3.04057 5.29376 0.25
101 5.07092 2.35246 9.59494 0.5
102 4.10674 5.24832 8.50289 0.5
103 7.31078 0.390863 1.25639 0.25
104 1.11669 10.0987 9.90144 0.25
105 2.0806 4.87019 3.22489 0.25
106 6.45324 6.33094 6.69035 0.25
107 5.83515 9.98681 8.41675 0.25
108 1.88685 4.08364 1.88931 0.25
109 7.4864 2.64223 2.90103 0.25
110 5.76453 10.2363 5.40273 0.25
111 1.81787 5.65666 0.319884 0.25
112 3.90094 5.02511 5.73341 0.25
113 1.78882 0.248263 4.34801 0.25
114 8.78017 6.32542 0.279708 0.25
115 4.22503 3.08617 2.65288 0.25
116 10.2611 2.12647 3.63864 0.25
117 7.13268 2.10816 2.42511 0.5
118 7.0907 7.97819 2.59578 0.25
119 9.85155 2.57006 4.67692 0.25
120 1.7811 5.70031 10.1969 0.25
121 7.51989 1.9139 5.08515 0.5
122 1.85041 4.90947 2.44562 0.25
123 9.64949 9.29681 0.982457 0.25
124 8.50306 6.45873 0.717857 0.25
125 1.74247 9.86922 4.12884 0.25
126 6.28433 7.51552 0.519473 0.25
127 6.09762 7.05845 0.447259 0.25
128 9.56017 10.0732 4.01459 0.25
129 1.63011 4.89693 3.44975 0.25
130 9.98815 8.88933 0.819849 0.25
131 7.64665 2.65396 2.45563 0.25
132 8.62014 4.82456 4.85473 0.25
133 7.7892 8.79216 9.59234 0.25
134 4.86657 3.96608 3.45031 0.25
135 6.20368 9.32167 8.32398 0.5
136 8.32578 8.98642 7.19541 0.25
137 1.74436 9.56049 1.66707 0.25
138 7.31563 4.05932 4.80756 0.25
139 7.02912 4.57469 7.89625 0.5
140 4.26008 8.02387 3.39147 0.25
141 2.74005 1.42925 1.72083 0.25
142 2.70528 2.95869 4.86888 0.25
143 7.53514 1.94625 3.40169 0.25
144 10.0464 6.96182 2.37182 0.25
145 3.84371 7.47566 5.79405 0.25
146 7.17674 9.24002 3.01825 0.25
147 3.5809 5.6888 4.01855 0.25
148 3.00107 1.66819 10.3394 0.25
149 9.85911 7.77831 8.70649 0.25
150 4.45114 4.86877 7.96147 0.25
151 6.96002 9.94272 10.0637 0.25
152 4.39469 9.03235 1.18855 0.25
153 4.85775 1.42453 7.50704 0.25
154 5.60904 9.43139 7.85739 0.25
155 3.54645 6.3004 1.19807 0.25
156 0.878717 8.54509 7.2784 0.25
157 4.63034 0.254261 3.73108 0.25
158 8.49449 9.51597 6.57754 0.25
159 3.15412 2.88434 5.15526 0.25
160 2.65731 3.3743 8.06261 0.25
161 3.21896 0.0833934 9.5146 0.25
162 4.01356 2.20729 5.6015 0.5
163 6.6262 10.0519 2.34172 0.25
164 5.18384 8.23165 8.06792 0.25
165 0.464209 3.25027 9.96852 0.25
166 6.52206 3.83453 7.20203 0.25
167 9.08297 9.91891 3.85001 0.25
168 10.1842 7.6113 9.44648 0.25
169 9.83926 6.71858 7.18207 0.25
170 3.28203 0.341204 8.29298 0.25
171 1.37824 8.35283 7.21925 0.25
172 9.50208 6.15066 7.64807 0.25
173 0.587043 1.64887 4.17835 0.25
174 4.64492 1.86596 5.70509 0.25
175 9.16605 3.36612 7.08143 0.25
176 1.00564 6.2862 0.806319 0.25
177 9.09994 6.49876 7.55994 0.25
178 7.20246 1.24664 5.03974 0.25
179 2.73396 9.4892 7.77865 0.25
180 7.41667 9.07604 2.32972 0.5
181 1.15996 4.05714 5.87869 0.25
182 7.53951 1.79141 2.92269 0.25
183 2.60629 9.68131 4.49482 0.25
184 9.09469 5.3206 9.59713 0.25
185 8.66626 9.18015 6.29342 0.25
186 2.58525 7.88798 9.41083 0.25
187 2.97292 3.9664 0.581571 0.25
188 5.29419 2.26494 7.33339 0.25
189 10.2064 0.666951 5.72528 0.25
190 2.11039 7.04816 2.9922 0.25
191 5.41762 2.56209 8.9415 0.25
192 8.67661 9.31705 7.17133 0.25
193 5.07623 2.20211 8.78125 0.25
194 4.59066 9.48702 1.09705 0.25
195 5.06844 4.77916 9.90752 0.25
196 4.94321 2.33969 10.332 0.25
197 8.89016 6.39235 6.79371 0.5
198 7.15938 1.88526 6.99128 0.5
199 6.96918 0.0714145 9.85502 0.25
200 7.13129 0.921012 6.42879 0.25
201 6.18334 6.71463 6.89199 0.25
202 3.49211 7.67688 5.01253 0.25
203 4.56976 9.95234 0.36572 0.25
204 0.621404 3.77237 6.72336 0.25
205 3.89615 0.246979 6.58845 0.25
206 0.373573 1.95756 3.7996 0.25
207 1.23058 5.372 3.88981 0.5
208 4.23014 4.38473 6.13295 0.25
209 7.20459 9.67864 2.76105 0.25
210 4.07655 10.1685 6.4429 0.25
211 1.36597 5.04737 2.63945 0.25
212 0.296026 3.96788 1.9513 0.5
213 9.50377 4.51103 2.06032 0.25
214 3.62299 4.95422 6.10383 0.25
215 9.94673 0.623299 8.38185 0.25
216 5.60671 1.71528 0.218564 0.25
217 0.129259 8.39772 4.98806 0.25
218 2.31392 1.21646 2.29643 0.5
219 0.921981 4.35253 6.21633 0.25
220 6.72723 9.24535 2.03337 0.25
221 8.95942 7.27829 4.06474 0.25
222 9.75408 6.22043 6.8584 0.25
223 5.43608 9.3414 5.28575 0.25
224 9.95586 3.09687 6.92527 0.25
225 8.0083 1.31348 5.31593 0.25
226 6.31738 8.7915 5.1408 0.25
227 7.41223 0.311025 0.769538 0.25
228 4.77087 2.23197 0.739736 0.25
229 2.86628 2.20943 2.31107 0.25
230 8.213 7.48056 3.78549 0.25
231 7.38653 4.2023 6.89324 0.25
232 6.95537 9.66663 2.30321 0.25
233 8.178 2.07006 9.4417 0.5
234 3.71589 9.58368 1.28352 0.25
235 1.17346 8.72887 6.89155 0.25
236 1.70853 5.17663 0.4939 0.25
237 7.46715 1.45548 3.28078 0.25
238 1.23327 5.95619 4.35979 0.25
239 1.20945 2.65188 9.9794 0.25
240 1.44585 8.90099 2.03668 0.5
241 1.68875 9.57633 2.17225 0.25
242 4.07859 7.79116 6.07763 0.25
243 1.92275 5.90432 0.730547 0.25
244 1.44316 0.837699 6.57101 0.25
245 5.84308 7.06506 6.73655 0.25
246 2.08089 8.24645 10.0278 0.25
247 2.59437 7.73728 3.08429 0.25
248 5.51261 2.23738 8.55785 0.25
249 6.95854 4.19003 5.14391 0.25
250 7.35727 1.35139 6.55653 0.25
251 0.977927 1.65095 6.64461 0.25
252 6.94918 6.09454 9.2017 0.25
253 4.2279 7.25074 8.82003 0.25
254 1.4481 9.87853 1.35028 0.25
255 2.09992 0.630618 1.77963 0.25
256 3.11935 5.13615 4.44637 0.25
257 0.787733 10.2782 9.54723 0.25
258 4.50426 5.49829 7.36768 0.25
259 1.69266 10.3298 3.93049 0.25
260 0.480315 0.0314792 10.3383 0.25
261 7.22147 7.31491 8.98939 0.25
262 5.32831 6.18348 3.70496 0.25
263 8.53856 8.6991 9.76972 0.25
264 7.54084 9.42153 10.021 0.5
265 4.64508 3.83537 2.45539 0.25
266 4.3165 3.77334 2.06189 0.25
267 3.03765 7.50813 5.68693 0.25
268 3.60348 7.7698 6.13221 0.25
269 7.16958 9.04388 6.25877 0.25
270 3.07682 7.75362 6.19082 0.25
271 4.50407 9.72675 1.57171 0.25
272 6.19669 6.94554 5.45382 0.25
273 10.3311 3.85499 7.49819 0.25
274 3.76242 4.51554 6.37915 0.25
275 10.039 7.00084 2.86887 0.25
276 8.21366 1.28811 8.60095 0.25
277 2.92892 9.9849 8.32999 0.5
278 4.50278 6.00964 8.50097 0.25
279 2.54334 0.059707 8.80905 0.25
280 3.51169 0.509436 9.57912 0.25
281 4.78434 8.66931 3.60356 0.25
282 4.89574 0.463571 2.99992 0.25
283 9.58456 0.651809 9.12454 0.25
284 1.83329 5.22491 0.00953017 0.25
285 8.76423 6.83962 1.46308 0.25
286 10.096 1.50353 2.02812 0.25
287 1.2233 7.92353 2.55278 0.25
288 1.05495 5.5913 4.66916 0.25
289 8.96378 1.34302 1.27894 0.25
290 8.72539 4.07823 2.02298 0.25
291 7.72711 2.58108 9.78799 0.25
292 4.20552 9.39448 1.38557 0.25
293 5.00592 2.46856 6.6848 0.5
294 0.0660376 6.88647 2.65929 0.25
295 7.0178 1.00457 7.1044 0.5
296 2.52158 2.93673 4.37364 0.25
297 0.603982 8.42997 5.23853 0.25
298 4.74149 9.07398 0.84381 0.25
299 9.32381 5.03597 9.97221 0.25
300 2.45631 10.099 4.41315 0.25
301 4.72672 8.14813 7.79784 0.25
302 4.91909 4.72027 7.84109 0.25
303 9.0713 5.69948 10.3107 0.5
304 4.26972 3.32175 3.16366 0.25
305 1.49373 8.24755 2.33074 0.25
306 9.86992 7.47964 9.07238 0.25
307 0.606515 10.0855 9.92564 0.25
308 9.00583 5.71982 7.04749 0.25
309 8.02439 1.68468 8.71363 0.25
310 6.65504 7.0933 6.27483 0.25
311 1.45644 1.04306 1.65891 0.25
312 8.91751 1.19872 8.51964 0.5
313 1.98814 8.4471 2.39045 0.25
314 0.996479 3.76842 2.12772 0.25
315 2.82803 0.712507 9.27642 0.5
316 6.49597 4.14413 7.60586 0.25
317 6.33256 10.0297 8.52952 0.25
318 9.67536 7.69142 9.49979 0.25
319 10.0735 9.99259 3.35791 0.25
320 0.80924 2.83051 9.15829 0.25
321 2.88793 1.727 2.12168 0.25
322 1.21864 6.92336 4.98845 0.25
323 6.47383 10.2059 9.35097 0.5
324 7.10445 1.78881 3.13117 0.25
325 9.13753 3.88326 1.75897 0.25
326 2.68528 10.264 5.21806 0.25
327 1.43159 8.86853 7.88428 0.25
328 4.62741 3.45153 2.75219 0.25
329 8.30564 6.81873 4.18801 0.5
330 9.87357 6.58232 3.07935 0.25
331 9.12621 10.0661 3.35552 0.25
332 6.51745 7.66572 0.0940995 0.25
333 0.0361944 8.09825 9.31604 0.25
334 6.99646 4.90431 1.53393 0.25
335 5.95966 4.36399 0.585087 0.25
336 9.52594 4.16827 1.75899 0.25
337 4.76732 5.61451 8.67688 0.25
338 7.33112 8.27553 2.20451 0.25
339 4.00154 5.98007 8.54421 0.25
340 0.658848 3.14217 9.4921 0.25
341 3.35181 5.60041 4.48848 0.25
342 9.83263 3.77336 7.46747 0.25
343 9.80805 2.06201 3.83559 0.25
344 4.19188 0.943551 2.69316 0.25
345 6.42418 4.38242 10.2856 0.25
346 2.26425 1.67858 7.26074 0.25
347 3.11765 3.50881 10.2863 0.25
348 5.79322 7.4863 0.424745 0.25
349 4.53696 1.82183 7.50699 0.25
350 2.68772 2.96647 8.34202 0.25
351 5.74745 6.82046 3.36019 0.25
352 8.42703 6.56568 1.70744 0.25
353 10.1358 3.3647 7.39618 0.25
354 9.72298 3.26803 1.76624 0.25
355 1.73745 1.67758 2.26369 0.25
356 4.7478 9.0672 0.338769 0.25
357 3.32542 4.53466 6.04819 0.25
358 4.74165 9.50702 0.591746 0.25
359 9.10278 6.84661 0.773881 0.5
360 3.71641 10.2288 6.75608 0.25
361 0.0965397 0.60505 6.31898 0.25
362 9.99887 8.03623 9.63033 0.25
363 7.21646 2.81247 2.49331 0.25
364 9.6668 6.7363 2.61544 0.25
365 5.86609 9.04416 5.07572 0.25
366 9.17835 4.18524 2.16772 0.25
367 3.43434 0.606042 8.73394 0.25
368 9.6275 6.59907 7.61941 0.25
369 9.41512 4.55562 4.64068 0.5
370 4.54283 1.66916 6.81014 0.5
371 9.71066 6.43408 1.91932 0.5
372 0.927755 2.32356 4.19566 0.5
373 3.40031 0.0756038 8.69497 0.25
374 3.39568 0.303658 9.10491 0.25
375 4.56807 0.176945 3.26161 0.25
376 0.753656 5.77761 4.32717 0.25
377 9.95 7.94921 9.17291 0.25
378 9.94756 9.12841 1.34574 0.25
379 0.390305 3.7441 6.20249 0.25
380 1.48128 2.66686 4.70304 0.25
381 7.15397 4.9331 2.24553 0.5
382 2.3451 8.303 9.64179 0.25
383 5.60591 8.36146 8.34996 0.25
384 1.71939 6.77837 7.48861 0.25
385 0.792203 6.99609 5.14562 0.25
386 1.5782 5.58888 7.64752 0.25
387 1.3371 6.048 7.66479 0.25
388 2.41556 2.3784 2.45176 0.25
389 5.45878 1.5621 0.750068 0.25
390 2.91636 3.4858 0.382728 0.25
391 4.03605 0.150255 6.11363 0.25
392 0.959281 5.60894 5.12099 0.25
393 9.07644 8.95723 6.42395 0.25
394 10.3033 0.163012 6.45483 0.25
395 2.1718 4.69107 2.74691 0.25
396 3.19093 0.429214 9.92292 0.25
397 7.28115 2.25211 3.05973 0.25
398 9.88352 4.73442 9.32844 0.25
399 2.4439 9.85468 7.68228 0.25
400 7.9354 2.57157 0.219418 0.25
401 5.7549 6.51307 3.77978 0.25
402 4.35665 5.79492 8.87215 0.25
403 5.96606 4.89328 0.606652 0.25
404 8.11392 3.51407 0.134386 0.25
405 1.48726 5.60135 0.713171 0.25
406 6.37112 9.23655 5.04346 0.25
407 7.31325 6.86859 9.06261 0.25
408 9.18292 9.02969 1.08023 0.25
409 0.055129 6.64717 2.25138 0.25
410 5.1814 1.4663 3.96224 0.25
411 8.23787 9.52696 9.79462 0.25
412 4.76622 2.20012 7.31298 0.25
413 6.95521 2.57775 2.93431 0.25
414 7.28709 5.5466 2.57611 0.25
415 4.3778 0.880863 3.39075 0.5
416 10.0584 0.728426 8.85241 0.25
417 3.47872 8.10527 5.61411 0.5
418 0.697061 0.967144 6.57816 0.5
419 8.85398 9.65105 3.4552 0.25
420 5.5073 8.5599 7.89119 0.25
421 9.51922 6.6685 6.78355 0.25
422 2.76765 7.23288 2.51515 0.25
423 1.77652 5.05515 2.92202 0.25
424 0.0240028 0.23252 9.47136 0.25
425 2.30049 0.209657 4.3902 0.25
426 2.04964 2.01765 2.50653 0.25
427 6.91615 1.40162 6.38058 0.25
428 7.41053 9.80636 2.25868 0.25
429 5.29369 9.01404 7.72542 0.25
430 10.2533 9.25843 3.521 0.25
431 6.95265 0.126807 0.996605 0.25
432 2.78654 7.62323 9.80838 0.25
433 2.78121 2.56994 5.23881 0.25
434 6.04885 9.82492 8.84404 0.25
435 1.05133 2.29764 10.2848 0.25
436 6.42433 4.86071 10.1913 0.25
437 0.928504 6.01489 10.2221 0.25
438 7.64126 1.01027 6.55741 0.25
439 9.55682 9.46626 3.58823 0.5
440 2.47126 2.69223 7.71207 0.5
441 1.3314 3.83667 2.49494 0.25
442 6.40558 7.55526 0.940164 0.25
443 10.0107 9.98364 3.87423 0.25
444 1.46732 3.79131 1.99886 0.25
445 5.6096 6.99299 3.8051 0.25
446 8.36857 4.78057 4.32869 0.25
447 6.35979 5.04537 0.310121 0.25
448 5.19962 1.09457 3.25272 0.5
449 0.416903 0.278126 6.23944 0.25
450 1.57436 1.23493 2.11111 0.25
451 3.76963 3.66745 0.452001 0.25
452 6.14601 4.44652 4.93168 0.25
453 7.72448 4.40144 8.23917 0.25
454 1.59467 5.85845 8.4623 0.25
455 1.30422 6.2008 8.18876 0.25
456 2.52324 1.87481 2.48575 0.25
457 9.41635 8.51086 1.65644 0.5
458 1.69191 5.943 7.28968 0.25
459 1.14023 1.36316 7.03228 0.25
460 2.21335 5.92446 7.17003 0.25
461 3.56904 6.36404 1.74045 0.25
462 3.92329 6.12226 1.91782 0.25
463 1.49209 10.204 4.34258 0.25
464 9.90869 1.02656 1.38999 0.25
465 7.11166 5.67181 2.14581 0.25
466 4.8631 5.45733 7.94723 0.5
467 3.46286 5.28599 5.69704 0.25
468 1.81566 1.48723 1.76225 0.25
469 4.41137 3.79855 3.38091 0.25
470 4.58678 4.25243 2.69884 0.25
471 3.08328 9.67131 4.70521 0.25
472 1.89219 2.48826 7.24485 0.25
473 2.86055 8.14957 9.67552 0.25
474 9.04411 3.71302 2.15227 0.25
475 7.96016 7.29463 4.67483 0.25
476 4.17224 5.91112 1.50068 0.25
477 10.2068 9.47193 4.01097 0.25
478 8.87941 6.10423 1.28242 0.5
479 6.82633 0.526227 1.27304 0.25
480 2.52412 7.99686 9.90948 0.25
481 3.86516 9.04949 1.23723 0.25
482 6.52696 9.66754 5.2545 0.25
483 6.92958 0.104651 0.235416 0.5
484 9.67382 3.36317 7.22887 0.25
485 8.3244 3.154 10.1903 0.25
486 4.63072 8.33179 3.21593 0.25
487 2.87505 3.91929 0.0636747 0.25
488 7.10028 9.57916 1.87103 0.25
489 8.81393 6.79694 4.75114 0.25
490 2.83335 3.4431 7.61603 0.25
491 8.54473 9.04761 6.72607 0.25
492 7.58562 2.49989 10.2474 0.25
493 9.44537 3.7495 7.09484 0.25
494 8.83575 4.41005 5.0658 0.25
495 9.54836 3.37572 6.77098 0.25
496 4.46573 1.65232 6.0824 0.25
497 3.63951 3.59576 10.3058 0.25
498 8.34936 1.45018 9.03398 0.25
499 4.16779 9.8571 1.19804 0.25
500 3.93791 7.28857 9.26674 0.25
501 2.67096 0.0670728 4.73118 0.25
502 9.09165 6.07887 7.3935 0.25
503 6.7815 8.28562 2.91534 0.25
504 6.55202 7.18846 0.241893 0.25
505 7.43557 1.16727 5.78915 0.5
506 5.39486 10.2285 5.09978 0.25
507 7.21473 8.48424 2.68123 0.25
508 4.73406 8.50424 8.75063 0.25
509 1.42933 9.15769 7.10674 0.25
510 5.78305 4.06405 4.88458 0.25
511 3.62631 10.3126 6.28816 0.25
512 1.10977 4.85443 3.38247 0.25
513 1.59006 5.35082 9.90113 0.25
514 3.48534 2.11072 5.05565 0.25
515 1.61672 1.91727 6.91688 0.5
516 6.01263 9.25149 5.67904 0.5
517 8.39535 7.0892 4.84011 0.25
518 2.79791 0.719115 10.0477 0.25
519 2.92006 10.0646 4.40563 0.25
520 5.06325 1.82398 7.26523 0.25
521 1.30066 4.35552 5.42193 0.25
522 2.11493 0.237137 3.95561 0.25
523 2.25352 3.20044 8.21902 0.25
524 7.51483 1.30501 4.62048 0.25
525 2.18111 6.74372 7.46923 0.25
526 1.90402 5.44814 8.65199 0.25
527 6.47378 9.42654 2.73379 0.5
528 7.43734 8.84426 3.0445 0.25
529 4.44921 5.78822 1.03554 0.25
530 1.86987 8.11857 2.00579 0.25
531 0.636242 2.46811 0.211778 0.25
532 2.05697 8.68327 9.93696 0.25
533 9.2561 9.71616 4.24124 0.25
534 8.78622 4.98511 4.42025 0.25
535 7.04886 6.16241 8.67984 0.25
536 4.58978 9.91829 0.886304 0.25
537 7.86956 1.42318 2.98261 0.25
538 7.62436 4.40129 7.28219 0.25
539 10.1786 3.78169 6.77983 0.5
540 5.80146 9.90236 7.92545 0.25
541 9.59503 8.82701 1.08582 0.25
542 7.42477 8.77722 5.90616 0.25
543 9.2376 4.35671 3.9668 0.25
544 1.90577 1.55389 7.58409 0.25
545 10.1693 9.57084 3.14886 0.25
546 10.3309 1.0499 6.53401 0.25
547 9.59803 3.71695 1.55959 0.25
548 9.42003 4.60697 9.2611 0.25
549 2.42758 0.985571 1.58683 0.25
550 9.45646 9.24253 1.39942 0.25
551 2.65424 7.38198 3.3847 0.25
552 8.9055 9.37634 6.7237 0.25
553 5.54568 2.68815 5.05888 0.25
554 8.79025 4.58874 4.0691 0.25
555 5.80285 8.93864 7.8285 0.25
556 1.66319 8.6934 7.04871 0.25
557 2.93958 9.88345 7.571 0.25
558 3.10541 3.62785 8.00214 0.25
559 9.66236 1.04721 8.25149 0.25
560 3.83394 4.54914 5.89527 0.25
561 1.09125 3.88194 1.64498 0.25
562 5.28297 5.22042 9.97444 0.25
563 5.46818 9.66037 8.2502 0.25
564 1.81594 1.24364 6.61927 0.25
565 1.92654 1.06969 1.70303 0.25
566 9.9112 6.24066 7.32982 0.25
567 1.47037 6.06595 0.906821 0.25
568 7.67376 1.16386 5.07287 0.25
569 7.1466 3.82407 7.47712 0.5
570 4.75913 3.44503 3.27752 0.25
571 4.43674 4.21695 2.20421 0.25
572 8.51516 1.8095 8.77018 0.25
573 0.365776 6.92711 4.84629 0.25
574 0.0893932 0.990323 6.04197 0.25
575 6.3542 3.63121 4.63046 0.25
576 5.04328 1.83358 0.791195 0.25
577 1.02025 8.14785 5.21021 0.25
578 1.11927 5.34772 0.143247 0.5
579 4.89172 5.21116 7.25486 0.25
580 7.61944 7.26092 4.30222 0.25
581 7.70703 6.60424 8.88065 0.25
582 7.47759 4.1215 5.25665 0.25
583 8.57063 5.71199 6.78103 0.25
584 5.10926 7.00032 3.74499 0.25
585 6.57724 0.410117 0.844818 0.25
586 1.65732 2.53209 4.23724 0.25
587 6.12572 9.89736 5.503 0.25
588 2.76064 1.47288 9.56879 0.25
589 10.0951 3.55187 1.69019 0.25
590 8.7862 7.26172 4.55013 0.25
591 3.62006 2.59175 5.03692 0.25
592 6.82469 5.59038 2.56785 0.25
593 5.69985 9.97795 5.82711 0.25
594 9.2746 6.35963 0.200392 0.25
595 2.04367 2.06047 7.52467 0.25
596 9.18078 8.56608 0.971142 0.25
597 4.4342 0.448345 2.7928 0.25
598 6.77149 7.5597 0.516345 0.25
599 10.1254 0.975087 1.82625 0.25
600 4.27902 9.35584 1.88477 0.25
601 7.08495 10.0919 2.58161 0.25
602 6.25927 8.20074 2.88646 0.25
603 2.45759 6.34396 7.27161 0.25
604 9.05838 0.559894 1.25104 0.25
605 1.46573 7.79271 2.08303 0.25
606 1.91969 1.28447 7.13781 0.25
607 2.55209 2.05093 7.46567 0.25
608 6.94816 6.37604 6.13759 0.5
609 4.00724 6.65801 1.85767 0.25
610 6.50302 4.68101 1.01768 0.5
611 8.39766 8.57263 7.39277 0.25
612 8.47885 10.2495 3.7741 0.5
613 8.23599 2.72356 9.8395 0.25
614 9.7059 6.82135 1.27794 0.25
615 6.61131 3.93813 7.99923 0.25
616 1.50443 1.10255 6.94645 0.25
617 3.01171 3.10055 7.94073 0.25
618 8.00457 3.07243 0.27811 0.25
619 1.31728 9.68837 1.8381 0.25
620 7.08232 6.00129 2.48042 0.25
621 6.64199 4.58831 1.83802 0.25
622 7.56597 6.15959 8.6913 0.25
623 8.07288 4.30907 4.88185 0.5
624 4.74196 8.45576 8.19949 0.25
625 5.43473 2.39157 10.2251 0.25
626 2.05858 2.8353 4.17651 0.25
627 6.95512 5.2817 2.91775 0.25
628 0.902724 10.0822 10.3552 0.25
629 7.36443 10.2026 10.0339 0.25
630 5.94764 7.76264 0.807473 0.25
631 8.21611 1.73904 5.23469 0.25
632 3.31405 3.76301 0.277147 0.25
633 3.4301 3.28772 0.296441 0.25
634 4.57647 7.80885 8.46262 0.5
635 9.4651 6.40415 7.23395 0.25
636 8.85838 5.08183 9.99803 0.25
637 6.14306 8.96666 4.71413 0.25
638 1.98725 10.1213 4.87392 0.5
639 6.7394 2.75205 2.55945 0.25
640 7.40273 1.82609 7.69669 0.25
641 3.12554 5.44746 4.0642 0.25
642 3.41291 7.51623 6.51486 0.25
643 3.04566 1.85196 9.85093 0.25
644 5.93716 9.73798 4.78449 0.5
645 3.48196 4.09476 0.606136 0.25
646 8.03143 7.52333 4.23226 0.25
647 6.62377 6.95906 5.75467 0.25
648 7.04471 1.52058 7.70579 0.25
649 4.71793 6.00341 9.05011 0.25
650 7.95221 1.58967 3.4366 0.25
651 5.00136 8.61038 7.75475 0.25
652 1.09979 5.85867 8.47334 0.25
653 0.890217 4.52051 5.67367 0.25
654 1.50129 6.39137 7.33815 0.25
655 10.0014 4.01032 1.62263 0.25
656 4.53087 4.98307 7.49758 0.25
657 8.20989 9.39521 6.9886 0.25
658 7.68474 4.29028 7.78506 0.25
659 9.22668 0.0272909 3.75854 0.25
660 1.99958 6.14498 7.89954 0.5
661 2.55716 7.28531 2.93264 0.25
662 7.43028 9.28989 5.97339 0.25
663 3.55187 0.766813 9.13246 0.25
664 0.323077 2.89411 9.19133 0.25
665 8.4364 6.62192 1.21926 0.25
666 5.59778 9.62918 8.6968 0.25
667 7.80959 3.26592 10.2315 0.25
668 6.94706 1.5606 5.34778 0.25
669 3.37442 7.7599 9.36679 0.5
670 0.705563 3.24011 0.0229428 0.25
671 0.811507 6.30882 4.83492 0.5
672 6.3573 6.02585 5.89767 0.25
673 4.19731 8.97405 1.62507 0.25
674 7.44581 4.36212 4.48288 0.25
675 8.08527 8.94209 7.63088 0.25
676 5.43534 2.2942 0.580203 0.5
677 9.76664 3.28312 7.73101 0.25
678 9.76513 0.680709 6.26341 0.5
679 2.26282 2.25226 7.08289 0.25
680 3.02479 7.44467 2.98805 0.25
681 7.84875 9.13316 7.23082 0.25
682 3.07411 7.52029 5.20266 0.25
683 10.3361 2.98081 10.0426 0.25
684 1.72779 8.56674 7.53925 0.25
685 8.85583 9.53087 3.94048 0.25
686 6.68603 9.50328 4.78617 0.25
687 9.34779 3.5942 7.54222 0.25
688 5.50316 7.58298 0.83366 0.25
689 2.06021 2.37504 3.98967 0.25
690 10.1823 8.19829 8.88209 0.25
691 0.194071 8.21481 5.44596 0.25
692 1.31634 4.4528 5.94747 0.25
693 9.35539 2.29292 3.87998 0.25
694 3.17149 4.24731 0.173597 0.25
695 8.01744 1.41959 4.85019 0.25
696 4.90404 0.633765 3.83872 0.25
697 1.3251 8.79022 7.40011 0.25
698 8.65337 5.97261 0.576242 0.25
699 3.91401 7.52986 5.2924 0.25
700 5.58878 7.90592 0.499753 0.25
701 3.49355 4.76837 5.63836 0.25
702 6.61592 3.77851 5.0533 0.25
703 1.71244 0.750882 1.99828 0.25
704 7.26759 4.32583 8.50878 0.25
705 3.87845 5.76022 9.01955 0.25
706 7.42593 1.3741 7.48535 0.25
707 5.87898 6.61531 5.43961 0.25
708 5.30605 6.63407 3.97958 0.25
709 1.2833 4.49407 2.03528 0.5
710 1.27686 4.83306 5.61078 0.25
711 6.70009 4.37503 7.21467 0.25
712 4.45742 8.76558 3.20855 0.25
713 1.37387 5.17498 3.14361 0.25
714 1.99371 10.2122 4.2841 0.25
715 2.65619 3.83513 7.88975 0.25
716 9.69383 8.4765 0.854709 0.25
717 3.11256 5.52831 5.39702 0.25
718 5.91139 3.41829 5.19643 0.5
719 5.43484 3.10474 5.79896 0.25
720 5.30457 0.97018 4.01908 0.25
721 3.37711 8.06885 6.44793 0.25
722 4.04949 5.13541 4.30571 0.25
723 5.98499 6.25509 6.75721 0.25
724 9.63529 0.921826 8.70342 0.25
725 4.22306 10.2854 6.82175 0.25
726 3.57966 5.23755 4.2278 0.25
727 3.87529 5.57369 4.43965 0.25
728 1.93002 7.60426 9.76661 0.5
729 7.57339 1.89745 5.89977 0.25
730 7.88715 1.36048 9.01753 0.25
731 0.872118 5.73594 9.80458 0.25
732 3.83151 7.34118 6.30555 0.25
733 9.57832 2.10449 4.72398 0.25
734 8.56878 7.50903 4.126 0.25
735 3.23101 2.40919 5.31669 0.25
736 9.1669 6.01315 6.24831 0.25
737 0.879757 4.11367 5.43243 0.25
738 5.12625 8.29104 8.55409 0.25
739 3.3069 3.92924 10.148 0.25
740 8.91097 6.5983 1.88042 0.25
741 7.41376 2.71016 2.01685 0.25
742 5.14856 1.64885 0.361556 0.25
743 9.4958 1.88481 4.19684 0.25
744 2.20692 2.40841 4.77759 0.5
745 0.61955 4.11347 5.90179 0.25
746 7.02966 4.40101 1.54133 0.25
747 7.22594 2.49497 9.86579 0.25
748 7.17133 10.0105 9.60097 0.25
749 7.01704 3.89794 8.26004 0.25
750 4.08429 1.89923 6.32144 0.25
751 1.52215 2.20005 4.65205 0.25
752 9.67224 2.33915 4.26439 0.25
753 0.485508 2.45575 9.78861 0.5
754 7.97248 1.69156 5.68935 0.25
755 7.93002 2.85093 10.1994 0.25
756 4.87218 1.74729 1.31061 0.25
757 10.2876 2.0276 4.37769 0.5
758 2.11015 9.68283 4.35036 0.25
759 5.12604 2.75325 7.99775 0.25
760 4.75958 1.50708 3.6202 0.25
761 6.25267 5.99635 6.36808 0.25
762 0.48404 4.17914 6.43345 0.25
763 6.70177 4.29477 4.45933 0.5
764 5.36821 7.09548 3.34602 0.25
765 6.94672 6.59364 8.94582 0.25
766 1.85351 5.31698 3.32857 0.25
767 6.52031 2.38136 2.74506 0.25
768 5.0824 2.46322 5.67643 0.5
769 1.07573 2.8713 9.55181 0.25
770 5.97923 6.67928 6.136 0.5
771 5.63508 7.11416 0.710727 0.25
772 7.02175 9.10295 5.42288 0.5
773 6.05609 4.10808 0.129309 0.25
774 6.89864 8.80907 2.90878 0.25
775 10.3273 7.71168 8.96953 0.25
776 4.58125 9.50064 0.0862223 0.25
777 1.46778 8.22446 1.76688 0.25
778 2.99105 0.318602 8.70078 0.25
779 10.3444 7.90178 8.46541 0.25
780 5.44788 4.95373 9.63157 0.25
781 4.91577 6.47874 3.78614 0.25
782 9.52576 6.39988 1.17008 0.25
783 4.62223 8.15315 3.66006 0.25
784 3.6761 4.05162 0.146738 0.25
785 8.61016 9.03891 7.62705 0.25
786 6.2512 6.57384 5.1402 0.25
787 6.08647 6.13974 5.46305 0.25
788 4.83444 1.10659 3.95651 0.25
789 6.40602 4.95675 2.19485 0.25
790 4.95066 1.87267 6.20436 0.25
791 8.68398 5.81874 6.28253 0.25
792 3.99145 3.85506 2.74541 0.5
793 10.1248 0.189742 8.67284 0.25
794 2.24005 1.41066 1.54339 0.25
795 1.26115 9.21679 7.58641 0.25
796 2.41371 9.99501 3.76489 0.5
797 10.0257 9.03956 3.13072 0.25
798 9.16972 4.90687 4.07112 0.25
799 3.55844 6.99251 1.32199 0.5
800 9.82577 1.52076 1.25376 0.25
801 6.02518 0.0553454 9.90806 0.25
802 6.16066 7.3568 0.06166 0.25
803 9.5077 5.06958 9.47324 0.25
804 4.1261 5.25003 7.71077 0.25
805 8.91556 4.1567 4.27143 0.25
806 2.35494 9.59014 8.07331 0.25
807 3.11616 4.96815 5.93281 0.25
808 8.69136 4.99923 9.51986 0.25
809 1.34659 5.78987 9.93947 0.25
810 7.26551 1.73728 6.25433 0.25
811 9.58524 4.64303 9.76034 0.25
812 3.95104 6.35546 1.47523 0.25
813 1.76551 3.97192 2.36173 0.25
814 1.34067 0.00228534 10.2845 0.25
815 3.7093 5.15176 5.0039 0.5
816 6.48898 0.254946 10.0015 0.25
817 4.06647 9.40568 0.636658 0.5
818 9.1318 6.09536 0.569279 0.25
819 3.94974 6.02455 1.06202 0.25
820 7.52124 4.79898 8.50629 0.25
821 7.94932 8.63785 7.19281 0.25
822 4.99661 4.22434 2.99378 0.25
823 1.997 9.22076 7.56628 0.5
824 7.14599 4.51751 7.15374 0.25
825 7.91166 8.97945 6.46228 0.5
826 6.47946 2.43866 2.23869 0.25
827 9.5873 6.33164 6.42682 0.25
828 9.95362 4.34658 1.90804 0.25
829 1.07919 7.76622 5.5338 0.25
830 4.40467 6.24768 1.20655 0.25
831 2.82654 7.72207 2.65661 0.25
832 4.13922 5.42288 9.20095 0.25
833 6.65087 6.77479 6.66127 0.25
834 8.82345 4.01334 4.74872 0.25
835 1.34139 1.33266 6.56327 0.25
836 6.6312 5.40125 2.14537 0.25
837 3.73969 7.17207 8.88027 0.25
838 2.65885 9.59447 7.3297 0.25
839 10.3331 2.70825 4.59731 0.25
840 9.58252 4.75681 3.9096 0.25
841 5.68725 4.7825 10.3427 0.5
842 7.3273 6.38331 9.06583 0.25
843 1.38595 9.36386 1.45618 0.25
844 6.59685 5.06712 1.72432 0.25
845 8.42515 4.3072 4.19367 0.25
846 0.732822 5.2617 4.39311 0.25
847 7.49067 2.97042 9.97414 0.25
848 3.37908 1.1893 9.8586 0.5
849 6.53442 5.15753 2.61783 0.25
850 4.12241 8.42516 3.14447 0.25
851 4.23589 6.67978 1.395 0.25
852 5.36308 0.551583 3.69614 0.25
853 9.64167 10.1726 3.49287 0.25
854 2.31902 3.46539 7.75693 0.25
855 3.69793 5.92472 1.48299 0.25
856 9.34893 3.0775 7.52036 0.25
857 6.47098 4.25239 5.18549 0.25
858 8.62248 6.76749 3.45835 0.25
859 9.44623 1.20636 1.38756 0.25
860 2.95753 9.65663 4.17228 0.25
861 3.82508 9.26395 1.66272 0.25
862 7.55347 1.35806 8.22406 0.5
863 0.443087 2.88948 10.313 0.25
864 4.02379 3.36705 2.21259 0.25
865 0.866243 7.06918 4.65398 0.25
866 2.78223 1.18883 10.2943 0.25
867 3.31365 8.29994 9.92253 0.25
868 9.52421 0.725778 1.24405 0.25
869 0.99929 8.47643 5.53873 0.25
870 7.27759 6.61707 8.60889 0.25
871 6.89334 2.69914 2.10026 0.25
872 8.12876 1.65681 7.51109 0.5
873 5.19976 9.7991 5.20271 0.25
874 6.64958 8.97985 4.72094 0.25
875 3.90293 7.95017 5.05244 0.25
876 3.98474 6.45946 0.96123 0.25
877 0.296338 2.46463 3.81558 0.25
878 0.0137464 10.306 9.0708 0.25
879 1.31304 7.74551 5.06816 0.25
880 5.96159 3.85291 4.47469 0.25
881 4.14642 6.51681 9.03361 0.5
882 10.0122 10.2819 6.13645 0.25
883 5.72514 2.80468 5.50273 0.25
884 2.27041 2.08077 1.85286 0.5
885 8.78156 9.86415 4.27125 0.25
886 9.46787 8.92868 0.664775 0.25
887 1.39654 6.55736 7.80257 0.25
888 2.06113 0.572125 2.29221 0.25
889 4.84648 5.08685 8.63769 0.25
890 0.828483 3.9104 6.29521 0.25
891 4.46505 3.41019 2.29288 0.25
892 6.4277 8.67547 2.91242 0.25
893 8.33934 2.67985 0.0237496 0.25
894 1.88221 8.36139 9.58315 0.25
895 9.81223 2.92713 7.38765 0.25
896 9.62086 0.895497 1.77297 0.25
897 3.82514 7.79914 6.55677 0.25
898 0.866744 4.88705 5.0219 0.5
899 0.326379 0.60284 5.88204 0.25
900 8.38071 7.51762 4.59132 0.25
901 0.695935 8.09658 5.6146 0.25
902 5.38675 1.8169 1.16413 0.25
903 7.81409 7.23114 3.82388 0.25
904 1.4837 6.27493 0.228433 0.5
905 9.16983 1.01582 1.02848 0.25
906 9.79606 9.66519 4.22377 0.25