ITEM: TIMESTEP
610000
ITEM: NUMBER OF ATOMS
1000
ITEM: BOX BOUNDS xy xz yz pp pp pp
0.0000000000000000e+00 1.0357442000000001e+01 0.0000000000000000e+00
0.0000000000000000e+00 1.0357442000000001e+01 0.0000000000000000e+00
0.0000000000000000e+00 1.0357442000000001e+01 0.0000000000000000e+00
ITEM: ATOMS id x y z radius
1 1.43544 4.48953 2.75049 0.5
2 2.12035 7.8795 2.84314 0.5
3 5.12263 1.32581 1.01293 0.25
4 0.793902 2.0624 3.49686 0.25
5 9.0891 3.62181 7.08821 0.25
6 0.518887 3.25809 9.5271 0.25
7 4.91308 1.33049 2.92095 0.25
8 8.88908 3.57852 1.57273 0.25
9 9.76977 1.46347 1.63784 0.25
10 8.66877 7.15252 4.59956 0.25
11 9.70455 8.11085 1.25797 0.25
12 7.95429 2.99806 9.85827 0.25
13 3.29287 7.77588 6.10351 0.25
14 5.52398 1.99103 0.113365 0.25
15 8.7207 5.95298 6.1619 0.25
16 8.57308 8.40051 6.82873 0.25
17 5.1979 9.0172 8.54288 0.5
18 2.77263 7.77289 10.1173 0.25
19 7.3055 4.56796 4.70954 0.25
20 9.19701 0.886671 1.54318 0.25
21 0.366595 0.330389 9.64105 0.25
22 4.6862 1.71994 3.09216 0.25
23 4.78323 4.02614 2.19896 0.25
24 2.85168 2.67664 4.14487 0.25
25 7.13744 1.89117 5.9061 0.25
26 5.40017 2.58336 8.34932 0.25
27 1.47741 8.19039 0.153653 0.25
28 9.11799 6.17346 6.32323 0.25
29 3.16369 7.63624 5.61256 0.25
30 1.05923 8.6589 7.80667 0.25
31 0.185784 7.28273 4.90229 0.25
32 9.14649 6.47 1.34357 0.25
33 10.0175 8.47224 1.46196 0.25
34 0.437574 2.8817 0.0373785 0.25
35 7.79563 2.6383 9.50774 0.25
36 8.51206 8.95832 9.59536 0.25
37 4.26287 5.03355 5.55321 0.25
38 7.31209 0.255045 1.26234 0.25
39 6.47622 3.9411 5.09891 0.25
40 8.68203 4.46332 4.54316 0.25
41 7.95573 7.77574 4.53654 0.25
42 6.88292 8.60236 2.06886 0.5
43 0.195208 8.30746 5.95791 0.25
44 3.02767 0.199179 4.79259 0.25
45 7.28546 7.4302 8.6095 0.25
46 0.914662 9.09706 7.61125 0.25
47 4.53169 8.58039 3.28112 0.25
48 3.27212 10.1827 5.05902 0.25
49 4.32953 5.94786 9.33434 0.25
50 10.207 9.45628 3.72481 0.25
51 9.00492 9.03714 1.28622 0.25
52 6.21058 7.36239 0.880758 0.25
53 6.50766 5.58798 1.74027 0.25
54 4.63652 4.96463 8.07098 0.25
55 5.90888 7.26018 6.70088 0.25
56 5.24367 2.06659 1.52534 0.25
57 5.50225 1.56363 0.380059 0.25
58 5.92748 4.36431 0.417051 0.25
59 3.79798 8.02636 9.16401 0.25
60 6.86412 7.35382 8.30133 0.25
61 2.7725 0.0766856 8.80134 0.25
62 9.38718 5.88342 6.66987 0.25
63 0.817267 5.22873 4.46185 0.25
64 10.2002 1.4993 1.41618 0.25
65 6.61087 6.95188 6.45503 0.25
66 4.4695 1.2961 2.97086 0.25
67 8.903 4.94622 9.08322 0.25
68 6.2801 0.38007 10.2517 0.25
69 2.73122 7.79531 3.37995 0.25
70 3.94729 5.94763 4.04538 0.25
71 1.38281 7.89837 2.68989 0.25
72 5.46567 7.00047 3.70618 0.25
73 8.82434 8.43698 7.57083 0.5
74 2.35785 7.71333 3.65033 0.25
75 1.17194 5.92533 0.664171 0.25
76 1.44352 8.07617 9.95965 0.25
77 7.26535 6.99018 8.31953 0.25
78 4.34622 9.91382 1.58658 0.25
79 0.901511 5.08228 9.51549 0.25
80 8.39855 8.63256 9.95895 0.25
81 8.61911 9.56698 7.39937 0.25
82 1.90405 0.706656 2.01226 0.25
83 1.96048 8.40805 2.39046 0.25
84 5.28926 9.47224 5.60581 0.25
85 3.50522 6.6491 1.42999 0.25
86 9.82012 4.15114 1.50017 0.5
87 1.29884 6.0127 8.38191 0.25
88 2.7813 3.87522 8.10455 0.25
89 0.856827 0.175273 9.81221 0.25
90 6.93352 10.216 1.77552 0.5
91 4.84879 8.31795 3.614 0.25
92 9.69073 1.08329 0.887416 0.25
93 8.34018 1.39516 8.36971 0.25
94 1.09435 4.40683 1.96416 0.25
95 7.45201 8.99807 6.27947 0.25
96 7.64901 1.27521 7.10415 0.25
97 5.67108 9.77801 5.57569 0.25
98 10.0298 1.00259 6.1653 0.25
99 4.95177 2.0332 8.31876 0.5
100 5.33657 2.79825 4.98478 0.25
101 5.2847 2.28455 9.84884 0.5
102 4.11695 5.09867 8.53538 0.5
103 6.90435 0.1096 1.02974 0.25
104 0.819552 10.3103 10.3239 0.25
105 2.15999 5.17871 3.24903 0.25
106 5.98881 6.44005 6.50122 0.25
107 5.97366 10.0306 8.79412 0.25
108 1.98467 3.62716 2.22378 0.25
109 7.48732 2.17511 2.38007 0.25
110 5.66858 10.125 5.85793 0.25
111 1.81916 5.53665 0.447678 0.25
112 3.91612 5.33624 5.62513 0.25
113 2.05955 0.125369 4.68318 0.25
114 8.52994 5.95442 0.189999 0.25
115 3.89501 3.64973 2.92841 0.25
116 0.38523 2.25203 4.57266 0.25
117 7.14754 2.55217 2.98692 0.5
118 7.40914 8.1135 2.37017 0.25
119 10.15 2.15478 3.68583 0.25
120 1.58421 5.54015 10.3579 0.25
121 7.5392 2.0398 5.30663 0.5
122 2.19399 4.3932 2.69127 0.25
123 9.42924 8.67229 0.63432 0.25
124 8.38765 6.04862 0.621146 0.25
125 1.52579 9.94909 4.42968 0.25
126 6.22246 7.62372 0.487482 0.25
127 5.8615 7.24993 0.536923 0.25
128 9.20476 9.47226 3.92066 0.25
129 1.71611 5.42961 3.22372 0.25
130 9.21716 9.11023 0.795735 0.25
131 7.0937 1.95126 2.52471 0.25
132 8.68014 4.40893 5.07151 0.25
133 8.33159 9.17607 10.0143 0.25
134 4.88799 4.38145 2.5928 0.25
135 6.01311 9.43687 8.16149 0.5
136 8.46318 9.09695 7.22451 0.25
137 1.30975 9.64262 1.91207 0.25
138 7.31819 4.07883 4.6587 0.25
139 7.18971 4.50178 7.79403 0.5
140 4.13796 8.82434 3.08371 0.25
141 1.80345 1.79754 1.76783 0.25
142 2.79461 2.90839 5.04543 0.25
143 7.50623 1.06827 3.35647 0.25
144 10.1875 6.55551 2.43751 0.25
145 3.54287 7.3789 5.88586 0.25
146 6.86447 9.42644 3.2279 0.25
147 3.93313 5.49115 3.748 0.25
148 3.1479 1.72388 9.97714 0.25
149 10.1492 8.06844 9.39753 0.25
150 4.25355 4.89631 7.80134 0.25
151 6.76921 9.93998 10.1376 0.25
152 4.40826 9.6014 1.14978 0.25
153 5.25851 1.69438 7.64446 0.25
154 5.32163 9.69934 8.29938 0.25
155 4.08355 5.88398 1.46294 0.25
156 0.78613 8.65493 7.3827 0.25
157 4.87346 0.81781 4.21883 0.25
158 9.00244 9.15708 6.73102 0.25
159 3.2295 2.8566 5.29721 0.25
160 2.57456 3.49087 7.91385 0.25
161 3.09493 0.0295087 9.27105 0.25
162 4.11084 2.39907 5.88896 0.5
163 6.39175 9.9859 2.36366 0.25
164 4.83574 8.62439 7.96888 0.25
165 0.426491 2.65528 9.92452 0.25
166 6.44754 4.44668 6.88819 0.25
167 9.09968 10.2692 3.76498 0.25
168 10.2445 7.63585 8.68716 0.25
169 9.72622 6.52172 7.10209 0.25
170 3.50945 10.3151 8.50174 0.25
171 1.09016 8.54287 6.99964 0.25
172 9.46617 5.77116 7.14594 0.25
173 0.901596 2.52158 3.50434 0.25
174 4.7417 2.08763 6.1879 0.25
175 9.37125 3.71874 7.53654 0.25
176 0.803968 5.628 0.481975 0.25
177 9.24384 6.0276 7.56131 0.25
178 7.36595 1.28259 5.21368 0.25
179 2.75733 9.38302 7.64506 0.25
180 7.26873 9.17115 2.63383 0.5
181 0.861522 4.01514 5.65182 0.25
182 8.02417 1.11912 3.416 0.25
183 2.72383 9.7627 4.56514 0.25
184 8.98492 5.22421 9.60503 0.25
185 8.94516 8.71526 6.49275 0.25
186 2.46407 7.69088 9.77607 0.25
187 3.80271 3.92299 0.0800824 0.25
188 5.21528 2.58108 7.84616 0.25
189 9.81817 0.923928 6.57046 0.25
190 2.78429 7.4533 3.72801 0.25
191 4.88869 2.67257 9.23803 0.25
192 8.9659 9.11244 7.26924 0.25
193 5.06944 2.29295 9.08624 0.25
194 3.9766 9.88765 1.20766 0.25
195 5.23407 5.24005 9.73324 0.25
196 5.30373 1.60652 10.3042 0.25
197 8.76518 6.1381 6.98815 0.5
198 7.23399 1.87928 7.17937 0.5
199 6.91324 10.3412 9.9421 0.25
200 7.07871 0.980995 6.51607 0.25
201 6.1908 6.80903 6.72982 0.25
202 3.21137 7.57404 5.11484 0.25
203 4.36375 9.46905 0.138895 0.25
204 0.12598 3.61043 6.07571 0.25
205 4.05972 0.501778 6.55559 0.25
206 0.809545 2.4686 4.47753 0.25
207 1.19856 5.32108 3.8255 0.5
208 4.12663 4.57713 5.85621 0.25
209 6.8879 9.75968 2.82819 0.25
210 4.17556 0.0176558 6.5939 0.25
211 2.02707 4.82336 2.54541 0.25
212 0.521769 3.90998 1.82149 0.5
213 9.12109 4.03247 1.57503 0.25
214 3.52943 5.15914 5.89818 0.25
215 10.042 0.715848 8.95844 0.25
216 5.21152 2.43393 0.742615 0.25
217 0.299717 7.78497 5.97106 0.25
218 2.17327 1.19336 1.57976 0.5
219 0.795743 4.14353 6.12965 0.25
220 6.86491 9.37167 1.99155 0.25
221 9.03516 7.0764 4.2618 0.25
222 9.46848 6.34988 6.68031 0.25
223 5.63494 9.34258 5.27742 0.25
224 9.39274 3.53628 6.70223 0.25
225 8.0012 1.69859 5.76123 0.25
226 6.50903 8.8546 5.50303 0.25
227 6.86719 0.529617 1.37287 0.25
228 5.42103 1.65815 0.845092 0.25
229 2.61222 2.19416 1.23967 0.25
230 7.91921 7.25874 4.37042 0.25
231 7.30949 3.91924 6.86373 0.25
232 6.82814 9.71798 2.35123 0.25
233 7.97318 2.03625 9.15168 0.5
234 3.72541 9.14759 1.4059 0.25
235 0.924055 9.03754 7.11376 0.25
236 1.28069 5.49692 0.447911 0.25
237 7.80126 0.820767 3.70509 0.25
238 0.958273 6.01769 3.93311 0.25
239 0.661243 2.8228 9.52983 0.25
240 1.52444 8.95266 2.2387 0.5
241 1.80773 9.5801 2.01837 0.25
242 3.97756 7.30871 6.15337 0.25
243 1.2292 6.3331 0.432928 0.25
244 1.34729 1.41496 6.52396 0.25
245 6.37267 7.30853 6.68085 0.25
246 1.86436 8.18152 10.2104 0.25
247 2.69405 7.53923 2.9346 0.25
248 5.50969 2.30616 8.73744 0.25
249 6.92408 3.88998 4.87052 0.25
250 7.3825 1.41199 6.68781 0.25
251 1.06457 1.21186 7.26711 0.25
252 7.74195 6.22061 8.78184 0.25
253 4.05656 7.22179 8.92992 0.25
254 1.07251 9.94759 2.22753 0.25
255 1.99987 0.446049 1.53595 0.25
256 4.41021 5.20398 4.39592 0.25
257 0.454754 10.3321 9.98013 0.25
258 4.71326 5.21287 7.16091 0.25
259 1.66464 0.0745867 4.35316 0.25
260 1.2964 10.2137 0.167186 0.25
261 6.8148 6.82108 8.25898 0.25
262 5.62973 7.44217 3.54751 0.25
263 8.25824 8.55517 9.46204 0.25
264 7.63783 9.42611 10.1038 0.5
265 4.6962 3.3788 2.74944 0.25
266 4.36533 2.90138 2.70567 0.25
267 3.21743 8.14029 5.77475 0.25
268 3.76909 7.74409 6.1604 0.25
269 7.67267 8.77805 5.91071 0.25
270 3.54947 8.19079 6.19366 0.25
271 3.88117 9.9184 1.71309 0.25
272 6.38453 6.97173 5.28352 0.25
273 10.041 3.30939 7.73284 0.25
274 3.58714 4.64294 5.90131 0.25
275 10.2316 7.01092 2.54346 0.25
276 8.19008 0.995477 8.68385 0.25
277 2.91201 9.94917 8.17185 0.5
278 4.39754 6.08806 8.4579 0.25
279 2.64994 0.296773 8.42714 0.25
280 3.49633 0.350716 9.44445 0.25
281 4.67264 8.74834 3.72217 0.25
282 4.92507 0.505973 3.41449 0.25
283 9.41768 0.0985885 8.89288 0.25
284 1.57446 5.14325 0.251708 0.25
285 8.73631 6.71613 1.1959 0.25
286 10.1497 1.73394 1.86232 0.25
287 1.56394 8.38745 2.71297 0.25
288 1.25447 5.90924 4.28182 0.25
289 8.95662 1.21132 1.24588 0.25
290 8.8438 3.87519 1.99783 0.25
291 7.63332 2.69029 10.0102 0.25
292 4.06175 9.51548 1.48551 0.25
293 4.9195 2.68136 7.0962 0.5
294 0.15731 6.82772 2.16347 0.25
295 7.00127 0.948351 7.22637 0.5
296 2.68141 2.97907 4.53744 0.25
297 0.246549 8.01198 5.55916 0.25
298 4.23997 9.99052 0.800154 0.25
299 9.29711 4.95794 9.84421 0.25
300 1.7784 9.53802 4.54903 0.25
301 4.54879 8.1904 8.07684 0.25
302 4.99708 5.23309 7.94455 0.25
303 9.10713 5.59017 10.2419 0.5
304 4.07441 4.08349 2.87484 0.25
305 1.60291 8.10136 2.33699 0.25
306 10.3451 8.06546 8.92693 0.25
307 1.2339 10.303 10.0765 0.25
308 8.98275 5.65658 6.47256 0.25
309 8.16294 1.83296 8.4093 0.25
310 6.69486 6.61617 5.98869 0.25
311 1.37849 0.71968 2.11482 0.25
312 8.96687 1.10108 8.7861 0.5
313 1.20587 7.81743 2.1776 0.25
314 0.857549 4.33015 2.41005 0.25
315 2.92508 0.766671 9.01125 0.5
316 6.49838 4.52636 7.40501 0.25
317 6.42957 9.88144 8.58592 0.25
318 10.0699 8.08312 8.51692 0.25
319 10.3391 9.91572 3.70806 0.25
320 1.14778 2.4803 0.0758596 0.25
321 2.16869 1.92667 1.40472 0.25
322 0.659217 7.07385 4.84823 0.25
323 6.51597 10.0873 9.37722 0.5
324 7.81395 2.51553 3.22193 0.25
325 9.28873 3.71084 1.87 0.25
326 2.84694 0.0717932 5.26949 0.25
327 1.58328 8.63679 7.70066 0.25
328 4.44143 3.76547 2.955 0.25
329 8.46984 7.5314 3.96996 0.5
330 9.75164 6.78136 2.49593 0.25
331 9.33313 10.2309 4.222 0.25
332 6.59686 7.43119 0.193082 0.25
333 9.9393 7.37872 8.94777 0.25
334 6.6684 5.37605 1.28623 0.25
335 5.6999 4.80787 0.432051 0.25
336 9.42976 3.54547 1.46962 0.25
337 4.61188 5.71569 8.53683 0.25
338 7.59555 8.56568 2.29841 0.25
339 4.04684 5.80076 8.40886 0.25
340 0.731346 2.4491 10.2445 0.25
341 3.98723 5.15089 4.12687 0.25
342 9.96758 3.22985 7.24196 0.25
343 10.2527 2.44055 4.55937 0.25
344 4.2263 0.89444 3.13869 0.25
345 6.45898 4.49132 10.1723 0.25
346 1.41585 2.02365 7.0225 0.25
347 3.13177 4.0886 0.569159 0.25
348 5.75616 7.68379 0.308868 0.25
349 4.77213 1.72451 7.65731 0.25
350 2.13201 3.5485 7.77704 0.25
351 5.72541 6.54748 3.72007 0.25
352 8.33212 6.52437 1.47565 0.25
353 9.66716 3.11036 6.78454 0.25
354 10.1634 3.8901 2.07408 0.25
355 2.73511 1.24247 2.01567 0.25
356 4.53887 9.15556 0.910284 0.25
357 3.16678 4.81628 6.04572 0.25
358 4.54006 9.58684 0.625851 0.25
359 9.08496 6.35158 0.595651 0.5
360 4.54842 0.321416 6.67137 0.25
361 0.138722 0.71687 6.22338 0.25
362 9.78829 7.66361 8.54829 0.25
363 7.04539 2.39935 2.27066 0.25
364 10.0423 6.91119 2.10609 0.25
365 6.10516 9.03189 5.21591 0.25
366 9.27875 4.18683 2.00805 0.25
367 3.56564 0.465237 8.59072 0.25
368 9.70219 6.14663 7.44271 0.25
369 9.2867 4.27063 4.54527 0.5
370 4.92108 1.74633 6.92051 0.5
371 9.57678 6.39758 1.90141 0.5
372 1.33535 2.23938 3.99373 0.5
373 3.1678 10.1604 8.80497 0.25
374 3.43538 0.195513 8.97261 0.25
375 4.63474 0.524035 3.87025 0.25
376 0.726778 5.69539 4.28886 0.25
377 9.93623 7.87532 8.958 0.25
378 8.98277 8.67373 0.964277 0.25
379 0.27755 4.04855 6.24867 0.25
380 2.10483 2.05991 4.14085 0.25
381 7.17867 5.45923 1.86821 0.5
382 1.96107 7.73926 10.0396 0.25
383 5.32985 8.51219 8.0316 0.25
384 1.7193 6.77776 7.51443 0.25
385 1.13608 6.94619 4.88539 0.25
386 1.47656 5.59572 7.50544 0.25
387 1.31267 6.0602 7.46332 0.25
388 3.05409 1.93014 1.42308 0.25
389 4.93549 2.20218 1.16568 0.25
390 3.5996 3.97809 0.584228 0.25
391 3.71465 0.15894 6.68236 0.25
392 0.592848 5.59141 4.74909 0.25
393 9.06343 8.33891 6.80839 0.25
394 10.2994 0.811701 5.77826 0.25
395 2.0974 4.73302 3.05458 0.25
396 3.05071 0.411951 9.61763 0.25
397 7.83132 2.36003 2.69367 0.25
398 9.72945 4.80485 9.11835 0.25
399 2.44954 9.75193 7.6499 0.25
400 8.37159 2.86515 10.1217 0.25
401 5.77182 6.91936 3.35538 0.25
402 4.24215 5.81552 8.85458 0.25
403 6.03467 5.14597 0.23986 0.25
404 7.91557 2.94148 0.727632 0.25
405 1.55154 5.89475 0.345311 0.25
406 6.49551 9.35046 5.3289 0.25
407 7.01865 6.64741 8.62654 0.25
408 9.76495 8.54264 1.02034 0.25
409 10.3348 6.49297 1.90099 0.25
410 6.02659 1.16702 3.82795 0.25
411 7.61111 8.69614 10.0586 0.25
412 4.60027 2.16143 7.52863 0.25
413 7.53194 2.65546 2.39499 0.25
414 7.04233 5.77505 2.54583 0.25
415 4.60059 1.23176 3.67173 0.5
416 9.83355 0.309157 9.15878 0.25
417 3.85942 7.88191 5.53662 0.5
418 0.719354 1.00173 6.6122 0.5
419 9.24454 0.282013 3.97387 0.25
420 5.17375 8.90115 7.73466 0.25
421 9.31767 6.74546 6.97026 0.25
422 2.25851 7.22044 2.85213 0.25
423 1.81039 5.1392 2.87796 0.25
424 0.296466 0.117936 9.20998 0.25
425 2.24042 9.66214 4.74652 0.25
426 2.95719 1.46682 1.57997 0.25
427 6.94152 1.47185 6.60979 0.25
428 7.20474 9.92078 2.47042 0.25
429 5.35092 9.36847 7.93848 0.25
430 9.33501 9.3732 3.44461 0.25
431 7.43094 0.255464 0.785535 0.25
432 2.37609 7.52109 10.1822 0.25
433 2.97424 2.45224 5.3064 0.25
434 6.11364 9.57702 8.90664 0.25
435 0.3953 2.93127 9.10792 0.25
436 6.61868 4.75435 0.218869 0.25
437 0.973318 5.46205 9.68312 0.25
438 7.56936 0.954216 6.68861 0.25
439 9.62433 10.0399 3.53086 0.5
440 2.19204 2.86065 7.59377 0.5
441 1.17673 3.99918 2.21824 0.25
442 6.45871 6.95357 0.0162212 0.25
443 9.51724 9.7165 4.2221 0.25
444 1.54102 3.67698 2.00635 0.25
445 5.35087 6.66639 3.29801 0.25
446 8.47356 4.91948 4.31208 0.25
447 6.36663 4.96967 10.214 0.25
448 5.42994 1.0149 3.31042 0.5
449 10.3353 1.0122 6.54057 0.25
450 2.40614 0.844255 2.1601 0.25
451 3.25922 3.28662 0.3201 0.25
452 5.91735 4.34546 4.52376 0.25
453 7.44434 3.97855 8.30997 0.25
454 1.50431 5.12466 8.44542 0.25
455 1.12814 6.24691 7.95423 0.25
456 2.59917 1.71882 1.27785 0.25
457 9.38365 8.56271 1.7241 0.5
458 1.62688 5.88212 7.09107 0.25
459 1.14497 0.690124 7.18332 0.25
460 2.04315 6.19637 7.04758 0.25
461 3.57985 5.80935 1.5796 0.25
462 3.41499 6.28821 1.78179 0.25
463 1.58195 10.2985 4.81465 0.25
464 9.92695 1.09199 1.33162 0.25
465 6.59674 5.70541 2.21351 0.25
466 4.49017 5.62101 7.80349 0.5
467 3.43578 5.3704 5.49124 0.25
468 2.38076 1.35698 2.36835 0.25
469 4.42627 4.18316 2.58944 0.25
470 4.97112 3.56243 2.27667 0.25
471 3.1405 10.0457 4.55743 0.25
472 2.17148 2.10628 7.46937 0.25
473 2.53307 7.86945 9.31486 0.25
474 9.18057 3.89044 2.37576 0.25
475 8.12462 7.10575 3.53937 0.25
476 3.86014 6.608 1.78307 0.25
477 10.0622 9.70955 4.1037 0.25
478 8.73625 5.87759 1.3281 0.5
479 6.63898 0.540173 0.883711 0.25
480 2.3693 8.01905 10.1346 0.25
481 4.20711 9.14692 1.2655 0.25
482 6.53743 9.75045 5.57999 0.25
483 6.90986 0.251299 0.244422 0.5
484 9.51182 3.43067 7.14912 0.25
485 7.71047 3.05098 0.298839 0.25
486 4.1661 8.78915 3.60114 0.25
487 3.42832 4.27663 0.16514 0.25
488 7.28028 9.62062 2.03931 0.25
489 9.01272 7.37174 3.40962 0.25
490 2.67062 3.04392 8.16182 0.25
491 8.74701 8.80541 6.95445 0.25
492 8.07942 2.4917 9.83131 0.25
493 9.85177 3.70032 7.44027 0.25
494 8.67039 3.99784 4.80968 0.25
495 9.57132 3.8897 7.07073 0.25
496 4.3841 1.79974 6.35085 0.25
497 2.90488 3.66321 0.358446 0.25
498 8.5712 1.57013 9.21729 0.25
499 3.55313 9.65166 1.3867 0.25
500 3.9541 7.54434 9.30927 0.25
501 2.56632 0.211072 4.85048 0.25
502 9.13371 5.50604 6.86992 0.25
503 6.97174 8.15464 2.62978 0.25
504 6.3579 7.11731 0.504342 0.25
505 7.40003 1.21531 5.9607 0.5
506 5.60909 10.1658 5.32013 0.25
507 7.3059 8.45036 2.68232 0.25
508 5.19888 8.26833 8.75392 0.25
509 1.29757 9.29955 7.30588 0.25
510 5.99591 4.00685 5.29232 0.25
511 4.14185 0.253059 6.99797 0.25
512 1.89262 5.18751 3.67502 0.25
513 1.64678 5.09611 10.1147 0.25
514 3.77547 2.25266 5.17978 0.25
515 1.55139 1.63845 7.61694 0.5
516 6.02281 9.3424 5.92853 0.5
517 8.61726 7.14074 3.34691 0.25
518 2.74529 0.787777 9.76212 0.25
519 2.71816 10.3099 4.41776 0.25
520 5.07214 2.14509 7.60931 0.25
521 1.19849 4.34491 5.43518 0.25
522 2.39925 10.1542 4.72499 0.25
523 2.49146 3.48536 7.40674 0.25
524 8.18516 2.07362 5.00022 0.25
525 2.22254 6.76003 7.61417 0.25
526 1.16011 5.47736 8.31675 0.25
527 6.40346 9.21513 2.67124 0.5
528 6.80033 8.94059 3.20083 0.25
529 4.31237 6.81545 1.63488 0.25
530 1.23977 8.28295 2.00406 0.25
531 0.872413 3.11198 9.21981 0.25
532 1.84068 8.54481 0.193843 0.25
533 8.97698 9.75049 3.57281 0.25
534 8.94251 4.86632 4.3353 0.25
535 7.74714 6.69156 8.89788 0.25
536 4.29755 9.91024 0.314019 0.25
537 8.13228 1.56098 3.65545 0.25
538 7.48886 3.97401 7.27977 0.25
539 10.1692 3.73064 6.73333 0.5
540 6.16026 10.1613 8.3155 0.25
541 9.39845 8.81801 1.10048 0.25
542 7.71182 9.29553 6.03434 0.25
543 9.40767 4.29438 3.81091 0.25
544 2.14443 1.59785 7.22986 0.25
545 10.2446 9.61766 3.28036 0.25
546 0.186187 0.341578 5.85546 0.25
547 9.74805 3.51602 1.89223 0.25
548 9.29445 4.62805 9.02744 0.25
549 1.55366 0.681313 1.66598 0.25
550 9.33048 8.30296 0.987683 0.25
551 2.97013 7.34931 3.29145 0.25
552 9.23279 8.7967 6.9639 0.25
553 5.72459 2.73544 5.30448 0.25
554 9.1696 4.65644 3.98062 0.25
555 5.59367 8.95069 7.90216 0.25
556 1.40595 8.93942 6.92838 0.25
557 2.92567 9.84027 7.44402 0.25
558 2.67646 3.48363 8.39928 0.25
559 9.71185 1.1082 9.00965 0.25
560 3.80209 4.86589 5.54065 0.25
561 1.25744 3.94713 1.75129 0.25
562 5.51896 5.21429 9.37488 0.25
563 5.64616 10.0567 8.414 0.25
564 1.69578 1.57351 6.89765 0.25
565 1.96325 1.09936 2.33547 0.25
566 9.82629 6.02202 6.93596 0.25
567 0.757375 6.13544 0.581972 0.25
568 7.83084 1.317 5.42552 0.25
569 6.78461 3.85001 7.38997 0.5
570 4.61497 4.22897 3.01005 0.25
571 4.83537 3.09569 2.40676 0.25
572 8.57275 1.76347 8.75238 0.25
573 0.836769 6.78603 5.22166 0.25
574 0.391645 0.342398 6.29976 0.25
575 5.64601 3.89581 4.53328 0.25
576 5.3511 2.08012 1.03466 0.25
577 0.361767 7.82069 5.01058 0.25
578 0.926585 5.04401 10.2847 0.5
579 5.07884 5.24159 7.43069 0.25
580 7.78833 7.26142 3.8417 0.25
581 6.98074 6.82475 9.10906 0.25
582 7.37514 4.78994 4.31343 0.25
583 8.51306 5.61944 6.49828 0.25
584 5.00044 6.93255 3.55057 0.25
585 7.09579 0.572775 0.946004 0.25
586 1.85309 2.20285 4.54554 0.25
587 6.06857 10.0355 5.54389 0.25
588 3.00343 1.48848 9.22451 0.25
589 10.2207 3.50861 1.72877 0.25
590 8.9206 6.98198 3.76924 0.25
591 3.78167 2.73819 5.29593 0.25
592 6.7875 5.37464 2.55522 0.25
593 5.38933 9.72384 6.01478 0.25
594 8.47392 5.83065 10.0765 0.25
595 1.88942 2.02187 7.03129 0.25
596 9.8869 8.93458 1.30504 0.25
597 4.45072 0.545121 3.37218 0.25
598 6.62242 7.48431 0.675048 0.25
599 10.1374 1.20482 1.8163 0.25
600 4.19335 9.62136 1.97954 0.25
601 6.79853 10.1817 2.56463 0.25
602 6.54522 8.00063 2.38176 0.25
603 2.39889 6.38769 7.32136 0.25
604 9.13907 0.42482 1.29595 0.25
605 1.59803 7.57241 2.39409 0.25
606 1.89495 1.17617 7.12656 0.25
607 1.72748 2.3209 7.39067 0.25
608 6.22386 6.04881 5.90112 0.5
609 3.32019 6.15933 1.26214 0.25
610 6.31344 4.81966 0.88356 0.5
611 8.19929 8.85288 7.54145 0.25
612 8.56048 0.515265 3.69416 0.5
613 7.62758 3.16413 10.2124 0.25
614 9.57823 6.57627 1.103 0.25
615 6.48776 4.42495 7.9055 0.25
616 1.43388 1.11462 6.96432 0.25
617 2.23798 3.30265 8.20069 0.25
618 8.20659 2.90371 0.327681 0.25
619 1.48755 9.70076 2.40567 0.25
620 6.59166 5.83057 2.72055 0.25
621 6.47696 4.59771 1.56399 0.25
622 7.48347 6.86936 9.30345 0.25
623 8.00564 4.41647 4.58349 0.5
624 4.8121 8.50868 8.88185 0.25
625 5.31953 2.41635 0.258046 0.25
626 2.38391 2.85805 4.18768 0.25
627 7.25902 5.33609 2.62544 0.25
628 0.919088 10.0836 0.402355 0.25
629 7.27887 10.0624 10.1854 0.25
630 6.02835 8.07973 0.577162 0.25
631 8.28009 2.05368 5.48194 0.25
632 3.3426 3.78934 0.244652 0.25
633 3.27186 3.62628 0.721909 0.25
634 4.48525 7.85093 8.79052 0.5
635 9.40818 6.23611 7.08799 0.25
636 8.77701 4.99721 9.94239 0.25
637 6.54858 9.00104 5.02559 0.25
638 2.14044 10.089 5.3728 0.5
639 7.10466 2.86918 2.26399 0.25
640 7.50172 1.81735 7.83614 0.25
641 4.37165 5.36898 3.92538 0.25
642 3.54858 7.89839 6.56694 0.25
643 3.2815 1.87084 9.50112 0.25
644 6.15771 9.73831 4.89469 0.5
645 3.58601 3.51265 10.3319 0.25
646 8.11664 6.88339 4.00047 0.25
647 6.54351 6.58648 5.50089 0.25
648 7.10286 1.47107 7.79712 0.25
649 4.58869 6.05781 8.92594 0.25
650 7.68955 1.33969 3.70932 0.25
651 4.5827 8.52002 8.41766 0.25
652 1.60454 5.59045 8.37319 0.25
653 0.903694 4.51366 5.80175 0.25
654 1.56528 6.38971 7.19004 0.25
655 0.0302609 3.63494 1.30839 0.25
656 4.71579 4.95585 7.60676 0.25
657 8.6651 9.38176 6.92858 0.25
658 7.46919 3.80318 7.76573 0.25
659 8.87539 10.3416 4.18179 0.25
660 1.86666 6.12163 7.82966 0.5
661 2.44489 7.32991 3.30459 0.25
662 7.94994 9.06046 5.66484 0.25
663 3.64031 0.666813 9.08715 0.25
664 0.87222 2.7806 0.284511 0.25
665 8.39674 6.41281 0.959448 0.25
666 5.64824 9.63114 8.75717 0.25
667 7.8355 2.54354 0.376754 0.25
668 7.00983 1.59945 5.45946 0.25
669 3.24845 7.72288 9.47427 0.5
670 0.355726 2.46513 9.39958 0.25
671 0.79182 6.32693 4.64456 0.5
672 5.63496 6.43523 5.63744 0.25
673 4.55268 9.47001 1.59513 0.25
674 7.35314 4.31122 4.22415 0.25
675 8.18983 9.35901 7.54878 0.25
676 4.85661 1.86541 0.511439 0.5
677 9.56689 2.96897 7.23934 0.25
678 9.92997 0.310542 6.277 0.5
679 1.87726 2.25637 7.86304 0.25
680 2.71231 7.08057 2.94121 0.25
681 8.23079 9.50902 7.07581 0.25
682 3.15418 8.04608 5.30119 0.25
683 0.397937 3.13656 9.94798 0.25
684 1.5819 8.51737 7.16249 0.25
685 9.23383 0.283534 3.44988 0.25
686 6.84187 9.74688 5.19274 0.25
687 9.60263 3.28581 7.6423 0.25
688 5.4901 7.96195 0.556315 0.25
689 2.43613 2.3991 4.00867 0.25
690 9.87074 7.63092 9.38311 0.25
691 0.657413 8.11575 5.78142 0.25
692 1.28227 4.29229 5.95023 0.25
693 9.70223 2.08039 3.85824 0.25
694 3.40325 3.96624 10.1354 0.25
695 8.16895 1.62365 5.21633 0.25
696 5.20154 1.17847 4.02299 0.25
697 1.29041 8.84112 7.38913 0.25
698 8.79515 5.69337 0.583026 0.25
699 3.38796 7.23822 5.46315 0.25
700 5.2116 7.76775 0.205244 0.25
701 3.32349 4.90821 5.58185 0.25
702 6.10755 3.87923 4.35711 0.25
703 2.07333 0.538546 2.43039 0.25
704 7.01654 4.20906 8.45088 0.25
705 3.73984 5.67279 8.82526 0.25
706 7.51923 1.35567 7.61843 0.25
707 6.39107 6.58302 4.98304 0.25
708 5.35664 7.15329 3.20189 0.25
709 1.84567 4.33482 2.03191 0.5
710 1.37213 4.70704 5.72874 0.25
711 6.87332 4.56962 7.12185 0.25
712 4.35826 8.36798 3.75087 0.25
713 1.69751 4.95008 3.31447 0.25
714 1.90521 10.007 4.6998 0.25
715 3.02518 3.41179 8.07825 0.25
716 9.47727 9.23316 1.22649 0.25
717 3.01343 5.16062 5.24773 0.25
718 5.9459 3.37044 5.00632 0.5
719 5.37895 3.15347 5.36422 0.25
720 5.59448 1.43096 3.96103 0.25
721 3.96289 8.07201 6.44648 0.25
722 3.77326 5.85955 4.49307 0.25
723 5.69219 6.78091 6.5892 0.25
724 9.5082 0.582 8.96904 0.25
725 4.35721 0.287819 6.20221 0.25
726 4.08874 5.57974 4.29564 0.25
727 3.64009 5.4961 4.12503 0.25
728 2.1808 7.89963 0.396509 0.5
729 7.62224 1.95365 6.02756 0.25
730 8.23224 1.46419 8.80161 0.25
731 1.41056 5.44145 9.88774 0.25
732 3.53639 7.39001 6.4108 0.25
733 9.93854 2.58674 3.78372 0.25
734 8.60253 6.86883 4.2001 0.25
735 3.4414 2.41244 5.45086 0.25
736 8.6853 6.4035 6.26731 0.25
737 0.717073 4.379 5.33272 0.25
738 4.97044 8.30267 8.34579 0.25
739 3.01404 4.0796 0.117294 0.25
740 8.8219 6.54476 1.68424 0.25
741 6.67448 2.17976 2.50658 0.25
742 5.50268 2.06813 0.54979 0.25
743 9.99431 2.78292 4.25739 0.25
744 2.57676 2.28394 4.7272 0.5
745 0.44509 4.31881 5.79875 0.25
746 6.84406 4.8873 1.38495 0.25
747 7.58996 2.2503 9.7921 0.25
748 7.13152 9.90605 9.79443 0.25
749 6.69595 4.07618 8.10155 0.25
750 4.46031 2.27354 6.55638 0.25
751 2.06126 2.45119 3.73693 0.25
752 9.98597 2.3212 4.14723 0.25
753 1.07731 3.01769 9.97141 0.5
754 8.05098 2.17251 5.96371 0.25
755 7.95542 2.78771 10.3039 0.25
756 5.40589 1.62011 1.3333 0.25
757 0.314403 2.57044 3.94924 0.5
758 1.50847 9.77948 4.94234 0.25
759 5.01536 2.78434 8.24292 0.25
760 5.12572 1.68269 3.23452 0.25
761 5.61893 6.48737 6.15969 0.25
762 0.583662 3.69722 6.32861 0.25
763 6.63771 4.45913 4.51293 0.5
764 5.21866 6.51006 3.73672 0.25
765 7.47788 6.59167 8.47358 0.25
766 1.29234 5.1897 3.02631 0.25
767 7.44536 3.0618 2.56355 0.25
768 5.13525 2.59115 5.7588 0.5
769 1.17426 2.21692 10.0107 0.25
770 6.04289 7.00815 5.97486 0.5
771 5.42959 7.45284 0.547176 0.25
772 7.14093 9.20349 5.58814 0.5
773 6.05333 4.2317 10.2898 0.25
774 6.83793 8.59792 2.82692 0.25
775 10.336 7.63928 9.20303 0.25
776 4.50729 9.12487 0.419739 0.25
777 1.12968 8.26577 2.44619 0.25
778 3.12293 0.261283 8.56125 0.25
779 10.2808 7.66251 9.67631 0.25
780 5.19569 4.83167 9.44468 0.25
781 5.14192 7.40246 3.6038 0.25
782 9.44666 6.10034 1.24328 0.25
783 4.52543 9.05366 3.32094 0.25
784 3.07966 3.59254 10.2615 0.25
785 8.65065 9.16087 7.65933 0.25
786 6.25852 6.21781 5.21871 0.25
787 5.79393 6.16383 5.29239 0.25
788 5.23709 1.63724 3.74684 0.25
789 6.80702 4.83262 1.87183 0.25
790 4.98806 2.33439 6.47958 0.25
791 8.31778 6.08836 6.37025 0.25
792 4.2137 3.54007 2.23538 0.5
793 10.2496 0.259703 8.86992 0.25
794 1.96285 1.54823 2.15382 0.25
795 1.3771 9.08216 7.81409 0.25
796 2.14056 9.93677 4.06 0.5
797 9.82365 9.32639 3.37037 0.25
798 9.42416 4.98419 4.2572 0.25
799 3.74971 5.72519 0.795227 0.5
800 9.78362 1.55395 1.10118 0.25
801 6.03757 0.118089 9.88419 0.25
802 6.11533 7.33775 0.10633 0.25
803 9.35608 5.02111 9.35618 0.25
804 4.25137 5.10435 7.34945 0.25
805 8.95719 4.16703 3.89425 0.25
806 2.43605 9.39378 8.01073 0.25
807 3.04618 5.25716 5.74411 0.25
808 8.60062 4.95128 9.52303 0.25
809 1.30335 5.02713 9.6636 0.25
810 7.27813 1.84668 6.41918 0.25
811 9.46699 4.56908 9.48091 0.25
812 3.74846 6.23737 1.39789 0.25
813 1.58535 3.81148 2.48829 0.25
814 1.09516 9.87939 10.329 0.25
815 3.75167 5.18938 4.88905 0.5
816 6.53234 0.342893 9.87057 0.25
817 3.84676 9.3606 0.713045 0.5
818 8.8127 6.22382 10.2549 0.25
819 4.22061 6.33502 1.60596 0.25
820 7.52067 4.44899 8.48059 0.25
821 7.97368 9.12768 7.18824 0.25
822 5.19708 3.98133 2.44873 0.25
823 1.97171 9.13092 7.41284 0.5
824 7.29699 4.34272 7.05844 0.25
825 8.22915 9.02364 6.44904 0.5
826 6.9141 3.12435 2.6038 0.25
827 9.0585 6.60418 6.53659 0.25
828 9.93039 3.46261 1.34688 0.25
829 0.85095 7.8521 4.93916 0.25
830 4.019 6.61688 1.32619 0.25
831 2.57734 7.34739 2.49263 0.25
832 4.01424 5.56681 9.19688 0.25
833 6.5124 6.52806 6.46033 0.25
834 8.56862 4.07493 4.24472 0.25
835 1.1954 1.55673 6.96033 0.25
836 6.52391 5.22341 2.16063 0.25
837 3.6536 7.18538 9.12827 0.25
838 2.57982 9.51572 7.2365 0.25
839 0.254866 1.94182 3.55756 0.25
840 9.70994 4.65592 4.0314 0.25
841 5.71101 4.79224 10.0189 0.5
842 7.36988 6.46054 8.96515 0.25
843 1.04541 9.51782 2.34545 0.25
844 6.4758 5.10321 1.65724 0.25
845 8.68365 4.51513 4.08159 0.25
846 1.10395 5.60176 4.61878 0.25
847 7.86596 2.25216 10.2417 0.25
848 3.39777 1.10243 9.68474 0.5
849 6.95592 4.98662 2.34185 0.25
850 4.07645 8.3737 3.34285 0.25
851 3.7379 6.4243 0.954092 0.25
852 5.58567 0.893475 4.00981 0.25
853 9.06176 9.8948 4.0652 0.25
854 2.85803 3.19904 7.6478 0.25
855 3.90203 6.11009 1.88704 0.25
856 9.1084 3.23319 7.42306 0.25
857 6.51834 3.72146 4.62368 0.25
858 8.29017 7.40743 4.73468 0.25
859 9.44635 1.21983 1.31821 0.25
860 2.92464 9.94887 4.13715 0.25
861 4.15698 9.15144 1.76859 0.25
862 7.5616 1.37583 8.43363 0.5
863 0.174514 2.85379 9.5868 0.25
864 3.87623 3.14985 2.73736 0.25
865 0.33074 6.85645 5.14688 0.25
866 2.8001 1.30703 10.0578 0.25
867 2.80452 8.32068 9.29096 0.25
868 9.56702 0.751456 1.26837 0.25
869 0.167157 8.28252 5.18897 0.25
870 7.35298 6.93821 8.81058 0.25
871 6.65368 2.72507 2.47409 0.25
872 8.20215 1.6477 7.62155 0.5
873 5.37303 9.77708 5.1793 0.25
874 6.78899 9.3823 4.90731 0.25
875 3.48376 7.88816 4.89628 0.25
876 4.1916 6.21062 1.13247 0.25
877 0.683886 1.99312 4.34509 0.25
878 10.2994 0.392666 9.3286 0.25
879 0.58778 7.53378 4.65539 0.25
880 5.66758 4.13164 4.94939 0.25
881 3.8949 6.41473 8.98841 0.5
882 9.81347 0.827433 5.75737 0.25
883 5.74012 3.0689 5.65798 0.25
884 2.54411 1.94461 2.03492 0.5
885 8.86889 10.2256 3.3673 0.25
886 9.72804 9.0641 0.84127 0.25
887 1.29007 6.55783 7.58602 0.25
888 2.28833 0.444138 1.92923 0.25
889 4.82821 5.29285 8.42196 0.25
890 0.486094 3.80138 5.82405 0.25
891 4.23081 3.33095 3.00935 0.25
892 6.44757 8.37207 2.6401 0.25
893 8.09164 3.23801 10.3291 0.25
894 1.63618 8.52584 10.1297 0.25
895 9.19199 3.11056 6.91266 0.25
896 9.63724 1.00242 1.72012 0.25
897 3.96918 7.57384 6.58523 0.25
898 0.987674 5.07945 5.20544 0.5
899 0.189604 0.535567 6.71379 0.25
900 8.48729 6.7698 3.71508 0.25
901 0.624426 8.1845 5.26789 0.25
902 5.01079 1.75093 1.18913 0.25
903 7.73651 7.66399 4.11237 0.25
904 0.967269 5.97523 10.2588 0.5
905 9.21045 0.869662 1.04541 0.25
906 9.72334 9.43134 3.84389 0.25
907 4.78942 3.88666 2.68484 0.25