ITEM: TIMESTEP
690000
ITEM: NUMBER OF ATOMS
1000
ITEM: BOX BOUNDS xy xz yz pp pp pp
0.0000000000000000e+00 1.0357442000000001e+01 0.0000000000000000e+00
0.0000000000000000e+00 1.0357442000000001e+01 0.0000000000000000e+00
0.0000000000000000e+00 1.0357442000000001e+01 0.0000000000000000e+00
ITEM: ATOMS id x y z radius
1 1.29839 4.42854 2.75017 0.5
2 2.08258 7.76266 2.55957 0.5
3 5.13259 2.30021 0.973432 0.25
4 0.74863 2.56501 4.62267 0.25
5 10.0588 3.63035 7.97506 0.25
6 0.442884 3.44853 9.90008 0.25
7 4.73467 1.00543 2.81353 0.25
8 8.89144 3.63098 1.52852 0.25
9 9.95366 1.1079 1.53803 0.25
10 8.0704 7.76074 3.89394 0.25
11 9.68849 8.58585 2.00165 0.25
12 7.73894 2.9616 9.86702 0.25
13 3.56262 7.49328 5.66948 0.25
14 4.83231 1.90419 10.3447 0.25
15 8.82078 5.82182 6.29783 0.25
16 8.8948 8.72628 6.43348 0.25
17 5.40323 8.95918 8.51302 0.5
18 3.01633 7.827 9.98516 0.25
19 6.86736 4.61435 5.18496 0.25
20 9.31198 0.885553 0.974918 0.25
21 0.700218 10.1736 9.38884 0.25
22 4.39284 1.37693 2.80686 0.25
23 4.45984 3.1392 2.67152 0.25
24 2.77745 2.59938 4.23414 0.25
25 7.30884 1.9082 5.89476 0.25
26 5.5087 2.62454 8.27748 0.25
27 1.94771 8.20227 0.287977 0.25
28 8.73182 6.10792 6.70011 0.25
29 4.0902 7.53834 5.77115 0.25
30 0.713525 9.00821 7.07148 0.25
31 0.568441 6.90708 4.83964 0.25
32 8.89211 6.7257 1.47858 0.25
33 9.8062 8.28341 1.61455 0.25
34 0.684782 2.78076 0.110699 0.25
35 7.60096 2.63781 9.48941 0.25
36 8.05201 8.30908 9.80923 0.25
37 4.15399 5.36786 5.68986 0.25
38 7.14293 0.420753 1.0911 0.25
39 5.80815 3.95916 4.63345 0.25
40 8.68514 4.34366 4.48865 0.25
41 7.86315 6.98164 4.05009 0.25
42 6.65789 8.45447 2.24253 0.5
43 0.108329 8.52405 5.48783 0.25
44 2.90331 0.000231764 5.42916 0.25
45 6.85848 6.40475 8.32856 0.25
46 1.00401 8.59983 6.92409 0.25
47 4.29585 8.25314 3.50516 0.25
48 2.85053 9.85758 5.56587 0.25
49 4.55404 5.97811 9.32219 0.25
50 10.1787 9.58532 3.74402 0.25
51 9.60811 9.37938 1.0871 0.25
52 6.28331 7.57678 0.168011 0.25
53 6.33148 5.39903 1.87854 0.25
54 4.97638 4.95323 8.11496 0.25
55 6.04492 6.55681 6.75936 0.25
56 5.34082 1.56764 1.34573 0.25
57 4.68079 2.17169 0.370792 0.25
58 5.99131 4.04051 0.693666 0.25
59 4.03721 7.95622 9.07547 0.25
60 6.45904 6.68748 8.17263 0.25
61 3.10196 10.2616 8.77536 0.25
62 9.02384 6.5084 6.68337 0.25
63 0.715804 5.56073 4.91755 0.25
64 9.95481 1.54675 1.78612 0.25
65 5.84758 7.13983 6.18695 0.25
66 4.29228 0.8989 2.75512 0.25
67 8.82298 5.07746 9.15849 0.25
68 6.19787 10.3391 10.1088 0.25
69 2.62127 7.75511 3.08947 0.25
70 3.64923 5.99177 4.14103 0.25
71 1.35178 7.88292 2.43679 0.25
72 5.22321 6.75437 3.25036 0.25
73 9.15865 8.85037 7.19437 0.5
74 2.20709 7.86227 3.26158 0.25
75 0.750938 5.67387 0.578751 0.25
76 1.7298 8.03288 10.1898 0.25
77 6.68992 6.81449 8.57665 0.25
78 4.2282 8.88405 1.23264 0.25
79 1.00726 5.2534 9.72177 0.25
80 8.31272 8.56236 9.45143 0.25
81 8.18115 9.23183 7.36314 0.25
82 1.9787 0.653523 1.95216 0.25
83 1.97073 8.37824 2.22957 0.25
84 5.37217 9.96697 5.58363 0.25
85 4.17236 5.84305 1.2196 0.25
86 9.7793 4.26651 1.74394 0.5
87 1.12654 5.5833 8.362 0.25
88 2.58523 4.00536 8.43868 0.25
89 0.831063 9.81019 9.76162 0.25
90 6.89119 10.2528 1.5657 0.5
91 3.94512 8.33538 3.17961 0.25
92 9.18195 1.33082 1.70509 0.25
93 8.36498 1.28746 8.39559 0.25
94 1.04325 4.41354 2.06977 0.25
95 7.43947 8.62569 5.96876 0.25
96 7.8008 1.34068 7.20382 0.25
97 5.72893 10.0136 5.30319 0.25
98 10.2956 0.371058 6.39805 0.25
99 5.12873 1.98305 8.2561 0.5
100 5.71091 2.86284 5.63773 0.25
101 5.14513 2.0112 9.68871 0.5
102 4.30531 5.10899 8.60485 0.5
103 6.37317 0.134673 0.971285 0.25
104 1.14063 0.0196255 10.2758 0.25
105 2.0112 5.25161 3.0962 0.25
106 6.62829 6.7694 6.25065 0.25
107 6.17124 9.91382 8.48289 0.25
108 1.78849 3.53179 2.2311 0.25
109 7.08501 2.31836 3.12212 0.25
110 5.89854 0.12814 5.25672 0.25
111 1.54331 5.98184 0.444459 0.25
112 3.71571 5.4243 5.84822 0.25
113 2.17201 0.138812 4.42773 0.25
114 8.33334 6.34255 0.274986 0.25
115 4.10416 4.16076 3.25647 0.25
116 0.141741 1.96609 3.63521 0.25
117 7.3915 2.2754 2.36345 0.5
118 7.05786 8.16112 2.77713 0.25
119 10.1415 2.67748 4.4558 0.25
120 1.44827 5.63835 0.0521617 0.25
121 7.73833 2.10527 5.33407 0.5
122 2.06432 4.35601 2.62708 0.25
123 9.02979 8.9544 1.52404 0.25
124 8.20585 6.32838 0.766702 0.25
125 2.19649 9.74145 4.0479 0.25
126 6.24348 7.26661 0.53752 0.25
127 6.0489 7.69314 0.569352 0.25
128 9.24561 9.56765 4.06997 0.25
129 1.53659 5.45875 3.22274 0.25
130 9.16867 9.16928 1.06578 0.25
131 7.50837 2.56271 3.05624 0.25
132 8.69189 4.15391 4.91054 0.25
133 7.86207 8.72748 9.52626 0.25
134 3.9791 3.16008 2.46336 0.25
135 6.15072 9.29119 7.94177 0.5
136 8.39804 8.91909 7.06526 0.25
137 1.3333 9.74888 2.14291 0.25
138 6.82407 4.11527 5.1119 0.25
139 7.13601 4.60043 7.9064 0.5
140 4.69032 8.24989 3.77895 0.25
141 2.59307 1.52632 1.18252 0.25
142 2.87939 2.98623 5.0277 0.25
143 7.50583 1.07978 3.5743 0.25
144 9.86762 6.17117 2.86757 0.25
145 3.74151 7.33544 6.07427 0.25
146 6.79554 9.41836 2.96255 0.25
147 3.67315 5.54086 3.93829 0.25
148 2.90538 1.64459 9.89809 0.25
149 9.58043 7.67907 9.0583 0.25
150 4.51181 4.83654 7.88601 0.25
151 6.98601 9.80786 9.87344 0.25
152 4.10625 9.21501 0.882419 0.25
153 5.34168 1.73972 7.52213 0.25
154 5.49843 9.57188 8.04111 0.25
155 3.33575 6.28956 1.53716 0.25
156 0.69206 8.45215 7.24618 0.25
157 4.59011 1.10725 4.18405 0.25
158 8.60272 9.44823 6.4526 0.25
159 3.32354 2.89518 5.32543 0.25
160 2.58249 3.57789 8.22375 0.25
161 3.41186 0.0369114 9.24048 0.25
162 4.03459 2.279 5.92339 0.5
163 6.4056 9.98646 1.96324 0.25
164 4.92717 8.4433 8.11976 0.25
165 0.280545 2.72957 10.1364 0.25
166 7.00183 4.56356 6.76899 0.25
167 8.9143 10.2197 3.90526 0.25
168 10.3282 7.70662 9.37774 0.25
169 9.22324 6.58188 7.53714 0.25
170 3.13601 0.290368 7.97838 0.25
171 0.954319 8.41408 7.72136 0.25
172 9.4401 6.74623 6.75241 0.25
173 0.838229 1.59382 4.20714 0.25
174 4.69542 2.15194 6.18624 0.25
175 10.0425 3.1236 7.82036 0.25
176 0.384099 5.76447 0.271796 0.25
177 9.83135 6.5452 7.02591 0.25
178 7.49701 1.40616 5.22651 0.25
179 2.37421 9.3826 7.89981 0.25
180 7.29061 9.20331 2.40406 0.5
181 0.843611 3.95033 5.72409 0.25
182 7.99038 1.10559 3.4781 0.25
183 2.84935 9.84016 4.76038 0.25
184 8.65706 5.32544 9.56229 0.25
185 8.80994 9.12672 6.1684 0.25
186 2.37057 7.37768 9.73796 0.25
187 3.16941 3.59009 10.0919 0.25
188 5.27451 2.54393 7.78001 0.25
189 0.199162 0.0211054 6.16019 0.25
190 2.53962 7.72287 3.57161 0.25
191 5.32583 2.60638 9.14856 0.25
192 8.63652 9.35879 7.2837 0.25
193 5.16724 2.25821 8.97788 0.25
194 4.53987 9.29596 1.15572 0.25
195 5.53201 5.30365 9.7365 0.25
196 4.85465 2.42284 10.306 0.25
197 9.46314 5.95944 6.75729 0.5
198 7.29599 1.95135 7.16481 0.5
199 6.97966 10.2734 9.67734 0.25
200 7.34198 0.988403 6.59386 0.25
201 6.2202 6.91539 6.49817 0.25
202 4.42483 7.75059 6.10208 0.25
203 4.42689 9.8553 0.09588 0.25
204 0.107807 3.60524 6.26134 0.25
205 4.26018 0.0844346 6.4776 0.25
206 0.586232 1.79299 3.81404 0.25
207 1.12747 5.25956 3.86048 0.5
208 4.34446 4.93202 5.7367 0.25
209 6.93745 9.75242 2.57322 0.25
210 4.14409 0.303296 6.89918 0.25
211 1.84138 4.78637 2.46417 0.25
212 0.332627 4.03493 2.13376 0.5
213 9.0752 4.07471 1.5143 0.25
214 3.58374 4.92627 6.00897 0.25
215 10.019 0.494026 8.71822 0.25
216 5.25685 1.36747 0.505478 0.25
217 0.17639 8.02345 5.67511 0.25
218 2.49389 1.14052 1.86844 0.5
219 0.738114 4.13236 6.13341 0.25
220 6.74563 9.15821 1.95666 0.25
221 8.49214 7.93163 3.65289 0.25
222 8.86685 6.36036 7.14124 0.25
223 5.55093 9.50853 5.4214 0.25
224 10.0523 3.90555 7.53294 0.25
225 8.17843 1.73904 5.84352 0.25
226 6.26739 9.08222 5.7236 0.25
227 6.68713 0.522143 1.03581 0.25
228 4.78002 1.98748 0.80364 0.25
229 2.91021 2.19658 1.7311 0.25
230 8.14022 7.00437 4.4689 0.25
231 7.85619 4.05707 7.07474 0.25
232 6.81836 9.67519 2.11145 0.25
233 8.03543 2.03309 9.23947 0.5
234 3.99214 9.75797 1.51011 0.25
235 1.16463 8.3194 7.31078 0.25
236 1.23656 5.59656 0.471959 0.25
237 7.83104 0.840726 3.87416 0.25
238 1.13409 5.82299 4.31377 0.25
239 0.295144 3.00012 9.73137 0.25
240 1.53349 8.9771 2.22318 0.5
241 1.78121 9.64429 1.95191 0.25
242 3.41575 7.33862 6.41391 0.25
243 0.919819 6.51904 0.723444 0.25
244 1.51584 1.02349 6.7517 0.25
245 5.69994 6.80285 6.54789 0.25
246 2.19593 8.08851 10.2099 0.25
247 2.60428 7.28664 2.86608 0.25
248 5.56744 2.41111 8.7422 0.25
249 6.40793 4.41826 5.29587 0.25
250 7.49874 1.41904 6.7327 0.25
251 1.07529 1.74021 6.91062 0.25
252 7.4298 7.18145 9.15684 0.25
253 4.22684 7.16625 8.76271 0.25
254 1.36135 10.0002 2.60648 0.25
255 2.42608 0.369204 2.0094 0.25
256 4.21591 5.28071 4.57354 0.25
257 0.922032 10.3109 9.82647 0.25
258 4.37042 5.22981 7.12695 0.25
259 2.06004 10.2576 3.97835 0.25
260 1.08922 9.56819 10.1134 0.25
261 6.56493 7.2025 8.26944 0.25
262 4.79986 7.07676 3.36339 0.25
263 8.51333 8.40999 9.84468 0.25
264 7.67369 9.37098 9.90204 0.5
265 4.55291 3.94316 2.53446 0.25
266 4.82688 4.27508 2.82951 0.25
267 3.85172 7.95395 5.52145 0.25
268 3.30883 7.60838 6.03766 0.25
269 7.6625 8.92505 5.67234 0.25
270 3.30752 7.93888 5.64944 0.25
271 4.44445 9.09822 1.64885 0.25
272 6.01526 6.45179 4.87279 0.25
273 9.60239 3.2918 6.6515 0.25
274 3.93209 4.64626 5.8547 0.25
275 0.0738141 6.66072 2.40699 0.25
276 8.23572 0.936923 8.72802 0.25
277 2.9084 9.95287 7.98021 0.5
278 4.52259 6.07525 8.34477 0.25
279 2.58742 10.2701 8.61724 0.25
280 3.56271 0.468546 9.24028 0.25
281 3.89453 8.42863 3.69516 0.25
282 4.7838 0.574748 3.55093 0.25
283 9.59435 0.356471 9.4176 0.25
284 1.50406 5.22157 0.281211 0.25
285 8.39484 6.7074 1.49303 0.25
286 0.0196301 1.31765 1.59338 0.25
287 1.62418 8.30113 2.5402 0.25
288 1.1485 5.44059 4.61559 0.25
289 9.22726 0.501531 1.28112 0.25
290 8.72373 3.97253 1.90557 0.25
291 7.44023 2.61403 9.96473 0.25
292 4.12478 9.33394 1.33096 0.25
293 4.83116 2.74243 7.06142 0.5
294 10.2693 6.22058 2.60672 0.25
295 7.13524 1.04048 7.23801 0.5
296 2.75884 3.01632 4.54409 0.25
297 0.262412 8.14135 5.18472 0.25
298 4.62866 9.21562 0.666193 0.25
299 8.93502 5.14408 9.93377 0.25
300 1.99392 9.51013 4.47208 0.25
301 4.39856 8.5313 8.31916 0.25
302 5.10491 5.13928 7.63561 0.25
303 8.56332 5.63586 10.2925 0.5
304 3.87139 3.71158 3.18354 0.25
305 1.51715 8.17471 2.10005 0.25
306 9.86173 7.47035 9.42559 0.25
307 1.2777 10.0236 9.96323 0.25
308 9.04783 6.21582 6.24735 0.25
309 8.28624 1.80543 8.51235 0.25
310 6.07923 7.13028 5.6626 0.25
311 1.55271 0.685455 1.77767 0.25
312 9.00756 1.02803 8.7105 0.5
313 1.04828 7.95461 2.04316 0.25
314 0.923575 3.84248 2.57408 0.25
315 2.78315 0.45423 9.12946 0.5
316 6.71523 4.67681 7.25483 0.25
317 6.58424 9.70275 8.46317 0.25
318 10.049 7.75433 9.79458 0.25
319 10.3332 10.0799 3.96329 0.25
320 0.986033 2.08849 9.98776 0.25
321 2.92158 1.69427 1.50806 0.25
322 1.01584 6.95529 4.61243 0.25
323 6.55271 9.91557 9.16601 0.5
324 7.14243 1.61287 2.59212 0.25
325 9.18177 3.77597 1.86901 0.25
326 2.45641 10.172 5.62808 0.25
327 0.967923 9.26629 7.45239 0.25
328 4.11351 3.87416 2.82722 0.25
329 8.57746 7.09935 3.7891 0.5
330 10.0837 6.81427 2.10552 0.25
331 9.10011 0.241165 4.14092 0.25
332 6.71027 7.24901 0.802678 0.25
333 10.2232 8.07875 9.06482 0.25
334 6.53007 5.22714 1.46787 0.25
335 5.58542 4.31579 0.613188 0.25
336 9.3705 3.67401 1.51663 0.25
337 4.69504 5.65335 8.52329 0.25
338 7.36859 8.43894 2.51686 0.25
339 4.18624 5.79959 8.45866 0.25
340 0.574709 2.31928 10.1728 0.25
341 3.79505 5.1956 4.27299 0.25
342 9.57808 3.3461 7.16524 0.25
343 10.041 1.92115 3.89495 0.25
344 4.09583 0.547209 3.04589 0.25
345 6.25411 4.23016 10.3289 0.25
346 2.2037 1.61899 7.0496 0.25
347 3.63219 3.55789 0.443066 0.25
348 5.79062 7.32889 0.820979 0.25
349 4.84764 1.69947 7.63106 0.25
350 3.00434 3.39298 8.14429 0.25
351 5.51395 6.54439 3.63873 0.25
352 8.04246 6.44247 1.64435 0.25
353 9.59145 3.8333 7.35658 0.25
354 9.93068 3.77159 2.27783 0.25
355 1.91697 1.60606 2.11559 0.25
356 3.87065 9.53537 0.623392 0.25
357 3.4997 4.3819 5.94586 0.25
358 4.27169 9.46341 0.432628 0.25
359 8.69157 6.84457 0.767193 0.5
360 4.48541 10.2948 6.8867 0.25
361 0.151226 0.789875 6.2658 0.25
362 10.2234 8.21419 9.61132 0.25
363 7.1054 2.7606 2.8483 0.25
364 10.1682 6.36511 2.12004 0.25
365 5.8983 9.18446 5.43229 0.25
366 9.09394 4.25458 2.04516 0.25
367 3.21678 0.57225 8.49778 0.25
368 9.61419 6.82733 7.27647 0.25
369 9.10254 4.24281 3.95998 0.5
370 4.91594 1.76888 6.88938 0.5
371 9.45797 6.46956 1.87319 0.5
372 1.26515 2.1656 4.10725 0.5
373 3.4061 0.0679479 8.35111 0.25
374 3.39382 0.259621 8.80127 0.25
375 4.47764 0.632838 3.93488 0.25
376 0.689645 5.60058 4.4123 0.25
377 9.87118 7.94517 9.34888 0.25
378 9.3207 9.37726 1.49827 0.25
379 0.229481 4.13068 6.21863 0.25
380 2.02275 1.99324 4.26535 0.25
381 7.04314 5.36971 1.98314 0.5
382 2.08203 7.61293 10.1024 0.25
383 5.33752 8.39417 7.98599 0.25
384 1.73377 6.73239 7.34451 0.25
385 1.40054 6.8745 4.93377 0.25
386 1.46833 5.54068 7.60488 0.25
387 1.22028 6.00264 7.47487 0.25
388 2.63152 2.21711 2.17834 0.25
389 5.56513 1.52227 0.874671 0.25
390 3.3801 3.24886 0.114742 0.25
391 4.19778 0.558712 6.42514 0.25
392 1.20981 5.61775 5.08144 0.25
393 9.12142 9.22415 6.50311 0.25
394 10.0557 0.782131 6.42369 0.25
395 1.99274 4.77257 2.93462 0.25
396 3.28453 0.369172 9.63579 0.25
397 6.91968 1.94294 2.87935 0.25
398 9.57457 4.8707 9.47608 0.25
399 2.41839 9.56402 7.44937 0.25
400 8.1887 2.97952 10.0716 0.25
401 5.17632 6.88506 3.71386 0.25
402 4.35713 5.8344 8.86687 0.25
403 5.61157 4.78093 0.514695 0.25
404 7.95461 2.66152 0.686445 0.25
405 1.08559 6.01155 0.762234 0.25
406 6.38097 9.30016 5.24208 0.25
407 7.0156 7.19546 8.43598 0.25
408 9.39236 8.5735 1.59133 0.25
409 9.82646 6.07373 2.3974 0.25
410 5.72469 1.28665 3.83037 0.25
411 8.42538 9.20281 9.94987 0.25
412 4.61213 2.06324 7.55472 0.25
413 6.77529 2.37334 2.69938 0.25
414 6.86751 5.77201 2.56717 0.25
415 4.36841 1.12845 3.4481 0.5
416 10.0507 0.536214 9.25948 0.25
417 3.77723 8.04143 6.23738 0.5
418 0.784276 1.08539 6.65331 0.5
419 9.13799 0.276815 3.62833 0.25
420 5.09837 8.81206 7.79513 0.25
421 9.21252 6.09989 7.4188 0.25
422 1.88692 7.48316 3.19575 0.25
423 1.64073 5.12801 2.82188 0.25
424 0.21284 10.244 9.39035 0.25
425 2.46182 9.68375 4.49711 0.25
426 2.35603 1.75313 2.25189 0.25
427 7.08881 1.43221 6.53921 0.25
428 7.22454 9.90387 2.1525 0.25
429 5.0418 9.2846 7.96023 0.25
430 9.80968 9.38238 3.4992 0.25
431 6.85395 0.0987833 0.870573 0.25
432 2.81355 7.37529 9.9391 0.25
433 2.92214 2.61643 5.3406 0.25
434 6.18176 9.40941 8.6437 0.25
435 0.0571541 3.39081 9.55214 0.25
436 6.47028 4.5882 0.263494 0.25
437 0.723562 5.69202 9.81578 0.25
438 7.78066 1.02518 6.76086 0.25
439 9.64345 10.1386 3.71453 0.5
440 2.48049 2.86114 7.85831 0.5
441 1.07737 3.91635 2.13285 0.25
442 6.73862 7.76033 1.02373 0.25
443 9.57526 9.80086 4.37029 0.25
444 1.37456 3.61927 1.93175 0.25
445 5.66775 6.96916 3.50908 0.25
446 8.49999 4.66049 4.74735 0.25
447 6.14345 4.97288 0.40657 0.25
448 5.28926 0.978875 3.29308 0.5
449 0.445589 0.410408 6.39003 0.25
450 1.74029 1.09081 1.97502 0.25
451 2.86496 3.86005 0.505327 0.25
452 6.12885 3.78767 4.19809 0.25
453 7.23753 4.08251 8.38722 0.25
454 1.5815 5.78629 8.46223 0.25
455 1.09524 6.25033 7.85401 0.25
456 2.75645 1.80312 1.9593 0.25
457 10.0746 9.03462 1.48865 0.5
458 1.65059 5.92751 7.2254 0.25
459 0.955963 1.41011 7.27308 0.25
460 2.19906 6.02167 7.1973 0.25
461 3.33609 5.88678 1.18626 0.25
462 3.73529 5.8877 0.906924 0.25
463 1.72544 -0.011787 4.35725 0.25
464 9.5965 1.43371 1.47457 0.25
465 6.41663 5.59713 2.34202 0.25
466 4.57033 5.56285 7.79934 0.5
467 3.34859 5.12375 5.63509 0.25
468 1.86539 1.46694 1.64357 0.25
469 4.04753 3.31026 2.95093 0.25
470 4.76654 3.50676 2.46733 0.25
471 3.14702 9.96714 5.16003 0.25
472 1.91004 2.38486 7.50963 0.25
473 2.74071 7.6408 9.53275 0.25
474 8.92051 3.84027 2.33772 0.25
475 8.98218 7.06269 4.48141 0.25
476 4.04211 6.28803 1.07512 0.25
477 10.0249 9.78577 4.23214 0.25
478 8.61849 6.02038 1.37732 0.5
479 6.52295 0.349807 0.602531 0.25
480 2.51969 7.81826 9.97602 0.25
481 3.76355 9.51328 1.07476 0.25
482 6.55659 9.74213 5.12491 0.25
483 6.89404 0.0367429 0.0696289 0.5
484 9.84499 3.49102 7.58165 0.25
485 7.691 2.8921 0.3172 0.25
486 4.36202 8.64727 3.79941 0.25
487 3.65217 3.65411 10.2992 0.25
488 7.11393 9.54857 1.75947 0.25
489 9.23576 7.45969 3.53893 0.25
490 2.28653 3.57948 7.81874 0.25
491 8.70855 9.04716 6.69169 0.25
492 7.92127 2.51083 9.85309 0.25
493 10.0035 3.13553 7.31842 0.25
494 8.6068 3.86805 4.48186 0.25
495 10.3077 3.47488 7.54404 0.25
496 4.35981 1.87488 6.45774 0.25
497 3.3322 3.85071 0.647104 0.25
498 8.57408 1.44592 9.22351 0.25
499 4.46895 9.58633 1.57053 0.25
500 4.18374 7.5007 9.14482 0.25
501 2.47767 0.0721237 5.18162 0.25
502 9.36509 6.58227 6.31353 0.25
503 6.5784 8.47738 2.94191 0.25
504 6.53748 7.66726 0.567876 0.25
505 7.58685 1.27015 5.98474 0.5
506 5.70403 10.2065 4.8827 0.25
507 7.07093 8.6496 2.83859 0.25
508 5.03909 8.37028 8.93432 0.25
509 1.49053 8.66408 7.14718 0.25
510 5.90277 3.47141 4.46976 0.25
511 4.59794 0.395139 6.63035 0.25
512 1.85382 5.25306 3.58306 0.25
513 1.42739 5.21392 10.0876 0.25
514 3.62299 2.16413 5.25399 0.25
515 1.67525 2.13814 6.90412 0.5
516 6.16592 9.82064 5.7517 0.5
517 9.2572 7.25541 4.07634 0.25
518 2.90794 0.641531 9.88385 0.25
519 2.92723 10.3164 4.92686 0.25
520 5.06836 2.17788 7.53036 0.25
521 1.21827 4.28968 5.48158 0.25
522 2.49569 10.2251 4.72898 0.25
523 2.69773 3.19896 8.53611 0.25
524 8.48217 2.1447 5.05766 0.25
525 2.26753 6.47937 7.3616 0.25
526 1.46712 5.36338 8.655 0.25
527 6.24867 9.48005 2.45 0.5
528 7.07796 9.08952 3.10862 0.25
529 4.23322 6.68819 1.32981 0.25
530 1.13447 8.39652 1.83957 0.25
531 0.543752 3.29163 9.43052 0.25
532 2.35562 8.44373 0.120623 0.25
533 8.93987 9.78476 3.71858 0.25
534 9.00793 4.53969 4.68508 0.25
535 7.39672 6.72596 8.95012 0.25
536 4.76202 9.53773 0.333982 0.25
537 8.22596 1.55266 3.61662 0.25
538 7.77697 4.14471 7.61901 0.25
539 10.1747 3.75568 6.85603 0.5
540 6.39176 9.96961 8.03428 0.25
541 9.48076 8.97534 1.35173 0.25
542 7.43562 9.08794 6.08405 0.25
543 9.11256 4.95844 3.9843 0.25
544 1.68078 1.93661 7.64508 0.25
545 10.3803 9.98835 3.48383 0.25
546 10.1692 1.15359 6.08239 0.25
547 9.64672 3.58254 1.94574 0.25
548 9.15338 4.75457 9.23201 0.25
549 2.2035 0.527378 1.55278 0.25
550 9.41806 8.97257 1.82392 0.25
551 2.8692 7.38183 3.32312 0.25
552 8.85833 9.47552 6.85834 0.25
553 5.31314 3.20716 5.53485 0.25
554 8.82897 4.82121 4.35597 0.25
555 5.47159 9.20815 7.75971 0.25
556 1.44637 8.58745 7.61868 0.25
557 2.81289 9.28992 7.59869 0.25
558 2.49142 4.00116 7.96653 0.25
559 9.74061 0.899507 8.5491 0.25
560 3.85817 5.01727 5.61454 0.25
561 1.06039 4.0352 1.71554 0.25
562 5.53238 4.89836 9.47443 0.25
563 5.851 9.95185 8.07216 0.25
564 1.84044 1.41316 6.83572 0.25
565 1.90662 0.943284 1.51886 0.25
566 9.07602 6.8363 7.10542 0.25
567 0.596906 6.11064 0.649496 0.25
568 8.03431 1.47359 5.41008 0.25
569 7.08605 3.94033 7.26283 0.5
570 3.78087 3.58348 2.6581 0.25
571 5.07515 3.92744 2.58614 0.25
572 8.6927 1.70624 8.82515 0.25
573 0.953234 7.01753 5.07654 0.25
574 0.332569 1.21202 6.03954 0.25
575 6.67378 3.69168 4.8079 0.25
576 5.16937 1.73463 0.897593 0.25
577 0.540235 7.85741 4.84197 0.25
578 0.776879 5.19224 0.0339113 0.5
579 4.89748 5.23187 7.17054 0.25
580 8.59636 6.77942 4.48589 0.25
581 7.40782 6.96292 8.18518 0.25
582 7.19538 4.36906 4.85785 0.25
583 9.25716 5.77035 6.0492 0.25
584 5.5932 6.98565 3.02762 0.25
585 6.99491 0.501398 0.616872 0.25
586 1.77218 2.17854 4.65451 0.25
587 6.20007 10.1009 5.08224 0.25
588 2.70601 1.22818 9.18727 0.25
589 10.1474 3.51787 1.89488 0.25
590 8.88401 7.75952 3.89199 0.25
591 3.77305 2.63093 5.31001 0.25
592 6.65293 5.35727 2.63792 0.25
593 5.66375 0.0452713 5.68282 0.25
594 8.86794 6.31482 0.266214 0.25
595 2.12629 1.92884 7.45004 0.25
596 9.66516 8.49597 1.16481 0.25
597 4.37301 0.365938 3.44434 0.25
598 6.67647 7.25553 0.319539 0.25
599 10.0717 1.45186 1.24271 0.25
600 3.91952 8.96703 1.65614 0.25
601 6.73233 10.1073 2.32274 0.25
602 6.16268 8.2691 2.76062 0.25
603 2.3354 6.37213 6.87186 0.25
604 8.8631 1.12758 0.910255 0.25
605 1.50301 7.68997 1.99509 0.25
606 1.79042 1.55265 7.35009 0.25
607 2.39525 2.35343 7.283 0.25
608 6.80446 6.85661 5.53877 0.5
609 3.74762 5.60397 1.34247 0.25
610 6.18646 4.6219 1.07463 0.5
611 8.51285 8.46087 7.30564 0.25
612 8.48222 0.448514 3.75888 0.5
613 7.38718 2.99017 10.2736 0.25
614 9.26329 6.95049 1.24751 0.25
615 6.5054 4.35674 7.56269 0.25
616 1.40245 1.38938 7.07532 0.25
617 2.75009 3.55934 7.73228 0.25
618 8.18207 2.89325 0.283519 0.25
619 1.6946 9.61982 2.45016 0.25
620 6.44706 5.79327 2.80339 0.25
621 6.56316 4.4045 1.67005 0.25
622 7.65055 6.69836 8.51491 0.25
623 7.88921 4.22356 4.6097 0.5
624 4.80341 8.62188 8.54957 0.25
625 5.10345 1.50727 0.0312153 0.25
626 2.32629 2.82327 4.3019 0.25
627 7.13089 5.3584 2.70633 0.25
628 1.2516 9.94019 0.152633 0.25
629 7.41135 10.066 9.9297 0.25
630 5.91922 6.92815 0.624558 0.25
631 8.42636 2.15757 5.60035 0.25
632 3.25243 3.75622 0.175172 0.25
633 3.11862 3.40701 0.505202 0.25
634 4.59739 7.84519 8.58052 0.5
635 9.32515 6.495 7.1098 0.25
636 8.45551 5.03937 9.94427 0.25
637 6.19788 8.84998 5.25814 0.25
638 1.89825 9.96224 5.03341 0.5
639 6.81384 2.8424 2.42232 0.25
640 7.48045 1.8507 7.92143 0.25
641 4.14562 5.43938 4.07097 0.25
642 3.0089 7.50588 5.719 0.25
643 2.89901 1.72755 9.38768 0.25
644 5.94827 9.45033 4.78763 0.5
645 2.85402 3.94206 -0.00119607 0.25
646 8.50696 7.32132 4.47371 0.25
647 6.127 6.79859 5.27701 0.25
648 7.12412 1.54731 7.84662 0.25
649 4.77644 6.05132 8.82753 0.25
650 7.76345 1.38216 3.7677 0.25
651 4.75407 8.91422 8.15495 0.25
652 1.20515 6.11417 8.32428 0.25
653 0.874215 4.46379 5.75516 0.25
654 1.41977 6.38228 7.25039 0.25
655 10.3075 3.80994 1.51051 0.25
656 4.65792 4.90105 7.39386 0.25
657 8.31975 9.33772 6.87437 0.25
658 7.50592 3.8879 7.94267 0.25
659 8.66146 10.253 4.33089 0.25
660 1.83223 6.20491 7.87938 0.5
661 2.36354 7.41956 3.28137 0.25
662 7.68584 9.41538 5.83437 0.25
663 3.45583 0.758921 8.92178 0.25
664 1.03711 2.388 0.0184874 0.25
665 8.04546 6.61839 1.17755 0.25
666 5.74181 9.59443 8.44056 0.25
667 7.9199 2.41289 0.268207 0.25
668 7.13045 1.59988 5.49178 0.25
669 3.45815 7.68642 9.37897 0.5
670 10.2846 2.68115 9.84644 0.25
671 0.983215 6.24546 4.83923 0.5
672 6.59415 6.15168 5.6158 0.25
673 3.73091 9.01485 1.18355 0.25
674 7.12149 3.9119 4.70614 0.25
675 8.09244 8.70476 7.38347 0.25
676 5.44639 2.11519 0.363638 0.5
677 9.3479 3.44799 7.58075 0.25
678 10.2932 0.56425 5.71689 0.5
679 2.01707 2.78802 7.26693 0.25
680 2.58873 6.94706 3.24186 0.25
681 7.88027 9.03832 7.01452 0.25
682 4.3008 8.03653 5.74569 0.25
683 0.499556 3.14515 10.2341 0.25
684 1.08372 8.87791 7.84375 0.25
685 8.90146 10.2268 3.45528 0.25
686 6.6907 9.40711 4.83561 0.25
687 9.60671 3.02077 7.57032 0.25
688 5.42452 7.49231 0.0584659 0.25
689 2.37327 2.33699 4.09794 0.25
690 9.76238 8.07877 8.87105 0.25
691 0.590898 8.22987 5.54375 0.25
692 1.2259 4.14402 5.91039 0.25
693 9.66865 2.65856 4.40464 0.25
694 3.35263 4.04135 10.1694 0.25
695 8.39702 1.76226 5.35215 0.25
696 4.87946 1.36492 3.89149 0.25
697 1.08002 8.7863 7.41131 0.25
698 8.56348 6.04817 0.60289 0.25
699 4.15285 7.41353 6.30528 0.25
700 5.43172 7.14991 0.461575 0.25
701 3.51861 4.67785 5.55813 0.25
702 6.43274 3.96384 5.19133 0.25
703 1.67974 0.733866 2.28991 0.25
704 6.77055 4.13603 8.34156 0.25
705 3.92584 5.66767 8.86965 0.25
706 7.56096 1.43028 7.65556 0.25
707 6.3617 6.06916 4.85716 0.25
708 5.30226 7.24239 3.37936 0.25
709 1.76627 4.20131 1.9277 0.5
710 1.37342 4.61997 5.81583 0.25
711 7.21942 4.72196 7.19418 0.25
712 4.10973 8.72688 3.36329 0.25
713 1.66319 4.91895 3.27122 0.25
714 2.10844 10.0374 4.40388 0.25
715 2.16414 3.79963 8.27765 0.25
716 9.54783 8.88613 0.884668 0.25
717 3.10878 4.76916 5.34113 0.25
718 6.01876 3.33185 5.15121 0.5
719 5.86174 2.55215 5.28285 0.25
720 5.3415 1.51782 3.74937 0.25
721 3.00687 7.92439 6.08709 0.25
722 3.4695 5.92805 4.65604 0.25
723 6.44855 6.4216 6.51056 0.25
724 9.63302 0.69908 9.00014 0.25
725 3.94986 10.1995 6.85932 0.25
726 3.89094 5.66633 4.43296 0.25
727 3.40851 5.51712 4.33922 0.25
728 2.61658 7.73399 0.33746 0.5
729 7.75236 1.99446 6.06926 0.25
730 8.25416 1.43415 8.86266 0.25
731 1.25183 5.60152 9.90759 0.25
732 3.26935 7.1328 5.92538 0.25
733 9.87465 2.27719 4.67424 0.25
734 8.48189 7.71198 4.12542 0.25
735 3.34963 2.45446 5.55235 0.25
736 8.80215 5.61112 6.72686 0.25
737 0.745653 4.25667 5.35691 0.25
738 5.14708 8.27254 8.47498 0.25
739 3.63402 4.04708 0.265755 0.25
740 8.70671 6.57486 1.91541 0.25
741 7.56921 2.95414 2.73318 0.25
742 4.89063 1.67203 0.458498 0.25
743 9.85715 1.85557 4.31013 0.25
744 2.44388 2.33314 4.85458 0.5
745 0.430474 4.13308 5.73895 0.25
746 6.85593 4.81603 1.55294 0.25
747 7.5231 2.18182 9.76793 0.25
748 7.30665 9.94548 9.47388 0.25
749 6.6068 4.05833 7.85174 0.25
750 4.47115 2.34359 6.58228 0.25
751 1.94356 2.25594 3.84227 0.25
752 9.87589 2.30003 4.1807 0.25
753 0.986077 2.79666 9.76076 0.5
754 8.18512 2.20609 6.03079 0.25
755 7.8433 2.74673 10.3092 0.25
756 4.99295 1.89385 1.28409 0.25
757 0.21269 2.04797 4.41377 0.5
758 1.74271 9.88687 4.21285 0.25
759 5.05148 2.6847 8.18524 0.25
760 4.82094 1.49629 2.95498 0.25
761 6.71176 6.29575 6.08278 0.25
762 0.510029 3.85501 6.50112 0.25
763 6.56008 4.34502 4.50101 0.5
764 5.75546 6.55615 3.246 0.25
765 7.00943 7.08544 8.91082 0.25
766 1.22845 5.06587 3.14575 0.25
767 6.7012 2.41378 2.19493 0.25
768 5.12146 2.48587 5.66036 0.5
769 0.66763 2.09947 9.67625 0.25
770 5.96214 6.46772 5.9524 0.5
771 5.50994 7.63579 0.524074 0.25
772 7.0167 9.16648 5.45908 0.5
773 5.86963 4.03882 0.245547 0.25
774 6.66987 8.96266 2.83934 0.25
775 10.0454 7.62179 8.99335 0.25
776 3.99193 9.90631 0.299533 0.25
777 1.13359 8.33197 2.34722 0.25
778 2.95477 0.200535 8.4314 0.25
779 9.76057 7.60952 8.59265 0.25
780 5.14751 4.98335 9.74118 0.25
781 5.13594 7.11978 2.94266 0.25
782 9.24134 6.46006 1.13993 0.25
783 4.23997 8.19372 4.01333 0.25
784 3.13907 4.22522 0.290418 0.25
785 8.51909 8.89814 7.52371 0.25
786 6.47731 6.59426 4.91807 0.25
787 6.7274 6.20472 5.16491 0.25
788 4.91172 1.59601 3.47144 0.25
789 6.7685 4.69752 2.08431 0.25
790 5.02565 2.38979 6.42463 0.25
791 9.10542 5.41919 6.3486 0.25
792 4.642 3.63042 3.17812 0.5
793 10.3498 0.175876 9.00959 0.25
794 2.13081 1.37399 1.25835 0.25
795 1.23709 9.06402 6.98773 0.25
796 2.80933 10.1529 4.09818 0.5
797 10.0943 9.66685 3.26784 0.25
798 9.36612 4.76023 4.36675 0.25
799 3.26285 5.66582 1.87482 0.5
800 9.64426 1.19793 1.91193 0.25
801 6.12208 10.1971 9.67344 0.25
802 6.26878 7.52482 0.964451 0.25
803 9.17232 5.19868 9.47524 0.25
804 4.19609 5.00139 7.49444 0.25
805 8.67504 4.86136 3.83371 0.25
806 2.1393 9.82881 7.71587 0.25
807 3.09713 4.7908 5.88466 0.25
808 8.35963 5.00261 9.39637 0.25
809 1.50667 5.25668 9.60778 0.25
810 7.40138 1.83748 6.37927 0.25
811 9.23312 4.76696 9.75273 0.25
812 3.74605 6.06879 1.40323 0.25
813 1.39706 3.76369 2.44783 0.25
814 0.877093 9.69764 0.243553 0.25
815 3.63108 5.2411 5.01028 0.5
816 6.55349 0.106934 9.75568 0.25
817 4.41646 9.93348 0.888897 0.5
818 9.01357 6.21715 0.7348 0.25
819 3.76041 6.54075 1.40494 0.25
820 6.9948 4.47745 8.64215 0.25
821 8.12414 8.55051 6.93511 0.25
822 4.43405 3.22373 2.16696 0.25
823 1.68823 9.26158 7.54256 0.5
824 7.62436 4.44318 7.30417 0.25
825 8.10456 8.89526 6.2832 0.5
826 7.02305 2.81027 1.98864 0.25
827 8.84876 5.84213 7.12642 0.25
828 9.88824 3.53222 1.50069 0.25
829 0.997377 7.79773 4.86451 0.25
830 4.15566 6.25781 1.54006 0.25
831 2.20077 7.12568 2.93932 0.25
832 4.23771 5.48818 9.25356 0.25
833 6.36782 7.1046 6.07496 0.25
834 8.42692 4.12861 4.11122 0.25
835 1.4014 1.50709 6.59184 0.25
836 6.476 5.08788 2.28903 0.25
837 3.87386 7.13489 9.05323 0.25
838 2.40795 9.05006 7.5355 0.25
839 0.316759 2.78006 4.45441 0.25
840 8.99692 4.86184 3.48983 0.25
841 5.75782 4.72006 10.1805 0.5
842 7.48015 7.13292 8.64761 0.25
843 1.22065 9.51568 2.61461 0.25
844 6.44147 4.89618 1.80657 0.25
845 8.40799 4.62515 4.2173 0.25
846 0.726041 5.15975 4.57557 0.25
847 7.60684 2.33007 10.2415 0.25
848 3.36767 1.12 9.55022 0.5
849 6.84106 4.93644 2.54456 0.25
850 4.63776 8.64606 3.3852 0.25
851 3.99535 5.81549 1.73518 0.25
852 5.32776 1.10084 4.06387 0.25
853 9.16327 10.1076 4.27997 0.25
854 2.22131 3.29672 8.42747 0.25
855 3.52973 6.30815 1.03656 0.25
856 9.60431 3.37727 7.99081 0.25
857 6.05172 4.15864 5.03271 0.25
858 7.84362 7.3279 3.75236 0.25
859 9.44418 0.933993 1.48691 0.25
860 3.31874 10.0558 4.69741 0.25
861 3.64554 9.38789 1.56482 0.25
862 7.62623 1.34158 8.45997 0.5
863 0.0316187 3.17409 10.0376 0.25
864 4.58763 4.38273 3.27722 0.25
865 0.600969 6.78916 5.33217 0.25
866 2.80348 1.16747 10.0414 0.25
867 2.78321 8.0036 9.16832 0.25
868 9.2493 1.315 1.19382 0.25
869 0.486963 8.40575 4.77791 0.25
870 7.16895 6.74304 8.54403 0.25
871 7.27814 2.97649 2.36923 0.25
872 8.21764 1.66972 7.73012 0.5
873 5.33074 9.90812 5.08427 0.25
874 6.5298 8.96184 4.91982 0.25
875 4.36094 7.76366 6.63485 0.25
876 3.75341 6.28222 1.83163 0.25
877 0.553816 2.27849 3.77282 0.25
878 0.475604 0.214931 9.15363 0.25
879 0.800225 7.37387 4.73876 0.25
880 6.44 3.49335 4.44875 0.25
881 4.0991 6.44854 8.80073 0.5
882 9.78438 0.380285 6.24053 0.25
883 5.46137 2.83958 5.20215 0.25
884 2.21343 2.06754 1.59395 0.5
885 8.48118 10.0337 3.79293 0.25
886 9.21084 8.67933 1.12376 0.25
887 1.33003 6.68398 7.67675 0.25
888 2.16945 0.61138 2.36955 0.25
889 5.02239 5.3134 8.43083 0.25
890 0.481926 3.7481 6.03649 0.25
891 4.3665 4.29517 2.886 0.25
892 6.19702 8.79025 2.75423 0.25
893 7.85568 3.23103 10.3414 0.25
894 1.91486 8.46557 10.1877 0.25
895 9.62841 3.86724 7.81526 0.25
896 9.692 1.16984 1.09746 0.25
897 2.93502 7.39979 6.22074 0.25
898 0.96946 4.94256 5.21832 0.5
899 0.608684 0.752891 6.06162 0.25
900 8.91593 7.5234 4.31907 0.25
901 0.776711 8.20328 5.14084 0.25
902 5.51215 1.97699 1.11745 0.25
903 8.23305 6.60375 4.19785 0.25
904 0.944139 6.1568 0.016363 0.5
905 8.94875 0.962578 1.35381 0.25
906 9.72341 9.47192 3.9929 0.25