ITEM: TIMESTEP
960000
ITEM: NUMBER OF ATOMS
1000
ITEM: BOX BOUNDS xy xz yz pp pp pp
0.0000000000000000e+00 1.0357442000000001e+01 0.0000000000000000e+00
0.0000000000000000e+00 1.0357442000000001e+01 0.0000000000000000e+00
0.0000000000000000e+00 1.0357442000000001e+01 0.0000000000000000e+00
ITEM: ATOMS id x y z radius
1 1.2101 4.44366 2.90088 0.5
2 1.9629 7.80151 2.73668 0.5
3 4.78118 1.84079 0.941438 0.25
4 0.401655 2.33298 4.55947 0.25
5 9.34725 2.94792 6.84633 0.25
6 0.347482 3.12857 9.7152 0.25
7 4.39647 1.27772 3.12632 0.25
8 9.34045 4.38781 2.05037 0.25
9 9.88728 1.3221 1.24996 0.25
10 8.41634 6.50209 3.60233 0.25
11 9.60041 8.46361 0.517901 0.25
12 7.91426 2.76029 9.72204 0.25
13 3.48048 7.61633 5.74065 0.25
14 5.39623 2.12422 0.0371735 0.25
15 8.65041 5.65861 6.44619 0.25
16 8.82682 8.53122 6.62887 0.25
17 5.17974 9.12716 8.18472 0.5
18 2.87156 7.58842 -0.00488351 0.25
19 7.1027 4.41997 4.96057 0.25
20 9.13828 0.927097 0.972508 0.25
21 0.564824 10.3105 9.36323 0.25
22 4.32006 1.55716 3.51566 0.25
23 4.94761 4.12833 2.62142 0.25
24 2.38005 2.92059 4.2124 0.25
25 7.28501 1.97438 5.84157 0.25
26 5.33673 2.64001 8.31557 0.25
27 1.85289 8.21605 10.3393 0.25
28 9.0272 5.98224 6.41537 0.25
29 3.79345 7.8163 5.38359 0.25
30 0.929487 8.8902 8.0052 0.25
31 1.31157 7.36683 4.86162 0.25
32 9.06876 6.63053 1.20409 0.25
33 9.55028 8.96887 0.395316 0.25
34 1.13526 2.83599 9.89794 0.25
35 8.42927 2.66897 9.6162 0.25
36 8.43473 8.88089 9.84264 0.25
37 3.26827 5.77155 5.45487 0.25
38 7.01123 0.531143 0.805014 0.25
39 6.37026 4.08075 5.33247 0.25
40 8.52908 4.33612 4.60173 0.25
41 7.93578 7.1141 3.93871 0.25
42 7.12728 8.61188 1.95647 0.5
43 0.471967 8.52806 6.03761 0.25
44 3.0656 0.0599686 5.12509 0.25
45 7.69831 6.39934 8.88402 0.25
46 0.855479 8.93303 7.50513 0.25
47 4.58738 8.50753 3.48628 0.25
48 3.19983 9.96872 5.26953 0.25
49 4.78114 5.99671 8.94195 0.25
50 10.1923 9.1754 3.56185 0.25
51 10.0112 8.83653 1.53544 0.25
52 5.95711 7.77713 10.3047 0.25
53 6.81988 5.4782 1.6468 0.25
54 4.86544 4.86768 8.18281 0.25
55 5.65202 6.95337 6.66438 0.25
56 5.53386 1.89253 1.0794 0.25
57 5.25991 1.65733 0.32118 0.25
58 6.40795 4.23795 0.345693 0.25
59 3.84229 7.70858 8.75569 0.25
60 7.87238 6.72044 9.18884 0.25
61 3.48492 0.00447814 9.12327 0.25
62 9.36595 5.92227 6.81988 0.25
63 0.507406 5.71834 4.89107 0.25
64 9.94881 1.57476 1.65363 0.25
65 6.49704 7.14516 6.43928 0.25
66 3.98492 1.22319 3.32519 0.25
67 9.10512 4.81833 8.88493 0.25
68 6.15256 0.156296 10.3026 0.25
69 2.31551 7.17828 2.97956 0.25
70 4.10339 5.64323 3.92109 0.25
71 1.02065 8.38538 2.45878 0.25
72 5.46681 6.71997 3.35162 0.25
73 9.05803 8.50937 7.36149 0.5
74 2.67447 7.55211 2.96717 0.25
75 1.10977 5.80955 0.743994 0.25
76 2.01947 7.92652 0.298204 0.25
77 7.7353 6.86982 8.75878 0.25
78 4.18068 8.86077 1.3458 0.25
79 0.789707 5.51266 9.65109 0.25
80 8.11471 8.54509 10.0389 0.25
81 8.33706 9.3018 7.55858 0.25
82 1.96942 0.429621 1.65732 0.25
83 1.84208 8.53082 2.57294 0.25
84 5.43114 9.37504 5.36097 0.25
85 4.40601 6.19209 1.54607 0.25
86 9.8126 3.45452 2.11037 0.5
87 1.88329 5.59935 8.45577 0.25
88 2.76724 4.14009 8.04605 0.25
89 0.403526 10.2421 9.84311 0.25
90 6.9206 10.261 1.78997 0.5
91 4.12857 8.61514 3.25148 0.25
92 9.31225 1.03581 1.80144 0.25
93 8.07886 0.94031 8.30824 0.25
94 0.908914 4.15844 2.18165 0.25
95 7.95091 9.20002 5.7512 0.25
96 7.8546 1.0619 6.86739 0.25
97 5.78384 9.65889 5.3573 0.25
98 0.0745641 0.429995 5.98321 0.25
99 5.05827 1.97079 8.21296 0.5
100 5.06871 3.34195 5.69138 0.25
101 5.00507 2.39909 9.75825 0.5
102 4.21505 5.18227 8.40832 0.5
103 7.37203 0.168359 0.747135 0.25
104 1.22515 9.64696e-05 9.87498 0.25
105 1.47604 4.86712 3.45511 0.25
106 6.21208 6.34085 6.38508 0.25
107 5.80974 10.1635 8.43103 0.25
108 2.09879 4.02962 2.35008 0.25
109 7.5163 2.43784 3.05253 0.25
110 5.82565 9.92149 5.73619 0.25
111 1.71291 5.60996 0.0970446 0.25
112 3.20756 5.25325 5.51678 0.25
113 1.72412 0.077978 4.49927 0.25
114 8.59633 6.02772 0.0296441 0.25
115 3.81272 3.40423 2.78129 0.25
116 0.265272 1.97031 3.36979 0.25
117 7.29915 2.15943 2.4111 0.5
118 7.6411 8.09566 2.38177 0.25
119 9.85285 2.43757 4.36852 0.25
120 1.53923 5.66613 9.95375 0.25
121 7.52906 1.9525 5.15578 0.5
122 1.82262 4.82645 2.62467 0.25
123 9.25232 8.53516 1.2728 0.25
124 8.448 6.01422 0.52497 0.25
125 1.87508 9.65734 4.37601 0.25
126 6.11143 7.4203 0.249428 0.25
127 6.13166 7.89528 0.395824 0.25
128 9.42227 9.86494 3.49273 0.25
129 1.06869 5.0009 3.32834 0.25
130 9.47715 8.85591 1.61929 0.25
131 7.87761 2.51836 2.74731 0.25
132 8.23423 4.69913 4.41731 0.25
133 8.03791 9.0372 10.1526 0.25
134 5.0824 4.07507 3.07712 0.25
135 6.03478 9.44595 8.38051 0.5
136 8.43176 8.91052 7.25626 0.25
137 1.71662 9.7018 1.96744 0.25
138 6.99188 4.0943 4.63492 0.25
139 7.4027 3.95852 7.96474 0.5
140 4.21466 8.25297 3.6368 0.25
141 2.68263 1.19814 1.75969 0.25
142 2.30688 2.92238 5.12457 0.25
143 7.12153 1.73065 3.34684 0.25
144 9.92694 6.78401 2.35387 0.25
145 3.94194 7.83766 5.87105 0.25
146 6.91642 9.01927 3.00281 0.25
147 3.6654 5.79041 3.86756 0.25
148 2.607 1.66583 10.087 0.25
149 9.95218 7.98669 9.37749 0.25
150 4.56769 4.91789 7.8024 0.25
151 6.88655 9.93444 9.95652 0.25
152 4.10828 9.28581 1.12134 0.25
153 5.10382 1.70986 7.47518 0.25
154 5.65943 9.58463 7.81388 0.25
155 3.44088 6.31394 1.40436 0.25
156 0.879919 8.49543 7.64138 0.25
157 5.10428 0.426453 3.94824 0.25
158 8.83991 9.36557 6.69486 0.25
159 3.28491 3.05141 5.46284 0.25
160 2.65266 3.65516 7.92314 0.25
161 3.53329 0.162154 9.63766 0.25
162 3.81087 2.45765 5.6985 0.5
163 6.50635 9.95844 2.37232 0.25
164 5.16302 8.26691 8.11047 0.25
165 0.857799 3.08585 9.59288 0.25
166 7.50205 4.54292 6.9441 0.25
167 9.20599 9.97291 3.92575 0.25
168 0.137169 7.77495 8.79129 0.25
169 9.55905 6.70366 6.87252 0.25
170 3.14707 0.353614 8.41917 0.25
171 1.38024 8.29935 7.59331 0.25
172 9.60758 6.03775 7.32067 0.25
173 0.238752 1.47807 3.55474 0.25
174 4.34942 2.06221 5.94169 0.25
175 9.1824 3.44617 6.96639 0.25
176 1.04807 6.28037 0.822607 0.25
177 9.18701 6.31716 7.51394 0.25
178 6.96343 1.45859 5.17121 0.25
179 2.64968 9.46998 7.66292 0.25
180 7.46819 9.23957 2.62781 0.5
181 0.933989 4.09199 5.83306 0.25
182 7.38861 1.88992 3.01725 0.25
183 2.84737 10.014 4.45392 0.25
184 9.03081 5.14443 9.2795 0.25
185 8.88493 8.98546 6.36971 0.25
186 2.81754 7.88338 9.65616 0.25
187 3.2464 3.53985 0.579478 0.25
188 5.2008 2.21975 7.5199 0.25
189 10.1296 0.769785 6.12167 0.25
190 2.78462 7.12763 3.15489 0.25
191 5.14883 2.65104 9.1008 0.25
192 8.78301 9.1888 7.4235 0.25
193 5.02103 2.21539 8.9857 0.25
194 4.57016 9.20053 1.36759 0.25
195 5.33664 5.02156 9.5436 0.25
196 4.96536 1.87243 -0.0229907 0.25
197 8.64141 6.27918 6.95115 0.5
198 7.59181 1.75194 7.06485 0.5
199 6.93854 0.0442471 9.86681 0.25
200 7.15085 0.997363 6.4113 0.25
201 6.12723 6.79941 6.57783 0.25
202 4.0205 8.13066 5.12521 0.25
203 4.62825 10.1093 0.571055 0.25
204 0.47269 3.85233 6.5444 0.25
205 4.107 0.469498 6.58551 0.25
206 0.576199 1.76001 3.71016 0.25
207 1.08086 5.31826 4.05015 0.5
208 3.50865 5.93284 5.89169 0.25
209 6.8567 9.79896 2.7543 0.25
210 4.56709 0.34746 6.47271 0.25
211 1.37446 5.06317 2.54496 0.25
212 0.382625 3.74917 1.74704 0.5
213 9.77179 4.18751 2.30335 0.25
214 3.39638 5.07471 5.88101 0.25
215 9.83653 0.859504 8.73869 0.25
216 5.58252 2.4765 0.38237 0.25
217 0.711854 8.04322 6.0742 0.25
218 2.16353 1.34155 2.24269 0.5
219 0.606088 4.26368 6.17228 0.25
220 7.03683 9.37666 1.99525 0.25
221 8.69801 6.95502 3.63142 0.25
222 9.32179 6.328 6.55494 0.25
223 5.77114 9.26769 5.03551 0.25
224 9.86366 3.028 6.80674 0.25
225 8.00283 1.5072 5.61808 0.25
226 6.67913 8.83731 5.0498 0.25
227 6.96268 0.0902501 0.979519 0.25
228 4.79942 1.68372 0.444072 0.25
229 3.07153 2.02303 2.07388 0.25
230 8.38577 7.35803 3.83463 0.25
231 6.71372 3.94637 7.08017 0.25
232 6.94252 9.70755 2.29761 0.25
233 8.00756 2.10927 9.29988 0.5
234 4.01502 9.72131 1.83841 0.25
235 1.09054 8.55589 7.2368 0.25
236 1.5888 5.20254 0.30825 0.25
237 7.41867 1.38298 3.21592 0.25
238 0.995578 5.59368 4.78401 0.25
239 0.259023 3.09036 10.1605 0.25
240 1.40751 8.97362 2.24066 0.5
241 1.47975 9.6871 2.4474 0.25
242 3.86817 8.12292 6.28134 0.25
243 1.84633 6.00791 0.461838 0.25
244 1.36489 0.880027 7.11683 0.25
245 5.99943 7.29466 6.57622 0.25
246 2.26182 8.11178 10.2121 0.25
247 2.09469 7.81008 3.46197 0.25
248 5.36457 2.43069 8.74479 0.25
249 6.56335 3.86778 4.68497 0.25
250 7.52894 1.29718 6.49428 0.25
251 1.29125 1.43513 6.37254 0.25
252 7.00108 7.03224 8.06832 0.25
253 4.12508 7.91159 9.13156 0.25
254 1.49305 9.8943 1.54075 0.25
255 1.91584 0.71133 2.00994 0.25
256 3.30102 5.15242 4.22447 0.25
257 0.809829 0.211901 9.68536 0.25
258 4.59344 5.38987 7.17803 0.25
259 2.12608 9.88406 4.00429 0.25
260 0.632835 9.85462 10.1814 0.25
261 7.6466 7.18568 9.16727 0.25
262 5.05332 6.50624 3.58835 0.25
263 8.35654 8.48596 9.60747 0.25
264 7.40794 9.3643 9.92118 0.5
265 4.64121 3.32157 2.61209 0.25
266 4.04171 3.39924 1.99757 0.25
267 3.23995 7.8054 5.33227 0.25
268 3.4856 7.92342 6.12481 0.25
269 7.37187 8.97924 6.28676 0.25
270 3.02496 7.8407 5.83363 0.25
271 4.41276 8.97297 1.78316 0.25
272 6.28684 7.04811 5.2294 0.25
273 -0.00756018 3.52955 7.49893 0.25
274 3.59975 5.50516 6.17547 0.25
275 0.122519 6.68294 2.32427 0.25
276 7.95101 1.05604 8.80316 0.25
277 2.90162 10.1332 7.98377 0.5
278 4.33504 5.88453 8.29743 0.25
279 3.18668 10.3313 8.73022 0.25
280 3.59391 0.633833 9.6655 0.25
281 5.0387 8.34919 3.66996 0.25
282 5.07863 0.648292 3.11865 0.25
283 9.47998 0.185917 9.06645 0.25
284 1.62983 5.23307 10.1777 0.25
285 8.5786 6.59012 1.19603 0.25
286 10.1879 1.71015 1.24394 0.25
287 1.4054 8.373 2.76071 0.25
288 1.30634 5.63828 5.16488 0.25
289 9.357 0.519278 1.1721 0.25
290 8.92252 4.08188 2.02437 0.25
291 8.2198 2.45664 9.972 0.25
292 4.1383 9.3055 1.599 0.25
293 4.73576 2.3892 6.8898 0.5
294 10.1496 6.52035 2.71917 0.25
295 7.16294 0.905365 7.07205 0.5
296 2.22661 3.05862 4.6605 0.25
297 0.377851 8.08665 5.74766 0.25
298 4.53941 9.3166 0.905389 0.25
299 9.38639 5.02496 9.64103 0.25
300 2.44409 10.1901 4.6951 0.25
301 4.85951 8.03039 7.78751 0.25
302 5.08436 4.93553 7.72327 0.25
303 8.96152 5.40401 10.093 0.5
304 3.94944 3.71973 3.13479 0.25
305 1.50919 8.26228 2.31586 0.25
306 10.3452 8.12642 9.07568 0.25
307 0.814991 10.0844 9.76565 0.25
308 8.96087 5.63402 6.8528 0.25
309 7.87678 1.8247 8.52825 0.25
310 6.69345 6.94621 5.96419 0.25
311 1.53234 0.648304 1.70007 0.25
312 8.74895 1.0115 8.61749 0.5
313 1.88144 8.32735 2.12794 0.25
314 1.16338 3.80933 1.90623 0.25
315 3.01509 0.577092 9.18271 0.5
316 7.59126 4.52379 7.49734 0.25
317 6.29715 10.1325 8.53438 0.25
318 10.2304 8.22464 8.55722 0.25
319 9.73162 9.07313 3.72045 0.25
320 0.831676 2.50781 0.271751 0.25
321 2.92588 1.52542 2.06225 0.25
322 1.31259 6.94248 4.72633 0.25
323 6.49686 10.098 9.2902 0.5
324 6.84586 1.86329 2.94813 0.25
325 9.29497 3.93925 1.74738 0.25
326 2.76522 10.1107 5.4573 0.25
327 1.46517 8.91215 8.11255 0.25
328 4.32181 3.45996 2.9423 0.25
329 8.48821 6.78483 4.29406 0.5
330 0.0509323 6.57563 1.84577 0.25
331 9.01381 9.48364 4.06545 0.25
332 6.56893 7.26818 0.180715 0.25
333 10.142 7.38315 8.812 0.25
334 6.94157 5.04021 1.41671 0.25
335 5.9145 4.35612 0.456189 0.25
336 9.72259 4.15196 1.83164 0.25
337 4.79162 5.62597 8.57235 0.25
338 7.82486 8.60599 2.30804 0.25
339 3.89741 5.84943 8.60752 0.25
340 1.04924 2.84414 0.0456283 0.25
341 3.31727 5.62756 4.16503 0.25
342 9.85625 3.59167 7.38431 0.25
343 10.2115 1.73914 3.45241 0.25
344 4.19878 0.795688 3.06772 0.25
345 6.39971 4.39524 10.185 0.25
346 2.06173 1.91634 7.52322 0.25
347 3.67987 3.93355 0.0234215 0.25
348 5.96748 7.57218 0.706375 0.25
349 4.68748 1.50814 7.68462 0.25
350 3.00296 3.43522 7.69423 0.25
351 5.93104 6.4753 3.38755 0.25
352 8.34709 6.2487 1.44182 0.25
353 10.0754 3.16134 7.28769 0.25
354 9.66143 3.20915 1.36755 0.25
355 1.82079 1.8834 1.9213 0.25
356 4.11175 9.51696 0.645482 0.25
357 3.8907 5.13803 5.99367 0.25
358 4.55181 9.64482 0.530752 0.25
359 8.9277 6.58571 0.514789 0.5
360 4.27466 0.437842 6.13837 0.25
361 0.130078 0.654726 6.42712 0.25
362 10.1788 7.71733 8.40888 0.25
363 7.47425 2.82901 2.79647 0.25
364 10.1254 6.37844 2.21337 0.25
365 6.2711 9.04807 4.84368 0.25
366 9.36213 3.96114 2.23471 0.25
367 3.56582 0.301007 8.75724 0.25
368 9.62196 6.53712 7.30411 0.25
369 8.9325 4.78931 4.36265 0.5
370 4.65884 1.44181 6.88272 0.5
371 9.59345 6.45393 1.68482 0.5
372 1.0032 2.10673 4.2376 0.5
373 3.53816 10.378 8.32634 0.25
374 3.73098 0.409235 9.24992 0.25
375 4.94306 0.277585 3.45241 0.25
376 0.705491 5.84612 4.46466 0.25
377 9.98446 7.90015 8.82919 0.25
378 9.75512 8.4624 1.44287 0.25
379 0.392408 3.40229 6.25759 0.25
380 1.8239 2.87185 4.89882 0.25
381 7.2194 5.03353 2.0494 0.5
382 2.45469 8.19435 9.81587 0.25
383 5.49858 8.42771 8.48047 0.25
384 1.99004 6.86573 7.85452 0.25
385 1.3541 7.07335 5.2357 0.25
386 1.59286 5.74273 7.60189 0.25
387 1.28054 6.16869 7.66864 0.25
388 2.67095 2.30619 2.15905 0.25
389 5.4032 2.27214 0.852123 0.25
390 3.65817 3.8795 0.525781 0.25
391 4.49091 0.631134 6.86083 0.25
392 0.837514 5.69513 5.2646 0.25
393 9.16439 8.93013 6.71562 0.25
394 0.377402 0.2476 6.39209 0.25
395 1.89059 4.68699 3.12333 0.25
396 3.20966 0.457443 9.90389 0.25
397 7.0718 2.21453 3.16708 0.25
398 9.92053 4.78947 8.97275 0.25
399 2.37835 9.86071 7.53218 0.25
400 7.83964 3.23706 9.96004 0.25
401 5.55954 6.45146 3.71889 0.25
402 4.40011 5.80238 8.75584 0.25
403 5.89382 4.86038 0.587264 0.25
404 7.51401 2.88461 0.455065 0.25
405 1.50628 5.66399 0.523928 0.25
406 6.64616 9.28685 5.10005 0.25
407 7.29812 7.10243 8.83839 0.25
408 9.33925 8.72937 0.78708 0.25
409 9.69926 6.36127 2.47217 0.25
410 5.16542 1.76984 4.08754 0.25
411 7.54453 8.67093 9.50711 0.25
412 4.70969 1.95379 7.52796 0.25
413 7.04321 2.62393 2.88433 0.25
414 7.11293 5.57167 2.61242 0.25
415 4.53386 0.830023 3.76191 0.5
416 9.84244 0.560688 9.14017 0.25
417 3.49905 8.39153 5.62617 0.5
418 0.730232 0.982898 6.69269 0.5
419 9.13928 9.814 4.42246 0.25
420 5.55718 8.55492 7.94377 0.25
421 9.09397 6.72523 6.69744 0.25
422 2.89204 7.52731 3.41478 0.25
423 1.53613 5.05993 3.04228 0.25
424 0.0173501 10.3318 9.51169 0.25
425 2.10783 0.212513 4.81279 0.25
426 2.24922 2.07268 2.18384 0.25
427 7.08663 1.50099 6.49035 0.25
428 7.29632 9.95448 2.5259 0.25
429 5.51083 8.80905 7.53234 0.25
430 0.113465 9.384 3.94856 0.25
431 6.55919 0.308412 0.821831 0.25
432 2.92407 7.4057 9.90036 0.25
433 2.6603 2.53271 5.24473 0.25
434 5.86551 9.99586 8.89903 0.25
435 10.2623 2.90732 9.8451 0.25
436 6.38139 4.91337 10.1464 0.25
437 0.437767 5.94808 0.0899914 0.25
438 7.67594 0.87247 6.38737 0.25
439 9.86174 9.6891 4.16687 0.5
440 2.51413 2.92446 7.71564 0.5
441 1.2677 3.83173 2.40207 0.25
442 5.77377 7.26963 10.3026 0.25
443 9.78213 9.51895 3.4335 0.25
444 1.69572 3.76573 2.10053 0.25
445 5.82952 6.89846 3.66492 0.25
446 8.33053 4.26997 4.21323 0.25
447 6.23541 5.07479 0.264415 0.25
448 5.11519 1.42403 3.40339 0.5
449 0.555086 0.546373 6.09066 0.25
450 1.55978 1.11793 1.81191 0.25
451 2.90301 4.27731 0.267582 0.25
452 5.75849 4.17415 4.77221 0.25
453 6.70154 4.0054 8.33343 0.25
454 1.12607 5.98358 8.47013 0.25
455 1.41284 5.85479 8.0428 0.25
456 2.66231 1.80215 2.25281 0.25
457 10.2043 8.81958 0.775784 0.5
458 1.67876 6.23296 7.34309 0.25
459 1.15797 1.6024 6.85304 0.25
460 1.97492 5.84498 7.26401 0.25
461 3.74441 6.3491 1.02696 0.25
462 4.1501 6.53143 1.22361 0.25
463 1.56526 9.95099 4.5603 0.25
464 9.52386 1.42989 1.56925 0.25
465 6.94191 5.69239 2.1335 0.25
466 4.92582 5.59798 7.86508 0.5
467 3.29966 4.82387 5.44368 0.25
468 1.87613 1.4823 1.57403 0.25
469 4.6209 4.20932 3.00512 0.25
470 4.86597 3.70726 2.42533 0.25
471 3.25229 10.1256 4.75 0.25
472 2.13341 2.38417 7.28989 0.25
473 3.23685 8.19755 9.62732 0.25
474 9.07019 3.56303 2.02717 0.25
475 8.84784 7.31368 4.70275 0.25
476 4.14685 6.57285 1.70207 0.25
477 10.2624 9.64502 3.5825 0.25
478 8.92222 5.90004 1.0769 0.5
479 7.29219 0.309327 1.22002 0.25
480 2.6647 7.84962 10.0936 0.25
481 3.77331 9.60408 1.44692 0.25
482 6.64048 9.69869 5.34096 0.25
483 6.85418 0.0640859 0.224233 0.5
484 9.61868 3.2879 7.11084 0.25
485 7.64752 2.57949 0.112112 0.25
486 4.66054 8.02616 3.56909 0.25
487 3.57206 3.48101 0.182769 0.25
488 7.39994 9.72446 2.06608 0.25
489 9.20662 6.5081 4.2006 0.25
490 2.20195 3.58547 7.78517 0.25
491 8.74308 8.92083 6.91546 0.25
492 8.29572 2.97395 9.97201 0.25
493 9.51727 3.75439 7.05015 0.25
494 8.41125 4.66577 4.88199 0.25
495 9.53691 3.39424 6.68667 0.25
496 4.54387 1.5921 6.16889 0.25
497 3.21299 4.17842 10.2447 0.25
498 8.29657 1.3886 9.06587 0.25
499 4.55811 9.49787 1.775 0.25
500 4.16375 7.43 8.99297 0.25
501 2.53242 0.0353702 5.11825 0.25
502 9.16659 5.8415 7.28961 0.25
503 7.13252 8.15006 2.51781 0.25
504 6.45683 7.72796 0.0645593 0.25
505 7.32197 1.20282 5.77658 0.5
506 5.74286 10.1535 5.27644 0.25
507 7.46662 8.47436 2.67346 0.25
508 4.54079 8.65636 8.45907 0.25
509 1.2837 9.04331 7.27086 0.25
510 5.93064 4.3193 5.21852 0.25
511 4.43497 0.858657 6.43857 0.25
512 1.10277 5.25956 2.89411 0.25
513 1.22659 5.30608 9.78335 0.25
514 3.46726 2.51788 4.93865 0.25
515 1.83752 1.83964 6.77541 0.5
516 6.21709 9.16568 5.60981 0.5
517 9.16842 6.92028 4.47909 0.25
518 2.7686 0.679041 9.96226 0.25
519 2.8886 0.0816113 4.7049 0.25
520 5.28608 1.9384 7.08919 0.25
521 1.12502 4.47178 5.61165 0.25
522 1.71067 10.088 4.09043 0.25
523 2.95846 3.3301 8.17097 0.25
524 7.32772 1.20163 5.04745 0.25
525 2.33363 6.74356 7.50824 0.25
526 1.58388 6.01746 8.48961 0.25
527 6.4881 9.15513 2.42937 0.5
528 7.32158 8.6536 3.10729 0.25
529 3.99823 6.55959 2.21038 0.25
530 1.62342 7.86271 2.05724 0.25
531 0.0934283 2.87739 9.40129 0.25
532 2.2201 8.5653 10.1159 0.25
533 9.51809 10.2464 3.7158 0.25
534 8.68659 4.36963 3.87358 0.25
535 7.09611 6.55108 8.2579 0.25
536 4.91827 9.69632 0.828243 0.25
537 7.8338 2.06635 2.9492 0.25
538 6.79432 3.79171 7.52764 0.25
539 10.1964 3.70587 6.75477 0.5
540 5.83526 10.0471 7.95577 0.25
541 9.64987 8.7719 1.18015 0.25
542 7.69174 8.82942 5.93773 0.25
543 9.28247 4.13026 4.468 0.25
544 1.66747 2.13843 7.45154 0.25
545 10.1544 8.99001 4.02181 0.25
546 9.99097 0.849067 6.54008 0.25
547 9.66405 3.74808 1.43892 0.25
548 9.53085 4.49589 8.99192 0.25
549 2.36266 0.793997 1.75434 0.25
550 9.57503 8.32646 1.00036 0.25
551 1.93635 7.38727 3.31164 0.25
552 9.0706 9.23645 7.08372 0.25
553 5.05657 3.12044 5.28458 0.25
554 8.79056 4.08548 4.25972 0.25
555 5.82369 9.02068 7.79621 0.25
556 1.60481 8.63842 7.32238 0.25
557 2.84052 9.80243 7.29754 0.25
558 2.46504 4.03497 7.68505 0.25
559 9.48513 1.19428 8.67734 0.25
560 3.63365 5.50968 5.6496 0.25
561 0.952904 4.18579 1.67167 0.25
562 4.94776 4.87224 9.84333 0.25
563 5.44399 9.85327 8.1478 0.25
564 1.77794 1.1891 7.16471 0.25
565 1.94408 0.928164 1.56939 0.25
566 9.7483 6.27538 6.9007 0.25
567 1.51874 6.13029 0.828342 0.25
568 7.8106 1.33066 5.21235 0.25
569 6.8998 4.55149 7.33695 0.5
570 4.41232 3.81406 3.19743 0.25
571 4.54626 3.39486 2.12904 0.25
572 8.33277 1.79333 8.70384 0.25
573 0.983248 6.93362 5.50586 0.25
574 0.0241012 1.10247 6.40667 0.25
575 6.1284 4.01639 4.45677 0.25
576 5.19683 1.78534 0.767672 0.25
577 0.227194 7.79978 5.34565 0.25
578 0.929412 5.38367 0.0623483 0.5
579 5.04923 5.21344 7.2901 0.25
580 8.35215 7.3977 4.72258 0.25
581 6.91232 6.8039 9.02413 0.25
582 6.7762 4.00753 5.09372 0.25
583 8.47724 5.53371 6.86171 0.25
584 5.45935 7.18301 3.45075 0.25
585 6.80623 0.479554 1.25861 0.25
586 1.59279 2.5075 4.63425 0.25
587 6.1926 9.95708 5.44833 0.25
588 2.82887 1.34434 9.30456 0.25
589 10.1325 3.51796 1.39485 0.25
590 9.16411 6.9261 3.91547 0.25
591 3.58386 2.92405 5.12528 0.25
592 6.68955 5.4871 2.49093 0.25
593 5.54631 9.47393 5.78483 0.25
594 9.10226 6.13205 10.2886 0.25
595 1.97057 2.28704 7.79415 0.25
596 9.56291 9.17169 0.823089 0.25
597 4.60702 0.403837 3.13092 0.25
598 6.2838 7.37729 10.1346 0.25
599 9.66608 1.77347 1.23348 0.25
600 3.91795 8.9013 1.80347 0.25
601 6.89493 10.2251 2.48727 0.25
602 6.79938 7.9645 2.20924 0.25
603 2.14089 6.35905 7.20929 0.25
604 8.66348 0.924561 1.25688 0.25
605 1.24448 7.90748 2.45581 0.25
606 1.71775 1.5898 7.46839 0.25
607 2.42062 2.20886 7.69349 0.25
608 6.63255 6.18403 5.80737 0.5
609 4.15191 6.01052 1.12394 0.25
610 6.50373 4.70148 0.923911 0.5
611 8.28941 8.49339 7.4587 0.25
612 8.54336 10.1596 4.10494 0.5
613 7.73736 2.36745 10.0086 0.25
614 9.45338 6.8852 1.05084 0.25
615 7.3102 4.64396 7.89271 0.25
616 1.32449 1.33202 7.1729 0.25
617 2.58124 3.61579 7.45078 0.25
618 7.6037 3.12871 0.00609154 0.25
619 1.20441 9.71767 1.99624 0.25
620 6.85522 5.96193 2.56863 0.25
621 6.68723 4.63575 1.61897 0.25
622 6.75345 6.58027 8.6283 0.25
623 7.76499 4.22561 4.72542 0.5
624 4.71217 8.43946 8.06536 0.25
625 5.48633 2.60137 10.3015 0.25
626 1.85385 2.85364 4.38187 0.25
627 6.89299 5.18964 2.83411 0.25
628 1.12774 9.94208 10.1325 0.25
629 7.33236 10.1037 10.1126 0.25
630 5.75666 7.14073 0.448431 0.25
631 8.18371 1.66742 5.15293 0.25
632 3.23498 3.87939 0.236934 0.25
633 3.42685 4.30315 0.322363 0.25
634 4.50157 7.88455 8.46532 0.5
635 9.30185 6.32369 7.00495 0.25
636 8.95418 4.84591 9.67396 0.25
637 6.67559 9.22342 4.60929 0.25
638 2.002 9.8821 5.16404 0.5
639 7.16062 2.8408 2.41823 0.25
640 7.45222 1.75878 7.78029 0.25
641 3.44883 5.32662 3.7852 0.25
642 3.28049 7.52579 6.17417 0.25
643 2.79104 1.79111 9.5776 0.25
644 6.19213 9.76735 4.72244 0.5
645 2.83747 3.8319 0.464976 0.25
646 8.61918 7.50802 4.28368 0.25
647 6.68443 6.91892 5.51648 0.25
648 7.10071 1.4539 7.63187 0.25
649 4.74792 6.11557 8.46816 0.25
650 7.67702 1.58956 2.81626 0.25
651 5.11918 8.49303 7.73913 0.25
652 1.44688 5.49611 8.41105 0.25
653 0.641657 4.55867 5.74675 0.25
654 1.54883 6.58742 7.7679 0.25
655 10.0984 3.96604 1.54171 0.25
656 4.70491 4.94746 7.38316 0.25
657 8.50814 9.3623 7.07591 0.25
658 6.65103 3.67686 8.01892 0.25
659 8.90557 9.68445 3.57372 0.25
660 2.0814 6.13501 7.93115 0.5
661 2.39786 7.41857 3.35386 0.25
662 7.65135 9.35258 6.14507 0.25
663 3.65814 0.942178 9.27992 0.25
664 1.21527 2.42907 10.2513 0.25
665 8.33507 6.31517 0.901182 0.25
666 5.44532 9.78282 8.62389 0.25
667 7.9679 2.94886 0.321422 0.25
668 6.88088 1.77406 5.61774 0.25
669 3.51748 7.58093 9.40703 0.5
670 0.459236 3.32647 9.29057 0.25
671 1.05528 6.31297 4.96113 0.5
672 5.95644 6.3273 5.52645 0.25
673 3.72704 9.08946 1.41741 0.25
674 7.11961 4.58784 4.45092 0.25
675 8.06079 8.887 7.61574 0.25
676 4.86688 2.37611 0.459173 0.5
677 9.60022 3.16141 7.58726 0.25
678 9.99063 0.157645 6.52536 0.5
679 2.48036 2.0251 7.19228 0.25
680 2.58846 7.70181 3.72799 0.25
681 8.02931 9.2307 7.18701 0.25
682 3.52682 8.00528 4.9869 0.25
683 1.00794 2.63044 9.39757 0.25
684 1.69496 8.58701 7.87613 0.25
685 9.35834 10.2848 4.23945 0.25
686 6.95944 9.5968 4.87227 0.25
687 9.33474 3.55407 7.48616 0.25
688 5.49859 7.46061 0.751144 0.25
689 2.05683 2.63486 3.97002 0.25
690 9.79496 7.57123 9.16014 0.25
691 0.784243 8.3773 5.71596 0.25
692 1.0415 4.52984 6.11215 0.25
693 9.76207 1.70956 3.69199 0.25
694 3.04134 3.45028 0.144364 0.25
695 7.94504 1.50933 4.7689 0.25
696 5.24843 0.921095 3.96227 0.25
697 1.28896 8.78282 7.64251 0.25
698 8.58964 5.6042 0.372623 0.25
699 4.17677 8.13301 5.60309 0.25
700 5.82366 7.13544 0.954739 0.25
701 3.70659 5.07051 5.51645 0.25
702 6.19178 3.53652 4.69775 0.25
703 1.50018 0.835523 2.18553 0.25
704 7.05337 4.28508 8.57097 0.25
705 4.34078 5.96868 9.20443 0.25
706 7.52386 1.25867 7.60278 0.25
707 5.962 6.68935 5.1478 0.25
708 5.36447 6.84372 3.8462 0.25
709 1.52861 4.47191 2.03832 0.5
710 0.927433 4.91818 5.90478 0.25
711 7.54113 4.13095 7.19614 0.25
712 4.84779 8.24398 3.21092 0.25
713 0.843872 5.4293 3.27373 0.25
714 1.99709 10.0879 4.5151 0.25
715 2.32911 3.90705 8.16078 0.25
716 9.73761 9.22743 1.34442 0.25
717 3.26352 4.61118 5.0136 0.25
718 5.7056 3.61832 5.32703 0.5
719 5.40155 3.1837 5.97854 0.25
720 5.47791 1.35719 4.07297 0.25
721 3.0639 8.01022 6.25464 0.25
722 4.15234 5.4481 4.39616 0.25
723 5.74562 6.49166 6.41324 0.25
724 9.37119 0.688453 8.96839 0.25
725 4.22511 0.0029218 6.43422 0.25
726 3.73597 5.36618 4.1533 0.25
727 3.80507 5.79294 4.3214 0.25
728 2.1334 7.47458 10.0576 0.5
729 7.77489 1.89008 5.90117 0.25
730 7.84091 1.52024 8.90161 0.25
731 0.643009 5.88693 10.0135 0.25
732 3.77472 7.56939 6.22417 0.25
733 9.71918 1.96687 4.52929 0.25
734 8.92066 7.34553 3.81512 0.25
735 3.14799 2.61198 5.30404 0.25
736 8.56433 6.14133 6.21847 0.25
737 0.724334 4.25785 5.39626 0.25
738 4.99559 8.48876 8.52967 0.25
739 3.31913 3.68909 10.1909 0.25
740 8.8399 6.43711 1.57997 0.25
741 7.67486 2.78384 2.30156 0.25
742 5.5667 1.98612 0.51957 0.25
743 9.68414 1.59556 4.18772 0.25
744 2.30192 2.34414 4.62222 0.5
745 0.408154 4.07802 5.73236 0.25
746 7.17581 4.63653 1.38072 0.25
747 8.6814 2.68114 10.0832 0.25
748 7.23176 10.066 9.62395 0.25
749 6.91101 4.48168 8.14002 0.25
750 4.27959 1.91703 6.4736 0.25
751 1.63958 1.98873 4.50483 0.25
752 9.66831 2.08263 3.99228 0.25
753 0.509855 2.48532 9.9641 0.5
754 8.16515 1.9498 5.62648 0.25
755 7.93619 2.75697 10.1963 0.25
756 5.12559 1.65305 1.2467 0.25
757 0.0459403 1.8811 4.16131 0.5
758 2.36412 9.78353 4.45794 0.25
759 4.83924 2.69238 8.1745 0.25
760 4.67433 1.56594 3.88111 0.25
761 5.86723 6.20439 6.03681 0.25
762 0.229988 3.86249 6.12871 0.25
763 6.39788 4.59357 4.76447 0.5
764 5.8525 6.93152 3.15021 0.25
765 7.41427 6.94966 8.35182 0.25
766 1.33629 5.39874 3.32832 0.25
767 6.73778 2.70275 2.53432 0.25
768 4.77387 2.70829 5.85231 0.5
769 0.607509 2.94397 0.107422 0.25
770 6.00702 6.98968 5.88617 0.5
771 5.68546 7.93807 0.62918 0.25
772 7.24562 9.20256 5.53427 0.5
773 6.01815 4.13271 0.0447726 0.25
774 6.98373 8.61882 2.6995 0.25
775 10.2556 7.66367 9.20321 0.25
776 4.19744 10.0027 0.563506 0.25
777 1.22542 8.20012 1.99258 0.25
778 2.7366 0.157029 8.63941 0.25
779 9.96088 7.52563 9.63429 0.25
780 5.09663 5.3216 9.89143 0.25
781 5.01637 6.93048 3.45458 0.25
782 9.4746 6.41365 0.971785 0.25
783 4.62803 8.3847 3.92958 0.25
784 2.86213 3.88211 10.3235 0.25
785 8.54779 8.83298 7.71273 0.25
786 6.34157 6.66386 4.89442 0.25
787 6.25151 6.20246 5.10231 0.25
788 4.93221 1.27843 4.13434 0.25
789 6.52578 4.78282 2.03094 0.25
790 4.72371 2.01474 6.2726 0.25
791 8.1983 5.85446 6.52402 0.25
792 4.17481 3.9688 2.47577 0.5
793 10.2017 0.5168 8.85171 0.25
794 2.31495 1.21307 1.48617 0.25
795 1.20343 9.23793 7.74657 0.25
796 2.38848 0.156764 4.09701 0.5
797 0.0406238 9.22722 4.40985 0.25
798 9.16846 4.19178 3.95054 0.25
799 3.47445 5.65177 1.12774 0.5
800 9.84498 1.14929 1.75927 0.25
801 6.0539 10.3407 9.85113 0.25
802 6.49018 7.58151 0.554579 0.25
803 9.51244 5.04489 9.11725 0.25
804 4.3139 5.23112 7.58177 0.25
805 8.87106 4.00273 4.72708 0.25
806 2.30181 9.68981 8.01791 0.25
807 3.66588 4.73267 5.80754 0.25
808 8.75355 4.73423 9.20736 0.25
809 1.08813 5.83707 9.79894 0.25
810 7.45827 1.78948 6.28397 0.25
811 9.7145 4.7128 9.445 0.25
812 3.89207 6.20762 1.45401 0.25
813 1.69492 3.88812 2.61243 0.25
814 1.25853 -0.0154 0.00227425 0.25
815 3.52967 5.33405 4.90119 0.5
816 6.48835 0.291176 9.92184 0.25
817 4.42818 9.94324 1.29502 0.5
818 8.96845 5.87923 0.338705 0.25
819 3.69005 6.42235 1.84953 0.25
820 7.32513 4.62472 8.37017 0.25
821 8.00316 8.71591 7.12517 0.25
822 5.25652 3.76714 2.7314 0.25
823 1.96957 9.18293 7.6029 0.5
824 7.16279 3.8438 7.26562 0.25
825 8.17947 8.97817 6.47147 0.5
826 6.84566 2.6913 2.02284 0.25
827 8.92079 6.44424 6.27462 0.25
828 10.1793 4.13989 2.03214 0.25
829 0.473818 7.88532 4.89932 0.25
830 4.08753 6.1405 1.94228 0.25
831 2.56561 7.9139 3.26585 0.25
832 4.02796 5.58423 9.05784 0.25
833 6.56002 6.66574 6.33563 0.25
834 8.45853 4.13312 5.02131 0.25
835 1.46061 1.19437 6.72591 0.25
836 6.54624 5.3371 2.05377 0.25
837 3.79406 7.17281 8.85848 0.25
838 2.49346 9.47895 7.19568 0.25
839 -0.0269525 2.5961 4.33816 0.25
840 8.98705 4.66609 3.60684 0.25
841 5.58146 4.80242 10.2557 0.5
842 6.94125 6.98044 8.52967 0.25
843 1.40363 9.39594 1.64454 0.25
844 6.50132 5.07714 1.64029 0.25
845 8.43047 3.88807 4.55807 0.25
846 0.576608 5.37816 4.49999 0.25
847 8.32272 2.66963 0.0784574 0.25
848 3.26668 1.28766 9.86654 0.5
849 6.61489 5.00941 2.47306 0.25
850 4.4034 8.21456 3.14041 0.25
851 4.09848 5.7768 1.55777 0.25
852 5.67913 1.03059 3.69038 0.25
853 9.34219 9.45522 3.68963 0.25
854 2.40443 3.45364 8.26439 0.25
855 3.73602 6.68037 1.42229 0.25
856 9.23893 3.05641 7.31129 0.25
857 6.43934 3.5864 5.15435 0.25
858 7.93506 6.61453 3.76615 0.25
859 9.52374 0.959983 1.3703 0.25
860 3.15976 0.00994524 4.29879 0.25
861 3.69162 9.35816 1.87705 0.25
862 7.37852 1.2697 8.34012 0.5
863 0.558803 2.83455 9.34851 0.25
864 3.65048 3.3363 2.35641 0.25
865 0.905095 7.0695 5.02584 0.25
866 2.63686 1.16858 10.0582 0.25
867 3.61456 8.1665 9.97464 0.25
868 9.07204 1.25803 1.34214 0.25
869 10.3364 8.21164 5.42526 0.25
870 7.26387 6.6154 8.72602 0.25
871 7.33403 2.78086 1.96852 0.25
872 8.20369 1.57051 7.88328 0.5
873 5.52192 9.77276 5.04227 0.25
874 7.06719 9.07643 4.80496 0.25
875 4.12061 8.55408 5.32506 0.25
876 3.623 5.96401 1.75374 0.25
877 0.486446 2.23081 3.67061 0.25
878 0.158726 0.202296 9.07859 0.25
879 0.425999 7.35312 5.03366 0.25
880 5.74112 3.67981 4.62905 0.25
881 4.21399 6.56704 8.80483 0.5
882 9.6078 0.677457 6.13753 0.25
883 5.41374 2.96971 5.53346 0.25
884 2.51094 1.95207 1.55874 0.5
885 9.10044 0.171398 3.83823 0.25
886 9.25158 9.01003 1.19625 0.25
887 1.35849 6.31167 8.13908 0.25
888 1.84734 0.638373 2.47998 0.25
889 4.98667 5.18262 8.58431 0.25
890 0.682889 3.76567 6.10741 0.25
891 4.17672 3.22327 2.46476 0.25
892 6.65992 8.35383 2.44464 0.25
893 7.51507 2.82991 10.0248 0.25
894 1.98132 8.23565 9.79629 0.25
895 9.69956 2.79191 7.20605 0.25
896 9.45744 1.34428 1.04323 0.25
897 3.47394 7.86492 6.56164 0.25
898 0.770029 4.95861 5.10227 0.5
899 0.260238 0.906358 6.01197 0.25
900 9.07009 7.33961 4.28106 0.25
901 0.521727 8.22528 5.28478 0.25
902 5.05512 2.17783 1.14361 0.25
903 8.12216 7.45524 4.25308 0.25
904 1.23415 6.21673 0.0761413 0.5
905 9.10094 0.784173 1.45664 0.25
906 9.93222 10.0168 3.48234 0.25