ITEM: TIMESTEP
970000
ITEM: NUMBER OF ATOMS
1000
ITEM: BOX BOUNDS xy xz yz pp pp pp
0.0000000000000000e+00 1.0357442000000001e+01 0.0000000000000000e+00
0.0000000000000000e+00 1.0357442000000001e+01 0.0000000000000000e+00
0.0000000000000000e+00 1.0357442000000001e+01 0.0000000000000000e+00
ITEM: ATOMS id x y z radius
1 1.12812 4.38268 2.76438 0.5
2 1.76276 7.77399 2.66557 0.5
3 4.88914 1.48054 1.16176 0.25
4 0.537162 2.85895 4.44979 0.25
5 9.56914 2.79603 7.01723 0.25
6 0.400152 3.29596 9.83101 0.25
7 4.57315 1.54948 3.36837 0.25
8 9.06959 4.34883 2.25589 0.25
9 9.9289 0.956213 1.55045 0.25
10 9.32833 7.47564 4.08715 0.25
11 9.50475 9.00849 0.565125 0.25
12 8.21632 2.64455 9.8111 0.25
13 3.78421 7.40547 6.19364 0.25
14 5.59722 2.32094 0.543307 0.25
15 8.74295 5.8829 6.33277 0.25
16 8.89601 8.59201 6.62304 0.25
17 5.33482 9.13707 8.38529 0.5
18 2.23095 8.05082 9.60282 0.25
19 7.20041 4.18272 5.16339 0.25
20 9.16221 0.807722 1.17576 0.25
21 0.461171 10.2353 9.31769 0.25
22 4.69714 1.5528 3.85741 0.25
23 4.97521 4.02012 2.90988 0.25
24 2.60639 2.74863 4.20932 0.25
25 7.22229 1.61782 5.64178 0.25
26 5.36298 2.62359 8.35556 0.25
27 2.12332 8.6003 0.413114 0.25
28 9.21663 5.97408 6.48981 0.25
29 3.74404 7.4591 5.67519 0.25
30 1.42953 8.354 7.33521 0.25
31 1.5742 7.30566 4.88476 0.25
32 9.04768 6.72457 1.05683 0.25
33 9.29823 8.56606 0.672516 0.25
34 1.00436 2.71798 9.95631 0.25
35 8.36667 2.17 10.0065 0.25
36 8.02948 8.34244 9.5184 0.25
37 4.02323 5.2307 6.13835 0.25
38 7.1126 0.483269 0.872331 0.25
39 6.42095 3.80429 5.39701 0.25
40 8.58129 4.45741 4.62836 0.25
41 8.57262 7.68283 4.53435 0.25
42 6.94188 8.72662 2.07166 0.5
43 0.469907 8.20352 6.03609 0.25
44 3.05109 10.155 5.14934 0.25
45 7.42642 6.91535 8.97204 0.25
46 1.30542 8.61405 7.7566 0.25
47 4.20045 8.42055 3.34322 0.25
48 2.84461 9.84551 5.47501 0.25
49 4.7477 5.99432 8.92394 0.25
50 10.2626 9.78896 3.41605 0.25
51 9.49747 8.95586 1.85837 0.25
52 6.36454 7.64972 0.219905 0.25
53 6.71034 5.74918 1.84611 0.25
54 4.71281 4.82548 8.15337 0.25
55 5.70755 7.08393 6.44587 0.25
56 5.28421 2.08942 1.43064 0.25
57 5.49793 1.80564 0.602376 0.25
58 6.23291 4.35322 0.650713 0.25
59 3.84254 7.68567 8.67518 0.25
60 7.27108 6.48293 9.19079 0.25
61 3.57215 0.0963222 9.02066 0.25
62 9.30403 5.99996 7.01515 0.25
63 0.832181 5.64723 4.8668 0.25
64 10.1457 1.41111 1.68814 0.25
65 6.55196 6.87806 6.39916 0.25
66 4.19962 1.45147 3.63938 0.25
67 9.09754 4.94909 8.92147 0.25
68 6.27842 0.0505561 0.0571176 0.25
69 2.01372 7.08014 2.68448 0.25
70 3.98992 5.36126 3.90523 0.25
71 0.836333 8.32446 2.19773 0.25
72 5.37058 6.7112 3.64241 0.25
73 9.33341 8.74052 7.27385 0.5
74 2.42804 7.38457 2.76501 0.25
75 0.955886 5.88488 0.62494 0.25
76 1.90458 8.70121 10.3332 0.25
77 6.93741 6.76997 8.92539 0.25
78 4.4282 9.56846 1.96325 0.25
79 1.07021 5.12966 9.8147 0.25
80 8.40394 8.71057 9.521 0.25
81 8.52467 9.48084 7.55084 0.25
82 2.3591 0.440638 1.86807 0.25
83 1.76913 8.46509 2.41886 0.25
84 5.33188 9.36063 5.21522 0.25
85 3.76282 6.17575 1.00215 0.25
86 9.54049 3.55402 1.73049 0.5
87 1.87132 5.409 8.5164 0.25
88 3.14938 3.75527 8.04007 0.25
89 0.469317 0.0357606 9.81904 0.25
90 7.19667 10.2989 1.88553 0.5
91 4.72499 8.3909 3.30833 0.25
92 9.2666 1.46784 1.68859 0.25
93 8.32251 1.0386 8.17068 0.25
94 0.666119 4.19047 2.10906 0.25
95 7.37867 8.98076 6.48588 0.25
96 7.76764 1.19443 6.94204 0.25
97 5.74715 9.58211 5.33367 0.25
98 10.0856 0.659937 6.34808 0.25
99 5.19871 1.89118 8.30002 0.5
100 5.52969 2.79844 5.74544 0.25
101 5.13743 2.33485 9.84979 0.5
102 4.16803 5.33734 8.36162 0.5
103 7.41271 0.105738 0.872284 0.25
104 1.05442 9.97221 9.69395 0.25
105 1.4972 4.73811 3.3119 0.25
106 5.94904 6.25945 6.3479 0.25
107 5.99684 10.1079 8.42118 0.25
108 1.81011 3.70817 2.1609 0.25
109 7.64961 2.57768 2.92016 0.25
110 5.72638 9.78412 5.78607 0.25
111 1.71849 5.72728 0.296016 0.25
112 3.6581 5.19139 5.77544 0.25
113 2.29339 0.330844 4.03214 0.25
114 8.66952 6.31625 10.1849 0.25
115 3.72583 3.62795 2.56185 0.25
116 0.233893 2.00855 3.51753 0.25
117 7.16366 2.36218 2.38166 0.5
118 7.28035 8.14306 2.30457 0.25
119 10.0217 2.77022 4.38777 0.25
120 1.6684 5.53123 10.2007 0.25
121 7.59308 1.75173 4.97093 0.5
122 1.73317 4.63785 2.48796 0.25
123 10.0682 8.94322 1.28285 0.25
124 8.37522 6.26303 0.299941 0.25
125 1.71839 10.1465 4.29462 0.25
126 6.06224 7.25772 0.428445 0.25
127 6.01686 7.71662 0.619283 0.25
128 9.28809 10.1081 3.59908 0.25
129 1.09831 4.99736 3.1795 0.25
130 9.9005 8.74175 1.7357 0.25
131 7.79952 2.70661 2.48694 0.25
132 8.25863 4.83776 4.67934 0.25
133 7.92058 8.84877 9.44117 0.25
134 4.84415 3.97053 3.39098 0.25
135 6.19464 9.47556 8.16212 0.5
136 8.61058 9.03798 7.30598 0.25
137 1.21945 9.82329 1.94551 0.25
138 7.04575 4.10973 4.73181 0.25
139 7.11897 3.7071 7.84736 0.5
140 4.44234 7.97465 3.23264 0.25
141 2.6871 1.40082 2.32758 0.25
142 2.5279 2.9571 5.06963 0.25
143 7.35411 1.8265 3.26084 0.25
144 9.67287 6.73513 2.3207 0.25
145 4.00148 7.79803 5.97808 0.25
146 6.8434 9.02857 3.22069 0.25
147 3.90314 5.8089 4.09268 0.25
148 2.69036 1.54415 0.0185098 0.25
149 9.958 8.09394 9.35556 0.25
150 4.42755 4.96954 7.73364 0.25
151 6.96904 9.84243 10.0469 0.25
152 4.53005 9.35402 1.4659 0.25
153 5.20641 1.61775 7.61666 0.25
154 5.51811 9.62061 7.83353 0.25
155 3.6102 6.08236 1.92007 0.25
156 1.02398 8.60459 7.26696 0.25
157 4.83732 0.157078 3.6238 0.25
158 8.8288 9.47782 6.57245 0.25
159 3.55164 3.03551 5.46715 0.25
160 2.77511 3.39667 8.00049 0.25
161 3.6699 0.203786 9.49406 0.25
162 4.02745 2.47863 5.66106 0.5
163 6.75215 10.1092 2.53835 0.25
164 5.02777 8.38563 8.0487 0.25
165 0.771344 3.0874 9.68857 0.25
166 7.6926 4.14399 6.95968 0.25
167 9.14262 9.82087 4.00473 0.25
168 0.107818 7.56864 8.96272 0.25
169 9.93071 6.60212 6.99631 0.25
170 3.23053 0.409923 8.46498 0.25
171 1.02622 9.0677 7.0701 0.25
172 9.35535 6.15292 7.47185 0.25
173 0.165336 1.59042 3.75678 0.25
174 4.42186 1.90046 6.06166 0.25
175 9.30893 3.18832 6.79699 0.25
176 0.772988 6.33962 0.487314 0.25
177 9.21152 6.67022 7.38151 0.25
178 7.50943 1.04568 5.05097 0.25
179 2.79238 9.52071 7.75471 0.25
180 7.41098 9.19986 2.69889 0.5
181 0.958073 4.08721 5.89428 0.25
182 7.55102 2.03435 2.90742 0.25
183 2.58136 9.69798 4.67583 0.25
184 8.97406 5.21175 9.33892 0.25
185 8.85343 9.0293 6.33168 0.25
186 2.92759 8.1411 9.82264 0.25
187 3.42167 3.72315 0.59708 0.25
188 5.25826 2.12409 7.59313 0.25
189 10.3302 0.278418 6.22543 0.25
190 2.45509 6.89307 2.92557 0.25
191 5.21337 2.5885 9.20195 0.25
192 8.98742 9.32535 7.32796 0.25
193 5.19092 2.12609 9.0572 0.25
194 4.30201 9.81695 1.54942 0.25
195 5.33771 5.0959 9.66459 0.25
196 5.44242 1.99423 0.176725 0.25
197 8.88745 6.64972 6.65866 0.5
198 7.21317 1.72487 6.87361 0.5
199 7.03649 10.3352 9.97744 0.25
200 7.35299 0.661433 6.42863 0.25
201 6.06368 6.72926 6.52562 0.25
202 3.58011 7.70202 5.23328 0.25
203 4.60432 9.78911 0.350021 0.25
204 0.54883 3.88372 6.58864 0.25
205 4.19184 0.781215 6.70081 0.25
206 0.614482 1.89022 3.86675 0.25
207 1.13435 5.15075 3.8921 0.5
208 3.91059 4.8563 6.49607 0.25
209 7.12363 9.90508 2.9075 0.25
210 4.28032 0.527213 6.2143 0.25
211 1.33503 4.96898 2.37952 0.25
212 0.153627 3.85764 1.63439 0.5
213 9.48407 4.05807 2.38572 0.25
214 3.25402 4.97217 5.98785 0.25
215 10.0079 0.893228 8.5903 0.25
216 5.22759 2.61843 0.707637 0.25
217 0.773457 7.81097 6.06444 0.25
218 1.93797 1.39832 2.10277 0.5
219 0.647236 4.22969 6.22966 0.25
220 7.03568 9.49578 2.0733 0.25
221 9.19157 7.02253 4.13096 0.25
222 9.63814 6.21262 6.72195 0.25
223 5.75811 9.26771 4.97538 0.25
224 10.0228 3.03007 7.10209 0.25
225 8.04606 1.41833 5.58248 0.25
226 6.52071 8.68221 5.12057 0.25
227 6.97101 0.0847065 1.10448 0.25
228 5.17937 1.36544 0.728954 0.25
229 2.51032 2.36892 2.30598 0.25
230 8.52852 7.15698 4.58708 0.25
231 6.63114 4.07603 6.88164 0.25
232 7.06764 9.84564 2.43029 0.25
233 8.13302 2.03268 9.29301 0.5
234 3.66074 9.20445 1.38649 0.25
235 1.02608 8.97343 7.6222 0.25
236 1.65953 5.39711 0.697812 0.25
237 7.71855 1.5764 2.96484 0.25
238 1.14971 5.47252 4.58538 0.25
239 0.217652 3.10998 10.2797 0.25
240 1.27865 8.97351 2.02433 0.5
241 1.72078 9.6514 1.90528 0.25
242 3.92408 8.1767 6.24125 0.25
243 1.70604 6.21552 0.47973 0.25
244 1.42225 0.886551 6.94447 0.25
245 6.17433 7.19951 6.48208 0.25
246 2.29923 8.39298 10.3342 0.25
247 1.84552 7.50926 3.36833 0.25
248 5.4683 2.40028 8.77723 0.25
249 6.50806 3.91246 4.67271 0.25
250 7.51279 1.15313 6.50397 0.25
251 1.22275 1.63006 6.34353 0.25
252 6.42243 7.2322 8.14418 0.25
253 3.94365 8.08895 9.0093 0.25
254 1.18312 10.0592 2.38246 0.25
255 2.06684 0.657974 2.18511 0.25
256 3.24692 5.49862 4.60485 0.25
257 0.838606 0.0516326 9.56522 0.25
258 4.82018 5.52602 7.25928 0.25
259 1.97798 9.9112 3.97508 0.25
260 0.476107 10.0897 10.2347 0.25
261 6.83278 6.31993 8.95834 0.25
262 5.28324 6.23959 3.42072 0.25
263 8.42498 8.32791 9.8274 0.25
264 7.55244 9.32941 9.86605 0.5
265 4.50219 3.33956 2.85903 0.25
266 4.3692 3.26359 2.01918 0.25
267 3.36882 7.27914 5.93113 0.25
268 3.65521 7.8169 6.32919 0.25
269 7.84754 8.80312 5.80376 0.25
270 3.27639 7.47547 6.40995 0.25
271 3.96957 9.80971 1.90894 0.25
272 6.55814 6.85521 5.27326 0.25
273 10.0765 3.79252 7.5643 0.25
274 3.40501 4.73699 6.42913 0.25
275 10.1509 6.73947 2.41625 0.25
276 8.13101 0.993851 8.66955 0.25
277 2.92568 10.1867 8.11863 0.5
278 4.08411 6.06704 8.4683 0.25
279 3.13954 0.0616945 8.79883 0.25
280 3.79301 0.596363 9.73387 0.25
281 3.707 8.36636 3.48916 0.25
282 4.91252 0.80005 3.07985 0.25
283 9.54706 0.372372 9.13921 0.25
284 1.85689 5.24492 0.246686 0.25
285 8.61498 6.85614 0.929697 0.25
286 0.0586932 1.06541 1.57205 0.25
287 1.35226 8.52873 2.70318 0.25
288 1.31296 5.64949 5.06094 0.25
289 9.11149 0.620328 1.59757 0.25
290 8.63125 4.12075 2.0228 0.25
291 7.85378 2.29893 9.97901 0.25
292 4.09657 9.41323 1.65705 0.25
293 4.77549 2.38129 7.0356 0.5
294 9.8698 6.39714 2.64462 0.25
295 7.17469 0.807192 7.10974 0.5
296 2.48494 3.0313 4.5241 0.25
297 0.539535 7.99858 5.63733 0.25
298 4.71998 9.78689 1.24302 0.25
299 9.21924 5.01131 9.73575 0.25
300 2.4538 10.1617 4.68355 0.25
301 4.4977 8.42552 7.99768 0.25
302 4.92383 4.83514 7.62165 0.25
303 8.73786 5.54597 9.97711 0.5
304 3.74626 4.08048 2.78708 0.25
305 1.30542 8.28557 2.3034 0.25
306 0.0345434 7.83151 9.38976 0.25
307 0.644817 9.98402 9.75931 0.25
308 8.86206 5.9611 6.81141 0.25
309 7.92321 1.85691 8.5099 0.25
310 6.79523 6.49498 6.1369 0.25
311 1.95852 0.5238 1.65158 0.25
312 8.92171 1.13537 8.49659 0.5
313 1.65555 8.21884 2.01877 0.25
314 0.890812 3.76896 1.84453 0.25
315 3.15019 0.65109 9.27075 0.5
316 7.7033 4.05978 7.44464 0.25
317 6.43835 9.98896 8.59837 0.25
318 0.387664 8.00759 9.09695 0.25
319 9.86216 9.45423 3.43414 0.25
320 0.595732 2.20975 0.0899018 0.25
321 2.51623 1.87262 2.40718 0.25
322 1.32008 6.9759 4.55552 0.25
323 6.62105 10.1464 9.37671 0.5
324 6.99482 2.02002 3.01932 0.25
325 9.0344 4.13307 1.76266 0.25
326 2.66897 10.3418 5.46272 0.25
327 1.75224 8.62112 7.1082 0.25
328 4.09543 3.6765 2.90054 0.25
329 8.63941 7.40423 3.8348 0.5
330 10.1097 6.42517 1.67492 0.25
331 9.14567 9.35291 3.91915 0.25
332 6.41623 6.98048 0.706909 0.25
333 10.1124 7.73802 8.56638 0.25
334 6.77423 5.35134 1.53814 0.25
335 5.7653 4.6612 0.709804 0.25
336 9.44829 4.23016 1.97767 0.25
337 4.85411 5.61033 8.65574 0.25
338 7.63075 8.50025 2.33085 0.25
339 3.9176 5.8916 8.87383 0.25
340 0.852976 2.60756 0.0271983 0.25
341 3.68972 5.79278 4.56871 0.25
342 9.62398 3.72935 7.32167 0.25
343 10.0856 1.89321 3.65045 0.25
344 4.20034 1.19301 3.22008 0.25
345 6.25174 4.28668 0.13646 0.25
346 1.99382 1.85731 7.58532 0.25
347 2.86893 4.03257 0.0751656 0.25
348 5.62792 7.43063 0.571501 0.25
349 4.75839 1.39174 7.78429 0.25
350 2.97357 2.98708 7.76722 0.25
351 5.08424 6.97842 3.87867 0.25
352 8.2215 6.66144 1.16158 0.25
353 9.93728 3.33819 7.52848 0.25
354 9.46661 3.8907 1.05749 0.25
355 2.03361 1.73704 1.42428 0.25
356 4.82315 9.37293 1.02824 0.25
357 3.34354 4.45601 6.00015 0.25
358 4.86837 9.73194 0.753782 0.25
359 9.06082 6.7138 0.350044 0.5
360 3.87235 0.827287 6.30947 0.25
361 0.204695 0.703672 6.22848 0.25
362 0.214327 7.94454 8.60828 0.25
363 7.48304 3.03089 2.68632 0.25
364 9.95707 6.35036 2.12394 0.25
365 6.18018 8.98804 4.9066 0.25
366 9.03187 3.89049 2.16752 0.25
367 3.62887 0.508527 8.74615 0.25
368 9.72471 6.56065 7.42511 0.25
369 9.03399 4.94069 4.60278 0.5
370 4.71817 1.32024 6.98163 0.5
371 9.3676 6.48693 1.65065 0.5
372 1.05583 2.38593 4.25441 0.5
373 3.55114 0.0540862 8.49461 0.25
374 3.85062 0.507947 9.23141 0.25
375 4.66458 0.369197 3.1934 0.25
376 0.764766 5.71143 4.34477 0.25
377 10.2579 8.05076 8.96367 0.25
378 9.7821 9.26452 1.55401 0.25
379 0.399714 3.47554 6.35358 0.25
380 2.08423 2.99675 4.76965 0.25
381 7.09597 5.24964 2.1747 0.5
382 2.76414 8.3392 10.3228 0.25
383 5.52446 8.46253 8.1485 0.25
384 2.27439 6.65374 7.85274 0.25
385 1.35731 6.9025 5.02999 0.25
386 1.3202 5.95039 7.66789 0.25
387 1.49363 6.44131 7.79625 0.25
388 2.23536 2.50963 1.92608 0.25
389 5.00815 2.39706 1.10816 0.25
390 2.93331 3.88062 0.579949 0.25
391 4.63978 0.696414 6.60462 0.25
392 0.906474 5.79351 5.28297 0.25
393 9.19428 9.07458 6.60084 0.25
394 10.3254 1.12062 6.25444 0.25
395 1.76797 4.47829 2.95591 0.25
396 3.37813 0.357152 9.90458 0.25
397 7.28907 2.33607 3.21986 0.25
398 9.60943 5.03598 8.79959 0.25
399 2.54093 9.86705 7.52831 0.25
400 8.24642 3.02576 10.1664 0.25
401 4.96208 6.66161 3.53316 0.25
402 4.37469 5.73467 8.80701 0.25
403 5.84629 5.11229 0.465905 0.25
404 7.23299 3.28761 10.1757 0.25
405 1.41021 5.85138 0.636494 0.25
406 6.60059 9.14674 5.18337 0.25
407 6.79564 6.5782 8.45476 0.25
408 9.73346 8.71442 0.929585 0.25
409 9.4751 6.26559 2.30694 0.25
410 5.53142 1.20715 4.20727 0.25
411 8.15265 9.04548 10.2049 0.25
412 4.8304 1.85786 7.56187 0.25
413 7.19264 2.77431 2.9591 0.25
414 7.15784 5.75699 2.74045 0.25
415 4.52919 0.805951 3.7717 0.5
416 9.93645 0.718414 9.07536 0.25
417 3.28827 7.95407 5.8261 0.5
418 0.74102 1.06011 6.54568 0.5
419 9.13274 9.53319 4.41412 0.25
420 5.33283 8.74163 7.7723 0.25
421 9.63458 6.70727 6.60348 0.25
422 2.65268 7.29597 3.16626 0.25
423 1.60379 4.96796 2.84904 0.25
424 0.0626915 0.121322 9.52338 0.25
425 2.52103 0.247589 4.46735 0.25
426 1.91737 2.14346 1.78212 0.25
427 7.09757 1.11918 6.34934 0.25
428 7.50979 9.91812 2.5477 0.25
429 5.15027 9.26447 7.69335 0.25
430 0.116883 9.91207 3.82918 0.25
431 6.61224 0.389857 0.935071 0.25
432 2.64906 8.19002 9.39163 0.25
433 2.84401 2.59521 5.24326 0.25
434 6.27149 9.62466 8.92956 0.25
435 10.2631 3.21423 9.84512 0.25
436 6.3869 4.69096 10.2393 0.25
437 0.52062 5.75845 10.1627 0.25
438 7.78854 0.803411 6.54862 0.25
439 9.85478 9.81404 4.11956 0.5
440 2.25716 2.81555 7.86005 0.5
441 0.929884 3.7751 2.35434 0.25
442 6.1462 7.27766 10.3132 0.25
443 9.74773 9.97174 3.38773 0.25
444 1.3219 3.61172 2.03873 0.25
445 5.19699 7.1035 3.4058 0.25
446 8.38712 4.59925 4.23334 0.25
447 6.28859 5.06396 0.190707 0.25
448 5.29859 1.22385 3.50673 0.5
449 0.0188491 0.939885 6.65993 0.25
450 1.80319 1.03871 1.50672 0.25
451 3.17771 3.26768 10.3497 0.25
452 5.76719 4.21678 5.05489 0.25
453 6.64845 4.09336 8.22298 0.25
454 1.0318 5.57847 8.45399 0.25
455 1.28221 5.57032 8.03735 0.25
456 2.1333 2.09635 2.20056 0.25
457 9.05419 9.06004 1.20128 0.5
458 1.53553 6.27939 7.34383 0.25
459 1.06698 1.63984 6.82463 0.25
460 1.60297 5.81323 7.27326 0.25
461 3.23243 5.91891 1.58503 0.25
462 3.29798 6.22668 1.15122 0.25
463 1.82858 0.305807 4.18281 0.25
464 9.69192 1.38146 1.3809 0.25
465 6.86985 5.98394 2.31615 0.25
466 4.96641 5.46954 7.95298 0.5
467 3.21206 5.09228 5.48945 0.25
468 2.29309 1.32761 1.41287 0.25
469 4.64471 4.28567 3.00869 0.25
470 4.88055 3.56471 2.72167 0.25
471 2.94961 9.66979 4.99485 0.25
472 1.75044 2.35582 7.54306 0.25
473 3.05132 7.61995 9.95026 0.25
474 8.72623 3.7341 1.71677 0.25
475 8.09004 6.86524 3.69 0.25
476 3.71402 6.54307 1.30897 0.25
477 10.1831 10.2521 3.57533 0.25
478 8.6309 6.09454 0.982911 0.5
479 7.35951 0.380656 1.31582 0.25
480 2.48769 8.18588 9.92522 0.25
481 4.16463 8.98416 1.46123 0.25
482 6.62599 9.51963 5.459 0.25
483 6.94881 10.3151 0.327764 0.5
484 9.63171 3.29157 7.14236 0.25
485 7.46016 3.03495 9.8095 0.25
486 4.05538 8.0112 3.58939 0.25
487 3.26718 4.16823 0.347891 0.25
488 7.45682 9.71413 2.11554 0.25
489 9.05066 6.88456 3.37904 0.25
490 2.35966 3.55111 7.86765 0.25
491 8.81406 9.08506 6.88539 0.25
492 8.16956 2.56165 10.3002 0.25
493 9.46121 3.63266 6.80317 0.25
494 8.49257 4.59576 5.09317 0.25
495 9.7933 3.19439 6.68719 0.25
496 4.45554 1.51685 6.35457 0.25
497 2.97804 3.63281 10.0989 0.25
498 8.36147 1.38345 8.90863 0.25
499 3.79317 9.71033 1.42981 0.25
500 4.12039 7.63172 9.10064 0.25
501 2.75496 0.103164 4.92045 0.25
502 8.94228 6.30486 7.23188 0.25
503 6.8184 8.24952 2.58622 0.25
504 6.44928 7.4884 0.688684 0.25
505 7.53091 0.930839 5.78773 0.5
506 5.78344 10.0208 5.33213 0.25
507 7.30509 8.42889 2.67701 0.25
508 4.9202 8.63167 8.86872 0.25
509 1.51709 9.0189 7.81855 0.25
510 5.97316 4.07742 5.45097 0.25
511 4.36237 1.0341 6.36377 0.25
512 1.16078 5.19267 2.7834 0.25
513 1.53741 5.1579 9.87958 0.25
514 3.67558 2.4279 4.93351 0.25
515 1.67499 1.99381 6.8879 0.5
516 5.99521 9.01838 5.61377 0.5
517 8.562 6.77252 3.4524 0.25
518 2.98132 0.599876 10.0742 0.25
519 2.94825 10.0207 4.67657 0.25
520 5.21302 1.84323 7.17177 0.25
521 1.14588 4.46962 5.69958 0.25
522 1.94304 10.3506 3.83279 0.25
523 2.86384 3.02263 8.30517 0.25
524 7.83465 1.14825 4.69614 0.25
525 2.36398 6.4135 7.43311 0.25
526 1.51924 5.70829 8.39825 0.25
527 6.50066 9.3906 2.66218 0.5
528 7.18346 8.58658 3.12281 0.25
529 4.13031 6.76893 1.44369 0.25
530 1.30765 7.8126 2.04409 0.25
531 0.153534 3.12401 9.38949 0.25
532 2.48449 8.24524 0.393002 0.25
533 9.27363 10.3299 4.02453 0.25
534 8.75112 4.76971 3.93622 0.25
535 6.87488 7.3922 8.27184 0.25
536 4.56516 10.0262 0.789975 0.25
537 7.90759 2.27045 2.63475 0.25
538 6.51357 4.00766 7.39356 0.25
539 10.2204 3.68461 6.85712 0.5
540 5.76311 10.0478 7.93045 0.25
541 9.61998 8.8525 1.38127 0.25
542 7.61795 9.16419 6.10409 0.25
543 9.32203 4.24006 4.33474 0.25
544 1.50005 1.94292 7.65162 0.25
545 10.3239 9.39619 3.67412 0.25
546 0.270112 0.236655 5.91479 0.25
547 9.38655 4.24114 1.41648 0.25
548 9.49313 4.6704 9.00058 0.25
549 2.50403 0.89982 2.19741 0.25
550 9.74558 9.20455 1.02168 0.25
551 1.61371 7.18255 3.0471 0.25
552 9.15437 9.39248 6.96398 0.25
553 5.11772 3.13932 5.79036 0.25
554 8.83214 4.37723 4.2091 0.25
555 5.61972 9.193 7.66061 0.25
556 1.34532 9.31259 7.42955 0.25
557 3.01825 9.82431 7.43199 0.25
558 2.79144 3.77125 7.69481 0.25
559 9.62873 1.19535 8.53207 0.25
560 3.72055 4.81887 6.04554 0.25
561 0.787046 4.19666 1.58771 0.25
562 4.99403 4.71394 9.79136 0.25
563 5.56026 9.84472 8.29251 0.25
564 1.75064 1.28125 7.01118 0.25
565 2.26124 0.891325 1.74911 0.25
566 9.77311 6.12525 7.20756 0.25
567 1.21679 6.3019 0.652984 0.25
568 8.00211 1.18347 5.11322 0.25
569 7.10778 4.48413 7.3338 0.5
570 4.18217 4.16479 3.05603 0.25
571 4.68985 3.29393 2.4042 0.25
572 8.43973 1.79451 8.6511 0.25
573 0.935471 6.75511 5.23438 0.25
574 0.457766 0.30435 6.34233 0.25
575 6.02266 4.11502 4.58375 0.25
576 5.26782 1.74182 1.07812 0.25
577 0.495344 7.87178 5.15791 0.25
578 1.05815 5.28391 0.168457 0.5
579 5.12256 5.10859 7.23948 0.25
580 7.93149 7.27849 3.94295 0.25
581 7.24757 6.68453 8.19868 0.25
582 6.81028 3.8511 5.07983 0.25
583 8.40348 6.07417 6.64811 0.25
584 5.66645 6.94713 3.28896 0.25
585 6.89238 0.431939 1.36684 0.25
586 1.75445 2.63321 4.57328 0.25
587 6.17656 9.77581 5.59164 0.25
588 2.8387 1.38737 9.53065 0.25
589 9.86754 4.07213 1.2332 0.25
590 8.99527 6.74292 3.8327 0.25
591 3.78988 2.83932 5.09357 0.25
592 6.71811 5.66312 2.70656 0.25
593 5.44273 9.3879 5.69205 0.25
594 9.13964 6.1529 10.2113 0.25
595 1.92676 2.17279 7.9903 0.25
596 9.43019 8.43932 1.15523 0.25
597 4.41279 0.791026 2.99403 0.25
598 6.56711 7.20825 0.27932 0.25
599 10.1151 1.25147 1.1808 0.25
600 4.02349 9.37898 2.14657 0.25
601 7.25403 10.296 2.60324 0.25
602 6.39498 8.24459 2.16547 0.25
603 1.96594 6.17852 7.1916 0.25
604 8.8323 1.16418 1.08783 0.25
605 1.02319 7.9226 2.51617 0.25
606 1.60462 1.52971 7.42058 0.25
607 2.37518 2.07542 7.74552 0.25
608 6.38978 5.93578 5.82787 0.5
609 3.46088 5.7494 1.14996 0.25
610 6.37548 4.9447 1.0604 0.5
611 8.59393 8.64077 7.61388 0.25
612 8.46517 9.71454 4.2526 0.5
613 7.76614 2.62347 9.6291 0.25
614 9.48706 6.8148 0.955874 0.25
615 7.54153 4.27456 7.91267 0.25
616 1.26162 1.32622 7.10696 0.25
617 2.69356 3.29784 7.52119 0.25
618 7.76271 3.28838 10.1064 0.25
619 1.46714 9.67706 2.3507 0.25
620 6.77588 6.13042 2.82835 0.25
621 6.5816 4.91386 1.78769 0.25
622 7.32654 7.15805 8.13914 0.25
623 7.84102 4.24968 4.61431 0.5
624 4.74138 8.66719 8.35243 0.25
625 5.31931 2.51428 0.209593 0.25
626 2.12447 2.83358 4.27492 0.25
627 6.92572 5.32776 2.92173 0.25
628 0.904174 9.83608 10.1627 0.25
629 7.40634 10.0066 10.1316 0.25
630 5.63213 7.20214 0.148384 0.25
631 8.32178 1.57531 5.20744 0.25
632 3.20373 3.71307 0.186714 0.25
633 2.77057 3.51399 0.2267 0.25
634 4.58537 7.95638 8.58764 0.5
635 9.45443 6.44041 7.0263 0.25
636 8.74434 4.87369 9.65475 0.25
637 6.61673 9.07116 4.74762 0.25
638 1.97242 0.165526 4.96029 0.5
639 7.05412 3.09547 2.50323 0.25
640 7.41703 1.75649 7.7026 0.25
641 3.36111 5.77923 4.21674 0.25
642 3.69187 7.53143 6.68242 0.25
643 2.83821 1.74028 9.87902 0.25
644 6.26926 9.71567 4.81184 0.5
645 3.62536 3.4028 0.183025 0.25
646 8.21891 6.95155 4.24657 0.25
647 6.7439 6.55434 5.62735 0.25
648 7.11987 1.37806 7.58933 0.25
649 4.61137 6.00203 8.41534 0.25
650 7.67082 1.795 2.50991 0.25
651 4.81105 8.81125 7.88597 0.25
652 1.37472 5.23719 8.45406 0.25
653 0.721325 4.559 5.79427 0.25
654 1.82576 6.78375 8.02468 0.25
655 9.84799 4.26166 1.66663 0.25
656 4.63949 5.05689 7.30128 0.25
657 8.60481 9.47664 7.03958 0.25
658 6.3419 3.87019 7.85468 0.25
659 8.93549 9.70413 3.61455 0.25
660 2.00445 5.98623 7.92608 0.5
661 2.12165 7.18819 3.10468 0.25
662 7.59459 8.68089 6.1683 0.25
663 3.81999 0.972491 9.4308 0.25
664 0.950955 2.19043 10.0728 0.25
665 8.30343 6.66143 0.625281 0.25
666 5.79684 9.76751 8.71235 0.25
667 7.45709 2.87172 0.00699608 0.25
668 7.16424 1.2728 5.27083 0.25
669 3.36184 7.74012 9.31167 0.5
670 0.537304 3.42305 9.38821 0.25
671 1.06983 6.25893 4.70343 0.5
672 5.85034 6.37455 5.37389 0.25
673 4.37864 9.08578 1.88324 0.25
674 7.20656 4.60106 4.81948 0.25
675 8.30866 9.04072 7.6777 0.25
676 4.8356 1.9628 0.483368 0.5
677 9.44919 3.30417 7.58138 0.25
678 10.157 0.750601 5.6226 0.5
679 2.16797 2.24986 7.36776 0.25
680 2.35153 7.34287 3.50733 0.25
681 8.17807 9.27593 7.27064 0.25
682 3.27449 7.29259 5.43577 0.25
683 0.917929 2.69127 9.4555 0.25
684 1.53297 9.11525 6.96301 0.25
685 9.18665 10.021 4.44246 0.25
686 6.97972 9.37196 5.10129 0.25
687 9.16921 3.48068 7.20025 0.25
688 5.38395 7.60548 0.159248 0.25
689 2.25825 2.43781 3.99992 0.25
690 9.82285 8.09218 8.88218 0.25
691 0.954952 8.20513 5.79089 0.25
692 1.06455 4.44773 6.17967 0.25
693 9.72857 2.05211 3.99585 0.25
694 3.61883 3.90411 0.177352 0.25
695 8.2079 1.44531 4.7152 0.25
696 5.21483 0.502784 3.82752 0.25
697 1.44204 8.85107 7.33583 0.25
698 8.40965 5.76322 0.3354 0.25
699 3.99208 7.86863 5.47936 0.25
700 5.19114 7.17727 0.379539 0.25
701 3.5513 4.74173 5.60093 0.25
702 6.08247 3.58384 4.6299 0.25
703 1.62777 0.794521 1.89958 0.25
704 6.98322 4.1355 8.5567 0.25
705 4.29687 5.91217 9.17427 0.25
706 7.60403 1.37179 7.44162 0.25
707 6.05172 6.72446 5.12637 0.25
708 5.27707 6.65275 3.18057 0.25
709 1.40432 4.30663 1.93595 0.5
710 1.09448 4.88241 5.94487 0.25
711 7.42957 3.77289 7.16914 0.25
712 4.06639 8.41553 3.86254 0.25
713 1.12846 5.52148 3.23707 0.25
714 2.17339 10.321 4.2706 0.25
715 2.67825 3.82852 8.14898 0.25
716 9.4607 8.48559 1.60764 0.25
717 3.09734 5.20761 5.01368 0.25
718 5.70219 3.36799 5.22031 0.5
719 5.44737 2.57098 5.27914 0.25
720 5.65686 0.732729 4.06464 0.25
721 3.35316 7.92334 6.67745 0.25
722 3.96291 5.03886 4.27402 0.25
723 5.60651 6.61714 6.28797 0.25
724 9.54845 0.795945 8.83017 0.25
725 3.90582 0.388161 6.48304 0.25
726 3.63601 5.39521 4.25185 0.25
727 4.05266 5.50937 4.44305 0.25
728 2.49439 8.84875 9.80265 0.5
729 7.64944 1.71891 5.76998 0.25
730 7.88094 1.40229 8.82379 0.25
731 0.869726 5.59039 9.80115 0.25
732 4.12532 7.70271 6.47273 0.25
733 9.90712 2.40011 4.75244 0.25
734 8.77098 6.8291 4.3016 0.25
735 3.34339 2.59872 5.26419 0.25
736 9.02731 6.18123 6.06615 0.25
737 0.806222 4.2496 5.42765 0.25
738 5.16041 8.43205 8.49635 0.25
739 3.31018 4.06774 10.2297 0.25
740 8.66256 6.71043 1.39517 0.25
741 7.47249 3.03131 2.17844 0.25
742 5.43631 2.20923 0.973797 0.25
743 9.77895 1.99985 4.49439 0.25
744 2.40227 2.3031 4.7138 0.5
745 0.450712 4.11397 5.79131 0.25
746 6.99623 4.91048 1.48288 0.25
747 8.08229 2.06801 0.0544972 0.25
748 7.27153 9.96046 9.68886 0.25
749 7.06341 4.39548 8.10507 0.25
750 4.32171 1.91162 6.60219 0.25
751 1.67628 2.11813 4.54518 0.25
752 9.76848 2.44744 4.27711 0.25
753 0.315032 2.55798 9.81461 0.5
754 8.12922 1.88497 5.58666 0.25
755 7.77245 2.79792 10.0697 0.25
756 5.15869 1.63102 1.55858 0.25
757 0.11923 2.14467 4.31019 0.5
758 2.14522 9.85919 4.44116 0.25
759 4.91109 2.63738 8.20732 0.25
760 5.02682 1.30076 4.14311 0.25
761 5.71077 6.27178 5.88808 0.25
762 0.226997 3.93024 6.2297 0.25
763 6.48561 4.49628 5.06663 0.5
764 5.55825 7.18666 3.72911 0.25
765 6.63967 7.05903 8.58476 0.25
766 1.5097 5.23214 3.25599 0.25
767 6.70405 2.82894 2.77689 0.25
768 5.00839 2.30113 5.76863 0.5
769 0.40457 2.71607 0.145522 0.25
770 6.12322 6.83029 5.82463 0.5
771 5.58332 7.94848 0.534813 0.25
772 7.02706 8.93333 5.72846 0.5
773 5.79022 4.27109 0.429694 0.25
774 6.86775 8.69811 2.78215 0.25
775 10.0061 7.66813 9.09286 0.25
776 4.78032 9.35062 0.45834 0.25
777 1.17834 8.26191 1.84681 0.25
778 2.77983 0.426417 8.62012 0.25
779 9.51391 7.84372 9.1167 0.25
780 5.00994 5.09109 10.0706 0.25
781 5.70272 6.46492 3.38596 0.25
782 9.34331 6.31368 0.91346 0.25
783 3.97754 8.02721 3.12298 0.25
784 3.50499 3.63981 10.1619 0.25
785 8.81582 9.10707 7.77659 0.25
786 6.42736 6.68546 4.80073 0.25
787 6.0938 6.3133 4.87214 0.25
788 5.14648 0.841821 4.15554 0.25
789 6.3811 5.0768 2.22242 0.25
790 4.78837 1.92621 6.43502 0.25
791 8.52564 6.28478 6.17781 0.25
792 4.40668 3.99265 2.34714 0.5
793 10.3416 0.550024 8.81304 0.25
794 2.60443 1.25116 1.84762 0.25
795 1.7933 8.56289 7.60763 0.25
796 2.71458 10.0476 3.9712 0.5
797 0.234288 9.51096 4.09888 0.25
798 9.20027 4.56676 3.94245 0.25
799 3.62036 5.32107 1.7411 0.5
800 9.71665 1.28812 1.86485 0.25
801 6.14061 0.00988482 9.9238 0.25
802 6.05201 7.31068 0.902162 0.25
803 9.41913 5.06357 9.27699 0.25
804 4.38645 5.39986 7.54533 0.25
805 8.93999 4.10825 4.57057 0.25
806 2.36284 9.743 8.00588 0.25
807 3.07216 4.64685 5.67071 0.25
808 8.65867 4.84563 9.13653 0.25
809 1.32282 5.57933 9.86288 0.25
810 7.33672 1.53008 6.15046 0.25
811 9.51462 4.60866 9.5285 0.25
812 3.66722 6.10003 1.47864 0.25
813 1.42065 3.76004 2.49748 0.25
814 1.36058 9.96271 10.0446 0.25
815 3.80576 5.2005 5.01515 0.5
816 6.5801 0.21263 10.0327 0.25
817 4.12095 9.47663 0.864267 0.5
818 8.83001 6.01981 0.257589 0.25
819 3.87121 6.47924 1.78577 0.25
820 7.38792 4.09543 8.37617 0.25
821 8.191 8.75083 7.26973 0.25
822 4.93607 3.52556 3.17367 0.25
823 2.07909 9.26585 7.47705 0.5
824 6.90129 3.78334 7.19215 0.25
825 8.13168 9.01353 6.58122 0.5
826 6.66674 2.88466 2.27082 0.25
827 9.44123 6.36916 6.26811 0.25
828 9.93256 4.06212 2.11569 0.25
829 0.929041 7.97468 4.85202 0.25
830 4.12357 6.2782 1.35232 0.25
831 2.2912 7.65641 3.19294 0.25
832 4.03017 5.52604 9.1346 0.25
833 6.42983 6.36993 6.44595 0.25
834 8.47884 4.10775 4.88575 0.25
835 1.45602 1.33089 6.64089 0.25
836 6.46219 5.59054 2.22879 0.25
837 3.88205 7.23807 8.97988 0.25
838 2.73076 9.45704 7.21202 0.25
839 0.0939461 2.91054 4.18095 0.25
840 9.19567 5.04965 3.83336 0.25
841 5.6335 4.69076 10.2229 0.5
842 6.83111 6.96208 8.12682 0.25
843 0.93206 9.58754 2.32438 0.25
844 6.37865 5.34486 1.80694 0.25
845 8.46927 4.07564 4.37004 0.25
846 0.673016 5.26811 4.52037 0.25
847 7.68055 2.41013 0.100251 0.25
848 3.37405 1.17366 10.0772 0.5
849 6.47285 5.29207 2.68073 0.25
850 4.49625 8.19544 3.68109 0.25
851 3.99085 5.79868 1.26977 0.25
852 5.61473 0.556267 3.58693 0.25
853 9.43168 9.62531 3.5947 0.25
854 2.46036 3.42098 8.32193 0.25
855 3.32967 6.42207 1.64242 0.25
856 9.22074 3.00817 7.28277 0.25
857 6.46087 3.51223 5.01659 0.25
858 9.00972 7.83308 4.3615 0.25
859 9.42247 0.999216 1.57911 0.25
860 3.02549 9.56339 4.50657 0.25
861 3.89112 9.00457 1.83755 0.25
862 7.53931 1.19647 8.14602 0.5
863 0.600571 2.9879 9.24373 0.25
864 3.91108 3.49523 2.10245 0.25
865 0.93079 7.07509 4.82015 0.25
866 2.65889 1.01763 10.2457 0.25
867 2.80974 7.31562 9.65588 0.25
868 9.2566 1.2958 1.22718 0.25
869 0.272385 8.30203 5.30445 0.25
870 7.10926 6.98288 8.56333 0.25
871 7.00122 3.06244 1.96351 0.25
872 8.20237 1.76154 7.84676 0.5
873 5.5051 9.75675 4.93941 0.25
874 7.0035 8.89001 5.03586 0.25
875 3.75532 8.18459 5.11061 0.25
876 4.06647 5.98512 1.76505 0.25
877 0.457769 2.35595 3.6811 0.25
878 0.217744 0.215131 9.03726 0.25
879 0.701106 7.52299 4.87207 0.25
880 5.66856 3.87368 4.70985 0.25
881 4.31752 6.58322 8.95182 0.5
882 10.1498 0.0250319 5.87791 0.25
883 5.14769 2.89174 5.36863 0.25
884 2.69576 1.92874 1.73045 0.5
885 8.84145 10.2817 4.27206 0.25
886 9.89472 8.47307 1.32846 0.25
887 1.2606 6.03776 8.17882 0.25
888 1.64418 0.763263 2.43806 0.25
889 4.83562 5.04591 8.61985 0.25
890 0.671947 3.75086 6.09062 0.25
891 4.16457 3.33666 2.48301 0.25
892 6.43825 8.56771 2.60374 0.25
893 7.98648 3.05681 9.7077 0.25
894 2.60792 8.7111 0.259885 0.25
895 9.70032 2.92231 7.48248 0.25
896 9.66662 0.959519 1.18314 0.25
897 3.84198 7.99922 6.71188 0.25
898 0.907619 5.00913 5.1899 0.5
899 0.146261 0.484749 6.6744 0.25
900 8.52306 6.66234 3.94378 0.25
901 0.808165 8.20736 5.30205 0.25
902 4.8462 1.9404 1.25752 0.25
903 8.16209 7.43063 4.36672 0.25
904 1.21026 6.15908 10.2439 0.5
905 8.93853 1.10781 1.55202 0.25
906 9.67506 0.0216811 3.71386 0.25