ITEM: TIMESTEP
40000
ITEM: NUMBER OF ATOMS
1000
ITEM: BOX BOUNDS xy xz yz pp pp pp
0.0000000000000000e+00 1.0357442000000001e+01 0.0000000000000000e+00
0.0000000000000000e+00 1.0357442000000001e+01 0.0000000000000000e+00
0.0000000000000000e+00 1.0357442000000001e+01 0.0000000000000000e+00
ITEM: ATOMS id x y z radius
1 1.38848 4.36967 3.03241 0.5
2 2.48966 7.19939 2.70661 0.5
3 5.70928 2.26779 0.307993 0.25
4 0.298599 2.98966 4.10545 0.25
5 10.0988 2.9682 7.16936 0.25
6 0.255019 3.63932 9.64679 0.25
7 5.48096 0.790962 2.93371 0.25
8 8.75927 4.04291 2.1233 0.25
9 0.150993 1.4324 2.01702 0.25
10 8.78658 7.38211 4.4343 0.25
11 9.05926 10.295 0.622199 0.25
12 7.48851 2.88079 0.024697 0.25
13 3.97839 8.30937 5.88734 0.25
14 5.13771 3.15322 1.7278 0.25
15 9.23897 6.17452 6.45042 0.25
16 8.32344 9.03924 6.62276 0.25
17 7.12846 0.838577 8.67654 0.5
18 3.01835 8.17658 9.62684 0.25
19 7.29845 4.52014 5.99247 0.25
20 9.38865 1.01771 1.53085 0.25
21 1.27615 0.42242 10.1274 0.25
22 5.22976 1.02998 2.59472 0.25
23 4.58108 3.33106 2.3608 0.25
24 2.65653 2.45286 4.39796 0.25
25 7.85878 1.62963 5.97174 0.25
26 5.03833 2.40347 8.60157 0.25
27 1.8511 8.69224 9.73789 0.25
28 9.6575 6.2436 6.77315 0.25
29 3.54596 8.3278 5.56771 0.25
30 0.698277 8.73805 7.54893 0.25
31 0.527683 7.41715 5.13888 0.25
32 9.30575 7.07004 0.941384 0.25
33 9.44841 10.1247 0.927036 0.25
34 0.471229 2.80058 10.0647 0.25
35 8.03744 3.72686 0.769409 0.25
36 7.39286 8.41084 9.60742 0.25
37 2.51726 4.06483 6.273 0.25
38 7.2441 0.252373 1.65042 0.25
39 6.10435 3.45314 4.75288 0.25
40 7.96469 4.23067 4.43197 0.25
41 8.38063 7.43911 5.03108 0.25
42 6.1111 8.83518 3.08586 0.5
43 0.266038 7.85946 5.25181 0.25
44 1.42546 0.472805 3.61717 0.25
45 7.10639 6.92918 8.9111 0.25
46 0.839368 9.05661 7.19476 0.25
47 4.11768 8.59446 3.3481 0.25
48 1.48596 10.329 3.46736 0.25
49 4.22525 5.7176 9.49277 0.25
50 9.32737 9.33104 3.33629 0.25
51 9.12141 9.11888 0.363056 0.25
52 5.42289 8.01701 0.41117 0.25
53 6.9192 4.77582 1.25631 0.25
54 4.58031 4.7094 7.57448 0.25
55 6.30075 7.5341 6.68291 0.25
56 5.98632 1.86599 0.141976 0.25
57 5.4646 3.13969 1.29412 0.25
58 6.06724 4.61903 0.111667 0.25
59 4.33844 7.64336 9.07174 0.25
60 6.93218 6.62026 9.26801 0.25
61 4.12258 10.2392 7.59599 0.25
62 8.71497 6.1746 6.42165 0.25
63 0.580517 5.5601 3.68948 0.25
64 0.548346 1.33493 1.71798 0.25
65 5.85261 6.85281 6.65093 0.25
66 4.71851 1.04984 2.59957 0.25
67 9.24203 5.05486 9.50197 0.25
68 6.9713 0.100982 0.745503 0.25
69 3.11236 6.94687 2.92974 0.25
70 3.51573 5.89174 4.24357 0.25
71 1.17546 6.87985 1.71733 0.25
72 5.89694 5.81314 3.57588 0.25
73 8.85859 8.87481 7.12832 0.5
74 3.27176 7.43572 2.90433 0.25
75 2.4461 4.97443 0.122369 0.25
76 2.40833 8.41776 10.3536 0.25
77 6.78332 6.63247 8.79227 0.25
78 4.18239 9.25225 0.445817 0.25
79 1.20073 5.74841 9.43704 0.25
80 7.09738 8.48779 9.16443 0.25
81 8.65183 9.08586 7.85945 0.25
82 0.373995 8.90544 1.25199 0.25
83 1.65693 6.9313 1.96892 0.25
84 5.14339 0.0364223 5.59309 0.25
85 4.58083 6.2769 2.02784 0.25
86 9.90582 4.24235 2.08816 0.5
87 1.07944 5.65625 8.92562 0.25
88 2.94832 3.48177 8.1236 0.25
89 1.90755 0.462435 9.68053 0.25
90 6.85541 9.58964 2.12687 0.5
91 4.11307 9.05099 3.42928 0.25
92 10.0674 1.46818 1.79547 0.25
93 8.69993 0.870639 8.76737 0.25
94 0.954877 4.21612 1.3982 0.25
95 7.9896 9.16019 5.26534 0.25
96 7.82306 0.879912 7.62135 0.25
97 5.49327 10.0793 5.79648 0.25
98 10.0842 0.0408643 5.94626 0.25
99 5.06673 2.69424 7.92343 0.5
100 5.35074 2.73586 5.80082 0.25
101 5.33208 3.38691 9.12963 0.5
102 4.66545 5.18638 8.18522 0.5
103 6.78896 0.164223 1.55193 0.25
104 1.54031 10.0963 1.08805 0.25
105 2.06952 4.32596 3.31389 0.25
106 6.10535 7.27936 5.97346 0.25
107 6.40583 0.63491 8.57736 0.25
108 1.41596 3.88245 1.52652 0.25
109 7.56234 2.84426 2.51631 0.25
110 5.31961 9.61329 5.76118 0.25
111 0.605099 5.707 0.343206 0.25
112 3.19596 4.70527 5.40919 0.25
113 1.24389 10.0026 4.13189 0.25
114 8.37418 6.54086 0.230976 0.25
115 3.792 3.9044 2.70101 0.25
116 10.068 1.85404 4.21787 0.25
117 7.07411 2.56909 3.00739 0.5
118 5.60591 8.24614 3.16935 0.25
119 9.69784 2.89731 4.33102 0.25
120 1.34452 5.43824 0.134825 0.25
121 7.15167 1.43448 5.60119 0.5
122 1.77061 4.37734 2.38392 0.25
123 8.87069 8.95066 0.733074 0.25
124 8.32519 6.98338 0.566421 0.25
125 2.40491 0.264439 4.40464 0.25
126 5.73457 7.51201 0.992299 0.25
127 5.73274 7.63254 0.510337 0.25
128 10.3424 9.05168 3.90419 0.25
129 2.00227 5.19858 3.40633 0.25
130 9.27672 8.68337 0.530082 0.25
131 7.19135 3.13131 2.5619 0.25
132 8.07636 4.38471 5.37809 0.25
133 6.98403 8.71009 9.58836 0.25
134 4.46683 3.54011 1.94754 0.25
135 6.13414 1.24037 8.85267 0.5
136 8.25858 8.99536 7.55507 0.25
137 0.726395 7.63795 1.62254 0.25
138 7.13155 4.43193 5.52632 0.25
139 7.55973 4.37685 8.36983 0.5
140 4.58125 9.18749 3.51547 0.25
141 3.1202 1.51025 1.54338 0.25
142 2.84607 2.89305 4.40524 0.25
143 8.2248 1.1501 3.14961 0.25
144 9.28722 6.15627 2.00969 0.25
145 3.48855 8.33496 6.00872 0.25
146 6.9728 7.62698 2.74217 0.25
147 3.93293 6.04037 4.47364 0.25
148 2.96727 1.09412 9.71457 0.25
149 10.0959 7.93327 9.69939 0.25
150 4.68718 5.15123 7.39214 0.25
151 6.47104 9.93097 0.280808 0.25
152 4.5682 9.31703 0.6968 0.25
153 4.76381 2.15871 7.45621 0.25
154 6.76088 1.53395 8.42898 0.25
155 3.61965 6.2978 0.902094 0.25
156 0.588053 8.67695 7.05407 0.25
157 5.06175 1.27049 3.93161 0.25
158 8.55477 8.5815 6.45628 0.25
159 2.75741 1.97341 5.11831 0.25
160 2.51436 3.32862 8.34694 0.25
161 3.74234 0.194063 7.79698 0.25
162 3.82382 1.93392 5.57688 0.5
163 7.37933 8.99829 2.28335 0.25
164 5.36223 8.14918 7.95524 0.25
165 0.637129 2.89393 9.62557 0.25
166 6.68291 4.60494 7.43231 0.25
167 8.22706 10.2948 3.7067 0.25
168 10.0528 8.19873 8.92581 0.25
169 9.52589 6.52712 8.02402 0.25
170 4.05148 10.3108 8.0828 0.25
171 1.09036 8.45429 7.69341 0.25
172 9.14462 5.84599 7.77661 0.25
173 0.518612 2.16329 4.7193 0.25
174 4.44715 1.76274 5.94211 0.25
175 9.61982 2.83166 7.15016 0.25
176 2.90524 5.04457 10.3207 0.25
177 9.1113 6.34645 7.87982 0.25
178 7.85968 2.1747 5.91396 0.25
179 2.11126 9.90038 7.62184 0.25
180 6.50783 8.1618 2.37028 0.5
181 0.955838 4.54372 6.27071 0.25
182 7.49481 1.14059 2.8065 0.25
183 1.14339 9.17492 4.14196 0.25
184 9.50253 5.66366 10.2468 0.25
185 9.04766 8.63474 6.36158 0.25
186 2.65322 8.36706 9.9436 0.25
187 3.19775 3.77304 0.20137 0.25
188 5.18793 2.36021 7.2738 0.25
189 9.73272 0.144905 6.26852 0.25
190 2.85016 7.63119 3.64647 0.25
191 5.16573 2.61965 9.05442 0.25
192 9.29314 9.1029 6.51204 0.25
193 5.0946 2.77843 9.51952 0.25
194 4.18856 9.1047 0.927149 0.25
195 5.06347 4.50201 9.379 0.25
196 5.09552 2.83065 1.34417 0.25
197 9.00628 6.19504 7.12985 0.5
198 8.02347 1.53917 7.28419 0.5
199 7.0054 10.1683 10.0167 0.25
200 6.93581 1.38446 6.74291 0.25
201 5.98929 7.26886 6.43036 0.25
202 3.85975 7.71185 5.12302 0.25
203 4.68663 0.44025 0.588587 0.25
204 0.388083 4.04143 6.66871 0.25
205 3.475 10.1147 5.78709 0.25
206 0.261307 1.86134 4.34729 0.25
207 1.27026 5.25322 3.7312 0.5
208 2.46073 4.29423 5.81518 0.25
209 7.24953 8.05413 2.59902 0.25
210 3.49246 0.231951 5.76574 0.25
211 1.39576 4.70268 2.37686 0.25
212 0.268384 3.89565 1.53395 0.5
213 8.82974 4.52828 2.06067 0.25
214 3.31687 4.39251 5.79884 0.25
215 10.1762 10.2885 8.84211 0.25
216 5.46803 1.79083 0.98031 0.25
217 0.733973 7.88648 5.33246 0.25
218 3.15225 1.84729 2.18292 0.5
219 0.626883 4.35041 5.92199 0.25
220 7.41907 9.38087 2.66275 0.25
221 8.85026 7.38211 3.94434 0.25
222 9.54844 5.71236 7.44441 0.25
223 5.53701 10.3173 5.31592 0.25
224 0.00932475 4.10504 7.04146 0.25
225 7.33979 2.14567 5.78385 0.25
226 6.56969 9.34982 5.14343 0.25
227 7.04346 10.3257 1.97278 0.25
228 5.92538 1.81333 0.979038 0.25
229 2.22932 2.01452 1.44265 0.25
230 8.35993 7.22423 4.61538 0.25
231 7.44193 4.05009 7.29129 0.25
232 6.89141 8.82866 2.19621 0.25
233 8.94252 1.52176 8.48655 0.5
234 3.52949 9.66187 1.99645 0.25
235 1.03593 8.54969 7.21213 0.25
236 1.44764 5.8862 0.45481 0.25
237 8.27607 1.43804 3.49749 0.25
238 1.45625 5.58257 4.51643 0.25
239 10.3249 3.17989 9.02697 0.25
240 1.26263 7.51562 2.13818 0.5
241 0.633523 7.84286 2.09457 0.25
242 3.29693 7.98888 6.33393 0.25
243 2.40897 5.25306 0.541829 0.25
244 1.04876 1.40429 7.53685 0.25
245 6.11766 7.15599 6.92322 0.25
246 1.64787 8.2308 9.74842 0.25
247 3.26454 7.14134 2.48295 0.25
248 5.28304 3.21829 8.40591 0.25
249 6.78557 4.60988 5.84985 0.25
250 7.307 1.48547 7.11639 0.25
251 1.70458 0.890151 6.99078 0.25
252 7.25442 6.52022 7.71239 0.25
253 4.36264 7.86344 8.28058 0.25
254 0.809875 7.14044 1.60349 0.25
255 0.492607 9.10023 1.70353 0.25
256 3.00741 5.90676 4.91092 0.25
257 1.49043 9.57543 1.10623 0.25
258 5.19304 4.93102 6.80093 0.25
259 1.70251 10.2144 4.21951 0.25
260 1.91284 9.76607 1.04588 0.25
261 6.84175 6.19623 9.05361 0.25
262 6.07676 6.06816 3.97595 0.25
263 7.6428 8.44041 9.14905 0.25
264 7.04518 9.47443 9.68618 0.5
265 3.99713 4.29175 2.92875 0.25
266 3.87734 3.76197 3.54098 0.25
267 3.96202 8.1567 5.38323 0.25
268 3.69272 7.68509 6.51406 0.25
269 7.93091 9.58917 5.07264 0.25
270 3.69853 7.19903 6.39408 0.25
271 3.39977 9.19717 2.04851 0.25
272 6.74156 6.93905 5.56778 0.25
273 9.42153 3.49375 6.44843 0.25
274 2.64542 4.56697 6.21513 0.25
275 9.45877 6.55856 2.65021 0.25
276 9.28403 0.526924 7.78655 0.25
277 2.83016 9.99384 8.00576 0.5
278 4.34048 5.76313 8.49386 0.25
279 4.2 0.346364 7.81011 0.25
280 3.26385 0.294876 8.04985 0.25
281 3.6905 9.11508 3.69824 0.25
282 4.65064 0.757068 3.29988 0.25
283 0.180457 0.430462 9.37266 0.25
284 0.929155 6.04176 0.579016 0.25
285 8.30949 7.71873 0.998516 0.25
286 0.597271 1.3299 2.24779 0.25
287 1.96986 7.7466 2.36053 0.25
288 1.13863 5.20873 4.51656 0.25
289 9.18273 1.42995 1.72341 0.25
290 9.71366 3.55264 2.07245 0.25
291 7.63487 2.41163 10.1878 0.25
292 3.09673 9.5078 1.8097 0.25
293 4.88956 2.69654 6.49127 0.5
294 9.94422 6.61771 2.58834 0.25
295 7.24553 1.37739 7.82243 0.5
296 3.05683 2.52293 4.08498 0.25
297 0.990762 8.1164 5.04821 0.25
298 4.75682 10.3042 0.655434 0.25
299 9.02634 5.39775 10.1919 0.25
300 2.59745 10.1963 4.64477 0.25
301 4.66841 8.21338 8.4721 0.25
302 4.91022 4.76415 7.17542 0.25
303 9.0214 6.07415 0.273002 0.5
304 3.81473 4.00116 2.19107 0.25
305 1.96828 7.28544 2.23634 0.25
306 9.99312 8.34533 9.40481 0.25
307 1.70669 9.82716 1.4822 0.25
308 8.50449 6.53291 6.65501 0.25
309 9.07098 1.05233 9.10799 0.25
310 5.86065 6.89768 6.15683 0.25
311 1.212 8.82342 1.18581 0.25
312 9.44646 0.677368 8.55586 0.5
313 1.29027 6.76818 2.2346 0.25
314 0.445038 3.52656 2.15412 0.25
315 3.85172 0.518007 8.50138 0.5
316 7.03222 3.42719 8.29633 0.25
317 6.52727 0.670908 9.08493 0.25
318 9.62052 8.23314 9.06234 0.25
319 9.39422 8.92057 3.12797 0.25
320 10.3178 2.83508 10.1451 0.25
321 2.7956 1.91233 1.48277 0.25
322 0.758965 7.31053 4.69981 0.25
323 6.51551 0.101957 9.59782 0.5
324 8.15412 2.3902 2.88184 0.25
325 9.16569 4.20974 1.83133 0.25
326 1.6656 0.368135 3.17099 0.25
327 0.909715 8.81236 7.96825 0.25
328 4.22827 4.15001 2.47437 0.25
329 8.15675 7.5563 4.01275 0.5
330 9.24063 6.62202 2.22185 0.25
331 8.55712 0.103178 3.36175 0.25
332 5.308 7.35401 1.16726 0.25
333 10.252 7.75641 8.89563 0.25
334 6.48357 4.76347 1.43999 0.25
335 5.61819 4.78354 0.37257 0.25
336 9.29145 4.63285 1.94489 0.25
337 4.81261 5.91364 8.46979 0.25
338 5.79526 8.25367 2.67592 0.25
339 3.95203 5.46134 9.21183 0.25
340 9.84266 3.09428 9.1638 0.25
341 3.51668 5.96471 4.76737 0.25
342 9.44638 3.63939 6.9978 0.25
343 9.60729 1.98819 4.39076 0.25
344 4.39942 0.960514 2.97639 0.25
345 6.47333 4.62328 10.1192 0.25
346 1.48433 1.66398 7.54383 0.25
347 3.10418 2.89984 0.236731 0.25
348 5.9127 7.18624 0.633757 0.25
349 4.41119 2.49083 7.6144 0.25
350 2.03725 3.1892 8.45944 0.25
351 5.49612 6.0515 3.43902 0.25
352 8.05132 7.33999 0.836563 0.25
353 9.88941 3.82587 7.19303 0.25
354 9.85304 3.98389 1.38781 0.25
355 2.66099 1.52577 2.59104 0.25
356 4.52542 10.0694 0.289268 0.25
357 3.13554 4.61079 6.20827 0.25
358 4.75509 0.146511 0.202838 0.25
359 8.95287 7.04016 0.291223 0.5
360 3.02926 0.0426691 5.72441 0.25
361 10.0616 0.358366 5.592 0.25
362 9.73501 7.86777 8.75692 0.25
363 7.54271 3.14827 2.92461 0.25
364 10.0434 6.70776 2.08171 0.25
365 6.5869 9.88583 5.16703 0.25
366 9.16644 4.30413 2.32012 0.25
367 4.44408 0.296157 8.18231 0.25
368 9.38547 6.05095 8.18191 0.25
369 8.52918 4.87009 5.05844 0.5
370 4.16495 2.19974 6.9493 0.5
371 9.50246 6.59581 1.49353 0.5
372 0.756652 2.42953 4.10959 0.5
373 4.44535 10.2473 8.3937 0.25
374 3.52604 10.2649 8.19588 0.25
375 4.70671 1.01379 3.70531 0.25
376 1.32207 5.94482 4.17396 0.25
377 9.89699 7.85061 9.23603 0.25
378 8.82541 9.51183 0.177162 0.25
379 0.245183 4.12294 6.17889 0.25
380 1.24887 3.04371 4.17949 0.25
381 6.83007 5.20822 1.94282 0.5
382 2.28669 8.69704 9.93013 0.25
383 5.31048 8.70907 7.90164 0.25
384 2.40992 6.50976 7.46475 0.25
385 1.41268 6.67008 5.03816 0.25
386 1.58662 5.49796 8.04511 0.25
387 2.60877 6.49806 7.92141 0.25
388 2.00652 1.83881 1.85672 0.25
389 5.53426 1.86611 0.114198 0.25
390 3.47516 3.29506 0.343551 0.25
391 3.23722 10.3425 6.1464 0.25
392 0.838835 5.88609 3.99961 0.25
393 8.19627 8.61886 6.84583 0.25
394 0.153675 10.3395 6.07031 0.25
395 2.07854 4.40161 2.79117 0.25
396 3.14674 0.597743 8.43235 0.25
397 7.67173 2.40261 2.7783 0.25
398 9.31589 4.59025 9.64641 0.25
399 2.50048 9.59188 7.48783 0.25
400 7.91493 2.6206 0.0918916 0.25
401 5.93777 6.31994 3.56151 0.25
402 4.66096 5.64424 8.81908 0.25
403 5.90032 5.0942 0.126004 0.25
404 8.33601 2.35779 0.800667 0.25
405 2.71736 5.43278 0.211667 0.25
406 6.58038 9.67474 5.59431 0.25
407 6.97359 6.185 8.55702 0.25
408 9.0105 9.88644 0.885991 0.25
409 9.6724 6.38301 2.23352 0.25
410 5.29839 1.67372 3.88569 0.25
411 7.41669 9.26894 9.07432 0.25
412 4.73044 2.5492 7.25592 0.25
413 7.91737 2.81748 2.85933 0.25
414 7.12272 5.79325 2.25631 0.25
415 5.02574 1.40405 3.18558 0.5
416 0.555532 0.481795 9.10416 0.25
417 3.58761 7.62312 5.76272 0.5
418 0.779243 1.12148 6.8364 0.5
419 8.0494 0.104246 3.23935 0.25
420 5.69909 8.89448 8.18813 0.25
421 9.98445 5.9068 7.60407 0.25
422 2.99418 7.24307 3.32956 0.25
423 1.82589 4.80691 2.63392 0.25
424 1.10801 0.699697 9.79987 0.25
425 2.13195 9.91163 3.99694 0.25
426 2.36987 1.69527 2.2152 0.25
427 6.96476 1.72902 7.07529 0.25
428 6.52428 8.95378 2.45906 0.25
429 5.68557 8.95836 7.66292 0.25
430 9.87987 9.24476 3.96515 0.25
431 6.57213 10.1357 1.797 0.25
432 2.88008 7.76848 9.39018 0.25
433 2.66597 2.7908 4.86968 0.25
434 6.59753 0.273541 8.86322 0.25
435 0.114157 3.61416 9.18052 0.25
436 6.35946 5.01588 0.0477732 0.25
437 1.26034 5.24498 10.1165 0.25
438 6.91059 1.23392 7.20311 0.25
439 10.0957 9.25753 3.24275 0.5
440 2.18816 2.68618 7.93523 0.5
441 0.825505 3.37944 1.80068 0.25
442 4.95428 7.90756 0.529029 0.25
443 9.93139 8.76042 3.81052 0.25
444 1.00392 3.70425 1.45533 0.25
445 5.16914 5.93681 3.86594 0.25
446 8.08734 4.71753 4.5082 0.25
447 6.07345 4.90072 10.0408 0.25
448 5.27139 0.535687 3.60452 0.5
449 9.67132 0.457193 5.97688 0.25
450 2.66876 1.23191 2.20852 0.25
451 2.83382 2.45016 10.0072 0.25
452 5.34523 4.07359 4.53195 0.25
453 7.85378 3.7599 8.39468 0.25
454 1.69301 5.75111 8.41465 0.25
455 1.28931 5.85755 8.19902 0.25
456 2.47225 2.02198 1.82457 0.25
457 9.48731 9.77102 0.295877 0.5
458 1.97652 6.74827 7.39983 0.25
459 1.38088 1.25998 6.35569 0.25
460 2.05187 6.3953 7.07526 0.25
461 4.27943 6.53683 2.34049 0.25
462 4.10811 6.10125 2.11499 0.25
463 2.56653 10.233 4.13772 0.25
464 0.0709295 1.16501 1.61559 0.25
465 6.96106 6.07132 2.66409 0.25
466 5.29429 5.4604 7.25563 0.5
467 3.65856 4.67253 5.64254 0.25
468 3.05718 1.01969 1.47016 0.25
469 4.19883 3.71074 2.33688 0.25
470 4.97078 3.51885 2.05967 0.25
471 1.05072 0.216383 3.58251 0.25
472 1.87008 2.03305 7.5603 0.25
473 3.49329 8.20322 9.81718 0.25
474 9.26613 3.86527 2.14799 0.25
475 9.0652 5.44728 3.16228 0.25
476 4.37223 5.89015 1.73961 0.25
477 9.76727 8.62468 3.31698 0.25
478 8.61856 7.05795 1.28766 0.5
479 7.11499 0.048379 1.20965 0.25
480 2.74773 7.89258 9.85502 0.25
481 4.48031 9.59607 0.299167 0.25
482 6.28495 9.63263 5.98613 0.25
483 6.54398 9.92429 1.0412 0.5
484 9.79338 3.32854 7.08134 0.25
485 8.20013 1.97556 0.560982 0.25
486 4.47186 8.77726 3.6868 0.25
487 2.98378 3.36831 0.467482 0.25
488 6.21633 9.30925 2.46111 0.25
489 8.65584 7.37753 3.47356 0.25
490 2.56239 3.32483 7.86752 0.25
491 8.80103 9.04181 6.43422 0.25
492 7.82169 2.87661 10.0398 0.25
493 9.48332 3.15158 6.77898 0.25
494 8.18159 4.28219 4.85077 0.25
495 9.89371 2.86773 6.72133 0.25
496 4.05023 1.83345 6.3268 0.25
497 2.73316 2.60769 0.159849 0.25
498 8.53652 1.69759 9.07323 0.25
499 3.43202 9.41171 1.53196 0.25
500 4.14482 7.21222 8.88477 0.25
501 1.37688 0.0560071 3.92501 0.25
502 8.3658 6.00056 6.72035 0.25
503 6.21458 8.22694 3.54423 0.25
504 5.27559 7.59019 0.322029 0.25
505 7.38059 1.87186 6.46973 0.5
506 5.26111 9.86126 6.18389 0.25
507 6.07515 8.10695 3.06901 0.25
508 4.86418 7.95272 8.08069 0.25
509 1.32258 8.9459 7.05237 0.25
510 5.83723 4.17782 4.64766 0.25
511 3.01005 9.9774 5.50477 0.25
512 2.08627 4.78247 3.08079 0.25
513 1.07916 5.59024 0.493859 0.25
514 2.66439 2.41755 5.27314 0.25
515 1.9908 1.65113 6.90188 0.5
516 5.87561 9.57102 5.35173 0.5
517 9.52774 5.55179 3.25404 0.25
518 3.71409 0.954034 9.09102 0.25
519 1.13875 10.035 3.66945 0.25
520 4.8764 2.15271 6.94363 0.25
521 0.412203 5.13062 5.04274 0.25
522 1.61263 9.94243 3.83179 0.25
523 2.1524 3.45567 8.03469 0.25
524 7.34594 2.0851 5.28896 0.25
525 1.84126 5.94579 7.11828 0.25
526 2.02915 5.52169 8.29887 0.25
527 7.05898 8.76162 2.8912 0.5
528 6.96825 8.00497 3.04479 0.25
529 3.68302 5.80472 0.688519 0.25
530 1.69601 6.97692 2.51002 0.25
531 0.358842 3.22505 9.36046 0.25
532 1.61416 7.82368 9.45197 0.25
533 8.51489 10.0601 4.07602 0.25
534 8.5538 4.84378 4.32235 0.25
535 7.05551 6.75065 8.0274 0.25
536 4.47491 0.147015 0.978194 0.25
537 7.8316 1.26809 3.53844 0.25
538 7.49361 4.43426 7.64975 0.25
539 10.1798 3.55121 6.61681 0.5
540 6.14652 0.395142 8.94349 0.25
541 8.92777 9.44523 0.677678 0.25
542 7.78992 9.05112 5.69115 0.25
543 9.2619 4.78042 4.83505 0.25
544 1.25054 1.65437 6.58384 0.25
545 9.4666 9.3443 2.8929 0.25
546 10.3257 0.704837 5.52356 0.25
547 9.49093 3.82884 1.716 0.25
548 8.8322 4.76962 9.66605 0.25
549 0.840381 9.05419 1.38438 0.25
550 8.73697 9.91151 0.466923 0.25
551 3.33425 7.59899 3.41211 0.25
552 8.99035 9.40753 6.19547 0.25
553 5.08413 2.94645 5.43841 0.25
554 8.93682 4.58578 4.48713 0.25
555 5.76929 8.50432 7.90373 0.25
556 1.4926 8.5734 7.40133 0.25
557 2.63169 9.28317 7.82285 0.25
558 2.80449 2.98795 8.1916 0.25
559 9.70327 10.2785 8.71626 0.25
560 2.872 4.62863 5.78676 0.25
561 1.36843 3.45774 1.23134 0.25
562 5.07744 3.98984 9.62034 0.25
563 6.13187 0.831774 8.23369 0.25
564 1.28849 1.60903 7.07944 0.25
565 3.07627 1.17629 2.52166 0.25
566 9.67038 5.70768 7.94327 0.25
567 2.83707 5.00195 0.46624 0.25
568 7.69926 2.36191 5.46887 0.25
569 6.88993 3.93698 7.71211 0.5
570 4.32012 4.04521 2.00312 0.25
571 4.10557 4.24645 3.46624 0.25
572 8.96089 1.49828 9.31443 0.25
573 0.93977 6.74637 5.27041 0.25
574 0.206068 0.653071 6.98755 0.25
575 5.26383 3.59038 4.70848 0.25
576 5.71869 1.83026 0.544331 0.25
577 0.611804 7.0699 5.50165 0.25
578 1.09201 5.99844 10.1768 0.5
579 5.55827 5.20663 6.57684 0.25
580 7.84797 7.20663 4.59221 0.25
581 7.44471 6.27571 8.52242 0.25
582 7.64848 4.48216 5.6182 0.25
583 8.93366 6.5747 6.51385 0.25
584 5.45218 5.59519 3.66357 0.25
585 7.03122 10.1042 1.56536 0.25
586 1.44079 2.68658 3.92285 0.25
587 5.73842 9.71965 6.06303 0.25
588 3.82787 0.435069 9.23689 0.25
589 0.18424 3.9196 2.27245 0.25
590 8.27688 7.00859 3.4905 0.25
591 3.23351 1.76923 5.15684 0.25
592 7.43505 4.89259 2.30439 0.25
593 5.16991 9.98996 5.38897 0.25
594 8.39607 6.14086 10.255 0.25
595 1.50415 2.03007 7.2179 0.25
596 9.34629 9.5715 1.00974 0.25
597 4.32507 1.12394 3.38814 0.25
598 5.29797 7.74355 0.816026 0.25
599 0.322334 0.972221 1.98841 0.25
600 3.75822 8.88522 2.11481 0.25
601 7.22226 8.46686 2.24441 0.25
602 5.74925 8.34111 3.65838 0.25
603 1.62428 6.40774 7.24034 0.25
604 9.60602 1.10667 1.12669 0.25
605 1.74073 7.42784 2.68035 0.25
606 1.80091 1.03887 6.47658 0.25
607 2.31855 2.10939 7.42141 0.25
608 6.05191 6.89627 5.40205 0.5
609 4.42743 6.72466 1.85677 0.25
610 6.28076 4.79475 0.784218 0.5
611 8.49322 8.61725 7.75713 0.25
612 8.21763 0.658671 3.68721 0.5
613 7.4662 2.41602 0.283178 0.25
614 9.45525 6.64355 0.712693 0.25
615 7.23246 3.89886 8.92056 0.25
616 1.46617 1.23904 6.80854 0.25
617 2.40981 2.9265 8.60037 0.25
618 8.31794 2.37293 0.298318 0.25
619 0.558211 7.32261 1.98067 0.25
620 7.39733 5.38519 2.42209 0.25
621 6.59022 5.66542 1.40747 0.25
622 7.51101 6.58143 8.13668 0.25
623 7.49021 4.55822 4.90912 0.5
624 5.44105 8.50425 8.3285 0.25
625 5.25123 2.33536 1.54784 0.25
626 2.5956 2.70582 4.03216 0.25
627 7.01247 5.5875 2.6729 0.25
628 1.60782 9.85313 0.687323 0.25
629 6.91724 9.80538 10.3614 0.25
630 6.39158 7.23691 0.56134 0.25
631 6.86741 2.1401 5.4333 0.25
632 2.90952 2.90723 10.1331 0.25
633 3.23262 2.57076 10.2789 0.25
634 4.87395 7.48577 8.69031 0.5
635 9.52128 6.11836 7.69836 0.25
636 8.60905 5.68888 10.0809 0.25
637 6.85867 10.0992 5.51752 0.25
638 2.09339 0.234713 3.74989 0.5
639 6.7338 3.20527 2.77663 0.25
640 8.37316 1.4724 8.04044 0.25
641 3.07892 6.05413 4.4841 0.25
642 3.89942 8.65352 5.50993 0.25
643 3.38272 0.842691 9.83357 0.25
644 6.21465 10.3274 5.78403 0.5
645 2.91235 2.20659 0.0214962 0.25
646 8.18164 6.83793 3.96818 0.25
647 6.6399 6.41912 5.68091 0.25
648 7.95605 1.24241 7.96788 0.25
649 4.6486 5.89664 9.24796 0.25
650 7.97242 1.09689 2.69584 0.25
651 4.97908 8.42257 8.08956 0.25
652 1.31638 6.03332 8.65012 0.25
653 0.0247738 4.85831 4.71524 0.25
654 2.21522 6.82162 7.81855 0.25
655 10.2239 3.55993 2.06825 0.25
656 4.77647 5.14194 6.89782 0.25
657 9.18383 8.95255 6.05142 0.25
658 7.40936 3.70694 8.11465 0.25
659 8.67571 0.143895 3.88196 0.25
660 1.96131 6.10277 7.83788 0.5
661 2.86909 7.68134 3.17344 0.25
662 7.98895 9.49286 5.59146 0.25
663 3.19802 0.103092 8.53073 0.25
664 0.257282 2.35931 10.1052 0.25
665 8.4322 7.51039 0.637859 0.25
666 6.60047 1.09036 8.2696 0.25
667 8.69256 2.08166 0.58361 0.25
668 7.65608 1.84267 5.61195 0.25
669 3.64021 7.76596 9.20962 0.5
670 9.98575 3.51416 9.03174 0.25
671 0.913378 6.18802 4.74696 0.5
672 5.47756 7.26159 4.9678 0.25
673 4.76004 9.81675 0.616297 0.25
674 6.96576 4.83712 6.22459 0.25
675 8.25719 8.98488 8.09018 0.25
676 5.65611 2.4956 0.966078 0.5
677 9.62323 3.55808 7.53237 0.25
678 10.3168 0.654506 6.26789 0.5
679 1.93965 2.34259 7.23888 0.25
680 3.02873 6.73193 2.47453 0.25
681 8.15565 9.04923 7.1114 0.25
682 3.40065 7.55713 5.04836 0.25
683 0.725513 2.49201 10.2903 0.25
684 1.39865 8.74983 7.927 0.25
685 8.32097 0.106416 4.19585 0.25
686 6.09714 9.86625 6.38654 0.25
687 9.34898 3.25316 7.26563 0.25
688 6.56699 7.40562 0.0999962 0.25
689 1.36721 2.63612 4.45453 0.25
690 10.2497 7.5725 9.38249 0.25
691 0.388285 8.02287 5.73186 0.25
692 1.04351 4.58605 5.75245 0.25
693 9.17896 2.71739 4.20529 0.25
694 3.11663 3.36004 10.3389 0.25
695 7.22595 2.52779 5.42743 0.25
696 5.52571 1.22805 3.70906 0.25
697 1.14755 8.91691 7.57319 0.25
698 8.58049 6.53646 0.689187 0.25
699 3.52008 8.06044 5.18831 0.25
700 6.5877 7.68012 0.527665 0.25
701 3.29796 4.89158 5.84768 0.25
702 5.63677 3.27307 4.60042 0.25
703 0.139801 8.68726 1.70534 0.25
704 8.15264 4.03579 8.69758 0.25
705 4.26051 5.77125 8.99849 0.25
706 7.75943 0.795482 8.11566 0.25
707 7.09343 6.60817 5.74543 0.25
708 5.61252 6.07245 3.86449 0.25
709 1.06552 3.99975 2.15991 0.5
710 10.345 5.29327 4.97739 0.25
711 7.014 3.89304 8.45505 0.25
712 4.23899 9.15635 3.89486 0.25
713 1.79272 4.78604 3.46248 0.25
714 2.16293 10.2012 4.41396 0.25
715 2.87744 3.73645 7.72707 0.25
716 9.64304 9.04056 0.380134 0.25
717 3.75674 5.07434 5.90307 0.25
718 5.59709 3.3193 5.33181 0.5
719 5.11972 2.71545 5.01515 0.25
720 5.90424 0.894296 3.8244 0.25
721 3.54555 7.36292 6.85889 0.25
722 3.76324 5.57302 4.57098 0.25
723 6.41932 7.5412 6.20427 0.25
724 10.0653 0.291839 8.5278 0.25
725 3.36325 10.2717 5.35731 0.25
726 3.25513 5.6019 4.57455 0.25
727 3.97148 5.84611 4.90571 0.25
728 2.245 8.13412 9.38445 0.5
729 7.60335 1.23941 6.18107 0.25
730 8.63665 1.23187 9.11644 0.25
731 0.869898 5.40645 0.0941738 0.25
732 3.77858 8.11142 6.29211 0.25
733 9.48996 2.48241 4.52889 0.25
734 8.63673 6.93773 3.72556 0.25
735 3.0944 2.15869 5.48446 0.25
736 9.67273 6.6511 7.07723 0.25
737 1.0778 4.1411 6.00767 0.25
738 5.1574 8.14176 8.44502 0.25
739 2.70095 3.1321 0.125809 0.25
740 7.92041 7.53 1.25612 0.25
741 6.73937 2.89589 2.46104 0.25
742 5.53314 2.77336 1.61629 0.25
743 9.7288 2.10978 4.85613 0.25
744 2.01264 2.76011 4.41012 0.5
745 0.762695 4.07583 6.38189 0.25
746 6.31327 5.27993 1.41275 0.25
747 8.46694 3.53205 0.491438 0.25
748 6.54415 9.91757 10.0934 0.25
749 7.73418 3.82024 8.86301 0.25
750 3.71628 2.1721 6.25046 0.25
751 1.37764 2.21104 4.55446 0.25
752 9.13566 2.2345 4.23857 0.25
753 10.2796 2.62453 9.51635 0.5
754 7.1549 1.20981 6.29229 0.25
755 7.87952 2.11538 0.197579 0.25
756 6.14739 2.12244 0.61006 0.25
757 10.236 2.47252 4.51766 0.5
758 2.44747 9.80407 4.37202 0.25
759 5.50204 2.67135 6.91486 0.25
760 5.63629 1.22207 2.8266 0.25
761 6.58033 7.34884 5.7299 0.25
762 10.3741 4.31158 6.59518 0.25
763 7.26505 5.13539 5.57353 0.5
764 5.06882 5.7919 3.3984 0.25
765 6.69166 6.56475 8.30673 0.25
766 1.64795 5.04364 3.06382 0.25
767 7.08884 3.29299 3.04768 0.25
768 4.7854 2.30599 5.55035 0.5
769 0.249892 3.18762 9.84569 0.25
770 6.58868 6.8412 6.31899 0.5
771 6.13425 7.54127 0.320318 0.25
772 7.26258 9.49669 5.41592 0.5
773 6.05531 4.34802 10.0714 0.25
774 6.54968 8.24045 3.14148 0.25
775 0.0172389 8.06907 9.30107 0.25
776 4.35277 0.125881 0.467396 0.25
777 0.806858 6.88104 2.08192 0.25
778 4.51472 10.2727 7.90026 0.25
779 0.212584 7.851 9.6851 0.25
780 4.68189 4.37572 9.70926 0.25
781 5.80766 5.67147 4.02097 0.25
782 9.05411 6.61223 0.884997 0.25
783 3.98951 8.7082 3.77847 0.25
784 2.40426 2.75644 10.226 0.25
785 8.74195 8.76481 8.22095 0.25
786 5.55201 6.79885 4.78401 0.25
787 5.54387 6.42205 5.11786 0.25
788 5.74125 1.02974 3.30626 0.25
789 7.01531 5.06763 2.59298 0.25
790 4.59762 2.03379 6.30091 0.25
791 9.42567 6.60621 6.58167 0.25
792 4.43876 3.68551 3.03711 0.5
793 1.04366 0.473575 9.34539 0.25
794 3.04807 1.16579 1.95583 0.25
795 1.18897 9.36702 7.33242 0.25
796 1.76085 9.48454 4.4234 0.5
797 9.54587 9.79356 3.24192 0.25
798 9.17634 5.25958 4.86213 0.25
799 3.58938 6.6508 1.97319 0.5
800 0.119822 1.62595 1.5454 0.25
801 6.72142 10.3196 10.353 0.25
802 5.40954 7.29924 0.657735 0.25
803 9.35272 5.35051 9.90044 0.25
804 5.06175 5.34477 6.55657 0.25
805 8.74337 4.18552 4.82187 0.25
806 2.26703 9.60125 8.01325 0.25
807 3.63054 4.64111 6.09809 0.25
808 9.07365 5.74742 9.90804 0.25
809 1.47731 5.47012 9.77092 0.25
810 7.97102 1.40822 6.53892 0.25
811 9.13155 4.94081 10.0005 0.25
812 3.87492 6.01105 1.67542 0.25
813 1.35124 3.45233 1.72231 0.25
814 1.90724 10.2239 0.824162 0.25
815 3.45802 5.35783 5.22829 0.5
816 6.91636 10.0752 0.416384 0.25
817 4.06858 9.88153 0.84166 0.5
818 8.68053 6.55393 10.1699 0.25
819 3.80661 5.88701 1.15357 0.25
820 7.6839 3.99722 7.75342 0.25
821 8.00288 8.64194 7.84551 0.25
822 4.68211 3.11273 1.88393 0.25
823 1.89078 9.17988 7.5329 0.5
824 7.0923 4.66408 7.72889 0.25
825 8.52476 8.99755 5.80772 0.5
826 6.62092 3.16309 3.23996 0.25
827 9.737 6.19767 7.27263 0.25
828 9.50088 4.38252 1.5169 0.25
829 1.04304 6.85097 4.78111 0.25
830 4.24511 6.03093 1.25944 0.25
831 2.95455 7.07771 2.08764 0.25
832 4.20403 5.34997 8.77621 0.25
833 6.02128 7.72419 6.30995 0.25
834 8.49696 4.17505 5.2466 0.25
835 1.46908 1.21844 7.29403 0.25
836 6.70619 5.21278 1.23156 0.25
837 4.0629 7.62413 8.62152 0.25
838 3.02082 9.39924 7.53554 0.25
839 10.1127 2.95433 3.98979 0.25
840 8.98629 5.04561 4.48475 0.25
841 5.36937 4.55754 10.0762 0.5
842 7.08619 6.29145 8.11429 0.25
843 0.300139 7.7481 1.79124 0.25
844 6.42059 5.54079 0.94488 0.25
845 8.45225 4.37713 4.44968 0.25
846 1.02804 5.58392 4.28042 0.25
847 8.08657 3.57508 0.281363 0.25
848 3.09754 0.555599 9.20231 0.5
849 6.57302 5.34771 2.72613 0.25
850 4.49919 8.74268 3.21663 0.25
851 4.2363 6.32991 1.67668 0.25
852 5.48014 0.980918 4.16386 0.25
853 8.65778 10.1212 3.62712 0.25
854 2.36158 3.70851 7.65752 0.25
855 3.50156 6.1966 1.38306 0.25
856 9.77251 3.09462 7.53822 0.25
857 5.94379 3.9108 5.03684 0.25
858 8.54729 7.70175 4.60994 0.25
859 9.64697 1.19131 1.90786 0.25
860 0.96238 9.61503 4.25086 0.25
861 3.74525 9.27656 2.37283 0.25
862 8.05229 1.25512 8.65738 0.5
863 0.62075 2.42239 9.7896 0.25
864 3.68922 3.55671 3.08201 0.25
865 0.613071 6.94386 4.99468 0.25
866 3.39814 1.19266 9.44161 0.25
867 3.70507 7.79701 10.0015 0.25
868 9.90389 1.07189 1.55254 0.25
869 1.20894 8.13351 5.49237 0.25
870 7.14885 6.66465 8.50283 0.25
871 6.39815 2.89909 2.82492 0.25
872 8.55318 0.770069 8.03129 0.5
873 5.68208 10.1508 6.26442 0.25
874 6.80893 9.74705 5.94588 0.25
875 3.72148 7.21192 5.08787 0.25
876 3.93357 6.39664 1.30547 0.25
877 0.0785323 2.04954 3.90014 0.25
878 0.610026 0.591339 9.60569 0.25
879 0.524027 7.55862 5.61294 0.25
880 5.49276 3.93597 5.01635 0.25
881 4.42739 6.43361 8.80543 0.5
882 9.68137 0.0521834 5.71803 0.25
883 5.46427 2.61617 5.3041 0.25
884 2.38647 1.2901 1.52471 0.5
885 9.58236 9.57578 3.67898 0.25
886 9.35505 9.15084 0.76038 0.25
887 2.71248 6.16739 7.51921 0.25
888 0.740616 8.73229 0.958815 0.25
889 5.05997 4.87643 7.62465 0.25
890 0.48625 4.46109 6.42649 0.25
891 3.69503 4.03522 3.20419 0.25
892 6.63215 8.47699 3.52055 0.25
893 7.92633 2.40739 0.547691 0.25
894 1.89112 7.80233 9.91956 0.25
895 10.1731 3.44142 7.37692 0.25
896 10.1402 1.03679 1.98773 0.25
897 3.2783 7.77298 6.84056 0.25
898 0.421816 5.33122 4.34779 0.5
899 9.87249 0.829691 5.69301 0.25
900 9.40353 5.27341 2.85594 0.25
901 0.781729 7.30807 5.91572 0.25
902 5.28895 2.0243 0.520312 0.25
903 8.07644 7.62462 4.74752 0.25
904 1.99284 5.58587 10.2888 0.5
905 9.59889 1.50945 1.48485 0.25