ITEM: TIMESTEP
540000
ITEM: NUMBER OF ATOMS
1000
ITEM: BOX BOUNDS xy xz yz pp pp pp
0.0000000000000000e+00 1.0357442000000001e+01 0.0000000000000000e+00
0.0000000000000000e+00 1.0357442000000001e+01 0.0000000000000000e+00
0.0000000000000000e+00 1.0357442000000001e+01 0.0000000000000000e+00
ITEM: ATOMS id x y z radius
1 1.35265 4.38275 2.78772 0.5
2 1.86559 7.90955 2.88481 0.5
3 5.60775 1.59887 0.885444 0.25
4 0.7052 1.78538 3.88994 0.25
5 9.24358 3.25033 7.27905 0.25
6 0.530896 3.43468 9.55561 0.25
7 4.3402 0.697163 3.64853 0.25
8 8.65116 3.93782 1.94863 0.25
9 9.75984 1.49518 1.6887 0.25
10 8.90537 7.4788 3.75259 0.25
11 9.85507 9.44789 1.30038 0.25
12 8.43197 2.59979 0.0226536 0.25
13 3.27593 7.94842 6.35099 0.25
14 5.4679 2.4813 10.3496 0.25
15 8.39531 5.96088 6.45236 0.25
16 8.79892 8.5816 6.37612 0.25
17 5.17225 8.9465 8.36681 0.5
18 2.98349 7.91532 10.0077 0.25
19 7.25979 4.47121 5.18083 0.25
20 9.04461 1.21367 1.32801 0.25
21 0.252347 0.288215 9.5923 0.25
22 4.41417 0.214855 3.54577 0.25
23 4.47857 3.60919 3.18126 0.25
24 2.76632 2.57751 4.09446 0.25
25 7.18763 1.87655 5.95368 0.25
26 5.49486 2.50485 8.17915 0.25
27 1.73926 8.3142 0.143861 0.25
28 8.6919 6.38535 6.56492 0.25
29 3.06462 7.93605 5.86368 0.25
30 0.918798 8.80174 7.6908 0.25
31 0.308937 6.96908 5.16859 0.25
32 9.12713 6.69727 1.24558 0.25
33 10.1904 9.07162 1.25305 0.25
34 1.15416 3.0767 10.2511 0.25
35 8.82103 2.9026 0.0259173 0.25
36 8.26071 8.74136 10.0212 0.25
37 4.1867 5.14168 5.78202 0.25
38 7.34773 0.610491 1.15003 0.25
39 6.38988 3.9703 5.24988 0.25
40 8.63988 4.34981 5.06558 0.25
41 8.04544 7.86702 3.92612 0.25
42 6.69596 8.56627 1.99829 0.5
43 0.118719 8.16561 5.9322 0.25
44 2.95316 10.0242 4.54675 0.25
45 7.0963 7.222 9.11743 0.25
46 0.938255 8.82033 7.21565 0.25
47 4.2198 8.27187 3.82755 0.25
48 3.00723 0.158252 4.52612 0.25
49 4.23941 5.89834 9.3726 0.25
50 9.93505 9.34478 3.58583 0.25
51 9.17041 8.77538 0.514791 0.25
52 6.07631 6.98953 0.1184 0.25
53 6.43054 5.41299 2.0016 0.25
54 4.72388 4.85989 8.24948 0.25
55 5.73856 6.42395 6.88224 0.25
56 5.1746 1.65728 1.16469 0.25
57 5.83119 2.41171 0.354245 0.25
58 5.92832 4.69199 0.610288 0.25
59 4.06771 7.29897 9.14187 0.25
60 7.46486 7.48922 8.95278 0.25
61 3.1682 0.0133044 8.83371 0.25
62 9.21967 6.2663 6.51306 0.25
63 0.842902 5.09748 4.40803 0.25
64 10.1794 1.28447 1.81211 0.25
65 5.82177 7.19725 6.4712 0.25
66 4.23902 0.603495 3.1803 0.25
67 9.29724 5.44364 9.23552 0.25
68 6.14983 0.0931033 0.108468 0.25
69 2.39644 7.68551 3.49146 0.25
70 3.76164 5.88335 4.2692 0.25
71 1.53021 7.85235 2.21262 0.25
72 5.4944 6.39563 3.52174 0.25
73 8.96653 9.1417 7.27631 0.5
74 2.15195 7.33109 3.2883 0.25
75 1.25555 6.21386 0.766059 0.25
76 1.73415 8.21269 9.96748 0.25
77 7.43029 7.00956 8.76945 0.25
78 4.03841 8.90137 1.32417 0.25
79 0.76547 5.29812 9.7723 0.25
80 8.1519 8.69734 9.56471 0.25
81 8.19051 9.21879 7.33329 0.25
82 1.52879 1.06788 1.76149 0.25
83 1.13892 8.20875 2.93055 0.25
84 5.30384 9.66941 5.65267 0.25
85 4.41558 6.19016 1.5365 0.25
86 9.65609 4.44469 1.90595 0.5
87 1.32229 5.2557 8.4477 0.25
88 2.79862 3.76792 8.26997 0.25
89 1.02759 0.455115 9.92712 0.25
90 6.93037 10.0839 1.66071 0.5
91 4.4453 8.33121 4.25385 0.25
92 9.78633 1.04768 1.02499 0.25
93 8.30798 0.948297 8.10963 0.25
94 0.704474 4.37485 1.69343 0.25
95 7.57674 9.11202 5.91372 0.25
96 7.70882 1.25548 7.20088 0.25
97 5.68132 9.89684 5.52881 0.25
98 10.2823 0.25818 6.49151 0.25
99 5.16293 1.88273 8.17009 0.5
100 5.47786 2.86048 5.1305 0.25
101 5.41051 2.10831 9.65521 0.5
102 4.12432 5.17494 8.5362 0.5
103 7.18879 0.19943 1.0187 0.25
104 1.01617 -0.0342757 10.1798 0.25
105 2.0462 5.19124 2.95469 0.25
106 6.52136 6.66713 6.51728 0.25
107 5.9172 9.92737 8.7836 0.25
108 1.7526 3.67292 1.9905 0.25
109 7.45322 2.45918 3.1048 0.25
110 5.87285 10.1177 5.91296 0.25
111 1.83358 5.91666 0.4765 0.25
112 3.67831 5.28454 5.78341 0.25
113 2.00044 9.66779 4.39629 0.25
114 8.36095 6.08115 0.206918 0.25
115 4.68441 3.52029 1.94528 0.25
116 0.233397 2.7736 4.35527 0.25
117 7.33929 2.23139 2.3986 0.5
118 7.03072 8.0284 2.28597 0.25
119 10.0846 1.88211 3.92008 0.25
120 1.58482 5.88557 0.0651887 0.25
121 7.82574 1.96702 5.42279 0.5
122 1.94683 4.47888 2.3228 0.25
123 9.20105 8.7964 1.31825 0.25
124 8.24353 6.20999 0.716162 0.25
125 1.23883 9.83826 4.64486 0.25
126 6.31609 7.34809 0.419536 0.25
127 5.96191 7.45367 0.0834342 0.25
128 9.29331 9.53286 4.11396 0.25
129 1.61887 5.38503 3.1801 0.25
130 9.12532 8.48164 0.936579 0.25
131 7.87093 2.3997 2.85143 0.25
132 8.95553 3.93361 5.12596 0.25
133 7.79866 8.86604 9.86012 0.25
134 4.86674 3.8654 3.2394 0.25
135 6.0321 9.43811 8.15676 0.5
136 8.28966 8.9346 6.98177 0.25
137 1.53702 9.78564 1.44892 0.25
138 7.3249 3.98437 5.25648 0.25
139 7.27708 3.79288 7.92873 0.5
140 3.97331 8.25076 3.38741 0.25
141 2.06533 1.98008 1.90963 0.25
142 2.92319 3.05401 4.77537 0.25
143 8.08918 1.55159 3.78592 0.25
144 10.2345 6.56914 2.2826 0.25
145 3.14618 7.50157 6.19755 0.25
146 6.85292 9.42436 3.09815 0.25
147 3.79169 5.60969 3.8316 0.25
148 3.2488 1.67146 10.1462 0.25
149 9.61375 7.78081 8.83127 0.25
150 4.40998 4.83656 7.87716 0.25
151 6.83501 9.90259 10.1039 0.25
152 4.1306 9.24762 1.00922 0.25
153 5.21864 1.68446 7.47807 0.25
154 5.30156 9.70977 8.22604 0.25
155 3.56327 6.40514 1.23727 0.25
156 0.99033 8.39119 7.42456 0.25
157 5.58296 1.14786 3.09245 0.25
158 8.80016 9.05159 6.17376 0.25
159 3.27313 3.05156 5.11763 0.25
160 2.62961 3.37821 7.99238 0.25
161 3.34208 0.0220501 9.29851 0.25
162 4.08402 2.2743 5.76148 0.5
163 7.16658 10.0028 2.38953 0.25
164 4.88365 8.54792 7.76253 0.25
165 0.633379 3.02478 10.2757 0.25
166 6.934 3.91797 6.8992 0.25
167 8.9912 10.2075 3.8773 0.25
168 10.2859 7.57057 9.34452 0.25
169 9.42584 6.67946 7.20652 0.25
170 3.27238 0.502708 8.08546 0.25
171 1.53272 8.32512 7.49952 0.25
172 9.58857 6.03619 6.67933 0.25
173 0.858538 1.994 3.49496 0.25
174 4.70405 2.02275 6.07214 0.25
175 9.33988 3.47003 7.74361 0.25
176 0.90523 5.87738 0.659127 0.25
177 9.58294 5.86451 7.12658 0.25
178 7.49294 1.35549 5.21145 0.25
179 2.60059 9.55142 7.73028 0.25
180 7.31109 9.13668 2.53326 0.5
181 0.838682 3.93952 5.78415 0.25
182 7.66517 1.31116 3.90956 0.25
183 2.39582 10.3744 5.00106 0.25
184 9.12956 5.54264 9.66942 0.25
185 9.19649 8.97151 6.51352 0.25
186 2.62486 7.79205 9.64943 0.25
187 3.46068 3.54094 10.1596 0.25
188 5.19826 2.51783 7.73776 0.25
189 10.2434 10.2204 6.14105 0.25
190 2.64093 7.18563 3.45905 0.25
191 4.84672 2.39645 8.67479 0.25
192 8.43533 9.33857 6.7137 0.25
193 5.24661 2.16125 8.92458 0.25
194 4.51917 9.12593 1.33982 0.25
195 5.52741 5.14818 9.65715 0.25
196 5.95304 2.36114 10.1853 0.25
197 8.8356 5.83606 7.01152 0.5
198 7.21011 1.83239 7.20734 0.5
199 6.7106 10.3135 9.92443 0.25
200 7.25425 0.89102 6.50848 0.25
201 6.06866 6.80305 6.72849 0.25
202 3.21021 7.80111 5.38001 0.25
203 4.40873 9.88483 0.410392 0.25
204 0.144825 3.62823 6.38472 0.25
205 3.94765 0.0106196 6.03938 0.25
206 0.685411 2.82578 4.21472 0.25
207 1.27565 5.303 3.84843 0.5
208 4.25174 4.78889 6.17348 0.25
209 6.93033 9.73582 2.71542 0.25
210 3.81717 0.171672 6.51888 0.25
211 1.6379 4.83398 2.36535 0.25
212 0.140984 3.90127 2.04481 0.5
213 8.89678 4.34045 1.78515 0.25
214 3.39413 5.06575 6.10758 0.25
215 9.94699 0.672203 8.97181 0.25
216 4.97719 1.96753 0.442648 0.25
217 0.26446 7.80814 5.587 0.25
218 2.30466 1.2095 1.85863 0.5
219 0.713562 4.18041 6.21816 0.25
220 6.41884 9.73464 2.02643 0.25
221 8.99574 7.07886 3.50465 0.25
222 9.044 6.58874 6.83976 0.25
223 5.53641 9.53025 5.20103 0.25
224 9.58034 3.41004 6.92585 0.25
225 8.25154 1.41181 5.68233 0.25
226 6.29302 8.90074 5.11452 0.25
227 6.91056 0.483482 1.43332 0.25
228 5.77289 2.104 0.763529 0.25
229 2.54075 1.95856 1.08056 0.25
230 8.19261 7.52633 4.2673 0.25
231 6.3532 4.2957 7.54397 0.25
232 6.87906 9.6298 2.20878 0.25
233 7.75379 1.78216 8.62268 0.5
234 4.14873 9.77147 1.789 0.25
235 1.3234 8.56494 7.03059 0.25
236 1.3692 5.83888 0.473231 0.25
237 8.07687 1.11082 4.05353 0.25
238 0.986702 5.9925 4.02894 0.25
239 0.426539 3.04057 9.8144 0.25
240 1.29738 9.00208 2.15921 0.5
241 1.76183 9.62814 1.8392 0.25
242 3.45033 7.20955 6.47109 0.25
243 1.20935 6.70703 0.59034 0.25
244 1.04608 1.64421 7.00003 0.25
245 5.56544 6.89857 6.74545 0.25
246 2.12403 8.26585 10.1914 0.25
247 2.58447 7.89554 3.10643 0.25
248 5.61211 2.22826 8.56783 0.25
249 6.88412 4.10751 5.26946 0.25
250 7.40821 1.31963 6.75073 0.25
251 1.61655 1.16463 6.70579 0.25
252 7.13528 6.08855 8.40893 0.25
253 3.63222 7.16576 8.99171 0.25
254 1.27374 9.65708 1.86949 0.25
255 1.3372 0.629378 1.51739 0.25
256 4.2593 5.23257 4.53166 0.25
257 0.634875 0.140506 9.90672 0.25
258 5.09976 5.08026 7.39177 0.25
259 1.58949 9.51834 4.59814 0.25
260 1.48764 10.2891 -0.0121364 0.25
261 7.59489 7.34322 8.45475 0.25
262 5.37408 6.22341 3.9842 0.25
263 8.57639 8.91056 9.66319 0.25
264 7.44521 9.54672 9.87531 0.5
265 4.22588 4.00667 2.46715 0.25
266 3.94335 3.89923 2.09096 0.25
267 3.47881 8.25933 5.93677 0.25
268 3.59569 7.65227 6.48002 0.25
269 7.29038 8.79795 6.14316 0.25
270 3.70193 8.17441 6.41253 0.25
271 4.32019 8.94652 1.73915 0.25
272 5.73973 6.5592 5.29971 0.25
273 10.1327 3.67982 8.05251 0.25
274 3.78458 4.7845 6.38877 0.25
275 10.2916 6.91656 2.63799 0.25
276 8.22443 0.753173 8.55496 0.25
277 2.9134 10.1358 8.08743 0.5
278 4.41061 5.93143 8.52229 0.25
279 2.71439 0.0475538 8.75476 0.25
280 3.66935 0.414925 9.39489 0.25
281 4.70965 8.18388 3.79345 0.25
282 4.72613 1.31486 3.14567 0.25
283 9.50692 10.3414 8.82627 0.25
284 1.77868 5.4693 0.223012 0.25
285 8.70982 6.87991 1.15065 0.25
286 9.88776 1.60697 2.15312 0.25
287 1.18977 7.94353 2.56267 0.25
288 1.32381 5.79261 4.36695 0.25
289 9.18435 1.54648 0.918768 0.25
290 8.92902 3.73485 2.25664 0.25
291 8.33983 3.09274 0.0879038 0.25
292 4.12331 9.41148 1.47446 0.25
293 4.71037 2.56445 7.07716 0.5
294 0.233262 6.92958 2.26424 0.25
295 7.05069 0.882046 7.21713 0.5
296 2.76186 2.99944 4.36607 0.25
297 0.250519 7.81171 5.15705 0.25
298 4.55449 9.17877 0.789355 0.25
299 8.86793 5.14212 9.80175 0.25
300 1.3661 10.2661 4.85099 0.25
301 4.94061 7.85133 8.22996 0.25
302 5.15723 4.99309 8.19242 0.25
303 8.90574 5.57695 0.0640104 0.5
304 4.99659 3.39559 2.35281 0.25
305 1.44469 8.3585 2.54118 0.25
306 9.72936 7.52643 9.26838 0.25
307 1.40504 0.14266 9.90515 0.25
308 8.86064 6.04232 6.23493 0.25
309 8.54864 1.67427 8.47143 0.25
310 5.99248 7.23973 5.97685 0.25
311 1.76091 0.759222 2.14438 0.25
312 8.87995 0.932874 8.65559 0.5
313 1.24036 8.23056 2.0914 0.25
314 0.80565 4.32951 2.19618 0.25
315 2.95781 0.606574 9.19185 0.5
316 7.34275 3.82598 7.12096 0.25
317 6.35263 9.82817 8.70521 0.25
318 9.93627 7.75069 9.6965 0.25
319 10.1857 9.72144 3.31444 0.25
320 1.21831 2.21898 10.0871 0.25
321 2.18307 1.85932 1.45879 0.25
322 0.736067 6.90627 4.95213 0.25
323 6.24796 10.0067 9.47247 0.5
324 6.97672 1.79249 2.79438 0.25
325 9.18521 3.93666 1.9107 0.25
326 2.76289 10.227 4.16634 0.25
327 1.3521 9.00029 7.89326 0.25
328 4.76569 3.84311 2.36895 0.25
329 8.20797 7.14697 3.67977 0.5
330 10.1201 7.09123 2.24778 0.25
331 9.41936 10.3294 4.01643 0.25
332 6.76801 7.45971 0.26046 0.25
333 0.0626095 7.95148 9.03762 0.25
334 6.67819 5.34269 1.54356 0.25
335 6.02627 5.14426 0.668774 0.25
336 9.22819 4.15795 1.40957 0.25
337 4.70962 5.63352 8.69376 0.25
338 7.35474 8.39327 2.18045 0.25
339 3.91147 5.86758 8.53403 0.25
340 0.90875 2.59345 10.3217 0.25
341 3.7665 5.39711 4.33482 0.25
342 10.1628 3.47162 7.56934 0.25
343 10.1176 2.75325 4.16118 0.25
344 4.32108 1.06766 2.96092 0.25
345 6.52437 4.08404 0.166759 0.25
346 1.19805 1.58581 7.4842 0.25
347 3.32671 3.75603 0.608566 0.25
348 5.95025 7.71366 0.513546 0.25
349 4.83914 1.38362 7.53644 0.25
350 2.65486 3.40149 7.51829 0.25
351 5.83948 6.69881 3.48469 0.25
352 8.34077 6.79917 1.42946 0.25
353 10.0659 3.18284 7.10552 0.25
354 9.70368 3.70814 2.00387 0.25
355 2.96622 1.43449 2.03062 0.25
356 3.81486 9.64732 0.893999 0.25
357 3.36646 4.56941 6.08937 0.25
358 4.20628 9.51408 0.579243 0.25
359 8.94502 6.43749 0.551373 0.5
360 4.15813 10.1842 6.4672 0.25
361 0.256636 0.582491 6.51101 0.25
362 10.3332 8.04073 9.51642 0.25
363 7.55507 2.80271 2.77565 0.25
364 10.3197 6.83986 1.8456 0.25
365 5.89796 9.19601 5.0401 0.25
366 8.99114 4.23907 2.26355 0.25
367 3.37298 0.673805 8.55673 0.25
368 9.78392 6.37745 7.09264 0.25
369 9.29013 4.15729 4.49448 0.5
370 4.84934 1.7056 6.8076 0.5
371 9.64758 6.66915 1.76621 0.5
372 1.19806 2.31977 4.13296 0.5
373 3.45875 0.158348 8.38915 0.25
374 3.60483 0.256871 8.89107 0.25
375 5.16275 1.2375 2.78321 0.25
376 0.833714 5.59785 4.34211 0.25
377 9.94172 7.99667 9.2018 0.25
378 9.04419 9.09538 0.879757 0.25
379 0.210806 4.12116 6.31464 0.25
380 1.9254 2.1429 4.31277 0.25
381 7.12956 5.51296 2.08079 0.5
382 2.20561 7.88949 9.96031 0.25
383 5.39166 8.58441 7.7618 0.25
384 1.73256 6.6572 7.44637 0.25
385 1.20208 6.96028 4.8514 0.25
386 1.69435 5.35962 7.42463 0.25
387 1.19133 6.03523 7.6797 0.25
388 2.97972 1.8338 1.2166 0.25
389 4.79549 1.8225 0.90568 0.25
390 3.29877 3.34972 0.289761 0.25
391 3.85183 0.513344 6.11126 0.25
392 0.755021 5.44239 4.80033 0.25
393 9.06807 8.58594 6.80104 0.25
394 10.1774 0.811417 6.51086 0.25
395 1.99328 4.76074 2.7694 0.25
396 3.34491 0.32713 9.73449 0.25
397 7.03946 2.16111 3.12215 0.25
398 9.38315 4.62974 9.37847 0.25
399 2.42684 9.94921 7.42343 0.25
400 8.30562 2.42658 9.92388 0.25
401 5.59885 6.68929 3.94982 0.25
402 4.26203 5.762 8.91193 0.25
403 6.37213 4.85327 0.40493 0.25
404 7.3146 2.70516 9.911 0.25
405 1.52802 6.3154 0.436182 0.25
406 6.37107 9.3518 5.14148 0.25
407 7.28091 6.94307 8.30748 0.25
408 9.68833 8.97897 1.32897 0.25
409 0.294037 6.50793 2.06055 0.25
410 5.44461 1.57103 4.24165 0.25
411 7.99486 9.45932 9.34275 0.25
412 4.74765 1.90746 7.48701 0.25
413 7.04935 2.6528 2.90976 0.25
414 6.73903 5.93513 2.65917 0.25
415 4.94466 0.663517 3.1787 0.5
416 9.86466 0.218001 9.18723 0.25
417 3.79011 7.61099 5.85029 0.5
418 0.914614 1.05851 6.48519 0.5
419 9.20455 0.271202 3.70157 0.25
420 5.12733 8.96441 7.66034 0.25
421 9.0132 6.46224 7.33207 0.25
422 2.55396 7.42492 3.09189 0.25
423 1.61835 5.11313 2.77542 0.25
424 0.408985 0.3189 9.10159 0.25
425 1.88401 0.0852192 4.7826 0.25
426 2.9417 1.40871 1.51834 0.25
427 7.00989 1.33772 6.54138 0.25
428 7.09116 9.33693 1.87514 0.25
429 5.33139 9.40764 7.78765 0.25
430 9.46817 9.15974 3.73516 0.25
431 7.26 0.602076 0.661813 0.25
432 2.56716 7.64933 10.1372 0.25
433 2.9935 2.70509 5.2023 0.25
434 6.00392 9.48415 8.92458 0.25
435 0.0468633 3.30736 9.74775 0.25
436 6.70002 4.45793 0.4348 0.25
437 0.904721 5.75928 9.7881 0.25
438 7.70177 0.948892 6.76416 0.25
439 9.40882 9.86362 3.49349 0.5
440 2.41552 2.72028 7.59556 0.5
441 0.964274 3.87686 2.27993 0.25
442 6.78512 7.75998 10.2695 0.25
443 9.66812 9.86909 4.25131 0.25
444 1.20563 3.6272 1.96413 0.25
445 5.41968 6.93403 3.46024 0.25
446 8.42212 4.7321 4.83457 0.25
447 6.45724 4.50748 -0.0188056 0.25
448 4.83071 1.25211 3.95462 0.5
449 0.299073 0.177223 6.19101 0.25
450 2.85722 1.16905 2.41259 0.25
451 2.80744 3.99879 0.0248252 0.25
452 6.14802 4.28382 4.3456 0.25
453 7.27711 4.24727 8.48372 0.25
454 1.61808 6.04547 8.544 0.25
455 1.28655 6.22266 8.17471 0.25
456 2.54899 1.54907 1.29215 0.25
457 9.78895 9.26371 0.591305 0.5
458 1.48358 5.85052 7.28584 0.25
459 1.57785 1.42503 6.28169 0.25
460 1.94849 5.71244 7.24794 0.25
461 3.98186 6.37443 0.968557 0.25
462 4.35027 6.58342 1.23841 0.25
463 1.49915 9.80382 4.16161 0.25
464 9.81806 1.02523 1.52762 0.25
465 6.4303 5.57863 2.47925 0.25
466 4.7278 5.51423 7.92293 0.5
467 3.16341 5.27645 5.66795 0.25
468 2.68804 1.65296 2.35827 0.25
469 4.85612 3.54535 2.833 0.25
470 4.10098 3.91186 2.94734 0.25
471 2.90127 10.2864 4.98579 0.25
472 2.05537 2.09384 7.63201 0.25
473 2.71591 7.97239 9.18466 0.25
474 9.30224 4.4334 2.62546 0.25
475 8.07972 6.73766 4.29077 0.25
476 4.15828 6.63869 1.71522 0.25
477 10.0396 9.77769 3.82738 0.25
478 8.65713 6.10797 1.341 0.5
479 6.65977 0.177639 1.06354 0.25
480 2.57244 8.17576 10.0115 0.25
481 3.84715 9.793 1.36281 0.25
482 6.57658 9.71936 5.32551 0.25
483 6.82163 0.133412 0.3066 0.5
484 9.6963 3.3778 7.39246 0.25
485 7.63275 2.75324 10.3375 0.25
486 4.08846 8.71592 3.60452 0.25
487 3.70305 3.6606 0.261123 0.25
488 6.66237 9.31655 1.9715 0.25
489 8.38987 6.43825 3.49099 0.25
490 2.2834 3.12948 8.21423 0.25
491 8.70686 8.93286 6.68515 0.25
492 8.53914 2.85442 9.99164 0.25
493 9.77267 3.76539 7.66166 0.25
494 8.58278 3.9081 4.83787 0.25
495 9.39934 3.72452 7.27505 0.25
496 4.33378 1.71485 6.21847 0.25
497 3.06077 4.13128 0.457445 0.25
498 8.06016 1.0836 8.89107 0.25
499 4.51495 9.44631 1.74206 0.25
500 4.02173 7.25207 8.65284 0.25
501 2.48408 9.86328 4.37247 0.25
502 9.23218 5.76352 6.34451 0.25
503 6.65326 8.1952 2.59152 0.25
504 6.41922 7.3606 10.2618 0.25
505 7.62398 1.21418 5.95728 0.5
506 5.72947 10.3736 5.45278 0.25
507 7.13389 8.36239 2.64536 0.25
508 5.10468 8.21785 8.53264 0.25
509 1.35212 9.05125 7.03244 0.25
510 5.97906 4.18347 5.20843 0.25
511 4.29097 0.286444 6.29907 0.25
512 1.97804 5.33413 3.47757 0.25
513 1.64203 5.49046 10.1128 0.25
514 3.59523 2.03585 5.19903 0.25
515 2.00086 1.49281 7.26805 0.5
516 6.06005 9.35844 5.75545 0.5
517 8.35881 6.43894 4.01863 0.25
518 3.00112 0.659425 9.95303 0.25
519 2.59172 9.89671 4.88644 0.25
520 5.1558 2.16207 7.49722 0.25
521 1.12113 4.21507 5.49145 0.25
522 2.19025 10.1152 4.61935 0.25
523 3.02001 3.15702 7.7734 0.25
524 8.54882 2.06139 5.25125 0.25
525 2.23535 6.48284 7.33696 0.25
526 1.78347 5.56783 8.49245 0.25
527 6.33162 9.27526 2.64283 0.5
528 6.82145 8.93522 3.13412 0.25
529 3.93821 6.67601 2.14943 0.25
530 1.8535 8.593 2.49976 0.25
531 0.247179 3.09988 9.32938 0.25
532 2.11611 8.66333 0.202608 0.25
533 8.87775 9.72246 3.9971 0.25
534 8.91791 4.67771 4.80267 0.25
535 6.88365 6.33376 8.74874 0.25
536 4.69904 9.51961 0.490584 0.25
537 7.44787 1.06795 3.55485 0.25
538 6.5243 4.20392 8.00351 0.25
539 10.1013 3.88569 6.95212 0.5
540 6.11824 10.1418 8.36067 0.25
541 9.44211 8.82296 0.959238 0.25
542 7.81393 8.92431 5.48418 0.25
543 9.03726 4.72999 4.00747 0.25
544 1.75191 2.24069 7.29823 0.25
545 9.91204 9.41611 3.04562 0.25
546 0.211923 1.01431 6.28209 0.25
547 9.47829 3.74445 1.5792 0.25
548 9.1791 4.94908 9.0733 0.25
549 1.30278 0.698113 2.02492 0.25
550 9.36935 9.29568 1.15559 0.25
551 2.89401 7.63494 3.4338 0.25
552 8.8982 9.36826 6.55611 0.25
553 5.88096 2.57152 4.9672 0.25
554 8.69285 4.76435 4.38448 0.25
555 5.60485 9.00527 7.72131 0.25
556 1.74305 8.70412 7.25766 0.25
557 2.95136 9.79033 7.43626 0.25
558 2.32561 3.65578 8.24972 0.25
559 9.60432 1.02932 9.07875 0.25
560 3.81806 4.83051 5.91408 0.25
561 0.82554 3.90551 1.82223 0.25
562 5.18443 4.78237 9.83619 0.25
563 5.61167 10.0242 8.41389 0.25
564 1.45519 1.82593 7.15419 0.25
565 2.3923 1.35669 2.58231 0.25
566 9.58433 6.56836 6.73089 0.25
567 0.820518 6.40794 0.7863 0.25
568 8.04696 1.21802 5.28867 0.25
569 7.02984 4.44891 7.47215 0.5
570 5.07239 3.94427 2.75912 0.25
571 3.77122 3.89617 2.57203 0.25
572 8.39006 1.44313 8.93333 0.25
573 1.15435 6.78395 5.27685 0.25
574 0.417956 1.07953 5.87922 0.25
575 5.65113 3.97447 4.94046 0.25
576 5.27233 1.98178 0.773207 0.25
577 0.100267 7.38752 5.33944 0.25
578 1.01572 5.37094 0.0814641 0.5
579 5.39046 5.13039 7.77356 0.25
580 7.86158 7.14955 4.34568 0.25
581 6.79345 7.0247 8.2758 0.25
582 7.2585 4.51566 4.69431 0.25
583 8.73836 5.58966 6.22317 0.25
584 5.1248 6.60394 3.2869 0.25
585 6.87081 0.606687 0.958128 0.25
586 1.69277 2.47649 4.65493 0.25
587 6.17399 10.0524 5.54642 0.25
588 2.98574 1.35902 9.42323 0.25
589 9.96395 3.80313 1.58657 0.25
590 8.7564 6.63303 3.74931 0.25
591 3.8705 2.40892 5.03649 0.25
592 6.8079 5.44474 2.77262 0.25
593 5.50193 9.81367 6.04808 0.25
594 8.39775 5.94092 10.0054 0.25
595 1.5672 1.9203 7.64718 0.25
596 9.98076 8.65768 1.01506 0.25
597 4.68906 1.15854 2.64816 0.25
598 6.54845 6.98929 0.233131 0.25
599 9.7879 1.11017 2.07622 0.25
600 3.80251 9.03529 1.69288 0.25
601 7.40409 9.67761 2.04697 0.25
602 6.19693 8.14813 2.33508 0.25
603 2.30222 6.00203 7.24612 0.25
604 8.94372 0.793209 1.09754 0.25
605 1.73205 8.27096 2.16298 0.25
606 1.7902 2.01412 6.83613 0.25
607 2.56432 2.00887 7.49006 0.25
608 6.68455 6.82137 5.79413 0.5
609 4.30851 6.03922 1.07379 0.25
610 6.52427 4.72287 1.09798 0.5
611 8.36949 8.70765 7.39978 0.25
612 8.43228 0.438548 3.83003 0.5
613 8.05637 2.7292 0.278089 0.25
614 9.51792 6.71121 0.975195 0.25
615 7.68663 4.10708 7.39574 0.25
616 1.4381 1.64363 6.67871 0.25
617 2.2147 3.41086 7.73821 0.25
618 7.72593 2.49114 9.91983 0.25
619 1.56771 9.68007 2.23723 0.25
620 6.3958 5.72295 2.94529 0.25
621 6.85648 4.52694 1.75807 0.25
622 6.55111 6.6842 8.66824 0.25
623 7.9248 4.19649 4.84471 0.5
624 4.72028 8.505 8.72761 0.25
625 5.07563 2.21652 10.3276 0.25
626 2.38356 2.82732 4.08368 0.25
627 7.28562 5.29313 2.86206 0.25
628 1.13463 9.93847 0.111664 0.25
629 7.2081 10.2447 10.0576 0.25
630 6.11607 7.41261 0.859614 0.25
631 8.54361 1.85102 5.6713 0.25
632 3.23771 3.81211 0.122172 0.25
633 2.86561 3.64035 0.365383 0.25
634 4.47141 7.85475 8.81768 0.5
635 9.33637 6.26501 6.98543 0.25
636 8.59683 5.56091 9.69787 0.25
637 6.28137 9.24454 4.69358 0.25
638 2.02877 10.2886 3.97019 0.5
639 7.18468 3.00185 2.53724 0.25
640 7.40366 1.68069 7.91897 0.25
641 4.15888 5.62819 4.18622 0.25
642 3.49235 7.91704 6.84464 0.25
643 3.21267 1.75296 9.61352 0.25
644 6.0241 9.90656 4.85029 0.5
645 3.19623 3.95792 9.9993 0.25
646 8.33791 7.10031 4.45119 0.25
647 6.00083 6.95925 5.49498 0.25
648 6.99993 1.32487 7.79976 0.25
649 4.60971 5.99212 9.0141 0.25
650 7.97936 1.09803 3.55734 0.25
651 4.78417 8.33291 8.21974 0.25
652 1.36622 5.71744 8.22778 0.25
653 0.77761 4.45905 5.78478 0.25
654 1.38949 6.31707 7.33701 0.25
655 10.1487 4.20031 1.42562 0.25
656 4.97064 4.84569 7.78805 0.25
657 7.96479 9.32781 6.87784 0.25
658 6.88841 4.45239 8.27841 0.25
659 8.9639 0.134313 4.20666 0.25
660 1.9175 6.02028 7.85993 0.5
661 2.21699 7.1921 2.82789 0.25
662 7.5661 8.64799 5.76509 0.25
663 3.65803 0.761493 9.02299 0.25
664 1.39825 2.64583 10.216 0.25
665 8.30275 6.66474 0.949196 0.25
666 5.53307 9.60188 8.67166 0.25
667 7.73438 2.93417 9.84853 0.25
668 7.16933 1.60237 5.52822 0.25
669 3.34855 7.76313 9.39125 0.5
670 0.11357 3.03021 10.1596 0.25
671 0.89758 6.21901 4.77916 0.5
672 6.38992 6.13124 5.73847 0.25
673 3.6904 9.31873 1.28531 0.25
674 7.09072 4.0991 4.83794 0.25
675 7.9805 8.89692 7.64879 0.25
676 5.61064 1.75378 0.141435 0.5
677 9.93919 3.01731 7.61904 0.25
678 10.1211 0.615028 5.86583 0.5
679 2.20843 2.17176 7.16988 0.25
680 2.98718 7.55831 2.93923 0.25
681 7.89365 8.90845 7.15342 0.25
682 3.48641 8.23829 5.43443 0.25
683 0.854453 3.3305 9.94122 0.25
684 1.72185 8.67938 7.76492 0.25
685 8.84396 -0.0037453 3.40797 0.25
686 6.72121 9.51999 4.87942 0.25
687 9.78197 3.34707 7.89806 0.25
688 5.59388 7.5253 0.775642 0.25
689 2.31424 2.33051 4.08544 0.25
690 10.0385 8.08989 8.69887 0.25
691 0.582425 8.16864 5.80788 0.25
692 1.18626 4.259 6.04841 0.25
693 9.66592 1.90723 4.21399 0.25
694 3.62824 4.02856 10.2436 0.25
695 8.46983 1.52248 5.25453 0.25
696 5.41532 1.05565 3.5724 0.25
697 1.32103 8.75795 7.4644 0.25
698 8.51714 5.80491 0.639397 0.25
699 3.04657 7.46854 5.67955 0.25
700 5.43117 7.94829 0.547933 0.25
701 3.38016 4.86121 5.68703 0.25
702 5.80331 3.98853 4.46159 0.25
703 2.11481 0.433281 1.94223 0.25
704 7.74895 4.15332 8.27805 0.25
705 3.8386 5.77297 9.0527 0.25
706 7.47194 1.32934 7.63699 0.25
707 6.05916 6.16143 5.0554 0.25
708 5.14856 6.64711 3.80159 0.25
709 1.46294 4.33713 1.86914 0.5
710 1.29341 4.60704 5.73608 0.25
711 6.88938 3.71779 7.33831 0.25
712 4.5286 8.65092 3.87013 0.25
713 1.73092 4.93128 3.23036 0.25
714 1.69891 10.0294 4.54768 0.25
715 2.67529 3.32324 8.46966 0.25
716 9.59552 8.48502 0.706106 0.25
717 3.01585 4.92128 5.34147 0.25
718 6.04296 3.35107 5.00748 0.5
719 5.59247 3.20323 5.53268 0.25
720 5.55073 1.08709 4.03231 0.25
721 3.99204 7.77776 6.63514 0.25
722 3.45487 5.61957 4.58998 0.25
723 6.20615 6.31677 6.67144 0.25
724 9.46891 0.487271 8.98602 0.25
725 3.65369 10.0855 6.32826 0.25
726 3.99627 5.64523 4.68556 0.25
727 3.35322 5.6473 4.17107 0.25
728 2.53571 8.08482 0.33042 0.5
729 7.66528 1.94085 6.12768 0.25
730 8.23436 1.25274 8.46403 0.25
731 1.33829 5.79089 9.93739 0.25
732 3.21338 7.52462 6.71199 0.25
733 9.9851 2.20641 3.55981 0.25
734 8.9468 7.07035 3.9498 0.25
735 3.45753 2.54525 5.28533 0.25
736 8.27002 6.308 6.81 0.25
737 0.660211 4.21725 5.40989 0.25
738 5.21395 8.22321 8.04584 0.25
739 3.52986 4.13358 0.30782 0.25
740 8.81139 6.74301 1.66263 0.25
741 7.95808 2.73309 2.48006 0.25
742 5.35229 2.34192 0.480598 0.25
743 9.96245 2.69439 3.67471 0.25
744 2.44516 2.48406 4.80288 0.5
745 0.373194 4.17948 5.85114 0.25
746 7.03493 4.96207 1.62683 0.25
747 8.60553 3.33075 10.1226 0.25
748 6.9684 10.0633 9.6496 0.25
749 7.76068 4.36738 7.7814 0.25
750 4.41389 2.1818 6.45204 0.25
751 1.85963 2.3508 3.84381 0.25
752 9.87128 2.32223 3.99655 0.25
753 0.929635 2.75139 9.57627 0.5
754 8.15816 1.78458 6.02678 0.25
755 8.07915 2.79772 10.1451 0.25
756 5.59318 1.96668 1.23084 0.25
757 0.26986 2.39311 3.78771 0.5
758 1.30328 10.2276 4.31687 0.25
759 5.00914 2.58035 8.20681 0.25
760 4.72472 0.454713 3.83742 0.25
761 6.46978 6.28405 6.25004 0.25
762 0.507211 3.87267 6.61329 0.25
763 6.55941 4.62801 4.91129 0.5
764 5.55754 6.60835 3.07628 0.25
765 7.34564 6.53333 8.60296 0.25
766 1.23861 5.1175 3.10935 0.25
767 6.7885 2.69455 2.46837 0.25
768 5.16468 2.58853 5.68299 0.5
769 0.732806 2.2157 10.1016 0.25
770 5.8012 6.5208 6.09947 0.5
771 5.55437 7.52136 0.295089 0.25
772 7.01214 9.06945 5.40642 0.5
773 6.08329 4.16216 10.344 0.25
774 6.72691 8.63673 2.76735 0.25
775 10.0778 7.6431 8.90395 0.25
776 3.97994 10.0056 0.656298 0.25
777 0.955455 8.34837 2.4528 0.25
778 2.97915 0.361805 8.51561 0.25
779 9.90498 7.69492 8.44689 0.25
780 5.18643 5.28872 10.02 0.25
781 5.03084 6.16712 3.60951 0.25
782 9.33989 6.28183 1.20155 0.25
783 4.46401 8.43981 3.4191 0.25
784 3.1815 4.28854 10.3529 0.25
785 8.41338 9.03268 7.78011 0.25
786 6.2074 6.65015 5.11144 0.25
787 6.48538 6.29815 5.27974 0.25
788 5.24244 0.686581 3.86019 0.25
789 6.9897 4.80859 2.15036 0.25
790 4.95982 2.29205 6.43223 0.25
791 8.32147 5.50161 6.50565 0.25
792 4.24867 3.32952 2.51889 0.5
793 10.2797 0.277292 8.85346 0.25
794 2.22385 1.76653 2.31312 0.25
795 1.16474 9.20877 7.48161 0.25
796 1.90188 9.82208 5.16883 0.5
797 9.59284 9.15983 3.28098 0.25
798 9.17457 4.92972 4.40968 0.25
799 3.59567 5.74594 0.950507 0.5
800 10.0421 1.41052 1.31131 0.25
801 5.91048 10.3101 10.032 0.25
802 6.36171 7.79511 0.146052 0.25
803 9.2965 5.07911 9.5732 0.25
804 4.59938 4.95066 7.38472 0.25
805 8.68871 4.33423 4.0883 0.25
806 2.26383 9.81951 7.88362 0.25
807 2.95312 4.82818 5.85653 0.25
808 8.8925 5.72267 9.30926 0.25
809 1.28641 5.34255 9.75971 0.25
810 7.34271 1.71866 6.42936 0.25
811 8.92061 4.74308 9.45986 0.25
812 3.98307 6.2841 1.38071 0.25
813 1.46167 3.80438 2.3393 0.25
814 1.32225 9.99565 9.98571 0.25
815 3.72901 5.13979 5.09884 0.5
816 6.36181 0.241537 10.0262 0.25
817 4.53911 9.87288 1.11271 0.5
818 8.66798 6.25708 10.1847 0.25
819 3.69632 6.53599 1.69701 0.25
820 7.61428 3.91405 8.64241 0.25
821 8.09249 8.46506 7.04521 0.25
822 4.44528 4.14109 3.25945 0.25
823 1.84042 9.40607 7.50769 0.5
824 6.56433 3.87446 7.68942 0.25
825 8.0398 8.81777 6.34208 0.5
826 7.06732 2.90314 2.06892 0.25
827 8.64335 6.5816 7.04204 0.25
828 9.66999 4.11687 1.27594 0.25
829 0.690206 7.84229 4.89131 0.25
830 4.06425 6.21815 1.86946 0.25
831 2.51839 7.6138 2.68325 0.25
832 4.0944 5.40175 9.22902 0.25
833 6.2469 7.04102 6.34943 0.25
834 8.54388 3.88322 4.34532 0.25
835 1.34857 1.28314 7.08044 0.25
836 6.55827 5.1367 2.3543 0.25
837 3.73213 7.07388 9.45394 0.25
838 2.57369 9.50498 7.26342 0.25
839 0.212549 1.71638 4.06374 0.25
840 9.54763 4.802 4.11483 0.25
841 5.79314 4.87216 10.3167 0.5
842 6.94633 6.55804 8.34271 0.25
843 1.11207 9.74729 2.32316 0.25
844 6.6323 4.95203 1.83951 0.25
845 8.59458 4.34124 4.59731 0.25
846 1.21643 5.42789 4.63596 0.25
847 8.15198 3.25254 9.99869 0.25
848 3.5606 1.09512 9.71657 0.5
849 6.91393 4.98448 2.67351 0.25
850 4.06567 8.69977 4.09495 0.25
851 4.06872 5.83474 1.524 0.25
852 5.44844 1.52704 3.73941 0.25
853 9.15919 10.0029 4.26503 0.25
854 2.83812 2.94881 8.22238 0.25
855 3.91961 6.7577 1.30884 0.25
856 9.44972 2.99004 7.6448 0.25
857 6.62144 3.87421 4.87219 0.25
858 8.55528 7.77461 3.97883 0.25
859 9.53767 1.36896 1.27055 0.25
860 2.62272 10.0457 5.3088 0.25
861 3.71906 9.52618 1.75649 0.25
862 7.61109 0.957021 8.23912 0.5
863 0.400513 3.44643 10.0539 0.25
864 4.201 3.57684 1.81471 0.25
865 0.666352 6.65626 5.35064 0.25
866 2.97578 1.17704 10.2407 0.25
867 2.9189 8.42914 9.20942 0.25
868 9.40287 0.881066 1.28088 0.25
869 0.392307 8.26664 4.97523 0.25
870 6.99939 6.86553 8.73231 0.25
871 7.5471 2.94368 2.23326 0.25
872 8.10539 1.63244 7.77754 0.5
873 5.30136 10.0043 5.25272 0.25
874 6.67623 9.0501 4.7987 0.25
875 3.67719 7.86945 5.20087 0.25
876 3.63351 6.05618 1.6263 0.25
877 0.534634 2.43153 4.48715 0.25
878 10.3004 0.5123 9.25659 0.25
879 0.451083 7.37867 4.94233 0.25
880 5.92017 4.39346 4.76865 0.25
881 4.09139 6.52806 8.96738 0.5
882 9.8601 0.486535 6.585 0.25
883 5.86936 2.78074 5.43991 0.25
884 2.79596 2.11428 1.81144 0.5
885 8.63597 10.0343 3.70684 0.25
886 9.58668 8.46124 1.20781 0.25
887 1.43379 6.50299 7.7748 0.25
888 1.76785 0.672586 1.70064 0.25
889 4.88839 5.1895 8.59339 0.25
890 0.505867 3.73934 6.10066 0.25
891 4.45597 3.98882 1.99579 0.25
892 6.24093 8.56238 2.57675 0.25
893 7.97652 2.34335 10.31 0.25
894 1.87447 8.71383 10.1123 0.25
895 9.60398 2.96939 7.19939 0.25
896 9.38288 1.15279 1.73189 0.25
897 3.67631 7.42314 6.88905 0.25
898 1.0454 4.80759 5.07428 0.5
899 0.490058 0.612644 6.08298 0.25
900 8.62877 6.84252 4.19855 0.25
901 0.637585 8.07135 5.30719 0.25
902 5.14446 1.54177 0.707939 0.25
903 7.68686 7.50672 4.06455 0.25
904 0.91823 6.23595 0.0103159 0.5
905 9.2782 1.11422 0.922704 0.25
906 9.76631 9.45402 4.04956 0.25
907 4.61249 3.95477 2.82172 0.25
908 7.13874 7.32857 8.59041 0.25