ITEM: TIMESTEP
910000
ITEM: NUMBER OF ATOMS
1000
ITEM: BOX BOUNDS xy xz yz pp pp pp
0.0000000000000000e+00 1.0357442000000001e+01 0.0000000000000000e+00
0.0000000000000000e+00 1.0357442000000001e+01 0.0000000000000000e+00
0.0000000000000000e+00 1.0357442000000001e+01 0.0000000000000000e+00
ITEM: ATOMS id x y z radius
1 1.66046 4.46016 2.873 0.5
2 1.86552 7.78878 2.74657 0.5
3 4.9863 1.65754 1.28222 0.25
4 0.524564 2.71843 4.54239 0.25
5 9.84467 2.8315 7.11429 0.25
6 0.482678 2.91964 9.60603 0.25
7 4.31633 1.29669 3.13781 0.25
8 9.10698 4.58078 2.40339 0.25
9 9.83757 1.52481 1.81078 0.25
10 9.14504 6.66801 4.00442 0.25
11 9.95768 8.84139 1.88422 0.25
12 8.33143 2.77925 9.77365 0.25
13 3.74413 7.39056 5.95109 0.25
14 5.19523 2.091 0.129893 0.25
15 8.93451 5.91264 6.3013 0.25
16 8.62078 8.52848 6.53902 0.25
17 5.20947 9.07478 8.44096 0.5
18 2.86335 8.23353 10.2852 0.25
19 6.8927 4.44618 5.00919 0.25
20 9.22693 1.00901 1.67794 0.25
21 0.459108 10.0795 9.48974 0.25
22 4.19695 1.26552 3.60001 0.25
23 4.53379 3.78558 3.05748 0.25
24 2.74193 2.47815 4.06445 0.25
25 7.18926 1.98946 5.81359 0.25
26 5.31976 2.80464 8.16961 0.25
27 1.68395 7.99875 10.3517 0.25
28 9.32635 5.9906 6.50956 0.25
29 3.68202 7.66793 5.51807 0.25
30 1.28643 8.29612 7.1525 0.25
31 1.33824 7.37428 4.84729 0.25
32 9.00896 6.94132 1.29705 0.25
33 9.67929 8.44437 1.79795 0.25
34 0.838899 2.74948 10.3662 0.25
35 8.67813 2.43494 9.98936 0.25
36 8.07092 8.66915 9.29432 0.25
37 4.1182 5.42014 5.81861 0.25
38 6.80868 0.704054 0.688281 0.25
39 5.50315 4.44357 4.88147 0.25
40 8.44867 4.30832 4.74828 0.25
41 8.60778 6.81856 3.33833 0.25
42 6.45067 8.61143 2.36534 0.5
43 0.358371 8.35737 6.05514 0.25
44 2.87833 10.3503 4.94843 0.25
45 7.43551 6.96457 8.18827 0.25
46 1.14359 8.39055 7.64576 0.25
47 3.88584 8.82534 3.50515 0.25
48 2.71013 10.2152 5.36534 0.25
49 4.33483 5.90486 9.35592 0.25
50 10.0857 9.318 3.86159 0.25
51 9.7502 8.88756 0.719452 0.25
52 6.18939 7.27231 0.161138 0.25
53 6.61018 5.54281 1.86604 0.25
54 5.01413 4.81363 8.33152 0.25
55 5.45784 6.86142 6.3834 0.25
56 5.5466 1.34889 0.712224 0.25
57 4.87389 1.71056 0.382863 0.25
58 6.21597 4.21421 0.679185 0.25
59 3.85929 7.9268 8.97808 0.25
60 7.12449 7.38299 8.22046 0.25
61 3.29631 10.2223 8.71351 0.25
62 9.38444 5.77669 6.98077 0.25
63 0.692222 5.66596 4.69701 0.25
64 10.3486 1.51704 1.73501 0.25
65 6.20251 7.21435 6.56566 0.25
66 3.97013 0.988197 3.22922 0.25
67 8.78315 4.60531 9.37232 0.25
68 6.361 0.287015 10.3244 0.25
69 2.00455 7.45199 3.47482 0.25
70 4.4013 5.84764 4.03552 0.25
71 1.15698 8.30224 2.11333 0.25
72 5.46319 6.91629 3.46453 0.25
73 9.19556 8.59075 7.07733 0.5
74 2.21418 7.08505 2.7421 0.25
75 1.02733 5.71222 0.592262 0.25
76 1.95874 8.39616 0.000870815 0.25
77 6.9756 6.92288 8.41465 0.25
78 4.29239 9.4298 1.65315 0.25
79 0.883374 5.25248 9.67526 0.25
80 8.40216 8.93402 9.514 0.25
81 8.57228 9.43161 7.43139 0.25
82 2.22874 0.454285 2.16937 0.25
83 1.30512 8.41983 2.60881 0.25
84 5.22903 9.35029 5.07713 0.25
85 4.25694 6.12714 0.977405 0.25
86 9.72256 3.72322 2.19028 0.5
87 1.75639 5.33938 8.45107 0.25
88 3.02977 3.94171 7.98923 0.25
89 0.570743 0.0121434 9.89334 0.25
90 7.17787 10.3098 1.71711 0.5
91 3.95127 8.81385 4.01584 0.25
92 9.781 1.14853 1.11767 0.25
93 8.22718 0.956105 8.28795 0.25
94 0.975131 4.13941 2.62098 0.25
95 7.46442 8.49028 5.77095 0.25
96 7.81263 1.02712 6.72395 0.25
97 5.58926 9.60085 5.27498 0.25
98 10.2007 0.877382 6.09781 0.25
99 5.365 2.10485 8.2861 0.5
100 5.22963 2.79543 5.45083 0.25
101 5.19361 2.51436 9.80796 0.5
102 4.3399 5.17417 8.47432 0.5
103 7.26959 0.616764 0.74817 0.25
104 1.18447 9.86438 9.77305 0.25
105 2.22508 4.89889 3.0554 0.25
106 6.10985 6.34697 6.52107 0.25
107 5.82284 10.0998 8.4766 0.25
108 1.81857 4.09534 1.71873 0.25
109 7.49919 2.26717 2.23802 0.25
110 5.41728 9.79298 5.66323 0.25
111 1.69867 5.71586 0.035277 0.25
112 3.7195 5.30351 5.57888 0.25
113 1.33556 0.205631 4.24348 0.25
114 8.36259 6.2564 0.182918 0.25
115 4.19546 3.03389 2.24092 0.25
116 0.116261 2.06924 3.66974 0.25
117 6.90945 2.51904 2.72874 0.5
118 6.90582 8.04581 2.61508 0.25
119 9.92372 2.57112 4.45067 0.25
120 1.56828 5.65102 9.93357 0.25
121 7.39336 1.92168 5.10553 0.5
122 1.85207 5.02911 2.35725 0.25
123 9.52108 9.35679 1.35925 0.25
124 8.318 6.42675 0.611023 0.25
125 1.66127 9.79228 4.57464 0.25
126 6.14936 7.49027 0.605161 0.25
127 6.14286 7.80319 0.203926 0.25
128 9.19239 9.6028 4.14433 0.25
129 1.7978 5.0692 3.34633 0.25
130 9.41304 9.17812 0.930479 0.25
131 7.05499 2.05468 2.12593 0.25
132 8.32464 4.7429 4.86154 0.25
133 7.97537 9.17038 9.36172 0.25
134 5.01768 3.74688 2.9961 0.25
135 6.09445 9.41712 8.58519 0.5
136 8.54086 8.98342 7.18616 0.25
137 1.36175 9.71058 1.85152 0.25
138 6.96141 4.0941 4.69228 0.25
139 6.89652 3.96355 7.68453 0.5
140 4.32882 8.72644 3.71779 0.25
141 2.13088 1.74198 2.39587 0.25
142 2.99703 2.9307 4.85665 0.25
143 7.89182 2.12654 3.09267 0.25
144 10.0127 7.18466 1.93922 0.25
145 3.8766 7.85822 5.89692 0.25
146 7.37767 9.20292 2.9189 0.25
147 3.94129 5.91502 3.92152 0.25
148 3.21594 1.7053 10.0915 0.25
149 9.56896 7.60733 9.10469 0.25
150 4.62999 4.74379 7.99652 0.25
151 6.96283 9.93393 9.97853 0.25
152 4.61574 9.24187 1.27458 0.25
153 5.49064 1.75763 7.62531 0.25
154 5.68985 9.47387 7.90813 0.25
155 3.45243 6.1134 1.62955 0.25
156 0.843752 8.44162 7.28831 0.25
157 5.22243 0.340426 3.41234 0.25
158 8.65568 9.353 6.42387 0.25
159 3.35385 2.78769 5.10692 0.25
160 2.75721 3.59257 7.76659 0.25
161 3.38887 0.021577 9.19883 0.25
162 4.00292 2.29363 5.774 0.5
163 6.78272 10.1477 2.35417 0.25
164 5.14099 8.30448 8.20631 0.25
165 0.46731 2.9594 10.0992 0.25
166 7.91435 3.69105 7.39461 0.25
167 8.98423 10.0249 4.00744 0.25
168 -0.00357773 7.56934 9.04372 0.25
169 9.94332 6.34926 7.31868 0.25
170 3.26825 0.362227 8.03892 0.25
171 0.842194 9.00025 7.17342 0.25
172 9.36435 5.89521 7.65795 0.25
173 0.106142 1.58626 3.89544 0.25
174 4.56703 1.85592 6.08638 0.25
175 9.45283 3.09102 7.00306 0.25
176 0.823181 6.191 0.709694 0.25
177 9.17817 6.37491 7.6153 0.25
178 7.12061 1.20493 5.00558 0.25
179 2.61867 9.35966 7.74972 0.25
180 7.31029 8.98684 2.16997 0.5
181 0.979017 4.13042 5.65494 0.25
182 7.4093 2.02445 2.98697 0.25
183 2.32743 9.81579 4.74678 0.25
184 8.66611 4.99806 9.73729 0.25
185 8.56727 8.89431 6.16016 0.25
186 2.71241 7.60176 9.80405 0.25
187 2.77487 3.86095 10.2787 0.25
188 5.23243 2.12082 7.50405 0.25
189 10.0592 1.17062 6.52063 0.25
190 1.84119 7.13186 3.0738 0.25
191 5.23383 2.94581 9.05521 0.25
192 8.94633 9.30197 7.10802 0.25
193 5.18625 2.42761 8.9788 0.25
194 4.28424 9.65361 1.13428 0.25
195 5.56477 5.05788 9.59409 0.25
196 4.88898 2.48686 0.181487 0.25
197 8.98743 6.48428 6.86785 0.5
198 7.73711 1.73123 6.94844 0.5
199 7.0577 0.0449827 9.84867 0.25
200 6.98526 1.04353 6.41463 0.25
201 5.93133 6.80323 6.62477 0.25
202 3.35899 7.96183 5.21885 0.25
203 4.30284 10.2079 0.381736 0.25
204 0.592475 3.79292 6.51227 0.25
205 4.05739 10.1609 6.13346 0.25
206 0.55583 1.87699 3.79937 0.25
207 1.37948 5.52747 3.78403 0.5
208 4.19557 5.09364 6.20116 0.25
209 7.34846 9.55821 2.58117 0.25
210 4.1862 0.183503 6.48944 0.25
211 1.41584 5.14379 2.56337 0.25
212 0.302081 4.11812 2.07594 0.5
213 9.53058 4.34888 2.68878 0.25
214 3.45955 4.95441 5.84752 0.25
215 9.93703 0.609489 8.59869 0.25
216 5.64694 2.09855 0.389677 0.25
217 0.59393 7.91018 5.96376 0.25
218 1.91737 1.3564 1.78493 0.5
219 0.928577 4.34655 6.09585 0.25
220 6.69495 9.35095 2.04508 0.25
221 9.10906 7.12319 4.16616 0.25
222 9.69945 6.1184 6.87813 0.25
223 5.69465 9.36731 4.80806 0.25
224 10.2203 3.17634 7.09476 0.25
225 7.8151 1.40727 5.42245 0.25
226 6.49347 8.87133 5.05015 0.25
227 7.46196 0.1547 0.921028 0.25
228 4.64408 1.6805 0.866373 0.25
229 2.15181 2.52412 1.76839 0.25
230 8.53539 7.245 3.60752 0.25
231 7.51031 4.17788 6.7093 0.25
232 7.00827 9.70232 2.21128 0.25
233 8.33954 2.0729 9.36262 0.5
234 3.90065 9.0299 0.834232 0.25
235 0.860748 8.82525 7.62305 0.25
236 1.71947 5.30825 0.338263 0.25
237 7.57447 2.04752 3.48961 0.25
238 1.12011 5.57599 4.51637 0.25
239 0.773125 2.56153 9.43511 0.25
240 1.51355 8.95002 2.14701 0.5
241 1.80221 9.52795 1.72649 0.25
242 3.73319 8.05987 6.35214 0.25
243 1.69941 6.15477 0.327399 0.25
244 1.50574 0.79233 6.91922 0.25
245 5.7416 7.26021 6.46559 0.25
246 2.05328 8.07311 10.0486 0.25
247 2.38552 7.67478 3.30145 0.25
248 5.53425 2.75266 8.69324 0.25
249 6.59625 3.99877 5.0783 0.25
250 7.46334 1.35717 6.47941 0.25
251 1.16265 1.52149 6.36248 0.25
252 6.92738 5.98879 8.8636 0.25
253 4.09045 7.21191 8.71205 0.25
254 1.32027 10.0683 2.26599 0.25
255 1.75587 0.664853 2.08453 0.25
256 3.60946 5.21728 4.12328 0.25
257 0.879456 10.2328 9.57995 0.25
258 4.88179 5.27297 7.2173 0.25
259 1.38174 10.0284 4.22707 0.25
260 0.717578 10.244 10.3652 0.25
261 6.86932 7.32124 8.70211 0.25
262 5.15358 7.31021 3.31106 0.25
263 8.32705 8.52105 9.72877 0.25
264 7.37789 9.36838 9.85848 0.5
265 4.30894 3.80157 2.2805 0.25
266 3.81218 3.73117 2.26146 0.25
267 3.40674 7.17805 5.61314 0.25
268 3.54689 7.6617 6.25458 0.25
269 7.47639 9.26662 6.15754 0.25
270 3.37056 7.19701 6.17455 0.25
271 3.85742 9.57702 1.43808 0.25
272 6.63083 6.93502 5.49946 0.25
273 10.1825 4.00105 7.56689 0.25
274 3.78979 4.77728 6.20424 0.25
275 10.0845 6.51303 2.72456 0.25
276 8.16779 1.03325 8.79394 0.25
277 2.90259 10.0162 8.01643 0.5
278 4.5626 5.94991 8.47854 0.25
279 2.76116 10.2694 8.72335 0.25
280 3.6476 0.441336 9.28013 0.25
281 3.92519 8.74992 2.98847 0.25
282 5.10376 0.91373 2.91117 0.25
283 9.64001 0.567057 9.34764 0.25
284 1.71218 5.21153 10.1893 0.25
285 8.52123 7.05955 1.19295 0.25
286 10.1325 1.7745 2.11625 0.25
287 1.18769 7.96195 2.47166 0.25
288 1.18737 5.66958 4.99274 0.25
289 9.08892 1.39165 1.35544 0.25
290 8.76619 4.25363 2.21029 0.25
291 8.20105 2.38599 10.0367 0.25
292 4.11733 9.20209 1.20733 0.25
293 4.66353 2.25597 7.1197 0.5
294 0.0747727 6.58871 2.37073 0.25
295 7.17284 0.929831 7.08153 0.5
296 2.80117 2.88531 4.35868 0.25
297 0.298695 8.09774 5.59904 0.25
298 4.81881 9.68729 1.10314 0.25
299 9.08364 5.29475 9.759 0.25
300 2.23823 10.2943 4.51148 0.25
301 4.77025 8.21721 7.87269 0.25
302 5.1047 4.74126 7.8311 0.25
303 8.68379 5.59925 10.3094 0.5
304 4.60312 2.93786 2.5915 0.25
305 1.59106 8.2328 2.2979 0.25
306 9.97132 7.28717 8.91747 0.25
307 0.732636 9.94526 9.97079 0.25
308 8.88022 5.8264 6.78643 0.25
309 8.05025 1.83246 8.58378 0.25
310 6.68764 7.00699 6.35774 0.25
311 2.52741 0.440918 1.68959 0.25
312 8.90909 1.05494 8.64342 0.5
313 2.02504 8.36861 2.14958 0.25
314 0.99857 3.87684 2.15528 0.25
315 2.85951 0.558985 9.11186 0.5
316 7.58927 3.56712 7.7917 0.25
317 6.30328 10.0688 8.63511 0.25
318 10.2023 7.13406 9.35119 0.25
319 10.0167 9.73773 4.11005 0.25
320 1.53489 2.42806 9.91391 0.25
321 1.92601 2.12197 2.09004 0.25
322 1.30783 6.96005 4.62981 0.25
323 6.55483 10.0928 9.33692 0.5
324 7.49136 2.45189 3.20867 0.25
325 9.16134 4.28412 1.9153 0.25
326 2.53383 0.273959 5.17871 0.25
327 1.58164 8.69252 7.02112 0.25
328 4.55555 3.35429 2.32096 0.25
329 8.50198 6.63668 4.08143 0.5
330 9.66189 6.45409 2.49574 0.25
331 9.33099 10.3151 4.17674 0.25
332 6.59594 7.45267 0.746408 0.25
333 10.2625 8.00122 9.26511 0.25
334 6.64902 5.19571 1.56099 0.25
335 5.76075 4.38955 0.620131 0.25
336 9.55343 4.40844 2.18871 0.25
337 4.89014 5.6783 8.72235 0.25
338 7.07201 8.26997 2.19445 0.25
339 4.05093 5.83674 8.51861 0.25
340 1.02527 2.29921 10.18 0.25
341 3.56849 5.73379 4.17206 0.25
342 9.76006 3.76377 7.43614 0.25
343 10.0507 1.93097 3.83254 0.25
344 4.29362 0.853605 2.85283 0.25
345 6.39673 4.26141 0.184563 0.25
346 2.04151 1.91622 7.41959 0.25
347 3.36901 3.31498 9.99424 0.25
348 5.94999 7.89792 0.663811 0.25
349 5.26668 1.36615 7.8261 0.25
350 2.43913 3.38668 8.13406 0.25
351 5.30225 6.39828 3.40187 0.25
352 8.18136 6.76707 1.44903 0.25
353 10.1538 3.50855 7.48469 0.25
354 9.65509 3.7544 1.40153 0.25
355 2.52879 1.40042 1.3839 0.25
356 5.05189 9.92292 0.686205 0.25
357 3.63202 4.51741 5.75778 0.25
358 4.59081 10.0372 0.835891 0.25
359 8.82405 6.92416 0.511597 0.5
360 4.33442 0.230467 6.01073 0.25
361 0.141812 0.723933 6.49059 0.25
362 0.0626038 7.57182 9.53724 0.25
363 7.12392 2.60724 2.03316 0.25
364 9.95105 6.86128 2.32688 0.25
365 6.15012 9.11071 4.83734 0.25
366 9.15888 4.10874 2.40877 0.25
367 3.29785 0.618076 8.47469 0.25
368 9.66222 6.29397 7.72102 0.25
369 8.99835 4.32163 5.11457 0.5
370 5.06583 1.44712 7.05822 0.5
371 9.49097 6.65614 1.76239 0.5
372 1.14194 2.33872 4.12197 0.5
373 3.52402 0.150772 8.3353 0.25
374 3.49429 0.302555 8.76696 0.25
375 5.07976 0.4314 2.94971 0.25
376 0.803553 5.79797 4.19389 0.25
377 9.95929 7.56183 9.3819 0.25
378 9.88041 9.30099 1.05202 0.25
379 0.329944 3.86017 6.10178 0.25
380 1.71792 2.63016 4.57118 0.25
381 7.11556 5.14333 2.15051 0.5
382 2.2207 7.72947 9.76914 0.25
383 5.49591 8.4136 8.51007 0.25
384 1.46978 6.60788 7.54036 0.25
385 1.21856 6.95633 5.11059 0.25
386 2.08004 5.62894 7.68261 0.25
387 1.61096 5.77907 7.5939 0.25
388 2.24854 2.35895 1.30673 0.25
389 5.71482 1.82949 0.759371 0.25
390 2.90393 3.38367 10.1924 0.25
391 3.70007 10.3395 6.50315 0.25
392 0.73974 5.75474 5.18651 0.25
393 9.01955 8.86024 6.39134 0.25
394 10.3132 0.393462 6.20113 0.25
395 2.22094 4.84003 2.60748 0.25
396 3.37546 0.335197 9.64848 0.25
397 7.67077 2.36818 2.70659 0.25
398 9.31334 5.076 8.93738 0.25
399 2.48286 9.7035 7.42582 0.25
400 8.32328 3.19881 10.0698 0.25
401 5.02614 6.81784 3.40343 0.25
402 4.39472 5.72114 8.90987 0.25
403 5.78503 4.92027 0.58651 0.25
404 7.3981 3.20095 0.0949546 0.25
405 1.49112 5.71513 0.496585 0.25
406 6.47273 9.31578 5.18863 0.25
407 6.99947 6.84293 8.91446 0.25
408 9.55355 8.94509 1.65937 0.25
409 10.2797 6.73102 1.92981 0.25
410 4.88944 1.34116 4.2959 0.25
411 8.01333 9.12633 10.2472 0.25
412 4.96908 1.76437 7.7507 0.25
413 7.52365 2.7901 2.3448 0.25
414 7.06629 5.73091 2.64096 0.25
415 4.57504 0.647631 3.45954 0.5
416 10.0533 0.717611 9.12432 0.25
417 3.09213 7.82357 5.85547 0.5
418 0.815964 0.898621 6.66381 0.5
419 9.09964 0.151578 3.76082 0.25
420 5.54191 8.58155 7.99126 0.25
421 9.70179 6.59779 6.96771 0.25
422 2.73594 7.03542 2.89397 0.25
423 1.8773 5.16568 2.83516 0.25
424 0.0682681 0.0680117 9.63349 0.25
425 2.06054 0.184965 4.09854 0.25
426 2.25774 1.85024 1.26903 0.25
427 7.08428 1.52646 6.50368 0.25
428 7.48658 9.73006 2.15198 0.25
429 5.45927 9.01523 7.70914 0.25
430 10.1174 9.35758 3.36832 0.25
431 7.03261 10.2269 0.915156 0.25
432 2.99731 7.77464 10.1268 0.25
433 2.88232 2.63554 5.17783 0.25
434 5.85841 10.0565 8.95582 0.25
435 0.786115 2.94058 9.17736 0.25
436 6.47322 4.6911 0.0161554 0.25
437 0.382763 5.69701 10.3647 0.25
438 7.47986 0.8785 6.38414 0.25
439 9.5419 9.87978 3.52006 0.5
440 2.32026 2.97488 7.51265 0.5
441 1.38762 3.9119 2.44348 0.25
442 5.94847 7.06712 0.539859 0.25
443 9.64073 9.40782 4.06912 0.25
444 1.41162 3.89572 1.91574 0.25
445 5.21092 6.63329 3.82933 0.25
446 8.23814 4.51281 4.36772 0.25
447 6.27253 5.02413 0.345186 0.25
448 4.95066 1.43187 3.53025 0.5
449 0.322011 0.766245 6.06124 0.25
450 2.44862 0.930973 1.50152 0.25
451 3.42639 3.62481 0.407883 0.25
452 5.55745 4.08781 4.53154 0.25
453 6.61853 4.61161 7.69798 0.25
454 1.08096 5.80991 8.46344 0.25
455 1.29282 5.86593 8.04549 0.25
456 1.98372 2.08402 1.6336 0.25
457 10.1176 8.4674 1.23736 0.5
458 2.01008 5.98107 7.27328 0.25
459 1.11916 1.55641 6.84579 0.25
460 2.4803 5.93844 7.51468 0.25
461 3.43279 5.93967 1.11249 0.25
462 3.71276 6.18019 0.824807 0.25
463 1.45301 10.2536 4.64057 0.25
464 10.0679 1.14191 1.60555 0.25
465 6.71023 5.78279 2.32776 0.25
466 4.93913 5.48412 7.91727 0.5
467 3.28696 5.15976 5.44254 0.25
468 2.67823 1.30607 1.80092 0.25
469 4.68431 3.43005 3.34102 0.25
470 4.31432 4.04398 2.75145 0.25
471 2.73371 9.83439 5.03184 0.25
472 2.01905 2.61436 6.94467 0.25
473 2.59218 7.94569 9.46913 0.25
474 8.9604 3.83613 2.00908 0.25
475 7.92077 7.04708 4.31882 0.25
476 3.96602 6.55155 1.06544 0.25
477 9.70709 9.15268 3.63764 0.25
478 8.62013 6.26642 1.25215 0.5
479 7.42737 0.514654 1.2039 0.25
480 2.55034 8.01577 9.98393 0.25
481 4.37426 8.83979 1.03522 0.25
482 6.3685 9.52164 5.65783 0.25
483 7.079 0.143095 0.226992 0.5
484 9.81837 3.32139 7.24054 0.25
485 7.58465 2.9108 10.041 0.25
486 4.20659 8.53164 3.29988 0.25
487 3.06287 3.71501 9.85338 0.25
488 7.06908 9.59977 1.78085 0.25
489 8.6977 6.69989 4.81439 0.25
490 3.01095 3.32368 7.43972 0.25
491 8.65961 8.96367 6.70775 0.25
492 8.46073 2.73921 10.2994 0.25
493 9.56961 3.57644 6.96364 0.25
494 8.21713 4.41999 5.20296 0.25
495 9.84251 3.213 6.75944 0.25
496 4.83207 1.48638 6.30124 0.25
497 3.72189 3.45255 10.3559 0.25
498 8.41164 1.51217 8.92959 0.25
499 3.86836 9.50531 0.932032 0.25
500 4.03116 7.5198 9.12404 0.25
501 2.55569 0.236468 4.69954 0.25
502 9.02474 5.9291 7.27301 0.25
503 6.71363 8.38738 2.97593 0.25
504 6.57645 7.50966 0.274711 0.25
505 7.13457 1.26123 5.77183 0.5
506 5.5842 10.0924 5.27165 0.25
507 7.1461 8.43025 2.64511 0.25
508 4.54734 8.65672 8.69979 0.25
509 1.34111 8.81774 7.80762 0.25
510 5.21521 4.00723 4.95386 0.25
511 3.82946 0.218591 6.10941 0.25
512 1.38831 4.8128 3.45723 0.25
513 1.40827 5.22111 9.77212 0.25
514 3.5375 1.97241 5.19164 0.25
515 1.80595 1.87704 6.74342 0.5
516 5.84231 9.06583 5.50786 0.5
517 8.25757 6.92273 4.72546 0.25
518 2.97247 0.549686 9.84821 0.25
519 2.67281 10.0924 4.59978 0.25
520 5.48341 2.06086 7.13723 0.25
521 1.18915 4.43959 5.3236 0.25
522 1.62557 -0.00357269 3.8961 0.25
523 2.26644 3.68046 7.75713 0.25
524 7.34131 1.33092 4.58283 0.25
525 2.27347 6.81684 7.48575 0.25
526 1.60321 5.78161 8.36601 0.25
527 6.68608 9.4942 2.78072 0.5
528 7.46892 8.70269 2.88832 0.25
529 4.20235 6.80971 1.47321 0.25
530 1.9143 7.90222 2.01447 0.25
531 0.513184 3.33822 9.44411 0.25
532 1.84897 7.99434 9.63462 0.25
533 8.81557 9.60373 3.82721 0.25
534 8.68783 4.70342 4.54431 0.25
535 7.30866 6.13221 8.61454 0.25
536 4.08891 9.96622 0.776629 0.25
537 6.98457 1.7832 2.98745 0.25
538 7.11924 4.36679 7.01224 0.25
539 10.281 3.84616 6.82401 0.5
540 5.96103 9.88505 8.03833 0.25
541 9.66604 8.90744 1.21403 0.25
542 7.34158 8.77912 6.1715 0.25
543 9.16114 4.03994 4.43496 0.25
544 1.56313 1.97561 7.47207 0.25
545 10.3096 9.74514 3.71062 0.25
546 0.177717 0.621636 6.98575 0.25
547 9.56978 4.197 1.64773 0.25
548 9.2261 4.65843 9.18223 0.25
549 2.10019 0.90967 2.35482 0.25
550 9.96869 9.16516 1.50605 0.25
551 2.47526 7.34047 3.6669 0.25
552 9.10966 9.22587 6.64209 0.25
553 5.65606 2.69891 5.67131 0.25
554 8.70746 4.23635 4.36209 0.25
555 5.86047 9.00179 8.02367 0.25
556 1.15523 9.21169 7.50356 0.25
557 2.95698 9.58469 7.44499 0.25
558 3.25945 3.50885 7.78451 0.25
559 9.58249 0.97218 8.47544 0.25
560 3.96693 4.91963 5.76932 0.25
561 1.00751 3.95957 1.66602 0.25
562 5.13263 4.79931 9.81727 0.25
563 5.52256 9.76283 8.21699 0.25
564 1.86643 1.16255 6.96003 0.25
565 2.47019 0.888954 2.00153 0.25
566 9.78738 5.90204 7.37729 0.25
567 1.30121 6.15209 0.643551 0.25
568 7.57116 1.21146 5.0322 0.25
569 7.65172 4.28936 7.46588 0.5
570 4.78885 3.36375 2.84175 0.25
571 3.85875 4.10476 2.53231 0.25
572 8.55989 1.80932 8.57159 0.25
573 0.732599 6.90612 5.19867 0.25
574 0.0410184 1.08947 6.81441 0.25
575 5.83467 3.65802 4.53164 0.25
576 5.10911 1.5759 0.812268 0.25
577 0.279822 7.88635 5.09204 0.25
578 1.00063 5.27858 0.0631457 0.5
579 5.26564 4.97999 7.44136 0.25
580 7.79729 6.85548 3.89247 0.25
581 7.48123 6.78248 9.03687 0.25
582 7.05629 3.96118 5.13854 0.25
583 8.50782 6.01463 6.46178 0.25
584 5.5168 6.97549 3.97829 0.25
585 7.01527 0.336314 1.06389 0.25
586 1.90943 2.69502 4.12354 0.25
587 5.94533 9.81066 5.55731 0.25
588 2.78271 1.32267 9.42898 0.25
589 10.0662 3.98259 1.59364 0.25
590 8.72126 7.11 4.54559 0.25
591 3.74017 2.4385 5.09382 0.25
592 6.64529 5.51875 2.71699 0.25
593 5.16516 9.43203 5.5572 0.25
594 8.81876 6.36784 -0.0377866 0.25
595 1.88275 2.36177 7.33713 0.25
596 9.43015 8.51889 1.39032 0.25
597 4.7357 0.691341 2.69068 0.25
598 6.39903 7.0533 0.529581 0.25
599 10.1284 1.26771 2.09071 0.25
600 3.90816 9.12701 1.67159 0.25
601 7.25169 10.04 2.48946 0.25
602 6.22501 8.37739 3.03659 0.25
603 2.32536 6.37443 7.24575 0.25
604 9.26102 0.579112 1.412 0.25
605 1.43182 7.86674 2.04336 0.25
606 1.78709 1.4971 7.35104 0.25
607 2.2795 2.26385 7.67757 0.25
608 6.78029 6.21049 6.32583 0.5
609 3.92835 5.74351 0.981777 0.25
610 6.22007 4.84239 1.13708 0.5
611 8.57547 8.61628 7.55316 0.25
612 8.57482 0.124289 4.30142 0.5
613 7.8573 2.60924 9.72911 0.25
614 9.39266 7.09202 1.07426 0.25
615 7.42672 3.92631 8.13896 0.25
616 1.42244 1.23835 7.0924 0.25
617 2.87936 3.16785 7.89215 0.25
618 7.83425 3.28283 10.1804 0.25
619 1.69653 9.71232 2.25252 0.25
620 6.69707 6.00008 2.75494 0.25
621 6.59346 4.74312 1.76506 0.25
622 7.7157 6.36846 8.85253 0.25
623 7.66324 4.32607 4.78702 0.5
624 4.71887 8.56118 8.25906 0.25
625 5.40124 2.52747 0.199362 0.25
626 2.39467 2.80362 4.05683 0.25
627 7.03438 5.25335 2.89574 0.25
628 1.10497 9.95917 10.321 0.25
629 7.43495 10.127 10.0467 0.25
630 5.70423 7.46573 0.812026 0.25
631 8.02036 1.55831 5.02309 0.25
632 3.25805 3.68067 10.3093 0.25
633 3.28247 3.23446 0.104808 0.25
634 4.46255 7.92774 8.57058 0.5
635 9.46496 6.22394 7.27118 0.25
636 8.96366 4.94607 10.1259 0.25
637 6.6121 9.20856 4.72974 0.25
638 1.8965 0.520165 4.75913 0.5
639 7.16399 3.04479 2.26584 0.25
640 7.60923 1.75829 7.72709 0.25
641 3.6936 5.53359 3.75688 0.25
642 3.76545 7.29432 6.46759 0.25
643 3.07351 1.71683 9.56414 0.25
644 6.22978 9.84992 4.88637 0.5
645 3.11058 4.01973 0.293674 0.25
646 8.15824 7.24725 3.9433 0.25
647 6.87138 6.84928 5.91094 0.25
648 7.22317 1.43662 7.57422 0.25
649 4.7187 6.04639 9.04061 0.25
650 7.35866 1.63469 3.30269 0.25
651 5.08969 8.64364 7.83359 0.25
652 1.27069 5.36297 8.31997 0.25
653 0.863892 4.6207 5.64275 0.25
654 1.5664 6.20657 7.29599 0.25
655 9.98751 4.35572 1.92858 0.25
656 4.77553 4.89351 7.49656 0.25
657 8.48718 9.42359 6.94985 0.25
658 6.98832 4.65524 7.38689 0.25
659 9.11606 9.97055 4.47343 0.25
660 1.93944 6.28343 7.95365 0.5
661 2.33018 7.22737 3.1698 0.25
662 7.70489 8.90615 5.87568 0.25
663 3.5525 0.776085 8.89452 0.25
664 1.35113 2.64642 -0.0184554 0.25
665 8.20216 6.85193 0.917549 0.25
666 5.45681 9.79686 8.68503 0.25
667 7.78824 2.93424 0.184684 0.25
668 6.73847 1.54575 5.07205 0.25
669 3.26387 7.63365 9.33137 0.5
670 0.113431 3.15709 9.82474 0.25
671 0.960804 6.33029 4.72224 0.5
672 6.3231 6.13253 5.71867 0.25
673 4.36003 8.91882 1.53204 0.25
674 6.97944 4.60639 4.55231 0.25
675 8.40982 9.02714 7.68792 0.25
676 5.16342 2.28252 0.868326 0.5
677 9.73148 3.35035 7.75051 0.25
678 9.83893 0.519221 6.69248 0.5
679 2.32856 2.27444 7.14974 0.25
680 2.75481 7.31997 3.29409 0.25
681 8.11468 9.23292 7.3111 0.25
682 3.29543 7.44825 5.20127 0.25
683 0.786716 3.22788 0.0569417 0.25
684 1.29842 9.16593 7.00575 0.25
685 8.78586 10.1044 3.56624 0.25
686 6.76575 9.74936 5.40838 0.25
687 9.39339 3.37798 7.37779 0.25
688 5.44893 7.81486 0.598436 0.25
689 2.23413 2.35905 3.9651 0.25
690 9.76176 8.02017 9.33086 0.25
691 0.717294 8.27764 5.65561 0.25
692 1.29592 4.4489 5.82169 0.25
693 9.68867 2.21995 3.63011 0.25
694 3.22765 4.12105 10.1377 0.25
695 7.80448 1.36603 4.66258 0.25
696 5.26227 0.749738 3.74747 0.25
697 1.25569 8.7501 7.3236 0.25
698 8.3852 5.90517 0.613316 0.25
699 3.68689 8.18947 5.51953 0.25
700 5.61442 7.88239 1.03877 0.25
701 3.64087 4.87832 5.36677 0.25
702 6.17103 3.66071 4.8928 0.25
703 2.11505 0.635636 1.74295 0.25
704 6.77564 4.54253 8.17366 0.25
705 3.92895 5.72823 8.9882 0.25
706 7.68938 1.27838 7.56488 0.25
707 6.2007 6.99526 5.19361 0.25
708 5.13527 7.14705 3.76764 0.25
709 1.27028 4.56679 2.02483 0.5
710 1.31367 4.88851 5.52349 0.25
711 7.48569 3.61661 7.28905 0.25
712 3.76593 8.38423 3.25743 0.25
713 1.42635 5.17241 3.07841 0.25
714 1.7646 10.2721 4.32887 0.25
715 3.08715 3.85704 7.47852 0.25
716 9.39958 8.64413 0.943498 0.25
717 2.98686 5.21757 5.08824 0.25
718 5.58715 3.36794 5.25592 0.5
719 4.94885 3.1733 5.6952 0.25
720 5.37462 1.12805 4.08182 0.25
721 3.31369 7.44104 6.61424 0.25
722 4.34932 5.57505 4.50945 0.25
723 5.60476 6.38936 6.46371 0.25
724 9.63507 0.82499 8.93979 0.25
725 4.53056 10.1673 6.31026 0.25
726 3.99479 5.47758 4.16551 0.25
727 3.99691 5.94311 4.35456 0.25
728 2.38 7.6837 0.182626 0.5
729 7.68537 1.78253 5.75733 0.25
730 7.93051 1.47124 8.93337 0.25
731 0.641142 5.66212 9.88684 0.25
732 4.06791 7.66983 6.27522 0.25
733 9.695 2.1309 4.57129 0.25
734 8.65341 7.31355 4.09074 0.25
735 3.31943 2.39523 5.36143 0.25
736 9.20392 6.38463 6.22506 0.25
737 0.69503 4.32524 5.27016 0.25
738 4.99058 8.42971 8.67225 0.25
739 3.57333 3.80422 9.94196 0.25
740 8.6842 6.84398 1.69289 0.25
741 6.68202 2.41146 2.02628 0.25
742 5.39806 1.68419 0.399092 0.25
743 9.80702 1.77228 4.2454 0.25
744 2.39001 2.42622 4.71121 0.5
745 0.512634 4.2146 5.78828 0.25
746 6.94132 4.83171 1.4613 0.25
747 8.47399 2.25411 0.0802479 0.25
748 7.31926 10.0833 9.5881 0.25
749 7.28231 4.43331 8.14651 0.25
750 4.44472 1.7269 6.62185 0.25
751 1.59121 2.15598 4.6398 0.25
752 9.78257 2.2313 4.11129 0.25
753 1.17911 3.09903 9.81982 0.5
754 8.11269 1.79823 5.51942 0.25
755 8.02875 2.81547 10.1354 0.25
756 5.20241 1.20021 1.12603 0.25
757 0.144937 2.08796 4.4044 0.5
758 1.91407 10.1411 4.78545 0.25
759 4.86305 2.56969 8.16516 0.25
760 4.48773 1.19306 4.02298 0.25
761 6.10918 6.05982 6.14409 0.25
762 0.44853 4.27407 6.31093 0.25
763 6.20479 4.3377 4.58926 0.5
764 5.69448 6.59718 3.72253 0.25
765 6.86501 6.44472 8.63241 0.25
766 1.71915 5.54695 3.1293 0.25
767 7.28218 3.20147 2.6797 0.25
768 4.95914 2.50723 6.06498 0.5
769 1.0443 2.38283 9.72976 0.25
770 6.09083 6.82647 5.94185 0.5
771 5.68868 7.97901 0.226606 0.25
772 7.00764 9.0615 5.59827 0.5
773 5.94773 4.09419 0.287634 0.25
774 6.99378 8.82812 2.85995 0.25
775 9.92853 7.84433 8.92959 0.25
776 4.77265 10.036 0.30893 0.25
777 1.63797 8.30845 1.8536 0.25
778 3.0634 0.220779 8.47616 0.25
779 9.52507 8.06811 8.89839 0.25
780 5.30964 5.24688 9.96042 0.25
781 5.52879 7.38125 3.65349 0.25
782 9.25737 6.5991 1.04201 0.25
783 4.2747 9.00756 3.27805 0.25
784 3.60426 3.98996 0.0552304 0.25
785 8.86849 9.01357 7.54317 0.25
786 6.64962 6.84725 4.98513 0.25
787 6.34554 6.52946 5.2961 0.25
788 4.93801 0.855362 4.08221 0.25
789 6.48026 4.83462 2.26497 0.25
790 4.87046 1.93063 6.47618 0.25
791 8.71701 6.39293 6.19849 0.25
792 4.0147 3.40661 2.83432 0.5
793 10.2418 0.297659 8.87546 0.25
794 2.44031 1.35059 2.31914 0.25
795 1.59825 8.50598 7.49908 0.25
796 2.16588 9.79935 4.06172 0.5
797 10.2535 9.7922 3.2546 0.25
798 9.08926 4.55495 4.28497 0.25
799 3.64802 5.38222 1.60404 0.5
800 10.0237 1.54577 1.37156 0.25
801 6.21238 0.0952507 9.87676 0.25
802 6.43289 7.89751 0.611418 0.25
803 8.96794 5.06804 9.28844 0.25
804 4.35447 5.06067 7.72785 0.25
805 8.7056 3.87263 4.66666 0.25
806 2.26534 9.64117 7.93057 0.25
807 3.22674 4.64705 5.50777 0.25
808 8.73634 4.52878 9.91087 0.25
809 1.10585 5.62945 9.73974 0.25
810 7.45353 1.74321 6.21345 0.25
811 9.45005 5.06494 9.4313 0.25
812 3.81775 6.0914 1.27913 0.25
813 1.77172 4.05078 2.21883 0.25
814 1.5343 10.0602 10.1382 0.25
815 3.66666 5.44538 4.84641 0.5
816 6.62644 0.362912 9.90822 0.25
817 4.46211 9.39083 0.515252 0.5
818 8.76637 6.15417 0.462737 0.25
819 3.80213 6.48975 1.56172 0.25
820 6.3558 4.33963 8.02992 0.25
821 8.17102 8.73804 7.39493 0.25
822 4.77968 4.16966 2.81751 0.25
823 1.91233 9.20847 7.48196 0.5
824 7.22604 3.85866 6.99276 0.25
825 7.97242 8.94564 6.61556 0.5
826 6.79069 3.20202 2.5155 0.25
827 9.63118 6.37126 6.50963 0.25
828 9.98893 4.42439 2.40377 0.25
829 0.669516 7.96075 4.85228 0.25
830 4.24253 6.3274 1.42921 0.25
831 2.53063 7.48762 2.83081 0.25
832 4.15968 5.42065 9.23253 0.25
833 6.35505 6.73982 6.693 0.25
834 8.29119 3.9432 4.98347 0.25
835 1.49709 1.23896 6.59964 0.25
836 6.4327 5.35524 2.29417 0.25
837 3.71627 7.11023 9.03275 0.25
838 2.63322 9.26581 7.20792 0.25
839 0.0410589 2.7975 4.43486 0.25
840 9.18733 4.90515 4.64624 0.25
841 5.74348 4.65693 10.2179 0.5
842 7.19793 6.35131 9.00747 0.25
843 1.19113 9.55157 2.28253 0.25
844 6.34376 5.13318 1.88335 0.25
845 8.25015 3.99907 4.47882 0.25
846 0.771222 5.32206 4.29324 0.25
847 8.0787 2.47139 0.174591 0.25
848 3.46586 1.11081 9.5795 0.5
849 6.59871 5.04087 2.68063 0.25
850 3.88645 8.37956 3.74934 0.25
851 4.20965 5.79541 1.37 0.25
852 5.57337 1.08042 3.67794 0.25
853 9.61151 9.91154 4.32221 0.25
854 2.62383 3.67947 7.32349 0.25
855 3.49149 6.46667 1.18736 0.25
856 9.56738 2.93764 7.49611 0.25
857 6.09248 3.96625 5.2303 0.25
858 9.02414 6.62257 3.50895 0.25
859 9.57802 1.31969 1.47962 0.25
860 2.7193 9.5836 4.60541 0.25
861 3.89946 8.7508 1.33223 0.25
862 7.56275 1.30329 8.30514 0.5
863 0.521507 3.37908 9.96433 0.25
864 3.70264 3.24314 2.15105 0.25
865 0.851532 7.11632 4.79861 0.25
866 2.98226 0.991426 10.144 0.25
867 2.92726 8.30214 9.29769 0.25
868 9.70199 0.820014 1.45305 0.25
869 0.0208491 8.28885 5.2637 0.25
870 7.35127 6.63052 8.60652 0.25
871 6.68508 2.89328 2.10764 0.25
872 8.35046 1.58537 7.82807 0.5
873 5.4754 9.79916 4.87323 0.25
874 6.88727 9.51315 4.97401 0.25
875 3.23921 8.42004 5.36037 0.25
876 3.95086 6.05378 1.74819 0.25
877 0.460323 2.36634 3.80582 0.25
878 0.114238 -0.0217874 9.1811 0.25
879 0.470659 7.47023 4.83397 0.25
880 5.37983 3.68086 4.61987 0.25
881 4.08553 6.42363 8.88349 0.5
882 9.80826 0.531661 5.96614 0.25
883 5.37277 3.02497 5.85314 0.25
884 2.65247 1.98341 1.91704 0.5
885 8.46159 9.90413 3.88299 0.25
886 9.17548 8.95039 1.31061 0.25
887 1.23986 6.12644 7.67119 0.25
888 1.66979 0.666933 1.59577 0.25
889 5.07064 5.20996 8.60314 0.25
890 0.751704 3.8925 6.06059 0.25
891 4.14509 3.4487 2.02995 0.25
892 6.50858 8.81619 3.12029 0.25
893 7.96953 3.09966 9.71866 0.25
894 1.80017 7.63528 9.99418 0.25
895 10.1021 2.98179 7.49724 0.25
896 9.67483 1.05739 1.90179 0.25
897 3.79531 7.7578 6.70488 0.25
898 0.862426 5.00448 4.96257 0.5
899 0.146998 1.18585 6.34074 0.25
900 8.27508 7.35545 4.4789 0.25
901 0.517569 8.3093 5.19009 0.25
902 5.48161 1.63089 1.1675 0.25
903 8.15933 6.92043 3.52733 0.25
904 1.03476 6.10659 10.3346 0.5
905 9.33347 1.00018 1.16541 0.25
906 9.21628 9.24873 3.75937 0.25