ITEM: TIMESTEP
430000
ITEM: NUMBER OF ATOMS
1000
ITEM: BOX BOUNDS xy xz yz pp pp pp
0.0000000000000000e+00 1.0357442000000001e+01 0.0000000000000000e+00
0.0000000000000000e+00 1.0357442000000001e+01 0.0000000000000000e+00
0.0000000000000000e+00 1.0357442000000001e+01 0.0000000000000000e+00
ITEM: ATOMS id x y z radius
1 1.28582 4.25552 2.7745 0.5
2 2.21087 7.31043 2.30062 0.5
3 5.44934 1.78318 1.13183 0.25
4 0.59946 2.39907 4.68771 0.25
5 9.30919 3.37292 6.96984 0.25
6 0.175743 2.79738 9.54693 0.25
7 4.60943 1.4398 3.14401 0.25
8 8.89179 4.02081 2.61606 0.25
9 9.84998 1.09073 1.79125 0.25
10 8.13901 7.07995 3.55614 0.25
11 9.92049 8.54857 1.80206 0.25
12 8.15541 2.89699 10.0818 0.25
13 3.46506 8.05521 6.00413 0.25
14 5.25829 2.39929 0.129979 0.25
15 8.69489 6.03227 6.1854 0.25
16 8.87069 8.78382 6.30998 0.25
17 5.54417 8.99637 8.45389 0.5
18 2.77014 7.42337 9.53647 0.25
19 7.16641 4.396 5.11432 0.25
20 9.30723 0.731837 1.2596 0.25
21 0.151913 10.2854 9.68176 0.25
22 4.26265 1.72054 3.29867 0.25
23 4.65605 3.56293 2.25591 0.25
24 2.75404 2.41206 4.28028 0.25
25 7.11963 2.0377 6.09127 0.25
26 5.44087 2.63706 8.32664 0.25
27 1.23201 8.21789 10.1742 0.25
28 9.14161 5.99691 6.37008 0.25
29 3.06748 7.7442 5.81738 0.25
30 0.917774 8.95974 7.08403 0.25
31 0.851759 7.71674 4.60151 0.25
32 9.10052 6.68115 1.11255 0.25
33 9.51461 8.24456 1.71524 0.25
34 0.940567 2.82089 9.83179 0.25
35 8.09912 3.11791 9.6168 0.25
36 8.51776 8.95216 9.32105 0.25
37 4.08227 5.07999 6.04941 0.25
38 7.08935 0.408837 1.25542 0.25
39 5.82654 3.88686 5.1803 0.25
40 8.61966 4.19447 4.75718 0.25
41 9.01503 7.35205 3.37504 0.25
42 6.95968 8.5017 1.96475 0.5
43 0.0986415 8.22208 5.70297 0.25
44 2.95599 10.2605 4.92275 0.25
45 7.09507 6.34634 8.88605 0.25
46 1.23538 8.58717 7.07144 0.25
47 4.68502 8.72448 3.53545 0.25
48 2.81162 10.0442 5.35912 0.25
49 4.33619 5.91286 9.27473 0.25
50 10.0596 9.35923 3.59911 0.25
51 9.35394 9.0051 0.855431 0.25
52 6.34612 7.6192 0.0233187 0.25
53 6.48086 4.86118 2.16177 0.25
54 4.66321 4.79042 8.1689 0.25
55 5.71209 6.97837 6.83077 0.25
56 5.09438 1.50655 1.25399 0.25
57 5.40464 2.52995 0.558504 0.25
58 5.92626 4.74318 0.625427 0.25
59 4.13973 7.55852 9.008 0.25
60 7.52854 6.38665 9.12968 0.25
61 3.34103 0.145304 8.74538 0.25
62 9.22751 5.75275 6.8421 0.25
63 0.527289 5.2134 4.25487 0.25
64 10.1418 1.50702 1.74319 0.25
65 6.2441 7.46768 6.2701 0.25
66 4.18194 1.3179 3.02387 0.25
67 9.6934 5.16229 9.32427 0.25
68 6.2586 10.324 10.2347 0.25
69 2.76062 7.24292 2.81069 0.25
70 3.84413 5.96601 4.07824 0.25
71 1.32286 8.01785 2.38085 0.25
72 5.57181 6.92447 3.35345 0.25
73 9.13526 8.65371 7.13112 0.5
74 2.46774 7.64907 3.00984 0.25
75 1.14073 6.03563 0.591675 0.25
76 2.40122 8.50047 0.181994 0.25
77 7.46949 6.62768 8.69247 0.25
78 3.58144 9.50555 1.4195 0.25
79 1.08615 5.22938 9.50753 0.25
80 8.63551 8.75706 9.76295 0.25
81 8.58178 9.08431 7.44219 0.25
82 1.6682 0.779146 2.19835 0.25
83 1.88329 7.76217 1.84424 0.25
84 5.45477 9.81197 5.76092 0.25
85 4.32932 6.65032 1.59974 0.25
86 9.37877 4.37868 1.69191 0.5
87 1.57026 5.2637 8.30523 0.25
88 2.82147 3.76204 8.22608 0.25
89 0.544896 10.0622 9.88583 0.25
90 6.90292 10.1927 1.62459 0.5
91 4.69363 8.30511 3.28364 0.25
92 9.40539 1.55978 1.34884 0.25
93 8.41067 1.22406 8.37611 0.25
94 0.616129 4.27907 1.69139 0.25
95 7.70852 8.74138 5.83245 0.25
96 7.6556 1.23629 7.14815 0.25
97 5.72062 9.98007 5.45501 0.25
98 10.0571 0.513524 5.87758 0.25
99 4.96501 2.05144 8.42248 0.5
100 5.1001 3.01214 5.37598 0.25
101 5.44677 2.17654 9.77061 0.5
102 4.07518 5.10344 8.51143 0.5
103 7.01112 0.489751 0.833953 0.25
104 1.03746 9.86609 10.0318 0.25
105 1.99616 5.1221 3.06077 0.25
106 6.49007 6.63362 6.58581 0.25
107 6.04374 10.0404 8.81326 0.25
108 1.80943 3.57971 2.03879 0.25
109 7.32174 2.14951 2.81675 0.25
110 5.87798 0.071732 5.4724 0.25
111 1.80925 5.63625 0.766625 0.25
112 3.70522 5.24254 5.78056 0.25
113 2.68131 10.3232 4.16722 0.25
114 8.64531 5.92716 0.0948087 0.25
115 4.0198 4.39595 2.95484 0.25
116 0.347551 2.31024 3.45705 0.25
117 7.17037 2.83825 2.94734 0.5
118 7.3778 8.11614 2.36005 0.25
119 9.99144 2.23225 4.40825 0.25
120 1.84191 5.7042 0.246699 0.25
121 7.52918 2.27261 5.48625 0.5
122 1.94324 4.4386 2.33107 0.25
123 9.12324 9.35213 1.1023 0.25
124 8.37129 6.09568 0.480118 0.25
125 1.49793 9.89937 4.08032 0.25
126 6.05584 7.39106 0.381343 0.25
127 6.07134 7.86612 0.342107 0.25
128 9.3216 9.36972 4.02789 0.25
129 1.56741 5.29168 3.1983 0.25
130 8.8373 9.04836 0.89028 0.25
131 7.07368 2.06566 3.1924 0.25
132 8.84946 3.81155 4.88566 0.25
133 8.4262 9.19941 9.74366 0.25
134 5.06583 3.72275 2.45778 0.25
135 5.96089 9.76262 8.1435 0.5
136 8.51713 8.97983 6.98524 0.25
137 1.15675 9.25186 2.36342 0.25
138 7.11053 4.65669 4.7156 0.25
139 7.02586 4.69987 8.00822 0.5
140 3.91386 8.64166 3.81454 0.25
141 1.96491 1.95179 2.22117 0.25
142 2.97739 3.11036 4.90541 0.25
143 8.15371 1.40067 3.92659 0.25
144 10.1522 6.98332 1.8922 0.25
145 3.20991 7.69858 6.30218 0.25
146 6.73298 9.59558 3.01693 0.25
147 3.75029 5.55522 3.88798 0.25
148 2.83415 1.70256 10.2038 0.25
149 10.2421 7.21743 9.26187 0.25
150 4.40637 4.94577 7.75196 0.25
151 7.02598 9.80163 9.94078 0.25
152 3.9935 9.71335 1.17948 0.25
153 5.19028 1.6779 7.67407 0.25
154 5.28361 9.74419 8.49321 0.25
155 3.29746 5.99628 1.33224 0.25
156 0.880713 8.59385 7.39928 0.25
157 4.80149 0.431748 4.01993 0.25
158 8.95852 9.28415 6.27598 0.25
159 3.41523 3.04786 5.20574 0.25
160 2.4625 3.43429 8.13483 0.25
161 3.32665 10.2426 9.14134 0.25
162 3.97983 2.26618 5.99778 0.5
163 6.78819 10.2025 2.30861 0.25
164 5.35326 8.52744 7.99794 0.25
165 0.509351 2.99161 9.86954 0.25
166 6.86338 4.31483 6.87817 0.25
167 8.98196 10.1194 3.85732 0.25
168 9.87441 7.82748 8.81204 0.25
169 9.68178 6.59078 7.59844 0.25
170 3.34496 0.224306 8.26127 0.25
171 1.11019 8.74386 7.86762 0.25
172 9.1941 5.96614 7.29086 0.25
173 0.777497 1.92876 4.65468 0.25
174 4.61268 2.02172 6.3337 0.25
175 9.38026 3.64346 7.37309 0.25
176 0.956813 5.68479 0.250887 0.25
177 9.19394 6.41974 7.5313 0.25
178 7.15103 1.68864 5.24061 0.25
179 2.55143 9.39428 7.89699 0.25
180 7.32739 9.24949 2.5581 0.5
181 1.07197 4.19379 5.74708 0.25
182 7.72179 1.23244 3.92253 0.25
183 2.60013 9.62663 4.62431 0.25
184 9.131 4.76461 9.82171 0.25
185 9.27864 8.95039 6.44198 0.25
186 2.77399 7.91062 9.48942 0.25
187 3.19254 3.32391 0.18118 0.25
188 5.16492 2.63374 7.85348 0.25
189 9.54651 0.477224 6.0399 0.25
190 2.2035 7.45053 3.41552 0.25
191 5.2199 2.72509 8.77918 0.25
192 8.7149 9.55082 6.67936 0.25
193 5.28467 2.33907 9.12191 0.25
194 3.81936 9.20974 1.19732 0.25
195 5.21746 4.78583 9.63113 0.25
196 5.70636 2.50536 0.11893 0.25
197 8.84589 6.44572 6.85146 0.5
198 7.25456 1.80362 7.35119 0.5
199 7.07719 10.2673 9.87791 0.25
200 7.13599 1.00051 6.5394 0.25
201 6.18733 7.08551 6.68564 0.25
202 3.40673 7.9322 5.01017 0.25
203 4.69244 9.43449 0.295546 0.25
204 0.324343 4.03063 6.05562 0.25
205 3.72586 10.3362 6.68814 0.25
206 0.826358 2.13284 3.62397 0.25
207 1.18772 5.12975 3.82818 0.5
208 3.97593 4.71583 6.35087 0.25
209 6.8134 9.79427 2.57209 0.25
210 3.99051 0.200924 6.28488 0.25
211 1.58698 4.76204 2.39839 0.25
212 0.0129907 4.00943 1.94897 0.5
213 8.84176 3.8524 1.8146 0.25
214 3.28702 5.00439 5.97988 0.25
215 9.95333 0.629213 9.17948 0.25
216 4.95277 1.65551 0.486676 0.25
217 0.346828 8.16024 5.26954 0.25
218 2.19811 1.26901 1.91157 0.5
219 0.759423 4.34354 6.10643 0.25
220 6.43582 9.59184 1.8054 0.25
221 7.92165 7.19869 3.93172 0.25
222 9.49258 6.14658 6.69369 0.25
223 5.58618 9.51939 5.32387 0.25
224 9.75365 3.38797 6.68993 0.25
225 8.01677 1.67518 5.62368 0.25
226 6.33957 8.87567 5.27314 0.25
227 6.64396 0.503792 1.21407 0.25
228 5.30433 2.2518 0.959452 0.25
229 1.8756 2.13216 1.2451 0.25
230 8.96687 6.94734 3.67137 0.25
231 7.82273 4.32274 7.11387 0.25
232 6.86147 9.69856 2.16319 0.25
233 8.04609 1.87224 8.54999 0.5
234 4.44424 9.26593 1.7998 0.25
235 1.36492 8.4375 7.55094 0.25
236 1.40503 5.64102 0.493367 0.25
237 8.15357 0.982857 4.11792 0.25
238 1.23246 5.75864 4.07947 0.25
239 0.0516706 3.04568 9.95975 0.25
240 1.47037 8.7113 2.10893 0.5
241 1.10544 9.73303 2.18012 0.25
242 3.56786 7.53209 6.61893 0.25
243 1.34538 6.49144 0.528806 0.25
244 1.12382 1.338 7.28984 0.25
245 5.83484 7.43561 6.60799 0.25
246 1.65937 8.47041 10.285 0.25
247 2.88172 6.89898 2.45114 0.25
248 5.46203 1.97758 9.04898 0.25
249 7.14891 4.15797 4.65686 0.25
250 7.41624 1.41818 6.75684 0.25
251 1.72109 1.35089 6.71464 0.25
252 7.26858 7.33931 8.0474 0.25
253 3.8345 7.18349 8.72537 0.25
254 1.55704 9.48795 2.26168 0.25
255 1.71247 0.275973 2.20474 0.25
256 4.31373 5.71295 4.62635 0.25
257 0.974739 10.1637 9.66133 0.25
258 5.11122 5.05224 7.29993 0.25
259 2.16333 0.100914 4.30322 0.25
260 1.07268 9.65024 0.158638 0.25
261 7.7031 6.86391 9.04051 0.25
262 5.79649 6.51866 3.61238 0.25
263 8.47769 8.4656 9.37361 0.25
264 7.6381 9.30981 9.81086 0.5
265 4.16717 3.58505 2.89772 0.25
266 3.64904 3.61258 2.97125 0.25
267 3.4212 7.85601 5.50761 0.25
268 3.7241 7.7491 6.22408 0.25
269 7.7967 9.23991 5.69091 0.25
270 3.91224 7.97291 5.75973 0.25
271 3.6499 9.08588 1.66068 0.25
272 5.99057 6.71341 5.25091 0.25
273 9.97405 3.65163 7.85354 0.25
274 3.45712 4.67627 6.36655 0.25
275 0.2031 6.68595 2.076 0.25
276 8.46446 0.844869 8.12543 0.25
277 2.95377 9.96207 8.21408 0.5
278 4.69124 6.02276 8.50522 0.25
279 2.87386 10.3303 8.90336 0.25
280 3.46146 0.196029 9.52171 0.25
281 4.71729 8.33977 3.84273 0.25
282 4.99741 0.638175 3.14459 0.25
283 9.82309 0.153894 8.55899 0.25
284 1.78201 5.26279 0.46016 0.25
285 8.66024 6.79011 0.96296 0.25
286 10.2959 1.09284 1.99716 0.25
287 2.13601 7.93893 2.748 0.25
288 1.3682 5.52492 4.49992 0.25
289 8.98021 0.913797 1.57624 0.25
290 9.39598 3.88802 2.56125 0.25
291 7.85481 3.22457 10.0502 0.25
292 4.056 9.41389 1.60287 0.25
293 4.74044 2.66267 7.20689 0.5
294 10.2685 7.01648 2.38129 0.25
295 6.99852 0.969432 7.25852 0.5
296 2.8764 2.90724 4.42868 0.25
297 0.825017 8.0931 5.35145 0.25
298 3.87501 9.37463 0.771793 0.25
299 8.89609 5.07879 9.48073 0.25
300 1.60459 9.67475 4.53373 0.25
301 4.60212 8.40531 7.87158 0.25
302 5.14884 4.85386 8.18342 0.25
303 8.70882 5.20454 10.216 0.5
304 4.46958 4.39225 2.64794 0.25
305 1.79126 8.03666 2.22632 0.25
306 9.82908 7.36032 8.91245 0.25
307 0.70896 9.98121 0.0072967 0.25
308 8.76728 5.80722 6.63695 0.25
309 8.64874 1.50642 8.79027 0.25
310 6.50698 7.13642 5.93084 0.25
311 1.5588 0.401959 1.50677 0.25
312 9.08876 0.890921 8.57173 0.5
313 1.65663 8.23886 2.66083 0.25
314 0.723688 4.17938 2.16567 0.25
315 2.91769 0.588651 9.25854 0.5
316 6.58102 3.98504 7.19227 0.25
317 6.48216 9.81794 8.66207 0.25
318 10.1341 7.50086 8.52807 0.25
319 10.2915 9.79811 3.54036 0.25
320 1.05809 2.44595 10.1231 0.25
321 1.78099 1.89795 1.70978 0.25
322 1.05414 7.28082 4.7562 0.25
323 6.69644 10.0473 9.2701 0.5
324 7.52815 2.32943 3.27048 0.25
325 9.14864 3.91765 2.16641 0.25
326 2.5226 0.0547186 5.17373 0.25
327 1.20084 9.38847 7.25993 0.25
328 4.39924 4.01903 2.90812 0.25
329 8.57811 7.47661 3.97981 0.5
330 10.0543 6.62272 2.20488 0.25
331 9.41536 10.2043 4.20608 0.25
332 6.31873 7.18748 0.747034 0.25
333 10.2334 8.04366 9.12696 0.25
334 6.38827 5.15036 1.71099 0.25
335 5.88549 5.21524 0.664225 0.25
336 8.97368 3.82988 1.33467 0.25
337 4.73948 5.5944 8.62129 0.25
338 7.66249 8.54465 2.32709 0.25
339 4.32767 5.81052 8.2983 0.25
340 0.778669 2.84988 10.2954 0.25
341 4.00492 5.53552 4.29812 0.25
342 10.1577 3.39852 7.42953 0.25
343 10.1957 2.13586 3.51817 0.25
344 4.20203 0.819252 2.84082 0.25
345 6.61814 4.42773 0.0438358 0.25
346 1.50912 1.30508 7.63448 0.25
347 3.1883 4.05462 0.470988 0.25
348 5.63877 7.68499 0.489125 0.25
349 4.74862 1.65724 7.84786 0.25
350 1.99494 3.58366 8.00709 0.25
351 5.83374 7.40048 3.49364 0.25
352 8.29955 6.65942 1.24379 0.25
353 10.0866 3.11905 6.92938 0.25
354 9.63871 3.81636 2.10124 0.25
355 2.8202 1.52819 1.66788 0.25
356 4.43976 9.90543 1.05277 0.25
357 3.25449 4.5085 5.89698 0.25
358 4.04176 9.88966 0.719453 0.25
359 9.05138 6.44939 0.377476 0.5
360 3.5616 0.361526 6.38252 0.25
361 10.3379 0.828745 6.06133 0.25
362 0.00673147 7.9396 8.6386 0.25
363 7.0227 2.38012 2.40372 0.25
364 9.57739 6.61524 2.44951 0.25
365 5.90349 9.16482 5.11404 0.25
366 8.76478 4.25638 2.16126 0.25
367 3.34499 0.640998 8.66393 0.25
368 9.58474 6.07743 7.52992 0.25
369 9.15086 4.08406 4.22992 0.5
370 4.75328 1.72231 7.05662 0.5
371 9.47761 6.60237 1.76477 0.5
372 1.20573 2.43309 4.20749 0.5
373 3.70945 0.406977 8.53331 0.25
374 3.57199 0.361029 9.04454 0.25
375 4.77865 0.35848 3.5118 0.25
376 0.699288 5.6713 4.04992 0.25
377 10.3153 7.52156 8.92288 0.25
378 9.5411 9.15612 1.26824 0.25
379 0.601906 4.02824 6.4741 0.25
380 1.92104 2.16801 4.52082 0.25
381 6.68716 5.58546 2.22462 0.5
382 2.4027 8.05757 9.81038 0.25
383 5.54699 8.80764 7.67711 0.25
384 1.75851 6.85045 7.42947 0.25
385 0.923095 6.87426 5.02212 0.25
386 1.71534 5.50829 7.42711 0.25
387 1.18852 6.20182 7.58024 0.25
388 2.30999 1.94582 1.0431 0.25
389 4.74331 1.42975 0.866856 0.25
390 2.91571 3.68807 0.375403 0.25
391 4.24618 10.3766 6.64101 0.25
392 0.447272 5.57506 4.55804 0.25
393 8.56393 8.60737 6.70172 0.25
394 10.3222 0.288802 6.25161 0.25
395 1.88331 4.65622 2.80408 0.25
396 3.42092 0.558637 9.86258 0.25
397 7.75593 2.34824 2.87502 0.25
398 9.27039 4.61272 8.83871 0.25
399 2.68043 9.71169 7.53954 0.25
400 7.89959 2.48977 10.0989 0.25
401 5.89966 6.95918 3.73925 0.25
402 4.35516 5.74288 8.80292 0.25
403 6.20475 5.07836 0.33158 0.25
404 7.87825 2.35929 0.610736 0.25
405 1.65153 6.06763 0.565344 0.25
406 6.43603 9.29505 5.20176 0.25
407 7.35038 7.12808 8.82316 0.25
408 9.45743 8.7589 1.62461 0.25
409 9.77379 7.06052 2.24956 0.25
410 5.88195 1.20252 3.91077 0.25
411 7.80949 8.58381 9.86524 0.25
412 4.53253 2.04671 7.71552 0.25
413 7.5073 2.32634 2.42066 0.25
414 6.47472 5.34583 2.9092 0.25
415 4.38158 0.972082 3.62223 0.5
416 9.96242 0.164825 9.0415 0.25
417 3.61243 7.25225 5.81033 0.5
418 0.977933 1.04076 6.59633 0.5
419 9.22214 0.203864 3.88248 0.25
420 5.142 9.01068 7.8545 0.25
421 9.58131 6.63514 6.79194 0.25
422 2.33612 7.17379 3.00363 0.25
423 1.54874 5.0015 2.81275 0.25
424 0.324822 0.309324 9.41012 0.25
425 2.11026 9.70073 4.69558 0.25
426 2.51941 1.58228 1.29485 0.25
427 6.92499 1.44137 6.69693 0.25
428 7.26007 9.61571 1.92904 0.25
429 5.27686 9.49797 8.03328 0.25
430 9.60905 9.14192 3.66138 0.25
431 6.5019 0.395611 0.703665 0.25
432 2.35399 7.66789 9.52369 0.25
433 2.98769 2.80866 5.26003 0.25
434 6.13671 9.5272 8.81124 0.25
435 10.1148 3.13664 9.54191 0.25
436 6.65408 4.83665 0.309071 0.25
437 1.792 5.62351 9.7205 0.25
438 7.67583 0.997906 6.6916 0.25
439 9.55133 9.8953 3.53129 0.5
440 1.89109 2.80176 8.02557 0.5
441 0.984301 3.74625 2.24948 0.25
442 6.80268 7.3209 0.685139 0.25
443 9.62815 9.76129 4.2615 0.25
444 1.27034 3.50822 1.9519 0.25
445 5.46251 7.22915 3.75248 0.25
446 8.52866 4.59108 4.96183 0.25
447 6.34455 4.82118 10.2648 0.25
448 5.27332 1.29993 3.36593 0.5
449 9.79611 0.904362 5.96904 0.25
450 2.98074 1.2351 2.0148 0.25
451 3.30219 3.91112 10.0143 0.25
452 5.9977 4.06145 4.35676 0.25
453 7.58075 4.43716 8.4046 0.25
454 1.76704 6.10543 8.39578 0.25
455 1.36842 6.18782 8.02471 0.25
456 2.01778 1.68778 1.33372 0.25
457 9.75956 8.46644 1.05421 0.5
458 1.42637 5.93533 7.23513 0.25
459 1.4411 1.69598 6.42762 0.25
460 1.84113 6.18872 6.94505 0.25
461 3.96763 6.14752 2.13145 0.25
462 4.40648 6.26672 1.9844 0.25
463 1.69104 0.0451375 4.17095 0.25
464 9.84429 1.33603 1.37858 0.25
465 6.59631 4.89616 2.63934 0.25
466 4.85138 5.48742 7.91023 0.5
467 3.2282 5.28957 5.5398 0.25
468 2.81842 1.67898 2.11351 0.25
469 4.66192 4.03366 2.40301 0.25
470 4.35172 3.2742 2.53515 0.25
471 3.0055 9.77844 4.97365 0.25
472 2.00704 1.97025 8.04983 0.25
473 3.18437 8.15051 9.43429 0.25
474 9.24109 4.31861 2.42599 0.25
475 8.92048 7.05731 4.50885 0.25
476 4.47847 6.21053 1.48498 0.25
477 10.1033 9.7193 4.01995 0.25
478 8.71329 6.05686 1.17118 0.5
479 7.24904 0.0704697 0.95944 0.25
480 2.61788 7.69545 9.96454 0.25
481 4.36796 9.73882 1.58547 0.25
482 6.54181 9.76579 5.32843 0.25
483 6.92755 10.3004 0.247852 0.5
484 9.73506 3.36629 7.16273 0.25
485 7.78312 2.81369 0.461611 0.25
486 4.19297 8.89024 3.52219 0.25
487 3.3514 3.57898 0.587344 0.25
488 6.84404 9.31617 1.89499 0.25
489 8.22659 7.67525 4.54549 0.25
490 2.51741 3.06403 8.4791 0.25
491 8.81635 9.08924 6.6641 0.25
492 7.72202 2.81147 9.77962 0.25
493 9.86897 3.79871 7.40604 0.25
494 8.43159 3.78209 4.57466 0.25
495 9.585 3.78895 6.96618 0.25
496 4.27673 1.72075 6.50147 0.25
497 3.52261 4.18201 0.0836481 0.25
498 7.86703 1.29695 9.04332 0.25
499 4.09565 8.91651 1.53441 0.25
500 4.30853 7.23322 8.71005 0.25
501 2.55744 0.0524041 4.67961 0.25
502 8.82859 5.65805 7.11092 0.25
503 6.94134 8.17455 2.64047 0.25
504 6.46631 7.60506 0.529575 0.25
505 7.43955 1.4125 6.01482 0.5
506 5.49948 10.35 5.17624 0.25
507 7.29719 8.49775 2.62272 0.25
508 5.01661 8.15136 7.9558 0.25
509 1.68972 8.73029 7.29132 0.25
510 5.55739 3.81179 4.42316 0.25
511 3.96989 0.425016 6.72851 0.25
512 1.88807 5.07477 3.58067 0.25
513 2.16514 5.27324 0.114194 0.25
514 3.60577 2.2178 5.37177 0.25
515 2.07751 1.59583 7.34109 0.5
516 6.08056 9.38769 5.79189 0.5
517 8.54697 7.31717 4.67243 0.25
518 3.00663 0.747846 10.1014 0.25
519 2.85876 10.02 4.50793 0.25
520 5.00784 2.1609 7.69845 0.25
521 1.23486 4.55658 5.44557 0.25
522 2.36878 10.0261 4.42858 0.25
523 2.30123 3.3633 7.65648 0.25
524 8.16983 2.34162 5.12236 0.25
525 2.25933 6.76448 7.38906 0.25
526 1.96256 5.63129 8.35081 0.25
527 6.3615 9.17394 2.48302 0.5
528 6.79009 9.08668 3.07285 0.25
529 4.45687 6.13075 0.996488 0.25
530 1.5503 7.61494 2.18763 0.25
531 10.13 2.64571 9.73069 0.25
532 1.48936 8.1374 0.246161 0.25
533 8.9058 9.58811 3.82258 0.25
534 8.94795 4.61331 4.73479 0.25
535 7.0112 6.91513 8.1332 0.25
536 4.17299 9.49377 0.397636 0.25
537 7.55708 0.926093 3.5735 0.25
538 7.5468 4.59539 7.40751 0.25
539 10.3113 3.84075 6.80166 0.5
540 5.91251 0.0899444 8.53412 0.25
541 9.15991 8.87522 1.27182 0.25
542 7.46489 9.10295 6.0896 0.25
543 9.00015 4.70038 3.74697 0.25
544 1.69175 2.12167 7.67154 0.25
545 10.1506 9.5513 3.09699 0.25
546 0.324941 0.660598 6.35764 0.25
547 9.2673 3.65111 1.71511 0.25
548 9.49733 5.07812 8.88341 0.25
549 1.89364 0.507418 1.83824 0.25
550 9.87485 9.03216 1.60407 0.25
551 2.66787 7.34822 3.33108 0.25
552 9.20016 9.34041 6.77009 0.25
553 5.06014 2.69976 5.04129 0.25
554 8.91584 4.80338 4.21808 0.25
555 5.57105 9.29421 7.73412 0.25
556 1.62819 8.83466 7.76993 0.25
557 2.99052 9.45143 7.701 0.25
558 2.61107 3.52397 8.61385 0.25
559 9.55819 0.877201 9.20401 0.25
560 3.69437 4.76784 5.9338 0.25
561 0.800105 3.81748 1.81583 0.25
562 4.97245 5.02611 9.94933 0.25
563 5.57776 10.149 8.72624 0.25
564 1.327 1.76498 7.50183 0.25
565 2.66873 1.43002 2.49147 0.25
566 9.66072 5.87711 7.09116 0.25
567 0.770398 6.13114 0.302504 0.25
568 7.6477 1.62092 5.29385 0.25
569 7.25869 3.92541 7.38718 0.5
570 4.9056 4.0838 2.81492 0.25
571 3.85817 3.27608 2.69911 0.25
572 8.29613 1.48978 9.21299 0.25
573 0.472703 6.68285 4.87692 0.25
574 0.311551 0.828893 6.81673 0.25
575 5.94609 3.54473 4.26361 0.25
576 5.00182 1.8756 0.938301 0.25
577 0.668249 8.07841 4.90778 0.25
578 1.4088 5.21551 10.2003 0.5
579 5.34498 4.93809 7.72198 0.25
580 9.23172 6.97402 4.08482 0.25
581 6.87215 7.12992 8.90802 0.25
582 7.37401 4.8137 5.04596 0.25
583 8.34168 6.05851 6.52834 0.25
584 5.12928 6.97468 3.5461 0.25
585 6.76808 0.0828568 0.970237 0.25
586 1.71478 2.49746 4.80122 0.25
587 6.24311 10.0773 5.55524 0.25
588 2.75482 1.29351 9.4807 0.25
589 9.75098 3.71649 1.65909 0.25
590 8.09632 7.17893 4.43484 0.25
591 3.85045 2.6783 5.31778 0.25
592 6.95298 5.2218 2.7744 0.25
593 5.86782 10.1324 5.93044 0.25
594 9.00057 5.89553 10.0948 0.25
595 1.54056 1.71775 7.94228 0.25
596 9.10677 8.38668 1.39894 0.25
597 4.52667 0.499446 3.02876 0.25
598 6.52369 7.19936 0.277047 0.25
599 10.2445 1.08493 1.4953 0.25
600 3.66462 9.4729 1.92788 0.25
601 7.23221 9.96881 2.30675 0.25
602 6.55256 7.95666 2.3537 0.25
603 2.32412 6.38387 7.04177 0.25
604 9.19238 0.941982 0.794382 0.25
605 1.68881 7.78911 2.6094 0.25
606 1.50237 2.09335 7.14392 0.25
607 2.18557 2.24417 7.66195 0.25
608 6.79718 6.43749 5.94143 0.5
609 4.00658 6.58085 2.0107 0.25
610 6.55638 4.93344 0.994368 0.5
611 8.42006 8.64608 7.24725 0.25
612 8.45128 0.321124 3.88526 0.5
613 8.03154 3.15499 0.129313 0.25
614 9.56062 6.7175 0.96678 0.25
615 6.6097 4.10721 7.68923 0.25
616 1.37453 1.62169 6.95688 0.25
617 2.10078 3.3991 8.50698 0.25
618 7.60101 2.41927 0.208867 0.25
619 1.33143 9.38647 1.87078 0.25
620 6.31675 5.82055 2.91804 0.25
621 7.1631 4.94122 1.48184 0.25
622 6.62482 6.99452 8.46729 0.25
623 7.84184 4.31644 4.73501 0.5
624 4.95084 8.62192 8.16837 0.25
625 5.08578 1.91808 0.0399707 0.25
626 2.40984 2.7788 4.23749 0.25
627 7.23661 5.60466 2.74554 0.25
628 1.51281 9.73961 10.2678 0.25
629 7.43276 10.0054 10.1161 0.25
630 5.60441 7.21002 0.21558 0.25
631 8.2317 2.09008 5.59603 0.25
632 3.32131 3.76368 0.12168 0.25
633 3.00378 4.09722 0.00419854 0.25
634 4.59214 7.9449 8.46775 0.5
635 9.51206 6.31717 7.13243 0.25
636 9.0797 5.5367 9.74284 0.25
637 6.26176 9.16625 4.81994 0.25
638 1.86045 10.3365 4.97798 0.5
639 6.85274 2.76785 2.21579 0.25
640 7.49164 1.59976 8.0132 0.25
641 4.27846 5.97549 4.23572 0.25
642 3.97001 8.1602 6.22797 0.25
643 2.74784 1.80209 9.69519 0.25
644 6.01946 9.86518 4.83773 0.5
645 3.45635 3.4045 10.1568 0.25
646 8.75079 6.76401 4.1035 0.25
647 6.37216 6.89118 5.52835 0.25
648 7.10337 1.27486 7.88412 0.25
649 4.75893 5.93859 9.01378 0.25
650 8.05597 1.01456 3.64246 0.25
651 5.07877 8.53025 7.64058 0.25
652 1.52179 5.75772 8.16878 0.25
653 0.798384 4.63029 5.67036 0.25
654 1.49084 6.44445 7.22434 0.25
655 9.89039 4.04358 1.29843 0.25
656 4.88405 4.78211 7.70579 0.25
657 8.83949 9.35434 7.12228 0.25
658 7.68906 4.43302 7.88054 0.25
659 8.91157 10.2807 4.29066 0.25
660 1.97972 6.14613 7.68356 0.5
661 1.97599 7.52973 2.95054 0.25
662 7.54331 9.55401 6.00996 0.25
663 3.67546 0.667742 9.47481 0.25
664 0.976115 2.40564 9.64065 0.25
665 8.29186 6.55982 0.715452 0.25
666 5.6329 9.68689 8.82664 0.25
667 7.4031 2.57835 0.639269 0.25
668 6.92596 1.83401 5.66711 0.25
669 3.40706 7.53476 9.19639 0.5
670 0.301248 3.43808 10.054 0.25
671 1.03728 6.19014 4.66202 0.5
672 6.12684 6.12267 5.96309 0.25
673 3.88744 9.85807 1.68127 0.25
674 6.83312 4.78249 5.13037 0.25
675 8.18851 8.81997 7.645 0.25
676 5.6806 1.82908 0.440125 0.5
677 9.8902 2.96007 7.36743 0.25
678 9.9385 0.737536 6.62744 0.5
679 1.90835 2.35318 7.33268 0.25
680 2.50995 6.76142 2.74192 0.25
681 8.39296 9.42505 7.04378 0.25
682 3.54933 7.46153 5.12504 0.25
683 0.634814 2.75407 9.46481 0.25
684 1.27135 9.23633 7.75576 0.25
685 8.96412 10.325 3.41837 0.25
686 6.67949 9.46883 4.85917 0.25
687 9.68108 3.36193 7.64085 0.25
688 5.33468 7.59619 0.125381 0.25
689 2.32456 2.26536 4.2311 0.25
690 0.172611 7.69036 9.30393 0.25
691 -0.0230673 7.80188 5.48412 0.25
692 1.16581 4.62994 5.94749 0.25
693 9.58932 2.41854 4.20872 0.25
694 3.70296 3.47137 0.23777 0.25
695 8.08909 1.85446 5.16827 0.25
696 5.03173 0.949711 4.01858 0.25
697 1.26833 8.92675 7.45336 0.25
698 8.74604 5.70835 0.520257 0.25
699 3.12263 7.59319 5.31262 0.25
700 5.17476 7.9558 0.435738 0.25
701 3.42864 4.80262 5.53382 0.25
702 6.31692 3.47609 4.70038 0.25
703 1.5549 0.843887 1.73565 0.25
704 7.11529 4.17384 8.47385 0.25
705 3.91137 5.82387 8.55311 0.25
706 7.54993 1.17326 7.67864 0.25
707 6.05987 6.16335 5.17936 0.25
708 5.43671 6.78284 3.85591 0.25
709 1.4221 4.23126 1.86939 0.5
710 1.12836 4.97764 5.5947 0.25
711 6.63289 4.4752 7.38735 0.25
712 4.31175 8.41091 3.5917 0.25
713 1.64581 4.76473 3.29105 0.25
714 1.87663 10.025 4.36667 0.25
715 2.91243 3.3027 8.25671 0.25
716 9.0503 8.61208 0.880436 0.25
717 3.12288 4.93346 5.2064 0.25
718 5.59035 3.18297 4.86332 0.5
719 5.44156 2.65159 5.33969 0.25
720 5.39154 1.27657 4.07108 0.25
721 4.1844 7.71074 6.14311 0.25
722 3.52067 5.71996 4.32198 0.25
723 6.05119 6.59221 6.74846 0.25
724 9.58148 0.48915 8.90722 0.25
725 3.59655 10.3194 6.13329 0.25
726 3.88324 5.94016 4.57073 0.25
727 3.6181 5.2103 4.20797 0.25
728 1.80377 7.74312 10.0514 0.5
729 7.54339 2.1346 6.27333 0.25
730 8.27193 1.1111 8.81414 0.25
731 2.05305 5.72243 10.1712 0.25
732 3.56457 8.02278 6.54218 0.25
733 9.88786 1.74816 4.25651 0.25
734 8.20214 6.83379 4.06286 0.25
735 3.37443 2.61113 5.49468 0.25
736 8.96822 6.45739 6.12954 0.25
737 0.809095 4.30351 5.26585 0.25
738 5.23797 8.28215 8.42988 0.25
739 3.70024 3.87027 0.443811 0.25
740 8.7191 6.73397 1.50485 0.25
741 6.8048 2.20055 2.77937 0.25
742 5.02899 2.18113 0.531645 0.25
743 10.0085 1.72989 3.72192 0.25
744 2.43138 2.53474 4.89015 0.5
745 0.60086 4.17106 5.69069 0.25
746 6.86808 5.34782 1.58632 0.25
747 7.61024 3.32085 9.60509 0.25
748 7.41487 9.94233 9.63544 0.25
749 6.92091 3.95246 8.05106 0.25
750 4.30692 2.17383 6.73918 0.25
751 1.9117 2.18334 3.98496 0.25
752 9.82144 2.14713 3.90409 0.25
753 0.337452 2.34182 10.0631 0.5
754 7.96138 2.015 6.00238 0.25
755 7.6747 2.81958 10.3227 0.25
756 5.1398 2.02788 1.38212 0.25
757 0.298604 1.94293 4.10895 0.5
758 1.36058 10.1683 4.45814 0.25
759 4.95424 2.76737 8.29976 0.25
760 4.64856 1.67165 3.58921 0.25
761 6.2598 6.22138 6.45941 0.25
762 0.496974 3.59061 6.21742 0.25
763 6.43979 4.23389 4.92298 0.5
764 5.34642 7.3618 3.25683 0.25
765 7.43746 7.00852 8.37215 0.25
766 1.21399 4.88895 3.12839 0.25
767 7.34027 2.73578 2.2609 0.25
768 5.04179 2.5267 5.93588 0.5
769 0.485987 2.74846 0.350451 0.25
770 5.8798 6.84657 6.08624 0.5
771 5.60777 8.03256 0.196777 0.25
772 7.0445 9.16851 5.54927 0.5
773 6.11641 4.34967 10.2092 0.25
774 6.86787 8.66832 2.76738 0.25
775 10.0097 7.59995 9.30245 0.25
776 4.52079 9.77846 0.565287 0.25
777 1.395 8.03378 1.88654 0.25
778 2.94509 0.336411 8.51404 0.25
779 10.2267 7.47185 9.70884 0.25
780 5.37041 5.25342 9.70328 0.25
781 5.29108 6.50023 3.47952 0.25
782 9.41342 6.27215 1.0948 0.25
783 4.38858 8.75498 3.94637 0.25
784 3.75007 3.81113 10.2547 0.25
785 8.6441 8.64963 7.68801 0.25
786 6.45726 6.45316 5.23002 0.25
787 6.43386 6.04046 5.56745 0.25
788 4.87471 1.42009 3.9841 0.25
789 7.23144 5.14444 1.93996 0.25
790 4.9966 2.19884 6.58023 0.25
791 8.46166 6.46585 6.19624 0.25
792 3.97262 3.92616 2.33263 0.5
793 0.040122 0.396972 9.08702 0.25
794 2.43972 1.86108 2.355 0.25
795 1.41985 9.03261 6.97105 0.25
796 2.123 10.1154 3.66457 0.5
797 9.74127 9.25345 3.14789 0.25
798 9.37031 4.75381 4.50053 0.25
799 3.28338 6.42264 1.92958 0.5
800 9.63326 1.52832 1.79608 0.25
801 6.19167 10.3385 9.74704 0.25
802 6.05127 7.58791 0.753589 0.25
803 9.30066 4.86543 9.30805 0.25
804 4.6074 5.01857 7.33053 0.25
805 8.56492 4.50579 4.02851 0.25
806 2.35361 9.87021 7.83625 0.25
807 2.94687 4.887 5.66254 0.25
808 9.3581 5.15411 9.73832 0.25
809 1.5725 5.22866 9.47312 0.25
810 7.24785 1.83186 6.54337 0.25
811 9.0073 5.05742 8.95215 0.25
812 4.03836 6.28878 1.64987 0.25
813 1.45676 3.67454 2.38865 0.25
814 1.17355 10.141 0.104811 0.25
815 3.67721 5.31228 4.9448 0.5
816 6.62136 0.18493 9.88669 0.25
817 4.54438 9.22402 0.998725 0.5
818 9.13822 5.69413 0.177403 0.25
819 4.052 5.92118 1.29921 0.25
820 7.25075 4.63379 8.70945 0.25
821 8.12398 9.05775 7.20584 0.25
822 4.87504 3.24114 2.56235 0.25
823 1.92603 9.43779 7.41643 0.5
824 7.06345 4.61183 7.24582 0.25
825 8.16261 9.16598 6.34365 0.5
826 6.59862 3.06239 2.54746 0.25
827 9.43507 6.46093 6.33995 0.25
828 9.44931 3.76983 1.26095 0.25
829 0.956436 7.63477 5.54537 0.25
830 4.17234 6.4235 1.15479 0.25
831 2.58896 6.60459 2.28232 0.25
832 3.96597 5.66982 9.04789 0.25
833 6.53718 7.06307 6.3728 0.25
834 8.43091 4.11102 4.29887 0.25
835 1.5309 1.18552 7.12415 0.25
836 6.9913 4.92051 2.28721 0.25
837 4.0481 7.10293 9.14719 0.25
838 2.67188 9.15577 7.46537 0.25
839 0.0372548 2.51484 4.58961 0.25
840 9.4103 4.75306 3.98764 0.25
841 5.57759 4.85408 10.3329 0.5
842 7.02081 7.27234 8.4694 0.25
843 1.8495 9.37101 1.8541 0.25
844 6.8083 4.90132 1.76829 0.25
845 8.51606 4.59499 4.47559 0.25
846 0.918881 5.48357 4.38889 0.25
847 7.37694 3.10934 10.0117 0.25
848 3.3596 1.37731 9.84004 0.5
849 7.33314 5.25792 2.40676 0.25
850 4.35508 8.62175 3.1323 0.25
851 3.85366 6.68489 1.46102 0.25
852 5.52999 0.803394 3.91579 0.25
853 9.1165 9.81557 4.19124 0.25
854 2.67922 3.06315 7.92667 0.25
855 3.69656 5.89719 1.6834 0.25
856 9.39221 3.11903 7.35577 0.25
857 6.20054 3.58098 5.15447 0.25
858 8.63784 7.06376 3.34677 0.25
859 9.39763 1.08906 1.5792 0.25
860 2.66178 9.79454 4.11974 0.25
861 4.15215 9.61054 2.03906 0.25
862 7.68871 0.975888 8.38439 0.5
863 0.246486 3.28139 9.56862 0.25
864 3.62214 4.1217 2.95544 0.25
865 0.77617 6.91001 4.55858 0.25
866 2.85437 1.19146 10.2606 0.25
867 3.54169 8.02688 9.77108 0.25
868 9.55193 1.17457 1.08231 0.25
869 0.920685 8.05562 5.81575 0.25
870 7.05615 6.77872 8.60144 0.25
871 6.56906 2.58705 2.55396 0.25
872 8.20647 1.45808 7.70992 0.5
873 5.27709 9.90313 5.31247 0.25
874 6.65587 8.9478 4.90503 0.25
875 3.85315 7.80069 5.28139 0.25
876 3.72603 6.26121 1.27634 0.25
877 0.625744 2.55777 3.81009 0.25
878 10.1546 0.262753 9.47404 0.25
879 1.08265 7.74871 5.06599 0.25
880 5.71807 4.14678 4.77824 0.25
881 4.15368 6.46671 8.80466 0.5
882 10.276 0.0914649 5.78856 0.25
883 5.54916 3.06376 5.59736 0.25
884 2.47265 2.23221 1.69836 0.5
885 8.68871 9.9298 3.53938 0.25
886 8.6963 8.65038 1.25373 0.25
887 1.4283 6.58634 7.71791 0.25
888 1.33502 0.47486 1.91124 0.25
889 4.82939 5.08553 8.55434 0.25
890 0.820547 3.86733 5.98463 0.25
891 4.01058 3.93217 3.18625 0.25
892 6.53683 8.44473 2.5096 0.25
893 8.09042 2.6226 0.169461 0.25
894 2.01499 8.21055 0.204557 0.25
895 9.60766 2.97724 6.94802 0.25
896 9.8132 0.864422 1.37258 0.25
897 4.0156 7.81085 6.63028 0.25
898 0.852911 5.00809 4.88511 0.5
899 0.239651 1.12634 6.40598 0.25
900 8.4664 6.86476 4.51056 0.25
901 0.475048 7.86157 5.67543 0.25
902 5.24668 1.44444 0.798373 0.25
903 9.30459 7.33284 3.7802 0.25
904 1.40376 6.09897 10.2106 0.5
905 9.06805 1.213 1.22458 0.25
906 9.77916 9.34997 4.026 0.25
907 4.64938 3.65857 2.73862 0.25