ITEM: TIMESTEP
360000
ITEM: NUMBER OF ATOMS
1000
ITEM: BOX BOUNDS xy xz yz pp pp pp
0.0000000000000000e+00 1.0357442000000001e+01 0.0000000000000000e+00
0.0000000000000000e+00 1.0357442000000001e+01 0.0000000000000000e+00
0.0000000000000000e+00 1.0357442000000001e+01 0.0000000000000000e+00
ITEM: ATOMS id x y z radius
1 1.14671 4.42528 2.82555 0.5
2 2.07939 7.42456 2.48204 0.5
3 5.06613 2.14901 1.09524 0.25
4 0.956955 2.21148 3.46865 0.25
5 9.28135 3.15093 7.3513 0.25
6 0.193901 2.9756 9.90311 0.25
7 4.24361 1.16463 3.274 0.25
8 8.89129 4.35771 2.57163 0.25
9 9.76712 1.4642 1.84998 0.25
10 8.73697 7.37248 3.91572 0.25
11 9.94967 9.16194 1.83354 0.25
12 8.17406 3.16563 10.3187 0.25
13 3.49819 8.08788 5.98341 0.25
14 5.42275 1.73197 10.3225 0.25
15 8.5878 5.80438 6.55092 0.25
16 8.98426 8.85048 6.29489 0.25
17 5.25901 9.08555 8.4017 0.5
18 2.87425 7.64017 9.92726 0.25
19 7.13577 4.50785 5.00835 0.25
20 9.16638 1.03015 1.40907 0.25
21 0.325848 0.280095 9.69282 0.25
22 3.94253 0.979879 3.63755 0.25
23 4.24877 3.87996 2.01347 0.25
24 2.99539 2.63765 4.22537 0.25
25 7.35999 2.17138 6.051 0.25
26 5.47204 2.80045 8.29749 0.25
27 1.07479 7.6884 0.0143798 0.25
28 8.49433 6.16917 6.89993 0.25
29 3.29167 8.13995 5.57724 0.25
30 1.04223 8.90395 7.96935 0.25
31 0.383811 7.26249 5.27446 0.25
32 9.2698 6.8165 1.00883 0.25
33 9.66866 9.55773 1.73817 0.25
34 0.581513 2.39208 10.3303 0.25
35 8.07771 3.49791 10.0292 0.25
36 8.24778 8.74946 9.23239 0.25
37 3.55 5.07273 6.65696 0.25
38 7.14336 0.480012 1.43413 0.25
39 5.87357 4.2481 5.3833 0.25
40 8.46218 4.3009 5.06244 0.25
41 9.1984 6.67711 3.86189 0.25
42 7.22105 8.63029 2.01123 0.5
43 0.746379 8.39647 5.92169 0.25
44 2.86628 10.0691 4.93018 0.25
45 7.57115 6.9684 8.37714 0.25
46 0.895733 9.21453 7.57436 0.25
47 4.12301 8.53268 3.40707 0.25
48 2.99299 9.66272 4.61988 0.25
49 4.21241 6.01786 9.31607 0.25
50 10.0609 9.42309 3.51039 0.25
51 9.18767 8.82491 0.964874 0.25
52 6.38761 7.74169 0.742878 0.25
53 6.71189 4.6544 2.19004 0.25
54 4.04891 4.7994 7.91187 0.25
55 5.29341 6.73357 6.4585 0.25
56 5.4423 2.08422 1.37867 0.25
57 5.06648 1.57217 0.312586 0.25
58 5.87683 4.43468 0.357524 0.25
59 3.943 7.25854 9.21217 0.25
60 7.27185 7.29273 8.02267 0.25
61 3.46247 0.193196 8.74731 0.25
62 8.77375 6.33354 6.55352 0.25
63 0.588991 5.15409 4.32404 0.25
64 10.2538 1.41763 1.78949 0.25
65 5.98429 6.97522 6.79669 0.25
66 4.20644 0.703546 3.18017 0.25
67 9.11398 5.28809 9.00866 0.25
68 6.16853 10.2992 10.3342 0.25
69 2.71506 7.45425 2.84898 0.25
70 4.05351 5.92867 3.92498 0.25
71 1.23593 8.12359 2.5527 0.25
72 5.34439 7.03699 3.33351 0.25
73 8.95362 8.65411 7.39198 0.5
74 2.40549 7.82301 3.03671 0.25
75 1.00388 5.82951 0.54652 0.25
76 1.88308 8.67217 10.2019 0.25
77 7.11713 6.81891 8.18699 0.25
78 4.14958 9.95845 1.57901 0.25
79 1.02623 5.02276 9.55978 0.25
80 8.48517 8.8553 9.63991 0.25
81 8.37436 9.18695 7.34909 0.25
82 2.08196 0.597217 1.47255 0.25
83 1.67046 7.80111 1.95819 0.25
84 5.3694 9.62207 5.58939 0.25
85 3.72036 5.93607 1.35372 0.25
86 9.40025 4.45228 1.59545 0.5
87 0.905145 5.5028 8.33815 0.25
88 2.74666 3.76143 8.37838 0.25
89 0.690031 0.0586858 9.90006 0.25
90 6.90061 10.1561 1.65569 0.5
91 4.5857 8.71439 3.64175 0.25
92 9.86656 1.19703 1.06754 0.25
93 8.29742 1.25101 8.42167 0.25
94 0.584278 4.69951 1.74772 0.25
95 7.87113 8.39658 5.75038 0.25
96 7.82915 0.988404 7.16347 0.25
97 5.78481 9.82286 5.41231 0.25
98 9.85514 0.964867 6.02141 0.25
99 5.34007 2.06568 8.34897 0.5
100 5.30732 2.80386 5.35698 0.25
101 5.48018 2.18014 9.72123 0.5
102 3.96068 5.33155 8.48941 0.5
103 6.7007 0.445973 0.79759 0.25
104 1.49921 0.0364516 10.1926 0.25
105 2.06225 4.89951 3.22321 0.25
106 5.94941 6.21776 6.42297 0.25
107 5.96643 10.0436 8.56738 0.25
108 1.49584 3.69776 2.00541 0.25
109 7.22223 2.23963 2.80115 0.25
110 5.8982 10.2398 5.65394 0.25
111 2.0592 4.75713 0.37491 0.25
112 3.70804 5.16462 5.67331 0.25
113 2.24473 0.275551 4.82049 0.25
114 8.64829 6.07614 0.100307 0.25
115 4.68183 4.17366 3.05786 0.25
116 0.281336 2.12761 4.4962 0.25
117 6.81267 2.82079 2.86732 0.5
118 7.62589 8.24156 2.49564 0.25
119 0.0089389 2.05877 3.41106 0.25
120 1.7633 5.61052 0.332378 0.25
121 7.74627 2.25626 5.43414 0.5
122 1.82364 4.34498 2.53912 0.25
123 9.5653 8.85278 0.612907 0.25
124 8.54078 6.22987 0.560009 0.25
125 1.41667 9.80774 4.40491 0.25
126 6.27963 7.47896 0.287611 0.25
127 5.99341 7.39873 0.704117 0.25
128 9.41855 9.51163 4.37477 0.25
129 1.69935 5.23712 3.39128 0.25
130 9.15226 9.16389 0.605594 0.25
131 6.9274 2.13917 3.17689 0.25
132 8.38826 4.338 4.21685 0.25
133 8.24569 9.20563 9.44162 0.25
134 4.36802 3.41222 2.08419 0.25
135 6.05959 9.48412 8.03814 0.5
136 8.46321 8.92929 6.97356 0.25
137 1.69908 9.37422 1.92744 0.25
138 7.04667 4.61122 4.62453 0.25
139 6.74323 3.89082 7.59298 0.5
140 4.95311 8.49715 3.39526 0.25
141 2.05451 1.8929 2.04409 0.25
142 2.95675 3.17681 4.96821 0.25
143 8.26665 1.62957 3.70171 0.25
144 9.95731 6.75959 2.26638 0.25
145 3.02591 7.87709 5.97073 0.25
146 6.69429 9.48635 3.06641 0.25
147 4.48355 5.68402 4.06723 0.25
148 2.72301 1.6828 9.98243 0.25
149 9.90728 8.11958 9.20507 0.25
150 4.1997 5.22876 7.7686 0.25
151 6.92016 9.83763 9.91405 0.25
152 4.09859 9.82949 1.08495 0.25
153 5.50418 1.83624 7.67044 0.25
154 5.33974 9.74134 8.0297 0.25
155 4.05266 7.01001 1.73475 0.25
156 0.796779 8.74271 7.48974 0.25
157 5.34788 0.884324 4.04636 0.25
158 9.23195 9.24959 6.43715 0.25
159 3.50254 2.61965 5.53312 0.25
160 2.52264 3.36435 8.13941 0.25
161 3.30397 0.563346 8.44995 0.25
162 3.95048 2.19251 6.06645 0.5
163 6.68015 10.1698 2.4406 0.25
164 5.45286 8.41188 8.2101 0.25
165 0.464693 2.57878 9.81748 0.25
166 7.96375 3.55164 7.56143 0.25
167 9.15206 10.1386 3.91259 0.25
168 0.0800339 7.61344 8.79977 0.25
169 9.60901 6.44387 6.66434 0.25
170 3.47194 10.0882 8.89198 0.25
171 1.21829 8.60246 7.11662 0.25
172 9.16427 6.65534 6.73822 0.25
173 1.10457 2.73376 3.58377 0.25
174 4.6346 2.0157 6.29848 0.25
175 9.38113 3.49968 7.74328 0.25
176 0.938187 5.39418 0.336783 0.25
177 9.48637 6.86923 6.39217 0.25
178 7.07515 1.96816 5.21713 0.25
179 3.01648 9.73761 7.64645 0.25
180 7.36714 9.32993 2.65295 0.5
181 0.642126 4.07799 5.71261 0.25
182 7.87782 1.27159 3.7347 0.25
183 2.52572 10.3521 4.14104 0.25
184 9.65255 5.47648 9.58367 0.25
185 9.29417 8.8439 6.76014 0.25
186 2.64612 7.86705 9.52789 0.25
187 3.83806 3.41427 0.0499726 0.25
188 5.1762 2.63394 7.8634 0.25
189 9.60165 0.587265 5.91372 0.25
190 2.30713 7.73895 3.51121 0.25
191 5.31892 2.70066 8.78003 0.25
192 8.90464 9.59076 6.74257 0.25
193 5.30443 2.28825 9.06827 0.25
194 3.6918 9.86538 1.39649 0.25
195 4.99073 5.25382 9.96105 0.25
196 4.89933 1.78922 10.1822 0.25
197 9.20305 5.82141 6.81036 0.5
198 7.46938 1.67374 7.12931 0.5
199 6.83724 10.3227 9.79208 0.25
200 6.85447 1.15598 6.42254 0.25
201 5.70384 6.55182 6.71206 0.25
202 3.84321 7.70007 5.17921 0.25
203 4.38961 9.08854 0.257984 0.25
204 0.0515039 3.74794 6.25466 0.25
205 3.83733 0.221876 6.22856 0.25
206 0.704945 2.34071 4.59403 0.25
207 1.27803 5.20231 3.99986 0.5
208 3.7226 4.70799 6.38205 0.25
209 6.79699 9.82392 2.75017 0.25
210 4.23816 0.0761474 6.52008 0.25
211 1.72614 4.82471 2.50576 0.25
212 0.0185199 4.1983 1.94705 0.5
213 8.78774 4.05761 1.78118 0.25
214 3.23473 5.2079 5.89316 0.25
215 10.002 0.66003 9.02837 0.25
216 5.74066 2.131 0.646086 0.25
217 0.581208 8.24355 5.4582 0.25
218 2.36977 1.31628 1.67143 0.5
219 0.682815 4.14378 6.23139 0.25
220 6.50339 9.54201 1.85576 0.25
221 8.24239 7.40066 3.87576 0.25
222 8.90681 6.44053 7.05185 0.25
223 5.61902 9.3485 5.24056 0.25
224 9.68691 3.09253 7.07081 0.25
225 7.7405 1.45947 5.34154 0.25
226 6.45338 8.74381 5.38511 0.25
227 6.70311 0.377877 1.26548 0.25
228 4.99968 1.7114 0.820959 0.25
229 2.09947 2.37603 1.30533 0.25
230 8.74363 6.54241 3.61706 0.25
231 7.68194 4.28308 7.02549 0.25
232 6.848 9.73517 2.24513 0.25
233 7.96725 1.82637 8.50313 0.5
234 3.80355 9.01274 1.49732 0.25
235 0.993742 9.04826 7.11026 0.25
236 1.38373 5.40783 0.476244 0.25
237 8.37009 1.11923 3.80498 0.25
238 1.11983 5.84085 4.17802 0.25
239 0.452205 2.98861 9.48115 0.25
240 1.36659 8.80189 2.19635 0.5
241 1.75743 9.47172 2.40805 0.25
242 3.05757 7.60277 6.37348 0.25
243 1.20524 6.29475 0.523514 0.25
244 1.02836 1.09052 7.2485 0.25
245 5.46902 6.98917 6.81071 0.25
246 1.30532 8.12759 10.1852 0.25
247 2.83814 7.14501 2.44112 0.25
248 5.80012 2.19418 8.99417 0.25
249 7.08996 4.10771 4.64773 0.25
250 7.25695 1.3041 6.48581 0.25
251 1.71642 1.08441 6.6001 0.25
252 6.77472 6.07382 8.84205 0.25
253 3.71776 7.97094 8.76398 0.25
254 1.31779 9.37323 1.70475 0.25
255 2.03272 0.108644 1.59798 0.25
256 3.93564 6.07267 4.72666 0.25
257 1.02364 10.1979 9.56472 0.25
258 4.88282 5.0525 7.40445 0.25
259 1.96988 10.2686 4.90383 0.25
260 1.27978 9.98817 0.0494532 0.25
261 6.77056 7.1967 8.1033 0.25
262 5.6449 7.43786 3.21599 0.25
263 8.26651 8.41314 9.57567 0.25
264 7.58241 9.43196 9.82681 0.5
265 3.82153 3.79039 2.7553 0.25
266 3.78676 4.20597 3.03908 0.25
267 3.74879 8.0303 5.54213 0.25
268 3.46535 7.73306 6.24635 0.25
269 7.93333 8.87915 5.53336 0.25
270 3.87387 7.85668 6.00505 0.25
271 3.78001 9.76348 1.88267 0.25
272 6.42777 7.23658 5.53716 0.25
273 10.0776 3.70083 8.13464 0.25
274 3.25773 4.90507 6.2813 0.25
275 0.0163433 6.97512 2.38452 0.25
276 8.2606 0.764173 8.4245 0.25
277 3.04454 10.1751 8.23633 0.5
278 4.38885 6.01306 8.50209 0.25
279 3.77476 10.2083 8.50756 0.25
280 2.97466 0.398219 8.73427 0.25
281 4.64391 8.72283 4.16518 0.25
282 5.1089 0.790596 3.22363 0.25
283 9.64376 10.325 8.90883 0.25
284 1.756 5.11315 0.595917 0.25
285 8.78314 6.91608 0.999915 0.25
286 10.0057 1.51296 2.24744 0.25
287 2.02346 8.04716 2.86049 0.25
288 1.35645 5.69669 4.61286 0.25
289 9.00149 1.42568 1.25989 0.25
290 9.37477 4.21808 2.54018 0.25
291 7.71386 3.22376 10.0946 0.25
292 3.98186 9.5002 1.48341 0.25
293 4.64212 2.57289 7.24782 0.5
294 10.1912 6.51229 2.59424 0.25
295 7.06099 0.936271 7.05118 0.5
296 2.95524 3.02963 4.47873 0.25
297 0.446865 8.04638 5.00601 0.25
298 4.21095 9.93013 0.627279 0.25
299 9.34809 5.15922 9.78272 0.25
300 1.86268 9.65486 4.20203 0.25
301 4.8409 8.01232 7.83096 0.25
302 4.8673 4.79451 7.79414 0.25
303 9.3786 5.79701 10.2235 0.5
304 4.96552 4.04948 2.66861 0.25
305 1.68457 8.08774 2.38858 0.25
306 10.1959 8.05305 8.76091 0.25
307 1.1438 10.0973 10.0118 0.25
308 8.8984 5.98583 6.11651 0.25
309 8.55465 1.47482 8.80225 0.25
310 6.46603 6.92524 6.49787 0.25
311 1.44893 0.501395 2.03775 0.25
312 9.0168 0.891041 8.54708 0.5
313 1.57656 8.34992 2.8168 0.25
314 0.633256 4.51973 2.17168 0.25
315 3.51113 0.717393 9.19316 0.5
316 7.24748 4.34697 8.5101 0.25
317 6.22253 9.60155 8.71293 0.25
318 10.0316 7.73459 8.47224 0.25
319 0.177707 9.56177 3.7194 0.25
320 0.875954 2.57778 0.37003 0.25
321 1.92618 1.98294 1.56061 0.25
322 0.637368 6.89026 5.03002 0.25
323 6.35812 10.0101 9.29137 0.5
324 7.30279 2.42926 3.25912 0.25
325 9.09314 4.06407 2.18288 0.25
326 3.08177 9.65839 5.14716 0.25
327 1.56489 8.80818 7.88845 0.25
328 4.65191 3.71826 2.81731 0.25
329 8.56738 6.78936 4.3234 0.5
330 10.3215 6.95018 1.90847 0.25
331 9.31021 0.115456 4.25534 0.25
332 6.62277 7.08347 0.254272 0.25
333 10.215 7.35435 9.19849 0.25
334 6.1564 5.13924 1.49264 0.25
335 5.64947 4.72202 0.636078 0.25
336 9.04032 3.87498 1.38579 0.25
337 4.66572 5.64467 8.68769 0.25
338 7.83727 8.69177 2.50399 0.25
339 3.92013 6.02682 8.56304 0.25
340 0.872354 2.34017 9.89719 0.25
341 4.18945 5.86887 4.41115 0.25
342 10.1612 3.38812 7.73742 0.25
343 10.232 2.22627 4.32336 0.25
344 4.65873 0.462557 3.11098 0.25
345 6.59446 4.77437 10.1138 0.25
346 1.43878 1.27426 7.50691 0.25
347 3.63842 4.20009 0.0246257 0.25
348 5.73731 7.39204 0.300458 0.25
349 5.04512 1.66543 7.73256 0.25
350 2.78388 3.20226 7.77015 0.25
351 5.27116 6.9752 3.79835 0.25
352 8.46671 6.74505 1.36101 0.25
353 10.0926 3.00091 7.37483 0.25
354 9.56673 3.98544 2.14023 0.25
355 3.06733 1.68405 1.61864 0.25
356 4.61956 9.17415 1.17312 0.25
357 3.00469 4.79006 5.82671 0.25
358 4.56955 9.61022 0.904053 0.25
359 9.06081 6.63019 0.338203 0.5
360 4.13305 0.531444 6.4948 0.25
361 10.033 0.881742 6.49522 0.25
362 10.0791 7.32593 8.71011 0.25
363 7.02579 2.1508 2.40735 0.25
364 10.3545 6.51223 2.05647 0.25
365 6.06525 9.03112 5.16678 0.25
366 8.70431 4.43492 2.09734 0.25
367 3.92014 0.14961 9.52387 0.25
368 9.52657 6.86914 6.92073 0.25
369 9.12073 4.09857 4.28591 0.5
370 4.99133 1.74453 6.97845 0.5
371 9.70399 6.67988 1.63932 0.5
372 1.40925 2.31489 4.12635 0.5
373 3.51985 0.00510323 9.30544 0.25
374 3.09808 -0.00243482 9.0282 0.25
375 5.36396 0.583308 3.60081 0.25
376 0.653257 5.64941 4.20874 0.25
377 9.93832 7.69768 8.99251 0.25
378 9.63625 8.79493 1.10792 0.25
379 0.331735 4.08696 6.54267 0.25
380 2.11136 2.15356 4.36 0.25
381 6.44285 5.39674 2.16726 0.5
382 2.1272 7.95664 9.75641 0.25
383 5.70644 8.44878 7.7134 0.25
384 1.60073 6.7892 7.5524 0.25
385 0.930512 6.99987 4.69424 0.25
386 1.22853 5.58252 7.4337 0.25
387 1.10037 6.04888 7.52611 0.25
388 2.60486 2.27948 1.11363 0.25
389 5.87466 2.03545 1.13529 0.25
390 3.91826 3.88197 0.244277 0.25
391 3.88193 10.1368 6.51963 0.25
392 0.412695 5.49713 4.71459 0.25
393 8.8478 8.63538 6.70011 0.25
394 10.3065 0.839825 5.99875 0.25
395 1.87902 4.53667 2.97524 0.25
396 2.83816 0.838455 9.00568 0.25
397 7.55729 2.56844 2.88029 0.25
398 9.58325 4.57775 9.15861 0.25
399 2.55027 9.7195 7.82774 0.25
400 8.4229 2.75148 10.2287 0.25
401 5.6934 7.20049 3.64269 0.25
402 4.20852 5.82942 8.90856 0.25
403 6.01284 4.89964 0.271309 0.25
404 8.12111 2.40366 0.577441 0.25
405 1.53882 5.89214 0.613733 0.25
406 6.55341 9.24354 5.15615 0.25
407 6.75759 6.89784 8.53965 0.25
408 9.79925 9.22667 1.36147 0.25
409 9.95204 6.2819 2.26076 0.25
410 5.48422 2.02989 3.4728 0.25
411 7.86788 8.86987 10.1679 0.25
412 4.66187 1.95276 7.78392 0.25
413 7.34749 2.54353 2.39325 0.25
414 6.50195 5.29884 2.94776 0.25
415 4.65253 0.76854 3.79125 0.5
416 9.92579 0.24607 9.22337 0.25
417 3.43017 7.36358 5.69001 0.5
418 0.933323 1.07146 6.50389 0.5
419 9.39677 0.160514 3.75804 0.25
420 5.33272 8.68099 7.82509 0.25
421 9.17978 6.31244 7.44586 0.25
422 2.37568 7.36169 3.19503 0.25
423 1.66726 4.98819 2.93599 0.25
424 0.417934 0.407557 9.23478 0.25
425 2.30355 9.87696 4.26029 0.25
426 2.78636 1.84775 1.22914 0.25
427 6.9363 1.5589 6.58825 0.25
428 7.32807 9.73923 2.07696 0.25
429 5.44305 9.40664 7.71727 0.25
430 9.34969 9.2759 3.89428 0.25
431 6.6403 10.3418 0.965194 0.25
432 2.37882 7.53462 9.82575 0.25
433 3.0269 2.83367 5.32511 0.25
434 5.7686 9.60016 8.81097 0.25
435 10.3466 3.18672 9.54366 0.25
436 6.4968 5.00413 0.179146 0.25
437 1.67453 5.51888 9.72984 0.25
438 7.26436 0.84815 6.30746 0.25
439 9.79485 9.91137 3.90168 0.5
440 2.12536 2.77253 7.79017 0.5
441 0.734028 4.04926 2.27777 0.25
442 6.83843 7.51767 0.934752 0.25
443 9.81259 9.23203 4.22666 0.25
444 0.976567 3.82301 1.89799 0.25
445 5.63037 6.68386 3.58155 0.25
446 8.32417 3.83283 5.00564 0.25
447 6.19837 4.98909 10.1695 0.25
448 4.90824 1.58772 3.24333 0.5
449 9.60611 0.670535 6.42093 0.25
450 3.09717 1.26179 1.90327 0.25
451 3.15598 3.67709 0.355659 0.25
452 5.73137 4.27923 4.58645 0.25
453 6.72663 4.50449 7.26829 0.25
454 1.76246 5.74415 8.48577 0.25
455 1.01769 6.19842 8.00719 0.25
456 2.2672 1.91147 1.18919 0.25
457 9.24479 9.01056 1.76182 0.5
458 1.45039 5.91142 7.14874 0.25
459 1.5904 1.45358 6.23691 0.25
460 1.8619 6.09356 7.09168 0.25
461 3.22902 6.58437 1.31484 0.25
462 3.49174 6.26391 1.01423 0.25
463 1.55214 9.96385 4.84395 0.25
464 9.9321 1.07942 1.5537 0.25
465 6.61688 4.92087 2.65905 0.25
466 4.82105 5.49816 7.96764 0.5
467 3.35479 5.47643 5.48132 0.25
468 2.90497 1.65961 2.10235 0.25
469 4.66662 3.83851 2.31809 0.25
470 3.8705 3.85341 2.26456 0.25
471 3.14926 10.1575 4.52207 0.25
472 1.76113 2.12891 7.5297 0.25
473 2.71413 8.07433 9.09995 0.25
474 9.16462 4.57338 2.25782 0.25
475 7.9873 6.43084 4.01393 0.25
476 3.96116 6.25874 1.03243 0.25
477 10.2099 9.25308 3.94212 0.25
478 8.8783 6.14939 1.19515 0.5
479 6.96267 0.721481 1.0375 0.25
480 2.53963 7.95614 10.054 0.25
481 4.29245 9.18931 1.52868 0.25
482 6.71378 9.74525 5.28053 0.25
483 6.83189 10.2589 0.255387 0.5
484 9.72223 3.26761 7.53115 0.25
485 7.74189 2.51915 0.251127 0.25
486 4.53429 8.22839 3.48613 0.25
487 3.87663 3.78523 10.0991 0.25
488 6.9903 9.37443 1.95188 0.25
489 8.24448 7.32666 4.69346 0.25
490 2.01758 3.45764 8.05901 0.25
491 8.86757 9.09039 6.74306 0.25
492 8.14581 2.99879 9.85692 0.25
493 9.80463 3.72311 7.67551 0.25
494 8.53189 4.60239 4.61169 0.25
495 9.56924 3.57167 7.27088 0.25
496 4.33945 1.6812 6.53936 0.25
497 3.17787 4.06817 0.079623 0.25
498 7.77263 1.19838 9.00577 0.25
499 3.54376 9.43164 1.61676 0.25
500 4.3094 7.34582 8.94977 0.25
501 2.44803 10.2832 5.06014 0.25
502 9.23977 6.42409 6.27832 0.25
503 7.10258 8.23607 2.61586 0.25
504 6.45955 7.2558 0.697398 0.25
505 7.17226 1.48571 5.81731 0.5
506 5.80982 10.2041 5.14909 0.25
507 7.44678 8.58266 2.7517 0.25
508 5.10592 8.01831 8.26779 0.25
509 1.35064 9.40315 7.29767 0.25
510 5.55937 4.35778 5.05671 0.25
511 3.81742 0.22156 6.74988 0.25
512 1.96401 4.92903 3.73077 0.25
513 2.05546 5.22555 0.222744 0.25
514 3.60964 2.19011 5.4031 0.25
515 2.05958 1.43937 7.25944 0.5
516 6.18181 9.43471 5.77778 0.5
517 7.79653 6.77481 4.31728 0.25
518 2.98993 1.29704 9.11597 0.25
519 2.74555 0.128258 4.63397 0.25
520 5.1097 2.16312 7.65183 0.25
521 0.829246 4.50601 5.47835 0.25
522 2.33473 10.2271 4.57321 0.25
523 2.68002 2.93086 8.21689 0.25
524 7.85705 1.72306 4.96812 0.25
525 2.09448 6.76611 7.52592 0.25
526 1.40967 5.45461 8.25527 0.25
527 6.46311 9.13331 2.48278 0.5
528 6.88596 9.00472 3.11857 0.25
529 4.4477 6.40592 1.20118 0.25
530 1.35597 7.70303 2.32517 0.25
531 0.372324 3.42366 9.69604 0.25
532 1.29238 8.05706 0.315291 0.25
533 9.03863 9.69013 4.09725 0.25
534 8.67877 3.63758 4.60875 0.25
535 7.22144 6.33197 8.9685 0.25
536 4.41865 9.58051 0.448656 0.25
537 7.64318 1.05439 3.38782 0.25
538 7.34837 3.91173 7.16355 0.25
539 10.3455 3.62735 7.02458 0.5
540 6.18604 10.1682 8.11344 0.25
541 9.49879 9.23423 0.947817 0.25
542 7.59566 8.76474 5.93763 0.25
543 9.58241 3.82394 4.84491 0.25
544 1.52233 1.91306 7.1062 0.25
545 0.0040372 9.85759 3.38866 0.25
546 0.443175 0.675063 6.07223 0.25
547 9.28542 3.77065 1.82566 0.25
548 9.16322 4.80909 9.05665 0.25
549 1.61402 0.381169 1.58005 0.25
550 9.90944 8.7656 1.5295 0.25
551 2.78488 7.58659 3.34918 0.25
552 9.28563 9.24748 6.97181 0.25
553 5.24324 3.09096 5.75132 0.25
554 9.12912 3.56165 4.8405 0.25
555 5.64825 8.97182 7.68962 0.25
556 1.49745 9.0073 7.01876 0.25
557 2.73881 10.1623 7.58115 0.25
558 2.35369 3.84015 8.01172 0.25
559 9.62101 0.949271 9.06884 0.25
560 3.51277 4.78851 5.88977 0.25
561 0.689247 4.1781 1.7664 0.25
562 5.26312 5.0392 9.58843 0.25
563 5.68664 10.123 8.13725 0.25
564 1.21668 1.53537 7.1442 0.25
565 2.74591 1.28031 2.34037 0.25
566 9.14656 6.80217 7.27126 0.25
567 0.754342 6.22958 0.404596 0.25
568 7.40164 1.61078 5.06467 0.25
569 7.64423 4.20227 7.83652 0.5
570 4.60971 3.38091 2.50159 0.25
571 3.55172 4.21219 2.55941 0.25
572 8.18074 1.46298 9.15903 0.25
573 1.10755 6.79755 5.12373 0.25
574 0.450562 0.467812 6.52619 0.25
575 5.70498 3.76668 4.56316 0.25
576 5.42063 1.93239 0.919128 0.25
577 0.368558 7.78813 5.44607 0.25
578 1.44629 4.96062 10.2639 0.5
579 5.28075 4.96459 7.71393 0.25
580 8.45274 6.21408 3.89721 0.25
581 6.88067 7.13906 8.9017 0.25
582 7.38151 4.88553 4.81183 0.25
583 8.86089 5.45564 6.26699 0.25
584 5.47082 6.61571 3.10021 0.25
585 7.0962 0.198729 1.0148 0.25
586 1.908 2.4647 4.69168 0.25
587 6.26794 10.0372 5.35036 0.25
588 3.5181 1.10644 9.86927 0.25
589 9.74622 3.8192 1.71075 0.25
590 7.94001 7.2858 4.26554 0.25
591 3.98819 2.50188 5.35715 0.25
592 7.05317 4.93367 2.4449 0.25
593 5.6105 9.89642 5.90164 0.25
594 8.68913 5.71037 10.0991 0.25
595 1.44854 1.73771 7.54678 0.25
596 9.35368 9.57499 1.29376 0.25
597 5.09396 0.317408 3.33061 0.25
598 6.74309 7.50557 0.465912 0.25
599 9.94114 1.07096 2.03831 0.25
600 3.91093 9.54181 2.30567 0.25
601 7.16452 10.0197 2.46977 0.25
602 6.83978 7.97143 2.28016 0.25
603 2.28028 6.32399 7.32726 0.25
604 9.21476 0.735939 0.980952 0.25
605 1.57562 7.86224 2.78343 0.25
606 1.87972 1.95469 6.73503 0.25
607 2.25699 2.13151 7.45538 0.25
608 6.57776 6.28313 6.04381 0.5
609 3.27858 6.09614 1.44243 0.25
610 6.40987 4.74922 0.882626 0.5
611 8.19674 8.73149 7.27608 0.25
612 8.66103 0.327578 3.83434 0.5
613 7.76888 3.03998 0.198732 0.25
614 9.72659 6.81421 0.862255 0.25
615 6.9973 4.43221 8.08927 0.25
616 1.5086 1.53952 6.74306 0.25
617 2.38665 3.50008 7.64409 0.25
618 8.15842 2.3511 0.040945 0.25
619 1.26893 9.50821 2.19321 0.25
620 6.68069 5.76556 2.81232 0.25
621 6.91631 4.709 1.42643 0.25
622 7.15966 6.83052 9.18813 0.25
623 7.80379 4.30763 4.68149 0.5
624 4.94987 8.43727 8.07411 0.25
625 5.74955 2.03682 0.146985 0.25
626 2.5528 2.91878 4.18358 0.25
627 7.01203 5.78118 2.43799 0.25
628 1.41869 0.0579919 0.319983 0.25
629 7.31187 10.1341 9.99747 0.25
630 5.93721 7.80812 0.0229573 0.25
631 8.20016 1.64021 5.39503 0.25
632 3.48982 3.72717 0.0963243 0.25
633 3.51057 4.04107 0.483686 0.25
634 4.46265 7.98584 8.55566 0.5
635 9.44737 6.47874 7.10071 0.25
636 8.88216 5.36034 9.79734 0.25
637 6.68917 9.09631 4.67259 0.25
638 2.30334 9.56813 4.92888 0.5
639 6.99067 2.53311 2.10178 0.25
640 7.6261 1.54903 7.87256 0.25
641 3.95183 6.31287 4.24737 0.25
642 3.75643 8.00016 6.47301 0.25
643 2.89929 1.40564 0.026902 0.25
644 6.09949 9.58445 4.73815 0.5
645 3.35097 3.23508 0.196308 0.25
646 8.25364 6.52593 3.61439 0.25
647 6.60038 7.05477 5.97429 0.25
648 7.1605 1.33767 7.779 0.25
649 4.6366 6.05402 8.9875 0.25
650 8.12057 1.21784 3.34786 0.25
651 5.30376 8.15238 7.78589 0.25
652 1.25468 5.88004 8.38672 0.25
653 1.00992 4.86819 5.77933 0.25
654 1.42576 6.36098 7.22712 0.25
655 9.89196 4.00594 1.28057 0.25
656 4.44725 4.83735 7.58481 0.25
657 8.81704 9.33164 7.17485 0.25
658 7.19589 4.38147 7.23978 0.25
659 8.8492 10.099 4.29314 0.25
660 1.72437 6.13321 7.84119 0.5
661 1.94051 7.63639 3.16441 0.25
662 7.72156 9.24735 5.7558 0.25
663 2.87122 0.371484 9.21576 0.25
664 0.399982 2.73226 0.32017 0.25
665 8.43792 6.63271 0.829477 0.25
666 5.50926 9.81365 8.47516 0.25
667 7.88473 2.0338 0.308739 0.25
668 6.97643 2.21861 5.68527 0.25
669 3.33822 7.65414 9.33857 0.5
670 0.895142 2.67832 9.51468 0.25
671 0.796947 6.2307 4.68781 0.5
672 6.07447 6.41961 5.53858 0.25
673 4.43365 9.5862 1.35779 0.25
674 6.88731 4.99497 4.89301 0.25
675 7.89507 9.03088 7.50001 0.25
676 5.06584 2.30672 0.32185 0.5
677 9.93248 2.92719 7.84026 0.25
678 10.1985 0.215852 6.19207 0.5
679 1.999 2.22181 7.09732 0.25
680 2.53852 6.99868 2.85819 0.25
681 8.42049 9.40042 6.82819 0.25
682 3.4532 7.44589 4.938 0.25
683 0.203841 2.68063 10.2539 0.25
684 1.63943 8.63218 7.42025 0.25
685 9.13933 10.1779 3.46952 0.25
686 6.85089 9.56661 4.81656 0.25
687 9.75765 3.349 8.00848 0.25
688 5.48501 7.78674 0.22053 0.25
689 2.50644 2.42103 4.10086 0.25
690 9.96248 7.67317 9.45799 0.25
691 0.33535 8.07841 5.85084 0.25
692 1.02388 4.35599 5.88108 0.25
693 9.89952 1.92269 3.51787 0.25
694 3.45333 3.43266 10.0671 0.25
695 7.37241 1.12845 5.13195 0.25
696 5.15397 1.33598 3.90027 0.25
697 1.30257 8.92649 7.50329 0.25
698 8.90122 5.85166 0.490119 0.25
699 3.40732 7.87227 5.18102 0.25
700 5.19896 7.39492 0.458403 0.25
701 3.2856 4.98864 5.42782 0.25
702 6.12232 3.59916 4.84626 0.25
703 1.73711 0.845319 1.78613 0.25
704 6.49261 4.1795 6.95701 0.25
705 3.76026 6.01365 9.04476 0.25
706 7.55409 1.09206 7.59371 0.25
707 6.52748 6.95229 5.12 0.25
708 5.79465 6.91705 3.22784 0.25
709 1.35842 4.41204 1.9387 0.5
710 1.2917 4.59625 5.48805 0.25
711 7.00226 3.93135 8.28492 0.25
712 4.7956 8.35291 3.90301 0.25
713 1.65226 4.73995 3.4216 0.25
714 1.93454 9.91862 4.57763 0.25
715 2.27448 3.60028 8.46254 0.25
716 9.02472 9.26741 1.09652 0.25
717 3.07714 5.27597 5.08089 0.25
718 5.49974 3.53773 5.26288 0.5
719 4.8474 3.35008 5.73549 0.25
720 5.22139 1.83642 3.87024 0.25
721 3.86915 7.49797 6.35674 0.25
722 4.00363 5.49633 4.14588 0.25
723 5.44929 6.31483 6.30049 0.25
724 9.51425 0.441937 8.9544 0.25
725 4.30433 0.33287 6.04604 0.25
726 3.69504 5.89459 4.29923 0.25
727 4.41227 5.39124 4.45667 0.25
728 1.86324 7.62102 0.00443832 0.5
729 7.71689 1.88354 6.08786 0.25
730 8.23083 1.10923 8.84851 0.25
731 1.93023 5.51436 10.1941 0.25
732 3.22093 8.09431 6.42517 0.25
733 10.0327 2.4126 3.54941 0.25
734 8.4328 6.98543 3.62409 0.25
735 3.29621 2.25543 5.7916 0.25
736 8.52802 5.68797 7.02694 0.25
737 0.574439 4.53064 5.91818 0.25
738 5.12779 8.42026 8.58066 0.25
739 3.38504 3.90481 10.0224 0.25
740 8.96227 6.85209 1.41936 0.25
741 6.72858 2.09568 2.76857 0.25
742 5.48043 1.70774 0.499844 0.25
743 10.0557 2.59427 4.03466 0.25
744 2.57503 2.49747 4.81902 0.5
745 0.280039 4.12126 6.03559 0.25
746 6.67064 5.16406 1.47828 0.25
747 7.86844 3.31097 9.5844 0.25
748 7.17206 9.99326 9.51661 0.25
749 6.63752 4.60865 7.7809 0.25
750 4.41846 2.16386 6.71105 0.25
751 2.10085 2.29561 3.87544 0.25
752 10.1396 2.13948 3.88965 0.25
753 0.831304 3.09331 10.1763 0.5
754 7.91183 1.59417 5.7591 0.25
755 7.90039 2.7418 10.2155 0.25
756 5.15121 1.71871 1.30673 0.25
757 0.404914 2.51382 3.84919 0.5
758 1.62312 9.46624 4.64889 0.25
759 4.9725 2.6928 8.3718 0.25
760 4.2893 1.43542 3.68514 0.25
761 5.78183 6.25465 5.92399 0.25
762 0.530245 3.70902 6.52346 0.25
763 6.40433 4.41478 4.91464 0.5
764 5.18788 6.55678 3.49647 0.25
765 6.93232 6.42637 8.52078 0.25
766 1.23789 5.01292 3.23703 0.25
767 7.15055 2.96618 2.20623 0.25
768 4.72498 2.58995 5.82435 0.5
769 1.10319 2.42216 10.3249 0.25
770 5.86972 6.91974 6.08551 0.5
771 5.5505 7.64087 0.722265 0.25
772 7.16583 9.04694 5.34847 0.5
773 6.15816 4.54578 9.92728 0.25
774 6.98654 8.6618 2.76736 0.25
775 0.0255047 7.87663 9.15893 0.25
776 4.66856 9.1528 0.683299 0.25
777 1.27165 8.05383 2.03896 0.25
778 3.87368 0.0413503 8.96287 0.25
779 10.2107 8.03352 9.58917 0.25
780 4.87109 4.77322 9.77219 0.25
781 5.551 7.07545 2.85281 0.25
782 9.49737 6.39105 0.924503 0.25
783 4.3364 8.41168 3.90876 0.25
784 3.04415 3.58736 10.2533 0.25
785 8.34249 8.90077 7.75543 0.25
786 6.78643 6.81133 5.52849 0.25
787 6.51857 6.45303 5.28169 0.25
788 4.73273 1.57012 3.93523 0.25
789 6.96862 5.44783 1.70754 0.25
790 4.8104 2.3608 6.53473 0.25
791 8.65726 5.30519 6.73556 0.25
792 4.31551 4.40391 2.53673 0.5
793 0.0199459 0.311555 8.90152 0.25
794 2.39565 1.67037 2.31882 0.25
795 1.35555 9.25562 7.79302 0.25
796 1.71126 0.104846 4.27895 0.5
797 9.54972 9.38669 3.41992 0.25
798 9.52911 3.45106 4.52723 0.25
799 3.19671 6.56399 2.07645 0.5
800 9.93588 1.57206 1.41302 0.25
801 6.01427 10.1995 9.90954 0.25
802 6.09914 7.05532 0.419152 0.25
803 9.49064 5.11648 9.30914 0.25
804 4.42519 5.26467 7.31421 0.25
805 9.20899 4.01145 5.09806 0.25
806 2.81387 9.34973 7.54316 0.25
807 2.88103 5.27207 5.58918 0.25
808 9.19378 5.51445 9.44027 0.25
809 1.55575 5.06228 9.5661 0.25
810 7.36474 1.80208 6.40233 0.25
811 9.28771 4.70607 9.55283 0.25
812 3.66525 6.39698 1.43589 0.25
813 1.16805 3.79555 2.3497 0.25
814 1.01566 0.0672117 10.3027 0.25
815 3.78058 5.35938 4.89618 0.5
816 6.41027 0.0840205 9.94604 0.25
817 3.90496 9.2791 0.817606 0.5
818 8.85124 6.20422 10.0219 0.25
819 4.02841 6.63975 1.32068 0.25
820 6.96187 4.18324 6.92678 0.25
821 7.9842 9.12261 6.99063 0.25
822 3.90187 3.39235 2.38112 0.25
823 2.03391 9.25252 7.5042 0.5
824 7.47466 3.59218 7.48769 0.25
825 8.19317 8.85541 6.31871 0.5
826 6.6507 2.84622 2.1191 0.25
827 8.74232 6.08248 7.31541 0.25
828 9.5032 3.68984 1.32237 0.25
829 0.558917 7.6993 4.57936 0.25
830 4.12258 6.18713 1.50719 0.25
831 2.50196 6.78043 2.35421 0.25
832 3.90026 5.58888 9.20395 0.25
833 6.19899 6.55009 6.69665 0.25
834 8.89953 4.39302 4.9358 0.25
835 1.47754 1.09598 7.03344 0.25
836 6.96421 4.95104 1.91016 0.25
837 3.84444 7.45005 8.75602 0.25
838 2.56893 9.78861 7.38257 0.25
839 0.504552 1.96756 3.38687 0.25
840 9.03793 3.38064 4.34984 0.25
841 5.49381 4.74884 10.2098 0.5
842 6.79622 6.60665 8.93933 0.25
843 0.950038 9.68168 1.87613 0.25
844 6.51816 4.77627 1.68669 0.25
845 8.76983 3.86303 5.00157 0.25
846 0.926329 5.52929 4.53823 0.25
847 7.67853 2.89175 9.79259 0.25
848 2.77075 0.923285 9.76025 0.5
849 7.15636 5.34623 2.21038 0.25
850 4.5501 8.59201 3.12376 0.25
851 3.74307 6.06991 1.82518 0.25
852 5.50257 1.52599 3.58087 0.25
853 9.31785 10.0185 4.41792 0.25
854 2.17332 3.151 8.43663 0.25
855 3.60178 6.86575 1.51394 0.25
856 9.43478 2.98483 7.8056 0.25
857 6.20861 3.82927 5.32038 0.25
858 9.18963 7.10907 4.08628 0.25
859 9.53047 1.36647 1.43261 0.25
860 2.37112 0.360809 4.38983 0.25
861 4.2645 9.57504 1.87302 0.25
862 7.58222 0.951891 8.35543 0.5
863 0.0600568 2.68804 9.57683 0.25
864 4.23523 4.27832 3.27201 0.25
865 0.782048 6.97959 5.47738 0.25
866 2.9122 1.62444 9.54772 0.25
867 3.06179 8.33681 9.35402 0.25
868 9.5998 0.833934 1.285 0.25
869 0.907742 8.23822 5.06467 0.25
870 7.18702 6.76248 8.68761 0.25
871 6.56552 2.35754 2.31544 0.25
872 8.27528 1.23795 7.74774 0.5
873 5.44354 9.7991 5.10173 0.25
874 6.42539 8.83601 4.94549 0.25
875 4.13591 7.66137 5.64717 0.25
876 3.92698 6.54639 1.83368 0.25
877 0.692011 1.98026 4.26268 0.25
878 10.3333 0.542133 9.3448 0.25
879 0.208901 7.59796 4.95787 0.25
880 6.12675 3.95952 4.50138 0.25
881 4.10248 6.6343 8.8873 0.5
882 10.2001 1.21324 5.75903 0.25
883 4.89237 3.08863 5.37001 0.25
884 2.62583 2.26522 1.81438 0.5
885 9.18311 9.68082 3.61778 0.25
886 9.1796 9.61148 0.78028 0.25
887 1.14313 6.52293 7.60178 0.25
888 1.95106 0.408596 1.93569 0.25
889 4.43652 4.88264 8.05854 0.25
890 0.477788 3.72279 6.0113 0.25
891 4.23158 3.89056 2.99375 0.25
892 6.65612 8.38977 2.49885 0.25
893 8.16457 2.78159 0.279107 0.25
894 1.69157 8.26179 0.0581783 0.25
895 9.63581 2.76581 7.45007 0.25
896 9.4867 1.00726 1.76679 0.25
897 3.45448 7.67899 6.71014 0.25
898 0.980301 5.15373 5.0889 0.5
899 0.176305 0.912957 6.4464 0.25
900 7.97206 6.92612 3.87847 0.25
901 0.778761 7.90791 5.79075 0.25
902 5.5085 2.40122 0.97523 0.25
903 8.97235 6.26174 3.97187 0.25
904 1.28595 5.95525 10.2553 0.5
905 9.35331 1.24809 1.00264 0.25