LAMMPS Description

50 atoms

1 atom types
0 3.968503 xlo xhi
0 3.968503 ylo yhi
0 3.968503 zlo zhi


Atoms # sphere

1 1 1 2.35 0.836359 0.498328 3.27058
2 1 1 2.35 0.816535 0.78551 3.95581
3 1 1 2.35 2.6413 3.79495 1.63206
4 1 1 2.35 0.406353 3.80195 1.54586
5 1 1 2.35 3.74854 1.90061 2.77867
6 1 1 2.35 2.19041 1.68064 2.00686
7 1 1 2.35 1.3853 2.03982 1.92951
8 1 1 2.35 0.293697 1.13465 1.87535
9 1 1 2.35 3.50718 0.313736 3.63171
10 1 1 2.35 0.884204 3.31309 2.79699
11 1 1 2.35 3.45945 0.565674 2.84287
12 1 1 2.35 3.68346 1.97891 0.896612
13 1 1 2.35 3.74667 0.921223 0.06266
14 1 1 2.35 2.4854 0.984242 3.62615
15 1 1 2.35 3.95767 0.344084 2.30066
16 1 1 2.35 0.634119 1.82393 2.30437
17 1 1 2.35 0.674505 2.83926 0.943899
18 1 1 2.35 0.523727 1.44231 2.70241
19 1 1 2.35 0.71773 2.6819 0.344636
20 1 1 2.35 1.94116 0.588942 2.32696
21 1 1 2.35 0.195411 3.90374 3.7258
22 1 1 2.35 0.918484 0.943839 3.30931
23 1 1 2.35 1.7792 1.35624 2.47491
24 1 1 2.35 2.59182 3.25981 2.3404
25 1 1 2.35 3.25362 1.70758 1.24242
26 1 1 2.35 3.22569 2.92715 3.16115
27 1 1 2.35 2.58333 1.9642 3.35187
28 1 1 2.35 2.0469 3.84803 2.36257
29 1 1 2.35 0.0351804 2.89006 0.53033
30 1 1 2.35 3.73159 1.01746 1.51314
31 1 1 2.35 1.01367 0.758344 1.75162
32 1 1 2.35 1.344 1.04915 3.07979
33 1 1 2.35 1.6284 0.633594 2.63524
34 1 1 2.35 0.711253 3.17472 3.23245
35 1 1 2.35 1.80044 3.67296 0.571429
36 1 1 2.35 2.48993 3.61229 1.69183
37 1 1 2.35 0.853642 2.52061 3.49116
38 1 1 2.35 3.53773 2.48859 0.627619
39 1 1 2.35 3.08523 1.94651 2.03999
40 1 1 2.35 2.76189 1.46186 2.42238
41 1 1 2.35 3.71791 0.793241 1.811
42 1 1 2.35 1.52692 2.82898 1.27381
43 1 1 2.35 1.9477 2.42165 1.91297
44 1 1 2.35 2.35634 0.865517 3.77144
45 1 1 2.35 3.05671 0.564625 1.23197
46 1 1 2.35 0.869655 1.90917 0.162675
47 1 1 2.35 3.08599 0.478605 2.58653
48 1 1 2.35 2.57956 1.50249 3.90934
49 1 1 2.35 1.56518 2.46311 1.33363
50 1 1 2.35 2.98024 1.74029 1.87661
