LAMMPS Description

1000 atoms

2 atom types
0 6.650287 xlo xhi
0 6.650287 ylo yhi
0 6.650287 zlo zhi


Atoms # sphere

1 2 0.5 2.35 3.1589 0.2466 2.75494
2 2 0.5 2.35 2.07082 4.85339 5.13141
3 2 0.5 2.35 6.37826 2.87134 3.41674
4 2 0.5 2.35 3.28166 5.8642 6.5245
5 2 0.5 2.35 2.23964 3.60334 5.91628
6 2 0.5 2.35 3.31572 2.3978 3.38097
7 2 0.5 2.35 4.37289 1.57119 5.89641
8 2 0.5 2.35 4.02567 3.99724 2.8111
9 2 0.5 2.35 1.05538 3.69869 5.47466
10 2 0.5 2.35 3.7856 3.93449 2.6165
11 1 1 2.35 6.51005 4.557 2.61554
12 2 0.5 2.35 4.65167 1.37866 3.73441
13 2 0.5 2.35 4.47065 0.265598 0.797013
14 2 0.5 2.35 0.329919 0.655377 1.78951
15 2 0.5 2.35 5.91452 1.05317 4.50537
16 1 1 2.35 5.6667 1.00447 1.51421
17 2 0.5 2.35 0.739256 3.38334 2.58105
18 2 0.5 2.35 4.86281 0.705568 4.09165
19 2 0.5 2.35 3.61928 6.19127 0.0620516
20 2 0.5 2.35 3.78122 0.138064 0.386819
21 2 0.5 2.35 5.97465 6.15183 1.01545
22 2 0.5 2.35 0.274246 4.41059 5.82569
23 2 0.5 2.35 0.0329991 2.72567 5.54292
24 2 0.5 2.35 4.16028 1.93976 6.45852
25 2 0.5 2.35 0.452033 3.30372 0.530251
26 2 0.5 2.35 2.2609 3.70184 5.28992
27 2 0.5 2.35 4.09191 2.44592 5.97816
28 2 0.5 2.35 5.94118 4.25321 1.43678
29 2 0.5 2.35 1.92457 6.20376 2.50104
30 2 0.5 2.35 6.37037 0.50269 1.72915
31 2 0.5 2.35 0.875641 2.5771 1.61936
32 2 0.5 2.35 5.49683 2.396 0.752158
33 1 1 2.35 6.00189 6.09842 4.89095
34 2 0.5 2.35 4.38187 6.61378 4.42954
35 1 1 2.35 0.623719 0.590033 4.13837
36 2 0.5 2.35 6.24237 4.73939 6.51666
37 2 0.5 2.35 2.95319 1.64252 6.36639
38 2 0.5 2.35 4.34302 2.53274 0.00186321
39 2 0.5 2.35 2.45146 0.892065 6.35543
40 2 0.5 2.35 2.54119 1.88537 4.87746
41 2 0.5 2.35 1.91366 0.12478 3.91875
42 1 1 2.35 0.559523 4.65511 1.41926
43 2 0.5 2.35 1.94001 5.61435 0.84972
44 2 0.5 2.35 5.82297 3.40807 5.46851
45 2 0.5 2.35 5.58542 1.25153 3.43373
46 2 0.5 2.35 3.26614 6.6324 4.68856
47 2 0.5 2.35 3.26848 4.32099 2.53664
48 2 0.5 2.35 5.49367 0.0891716 5.33887
49 2 0.5 2.35 4.08991 5.29161 2.64326
50 1 1 2.35 5.67779 3.06536 4.31604
51 2 0.5 2.35 5.57685 4.54076 4.05205
52 1 1 2.35 4.4427 3.54434 4.05856
53 2 0.5 2.35 1.06453 3.82718 2.40931
54 2 0.5 2.35 3.2805 2.50902 0.499087
55 2 0.5 2.35 1.81724 4.36395 3.64843
56 2 0.5 2.35 0.921205 5.25796 0.333304
57 2 0.5 2.35 1.60974 3.17446 5.97188
58 2 0.5 2.35 4.08689 2.02146 1.18955
59 2 0.5 2.35 0.624869 5.02231 3.63988
60 2 0.5 2.35 4.01173 6.35959 0.468205
61 2 0.5 2.35 0.240608 0.714318 4.2039
62 2 0.5 2.35 6.49767 0.589195 6.65008
63 2 0.5 2.35 2.84456 1.14075 4.14531
64 2 0.5 2.35 2.17767 0.574467 0.372055
65 2 0.5 2.35 6.30147 3.73676 3.01669
66 2 0.5 2.35 0.372128 6.39809 1.00893
67 2 0.5 2.35 1.72987 3.69697 0.866875
68 2 0.5 2.35 0.770803 2.77721 4.07168
69 2 0.5 2.35 3.4695 4.32174 0.137338
70 2 0.5 2.35 4.14001 0.226886 6.03906
71 2 0.5 2.35 2.60208 3.58781 0.425917
72 2 0.5 2.35 2.88121 1.0743 4.28795
73 2 0.5 2.35 1.14935 5.71941 4.94177
74 2 0.5 2.35 6.57669 3.62962 5.58717
75 2 0.5 2.35 0.319395 4.11491 5.53805
76 2 0.5 2.35 2.64254 2.66514 1.3449
77 2 0.5 2.35 6.05601 5.17007 3.50005
78 2 0.5 2.35 6.57378 2.5898 3.73983
79 1 1 2.35 2.35241 3.55151 1.82676
80 2 0.5 2.35 1.61395 4.67658 0.929717
81 2 0.5 2.35 3.53328 6.15153 1.14918
82 1 1 2.35 2.1321 4.575 0.0587216
83 2 0.5 2.35 0.420377 1.44054 4.92853
84 2 0.5 2.35 0.897176 2.5144 2.31769
85 2 0.5 2.35 1.64145 2.59106 0.602756
86 1 1 2.35 5.32065 0.735996 3.12843
87 2 0.5 2.35 1.56092 5.7792 5.63916
88 2 0.5 2.35 0.954822 4.35233 3.7376
89 2 0.5 2.35 0.526557 1.47648 6.26049
90 2 0.5 2.35 2.24032 2.95401 3.57964
91 1 1 2.35 2.85221 0.736658 2.14051
92 2 0.5 2.35 3.93527 5.04734 0.0192824
93 2 0.5 2.35 6.09819 3.40779 4.47991
94 2 0.5 2.35 3.18105 1.65364 1.41548
95 2 0.5 2.35 5.92178 0.775278 1.72333
96 1 1 2.35 1.16526 4.31584 2.98296
97 2 0.5 2.35 0.609799 0.671979 2.6579
98 2 0.5 2.35 2.79813 2.59415 3.82426
99 2 0.5 2.35 2.49832 5.51732 0.858632
100 2 0.5 2.35 2.51487 5.28337 5.71776
101 2 0.5 2.35 1.78278 3.34354 5.62343
102 2 0.5 2.35 0.546485 4.19912 4.45975
103 1 1 2.35 1.78314 3.30338 3.06025
104 2 0.5 2.35 2.02225 1.88648 1.7981
105 2 0.5 2.35 3.57417 3.77618 1.14631
106 2 0.5 2.35 5.1414 2.88546 5.78598
107 2 0.5 2.35 1.26557 3.73259 5.1806
108 2 0.5 2.35 1.73283 0.47633 1.08541
109 2 0.5 2.35 1.20855 1.96395 3.81297
110 2 0.5 2.35 1.43929 4.3867 4.51475
111 2 0.5 2.35 2.81316 0.0840934 4.41802
112 2 0.5 2.35 3.07411 6.23829 0.547053
113 2 0.5 2.35 2.46543 5.97833 3.03362
114 2 0.5 2.35 6.46927 6.24359 2.87037
115 2 0.5 2.35 5.47933 2.12958 1.5578
116 2 0.5 2.35 2.63926 6.58331 0.403966
117 2 0.5 2.35 2.36871 5.86224 4.59457
118 2 0.5 2.35 3.71076 5.17477 1.00408
119 2 0.5 2.35 0.339785 1.1198 3.32126
120 2 0.5 2.35 3.27566 5.09936 2.44181
121 2 0.5 2.35 2.30139 6.0071 1.87472
122 2 0.5 2.35 4.20153 1.9191 0.0232783
123 2 0.5 2.35 3.47509 0.617464 4.43481
124 2 0.5 2.35 0.491516 4.61206 4.21967
125 2 0.5 2.35 1.5625 5.91899 1.28984
126 2 0.5 2.35 0.0557553 1.66709 4.48328
127 2 0.5 2.35 1.80737 0.347998 1.31205
128 2 0.5 2.35 0.824016 3.00041 5.91002
129 2 0.5 2.35 0.839449 0.0325921 4.94837
130 2 0.5 2.35 1.0267 0.604418 5.86851
131 2 0.5 2.35 0.166188 4.60681 0.0155016
132 2 0.5 2.35 4.8687 5.37427 1.05842
133 2 0.5 2.35 2.18136 3.145 5.64423
134 2 0.5 2.35 6.21871 2.79473 4.76947
135 2 0.5 2.35 5.12582 3.37828 0.162775
136 2 0.5 2.35 1.36493 5.06651 2.27979
137 2 0.5 2.35 3.45633 4.44647 3.70473
138 2 0.5 2.35 2.38775 0.579646 1.76344
139 1 1 2.35 5.40575 1.66453 3.22845
140 2 0.5 2.35 2.3499 3.10398 5.98467
141 2 0.5 2.35 5.00312 1.97191 1.42646
142 2 0.5 2.35 4.24695 0.0109854 0.300906
143 2 0.5 2.35 6.40574 5.96029 0.669149
144 2 0.5 2.35 3.41321 2.80935 0.0791144
145 1 1 2.35 1.37578 0.984007 0.786664
146 2 0.5 2.35 0.66559 2.44681 6.40798
147 2 0.5 2.35 2.66907 5.43953 3.86458
148 2 0.5 2.35 4.40876 3.26138 5.60161
149 2 0.5 2.35 4.7115 3.9624 1.26344
150 2 0.5 2.35 0.491391 5.86618 5.68229
151 2 0.5 2.35 0.865604 6.01886 3.27442
152 2 0.5 2.35 5.48458 6.02643 5.20217
153 2 0.5 2.35 3.20467 5.11315 4.55942
154 2 0.5 2.35 6.49527 4.64741 4.57765
155 2 0.5 2.35 0.775433 6.36153 0.74202
156 2 0.5 2.35 5.10735 3.78185 0.569888
157 2 0.5 2.35 0.176365 0.632236 3.63935
158 2 0.5 2.35 0.848602 5.08755 4.53717
159 2 0.5 2.35 3.63793 6.36463 2.77804
160 2 0.5 2.35 4.16238 5.54608 3.53134
161 2 0.5 2.35 5.11016 4.60602 0.0673542
162 1 1 2.35 5.25655 3.0145 5.46483
163 2 0.5 2.35 4.38205 0.415908 0.41654
164 1 1 2.35 4.35423 3.00238 4.61767
165 2 0.5 2.35 3.62792 4.6766 2.23083
166 2 0.5 2.35 4.12182 5.99127 4.07021
167 2 0.5 2.35 0.613409 2.04989 0.179643
168 2 0.5 2.35 3.82896 0.352395 3.26685
169 2 0.5 2.35 5.31011 1.07697 6.40783
170 2 0.5 2.35 3.29203 3.62139 4.56667
171 2 0.5 2.35 2.35008 0.0459616 5.56109
172 2 0.5 2.35 6.40507 2.42647 0.959191
173 2 0.5 2.35 1.39006 4.13198 6.16414
174 1 1 2.35 3.74012 3.35428 2.69586
175 2 0.5 2.35 1.40903 5.90112 3.84906
176 1 1 2.35 2.75824 3.7235 5.94462
177 2 0.5 2.35 4.69822 4.53788 1.557
178 1 1 2.35 1.21651 5.08673 3.74762
179 2 0.5 2.35 3.73727 2.18649 2.39411
180 1 1 2.35 4.02585 5.70959 6.64838
181 2 0.5 2.35 1.89061 5.7361 3.62566
182 1 1 2.35 1.24338 0.999755 1.31873
183 2 0.5 2.35 1.88707 0.398647 3.21951
184 2 0.5 2.35 4.59679 0.885193 4.11382
185 2 0.5 2.35 4.81384 4.4259 6.30751
186 2 0.5 2.35 6.29624 0.221453 1.53376
187 2 0.5 2.35 3.96805 1.83658 3.49785
188 2 0.5 2.35 0.297155 3.65563 4.94706
189 2 0.5 2.35 2.56945 3.44117 2.49648
190 2 0.5 2.35 5.83323 0.313677 3.94657
191 2 0.5 2.35 3.04945 4.43048 5.6373
192 2 0.5 2.35 2.55989 2.56677 5.09431
193 2 0.5 2.35 1.87976 1.13021 4.79873
194 2 0.5 2.35 2.81786 4.48846 0.139567
195 2 0.5 2.35 6.11343 6.497 3.60342
196 2 0.5 2.35 0.747949 1.43718 1.01158
197 2 0.5 2.35 5.16654 0.918429 2.94046
198 2 0.5 2.35 0.482707 4.28122 4.23801
199 2 0.5 2.35 2.46638 6.39905 2.83423
200 2 0.5 2.35 0.432968 6.30201 0.128684
201 1 1 2.35 2.91792 5.13543 4.67492
202 1 1 2.35 4.02129 4.97468 3.59097
203 2 0.5 2.35 3.26257 5.56583 3.07685
204 2 0.5 2.35 4.69648 2.31266 2.59656
205 2 0.5 2.35 5.31377 2.6934 0.000127885
206 2 0.5 2.35 6.24708 3.89076 1.10383
207 2 0.5 2.35 4.83414 4.41719 3.73701
208 2 0.5 2.35 0.662703 0.654223 5.99866
209 2 0.5 2.35 2.36872 3.3134 2.08346
210 2 0.5 2.35 3.11882 3.07157 3.71114
211 2 0.5 2.35 2.18382 1.67649 6.5541
212 2 0.5 2.35 0.24349 5.72087 2.14855
213 2 0.5 2.35 0.06312 6.4257 5.71567
214 2 0.5 2.35 6.10189 5.4025 2.35174
215 1 1 2.35 6.59553 2.78615 0.226986
216 2 0.5 2.35 1.73612 6.35153 3.02644
217 1 1 2.35 6.39598 4.85399 1.73266
218 2 0.5 2.35 2.56715 3.97216 2.92442
219 2 0.5 2.35 1.7495 1.78936 1.66472
220 2 0.5 2.35 1.76001 5.56982 4.71708
221 2 0.5 2.35 4.26474 1.36815 2.37309
222 2 0.5 2.35 5.81101 5.97748 0.139976
223 2 0.5 2.35 2.54356 4.60253 0.910465
224 2 0.5 2.35 5.00279 3.26338 2.5969
225 2 0.5 2.35 0.751332 4.45649 2.49446
226 2 0.5 2.35 2.36632 6.01593 1.33242
227 2 0.5 2.35 1.52281 6.45839 4.40383
228 2 0.5 2.35 5.84007 5.25984 5.58141
229 2 0.5 2.35 3.08591 2.64011 2.31654
230 2 0.5 2.35 1.44672 5.28837 1.95732
231 2 0.5 2.35 2.4963 3.25136 5.38923
232 2 0.5 2.35 0.0550723 3.06593 1.9519
233 2 0.5 2.35 5.92414 4.06242 4.36368
234 2 0.5 2.35 2.87461 1.27964 1.85631
235 2 0.5 2.35 1.62206 6.49316 3.51641
236 2 0.5 2.35 4.29414 0.0272347 0.0215936
237 2 0.5 2.35 5.29883 3.21636 0.441494
238 2 0.5 2.35 4.00181 5.62315 3.02375
239 2 0.5 2.35 2.24451 2.86254 6.43557
240 2 0.5 2.35 5.54041 5.60434 6.05737
241 2 0.5 2.35 1.50144 5.77704 4.42284
242 2 0.5 2.35 5.05239 4.30812 1.05672
243 2 0.5 2.35 5.6706 1.2413 5.42176
244 2 0.5 2.35 1.94738 4.30039 1.82937
245 2 0.5 2.35 4.97923 2.64178 6.06868
246 2 0.5 2.35 0.8056 0.281169 0.507207
247 2 0.5 2.35 5.03449 0.141348 1.4868
248 2 0.5 2.35 3.56543 0.525883 0.00150225
249 2 0.5 2.35 3.79975 1.41625 0.338747
250 2 0.5 2.35 4.66309 1.2875 5.69499
251 2 0.5 2.35 2.54347 6.1441 3.41786
252 2 0.5 2.35 6.4416 3.67461 1.06098
253 2 0.5 2.35 4.16433 6.37221 3.13908
254 2 0.5 2.35 3.09111 5.70538 5.28314
255 2 0.5 2.35 4.45668 5.5536 1.50296
256 2 0.5 2.35 3.58825 1.41975 1.43266
257 2 0.5 2.35 0.167423 4.16371 5.94847
258 2 0.5 2.35 3.91071 4.90889 5.70758
259 2 0.5 2.35 3.49233 2.84271 6.35127
260 1 1 2.35 0.595596 0.649574 1.88265
261 2 0.5 2.35 4.70407 2.14787 0.0776053
262 2 0.5 2.35 4.59338 3.15531 0.373021
263 2 0.5 2.35 1.82426 6.53224 1.59802
264 2 0.5 2.35 2.74859 0.912943 2.60494
265 2 0.5 2.35 6.43583 1.5901 1.9714
266 2 0.5 2.35 3.24847 3.89449 2.26888
267 2 0.5 2.35 6.26814 4.13113 6.48685
268 2 0.5 2.35 1.86887 4.9947 3.06862
269 2 0.5 2.35 0.908994 1.4241 0.450279
270 2 0.5 2.35 0.96067 0.349825 5.22483
271 2 0.5 2.35 5.4006 0.049117 0.0983871
272 2 0.5 2.35 4.09475 3.02614 3.97179
273 2 0.5 2.35 0.221388 5.38871 1.21561
274 2 0.5 2.35 6.22741 2.29368 3.13282
275 2 0.5 2.35 5.23011 4.69994 4.68871
276 2 0.5 2.35 5.72963 1.07237 1.31454
277 2 0.5 2.35 0.996081 5.59794 4.85232
278 2 0.5 2.35 2.91745 1.68501 6.04993
279 2 0.5 2.35 2.82686 6.15231 3.52851
280 2 0.5 2.35 3.98332 0.103214 4.74063
281 2 0.5 2.35 3.72812 2.11914 0.907376
282 2 0.5 2.35 4.07399 0.742174 4.0237
283 2 0.5 2.35 2.16348 4.15185 6.3628
284 2 0.5 2.35 2.60488 5.62907 5.4931
285 1 1 2.35 2.99066 1.03589 4.41676
286 2 0.5 2.35 2.42539 2.53712 5.2936
287 2 0.5 2.35 1.02802 6.62854 3.73418
288 2 0.5 2.35 4.1319 4.54036 4.72185
289 2 0.5 2.35 5.94188 5.25178 5.78733
290 2 0.5 2.35 4.41543 0.369147 5.13754
291 2 0.5 2.35 6.46554 3.6678 6.29503
292 2 0.5 2.35 2.54938 4.27403 2.13128
293 2 0.5 2.35 5.5368 0.480914 1.78268
294 2 0.5 2.35 4.24643 1.61527 3.77536
295 1 1 2.35 2.23474 5.07152 1.78955
296 2 0.5 2.35 1.0859 5.01077 2.48005
297 2 0.5 2.35 5.39716 5.37898 3.80187
298 2 0.5 2.35 2.53725 1.95128 2.62442
299 2 0.5 2.35 4.50531 0.845124 6.63258
300 2 0.5 2.35 5.53204 5.72456 3.49603
301 2 0.5 2.35 0.44317 3.68134 4.28173
302 1 1 2.35 5.56701 5.5739 5.29251
303 2 0.5 2.35 0.0408895 1.48723 3.46393
304 2 0.5 2.35 0.552779 5.65503 1.44104
305 2 0.5 2.35 3.32596 2.68218 2.43592
306 2 0.5 2.35 3.35748 1.00081 4.99855
307 2 0.5 2.35 5.70738 2.22074 1.54407
308 2 0.5 2.35 2.90592 2.53748 1.62006
309 2 0.5 2.35 0.972106 5.61114 0.309699
310 2 0.5 2.35 4.3764 2.61553 3.95684
311 2 0.5 2.35 0.828406 3.02522 4.42306
312 1 1 2.35 6.49685 4.17603 5.0657
313 1 1 2.35 1.72961 0.592613 1.18822
314 2 0.5 2.35 4.7938 6.56994 2.09917
315 2 0.5 2.35 5.23304 2.4186 4.55187
316 2 0.5 2.35 1.77128 5.32299 1.4217
317 1 1 2.35 1.21743 0.452317 5.37084
318 1 1 2.35 0.903037 2.76987 2.70923
319 2 0.5 2.35 3.68599 5.93742 4.35596
320 2 0.5 2.35 0.822233 5.82412 2.8139
321 2 0.5 2.35 1.67596 5.9579 3.08474
322 2 0.5 2.35 5.61512 5.15566 1.4319
323 2 0.5 2.35 2.51753 2.43208 4.56255
324 2 0.5 2.35 6.11779 0.34392 0.448648
325 2 0.5 2.35 1.02226 1.93617 1.24852
326 1 1 2.35 0.523028 0.770174 0.371598
327 2 0.5 2.35 0.125634 2.95092 6.64273
328 2 0.5 2.35 5.1771 0.218529 1.91319
329 2 0.5 2.35 3.28852 2.66894 3.06167
330 1 1 2.35 5.84516 2.08924 1.58988
331 2 0.5 2.35 0.505117 5.19884 3.62145
332 2 0.5 2.35 3.23961 3.18238 4.05587
333 2 0.5 2.35 4.73327 1.81723 0.00124958
334 2 0.5 2.35 1.92691 2.33445 0.672929
335 2 0.5 2.35 3.87149 1.30822 5.23473
336 2 0.5 2.35 5.00848 0.914266 0.470429
337 2 0.5 2.35 0.460167 2.01815 3.03441
338 2 0.5 2.35 5.09823 5.21274 0.972673
339 1 1 2.35 2.66644 0.492667 1.55123
340 2 0.5 2.35 0.934825 2.45034 4.31411
341 2 0.5 2.35 2.51357 5.48484 4.90241
342 2 0.5 2.35 3.47172 1.03423 0.989704
343 2 0.5 2.35 2.28105 0.0763378 4.48095
344 2 0.5 2.35 0.153964 0.244422 4.06061
345 1 1 2.35 4.77315 5.33342 2.73215
346 2 0.5 2.35 0.113659 5.0263 1.69305
347 2 0.5 2.35 5.7039 0.32509 2.97298
348 1 1 2.35 3.19049 0.594919 0.814523
349 2 0.5 2.35 1.21857 0.592631 3.42254
350 2 0.5 2.35 6.13918 0.486397 1.37909
351 2 0.5 2.35 2.72195 3.7706 2.27191
352 2 0.5 2.35 0.581621 5.26779 6.60636
353 2 0.5 2.35 5.17957 3.27262 0.577295
354 2 0.5 2.35 1.89602 5.78646 3.1251
355 2 0.5 2.35 5.75909 0.383094 6.64661
356 1 1 2.35 0.515024 6.18207 0.564885
357 2 0.5 2.35 1.24968 5.57246 1.37193
358 2 0.5 2.35 1.50113 5.99255 2.18442
359 2 0.5 2.35 2.46563 1.46713 5.09988
360 2 0.5 2.35 5.5387 5.11025 1.30147
361 2 0.5 2.35 6.01642 2.75092 1.18517
362 2 0.5 2.35 1.37024 1.87757 0.676321
363 2 0.5 2.35 4.82198 4.10782 2.16124
364 2 0.5 2.35 0.415485 6.25601 6.10583
365 2 0.5 2.35 4.49771 1.07078 4.59886
366 2 0.5 2.35 4.03992 2.91111 4.00359
367 2 0.5 2.35 2.2289 6.58435 3.64226
368 2 0.5 2.35 4.77557 3.36863 3.52777
369 2 0.5 2.35 6.04154 1.85415 0.264066
370 2 0.5 2.35 3.18157 0.65031 2.61586
371 2 0.5 2.35 5.39987 3.02729 6.12841
372 2 0.5 2.35 2.79219 6.12019 5.36034
373 2 0.5 2.35 2.72902 3.06213 6.15834
374 2 0.5 2.35 1.99302 5.68895 5.72452
375 2 0.5 2.35 1.92619 6.38421 1.31597
376 2 0.5 2.35 3.95626 4.00459 0.406573
377 2 0.5 2.35 4.00005 5.47633 1.13404
378 2 0.5 2.35 2.31071 1.60585 6.47483
379 2 0.5 2.35 3.71385 2.39482 5.99653
380 2 0.5 2.35 5.71968 1.4326 1.51715
381 2 0.5 2.35 6.51756 6.43736 4.38033
382 2 0.5 2.35 6.45601 2.76775 2.08839
383 2 0.5 2.35 1.24486 2.93738 0.617264
384 2 0.5 2.35 0.883445 0.115377 3.08544
385 2 0.5 2.35 1.54835 6.52703 3.71994
386 1 1 2.35 5.60385 2.82417 5.70176
387 2 0.5 2.35 1.55282 0.338378 4.41604
388 2 0.5 2.35 1.47861 3.97082 4.83789
389 2 0.5 2.35 4.57466 4.59749 1.37869
390 2 0.5 2.35 3.99195 3.35167 1.92819
391 2 0.5 2.35 3.90118 0.0746468 0.560141
392 2 0.5 2.35 2.31123 0.00312954 3.69723
393 2 0.5 2.35 5.9274 1.9162 5.68808
394 2 0.5 2.35 4.47524 1.48724 1.54033
395 2 0.5 2.35 1.45067 1.48191 4.67562
396 2 0.5 2.35 5.28586 4.37978 2.09555
397 2 0.5 2.35 5.13425 6.3904 2.22856
398 2 0.5 2.35 1.56442 0.668668 0.48612
399 2 0.5 2.35 1.50838 2.13213 5.00553
400 2 0.5 2.35 3.39974 0.179532 5.56971
401 2 0.5 2.35 0.582378 0.57669 2.69573
402 2 0.5 2.35 0.634905 6.60053 5.70204
403 2 0.5 2.35 4.80453 3.09228 4.11615
404 1 1 2.35 0.501499 3.82278 5.62607
405 1 1 2.35 5.87538 1.51758 3.88517
406 1 1 2.35 6.4888 6.44022 0.296117
407 2 0.5 2.35 5.55529 1.99713 2.42125
408 2 0.5 2.35 1.89215 3.32222 1.0231
409 2 0.5 2.35 0.155869 5.36625 2.6341
410 2 0.5 2.35 5.38296 5.46564 4.88306
411 2 0.5 2.35 3.03839 6.35503 1.92325
412 2 0.5 2.35 0.0869076 4.46954 5.46014
413 2 0.5 2.35 3.23489 2.19397 3.43511
414 2 0.5 2.35 1.58256 2.6099 6.14866
415 2 0.5 2.35 6.02188 2.20327 3.84744
416 2 0.5 2.35 1.01408 4.58568 5.47566
417 2 0.5 2.35 1.40572 6.11559 1.2055
418 2 0.5 2.35 6.52957 4.19333 5.75612
419 1 1 2.35 4.2902 1.59925 4.93779
420 2 0.5 2.35 1.68018 1.57236 3.60774
421 2 0.5 2.35 3.32631 3.47881 3.43117
422 2 0.5 2.35 1.78313 4.97994 4.08754
423 2 0.5 2.35 0.897901 4.70389 1.30293
424 2 0.5 2.35 1.22656 0.654116 4.53588
425 2 0.5 2.35 1.42004 3.0769 3.64828
426 2 0.5 2.35 0.457956 4.75661 3.24244
427 2 0.5 2.35 6.06732 0.472785 5.10942
428 2 0.5 2.35 5.44917 0.108374 2.95806
429 2 0.5 2.35 3.37307 0.234153 2.41323
430 2 0.5 2.35 4.25455 0.0818085 0.5926
431 2 0.5 2.35 1.21996 4.00787 4.59723
432 2 0.5 2.35 4.67267 0.0229942 1.23587
433 2 0.5 2.35 4.4947 0.15388 1.46776
434 2 0.5 2.35 3.14428 3.4543 0.981726
435 1 1 2.35 5.17282 2.13568 2.30166
436 2 0.5 2.35 2.81341 3.86419 0.801747
437 2 0.5 2.35 5.5972 6.01967 4.92367
438 2 0.5 2.35 5.44146 1.5888 1.22777
439 2 0.5 2.35 2.94673 1.22233 5.96722
440 2 0.5 2.35 2.1105 2.54387 6.17864
441 2 0.5 2.35 5.22999 5.91787 2.25091
442 2 0.5 2.35 3.02793 1.93274 4.25535
443 2 0.5 2.35 2.44887 3.02519 5.28669
444 2 0.5 2.35 4.22726 6.39824 0.821244
445 2 0.5 2.35 1.19874 1.22008 1.78285
446 1 1 2.35 4.54742 5.28305 4.71569
447 2 0.5 2.35 3.83828 4.86564 5.37461
448 2 0.5 2.35 2.03045 5.40358 1.82799
449 2 0.5 2.35 6.64098 0.15006 1.26338
450 2 0.5 2.35 1.15815 2.70448 0.300855
451 2 0.5 2.35 3.87565 4.78776 4.54004
452 1 1 2.35 1.71173 4.33512 6.49667
453 2 0.5 2.35 0.187524 1.2205 1.69615
454 2 0.5 2.35 5.16618 2.50441 5.0436
455 2 0.5 2.35 3.3004 3.11288 2.50781
456 1 1 2.35 1.1911 6.01679 3.26277
457 2 0.5 2.35 5.01424 3.99102 2.83501
458 2 0.5 2.35 4.06709 3.80541 4.80371
459 2 0.5 2.35 4.84614 0.743069 5.74964
460 2 0.5 2.35 2.50575 2.07814 5.52249
461 2 0.5 2.35 4.00349 0.251797 2.7937
462 2 0.5 2.35 1.87997 0.11645 4.40749
463 2 0.5 2.35 2.12244 2.0615 5.9241
464 2 0.5 2.35 4.18809 6.11178 5.72424
465 2 0.5 2.35 0.0721001 3.03838 1.57076
466 1 1 2.35 4.64395 5.69963 4.51788
467 2 0.5 2.35 5.42558 6.51749 4.27035
468 1 1 2.35 2.83365 0.293576 6.33578
469 2 0.5 2.35 2.41117 5.88672 5.26274
470 2 0.5 2.35 6.52598 4.86744 4.34879
471 2 0.5 2.35 0.562188 4.39146 2.06443
472 2 0.5 2.35 5.93243 2.8584 1.87049
473 2 0.5 2.35 1.81008 1.1549 4.51811
474 2 0.5 2.35 3.96403 4.59767 1.83268
475 2 0.5 2.35 5.96341 3.16785 0.211009
476 2 0.5 2.35 5.74513 0.471701 3.19759
477 1 1 2.35 0.17796 2.78598 5.06367
478 2 0.5 2.35 2.94752 0.531502 2.74205
479 2 0.5 2.35 2.50164 3.87776 6.61522
480 2 0.5 2.35 3.97751 6.08265 0.356787
481 2 0.5 2.35 1.96503 2.29635 1.3094
482 2 0.5 2.35 2.90011 6.6182 0.654618
483 2 0.5 2.35 2.46936 2.65112 3.60891
484 2 0.5 2.35 3.59815 5.43281 6.53204
485 2 0.5 2.35 1.5254 0.232193 3.42041
486 2 0.5 2.35 3.88196 6.10653 0.727431
487 1 1 2.35 1.94623 2.76611 0.70329
488 2 0.5 2.35 1.40377 1.28681 0.733581
489 2 0.5 2.35 3.02241 3.43933 1.65627
490 2 0.5 2.35 2.05144 5.41226 2.72942
491 1 1 2.35 5.62561 5.32303 5.76765
492 2 0.5 2.35 1.81025 2.97883 5.86537
493 2 0.5 2.35 3.97622 1.14999 6.14761
494 2 0.5 2.35 4.81983 6.44983 2.64919
495 2 0.5 2.35 0.119554 3.21984 0.84376
496 2 0.5 2.35 3.91831 5.94481 0.398525
497 2 0.5 2.35 2.66809 6.24513 0.318425
498 2 0.5 2.35 2.5912 1.10617 4.70668
499 2 0.5 2.35 0.943273 1.92493 6.62079
500 2 0.5 2.35 6.36049 4.08746 1.77535
501 2 0.5 2.35 2.57325 3.35833 5.19325
502 2 0.5 2.35 0.819636 4.16064 6.5067
503 2 0.5 2.35 4.4905 6.09619 3.00024
504 2 0.5 2.35 4.94658 6.23948 3.92332
505 2 0.5 2.35 1.81076 0.250908 4.4459
506 2 0.5 2.35 6.33511 4.42146 2.92527
507 2 0.5 2.35 3.46994 0.333569 4.24965
508 1 1 2.35 0.282154 0.57762 5.3326
509 1 1 2.35 5.30817 5.63528 5.73636
510 2 0.5 2.35 0.944326 6.17848 2.31854
511 2 0.5 2.35 2.92485 1.82316 5.99346
512 2 0.5 2.35 0.522854 1.17897 6.55731
513 1 1 2.35 1.61396 3.52331 4.32656
514 2 0.5 2.35 3.52204 4.24491 4.86365
515 2 0.5 2.35 1.18532 2.25216 2.96177
516 1 1 2.35 4.09691 1.9728 0.267432
517 1 1 2.35 0.191064 4.4617 1.97096
518 2 0.5 2.35 2.92395 2.37741 6.00288
519 2 0.5 2.35 0.118223 2.82748 4.02299
520 2 0.5 2.35 6.36573 6.45701 4.26385
521 2 0.5 2.35 1.00024 3.14909 5.64182
522 1 1 2.35 4.92969 6.04038 5.74467
523 2 0.5 2.35 1.46162 0.260817 5.30342
524 2 0.5 2.35 2.03854 6.49562 6.44689
525 2 0.5 2.35 0.502761 6.05888 0.981076
526 2 0.5 2.35 0.97204 2.92284 5.06023
527 2 0.5 2.35 0.427008 6.10028 0.825551
528 2 0.5 2.35 0.409511 6.29963 5.38771
529 1 1 2.35 6.01407 0.45241 4.97636
530 2 0.5 2.35 0.873926 5.61925 1.53638
531 2 0.5 2.35 4.71189 0.932751 4.72731
532 1 1 2.35 1.12456 6.47413 4.69142
533 2 0.5 2.35 2.89003 0.204845 4.14275
534 2 0.5 2.35 1.9191 2.71881 6.45234
535 1 1 2.35 4.24337 3.21417 5.72264
536 2 0.5 2.35 0.679751 1.7853 0.0926497
537 2 0.5 2.35 4.13622 1.27014 1.03837
538 2 0.5 2.35 0.867397 5.2263 3.53439
539 2 0.5 2.35 6.523 5.6402 0.112135
540 1 1 2.35 2.87144 4.29562 3.8224
541 2 0.5 2.35 0.456462 6.55899 5.60502
542 2 0.5 2.35 4.14671 5.31538 3.16834
543 2 0.5 2.35 5.0731 3.78273 5.91081
544 2 0.5 2.35 0.232034 2.74761 2.31151
545 2 0.5 2.35 1.43958 5.34981 3.07759
546 2 0.5 2.35 0.59321 1.50876 1.16354
547 2 0.5 2.35 6.52499 5.63744 2.05793
548 2 0.5 2.35 4.22935 5.37244 4.68919
549 2 0.5 2.35 1.34567 3.31961 0.120661
550 2 0.5 2.35 4.41678 2.09076 0.501906
551 2 0.5 2.35 1.69018 4.26887 0.402516
552 2 0.5 2.35 1.39993 3.94798 3.65149
553 2 0.5 2.35 2.09945 1.14001 0.782736
554 2 0.5 2.35 6.09709 5.8373 1.36059
555 1 1 2.35 6.0729 2.01087 4.10579
556 2 0.5 2.35 5.43211 5.8343 1.77518
557 2 0.5 2.35 1.93091 0.58063 2.39167
558 2 0.5 2.35 3.99968 5.23913 0.191175
559 2 0.5 2.35 5.13284 5.82449 3.11022
560 1 1 2.35 3.40896 3.33369 4.07392
561 2 0.5 2.35 0.666868 4.30938 2.56038
562 2 0.5 2.35 4.36392 4.28984 6.08787
563 2 0.5 2.35 1.3866 1.2575 0.674586
564 1 1 2.35 3.21035 3.1011 3.85109
565 2 0.5 2.35 3.36137 1.62961 2.23854
566 2 0.5 2.35 2.85092 3.19729 4.01174
567 2 0.5 2.35 4.82143 3.77196 1.65167
568 2 0.5 2.35 3.47775 0.124323 1.30162
569 2 0.5 2.35 6.62011 4.99034 2.43051
570 2 0.5 2.35 2.47556 0.494617 3.24211
571 2 0.5 2.35 5.52177 3.91055 3.63647
572 2 0.5 2.35 1.90106 3.74834 4.30059
573 2 0.5 2.35 2.48622 0.947791 4.05925
574 1 1 2.35 3.56611 6.5534 4.36371
575 2 0.5 2.35 0.546863 0.413992 0.485801
576 2 0.5 2.35 1.30491 1.13656 2.73888
577 2 0.5 2.35 5.47968 6.09576 3.49263
578 2 0.5 2.35 6.08289 3.13812 1.58314
579 2 0.5 2.35 2.94769 1.31426 0.45292
580 2 0.5 2.35 1.31566 0.973204 1.04149
581 1 1 2.35 3.90743 5.47065 6.42817
582 2 0.5 2.35 2.30597 5.77885 0.704707
583 2 0.5 2.35 2.47827 0.941967 4.69587
584 2 0.5 2.35 4.46683 3.52566 0.846685
585 2 0.5 2.35 0.560586 1.72053 1.7022
586 2 0.5 2.35 2.69219 3.51832 2.23057
587 2 0.5 2.35 6.55884 6.63732 4.54028
588 1 1 2.35 5.43433 2.13683 6.34262
589 2 0.5 2.35 3.07575 4.68415 5.4349
590 2 0.5 2.35 0.157206 6.31111 3.93487
591 1 1 2.35 4.89837 6.35886 6.28087
592 2 0.5 2.35 0.320885 3.97522 5.42164
593 2 0.5 2.35 4.07195 3.26445 1.61501
594 2 0.5 2.35 0.905796 0.364062 2.79591
595 2 0.5 2.35 3.38075 1.19037 3.12841
596 2 0.5 2.35 5.60938 0.703001 2.97466
597 2 0.5 2.35 5.69724 1.81236 3.85937
598 2 0.5 2.35 4.71549 6.06048 0.464154
599 2 0.5 2.35 3.78508 0.179316 6.48197
600 1 1 2.35 0.718927 3.01587 0.798357
601 2 0.5 2.35 6.32 0.273797 1.3953
602 2 0.5 2.35 6.43195 1.04146 4.96321
603 2 0.5 2.35 0.349998 3.9528 2.96742
604 2 0.5 2.35 2.89253 2.19157 0.690861
605 2 0.5 2.35 1.72242 0.214446 6.24297
606 2 0.5 2.35 2.0625 3.10237 6.06971
607 2 0.5 2.35 6.54829 2.21509 4.21123
608 1 1 2.35 3.44849 1.59911 0.778075
609 2 0.5 2.35 3.72555 4.0361 0.171103
610 2 0.5 2.35 4.14853 0.850577 4.56581
611 2 0.5 2.35 1.67309 2.3521 1.35628
612 2 0.5 2.35 1.90223 2.57134 3.87688
613 2 0.5 2.35 4.89647 2.0603 1.62677
614 2 0.5 2.35 2.31947 1.7852 2.53665
615 2 0.5 2.35 0.848842 5.09257 0.705575
616 2 0.5 2.35 4.86301 0.33262 3.8881
617 1 1 2.35 0.839484 0.167995 2.15519
618 2 0.5 2.35 6.29274 6.25452 4.29838
619 1 1 2.35 0.0766243 1.95781 5.72226
620 2 0.5 2.35 2.88587 1.99152 1.37861
621 2 0.5 2.35 2.49686 3.32354 3.1956
622 2 0.5 2.35 0.757363 4.34934 3.99754
623 2 0.5 2.35 1.71379 2.33906 1.2472
624 2 0.5 2.35 3.82693 2.95369 2.95455
625 2 0.5 2.35 5.47544 4.43281 3.48993
626 2 0.5 2.35 1.12171 6.20142 4.00296
627 2 0.5 2.35 3.17218 4.7337 5.16604
628 2 0.5 2.35 2.49281 1.38921 0.407093
629 2 0.5 2.35 5.95145 3.36523 0.343641
630 2 0.5 2.35 4.42678 3.15015 5.585
631 2 0.5 2.35 2.00609 5.17429 4.9267
632 2 0.5 2.35 0.927816 0.519139 4.25128
633 2 0.5 2.35 6.21994 1.95148 5.19369
634 2 0.5 2.35 4.87078 1.74725 4.73418
635 2 0.5 2.35 1.12164 4.99518 0.173311
636 2 0.5 2.35 2.92468 5.82644 0.897814
637 2 0.5 2.35 2.15755 6.64921 3.53488
638 2 0.5 2.35 3.6516 0.567978 3.74455
639 2 0.5 2.35 4.46923 4.19296 1.69432
640 1 1 2.35 4.72 5.98038 2.0679
641 2 0.5 2.35 0.813652 2.70009 6.34189
642 2 0.5 2.35 4.89026 0.278788 1.72398
643 2 0.5 2.35 4.34202 4.67314 3.90099
644 2 0.5 2.35 5.90155 6.41757 1.15225
645 2 0.5 2.35 3.80627 4.60337 2.73839
646 2 0.5 2.35 2.20589 1.31256 4.43153
647 2 0.5 2.35 0.227956 5.38133 0.362984
648 1 1 2.35 1.0928 3.87664 4.2336
649 2 0.5 2.35 6.01761 0.868008 2.18554
650 2 0.5 2.35 1.69811 3.4732 6.14474
651 2 0.5 2.35 3.82408 3.79696 2.10418
652 2 0.5 2.35 2.4019 3.69498 3.91934
653 1 1 2.35 4.25287 0.963131 0.665652
654 2 0.5 2.35 2.08894 3.32451 0.558214
655 2 0.5 2.35 0.458427 1.57668 3.6867
656 2 0.5 2.35 0.25551 4.18894 5.53399
657 2 0.5 2.35 3.73818 1.24987 1.24887
658 2 0.5 2.35 5.62584 3.04208 0.472856
659 2 0.5 2.35 4.58967 6.13828 2.13014
660 2 0.5 2.35 2.94949 5.59424 3.24599
661 2 0.5 2.35 0.495149 2.61463 4.06414
662 2 0.5 2.35 2.15073 5.28173 1.98216
663 1 1 2.35 1.41612 1.22633 2.10618
664 1 1 2.35 1.47886 5.55892 0.433506
665 2 0.5 2.35 4.56296 4.93548 5.56052
666 2 0.5 2.35 1.04507 1.43474 1.41659
667 2 0.5 2.35 2.84394 1.79935 6.64915
668 1 1 2.35 4.8468 4.20128 0.295321
669 2 0.5 2.35 5.25536 5.56081 5.44171
670 1 1 2.35 4.11083 5.7378 0.481974
671 2 0.5 2.35 1.18859 2.39572 5.49783
672 2 0.5 2.35 2.06272 0.700374 4.14488
673 2 0.5 2.35 2.98398 0.564632 4.61423
674 2 0.5 2.35 3.2203 2.991 5.91809
675 2 0.5 2.35 2.31141 0.678518 1.23799
676 1 1 2.35 2.04505 1.54183 0.00717192
677 2 0.5 2.35 4.50413 6.49248 5.27339
678 2 0.5 2.35 5.48399 2.00272 0.54397
679 2 0.5 2.35 0.57652 2.40137 4.64379
680 2 0.5 2.35 0.455593 4.46511 0.19134
681 2 0.5 2.35 1.98212 0.249613 4.30903
682 1 1 2.35 3.89916 6.22327 1.18409
683 2 0.5 2.35 0.566153 0.984526 2.33685
684 2 0.5 2.35 3.24886 3.70887 4.20881
685 2 0.5 2.35 2.79553 3.74606 5.65307
686 1 1 2.35 0.0624224 1.64079 0.216296
687 2 0.5 2.35 3.23834 5.32169 2.24607
688 2 0.5 2.35 0.97316 2.87655 5.78246
689 2 0.5 2.35 2.93939 3.12303 6.05604
690 2 0.5 2.35 0.18076 1.18688 1.16732
691 2 0.5 2.35 1.13802 4.00251 3.13617
692 2 0.5 2.35 1.93786 4.19988 5.54716
693 2 0.5 2.35 1.41651 2.30627 3.32931
694 2 0.5 2.35 1.20114 6.27328 4.63798
695 2 0.5 2.35 2.24223 6.45082 5.24223
696 2 0.5 2.35 5.07415 4.59348 5.99405
697 2 0.5 2.35 4.936 1.79012 2.88566
698 2 0.5 2.35 0.156375 1.749 5.46289
699 2 0.5 2.35 1.11543 3.73043 4.57269
700 2 0.5 2.35 4.09598 2.45698 5.18443
701 2 0.5 2.35 0.10623 4.74167 2.91731
702 2 0.5 2.35 0.56011 6.33556 4.7584
703 2 0.5 2.35 4.1567 2.82904 5.04216
704 2 0.5 2.35 0.266817 0.109452 0.230826
705 2 0.5 2.35 3.73527 2.53022 1.50794
706 2 0.5 2.35 2.77901 2.08066 4.72881
707 2 0.5 2.35 6.12462 5.53436 3.86749
708 2 0.5 2.35 2.53328 3.96763 0.565423
709 2 0.5 2.35 0.116524 0.818708 0.662513
710 2 0.5 2.35 4.64457 2.24785 1.50764
711 2 0.5 2.35 1.62858 3.00561 6.09725
712 2 0.5 2.35 5.26548 0.489711 2.45254
713 2 0.5 2.35 4.42433 3.2092 2.14285
714 2 0.5 2.35 0.664198 6.48975 2.77626
715 2 0.5 2.35 2.04225 4.40239 4.94107
716 2 0.5 2.35 5.90455 5.33788 0.185734
717 2 0.5 2.35 0.0542875 6.31386 1.44145
718 2 0.5 2.35 1.17217 2.42268 2.75782
719 2 0.5 2.35 6.42586 2.74165 4.99921
720 2 0.5 2.35 3.90734 0.960408 4.0294
721 2 0.5 2.35 0.949409 2.04789 0.608883
722 2 0.5 2.35 0.188467 6.39422 3.1111
723 2 0.5 2.35 2.55658 0.174092 1.17808
724 2 0.5 2.35 4.98581 0.935317 1.25929
725 2 0.5 2.35 2.51576 4.25244 3.08327
726 1 1 2.35 5.70836 4.7435 4.81573
727 2 0.5 2.35 6.37274 4.76843 5.80745
728 2 0.5 2.35 0.130136 1.66192 4.28629
729 2 0.5 2.35 5.31974 3.28413 0.136977
730 2 0.5 2.35 5.17512 3.12746 2.29325
731 2 0.5 2.35 3.00925 5.83967 4.15889
732 2 0.5 2.35 2.77636 5.77096 3.37898
733 2 0.5 2.35 3.93295 6.29289 0.700001
734 2 0.5 2.35 3.35541 1.81888 4.59496
735 1 1 2.35 0.930867 1.68287 0.374923
736 2 0.5 2.35 4.59616 1.03267 0.819305
737 2 0.5 2.35 4.17701 0.0930675 4.34575
738 2 0.5 2.35 2.71148 3.32121 1.86104
739 2 0.5 2.35 4.41097 4.58542 1.36637
740 2 0.5 2.35 4.85944 6.36058 0.714396
741 2 0.5 2.35 0.584269 4.42848 4.91662
742 2 0.5 2.35 5.90267 0.52625 1.93264
743 2 0.5 2.35 6.09216 6.37568 5.48427
744 2 0.5 2.35 3.19648 2.16287 1.42255
745 2 0.5 2.35 4.33446 4.01704 5.029
746 2 0.5 2.35 6.35292 6.50021 0.0183091
747 1 1 2.35 3.75842 2.37561 0.331869
748 1 1 2.35 0.885478 6.42597 4.3796
749 2 0.5 2.35 3.63066 4.30438 6.50017
750 2 0.5 2.35 0.183935 5.10958 0.975629
751 2 0.5 2.35 0.615179 2.25479 4.58944
752 2 0.5 2.35 1.24595 3.92636 2.5482
753 2 0.5 2.35 0.418529 4.66996 3.43396
754 2 0.5 2.35 4.48998 3.17408 3.68246
755 2 0.5 2.35 3.05243 2.87608 2.8306
756 2 0.5 2.35 2.67313 3.65118 3.00188
757 2 0.5 2.35 2.91903 1.67283 6.3621
758 1 1 2.35 2.33021 2.61538 5.28081
759 2 0.5 2.35 6.35512 5.08291 0.947727
760 1 1 2.35 5.08427 6.05654 3.56496
761 2 0.5 2.35 6.59154 0.122718 5.98708
762 2 0.5 2.35 5.62887 6.63336 1.3714
763 2 0.5 2.35 0.421756 2.32173 2.4403
764 1 1 2.35 2.03207 2.89644 3.61681
765 2 0.5 2.35 0.670406 5.90287 0.279457
766 2 0.5 2.35 0.872445 5.66744 5.73563
767 2 0.5 2.35 5.32332 0.140975 3.02785
768 2 0.5 2.35 3.85569 0.235169 1.48254