LAMMPS Description

1000 atoms

1 atom types
0 17.099759 xlo xhi
0 17.099759 ylo yhi
0 17.099759 zlo zhi

Masses

1 0.523599

PairIJ Coeffs

1 1 morse 5 33 1 1.4

Atoms

1 1 5.20627 2.76525 14.1129
2 1 0.379179 4.28826 4.96016
3 1 3.54986 7.30218 5.9291
4 1 15.0003 4.29559 11.2289
5 1 14.9685 13.0159 3.18235
6 1 4.15988 3.90656 16.2629
7 1 7.69349 14.7981 14.2886
8 1 15.3017 14.9894 9.20677
9 1 15.7573 12.3545 2.51171
10 1 9.83064 14.2249 16.3423
11 1 7.40928 3.99013 13.9931
12 1 13.1703 5.15336 8.33133
13 1 15.4317 15.9315 8.17532
14 1 14.0445 13.2168 2.84327
15 1 0.430337 2.45227 11.5098
16 1 11.4393 11.6588 7.68177
17 1 7.31206 11.1193 4.15601
18 1 4.90542 13.6874 3.96742
19 1 7.75807 6.98843 16.2066
20 1 7.51171 14.805 8.21757
21 1 1.31242 9.93057 6.22751
22 1 11.6567 16.9009 5.56977
23 1 0.965998 12.606 15.0173
24 1 10.2087 5.24165 12.615
25 1 8.70103 1.53174 15.3836
26 1 16.1233 9.72088 1.0925
27 1 11.7357 2.71805 12.0823
28 1 7.03586 16.9263 17.0233
29 1 14.5081 8.93967 9.81913
30 1 12.8281 5.54906 1.06942
31 1 16.8329 13.1822 10.3507
32 1 12.9557 12.761 3.31413
33 1 16.3279 10.3601 1.82219
34 1 15.8452 16.8245 1.28936
35 1 0.703764 2.38749 9.21604
36 1 3.602 5.58922 10.7019
37 1 9.06434 1.0557 16.5977
38 1 5.23121 0.71173 16.3331
39 1 15.9171 3.83597 1.02881
40 1 16.427 12.7132 8.88606
41 1 0.946174 16.0772 3.22626
42 1 14.7669 11.1814 14.1388
43 1 10.9204 13.65 12.1907
44 1 7.26425 6.11993 10.5633
45 1 5.5589 0.846252 13.2186
46 1 5.92968 1.80486 5.94735
47 1 13.6769 0.755865 9.97519
48 1 12.9828 4.37112 2.17529
49 1 8.17232 5.24103 7.40045
50 1 10.4912 6.96303 14.4048
51 1 7.74658 4.5624 16.1743
52 1 11.6156 7.00701 4.51627
53 1 13.1587 3.9565 3.88224
54 1 10.2707 4.30689 3.46705
55 1 2.67785 14.4253 11.1463
56 1 6.55722 8.67906 7.43141
57 1 10.5308 1.94404 8.38175
58 1 6.52774 5.76664 12.7168
59 1 8.29786 5.17712 2.91918
60 1 4.34947 6.36967 2.01155
61 1 8.6514 16.9421 4.75591
62 1 2.28851 4.6033 8.51667
63 1 4.31061 12.7931 13.3901
64 1 13.0304 2.88213 7.27912
65 1 7.4528 3.92626 15.243
66 1 16.7108 10.4924 15.0853
67 1 0.823746 13.144 0.762813
68 1 11.7702 16.3746 16.4751
69 1 10.3183 7.41513 15.1835
70 1 3.7761 16.9807 16.1304
71 1 9.19531 4.96811 15.4603
72 1 6.02651 11.5969 4.94553
73 1 5.72009 15.4442 0.372647
74 1 11.5078 13.7105 1.48289
75 1 8.03543 11.1583 4.34299
76 1 9.24703 3.78321 4.9183
77 1 3.69066 14.8168 12.7165
78 1 13.2625 13.3297 14.5744
79 1 5.48925 7.06956 0.386374
80 1 15.087 8.21037 4.87245
81 1 3.78123 9.95149 11.0725
82 1 11.9661 6.27078 5.65859
83 1 3.74077 14.9475 8.7583
84 1 4.41018 3.54621 13.9633
85 1 15.8907 13.0052 1.51823
86 1 8.34055 10.4885 0.0483199
87 1 6.35491 0.812405 9.89152
88 1 14.022 3.83014 15.861
89 1 3.62948 0.791037 16.1432
90 1 6.80603 7.21818 9.78579
91 1 0.198627 16.6805 8.5787
92 1 12.2285 5.8652 9.75837
93 1 14.2007 10.9814 7.93211
94 1 2.10433 9.97829 10.1303
95 1 9.4473 7.0989 10.6841
96 1 5.44799 12.8117 7.50439
97 1 15.4085 2.14801 1.32356
98 1 8.21353 0.276387 14.989
99 1 10.2846 9.78983 14.9439
100 1 2.15203 14.0707 1.17557
101 1 9.4592 15.2229 9.63001
102 1 13.1594 7.12541 9.44098
103 1 1.00637 11.2401 6.19907
104 1 6.83191 16.4066 0.192939
105 1 16.4975 5.56819 2.16599
106 1 4.86458 14.9533 14.7966
107 1 4.03407 9.9822 9.23891
108 1 9.32049 10.9136 7.66915
109 1 12.9771 15.7647 1.46233
110 1 3.53906 0.764042 14.4213
111 1 1.09569 15.3174 5.54563
112 1 6.56715 7.64336 8.9524
113 1 3.40826 14.7597 6.06562
114 1 14.8473 0.198197 4.29182
115 1 12.4485 6.01381 14.1394
116 1 1.09964 8.58036 7.33463
117 1 12.6769 7.31632 1.61277
118 1 7.66473 3.63539 0.731562
119 1 9.29108 7.0991 2.74236
120 1 0.984921 6.56552 7.81139
121 1 12.1294 11.4332 13.2381
122 1 7.37902 9.34783 9.83594
123 1 13.997 1.3278 12.5989
124 1 14.9528 7.45329 6.64575
125 1 16.6999 5.14237 6.93185
126 1 0.541454 3.13035 17.007
127 1 2.49525 16.7053 2.30512
128 1 7.30097 9.15317 12.5239
129 1 7.11301 0.987226 13.101
130 1 9.34742 16.9229 6.37085
131 1 15.1421 8.33285 12.4477
132 1 11.921 8.20448 1.05841
133 1 3.83529 15.4205 0.796709
134 1 3.37599 4.55391 3.44038
135 1 1.38381 16.6731 7.66114
136 1 6.47644 16.7445 6.16996
137 1 14.2039 9.37836 7.30247
138 1 7.20139 4.69679 1.80394
139 1 11.8756 1.41771 4.50687
140 1 3.10327 8.7291 4.07921
141 1 7.46596 9.63494 0.708842
142 1 16.8745 15.8176 1.12883
143 1 0.538295 1.4201 2.75778
144 1 12.2953 5.46771 15.0066
145 1 15.9955 4.11437 12.8434
146 1 11.0869 3.47606 8.3782
147 1 12.2646 16.6394 11.2196
148 1 0.201244 0.655851 6.84896
149 1 3.01326 14.7174 1.30426
150 1 5.88592 2.54075 3.92323
151 1 3.93704 10.0712 10.5852
152 1 15.0223 0.618098 15.1477
153 1 15.5869 3.37564 0.566556
154 1 3.07338 8.85726 13.1461
155 1 15.7622 13.7245 14.0135
156 1 5.31627 2.69558 5.35332
157 1 4.88778 8.7064 2.70803
158 1 15.7119 8.9141 11.3757
159 1 13.2089 14.8292 12.6441
160 1 12.472 0.966647 2.87629
161 1 8.66773 13.9749 8.52312
162 1 2.74526 7.3865 12.4402
163 1 11.5678 10.6064 0.472032
164 1 14.8635 7.91415 16.356
165 1 7.1147 11.3658 3.11063
166 1 9.00513 1.54154 13.6402
167 1 15.8585 16.4609 8.6258
168 1 1.14667 1.57409 3.04993
169 1 7.37798 8.65198 8.23358
170 1 6.08608 4.61777 5.49548
171 1 3.12989 0.739908 15.3809
172 1 8.33109 4.85692 3.98318
173 1 5.56408 2.93796 5.7365
174 1 13.3616 10.2791 4.29597
175 1 10.775 1.89548 3.23556
176 1 9.89001 3.87703 5.55164
177 1 7.86527 7.04482 6.65544
178 1 7.08843 9.50543 6.11488
179 1 0.139131 11.0619 12.6616
180 1 9.05285 12.917 11.99
181 1 0.114143 4.21683 2.3925
182 1 7.64419 6.85629 5.35545
183 1 5.6585 9.72217 15.2967
184 1 7.82967 4.79613 7.50979
185 1 2.64775 5.46751 16.8152
186 1 1.73521 16.6634 2.26856
187 1 9.83446 8.17217 10.0393
188 1 10.567 15.2222 4.14609
189 1 15.2588 5.20656 10.3188
190 1 6.90491 4.25277 16.1721
191 1 10.2729 14.9895 2.56058
192 1 10.6798 13.6137 2.07136
193 1 7.93822 15.3733 6.62549
194 1 11.6018 0.943495 11.0688
195 1 7.21134 10.5783 3.97395
196 1 5.23927 16.0699 14.8778
197 1 3.90176 3.14063 15.0251
198 1 11.786 9.34096 11.4633
199 1 0.144635 10.1133 8.74703
200 1 3.13885 6.03752 15.1371
201 1 13.0692 16.1871 2.20171
202 1 3.5404 6.02364 13.578
203 1 5.12324 9.79766 16.3742
204 1 0.915618 0.34859 5.76211
205 1 6.40368 13.1779 13.7149
206 1 11.1516 10.6882 8.95201
207 1 9.73154 13.6333 1.91759
208 1 6.71776 11.9085 12.6031
209 1 3.57674 2.04979 3.18798
210 1 15.959 11.5165 4.98727
211 1 14.6293 3.28271 0.103027
212 1 5.82291 11.6436 7.3151
213 1 16.7559 5.02783 6.96654
214 1 5.22888 11.2526 3.33129
215 1 1.86136 13.9392 8.85027
216 1 6.17808 11.1246 2.94144
217 1 10.7154 16.1109 0.401632
218 1 9.1216 7.50458 0.470519
219 1 10.3188 4.7818 3.407
220 1 16.0001 11.4064 6.83919
221 1 4.97869 2.3722 16.4334
222 1 8.92729 5.33623 13.3366
223 1 0.89289 2.31899 2.57418
224 1 0.186526 7.83733 12.5981
225 1 5.10974 14.4192 1.68146
226 1 5.47618 0.37413 4.27098
227 1 13.8164 11.988 13.516
228 1 5.80916 11.3254 14.7097
229 1 2.97777 1.77338 4.67802
230 1 7.87037 4.58601 16.2436
231 1 9.12054 11.3392 13.1728
232 1 13.4609 15.0241 13.5438
233 1 6.14764 4.7008 13.2159
234 1 12.3374 12.4984 16.0009
235 1 12.4293 14.1745 3.33626
236 1 1.4949 1.91649 6.34026
237 1 1.88124 5.55899 12.9212
238 1 5.52806 6.41468 1.1265
239 1 9.42734 5.80628 9.8663
240 1 1.67496 11.7474 2.09896
241 1 14.4978 6.44596 13.6327
242 1 5.07053 10.2607 0.58672
243 1 8.79565 15.6112 0.142581
244 1 6.43141 12.5723 3.474
245 1 2.21316 2.28298 15.461
246 1 3.00364 5.14016 9.22369
247 1 4.91715 1.37763 12.8357
248 1 15.9193 1.05046 0.687276
249 1 8.45511 0.928859 2.64792
250 1 11.6992 5.28735 7.36885
251 1 13.1495 3.51336 2.93742
252 1 4.84889 9.81231 0.267649
253 1 0.0398102 6.1618 1.50847
254 1 8.01257 11.2872 16.924
255 1 14.0784 5.38471 6.09595
256 1 9.36608 9.76943 7.50866
257 1 10.1149 14.8287 5.11034
258 1 9.04639 8.68127 14.9293
259 1 7.24035 7.20067 16.0297
260 1 13.7783 12.2338 0.125977
261 1 0.102692 12.4401 9.53515
262 1 2.52896 4.61432 16.5074
263 1 7.7458 11.8002 15.9607
264 1 11.4452 5.04282 4.85561
265 1 14.9911 12.1799 14.7429
266 1 15.7089 14.7162 6.7788
267 1 9.49301 3.81323 12.3922
268 1 9.06231 8.36059 5.64004
269 1 1.91419 12.9411 3.6548
270 1 12.9477 3.94653 9.08902
271 1 3.20447 4.70511 16.3929
272 1 10.4431 7.22819 4.89639
273 1 13.8122 4.91793 8.15515
274 1 11.1803 15.8825 6.81983
275 1 9.2076 3.85367 16.9285
276 1 12.3848 3.92084 8.37502
277 1 2.6223 16.7352 1.95094
278 1 11.8992 10.2437 10.5703
279 1 11.1652 1.9085 2.3824
280 1 4.85258 15.8811 14.5613
281 1 2.60295 10.3762 9.40251
282 1 1.78403 14.6402 14.8903
283 1 11.526 16.0212 5.03789
284 1 6.76238 9.04313 2.05206
285 1 12.3886 0.0612964 2.54687
286 1 5.02728 2.37522 15.7781
287 1 6.7758 1.5148 12.0257
288 1 7.48952 7.97936 1.97077
289 1 1.69962 16.8135 7.56238
290 1 4.54693 10.2252 1.99323
291 1 7.54661 17.0346 14.8041
292 1 1.67559 8.49907 0.156005
293 1 11.5005 4.31261 7.84364
294 1 5.78542 16.5914 12.681
295 1 5.43468 14.1534 15.8393
296 1 10.2716 16.0222 1.67089
297 1 7.95676 8.00348 6.89173
298 1 1.73413 11.1294 12.3528
299 1 3.02362 6.67254 11.8215
300 1 14.9953 3.2614 15.961
301 1 12.6475 4.02381 7.71134
302 1 9.75266 2.04187 9.97532
303 1 13.0894 0.763517 9.39715
304 1 5.83842 3.70015 5.71791
305 1 13.9653 4.09039 17.0018
306 1 15.5097 14.7898 13.2802
307 1 4.22644 14.38 12.374
308 1 16.9232 9.66298 5.50283
309 1 3.56697 15.1593 13.6428
310 1 16.0719 4.66227 6.65212
311 1 6.35055 12.366 9.93624
312 1 0.123502 15.4993 8.24924
313 1 10.506 11.574 1.46745
314 1 3.1687 16.4966 13.1858
315 1 12.7357 14.4921 5.26224
316 1 3.93976 10.2457 3.47468
317 1 7.04249 3.98239 3.56274
318 1 4.85334 9.34071 4.07894
319 1 8.53839 15.3091 13.0552
320 1 15.7273 5.71257 4.13488
321 1 14.0632 3.45857 5.46626
322 1 2.92663 12.7303 3.9827
323 1 11.3892 7.09326 11.6538
324 1 4.37423 15.2887 8.5022
325 1 13.4042 1.41477 15.1162
326 1 0.312913 1.82101 0.265608
327 1 10.5831 13.6373 1.74986
328 1 5.16363 2.04149 17.0148
329 1 3.04391 1.6092 14.4832
330 1 11.4873 8.27157 4.65334
331 1 12.5132 14.4486 6.14784
332 1 12.6409 5.50575 7.78762
333 1 7.59586 12.9428 11.0106
334 1 6.42168 12.3384 14.5779
335 1 13.5888 7.10109 8.08952
336 1 0.958612 15.0088 6.83246
337 1 11.7112 15.6036 13.7648
338 1 4.89967 12.7593 16.4298
339 1 7.55416 10.0694 4.45447
340 1 14.2403 13.2279 5.38378
341 1 13.2537 3.87436 12.9346
342 1 8.65795 10.2805 2.95971
343 1 6.20844 10.6168 3.69895
344 1 15.572 12.4902 13.1359
345 1 9.4428 8.78895 14.0812
346 1 1.34245 8.1752 14.7355
347 1 4.31633 0.355305 7.56354
348 1 14.7863 15.73 16.1289
349 1 12.4883 12.5134 10.8598
350 1 0.0770211 15.1396 1.70758
351 1 8.92602 4.58335 11.3698
352 1 1.21489 12.5872 13.2812
353 1 15.2929 5.64391 15.6834
354 1 3.24038 11.9951 1.5923
355 1 4.0653 10.1303 3.77041
356 1 0.522904 6.00309 14.846
357 1 3.68373 4.7822 3.64323
358 1 1.04763 16.3576 12.641
359 1 13.6028 7.85811 8.09275
360 1 8.65424 3.0786 1.02877
361 1 7.62311 2.32718 9.95695
362 1 10.4462 14.3448 9.71668
363 1 12.3443 14.9792 5.46829
364 1 14.0376 11.8125 9.26205
365 1 8.519 0.442697 3.1279
366 1 4.52787 7.42468 13.2627
367 1 2.53361 11.7501 4.73
368 1 9.9107 7.54155 9.96734
369 1 13.8893 10.2417 4.5784
370 1 1.4941 9.89924 16.3842
371 1 3.67185 9.08805 6.66476
372 1 14.9705 9.41988 16.9737
373 1 11.4548 9.21273 1.84
374 1 6.2985 1.90411 9.45176
375 1 10.1507 15.439 5.11843
376 1 15.7227 13.0001 3.95557
377 1 14.19 4.25006 3.10062
378 1 13.0586 13.0631 3.01248
379 1 16.7932 14.7562 16.5421
380 1 17.0493 3.55086 6.02788
381 1 14.2248 2.39516 10.6787
382 1 13.886 8.68599 12.8464
383 1 1.18449 16.8953 1.64659
384 1 0.171881 3.43211 16.5761
385 1 10.78 7.26895 1.14072
386 1 0.151502 15.6745 2.70144
387 1 12.3054 12.1622 15.6521
388 1 14.9512 12.1966 8.20101
389 1 16.9287 9.01959 0.521717
390 1 7.59324 13.3096 15.2291
391 1 15.5251 16.0588 2.06795
392 1 4.49706 4.69426 15.6154
393 1 7.60872 8.74178 1.80741
394 1 16.7004 3.03577 11.1944
395 1 11.9379 2.64726 11.0115
396 1 3.92755 4.01513 8.26218
397 1 8.43068 11.7017 2.21031
398 1 2.92905 10.619 4.02815
399 1 2.5276 4.79264 1.23956
400 1 14.0917 4.58629 11.959
401 1 3.88818 6.47284 5.81453
402 1 10.0486 0.635323 3.73529
403 1 16.2597 8.28841 4.63201
404 1 15.2602 14.9706 2.71079
405 1 2.49356 9.53194 14.3714
406 1 8.51683 7.1759 9.89231
407 1 15.5545 13.2452 8.85431
408 1 16.4257 15.0129 7.49946
409 1 3.13238 10.5133 2.78976
410 1 10.9538 9.75973 14.8662
411 1 12.5066 16.5265 10.6888
412 1 1.85398 2.48711 3.931
413 1 5.70499 9.75883 2.5838
414 1 10.1192 6.43668 1.29432
415 1 7.55523 6.75132 0.538628
416 1 4.754 5.14733 1.4578
417 1 11.5056 16.5 15.8458
418 1 12.0525 10.6953 15.7562
419 1 11.3349 9.23633 3.6033
420 1 13.795 4.32279 4.84359
421 1 3.32357 7.14272 1.36039
422 1 9.69219 1.71422 2.65503
423 1 0.130841 8.92839 4.92583
424 1 12.3886 11.3616 9.19587
425 1 6.30211 3.49451 3.47679
426 1 15.6419 10.9992 10.2597
427 1 7.32223 13.8602 0.0548353
428 1 14.7643 11.9844 2.0681
429 1 3.8648 15.1122 1.55569
430 1 11.6395 3.17488 0.294711
431 1 6.81113 16.3808 9.13294
432 1 16.7311 1.50239 12.4961
433 1 0.0278199 10.3561 10.5836
434 1 2.54328 9.55464 14.2242
435 1 7.31822 6.92465 13.5158
436 1 0.224044 16.9613 11.1697
437 1 9.76967 13.0422 12.0981
438 1 8.39681 9.96742 13.1246
439 1 2.17449 5.83025 3.27237
440 1 13.9498 17.0515 16.4011
441 1 12.6332 7.03515 4.42688
442 1 5.36001 13.5478 10.8979
443 1 14.6624 3.29946 14.6661
444 1 14.0559 9.74283 16.1506
445 1 6.2153 7.72771 1.64051
446 1 2.36605 15.8483 8.10505
447 1 6.96189 11.1491 14.1529
448 1 12.0085 3.04142 0.227873
449 1 9.8097 2.35534 4.57648
450 1 13.0189 15.0261 14.7258
451 1 11.1384 0.851617 11.7721
452 1 8.61193 6.44723 6.91853
453 1 7.89957 4.33227 6.27757
454 1 6.73576 10.2114 13.7611
455 1 0.323419 15.9497 11.5167
456 1 8.3766 4.32553 5.85544
457 1 5.13029 3.19697 14.1066
458 1 3.92046 7.13341 14.5376
459 1 10.1771 0.627952 5.33468
460 1 15.5634 11.304 11.6141
461 1 3.30729 3.19 6.16029
462 1 5.58892 15.2254 9.69991
463 1 3.14377 0.784944 13.8669
464 1 0.21584 2.113 0.999282
465 1 8.38606 1.80534 10.6151
466 1 10.54 10.052 4.43626
467 1 14.6092 6.47729 14.5594
468 1 12.652 13.2387 16.0007
469 1 9.15695 6.2747 11.5762
470 1 13.0563 11.3342 10.3679
471 1 6.36393 11.1459 9.15097
472 1 16.1391 9.1129 12.1782
473 1 5.47713 17.032 8.87462
474 1 16.305 5.08223 6.88643
475 1 15.2906 4.62508 3.95051
476 1 16.8009 1.11017 11.009
477 1 2.43803 3.45712 10.715
478 1 4.10622 9.00392 9.46945
479 1 2.96068 2.31442 14.1415
480 1 2.70238 10.2949 12.3738
481 1 1.33822 12.8466 12.5642
482 1 1.56877 15.8097 14.5849
483 1 5.3719 2.12383 0.27698
484 1 8.79196 12.8623 1.85759
485 1 6.66465 2.12229 0.985588
486 1 7.94695 6.32387 7.50048
487 1 3.29021 1.92079 7.92727
488 1 3.47253 7.92064 11.7274
489 1 13.8056 5.77368 10.2907
490 1 0.265476 16.5541 8.90396
491 1 1.6606 16.6045 3.89565
492 1 3.98449 14.4905 3.20532
493 1 5.9726 0.660441 8.82294
494 1 7.75718 4.38322 3.38035
495 1 10.1335 8.8341 12.2152
496 1 2.77729 11.0378 12.9861
497 1 7.76538 9.47963 4.72232
498 1 6.08867 0.765384 3.37891
499 1 8.22179 7.86141 4.56673
500 1 6.66769 9.84956 6.32302
501 1 13.0786 8.87122 5.33732
502 1 13.0969 10.213 14.1324
503 1 8.49852 9.70585 12.399
504 1 6.77519 16.5662 10.5118
505 1 16.9538 1.50769 16.2218
506 1 3.3367 0.135155 16.7744
507 1 6.67466 3.73776 15.0676
508 1 6.31348 16.3909 9.64645
509 1 6.8612 13.0343 13.4094
510 1 11.9191 9.92763 0.105881
511 1 16.8239 11.5241 6.75562
512 1 12.5915 15.2251 2.38416
513 1 11.4446 5.68791 16.2376
514 1 16.8941 5.68441 16.1032
515 1 7.40912 17.0482 1.9164
516 1 14.7181 4.26864 2.85335
517 1 2.1316 9.90617 15.5376
518 1 5.91938 14.6485 2.71782
519 1 2.12604 16.017 11.3845
520 1 14.4168 0.439709 11.1607
521 1 6.49196 0.651885 2.96128
522 1 1.70858 1.37779 5.80962
523 1 12.4466 5.28201 1.45169
524 1 12.0074 5.28052 11.7985
525 1 1.89896 9.07126 5.44355
526 1 6.33124 12.4521 3.16469
527 1 15.4402 4.72449 14.5636
528 1 2.32742 9.43929 10.9823
529 1 15.0173 5.57427 4.8582
530 1 8.02853 14.3739 16.409
531 1 3.19722 16.4778 11.4692
532 1 6.81247 11.1722 14.8001
533 1 11.5986 5.16534 0.691512
534 1 13.7882 16.9417 16.1307
535 1 10.3459 3.96178 10.6806
536 1 8.5475 0.573302 5.10629
537 1 14.7198 16.1372 6.29971
538 1 16.2828 3.61736 3.18075
539 1 7.45118 5.47358 16.9659
540 1 3.3326 8.31592 11.7184
541 1 5.52691 8.45953 13.9619
542 1 15.1742 2.44845 2.17759
543 1 2.96563 16.0079 8.56953
544 1 7.83424 11.2628 10.1435
545 1 11.8794 17.0781 0.564185
546 1 2.92303 15.989 10.6986
547 1 9.4256 1.65953 4.53072
548 1 3.46464 14.0483 2.44234
549 1 15.4086 16.9445 15.8146
550 1 1.74827 15.3034 6.27245
551 1 2.4215 4.82845 6.64894
552 1 0.733954 0.298285 6.82804
553 1 13.4428 2.40901 0.148299
554 1 8.50685 2.92315 1.74614
555 1 15.9368 10.716 13.0877
556 1 7.0249 5.39963 3.92904
557 1 8.50671 6.80716 4.73012
558 1 10.1162 7.26725 16.2508
559 1 6.09694 13.8379 14.462
560 1 10.2009 10.7071 1.15418
561 1 8.76065 2.82533 8.19371
562 1 8.02016 10.9986 5.7263
563 1 13.1657 5.25986 8.2464
564 1 12.6891 10.6962 8.8761
565 1 0.386928 11.1129 8.03101
566 1 10.8627 8.43798 5.19014
567 1 15.0475 15.0972 13.5232
568 1 11.1435 4.93346 9.48358
569 1 13.3996 12.984 0.286105
570 1 6.73487 2.85608 13.8624
571 1 11.8044 12.4036 0.287908
572 1 14.0498 4.988 16.0459
573 1 1.00708 13.1031 4.14717
574 1 7.60277 16.7992 5.15718
575 1 13.7834 14.8431 1.35476
576 1 0.292468 15.7219 5.32768
577 1 16.1647 11.4876 10.6083
578 1 14.5397 6.56452 15.9739
579 1 11.9709 2.64483 4.30832
580 1 15.6988 12.5928 8.80085
581 1 16.5867 9.65956 6.27276
582 1 10.0875 7.94135 12.9902
583 1 9.17684 13.5911 14.3649
584 1 1.10347 4.50225 16.824
585 1 8.36576 9.1266 14.547
586 1 6.70792 8.95931 0.804105
587 1 4.12084 4.88415 12.6567
588 1 0.963548 5.24307 16.5552
589 1 14.4238 2.30054 9.08832
590 1 13.7144 11.8586 1.71785
591 1 2.44973 14.1443 0.549557
592 1 10.7012 0.832656 8.90849
593 1 5.91968 2.58615 11.7981
594 1 2.28291 6.66574 10.4266
595 1 4.44767 6.22538 3.95585
596 1 0.226631 16.1842 10.562
597 1 6.29531 3.46781 7.54932
598 1 1.40803 0.823078 16.7377
599 1 0.568249 9.14449 7.21243
600 1 11.9484 15.2703 14.2921
601 1 6.81694 4.46658 1.54916
602 1 7.32363 9.55165 1.81239
603 1 10.6062 10.739 11.9645
604 1 9.50291 5.39832 11.7059
605 1 1.74344 12.8552 0.284183
606 1 1.69708 16.3699 11.077
607 1 9.33159 6.8251 0.00193675
608 1 12.7932 10.8972 15.6921
609 1 7.2887 13.6706 1.34997
610 1 13.1448 0.118264 1.13543
611 1 8.17564 7.06537 15.8852
612 1 15.8697 10.7532 15.1173
613 1 1.62271 5.00879 14.3309
614 1 5.28234 3.03731 4.81497
615 1 5.39743 1.73056 13.6686
616 1 6.55791 7.23432 17.0814
617 1 15.9706 14.6483 3.49661
618 1 15.6868 10.5099 4.65057
619 1 12.6851 2.19539 2.40723
620 1 15.5704 14.901 5.80109
621 1 2.16556 0.0492151 1.4558
622 1 11.5198 4.75522 12.8601
623 1 0.389277 10.202 1.21335
624 1 14.0206 7.63336 11.5668
625 1 1.94394 8.04742 1.15666
626 1 1.48998 0.24033 9.9373
627 1 7.87446 15.57 16.1291
628 1 2.46212 9.98847 0.124888
629 1 9.83793 14.8684 5.01913
630 1 1.45969 5.14259 3.9842
631 1 14.371 14.161 9.79579
632 1 0.933493 3.28563 6.04557
633 1 7.87956 5.83624 5.62836
634 1 1.83799 3.45488 0.815877
635 1 4.951 15.4133 16.9424
636 1 0.393732 10.7891 9.36678
637 1 0.893862 16.6167 16.1505
638 1 3.53444 16.49 5.40632
639 1 14.8418 13.2174 14.1512
640 1 0.447844 15.8707 15.2861
641 1 11.4092 14.4026 4.49686
642 1 9.93781 1.95295 15.9749
643 1 3.31399 10.5324 11.4871
644 1 1.7426 2.14892 13.8743
645 1 6.18066 13.2847 2.13206
646 1 3.31778 2.14129 17.0987
647 1 9.95239 4.50829 12.7308
648 1 6.84941 12.2629 1.52802
649 1 4.12398 7.38167 1.18533
650 1 8.90966 16.6347 11.7435
651 1 3.37115 10.596 6.74682
652 1 15.9543 14.0676 12.5553
653 1 4.45854 5.47168 11.7666
654 1 11.4653 5.50878 6.5847
655 1 1.83167 13.9646 11.1953
656 1 2.37798 7.61093 6.40052
657 1 11.3207 5.56415 9.65527
658 1 12.0473 7.60207 7.57662
659 1 9.30219 9.32775 6.11417
660 1 8.66164 1.41647 5.16334
661 1 13.5101 5.55713 10.1991
662 1 7.77726 16.8693 9.50964
663 1 7.11145 1.46195 14.3108
664 1 0.0523824 5.5318 14.5274
665 1 13.5738 6.25937 10.1096
666 1 13.6027 9.36599 16.9976
667 1 15.2582 2.08243 4.7044
668 1 9.27073 12.2499 15.1796
669 1 16.8117 1.43879 7.5752
670 1 15.9345 11.1577 14.231
671 1 3.8238 3.34456 15.5991
672 1 10.1918 11.4921 13.4674
673 1 16.0341 12.3452 14.6673
674 1 10.9957 10.8135 12.5914
675 1 0.0962235 1.40555 10.5024
676 1 13.0466 1.62201 2.37598
677 1 13.5092 12.5588 16.4706
678 1 15.3111 6.00908 8.16244
679 1 14.2409 15.5017 12.8423
680 1 5.48641 0.164512 11.3334
681 1 13.2007 5.29186 3.30652
682 1 0.799278 7.9394 3.12784
683 1 16.169 15.0061 16.1914
684 1 11.4986 10.7437 15.6476
685 1 8.1445 2.0716 7.82375
686 1 6.07831 11.4801 11.1494
687 1 7.60974 14.799 14.7157
688 1 0.546107 13.4505 3.99998
689 1 10.5955 3.40314 6.69206
690 1 5.10986 4.94486 11.4198
691 1 0.756263 11.3801 12.3345
692 1 10.0572 12.6221 15.3327
693 1 3.66814 14.3714 12.2945
694 1 10.3011 15.0092 11.6834
695 1 14.4373 13.8149 16.9361
696 1 12.4986 13.6689 13.6718
697 1 1.28146 2.28488 6.20315
698 1 2.12514 15.711 16.283
699 1 16.9496 4.48381 14.3685
700 1 7.62382 3.31782 4.88415
701 1 14.2904 14.3704 3.82739
702 1 8.82669 14.6776 8.15001
703 1 4.77737 11.6607 4.60571
704 1 15.1712 12.5546 0.323361
705 1 9.02499 13.7843 12.19
706 1 12.7702 5.18111 2.85673
707 1 11.7353 8.23727 16.6879
708 1 8.57453 16.4067 9.89672
709 1 6.68143 2.53774 13.3742
710 1 14.566 1.56007 12.7142
711 1 7.45769 14.5988 1.82851
712 1 16.7848 3.85306 11.055
713 1 14.295 9.40084 2.36649
714 1 13.8904 4.36055 6.67334
715 1 9.89775 3.28921 0.0196317
716 1 4.06857 15.0664 10.9475
717 1 10.5309 14.3825 13.2676
718 1 5.14794 13.9338 2.38201
719 1 6.182 6.85825 8.6485
720 1 3.98224 4.1328 0.704576
721 1 16.1891 8.25179 4.15442
722 1 3.97607 6.41064 6.85481
723 1 2.08752 3.07614 7.09464
724 1 3.29116 10.0976 13.6044
725 1 7.9702 14.7978 14.6297
726 1 0.126387 11.1483 9.08437
727 1 10.1139 0.731161 10.4135
728 1 16.6694 2.38963 6.31058
729 1 9.28553 15.2928 13.0567
730 1 3.14114 3.90617 2.6198
731 1 4.27387 7.86894 7.15827
732 1 10.774 8.81874 9.89948
733 1 4.02302 7.82547 0.365518
734 1 7.65168 3.4573 9.38509
735 1 4.10438 5.52592 12.936
736 1 5.99318 11.0982 14.6549
737 1 15.2272 0.368294 1.16845
738 1 3.80754 2.53501 13.0608
739 1 0.306392 8.86055 5.59544
740 1 15.4987 2.36248 10.1537
741 1 12.8857 16.2152 12.3443
742 1 14.9946 3.24414 11.3995
743 1 5.77278 8.29834 13.4211
744 1 12.6642 2.95581 8.5591
745 1 3.10693 16.1689 2.37283
746 1 7.93226 5.21071 7.46961
747 1 15.2514 15.9877 5.033
748 1 0.55931 0.670873 6.9127
749 1 16.4171 12.9081 7.0537
750 1 16.9854 12.9967 4.85615
751 1 6.76882 10.1245 8.84962
752 1 13.9795 8.29026 15.1352
753 1 15.1204 13.765 10.6637
754 1 7.17473 11.6126 12.0985
755 1 2.19017 8.90491 11.9001
756 1 1.68504 5.54455 9.46763
757 1 4.35472 5.42387 9.88511
758 1 0.631598 0.0361371 11.0712
759 1 14.1454 16.564 16.0203
760 1 9.07505 16.2075 0.979327
761 1 7.78496 10.1537 4.11209
762 1 15.5438 14.2997 1.70583
763 1 4.50815 16.2234 8.31155
764 1 15.3795 7.80676 4.45919
765 1 14.8235 16.2365 0.83142
766 1 5.68402 5.63492 15.094
767 1 8.10279 10.3523 9.71293
768 1 16.2687 10.7565 16.6226
769 1 2.94057 7.47588 13.259
770 1 1.56501 3.02714 2.52763
771 1 1.75196 12.4548 10.8981
772 1 4.16617 6.29685 10.9239
773 1 14.9567 15.0454 11.1621
774 1 3.89226 15.0658 16.4052
775 1 4.67587 15.6487 15.8201
776 1 13.5942 15.5452 14.1088
777 1 9.05181 1.57588 5.8776
778 1 6.7187 11.4498 6.79072
779 1 10.0892 12.6542 1.8071
780 1 10.8779 10.2703 1.33805
781 1 16.4975 5.40878 12.2348
782 1 2.71357 7.73291 3.99176
783 1 9.15866 0.978548 8.23578
784 1 10.4 10.4778 11.1813
785 1 16.8467 16.2771 7.15914
786 1 12.0505 12.5179 3.56143
787 1 8.40712 16.4446 13.7883
788 1 1.14071 6.00312 14.0227
789 1 5.00043 8.92817 12.0726
790 1 12.7714 6.99831 5.05969
791 1 15.6028 9.03571 7.72908
792 1 15.2433 12.9815 12.451
793 1 16.2589 6.65846 15.9613
794 1 11.7405 7.81005 15.0864
795 1 7.29438 0.951469 7.67778
796 1 10.1594 10.3548 2.2738
797 1 11.8112 1.84598 10.0494
798 1 10.4496 9.96239 4.8007
799 1 7.58892 16.4933 7.91512
800 1 16.76 10.1351 11.6657
801 1 15.7023 2.12817 16.1758
802 1 15.8696 9.32857 7.92814
803 1 13.9295 16.8224 16.7451
804 1 10.241 14.5717 0.241327
805 1 16.7368 15.6653 9.99412
806 1 14.3588 15.1459 5.90892
807 1 8.37316 4.37349 12.0865
808 1 13.2971 14.4027 10.6442
809 1 16.6453 14.9211 2.6251
810 1 15.3766 14.5818 17.0064
811 1 8.26571 12.6177 11.186
812 1 1.40195 3.45603 2.16905
813 1 9.9082 15.4296 11.1716
814 1 15.6634 10.6543 6.50272
815 1 2.42843 11.0632 16.6694
816 1 5.7797 5.42963 2.43212
817 1 1.19312 7.79135 12.8492
818 1 8.98872 7.01973 14.2177
819 1 13.5128 6.8932 2.22005
820 1 10.4728 16.9967 13.2495
821 1 9.13764 9.93634 3.34631
822 1 1.69539 8.22281 14.3888
823 1 1.2933 0.486017 15.5909
824 1 2.73595 9.45298 7.81977
825 1 7.5147 6.21079 5.30001
826 1 16.5632 0.994187 2.98254
827 1 10.1859 9.5473 9.93352
828 1 6.85509 16.7679 11.6183
829 1 6.99337 8.79738 7.95557
830 1 4.70787 14.6115 1.68683
831 1 15.4674 3.91491 1.21019
832 1 1.88812 2.49545 5.222
833 1 7.38605 0.0925362 7.93085
834 1 0.384829 11.7324 10.5927
835 1 5.78575 14.5878 3.83103
836 1 11.8618 8.39403 16.9464
837 1 10.2101 15.4617 15.8133
838 1 3.00099 2.61808 10.696
839 1 5.72299 0.599394 17.0139
840 1 7.35512 15.3098 0.822471
841 1 14.8699 8.25218 2.75251
842 1 6.45779 10.3232 14.2052
843 1 2.90016 15.0793 6.27217
844 1 2.6173 8.06213 9.49163
845 1 4.19086 6.85699 10.5708
846 1 14.7895 13.9111 16.01
847 1 7.88377 14.0923 7.11325
848 1 11.6805 1.42518 7.99363
849 1 8.28951 10.2894 14.1853
850 1 5.88775 8.28573 7.44644
851 1 3.74548 3.66467 0.843775
852 1 15.426 0.151959 8.5431
853 1 8.96525 7.63042 4.68293
854 1 6.82463 0.325071 2.73071
855 1 12.6591 10.7935 13.5104
856 1 6.3689 12.3482 2.48437
857 1 2.1831 15.2928 9.05126
858 1 7.25816 9.06117 7.0159
859 1 1.57928 3.61244 15.4962
860 1 12.3427 9.0832 14.2291
861 1 3.05593 13.9728 12.879
862 1 10.2588 14.642 7.90696
863 1 9.11735 0.687511 5.03439
864 1 16.7841 10.6087 2.83678
865 1 12.4299 7.88072 9.56109
866 1 9.18305 12.541 8.71618
867 1 3.05398 14.5788 13.1341
868 1 14.8436 13.6569 1.51446
869 1 1.1591 1.29564 16.6266
870 1 2.94073 9.98422 15.8371
871 1 2.90682 1.56344 7.25164
872 1 3.51931 16.6481 11.952
873 1 13.7601 15.0319 15.4429
874 1 16.8106 11.1074 10.6952
875 1 11.5972 7.43511 1.30665
876 1 12.1333 10.4322 2.27021
877 1 0.662188 7.5422 14.6754
878 1 8.50165 9.72384 8.73607
879 1 7.33902 4.59992 0.13125
880 1 8.87323 14.1972 12.9924
881 1 1.94114 8.98296 11.481
882 1 7.81579 7.74998 8.54977
883 1 13.3086 11.2134 1.52288
884 1 10.5172 15.0344 14.6613
885 1 1.56138 7.6739 4.20844
886 1 3.80448 1.12256 8.68598
887 1 1.42627 13.8206 6.1808
888 1 7.87466 14.878 4.36899
889 1 1.70336 8.08622 0.33338
890 1 4.93266 3.2646 0.302882
891 1 12.3713 7.82707 2.01849
892 1 6.53865 16.5079 2.23135
893 1 10.9435 7.7232 15.8372
894 1 13.2989 9.73215 10.1023
895 1 14.6067 11.6417 5.27445
896 1 15.2844 1.39741 15.8407
897 1 5.72103 4.01718 1.29357
898 1 0.518546 6.40043 6.64845
899 1 10.5547 10.6617 9.05696
900 1 9.20263 13.8888 1.12228
901 1 1.86712 9.54821 10.5037
902 1 11.0726 10.5666 2.36121
903 1 15.3784 14.1212 2.01367
904 1 8.78906 3.75831 3.58842
905 1 13.8043 16.2343 14.5761
906 1 3.15483 6.41949 5.1667
907 1 9.6128 8.45061 5.02965
908 1 8.17577 8.40508 4.16129
909 1 13.7492 8.00808 16.0701
910 1 7.33815 15.2328 14.5294
911 1 6.82381 9.00305 14.124
912 1 11.1013 3.13831 4.49987
913 1 8.40705 9.0616 4.25661
914 1 7.19776 17.0123 4.35773
915 1 3.53099 5.32158 16.3459
916 1 5.08149 5.64895 2.03052
917 1 15.1162 14.3232 7.49512
918 1 6.16788 13.9555 6.67453
919 1 5.64414 1.16006 1.81166
920 1 0.777418 4.92763 12.6967
921 1 9.89716 1.73586 0.509662
922 1 12.094 0.480399 11.6024
923 1 8.40963 15.4915 2.5999
924 1 4.38827 5.70371 5.88157
925 1 10.9391 13.6673 8.08854
926 1 2.99079 11.6601 14.8039
927 1 16.082 11.4319 5.76475
928 1 4.17791 15.8573 2.09562
929 1 15.791 3.4423 2.87344
930 1 5.27173 8.82581 2.52434
931 1 13.9066 7.40211 9.76033
932 1 5.15155 8.93051 16.9502
933 1 12.1017 4.29242 0.731582
934 1 9.37591 8.05114 4.61124
935 1 13.7291 16.2993 6.11537
936 1 6.99454 10.1923 11.9169
937 1 1.64493 10.814 13.3528
938 1 8.3566 12.7606 10.0794
939 1 12.3975 7.1236 14.8562
940 1 12.3755 9.59709 15.1592
941 1 10.2078 13.3123 8.10224
942 1 4.49838 17.0723 3.66954
943 1 12.3367 12.1987 12.0449
944 1 4.31413 3.84617 16.8476
945 1 11.3088 9.41817 1.51742
946 1 4.24621 12.5999 6.85775
947 1 7.44501 2.44584 1.52816
948 1 8.60743 8.73099 7.56246
949 1 10.0492 7.10344 10.188
950 1 12.4023 5.87771 8.92042
951 1 11.7278 2.35536 11.4714
952 1 0.478649 16.5565 8.81465
953 1 10.3288 14.7958 9.56999
954 1 9.67533 6.28513 14.0483
955 1 2.54903 2.50697 8.14352
956 1 15.8267 8.78814 13.7172
957 1 5.04857 15.3043 6.60065
958 1 0.631857 1.60442 13.7146
959 1 5.94274 6.62721 10.7967
960 1 5.85778 8.34207 14.7884
961 1 3.82064 1.95736 10.2416
962 1 3.5958 3.27059 0.344391
963 1 13.5337 14.1115 9.73297
964 1 4.59843 16.1802 11.49
965 1 6.93782 0.654888 3.42851
966 1 6.43663 5.55482 10.6551
967 1 8.72704 6.93253 7.58574
968 1 10.7149 16.132 6.18953
969 1 9.65024 7.13844 7.92036
970 1 9.01232 14.9013 2.13477
971 1 14.9734 8.36386 5.68272
972 1 4.95662 11.6701 14.4987
973 1 5.86172 5.66468 8.8789
974 1 16.4289 8.86859 5.65764
975 1 3.55005 10.1059 0.744794
976 1 5.33792 13.2495 12.4865
977 1 14.4691 0.493735 14.0022
978 1 13.5925 9.0834 16.1684
979 1 9.42535 1.23755 1.83876
980 1 2.86169 11.638 3.67564
981 1 4.41483 15.3101 12.7843
982 1 9.92264 0.725077 6.96472
983 1 13.3995 16.0865 9.9799
984 1 4.40047 0.789506 9.30457
985 1 16.4828 11.5628 6.00342
986 1 4.05133 10.6704 15.6455
987 1 9.34399 5.79288 14.7541
988 1 8.4784 12.4518 15.8786
989 1 10.8996 4.51093 16.0877
990 1 11.075 1.85467 12.1291
991 1 3.55288 1.4863 0.251088
992 1 9.20384 14.1162 2.28078
993 1 6.77938 9.52721 5.19337
994 1 3.01293 10.3269 1.97283
995 1 6.39899 15.9377 5.25478
996 1 16.4404 16.4382 3.80564
997 1 15.7544 0.244748 0.827708
998 1 7.70713 3.01547 5.30791
999 1 16.1612 10.842 8.09426
1000 1 5.00479 13.5143 1.85876
