ITEM: TIMESTEP
940000
ITEM: NUMBER OF ATOMS
50
ITEM: BOX BOUNDS xy xz yz pp pp pp
0.0000000000000000e+00 3.9685030000000001e+00 0.0000000000000000e+00
0.0000000000000000e+00 3.9685030000000001e+00 0.0000000000000000e+00
0.0000000000000000e+00 3.9685030000000001e+00 0.0000000000000000e+00
ITEM: ATOMS id x y z radius
1 3.0293 0.738438 0.984845 0.5
2 3.61641 1.27016 0.281405 0.5
3 1.54872 2.43111 1.04559 0.5
4 3.88364 1.14185 1.30486 0.5
5 1.9275 2.86839 1.84255 0.5
6 2.03402 1.46913 3.42698 0.5
7 2.44145 0.212061 3.29866 0.5
8 0.467412 2.27199 1.36992 0.5
9 2.433 0.95217 1.65565 0.5
10 1.5673 1.43079 0.471095 0.5
11 2.68943 1.20614 0.143321 0.5
12 3.05491 0.991491 3.32172 0.5
13 3.5219 3.93309 2.89402 0.5
14 1.57508 1.99462 1.81521 0.5
15 3.26128 1.9735 3.79669 0.5
16 2.22466 2.12865 0.170694 0.5
17 0.624028 3.09178 0.964302 0.5
18 1.1148 3.66391 1.54392 0.5
19 3.93902 0.300187 1.98454 0.5
20 3.45827 3.31136 0.432703 0.5
21 0.420697 1.92639 3.64651 0.5
22 1.84611 2.90925 2.8924 0.5
23 1.54161 3.65137 2.45857 0.5
24 2.92425 1.65618 2.88654 0.5
25 1.259 1.48004 2.71999 0.5
26 1.06518 2.63049 2.36104 0.5
27 1.30681 3.55564 3.40357 0.5
28 1.92707 3.5594 1.12084 0.5
29 2.5003 2.4566 3.44811 0.5
30 2.13422 1.99404 2.51309 0.5
31 0.837706 1.44414 1.7863 0.5
32 0.378395 3.28779 3.02547 0.5
33 0.752695 0.518911 1.53452 0.5
34 3.41973 2.87724 3.42043 0.5
35 0.349433 3.1697 1.8814 0.5
36 2.67051 3.72927 0.4225 0.5
37 3.99141 0.188235 0.7146 0.5
38 2.53872 2.88047 0.946524 0.5
39 1.04834 2.74149 0.0884966 0.5
40 0.0369818 2.5505 0.348064 0.5
41 3.42422 0.34185 3.80505 0.5
42 0.358109 3.43208 0.0135424 0.5
43 3.3573 3.0181 1.4682 0.5
44 2.19348 0.479222 0.76807 0.5
45 1.30926 2.23579 3.27363 0.5
46 1.58982 0.724665 1.77024 0.5
47 0.58874 1.61842 0.538896 0.5
48 2.29185 0.978407 2.55709 0.5
49 3.39712 1.96222 0.990051 0.5
50 1.93618 0.696493 3.7736 0.5
