ITEM: TIMESTEP
300000
ITEM: NUMBER OF ATOMS
50
ITEM: BOX BOUNDS xy xz yz pp pp pp
0.0000000000000000e+00 3.9685030000000001e+00 0.0000000000000000e+00
0.0000000000000000e+00 3.9685030000000001e+00 0.0000000000000000e+00
0.0000000000000000e+00 3.9685030000000001e+00 0.0000000000000000e+00
ITEM: ATOMS id x y z radius
1 3.67287 2.80335 3.3363 0.5
2 1.42897 3.82336 0.866835 0.5
3 0.660508 1.26635 2.73236 0.5
4 1.71292 1.63902 1.68984 0.5
5 2.78223 0.719339 2.64258 0.5
6 0.747614 0.346166 2.3616 0.5
7 0.633206 3.22819 2.84832 0.5
8 2.00286 2.19467 0.521264 0.5
9 1.16371 1.77269 0.832301 0.5
10 0.897677 0.369047 0.159288 0.5
11 0.743105 2.01511 0.13567 0.5
12 3.48399 3.89148 3.03674 0.5
13 1.32622 3.54481 3.70864 0.5
14 3.21598 2.73215 1.62841 0.5
15 2.52616 2.46713 3.35573 0.5
16 2.94987 1.67971 0.443328 0.5
17 3.19579 0.973209 3.52446 0.5
18 0.686814 3.02823 1.72532 0.5
19 2.74055 2.55678 0.834663 0.5
20 1.50927 0.885396 0.954254 0.5
21 2.02306 0.0918282 2.60638 0.5
22 3.23418 0.360544 1.467 0.5
23 2.84302 2.45464 2.45155 0.5
24 0.463222 2.99156 3.92448 0.5
25 1.76048 0.552199 0.125311 0.5
26 2.10667 3.21326 0.481977 0.5
27 0.727652 2.31249 3.13796 0.5
28 2.45191 0.206451 0.74845 0.5
29 3.26667 0.136274 3.95967 0.5
30 0.360478 3.74786 0.861264 0.5
31 3.17125 3.50763 0.884898 0.5
32 0.0860781 1.61087 2.03715 0.5
33 1.20843 0.541435 3.22853 0.5
34 2.39515 1.33586 3.20873 0.5
35 2.24924 0.664016 1.70274 0.5
36 0.410802 2.56109 0.889929 0.5
37 3.7273 2.29214 0.280167 0.5
38 0.173305 0.407513 3.32219 0.5
39 0.0570915 2.62483 2.38606 0.5
40 1.56446 0.948849 2.45592 0.5
41 1.47466 0.132233 1.83999 0.5
42 1.10311 1.23983 3.95892 0.5
43 3.678 0.678466 2.35951 0.5
44 1.186 2.85237 0.439535 0.5
45 2.25981 1.64237 2.37475 0.5
46 2.15613 3.4544 1.45019 0.5
47 0.988275 2.11821 1.79963 0.5
48 1.6612 2.56782 1.24377 0.5
49 3.74382 3.43259 1.72438 0.5
50 3.25859 1.52235 2.60557 0.5
