ITEM: TIMESTEP
670000
ITEM: NUMBER OF ATOMS
50
ITEM: BOX BOUNDS xy xz yz pp pp pp
0.0000000000000000e+00 3.9685030000000001e+00 0.0000000000000000e+00
0.0000000000000000e+00 3.9685030000000001e+00 0.0000000000000000e+00
0.0000000000000000e+00 3.9685030000000001e+00 0.0000000000000000e+00
ITEM: ATOMS id x y z radius
1 0.96541 1.64569 3.62586 0.5
2 1.08151 0.748235 2.94696 0.5
3 3.82666 1.58654 1.18934 0.5
4 1.23646 3.5963 2.96904 0.5
5 2.62494 1.51459 2.62237 0.5
6 0.357914 0.251961 3.52805 0.5
7 1.67301 3.69176 0.353449 0.5
8 2.82063 0.577221 3.05889 0.5
9 0.0209226 0.750164 2.75982 0.5
10 3.66284 2.51851 3.55491 0.5
11 2.80328 0.587616 0.0409161 0.5
12 2.62958 3.28573 2.52884 0.5
13 0.0582582 2.91821 1.05715 0.5
14 1.93631 0.798516 0.423938 0.5
15 3.60489 3.33983 0.241382 0.5
16 1.24443 2.96206 1.02049 0.5
17 1.90177 0.499806 3.4718 0.5
18 3.47897 1.42334 0.346822 0.5
19 1.23375 2.30269 2.84125 0.5
20 2.59724 1.792 1.56153 0.5
21 0.266367 0.667149 1.79718 0.5
22 1.73569 2.12579 3.68943 0.5
23 1.0961 2.9236 2.02761 0.5
24 1.39971 0.23557 1.15398 0.5
25 1.65255 1.67733 0.876777 0.5
26 2.49144 1.78167 0.59694 0.5
27 0.407725 1.71922 0.45019 0.5
28 3.23957 0.645727 2.12797 0.5
29 1.68705 1.94026 1.82345 0.5
30 1.8995 2.82143 2.54823 0.5
31 2.55194 1.38888 3.71272 0.5
32 0.899229 1.12286 1.06293 0.5
33 2.76951 2.11391 3.20006 0.5
34 1.26725 3.93033 2.09099 0.5
35 0.636463 3.58209 1.51464 0.5
36 1.88055 2.94837 3.41879 0.5
37 1.95624 3.23823 1.58335 0.5
38 0.338167 0.76397 0.478077 0.5
39 3.27957 2.4338 0.622096 0.5
40 2.54651 2.34021 2.25423 0.5
41 2.48739 3.7529 3.49129 0.5
42 3.58432 3.83211 1.87229 0.5
43 3.44554 2.38307 1.65519 0.5
44 3.52536 1.47152 3.30674 0.5
45 2.62842 2.70805 0.0195388 0.5
46 0.20136 1.22016 3.58418 0.5
47 0.410813 3.87573 2.45756 0.5
48 3.52327 1.98572 2.53698 0.5
49 1.09327 0.552716 0.0125691 0.5
50 3.17922 3.10202 1.18571 0.5
