ITEM: TIMESTEP
50000
ITEM: NUMBER OF ATOMS
50
ITEM: BOX BOUNDS xy xz yz pp pp pp
0.0000000000000000e+00 3.9685030000000001e+00 0.0000000000000000e+00
0.0000000000000000e+00 3.9685030000000001e+00 0.0000000000000000e+00
0.0000000000000000e+00 3.9685030000000001e+00 0.0000000000000000e+00
ITEM: ATOMS id x y z radius
1 2.89624 2.31361 2.44605 0.5
2 0.0361529 2.23108 0.489934 0.5
3 1.68172 0.247294 0.623475 0.5
4 2.39784 3.41957 0.281954 0.5
5 0.22875 1.79067 1.426 0.5
6 2.11525 0.132512 3.00405 0.5
7 0.31544 0.951643 1.50136 0.5
8 1.88468 3.87641 3.8157 0.5
9 1.5315 2.04731 3.93512 0.5
10 2.35382 3.03867 3.15237 0.5
11 0.0719415 2.07801 2.22047 0.5
12 2.82709 0.402356 0.228461 0.5
13 0.737305 0.290461 0.837102 0.5
14 0.595589 2.23164 3.57429 0.5
15 3.86119 1.11735 0.563851 0.5
16 0.890024 2.28574 0.911992 0.5
17 1.32665 0.303674 1.63549 0.5
18 1.65567 3.52082 2.09191 0.5
19 1.12835 3.69567 2.97577 0.5
20 0.236006 1.60826 2.96178 0.5
21 2.47244 0.513235 2.27323 0.5
22 3.63219 1.84117 3.61521 0.5
23 0.549616 0.70338 2.79268 0.5
24 2.05491 1.71194 0.938714 0.5
25 3.70899 3.45497 2.99485 0.5
26 2.51098 2.1193 3.54378 0.5
27 0.483898 2.86713 2.57897 0.5
28 3.28246 3.44778 0.626252 0.5
29 1.7343 2.46951 1.59977 0.5
30 3.65245 1.33532 2.15716 0.5
31 2.9583 1.69242 1.62405 0.5
32 2.88098 1.04733 1.03356 0.5
33 0.992519 3.50554 0.46628 0.5
34 1.45071 0.841238 2.44955 0.5
35 2.48384 3.86547 1.15414 0.5
36 0.962834 2.81932 1.73505 0.5
37 3.50141 2.81894 2.10938 0.5
38 2.99415 1.59429 0.407352 0.5
39 0.598551 3.97278 3.77548 0.5
40 3.65716 2.40281 2.99349 0.5
41 2.06505 1.5002 3.07645 0.5
42 3.52317 0.240844 1.14964 0.5
43 2.21291 1.08055 0.189495 0.5
44 1.72341 2.69589 0.446703 0.5
45 1.58958 3.47543 1.16297 0.5
46 0.919303 1.48698 2.17066 0.5
47 0.0794697 3.20941 0.282861 0.5
48 2.09135 1.7155 2.11208 0.5
49 3.17066 2.64028 3.95606 0.5
50 1.16156 1.42347 3.20151 0.5
