ITEM: TIMESTEP
960000
ITEM: NUMBER OF ATOMS
50
ITEM: BOX BOUNDS xy xz yz pp pp pp
0.0000000000000000e+00 3.9685030000000001e+00 0.0000000000000000e+00
0.0000000000000000e+00 3.9685030000000001e+00 0.0000000000000000e+00
0.0000000000000000e+00 3.9685030000000001e+00 0.0000000000000000e+00
ITEM: ATOMS id x y z radius
1 1.3062 1.50909 2.31158 0.5
2 0.633378 1.17376 3.01602 0.5
3 2.14224 2.71433 1.19476 0.5
4 3.84825 1.33322 3.82786 0.5
5 2.88043 2.18453 1.38673 0.5
6 1.69379 2.21818 0.795527 0.5
7 3.52532 1.38974 2.97485 0.5
8 1.39435 3.29247 0.87506 0.5
9 3.36614 3.05575 2.33905 0.5
10 1.45688 1.18596 1.23712 0.5
11 2.45153 1.22269 0.814163 0.5
12 1.1158 3.44154 3.80183 0.5
13 2.15333 0.854009 1.88005 0.5
14 0.481272 2.95085 1.03582 0.5
15 3.42896 1.56059 0.698879 0.5
16 1.91801 1.86295 1.68293 0.5
17 1.55834 3.04154 2.55302 0.5
18 1.76516 3.79946 3.23053 0.5
19 0.186079 1.44595 2.14168 0.5
20 1.53714 0.736942 2.8537 0.5
21 3.17045 0.297849 1.1016 0.5
22 3.1757 2.32464 3.63193 0.5
23 2.26637 2.78744 3.17436 0.5
24 0.19226 1.98267 3.13518 0.5
25 3.20728 1.24419 1.70766 0.5
26 0.763937 2.60713 2.66936 0.5
27 0.733279 0.451847 2.5957 0.5
28 1.40327 0.394055 0.694258 0.5
29 2.67944 2.12419 0.416867 0.5
30 2.67785 0.894902 2.61977 0.5
31 0.450511 3.10951 1.92006 0.5
32 3.84082 3.66866 3.2488 0.5
33 0.0539485 0.649645 1.25243 0.5
34 3.9384 0.0456559 2.17025 0.5
35 3.74808 2.20556 1.6792 0.5
36 1.75398 0.999054 3.89286 0.5
37 0.455894 1.59883 1.13408 0.5
38 2.68745 2.28043 2.30069 0.5
39 0.763473 3.52284 2.82749 0.5
40 3.68783 3.50548 0.334775 0.5
41 2.73039 3.60899 3.48204 0.5
42 2.3528 0.486873 3.4267 0.5
43 2.72699 2.99776 0.222087 0.5
44 3.85816 3.59372 1.30326 0.5
45 2.98441 1.23068 3.84908 0.5
46 1.88234 3.87841 0.245373 0.5
47 0.906248 1.38671 0.307732 0.5
48 1.04621 0.348016 3.6638 0.5
49 0.895277 3.8729 1.42729 0.5
50 1.93177 3.003 0.177173 0.5
