ITEM: TIMESTEP
500000
ITEM: NUMBER OF ATOMS
50
ITEM: BOX BOUNDS xy xz yz pp pp pp
0.0000000000000000e+00 3.9685030000000001e+00 0.0000000000000000e+00
0.0000000000000000e+00 3.9685030000000001e+00 0.0000000000000000e+00
0.0000000000000000e+00 3.9685030000000001e+00 0.0000000000000000e+00
ITEM: ATOMS id x y z radius
1 3.89338 1.26851 1.97239 0.5
2 0.218422 3.84811 0.264591 0.5
3 0.985733 3.37654 0.17852 0.5
4 1.08181 0.349802 0.483704 0.5
5 0.729689 0.884923 2.48405 0.5
6 0.838215 1.20117 3.33908 0.5
7 0.947832 1.397 0.445449 0.5
8 3.63808 3.50931 2.82259 0.5
9 2.52923 2.18369 1.2215 0.5
10 0.956914 0.0634265 1.82598 0.5
11 1.63105 0.913538 3.77723 0.5
12 2.58314 0.95341 0.147469 0.5
13 3.37409 0.410628 0.388506 0.5
14 2.14703 1.63325 1.86086 0.5
15 2.40489 2.54406 3.7884 0.5
16 1.64039 1.99569 3.51949 0.5
17 0.158899 0.250701 2.20462 0.5
18 0.280286 1.97565 0.750142 0.5
19 1.05088 2.33937 0.431514 0.5
20 3.88537 2.72501 2.85255 0.5
21 1.57344 0.982929 1.94591 0.5
22 2.58903 2.98919 0.648752 0.5
23 3.21566 1.46976 1.34652 0.5
24 0.240252 3.68225 1.31728 0.5
25 2.84089 3.7873 0.939005 0.5
26 3.54745 0.449116 1.4865 0.5
27 1.39233 3.3385 2.30947 0.5
28 3.44339 1.8503 2.77655 0.5
29 3.34859 2.27636 0.776664 0.5
30 1.20256 3.51354 1.1086 0.5
31 1.80105 1.71069 0.483149 0.5
32 0.956443 2.58791 1.56165 0.5
33 2.31746 3.19588 1.76148 0.5
34 1.31308 1.77973 1.31807 0.5
35 2.52238 1.52203 3.12779 0.5
36 0.311274 3.38147 2.09044 0.5
37 0.484095 3.87768 3.0674 0.5
38 1.95605 2.72413 2.84153 0.5
39 1.41213 0.29168 2.84959 0.5
40 0.646032 0.982512 1.42713 0.5
41 1.96043 3.56595 0.292186 0.5
42 1.68461 1.23036 2.90422 0.5
43 2.85052 2.93973 2.91682 0.5
44 0.309622 2.94487 0.708556 0.5
45 3.32392 3.62825 3.81623 0.5
46 2.92992 1.10499 2.3844 0.5
47 3.27729 1.98164 2.00202 0.5
48 0.0441299 0.998915 0.467446 0.5
49 1.69846 2.67687 0.973179 0.5
50 3.70256 0.78685 2.95035 0.5
