ITEM: TIMESTEP
240000
ITEM: NUMBER OF ATOMS
50
ITEM: BOX BOUNDS xy xz yz pp pp pp
0.0000000000000000e+00 3.9685030000000001e+00 0.0000000000000000e+00
0.0000000000000000e+00 3.9685030000000001e+00 0.0000000000000000e+00
0.0000000000000000e+00 3.9685030000000001e+00 0.0000000000000000e+00
ITEM: ATOMS id x y z radius
1 3.36552 2.39808 0.763131 0.5
2 2.72026 2.01027 3.14395 0.5
3 0.349776 0.308521 0.458763 0.5
4 2.00056 1.65347 0.244981 0.5
5 1.6306 1.87942 2.75624 0.5
6 0.215999 1.96729 1.62733 0.5
7 1.85184 2.29109 3.53967 0.5
8 2.16271 2.78875 2.87983 0.5
9 0.680655 3.09314 2.6384 0.5
10 2.12307 0.571193 2.30145 0.5
11 1.01049 1.64795 3.60103 0.5
12 2.72784 1.02894 0.896963 0.5
13 0.0546978 0.964923 2.11215 0.5
14 2.79236 1.71075 0.202062 0.5
15 0.635598 1.34128 2.75951 0.5
16 2.2053 3.71209 0.310647 0.5
17 0.107262 2.1758 2.67674 0.5
18 2.71248 3.87763 3.47649 0.5
19 1.07279 3.05351 1.67873 0.5
20 2.46551 0.315936 1.46086 0.5
21 0.0249676 0.257713 2.81827 0.5
22 1.59379 3.18523 3.64417 0.5
23 1.41498 2.31091 0.408676 0.5
24 3.71657 3.81708 3.65206 0.5
25 3.44583 1.48557 2.72579 0.5
26 3.40511 0.228664 0.94501 0.5
27 0.654973 3.96696 3.45334 0.5
28 2.99998 1.04638 1.82156 0.5
29 1.30322 3.28707 0.787093 0.5
30 2.25797 1.21934 3.20819 0.5
31 1.40633 0.423773 0.948706 0.5
32 1.90491 1.16428 1.33298 0.5
33 0.364578 0.826429 3.6553 0.5
34 2.43073 2.82205 0.301935 0.5
35 3.38 0.69615 3.33037 0.5
36 1.29923 0.161745 0.19753 0.5
37 1.68813 3.596 2.2795 0.5
38 0.217384 3.05988 3.72586 0.5
39 2.36872 1.56373 2.23717 0.5
40 0.489155 0.252553 1.44796 0.5
41 2.18011 3.32345 1.15352 0.5
42 1.11313 2.49166 3.08217 0.5
43 3.57973 1.0293 0.295941 0.5
44 3.21134 2.90899 3.64129 0.5
45 1.45298 1.22551 2.13357 0.5
46 3.6431 3.31961 2.96593 0.5
47 2.96266 0.748474 2.64786 0.5
48 0.385277 1.57135 0.580532 0.5
49 3.55294 1.36489 1.18389 0.5
50 2.53722 1.99339 1.1279 0.5
