ITEM: TIMESTEP
870000
ITEM: NUMBER OF ATOMS
50
ITEM: BOX BOUNDS xy xz yz pp pp pp
0.0000000000000000e+00 3.9685030000000001e+00 0.0000000000000000e+00
0.0000000000000000e+00 3.9685030000000001e+00 0.0000000000000000e+00
0.0000000000000000e+00 3.9685030000000001e+00 0.0000000000000000e+00
ITEM: ATOMS id x y z radius
1 3.44614 2.63253 1.79767 0.5
2 2.26416 2.47059 2.54798 0.5
3 1.61351 1.95392 3.36866 0.5
4 0.550014 1.7879 2.09776 0.5
5 3.9019 1.39343 0.188289 0.5
6 1.6683 0.288246 1.84459 0.5
7 0.776905 0.80343 2.56229 0.5
8 3.38766 0.376244 2.3534 0.5
9 2.0171 0.135202 3.30359 0.5
10 3.31195 1.55643 3.37642 0.5
11 3.90329 2.83487 0.334523 0.5
12 1.41021 0.948756 3.30855 0.5
13 1.1105 0.0378413 3.01568 0.5
14 1.89038 2.59877 3.88311 0.5
15 0.990258 1.93531 1.30894 0.5
16 2.43045 2.4679 1.48907 0.5
17 2.79095 3.83648 0.497654 0.5
18 1.8702 1.53483 0.971002 0.5
19 2.71203 3.40018 3.49093 0.5
20 3.41715 3.49053 1.1724 0.5
21 1.51859 2.38278 1.8594 0.5
22 3.96681 1.99265 1.19411 0.5
23 3.00619 2.59629 0.804121 0.5
24 0.0229046 2.35712 3.34672 0.5
25 3.80948 1.06249 1.70279 0.5
26 1.28233 2.74848 0.808894 0.5
27 2.16282 0.620375 0.215975 0.5
28 1.55077 3.25283 1.4453 0.5
29 1.80391 3.45974 0.137593 0.5
30 3.88943 0.0217602 2.94189 0.5
31 2.83406 2.40742 3.62869 0.5
32 3.09011 0.365904 3.40231 0.5
33 3.39514 1.79374 2.33977 0.5
34 0.65187 3.29629 2.92931 0.5
35 0.946031 2.78007 3.8222 0.5
36 0.519866 3.91136 2.04274 0.5
37 0.551552 1.62146 3.16142 0.5
38 0.550075 2.78857 1.43707 0.5
39 2.90258 1.73565 1.24428 0.5
40 2.42566 0.605334 0.993835 0.5
41 0.72495 2.05444 0.250058 0.5
42 3.22106 2.82334 2.82103 0.5
43 2.1959 3.30523 2.08599 0.5
44 2.33789 1.56072 3.83177 0.5
45 1.47701 1.28637 0.184565 0.5
46 1.5308 1.48047 2.26556 0.5
47 2.35113 0.430439 2.43077 0.5
48 1.69858 3.13113 3.14512 0.5
49 2.47527 3.46223 1.17339 0.5
50 1.42007 0.288616 0.703824 0.5
