ITEM: TIMESTEP
910000
ITEM: NUMBER OF ATOMS
50
ITEM: BOX BOUNDS xy xz yz pp pp pp
0.0000000000000000e+00 3.9685030000000001e+00 0.0000000000000000e+00
0.0000000000000000e+00 3.9685030000000001e+00 0.0000000000000000e+00
0.0000000000000000e+00 3.9685030000000001e+00 0.0000000000000000e+00
ITEM: ATOMS id x y z radius
1 2.30056 0.0883643 3.48757 0.5
2 0.0881702 0.70881 0.815069 0.5
3 3.99343 3.08872 0.511357 0.5
4 0.841785 1.10188 0.28299 0.5
5 3.06877 1.82401 3.67198 0.5
6 3.74489 2.33932 1.87573 0.5
7 1.61902 0.429817 2.73085 0.5
8 0.0322546 3.78435 3.35508 0.5
9 2.95006 2.73775 3.44359 0.5
10 1.98203 1.73569 1.31182 0.5
11 0.859716 1.08294 1.29402 0.5
12 1.72635 1.54116 2.66882 0.5
13 1.1927 3.58242 3.39562 0.5
14 0.756942 2.2914 1.86572 0.5
15 0.37165 0.854596 2.08477 0.5
16 3.15125 3.1018 1.08718 0.5
17 2.65674 2.48524 0.476625 0.5
18 3.51008 3.90564 0.876894 0.5
19 1.55714 0.223755 0.12258 0.5
20 1.16754 2.07079 0.740703 0.5
21 3.49569 1.4163 2.22284 0.5
22 2.59791 3.89625 0.640497 0.5
23 1.96711 2.65201 1.02277 0.5
24 1.76355 0.977882 0.822687 0.5
25 2.94777 2.79937 2.41947 0.5
26 1.13451 2.17062 2.88446 0.5
27 0.652248 3.34232 2.08973 0.5
28 0.599453 3.04592 3.01934 0.5
29 0.2206 2.18552 2.61995 0.5
30 3.8907 2.58238 3.56915 0.5
31 3.34365 2.04592 2.87216 0.5
32 3.78256 3.09208 2.59789 0.5
33 0.22049 0.0553977 1.39386 0.5
34 1.53555 3.47405 2.5137 0.5
35 -0.0260123 0.85936 3.18506 0.5
36 2.09374 3.16793 3.9814 0.5
37 1.02661 0.714561 3.42799 0.5
38 3.26792 0.520658 3.6767 0.5
39 3.81159 1.64508 0.354729 0.5
40 3.46776 0.829255 1.64056 0.5
41 2.16116 0.867103 1.5193 0.5
42 0.69884 -0.00320963 2.70775 0.5
43 3.19752 3.42016 0.122253 0.5
44 2.63057 1.69747 2.14923 0.5
45 1.45784 2.99293 1.74077 0.5
46 2.92832 1.70164 1.32724 0.5
47 1.58248 1.66613 3.68012 0.5
48 1.13501 0.087895 1.77594 0.5
49 3.70947 0.276166 2.47244 0.5
50 2.94169 0.980574 0.714075 0.5
