ITEM: TIMESTEP
105
ITEM: NUMBER OF ATOMS
50
ITEM: BOX BOUNDS xy xz yz pp pp pp
0.0000000000000000e+00 3.9685030000000001e+00 0.0000000000000000e+00
0.0000000000000000e+00 3.9685030000000001e+00 0.0000000000000000e+00
0.0000000000000000e+00 3.9685030000000001e+00 0.0000000000000000e+00
ITEM: ATOMS id x y z radius
1 1.02175 3.56838 3.00726 0.5
2 0.701628 0.882963 0.454004 0.5
3 2.044 3.76086 1.77958 0.5
4 0.310945 3.76201 0.745276 0.5
5 0.0555483 1.94343 2.9084 0.5
6 1.88607 1.60611 1.4547 0.5
7 1.38261 2.53578 1.52587 0.5
8 0.222326 1.19518 2.25444 0.5
9 2.93901 0.258254 3.76995 0.5
10 1.29138 3.34672 2.05852 0.5
11 3.89403 0.86572 3.05016 0.5
12 0.0382554 2.17271 1.29337 0.5
13 3.63888 1.39394 3.71652 0.5
14 2.66564 0.877091 3.35263 0.5
15 0.272204 0.207528 2.38718 0.5
16 0.586329 1.8483 2.01329 0.5
17 0.231911 2.95213 1.84858 0.5
18 0.97018 0.924119 3.29756 0.5
19 1.15406 2.85494 0.34391 0.5
20 1.74404 0.761656 1.80076 0.5
21 0.0558414 0.55486 3.91586 0.5
22 0.578544 1.6376 3.64666 0.5
23 1.61509 2.14109 2.44474 0.5
24 2.93751 3.22674 2.60306 0.5
25 2.76858 1.82199 1.19173 0.5
26 3.62933 2.90871 3.30963 0.5
27 2.36225 1.82182 3.5804 0.5
28 2.48829 0.0820671 3.09935 0.5
29 0.146471 2.94056 0.211221 0.5
30 0.0296098 0.99961 1.19099 0.5
31 0.742827 0.746921 1.42795 0.5
32 1.53248 1.16856 0.127477 0.5
33 1.2469 0.205692 2.7126 0.5
34 0.434894 2.73379 3.4032 0.5
35 2.24402 0.301736 0.770545 0.5
36 2.16355 2.9435 1.10702 0.5
37 0.698574 2.65382 2.59102 0.5
38 3.17399 2.31356 0.495414 0.5
39 3.43454 2.37402 2.33137 0.5
40 3.25759 1.49544 2.78311 0.5
41 3.83408 0.218537 1.39143 0.5
42 0.862853 3.35757 1.02294 0.5
43 2.34047 2.40098 1.91234 0.5
44 1.9385 0.212823 3.75965 0.5
45 3.02648 0.9309 1.07954 0.5
46 0.776683 1.78791 0.490663 0.5
47 3.26501 0.274478 2.73858 0.5
48 2.37192 1.23604 0.421 0.5
49 1.65546 2.08455 0.630032 0.5
50 3.27027 0.907474 1.81153 0.5
