ITEM: TIMESTEP
530000
ITEM: NUMBER OF ATOMS
50
ITEM: BOX BOUNDS xy xz yz pp pp pp
0.0000000000000000e+00 3.9685030000000001e+00 0.0000000000000000e+00
0.0000000000000000e+00 3.9685030000000001e+00 0.0000000000000000e+00
0.0000000000000000e+00 3.9685030000000001e+00 0.0000000000000000e+00
ITEM: ATOMS id x y z radius
1 1.07729 0.260717 3.41549 0.5
2 0.819431 2.29249 1.11152 0.5
3 2.81343 2.13015 3.747 0.5
4 3.28247 3.01959 3.64518 0.5
5 3.40889 0.760593 2.15163 0.5
6 1.27878 0.323195 2.09349 0.5
7 0.39788 3.08852 2.58928 0.5
8 0.134748 2.5186 0.436045 0.5
9 1.36048 0.262398 1.16357 0.5
10 0.825999 3.20003 0.723957 0.5
11 1.69194 2.22516 0.566341 0.5
12 3.52999 0.248121 1.27024 0.5
13 3.38508 2.47311 1.13309 0.5
14 2.77096 0.0711178 0.76609 0.5
15 1.98798 0.369572 0.132586 0.5
16 0.220905 3.23611 3.79925 0.5
17 2.99218 1.53456 1.46871 0.5
18 2.54835 0.35532 2.58656 0.5
19 1.76742 1.34777 0.00556512 0.5
20 -0.00994146 0.216803 3.57729 0.5
21 1.99971 2.21345 3.58279 0.5
22 3.48702 1.81876 3.15508 0.5
23 0.0861391 3.33932 1.06781 0.5
24 3.38465 3.3759 0.525946 0.5
25 2.25589 0.313626 1.60441 0.5
26 2.38659 2.80279 0.2805 0.5
27 2.87526 2.53391 2.8322 0.5
28 3.91547 2.27023 2.17666 0.5
29 3.27022 0.796679 3.15579 0.5
30 2.46379 1.11264 2.013 0.5
31 0.555202 1.56321 3.30823 0.5
32 2.85187 1.01416 3.92219 0.5
33 3.23055 1.05395 0.723938 0.5
34 1.6501 3.40285 1.65702 0.5
35 2.40409 3.16044 3.30412 0.5
36 3.25896 3.52366 2.79498 0.5
37 0.709222 0.137242 0.395227 0.5
38 0.0796055 1.25182 2.62177 0.5
39 0.82659 0.940394 3.88499 0.5
40 1.05618 1.99488 3.95798 0.5
41 3.04386 0.0606697 3.83217 0.5
42 0.621834 1.72094 2.01287 0.5
43 1.70609 2.34974 1.51345 0.5
44 2.99519 3.42163 1.43465 0.5
45 2.37577 3.18411 2.36489 0.5
46 1.61304 1.22036 1.84884 0.5
47 2.77474 2.4941 1.64889 0.5
48 0.454809 0.873517 1.49824 0.5
49 2.08575 0.971988 0.863481 0.5
50 1.13638 1.35031 0.898043 0.5
