ITEM: TIMESTEP
100000
ITEM: NUMBER OF ATOMS
50
ITEM: BOX BOUNDS xy xz yz pp pp pp
0.0000000000000000e+00 3.9685030000000001e+00 0.0000000000000000e+00
0.0000000000000000e+00 3.9685030000000001e+00 0.0000000000000000e+00
0.0000000000000000e+00 3.9685030000000001e+00 0.0000000000000000e+00
ITEM: ATOMS id x y z radius
1 0.129739 0.614003 3.63128 0.5
2 3.44164 1.19836 1.6164 0.5
3 1.9402 3.76693 0.569631 0.5
4 3.13078 3.08456 2.92157 0.5
5 1.6312 2.37349 2.58749 0.5
6 1.92719 2.32693 1.70946 0.5
7 0.374267 3.68779 3.39327 0.5
8 1.20233 3.46618 2.827 0.5
9 1.36385 3.04217 0.207817 0.5
10 1.4149 0.863009 0.24193 0.5
11 0.602957 1.18548 1.01215 0.5
12 3.30617 2.92495 2.14606 0.5
13 0.54361 2.62146 3.57953 0.5
14 3.22286 2.29289 3.46405 0.5
15 1.80575 0.999734 3.19878 0.5
16 3.58357 2.16829 0.32261 0.5
17 1.58884 1.46621 2.23548 0.5
18 0.175632 0.20157 1.50975 0.5
19 3.90004 1.75681 3.49146 0.5
20 2.48923 0.920141 2.38854 0.5
21 3.60621 2.13804 2.57986 0.5
22 3.53885 0.554534 0.743978 0.5
23 0.979088 0.0718304 2.00048 0.5
24 2.25914 1.22604 1.55637 0.5
25 3.55419 0.416449 2.07383 0.5
26 2.92473 2.66865 1.43008 0.5
27 2.60848 3.47257 1.55116 0.5
28 2.14619 2.00064 0.484154 0.5
29 0.629178 0.0750201 0.673505 0.5
30 2.36816 3.23553 3.83126 0.5
31 0.0299498 1.24251 0.31666 0.5
32 0.522762 0.981292 2.12952 0.5
33 2.46272 1.88268 2.93581 0.5
34 1.72012 3.70323 1.55766 0.5
35 3.32255 0.102614 3.83955 0.5
36 2.90555 1.74657 0.976828 0.5
37 2.26864 3.02159 2.36977 0.5
38 2.76895 0.495669 1.34187 0.5
39 2.57252 1.88402 2.12354 0.5
40 0.171865 3.04444 2.73278 0.5
41 0.956513 1.53554 2.89775 0.5
42 2.78736 0.92075 0.474987 0.5
43 1.63664 2.09873 3.61255 0.5
44 2.84715 3.79275 0.638644 0.5
45 0.284397 0.16672 2.63658 0.5
46 1.43583 0.583677 1.08194 0.5
47 2.14835 2.94027 0.862397 0.5
48 0.0673656 1.10242 2.80848 0.5
49 1.13574 2.93055 2.07984 0.5
50 3.40494 3.14189 3.86692 0.5
