ITEM: TIMESTEP
400000
ITEM: NUMBER OF ATOMS
50
ITEM: BOX BOUNDS xy xz yz pp pp pp
0.0000000000000000e+00 3.9685030000000001e+00 0.0000000000000000e+00
0.0000000000000000e+00 3.9685030000000001e+00 0.0000000000000000e+00
0.0000000000000000e+00 3.9685030000000001e+00 0.0000000000000000e+00
ITEM: ATOMS id x y z radius
1 2.68424 2.93935 1.38301 0.5
2 2.40572 1.79222 1.23342 0.5
3 0.03377 0.858917 2.20594 0.5
4 1.04629 3.81956 2.035 0.5
5 2.88363 3.39306 0.583095 0.5
6 0.803125 2.84289 3.46541 0.5
7 3.4373 1.90915 1.12286 0.5
8 3.44586 3.00347 2.07185 0.5
9 2.88968 1.63895 2.10376 0.5
10 2.98937 3.80744 1.32367 0.5
11 1.68109 1.89105 3.31816 0.5
12 2.48596 2.42823 0.624388 0.5
13 2.60843 1.20367 3.33 0.5
14 3.19344 2.25874 2.94322 0.5
15 1.69147 2.49565 1.09896 0.5
16 1.97088 3.04944 0.247242 0.5
17 3.85681 0.606814 3.13306 0.5
18 0.797679 2.16008 0.395005 0.5
19 3.38845 1.39537 2.95667 0.5
20 2.66674 3.59104 2.18005 0.5
21 1.67315 0.922497 3.43191 0.5
22 2.70545 2.15496 3.72491 0.5
23 1.18729 3.35358 1.33962 0.5
24 0.174176 2.13786 2.94389 0.5
25 3.38943 0.951985 1.16337 0.5
26 1.02407 3.01539 0.507219 0.5
27 1.13502 1.86541 1.9037 0.5
28 0.341879 0.0163785 2.65128 0.5
29 0.806094 0.250112 3.51257 0.5
30 0.17075 2.82693 0.245627 0.5
31 3.78012 3.85302 3.54269 0.5
32 3.15839 2.88877 3.72316 0.5
33 0.765798 1.53421 3.76209 0.5
34 1.84988 3.0308 2.06848 0.5
35 2.87049 0.60123 2.56887 0.5
36 3.74716 3.09016 2.91012 0.5
37 1.12605 0.844714 2.09245 0.5
38 1.05713 0.833287 0.357912 0.5
39 1.72976 1.76812 0.250524 0.5
40 2.8572 0.336259 3.44824 0.5
41 1.36386 1.27207 1.18296 0.5
42 3.41658 3.88175 2.63132 0.5
43 2.04961 3.49855 1.08451 0.5
44 2.70263 3.24463 2.93936 0.5
45 3.88616 1.83627 3.96595 0.5
46 3.8052 1.98188 2.10575 0.5
47 0.389463 1.35232 1.3782 0.5
48 2.89525 1.50642 0.491628 0.5
49 1.3298 3.79552 0.316137 0.5
50 1.42812 0.313521 1.26378 0.5
