ITEM: TIMESTEP
740000
ITEM: NUMBER OF ATOMS
50
ITEM: BOX BOUNDS xy xz yz pp pp pp
0.0000000000000000e+00 3.9685030000000001e+00 0.0000000000000000e+00
0.0000000000000000e+00 3.9685030000000001e+00 0.0000000000000000e+00
0.0000000000000000e+00 3.9685030000000001e+00 0.0000000000000000e+00
ITEM: ATOMS id x y z radius
1 2.59786 3.25107 3.26709 0.5
2 1.82063 0.605138 0.19122 0.5
3 0.299929 2.03517 0.309968 0.5
4 1.2147 2.80978 3.41949 0.5
5 0.150975 0.0886301 2.16749 0.5
6 1.19852 1.89451 1.62637 0.5
7 0.419996 1.06324 1.8377 0.5
8 0.715371 2.74523 1.06217 0.5
9 2.46975 3.43474 2.03478 0.5
10 2.56482 1.41203 2.82886 0.5
11 2.31815 0.568299 2.4628 0.5
12 3.29167 1.73553 3.54965 0.5
13 2.57866 0.840645 3.63709 0.5
14 3.78916 2.445 2.26544 0.5
15 1.15403 0.186756 2.26258 0.5
16 0.584447 1.35665 0.895046 0.5
17 0.0419187 3.12753 2.9665 0.5
18 0.738114 2.92606 0.297216 0.5
19 3.08467 3.21416 0.25255 0.5
20 3.10822 3.2457 1.31421 0.5
21 3.55706 1.68074 0.878063 0.5
22 1.18429 1.64404 3.76959 0.5
23 3.92478 3.94949 3.56094 0.5
24 3.37232 0.183773 0.416062 0.5
25 0.891726 3.8532 0.714582 0.5
26 1.54049 1.14297 2.14309 0.5
27 1.69203 0.937971 3.13275 0.5
28 3.81843 0.917524 0.0327919 0.5
29 2.83278 1.33413 1.62093 0.5
30 0.138707 3.51979 0.740326 0.5
31 2.53556 3.75845 0.788697 0.5
32 3.29668 0.863613 2.29938 0.5
33 2.96533 2.26848 1.58004 0.5
34 3.65965 2.55354 0.852522 0.5
35 1.72131 3.4498 2.71417 0.5
36 1.93582 2.59325 2.11114 0.5
37 0.855845 2.58312 2.44047 0.5
38 1.24723 0.545009 1.32241 0.5
39 0.0578765 0.818339 3.03848 0.5
40 3.24904 0.0336625 2.82384 0.5
41 3.18383 0.332954 1.53853 0.5
42 2.13546 0.606481 1.50172 0.5
43 2.10231 0.183741 3.27746 0.5
44 2.88516 2.21222 2.52219 0.5
45 1.54098 3.49195 3.81772 0.5
46 1.37213 2.04821 2.92509 0.5
47 2.9332 2.31778 0.248041 0.5
48 2.75279 0.866935 0.719635 0.5
49 0.853088 1.36618 2.90343 0.5
50 3.42989 3.09499 2.21222 0.5
