ITEM: TIMESTEP
410000
ITEM: NUMBER OF ATOMS
50
ITEM: BOX BOUNDS xy xz yz pp pp pp
0.0000000000000000e+00 3.9685030000000001e+00 0.0000000000000000e+00
0.0000000000000000e+00 3.9685030000000001e+00 0.0000000000000000e+00
0.0000000000000000e+00 3.9685030000000001e+00 0.0000000000000000e+00
ITEM: ATOMS id x y z radius
1 2.78991 3.18671 0.807143 0.5
2 2.31666 0.833698 0.832694 0.5
3 0.747744 1.26551 1.96817 0.5
4 0.656009 3.54574 1.5905 0.5
5 3.83116 0.415583 1.37413 0.5
6 0.576768 2.63902 3.02069 0.5
7 3.96901 2.83981 1.8607 0.5
8 2.98956 3.17215 1.82789 0.5
9 3.10691 0.791734 2.05998 0.5
10 1.13325 3.64504 2.91469 0.5
11 2.88933 2.44246 3.93596 0.5
12 2.16492 1.92037 0.818614 0.5
13 2.55747 1.60207 3.99235 0.5
14 1.87702 2.92377 2.95074 0.5
15 2.16574 2.65143 1.41305 0.5
16 1.61376 0.440882 3.7335 0.5
17 0.0659714 0.767787 3.32541 0.5
18 1.40156 1.20989 1.34818 0.5
19 2.67882 2.1656 3.11494 0.5
20 1.89933 3.52917 2.12685 0.5
21 1.97765 0.310089 2.86461 0.5
22 1.81354 2.89704 0.486136 0.5
23 1.36093 2.18237 1.13392 0.5
24 0.0638273 0.56124 2.35308 0.5
25 0.268916 2.05502 1.35537 0.5
26 1.49828 3.26258 1.22407 0.5
27 0.372813 1.04906 0.937748 0.5
28 3.64378 3.93988 3.16981 0.5
29 0.484222 0.0501386 3.84356 0.5
30 0.473114 2.0231 2.49688 0.5
31 2.9913 2.97988 3.14233 0.5
32 3.2112 0.781998 0.668738 0.5
33 1.84884 1.19793 3.30932 0.5
34 1.09185 2.94708 2.09564 0.5
35 2.44748 0.668664 3.86744 0.5
36 3.57251 3.08067 2.61308 0.5
37 0.312374 3.37378 2.66224 0.5
38 1.70697 1.28648 0.249785 0.5
39 1.71003 2.25881 3.79497 0.5
40 2.73574 3.67737 2.6407 0.5
41 2.80135 1.70859 1.46555 0.5
42 3.70006 3.80064 2.07124 0.5
43 1.25956 0.399778 2.13192 0.5
44 2.61654 3.56559 3.76533 0.5
45 3.41924 1.41523 2.72757 0.5
46 3.1132 2.30697 2.31515 0.5
47 1.1434 0.456845 0.816029 0.5
48 0.834901 0.974972 3.78216 0.5
49 0.999062 0.779687 2.87589 0.5
50 2.93531 0.126742 1.29208 0.5
