ITEM: TIMESTEP
190000
ITEM: NUMBER OF ATOMS
50
ITEM: BOX BOUNDS xy xz yz pp pp pp
0.0000000000000000e+00 3.9685030000000001e+00 0.0000000000000000e+00
0.0000000000000000e+00 3.9685030000000001e+00 0.0000000000000000e+00
0.0000000000000000e+00 3.9685030000000001e+00 0.0000000000000000e+00
ITEM: ATOMS id x y z radius
1 1.01335 3.24218 2.45501 0.5
2 1.59859 0.0796369 2.84592 0.5
3 1.05336 3.8248 3.69343 0.5
4 0.615311 3.31338 0.208678 0.5
5 0.995002 1.69502 1.69889 0.5
6 3.13023 2.83298 0.373725 0.5
7 3.55963 3.77067 0.255915 0.5
8 1.59396 0.869685 1.57333 0.5
9 0.755083 2.31953 1.12198 0.5
10 2.56729 1.21932 1.67516 0.5
11 2.55781 3.85321 2.94401 0.5
12 3.30523 0.741222 1.15444 0.5
13 2.19522 0.169095 1.46268 0.5
14 1.25303 3.26335 0.89475 0.5
15 0.726144 2.40391 3.3079 0.5
16 0.195793 3.36018 1.02906 0.5
17 2.40252 2.78635 3.27123 0.5
18 0.118883 0.230327 3.47322 0.5
19 2.93062 2.97135 2.49459 0.5
20 3.08002 1.30032 0.24762 0.5
21 1.50844 1.19964 2.89914 0.5
22 3.49064 3.73217 2.58892 0.5
23 2.24975 2.37008 0.0991422 0.5
24 3.86511 1.43071 0.495018 0.5
25 3.25331 3.24759 3.419 0.5
26 0.0553274 1.60832 1.42907 0.5
27 2.31717 0.663343 2.46204 0.5
28 1.2525 2.55683 1.80834 0.5
29 1.73243 1.90453 0.989975 0.5
30 0.352321 3.37927 3.11919 0.5
31 3.52815 1.37142 3.00457 0.5
32 3.57496 2.17597 2.37462 0.5
33 3.09612 2.0994 3.44514 0.5
34 0.343881 0.424711 0.719571 0.5
35 2.29633 2.40099 1.8845 0.5
36 2.36547 0.840318 0.833501 0.5
37 1.41939 2.88851 3.52799 0.5
38 1.56541 0.104276 0.694018 0.5
39 2.9343 0.0507475 1.80973 0.5
40 3.8441 2.54374 0.700715 0.5
41 0.798481 1.52632 0.818869 0.5
42 2.72325 1.80666 0.899726 0.5
43 0.842411 0.765397 3.29491 0.5
44 3.05282 0.53588 3.13358 0.5
45 0.726321 0.264186 2.66177 0.5
46 0.353016 1.13363 2.70304 0.5
47 2.63988 3.88378 0.797904 0.5
48 2.55416 1.93151 2.74728 0.5
49 1.50808 2.10073 3.15881 0.5
50 1.94826 2.9195 2.59289 0.5
