ITEM: TIMESTEP
430000
ITEM: NUMBER OF ATOMS
50
ITEM: BOX BOUNDS xy xz yz pp pp pp
0.0000000000000000e+00 3.9685030000000001e+00 0.0000000000000000e+00
0.0000000000000000e+00 3.9685030000000001e+00 0.0000000000000000e+00
0.0000000000000000e+00 3.9685030000000001e+00 0.0000000000000000e+00
ITEM: ATOMS id x y z radius
1 3.90966 3.64981 0.50525 0.5
2 0.410501 3.83076 2.25704 0.5
3 1.87762 1.58572 1.97536 0.5
4 1.35539 3.34021 2.43195 0.5
5 3.58612 1.47741 2.13229 0.5
6 0.0499929 2.13616 3.27606 0.5
7 1.34454 0.253113 1.84322 0.5
8 2.63628 2.61359 0.664747 0.5
9 2.79428 2.03987 2.32493 0.5
10 0.811406 0.705461 2.51139 0.5
11 1.74982 2.5696 1.00811 0.5
12 1.83449 0.376897 1.11234 0.5
13 1.99331 1.91339 0.301842 0.5
14 2.30433 2.0269 3.30285 0.5
15 2.95197 0.270157 0.734652 0.5
16 2.19566 0.324202 0.11694 0.5
17 2.98008 0.470167 3.44835 0.5
18 0.800731 0.352704 3.9747 0.5
19 1.44756 1.70996 1.20106 0.5
20 3.15822 2.35097 3.88743 0.5
21 3.44092 3.18235 2.40013 0.5
22 1.41279 1.30088 0.0826351 0.5
23 0.891581 2.14569 0.33682 0.5
24 0.590419 1.2376 0.590125 0.5
25 1.49978 3.4212 1.36528 0.5
26 1.07838 0.698407 0.91291 0.5
27 0.278759 1.12324 1.55329 0.5
28 1.08658 2.36455 2.04468 0.5
29 0.591775 3.92908 1.29044 0.5
30 0.18149 3.10927 1.57172 0.5
31 2.44138 1.83754 1.12329 0.5
32 3.87392 3.13392 3.54889 0.5
33 2.81884 0.974985 1.68032 0.5
34 1.36081 1.77976 2.98536 0.5
35 2.2785 1.1343 3.60966 0.5
36 2.85692 3.61353 0.123557 0.5
37 0.78655 3.17598 0.677671 0.5
38 2.21723 2.89688 3.73888 0.5
39 1.41089 3.48891 3.75166 0.5
40 3.75813 0.695657 2.74446 0.5
41 3.0967 1.53654 3.21228 0.5
42 0.403224 1.66868 2.53484 0.5
43 0.415775 2.89046 2.7222 0.5
44 2.1105 3.45075 0.631744 0.5
45 2.98421 2.6353 2.99841 0.5
46 3.66929 2.35465 2.53484 0.5
47 0.200351 1.20224 3.57824 0.5
48 1.61527 0.623264 3.19948 0.5
49 0.873806 0.0238896 3.17493 0.5
50 3.45364 2.48011 1.53374 0.5
