ITEM: TIMESTEP
310
ITEM: NUMBER OF ATOMS
50
ITEM: BOX BOUNDS xy xz yz pp pp pp
0.0000000000000000e+00 3.9685030000000001e+00 0.0000000000000000e+00
0.0000000000000000e+00 3.9685030000000001e+00 0.0000000000000000e+00
0.0000000000000000e+00 3.9685030000000001e+00 0.0000000000000000e+00
ITEM: ATOMS id x y z radius
1 0.955632 0.561809 3.04577 0.5
2 0.671394 0.744029 0.10556 0.5
3 3.61239 3.28269 1.51118 0.5
4 0.31268 3.54619 0.980469 0.5
5 0.160654 2.30924 3.17617 0.5
6 1.95778 1.50411 1.97565 0.5
7 1.02587 1.9367 1.68958 0.5
8 3.63921 1.67314 2.33506 0.5
9 3.59098 0.179329 3.76818 0.5
10 1.07853 2.7505 2.32486 0.5
11 3.80244 0.694338 2.94514 0.5
12 1.33208 1.0586 1.28249 0.5
13 3.70647 0.474481 0.817272 0.5
14 3.10303 0.99892 3.33069 0.5
15 0.521007 3.53897 1.98229 0.5
16 0.0557173 2.7692 2.25276 0.5
17 0.447079 2.7479 1.53308 0.5
18 0.441006 0.91983 2.23789 0.5
19 0.943818 2.65366 0.542197 0.5
20 2.71319 3.85924 1.8498 0.5
21 0.488481 3.70304 3.34197 0.5
22 0.804359 1.41563 3.44052 0.5
23 1.5391 2.05312 2.78101 0.5
24 2.88078 3.3183 2.40211 0.5
25 3.43329 1.38032 0.363429 0.5
26 3.13022 2.32089 2.93066 0.5
27 1.0952 2.21726 3.64476 0.5
28 1.9925 0.862995 2.85119 0.5
29 3.40994 3.59784 0.477465 0.5
30 3.65536 1.34804 1.27885 0.5
31 1.28852 1.2732 2.37625 0.5
32 1.83591 1.53473 3.60022 0.5
33 1.28528 0.449033 1.91005 0.5
34 1.16049 3.72225 0.343987 0.5
35 1.81324 0.470748 0.861236 0.5
36 2.50911 3.03679 1.5133 0.5
37 0.656358 1.9164 2.56096 0.5
38 2.26027 2.75355 0.576584 0.5
39 3.0762 2.47804 2.01684 0.5
40 2.66922 1.60525 2.62671 0.5
41 3.46803 0.69258 1.92424 0.5
42 1.51385 2.88211 1.31122 0.5
43 2.09618 2.54242 2.08045 0.5
44 1.49348 0.698568 3.76476 0.5
45 2.83181 0.703947 1.07754 0.5
46 1.18768 1.62369 0.506122 0.5
47 2.95267 0.274106 2.6377 0.5
48 2.42667 0.785867 0.17376 0.5
49 1.9157 2.04004 1.13848 0.5
50 2.89803 2.23455 1.09602 0.5
