ITEM: TIMESTEP
610000
ITEM: NUMBER OF ATOMS
50
ITEM: BOX BOUNDS xy xz yz pp pp pp
0.0000000000000000e+00 3.9685030000000001e+00 0.0000000000000000e+00
0.0000000000000000e+00 3.9685030000000001e+00 0.0000000000000000e+00
0.0000000000000000e+00 3.9685030000000001e+00 0.0000000000000000e+00
ITEM: ATOMS id x y z radius
1 0.478708 1.87889 3.97036 0.5
2 1.35579 1.48891 0.562477 0.5
3 1.13357 3.62942 2.48891 0.5
4 3.79038 2.43492 0.155107 0.5
5 0.135732 2.04556 3.0094 0.5
6 2.86954 0.737366 3.08166 0.5
7 3.11113 3.76659 3.0142 0.5
8 0.869611 3.01352 1.58517 0.5
9 0.797509 0.407123 2.97742 0.5
10 3.85086 3.52167 3.93034 0.5
11 1.67178 1.99628 3.70291 0.5
12 1.04035 1.31943 1.69433 0.5
13 2.49964 0.278973 1.73098 0.5
14 3.80711 0.417528 3.28647 0.5
15 0.98796 2.31046 3.18753 0.5
16 2.82361 0.593812 1.13271 0.5
17 3.69158 0.652372 1.55201 0.5
18 2.17766 3.59001 2.53224 0.5
19 3.23408 1.95128 0.597219 0.5
20 1.41149 0.183344 1.59161 0.5
21 3.83832 0.773579 2.50295 0.5
22 2.43929 1.64007 0.528463 0.5
23 0.8103 0.5792 1.10189 0.5
24 2.1763 1.25967 1.73132 0.5
25 0.749025 3.38718 3.34868 0.5
26 0.92365 2.68563 0.0973989 0.5
27 1.63111 3.08029 3.3696 0.5
28 2.13299 0.835899 0.0622722 0.5
29 0.0499208 2.95043 3.26033 0.5
30 2.6169 1.66364 3.61523 0.5
31 0.195349 1.62422 1.95643 0.5
32 0.814565 1.38899 2.68955 0.5
33 3.64416 1.62898 3.67268 0.5
34 1.72715 0.233796 3.33532 0.5
35 3.56314 2.3966 1.48487 0.5
36 0.954431 2.14284 1.30333 0.5
37 1.76312 2.58254 1.54959 0.5
38 0.416663 3.82726 1.40796 0.5
39 1.65227 1.88954 2.62682 0.5
40 2.62209 2.4399 1.14565 0.5
41 2.48825 2.47739 0.216557 0.5
42 3.46794 3.92871 0.737834 0.5
43 1.12326 1.09431 3.53512 0.5
44 0.0790331 3.64121 2.44274 0.5
45 3.15653 0.912095 0.120144 0.5
46 1.66284 0.698322 2.50752 0.5
47 1.60276 2.43774 0.628543 0.5
48 3.18007 1.44758 1.51468 0.5
49 0.593899 0.527115 2.04957 0.5
50 0.0569943 1.74598 0.936929 0.5
