ITEM: TIMESTEP
930000
ITEM: NUMBER OF ATOMS
50
ITEM: BOX BOUNDS xy xz yz pp pp pp
0.0000000000000000e+00 3.9685030000000001e+00 0.0000000000000000e+00
0.0000000000000000e+00 3.9685030000000001e+00 0.0000000000000000e+00
0.0000000000000000e+00 3.9685030000000001e+00 0.0000000000000000e+00
ITEM: ATOMS id x y z radius
1 2.80482 0.103839 1.35057 0.5
2 3.86149 1.26532 0.869464 0.5
3 2.93305 3.1276 1.40807 0.5
4 -0.0520562 1.62468 1.90369 0.5
5 1.51777 2.34578 1.47378 0.5
6 0.575667 1.07735 3.2059 0.5
7 2.53828 0.503692 2.66873 0.5
8 3.56525 2.43857 1.82299 0.5
9 3.28038 3.81576 2.22484 0.5
10 2.27289 1.94997 0.157109 0.5
11 3.09592 1.42821 1.52197 0.5
12 3.21678 0.588652 3.46445 0.5
13 3.0715 3.75536 3.21103 0.5
14 0.614674 2.34451 2.2149 0.5
15 3.72227 1.50537 3.5639 0.5
16 1.64913 1.04356 0.186619 0.5
17 0.573306 2.37913 1.17104 0.5
18 1.69972 3.22835 0.864828 0.5
19 3.6608 0.691027 1.66145 0.5
20 0.997531 3.3454 0.0585342 0.5
21 0.456538 1.65397 0.22663 0.5
22 1.52313 2.85559 2.88167 0.5
23 2.74018 0.748145 2.03306 0.5
24 2.62306 1.33981 3.40988 0.5
25 1.64413 2.0132 2.37213 0.5
26 0.379161 2.03802 3.25432 0.5
27 1.39359 3.63538 2.59403 0.5
28 1.98414 0.555075 1.17811 0.5
29 2.14053 2.99138 1.90592 0.5
30 1.41212 1.6232 3.41175 0.5
31 3.56592 1.20995 2.58383 0.5
32 0.129427 3.25619 1.85741 0.5
33 0.803275 0.868675 0.55795 0.5
34 2.25106 3.26508 3.24916 0.5
35 3.92085 0.195777 0.962012 0.5
36 2.63365 3.38879 0.470906 0.5
37 0.902571 4.00378 3.25709 0.5
38 3.12594 1.62768 0.460638 0.5
39 1.28141 2.41387 0.0718073 0.5
40 0.217534 2.58423 0.172435 0.5
41 3.95378 0.225113 3.01815 0.5
42 0.551475 2.99719 3.22191 0.5
43 3.63388 2.66015 3.40316 0.5
44 1.10125 3.14968 1.81619 0.5
45 3.63249 3.57104 0.142917 0.5
46 2.4033 2.22442 1.87173 0.5
47 1.19848 1.76494 0.689606 0.5
48 2.60928 1.51987 2.53247 0.5
49 3.75351 3.05519 1.00982 0.5
50 2.21105 0.0776623 3.70545 0.5
