ITEM: TIMESTEP
570000
ITEM: NUMBER OF ATOMS
50
ITEM: BOX BOUNDS xy xz yz pp pp pp
0.0000000000000000e+00 3.9685030000000001e+00 0.0000000000000000e+00
0.0000000000000000e+00 3.9685030000000001e+00 0.0000000000000000e+00
0.0000000000000000e+00 3.9685030000000001e+00 0.0000000000000000e+00
ITEM: ATOMS id x y z radius
1 3.33677 3.23162 0.321425 0.5
2 3.62034 0.567427 0.159155 0.5
3 3.53248 2.35951 3.71469 0.5
4 0.0678731 1.39182 0.810056 0.5
5 3.12114 2.17468 2.74423 0.5
6 0.421421 1.92176 1.56152 0.5
7 0.990448 2.73555 3.87035 0.5
8 2.50173 2.89269 0.883591 0.5
9 0.900241 1.26175 3.27922 0.5
10 1.91854 3.36224 0.416533 0.5
11 1.20401 0.00525494 0.864115 0.5
12 0.903434 1.12558 2.16229 0.5
13 3.44309 2.28208 0.746175 0.5
14 2.2246 0.860862 0.859087 0.5
15 2.31709 0.548721 3.02086 0.5
16 1.7345 0.618294 1.74179 0.5
17 1.13299 3.8587 0.0477151 0.5
18 2.98937 3.59856 1.313 0.5
19 0.958089 1.07171 0.995166 0.5
20 2.58317 0.216482 2.02928 0.5
21 0.236041 1.5415 2.68211 0.5
22 0.455341 2.25909 3.31836 0.5
23 2.60381 1.65747 1.0894 0.5
24 0.287024 0.149582 2.26827 0.5
25 0.723969 0.764249 0.117305 0.5
26 1.56797 2.01811 3.37386 0.5
27 3.308 3.70786 3.33761 0.5
28 2.57013 1.19657 1.98517 0.5
29 1.01979 2.52738 1.03378 0.5
30 1.73351 1.44862 1.65921 0.5
31 2.20686 2.43555 2.8017 0.5
32 3.18524 0.587894 1.20114 0.5
33 2.76677 2.03686 0.266873 0.5
34 1.68924 1.18763 2.5887 0.5
35 2.9495 2.85454 3.50387 0.5
36 1.75005 3.73352 1.50692 0.5
37 2.39349 3.14581 1.82457 0.5
38 1.71145 3.85349 3.42977 0.5
39 0.21151 3.36946 2.77182 0.5
40 1.83697 2.2626 0.284539 0.5
41 0.450184 2.07356 0.456409 0.5
42 0.16091 0.43498 0.982435 0.5
43 2.42092 3.61285 2.77644 0.5
44 1.5746 0.0194675 2.43928 0.5
45 2.44034 2.19754 1.94645 0.5
46 0.204765 1.48737 3.70296 0.5
47 3.89152 2.29374 2.31974 0.5
48 3.32242 3.47903 2.18351 0.5
49 0.871603 1.93166 2.42167 0.5
50 3.4251 1.75337 1.51187 0.5
