ITEM: TIMESTEP
370000
ITEM: NUMBER OF ATOMS
50
ITEM: BOX BOUNDS xy xz yz pp pp pp
0.0000000000000000e+00 3.9685030000000001e+00 0.0000000000000000e+00
0.0000000000000000e+00 3.9685030000000001e+00 0.0000000000000000e+00
0.0000000000000000e+00 3.9685030000000001e+00 0.0000000000000000e+00
ITEM: ATOMS id x y z radius
1 2.15171 2.05654 0.783084 0.5
2 2.42514 2.27047 1.64215 0.5
3 2.89046 0.353355 0.887917 0.5
4 0.786143 3.93667 2.34261 0.5
5 2.5785 3.94356 2.23777 0.5
6 0.178956 2.13681 1.26022 0.5
7 3.32636 0.485212 2.86751 0.5
8 2.2476 3.03717 2.43112 0.5
9 1.67347 2.97801 1.77878 0.5
10 3.4403 2.33216 3.34879 0.5
11 1.94117 1.41542 1.4747 0.5
12 3.29049 2.17098 0.85951 0.5
13 3.8181 0.219915 0.758549 0.5
14 3.65483 1.34295 0.882859 0.5
15 3.59545 1.63558 2.56965 0.5
16 1.50122 2.39727 2.68177 0.5
17 0.668263 1.54677 2.61666 0.5
18 2.04114 3.11773 3.24733 0.5
19 2.96563 2.45896 2.35566 0.5
20 2.08141 0.945457 2.76291 0.5
21 1.16186 0.65345 2.81792 0.5
22 1.54357 1.68169 3.1877 0.5
23 0.406498 0.0877561 3.22377 0.5
24 3.65125 3.91737 2.07544 0.5
25 2.65623 3.06539 1.06553 0.5
26 1.16283 3.28759 3.20256 0.5
27 1.15907 0.818326 1.33591 0.5
28 0.34858 2.84653 3.66032 0.5
29 1.59488 0.287132 0.468058 0.5
30 0.245935 0.414002 1.64891 0.5
31 3.44201 2.93778 1.53957 0.5
32 0.0464077 1.977 0.23576 0.5
33 0.563226 2.74677 0.624884 0.5
34 1.73299 1.18017 0.564564 0.5
35 3.89071 2.72849 2.64178 0.5
36 1.18771 2.61045 3.66242 0.5
37 0.294626 1.23822 1.68186 0.5
38 2.34892 0.655009 1.63605 0.5
39 0.655633 0.548341 0.523236 0.5
40 3.20456 3.63294 0.372839 0.5
41 0.208804 0.78036 2.52054 0.5
42 3.62725 1.24097 3.57307 0.5
43 1.66213 0.239071 3.49522 0.5
44 1.85461 3.81235 2.63513 0.5
45 2.33186 2.28225 3.14133 0.5
46 2.71058 1.23392 0.872259 0.5
47 3.35698 1.78803 1.7722 0.5
48 2.94259 1.60477 0.118212 0.5
49 1.21305 2.21782 1.27784 0.5
50 3.3457 0.843226 1.93006 0.5
