ITEM: TIMESTEP
550000
ITEM: NUMBER OF ATOMS
50
ITEM: BOX BOUNDS xy xz yz pp pp pp
0.0000000000000000e+00 3.9685030000000001e+00 0.0000000000000000e+00
0.0000000000000000e+00 3.9685030000000001e+00 0.0000000000000000e+00
0.0000000000000000e+00 3.9685030000000001e+00 0.0000000000000000e+00
ITEM: ATOMS id x y z radius
1 2.59399 3.08635 2.88266 0.5
2 0.877034 1.26967 0.757511 0.5
3 0.291361 1.50258 3.17464 0.5
4 3.8107 3.16121 0.96306 0.5
5 0.74877 1.95701 1.4221 0.5
6 1.06581 1.60002 2.82253 0.5
7 0.792125 2.68209 0.73811 0.5
8 3.24218 2.56468 3.55465 0.5
9 3.84538 0.800292 2.54353 0.5
10 1.16607 3.36282 3.97363 0.5
11 1.8637 0.902567 3.59335 0.5
12 2.28685 0.0759837 0.28482 0.5
13 3.08201 2.36123 2.26135 0.5
14 3.76359 0.61668 3.42006 0.5
15 2.15488 3.87474 3.22744 0.5
16 1.17646 0.396799 1.34632 0.5
17 2.75335 0.763467 2.13188 0.5
18 3.4214 3.01657 2.81913 0.5
19 0.991371 2.51084 3.51885 0.5
20 0.0364574 3.87898 2.76158 0.5
21 0.179577 1.24851 0.111569 0.5
22 0.245386 3.21191 3.49747 0.5
23 1.73967 3.26303 0.77495 0.5
24 2.51344 0.176678 1.3094 0.5
25 1.17841 1.5277 3.88616 0.5
26 2.57188 1.67227 3.91462 0.5
27 3.23275 0.0822734 0.602066 0.5
28 3.12206 0.0034048 2.84933 0.5
29 -0.0422866 1.95894 0.919118 0.5
30 0.612219 1.1175 2.11242 0.5
31 2.05521 1.45204 2.58039 0.5
32 0.643592 0.645993 2.97813 0.5
33 2.77868 0.67098 3.75526 0.5
34 1.30444 0.624766 2.41614 0.5
35 3.14658 3.58061 3.66413 0.5
36 3.5357 3.21161 1.92844 0.5
37 0.509964 0.129638 2.0397 0.5
38 0.853221 2.62172 2.5136 0.5
39 0.0916816 2.39251 0.145314 0.5
40 0.706981 3.68117 0.872956 0.5
41 1.88518 2.06675 3.30277 0.5
42 3.57542 1.57117 2.0012 0.5
43 2.80171 3.23849 0.637932 0.5
44 2.20151 2.96996 3.71517 0.5
45 2.05261 2.48475 2.35923 0.5
46 1.81576 0.859036 0.746825 0.5
47 2.36026 3.28993 1.5584 0.5
48 0.650672 3.10661 1.65546 0.5
49 3.93699 2.43662 1.93731 0.5
50 1.64763 2.42554 0.217346 0.5
