ITEM: TIMESTEP
750000
ITEM: NUMBER OF ATOMS
50
ITEM: BOX BOUNDS xy xz yz pp pp pp
0.0000000000000000e+00 3.9685030000000001e+00 0.0000000000000000e+00
0.0000000000000000e+00 3.9685030000000001e+00 0.0000000000000000e+00
0.0000000000000000e+00 3.9685030000000001e+00 0.0000000000000000e+00
ITEM: ATOMS id x y z radius
1 1.11472 1.62589 3.12828 0.5
2 2.4235 0.360503 0.935151 0.5
3 0.118495 2.46718 3.68062 0.5
4 3.97576 1.60816 3.70893 0.5
5 3.83109 3.77341 3.24259 0.5
6 2.1057 1.64385 0.221321 0.5
7 0.231461 1.55864 2.71244 0.5
8 1.5854 2.67629 0.402242 0.5
9 2.69409 2.98187 1.8124 0.5
10 2.98256 0.679021 1.79874 0.5
11 2.15634 3.99786 1.92036 0.5
12 2.81 0.748024 3.1044 0.5
13 1.093 3.05998 3.76101 0.5
14 1.2374 2.37755 1.42649 0.5
15 3.80149 0.663574 2.45801 0.5
16 0.169313 2.20912 1.84242 0.5
17 2.83427 3.93629 3.47861 0.5
18 1.00508 0.131266 0.0494596 0.5
19 3.31938 3.22633 3.84467 0.5
20 3.50114 3.00924 1.969 0.5
21 3.26907 2.21179 1.48984 0.5
22 0.610759 2.53414 0.597307 0.5
23 0.25539 3.44391 0.278825 0.5
24 0.529153 3.15963 1.43477 0.5
25 1.15873 1.70772 0.611655 0.5
26 2.01437 1.04916 2.25688 0.5
27 2.15315 1.5461 3.13623 0.5
28 1.48231 0.883647 3.77769 0.5
29 1.70334 0.859864 0.813505 0.5
30 0.200995 3.78934 2.04992 0.5
31 3.10274 3.75714 0.677922 0.5
32 1.61045 1.54494 1.55601 0.5
33 2.37037 2.17558 1.75794 0.5
34 3.81808 2.69062 1.00967 0.5
35 2.25266 3.29214 2.6997 0.5
36 2.54339 1.38935 1.07364 0.5
37 0.934813 1.60359 2.13891 0.5
38 1.43137 3.377 2.29737 0.5
39 3.5301 0.723344 3.65694 0.5
40 3.07252 3.70393 1.50618 0.5
41 -0.0375503 3.91346 1.01217 0.5
42 0.453905 0.980369 0.208481 0.5
43 1.96176 0.429508 2.97023 0.5
44 2.89451 1.5556 3.59752 0.5
45 2.26246 0.729588 3.91701 0.5
46 2.81572 1.61361 2.44753 0.5
47 2.96453 2.23072 0.422586 0.5
48 3.8516 1.82961 0.762488 0.5
49 0.403374 0.776643 3.11136 0.5
50 3.20315 3.80758 2.49557 0.5
