ITEM: TIMESTEP
780000
ITEM: NUMBER OF ATOMS
50
ITEM: BOX BOUNDS xy xz yz pp pp pp
0.0000000000000000e+00 3.9685030000000001e+00 0.0000000000000000e+00
0.0000000000000000e+00 3.9685030000000001e+00 0.0000000000000000e+00
0.0000000000000000e+00 3.9685030000000001e+00 0.0000000000000000e+00
ITEM: ATOMS id x y z radius
1 0.173899 2.04469 0.58857 0.5
2 3.39548 0.897216 1.70965 0.5
3 0.660193 2.0644 1.51063 0.5
4 3.73876 0.574193 3.3608 0.5
5 1.08223 2.73796 2.926 0.5
6 3.04574 0.701644 3.90112 0.5
7 3.8195 3.0125 2.54917 0.5
8 1.22746 2.75795 1.60281 0.5
9 1.78687 1.81462 1.31648 0.5
10 2.07434 2.66061 1.04691 0.5
11 2.07723 2.32418 2.46207 0.5
12 1.88523 0.957649 3.08742 0.5
13 2.82119 0.611381 2.49932 0.5
14 1.40928 1.26566 0.593897 0.5
15 2.77773 2.14709 1.7293 0.5
16 1.02182 1.78649 3.80784 0.5
17 2.62264 1.95852 0.822954 0.5
18 0.249848 1.30225 1.8685 0.5
19 3.36148 1.70045 0.135973 0.5
20 0.675588 0.318864 1.96163 0.5
21 2.63246 2.74048 0.321958 0.5
22 1.35819 3.46003 2.42446 0.5
23 3.69459 3.77305 3.76875 0.5
24 0.229183 2.94326 1.53928 0.5
25 2.92948 1.02877 0.834221 0.5
26 0.0234107 0.704231 2.51822 0.5
27 3.691 3.96218 2.03487 0.5
28 2.73923 3.80785 1.72017 0.5
29 1.07079 2.22461 0.733242 0.5
30 3.26723 3.86675 2.84892 0.5
31 1.26906 2.81167 3.7813 0.5
32 1.22149 0.934549 3.80912 0.5
33 1.07278 1.27656 1.60564 0.5
34 1.8386 0.828255 1.53101 0.5
35 2.71489 2.25377 3.37816 0.5
36 1.35931 1.94318 2.32386 0.5
37 2.077 3.10587 3.09203 0.5
38 0.385168 3.62399 2.91943 0.5
39 2.14213 0.0756401 2.85886 0.5
40 3.20907 2.85889 2.09199 0.5
41 3.27204 2.77925 1.04147 0.5
42 1.51874 -0.000501448 3.75714 0.5
43 1.78075 1.91985 3.30646 0.5
44 1.112 0.494121 2.82114 0.5
45 2.0057 1.99068 0.234073 0.5
46 2.01883 1.02491 0.285736 0.5
47 4.0453 3.40585 0.609749 0.5
48 2.06818 3.221 2.01029 0.5
49 0.270091 1.13505 0.971662 0.5
50 0.915655 0.274545 0.608779 0.5
