ITEM: TIMESTEP
690000
ITEM: NUMBER OF ATOMS
50
ITEM: BOX BOUNDS xy xz yz pp pp pp
0.0000000000000000e+00 3.9685030000000001e+00 0.0000000000000000e+00
0.0000000000000000e+00 3.9685030000000001e+00 0.0000000000000000e+00
0.0000000000000000e+00 3.9685030000000001e+00 0.0000000000000000e+00
ITEM: ATOMS id x y z radius
1 1.55875 2.2058 3.10332 0.5
2 1.2138 0.383294 0.183981 0.5
3 1.13054 3.02667 1.16763 0.5
4 2.74061 3.62367 0.910207 0.5
5 2.80593 1.06125 2.76761 0.5
6 3.55536 3.97595 1.0206 0.5
7 1.04879 2.36255 1.62539 0.5
8 3.80723 3.17099 3.27998 0.5
9 0.659213 0.682389 3.34467 0.5
10 3.41825 2.18953 3.65118 0.5
11 3.36833 2.89073 1.38296 0.5
12 2.97901 2.65425 0.447736 0.5
13 0.765068 3.91496 1.05828 0.5
14 0.398599 3.79028 3.36688 0.5
15 0.180443 0.379064 0.322245 0.5
16 2.15289 2.72216 0.863505 0.5
17 1.95058 0.468512 2.48075 0.5
18 2.61546 1.6843 0.0887471 0.5
19 1.32418 1.19686 2.76098 0.5
20 2.93794 0.134023 2.5005 0.5
21 0.260317 1.60884 1.65198 0.5
22 1.43918 2.78282 0.171131 0.5
23 0.210291 2.51428 1.81968 0.5
24 0.780929 3.4471 0.193884 0.5
25 2.09313 1.77904 2.24616 0.5
26 0.869898 3.00977 3.16944 0.5
27 1.57485 1.10063 0.37358 0.5
28 1.92551 0.603848 3.41531 0.5
29 2.69431 2.35204 1.89473 0.5
30 1.98702 3.31404 1.62485 0.5
31 2.03559 0.493968 0.94501 0.5
32 2.35532 0.194317 1.73563 0.5
33 3.31151 3.1601 2.33434 0.5
34 -0.0260472 1.023 2.58132 0.5
35 3.8746 3.84661 2.51504 0.5
36 3.82435 1.26788 0.948111 0.5
37 1.65246 3.56187 0.614762 0.5
38 3.47881 2.0896 1.18613 0.5
39 3.31642 1.96466 2.61771 0.5
40 1.89621 2.86832 2.63479 0.5
41 0.507604 2.38302 3.96959 0.5
42 3.44091 0.509991 1.90673 0.5
43 3.29651 1.47493 1.90535 0.5
44 2.63712 2.13281 3.00902 0.5
45 3.37589 3.66571 0.0102595 0.5
46 0.643476 1.25261 0.140555 0.5
47 1.34098 0.0831046 1.67702 0.5
48 3.90543 1.4842 3.44941 0.5
49 1.51866 3.76971 3.58384 0.5
50 0.97517 3.78765 2.6735 0.5
