ITEM: TIMESTEP
860000
ITEM: NUMBER OF ATOMS
50
ITEM: BOX BOUNDS xy xz yz pp pp pp
0.0000000000000000e+00 3.9685030000000001e+00 0.0000000000000000e+00
0.0000000000000000e+00 3.9685030000000001e+00 0.0000000000000000e+00
0.0000000000000000e+00 3.9685030000000001e+00 0.0000000000000000e+00
ITEM: ATOMS id x y z radius
1 3.3719 2.95119 1.95328 0.5
2 2.55293 3.10805 0.954363 0.5
3 1.96126 1.21508 1.99878 0.5
4 0.525928 1.16853 2.8132 0.5
5 3.72947 0.738954 0.326887 0.5
6 1.15357 3.35238 1.29386 0.5
7 1.24155 0.542598 2.05015 0.5
8 3.90431 1.22627 1.25235 0.5
9 1.93203 0.0739191 2.69516 0.5
10 3.38964 1.0476 2.80099 0.5
11 2.5997 2.24209 0.936168 0.5
12 1.14533 0.940444 3.7253 0.5
13 0.856976 0.253655 3.05127 0.5
14 1.21081 2.18199 0.251023 0.5
15 1.03201 1.20802 1.32954 0.5
16 0.767583 3.24369 0.273074 0.5
17 2.55861 0.797834 3.86123 0.5
18 2.88154 1.55239 1.56032 0.5
19 2.89127 2.7779 3.61745 0.5
20 3.02999 3.97194 0.376464 0.5
21 1.26594 3.56643 2.30716 0.5
22 0.436863 1.21875 2.02094 0.5
23 3.25455 3.05117 0.453936 0.5
24 0.918092 3.25204 3.18129 0.5
25 3.4852 0.750681 1.83239 0.5
26 2.05896 1.086 0.916452 0.5
27 1.90121 1.45696 3.79889 0.5
28 0.574996 2.49218 2.61675 0.5
29 2.16893 3.351 0.110874 0.5
30 3.67818 3.47823 3.75107 0.5
31 3.85675 2.45533 3.77306 0.5
32 2.8688 3.64862 3.02308 0.5
33 1.99915 3.17252 3.01925 0.5
34 3.8286 3.82482 2.92452 0.5
35 0.299335 2.40269 0.704104 0.5
36 0.453675 0.41094 1.66939 0.5
37 3.75369 1.45626 3.5025 0.5
38 2.00718 2.09333 1.59544 0.5
39 0.408608 2.05628 1.75143 0.5
40 1.77126 2.83149 0.824157 0.5
41 1.24476 1.74153 2.32603 0.5
42 3.66366 2.88144 2.89675 0.5
43 2.26324 3.35948 2.12327 0.5
44 2.60682 1.43442 2.8382 0.5
45 0.840584 1.93958 3.53685 0.5
46 1.70344 0.935719 2.88102 0.5
47 0.035991 0.398853 3.60939 0.5
48 0.112997 2.89317 1.43886 0.5
49 3.48677 3.52945 1.10753 0.5
50 2.12277 0.311306 1.57607 0.5
