ITEM: TIMESTEP
640000
ITEM: NUMBER OF ATOMS
50
ITEM: BOX BOUNDS xy xz yz pp pp pp
0.0000000000000000e+00 3.9685030000000001e+00 0.0000000000000000e+00
0.0000000000000000e+00 3.9685030000000001e+00 0.0000000000000000e+00
0.0000000000000000e+00 3.9685030000000001e+00 0.0000000000000000e+00
ITEM: ATOMS id x y z radius
1 0.536972 0.955906 0.149179 0.5
2 2.46082 3.47118 1.70222 0.5
3 3.87718 1.73499 0.05599 0.5
4 2.37246 0.940326 0.898356 0.5
5 2.72328 2.01043 2.82333 0.5
6 3.70619 3.31495 0.077927 0.5
7 1.11542 0.222272 3.77306 0.5
8 1.09289 1.71011 2.45987 0.5
9 3.94558 0.399993 2.63617 0.5
10 3.79328 2.09992 3.12091 0.5
11 1.78902 3.61472 0.147537 0.5
12 0.399167 3.00182 2.81896 0.5
13 1.35511 0.995715 0.589331 0.5
14 3.23449 2.89958 1.6181 0.5
15 2.30593 0.603553 3.68382 0.5
16 1.6321 3.38581 2.20707 0.5
17 2.00632 1.55952 2.29499 0.5
18 2.74407 3.72673 3.70123 0.5
19 3.74082 2.40821 0.703273 0.5
20 0.967559 1.86269 0.569466 0.5
21 1.24567 3.49113 3.10919 0.5
22 1.63023 1.64489 1.31126 0.5
23 0.646221 1.93448 1.63868 0.5
24 0.924225 0.0990515 0.751597 0.5
25 2.82111 2.89544 0.943841 0.5
26 1.02493 2.38881 3.78463 0.5
27 1.2768 2.6426 2.76532 0.5
28 2.9739 3.11126 2.55224 0.5
29 2.85056 1.44497 1.99717 0.5
30 2.20816 0.0996595 2.90146 0.5
31 0.897223 3.39099 1.3309 0.5
32 2.9555 0.0327851 2.36929 0.5
33 0.0155652 0.212603 3.67978 0.5
34 3.24876 0.547611 3.27787 0.5
35 1.46405 0.149097 1.53775 0.5
36 2.04292 2.9714 2.8742 0.5
37 3.50313 3.55602 3.1077 0.5
38 0.898614 3.16858 0.320196 0.5
39 0.448485 1.34423 0.862435 0.5
40 2.71933 1.9252 1.04482 0.5
41 0.160245 1.24883 3.12806 0.5
42 3.00091 1.29572 0.210034 0.5
43 1.9549 1.57796 0.381875 0.5
44 2.33681 2.35904 1.78721 0.5
45 3.92292 3.72484 2.03616 0.5
46 2.205 0.552971 2.03691 0.5
47 3.90209 3.86383 0.889016 0.5
48 5.25695e-05 1.08288 1.94875 0.5
49 0.965808 0.990222 1.71623 0.5
50 1.76459 3.44118 1.00066 0.5
