ITEM: TIMESTEP
170000
ITEM: NUMBER OF ATOMS
50
ITEM: BOX BOUNDS xy xz yz pp pp pp
0.0000000000000000e+00 3.9685030000000001e+00 0.0000000000000000e+00
0.0000000000000000e+00 3.9685030000000001e+00 0.0000000000000000e+00
0.0000000000000000e+00 3.9685030000000001e+00 0.0000000000000000e+00
ITEM: ATOMS id x y z radius
1 2.1411 3.87023 1.51636 0.5
2 2.09438 3.58749 0.576073 0.5
3 1.18833 0.288292 1.25018 0.5
4 0.243893 3.32436 2.61191 0.5
5 0.83223 2.10485 2.92492 0.5
6 0.763495 2.45012 0.332111 0.5
7 3.69853 2.86174 0.228862 0.5
8 1.3545 1.2835 1.10117 0.5
9 3.21936 2.0009 1.50898 0.5
10 1.84381 1.09077 0.210773 0.5
11 2.61026 1.1944 1.99135 0.5
12 3.46046 1.15923 1.89916 0.5
13 2.74206 3.19497 2.1086 0.5
14 0.440509 3.6055 0.446287 0.5
15 3.76639 3.49243 3.44546 0.5
16 0.160135 2.73033 3.38106 0.5
17 3.55305 3.65544 2.04926 0.5
18 3.7089 0.330233 1.60711 0.5
19 1.90048 2.20972 2.86682 0.5
20 3.45911 0.827164 2.72398 0.5
21 0.741508 1.98587 1.68917 0.5
22 0.679738 1.02337 1.76116 0.5
23 0.275007 1.5114 1.06754 0.5
24 2.16941 0.314236 2.61426 0.5
25 3.92478 0.369671 3.50262 0.5
26 2.33829 1.75281 1.02505 0.5
27 1.32184 1.508 2.26471 0.5
28 1.45066 1.9856 3.69683 0.5
29 2.58578 2.77707 1.14681 0.5
30 1.3866 3.16066 1.34518 0.5
31 2.54468 3.45086 3.24298 0.5
32 3.91893 2.58751 2.15947 0.5
33 0.768513 3.94276 3.42297 0.5
34 3.70913 0.463567 0.527171 0.5
35 1.90562 2.59171 0.447514 0.5
36 1.62386 0.776642 2.04694 0.5
37 2.8488 2.61709 3.55387 0.5
38 3.01444 3.99215 0.0319184 0.5
39 0.481366 3.64505 1.54183 0.5
40 2.57169 0.911695 3.34789 0.5
41 0.333334 2.7842 1.15481 0.5
42 2.9327 2.25613 0.553912 0.5
43 1.74756 3.18525 2.83103 0.5
44 0.330304 0.268868 2.40751 0.5
45 2.29944 1.85763 3.70013 0.5
46 1.24529 3.62471 2.17842 0.5
47 3.50832 3.16449 1.26715 0.5
48 2.1752 0.788744 1.19773 0.5
49 1.79694 1.17788 3.02987 0.5
50 1.9967 0.306401 3.75762 0.5
