ITEM: TIMESTEP
380000
ITEM: NUMBER OF ATOMS
50
ITEM: BOX BOUNDS xy xz yz pp pp pp
0.0000000000000000e+00 3.9685030000000001e+00 0.0000000000000000e+00
0.0000000000000000e+00 3.9685030000000001e+00 0.0000000000000000e+00
0.0000000000000000e+00 3.9685030000000001e+00 0.0000000000000000e+00
ITEM: ATOMS id x y z radius
1 2.13354 3.00214 1.2481 0.5
2 3.30453 2.8957 1.52854 0.5
3 3.06843 0.695635 2.23568 0.5
4 0.599491 3.9833 1.60163 0.5
5 2.04334 3.26971 3.24948 0.5
6 0.33598 2.71571 1.5359 0.5
7 3.6356 3.77678 1.8237 0.5
8 2.56403 2.25351 1.96032 0.5
9 1.02706 1.45905 1.9586 0.5
10 0.0532566 3.29152 3.5989 0.5
11 1.56563 1.5584 2.86219 0.5
12 2.88555 2.79873 0.477707 0.5
13 3.17659 0.610229 3.97932 0.5
14 2.96498 1.64208 0.278026 0.5
15 3.44911 1.32033 2.96374 0.5
16 1.70047 2.53708 2.90258 0.5
17 0.371036 1.50035 2.76575 0.5
18 0.792363 2.87076 3.34976 0.5
19 2.5699 1.46726 2.58971 0.5
20 2.05051 0.827813 2.18734 0.5
21 1.49325 3.70814 3.72413 0.5
22 1.36457 0.730382 3.23246 0.5
23 1.11946 0.488727 0.214178 0.5
24 3.80172 3.06001 0.684185 0.5
25 2.5969 3.76092 1.8035 0.5
26 0.75139 3.9042 3.27339 0.5
27 1.16137 1.74671 1.10904 0.5
28 0.167823 0.252679 4.00407 0.5
29 2.68417 0.532769 1.25211 0.5
30 0.484819 0.978469 0.818218 0.5
31 1.42218 2.3612 1.78784 0.5
32 0.654969 2.74111 0.320242 0.5
33 0.882025 3.47972 0.541077 0.5
34 2.17898 2.03122 0.680529 0.5
35 0.148352 2.28377 3.11709 0.5
36 0.864973 1.97534 3.6678 0.5
37 3.74471 0.680381 1.55106 0.5
38 1.88749 1.58772 1.72123 0.5
39 3.76216 1.19206 0.289199 0.5
40 2.48722 3.51246 0.156636 0.5
41 0.0758659 0.701843 2.44987 0.5
42 3.27051 0.195084 2.93774 0.5
43 2.38398 0.228248 3.41874 0.5
44 0.867158 2.32201 2.46133 0.5
45 3.1963 1.78764 1.31486 0.5
46 3.65339 2.3083 2.25507 0.5
47 0.212728 1.56918 1.63489 0.5
48 1.822 1.10258 3.85805 0.5
49 1.34721 2.62254 0.879961 0.5
50 3.09132 3.75368 1.00753 0.5
