ITEM: TIMESTEP
810000
ITEM: NUMBER OF ATOMS
50
ITEM: BOX BOUNDS xy xz yz pp pp pp
0.0000000000000000e+00 3.9685030000000001e+00 0.0000000000000000e+00
0.0000000000000000e+00 3.9685030000000001e+00 0.0000000000000000e+00
0.0000000000000000e+00 3.9685030000000001e+00 0.0000000000000000e+00
ITEM: ATOMS id x y z radius
1 0.366419 3.16076 3.89509 0.5
2 1.28463 1.31345 0.497904 0.5
3 3.32304 0.641813 1.9998 0.5
4 0.226437 0.667261 2.54201 0.5
5 2.27365 2.38211 2.13417 0.5
6 2.37535 1.06993 1.83014 0.5
7 0.854451 3.34676 1.63653 0.5
8 1.25003 2.91972 0.70406 0.5
9 1.62356 2.03454 0.734634 0.5
10 3.39122 3.08822 2.95678 0.5
11 2.63335 3.28672 2.66707 0.5
12 1.69705 3.87474 3.11654 0.5
13 0.562553 3.52663 0.548039 0.5
14 0.115662 1.26843 1.62928 0.5
15 2.94176 2.71573 0.859642 0.5
16 0.54601 2.70423 2.95184 0.5
17 2.11861 1.84413 1.34875 0.5
18 1.20506 2.3956 1.55501 0.5
19 1.51723 2.80565 2.84767 0.5
20 1.94371 3.35292 1.37477 0.5
21 2.45551 1.95092 0.440895 0.5
22 2.95152 2.45533 3.74299 0.5
23 3.8689 3.27135 1.19739 0.5
24 0.641962 1.68204 3.21958 0.5
25 1.63416 0.66702 2.14234 0.5
26 3.16705 1.17191 0.160352 0.5
27 0.954876 3.51933 2.76304 0.5
28 3.1249 1.61938 1.56341 0.5
29 2.1734 0.828769 0.720468 0.5
30 3.78229 1.25807 3.39679 0.5
31 3.53316 1.50708 2.43948 0.5
32 1.22544 3.07974 3.63908 0.5
33 1.02913 2.23216 3.85392 0.5
34 1.72824 3.54425 2.33805 0.5
35 3.46787 0.8643 0.905374 0.5
36 3.6519 2.13692 3.31118 0.5
37 1.98763 2.88687 0.331811 0.5
38 0.895981 1.2372 2.27061 0.5
39 3.89328 3.792 2.182 0.5
40 2.97536 3.23814 1.71952 0.5
41 2.42332 0.176144 1.69647 0.5
42 3.0864 0.563137 3.31057 0.5
43 1.49016 1.27619 1.46581 0.5
44 3.76693 0.31674 0.272609 0.5
45 1.91788 2.23532 3.59733 0.5
46 0.282735 0.339959 1.11525 0.5
47 1.68278 3.96652 0.362174 0.5
48 0.763725 3.97335 3.57839 0.5
49 2.60163 1.49433 3.04201 0.5
50 2.39953 0.359892 2.6544 0.5
