ITEM: TIMESTEP
850000
ITEM: NUMBER OF ATOMS
50
ITEM: BOX BOUNDS xy xz yz pp pp pp
0.0000000000000000e+00 3.9685030000000001e+00 0.0000000000000000e+00
0.0000000000000000e+00 3.9685030000000001e+00 0.0000000000000000e+00
0.0000000000000000e+00 3.9685030000000001e+00 0.0000000000000000e+00
ITEM: ATOMS id x y z radius
1 2.81429 2.3365 1.53308 0.5
2 2.48957 3.17486 1.00453 0.5
3 0.567818 2.75524 3.01054 0.5
4 0.845007 1.26192 3.95652 0.5
5 3.49977 2.08305 0.674543 0.5
6 0.243367 3.273 1.02934 0.5
7 1.55386 0.222038 2.27865 0.5
8 1.07448 2.62019 2.17218 0.5
9 2.59395 2.66126 3.03493 0.5
10 3.86424 0.294495 1.79865 0.5
11 2.5468 1.43468 1.33801 0.5
12 1.90917 0.41846 3.86132 0.5
13 1.00154 3.72602 2.94779 0.5
14 1.03598 3.12545 0.24644 0.5
15 2.29828 0.663474 0.893004 0.5
16 1.06326 0.124742 3.98438 0.5
17 2.60662 3.87177 0.563283 0.5
18 2.93799 1.20948 2.21334 0.5
19 2.08212 2.33657 2.21681 0.5
20 1.82114 3.66231 0.483919 0.5
21 1.67412 3.25045 2.0562 0.5
22 0.284047 0.747462 3.59544 0.5
23 3.31251 3.61305 1.13157 0.5
24 1.64454 2.98446 2.95398 0.5
25 3.8463 0.979397 0.46223 0.5
26 2.91852 1.15902 0.254629 0.5
27 1.84107 1.42047 3.69672 0.5
28 3.76467 1.51222 2.80164 0.5
29 1.2363 1.92901 0.53164 0.5
30 0.331548 0.128721 0.608314 0.5
31 0.401662 2.41973 3.8769 0.5
32 0.038156 2.17222 2.16451 0.5
33 1.22953 2.17048 3.45412 0.5
34 0.0848575 3.23753 2.02451 0.5
35 0.232862 3.3911 0.0392059 0.5
36 2.94484 0.0949545 1.98061 0.5
37 3.22235 2.46211 3.71803 0.5
38 2.684 3.16729 1.9637 0.5
39 3.49519 2.88416 0.473662 0.5
40 2.52861 2.02302 0.459053 0.5
41 1.69058 1.52291 2.78605 0.5
42 3.00028 2.15917 2.38342 0.5
43 1.98733 3.83805 1.37631 0.5
44 2.90871 1.7659 3.3772 0.5
45 0.727549 1.76754 2.62956 0.5
46 1.22423 0.716103 3.02522 0.5
47 3.76797 1.67278 3.71633 0.5
48 0.793796 3.85448 1.58662 0.5
49 3.18472 0.794263 1.1527 0.5
50 1.98879 0.981644 1.7417 0.5
