ITEM: TIMESTEP
160000
ITEM: NUMBER OF ATOMS
50
ITEM: BOX BOUNDS xy xz yz pp pp pp
0.0000000000000000e+00 3.9685030000000001e+00 0.0000000000000000e+00
0.0000000000000000e+00 3.9685030000000001e+00 0.0000000000000000e+00
0.0000000000000000e+00 3.9685030000000001e+00 0.0000000000000000e+00
ITEM: ATOMS id x y z radius
1 1.8568 3.85424 1.72354 0.5
2 1.32734 3.10557 0.461477 0.5
3 0.421987 1.6664 1.43022 0.5
4 3.82609 3.92953 1.34948 0.5
5 1.02694 1.97338 2.45185 0.5
6 2.10456 2.16764 1.63453 0.5
7 2.78865 3.25642 0.365499 0.5
8 3.6757 0.260784 0.506111 0.5
9 2.69016 2.45889 0.672947 0.5
10 2.59629 3.65723 1.31316 0.5
11 2.11237 0.765625 2.12065 0.5
12 3.26672 1.00596 2.49139 0.5
13 2.49107 3.00535 1.99826 0.5
14 0.539375 3.62537 0.188756 0.5
15 3.85718 3.20401 2.73077 0.5
16 0.0103981 1.0871 2.93691 0.5
17 3.42767 1.00514 1.20454 0.5
18 3.15501 0.503744 1.82735 0.5
19 1.83464 2.01271 3.16268 0.5
20 2.86306 3.8426 2.47591 0.5
21 3.10645 2.4162 1.60182 0.5
22 0.25532 0.766985 1.88465 0.5
23 3.7685 1.64763 2.08277 0.5
24 3.10503 0.82448 3.6052 0.5
25 3.83706 0.144865 2.61117 0.5
26 2.95575 1.48568 0.373824 0.5
27 1.50797 1.07464 0.521607 0.5
28 2.35041 3.14338 3.25454 0.5
29 2.81328 1.40237 1.53636 0.5
30 1.78057 0.0303977 0.729594 0.5
31 1.66341 2.77631 2.50691 0.5
32 1.31906 2.2502 1.05945 0.5
33 0.635981 1.79011 0.481223 0.5
34 0.842214 0.672527 3.68209 0.5
35 3.0084 2.42657 3.74543 0.5
36 1.50176 1.01835 2.88313 0.5
37 3.65792 3.43151 3.73696 0.5
38 2.45232 0.818009 1.02272 0.5
39 3.40569 3.30146 1.94501 0.5
40 2.0953 1.21902 3.75861 0.5
41 0.201525 2.14766 2.8737 0.5
42 3.68707 3.05885 0.617221 0.5
43 1.61206 3.06672 1.50853 0.5
44 1.18576 3.52838 3.30958 0.5
45 0.13118 2.56659 3.89883 0.5
46 0.779635 2.89271 2.6494 0.5
47 1.08029 2.53731 3.4396 0.5
48 2.17879 1.65545 0.776406 0.5
49 1.01009 1.61378 3.34647 0.5
50 1.97508 3.94784 2.77414 0.5
