ITEM: TIMESTEP
220000
ITEM: NUMBER OF ATOMS
50
ITEM: BOX BOUNDS xy xz yz pp pp pp
0.0000000000000000e+00 3.9685030000000001e+00 0.0000000000000000e+00
0.0000000000000000e+00 3.9685030000000001e+00 0.0000000000000000e+00
0.0000000000000000e+00 3.9685030000000001e+00 0.0000000000000000e+00
ITEM: ATOMS id x y z radius
1 3.01364 2.00523 2.24286 0.5
2 2.30514 2.18069 3.22941 0.5
3 3.84242 0.492699 3.46807 0.5
4 0.72527 1.18374 0.500556 0.5
5 2.30544 1.41054 2.75531 0.5
6 2.57394 0.70978 1.50855 0.5
7 1.69296 3.61598 0.354079 0.5
8 1.8499 2.75139 2.719 0.5
9 0.102425 3.70324 1.64065 0.5
10 3.84139 0.882426 2.01559 0.5
11 3.25869 1.72347 3.22535 0.5
12 2.58795 0.65228 0.538384 0.5
13 0.0938103 0.626587 1.13755 0.5
14 2.35341 1.8741 0.625506 0.5
15 0.285583 1.25163 2.98121 0.5
16 2.45564 3.65446 1.20478 0.5
17 0.577179 2.85242 1.53947 0.5
18 2.97973 2.83669 2.8136 0.5
19 2.2333 3.30259 2.09338 0.5
20 2.50914 3.59743 3.02336 0.5
21 0.0309785 3.0577 2.34943 0.5
22 0.355665 0.148081 2.66187 0.5
23 1.09401 2.89685 3.37044 0.5
24 0.883256 1.90128 3.64389 0.5
25 3.39588 3.73091 2.86562 0.5
26 3.25802 1.22375 0.992453 0.5
27 3.9951 1.4446 3.86028 0.5
28 3.12506 2.5028 1.03484 0.5
29 1.52021 3.27362 1.46337 0.5
30 1.84187 0.322736 0.981199 0.5
31 2.51827 3.71017 0.0630097 0.5
32 3.38102 0.051146 0.427618 0.5
33 3.44365 2.04717 0.295315 0.5
34 1.88012 0.467724 3.90623 0.5
35 2.97908 0.672373 3.63086 0.5
36 1.60779 1.13275 1.4822 0.5
37 1.09092 3.38018 2.41254 0.5
38 1.09597 2.9705 0.696266 0.5
39 1.7378 1.20415 0.492062 0.5
40 0.995137 0.999657 3.4889 0.5
41 0.138483 2.70856 3.80758 0.5
42 1.76093 2.53614 0.142262 0.5
43 2.37322 1.52085 3.84398 0.5
44 0.0545976 2.25369 3.02898 0.5
45 1.88686 0.189166 1.87063 0.5
46 0.989925 0.24565 1.67067 0.5
47 1.53388 0.922463 2.46512 0.5
48 0.744684 1.27256 1.74823 0.5
49 1.24905 2.01128 0.740886 0.5
50 1.32199 2.03231 2.20963 0.5
