ITEM: TIMESTEP
510000
ITEM: NUMBER OF ATOMS
50
ITEM: BOX BOUNDS xy xz yz pp pp pp
0.0000000000000000e+00 3.9685030000000001e+00 0.0000000000000000e+00
0.0000000000000000e+00 3.9685030000000001e+00 0.0000000000000000e+00
0.0000000000000000e+00 3.9685030000000001e+00 0.0000000000000000e+00
ITEM: ATOMS id x y z radius
1 0.0541499 0.10396 2.05384 0.5
2 0.428113 3.17797 3.9581 0.5
3 1.21553 2.84359 0.620532 0.5
4 1.31622 3.74095 3.75133 0.5
5 0.496388 0.649263 2.66476 0.5
6 1.0289 3.83429 0.787679 0.5
7 3.6229 2.97333 0.0332414 0.5
8 0.0471955 3.91446 0.421307 0.5
9 1.67583 1.21225 1.35919 0.5
10 0.988037 3.83783 1.70179 0.5
11 2.50989 1.1844 0.496438 0.5
12 3.29884 0.668792 0.949955 0.5
13 3.33529 3.50275 0.989874 0.5
14 2.64496 0.894913 1.60167 0.5
15 2.30523 3.87861 3.44372 0.5
16 0.0781199 2.43259 3.20292 0.5
17 3.5651 1.48118 1.61062 0.5
18 3.51999 3.19446 1.9512 0.5
19 0.901519 2.31703 3.75404 0.5
20 0.196405 0.0825499 3.43531 0.5
21 2.3364 0.365807 2.58116 0.5
22 3.81114 2.05836 3.90892 0.5
23 -0.0429493 2.51002 1.66144 0.5
24 0.362563 3.29152 1.38388 0.5
25 2.51136 3.61158 0.610319 0.5
26 3.21396 1.55879 0.640915 0.5
27 2.58182 3.81034 1.77263 0.5
28 3.22596 2.25331 2.18487 0.5
29 2.48767 1.85203 1.34383 0.5
30 0.918532 0.859925 1.01686 0.5
31 1.84521 1.04457 3.73807 0.5
32 1.8276 3.3996 1.20606 0.5
33 2.44593 2.78793 1.51761 0.5
34 1.55002 2.33397 1.36349 0.5
35 0.0654403 1.94641 2.47964 0.5
36 0.729145 3.58661 2.84918 0.5
37 0.727331 0.512851 3.93637 0.5
38 1.10056 1.82147 2.72225 0.5
39 1.33991 0.30677 3.16238 0.5
40 0.576217 1.48723 1.75932 0.5
41 2.62451 2.88435 2.38646 0.5
42 1.77192 1.12498 2.64193 0.5
43 1.96735 2.00251 2.13334 0.5
44 2.67563 2.22101 0.369692 0.5
45 3.21095 2.21626 2.98525 0.5
46 1.79027 3.54461 2.79662 0.5
47 2.73308 1.40996 2.24407 0.5
48 0.295718 0.216069 1.2092 0.5
49 1.67753 1.80339 0.513936 0.5
50 0.343965 1.29629 3.3558 0.5
