ITEM: TIMESTEP
130000
ITEM: NUMBER OF ATOMS
50
ITEM: BOX BOUNDS xy xz yz pp pp pp
0.0000000000000000e+00 3.9685030000000001e+00 0.0000000000000000e+00
0.0000000000000000e+00 3.9685030000000001e+00 0.0000000000000000e+00
0.0000000000000000e+00 3.9685030000000001e+00 0.0000000000000000e+00
ITEM: ATOMS id x y z radius
1 1.98068 0.0714703 1.08579 0.5
2 2.36562 2.76825 2.24133 0.5
3 1.18909 3.62001 0.990603 0.5
4 3.69648 2.99282 3.79332 0.5
5 0.306859 1.91974 3.67718 0.5
6 0.561144 0.961966 1.67146 0.5
7 3.15307 3.66562 1.09558 0.5
8 1.16241 0.427715 2.52984 0.5
9 2.12855 3.06933 0.995124 0.5
10 0.158818 3.64276 1.02264 0.5
11 3.79718 0.401101 3.40983 0.5
12 3.22828 2.60303 2.65839 0.5
13 0.708311 3.2067 0.0594386 0.5
14 1.97127 0.912193 0.448378 0.5
15 1.4213 2.45195 2.31961 0.5
16 0.199099 2.76898 3.01069 0.5
17 2.52217 1.08222 2.13616 0.5
18 0.600357 0.125626 0.276728 0.5
19 1.26901 3.26466 2.66994 0.5
20 0.417326 3.76177 3.01209 0.5
21 1.40826 1.65149 0.0566649 0.5
22 3.89609 0.194866 1.75497 0.5
23 3.70531 1.76985 2.80523 0.5
24 3.54607 3.73204 0.239406 0.5
25 0.039289 0.762081 2.49113 0.5
26 0.450967 1.1224 0.315237 0.5
27 2.24882 1.87953 2.69728 0.5
28 1.65428 3.17746 3.57247 0.5
29 3.81351 0.538051 0.737703 0.5
30 3.18008 2.23771 1.88204 0.5
31 0.572581 2.02129 2.53027 0.5
32 2.43495 2.17107 1.43307 0.5
33 1.39812 0.254081 3.38917 0.5
34 2.65647 0.0641708 0.47464 0.5
35 3.33929 3.57727 3.03545 0.5
36 2.48002 1.69445 0.56499 0.5
37 2.6083 3.63462 2.32212 0.5
38 2.73216 0.789608 1.10806 0.5
39 3.49926 3.35273 2.02099 0.5
40 0.720915 0.997583 3.33757 0.5
41 1.72144 3.3543 1.72844 0.5
42 3.43012 1.20962 1.91792 0.5
43 1.64487 0.122331 0.250625 0.5
44 2.5204 2.82998 3.20735 0.5
45 2.18225 2.47836 0.146295 0.5
46 1.32185 2.55547 0.501981 0.5
47 1.26504 2.50058 3.42619 0.5
48 3.52894 1.49556 0.826232 0.5
49 1.84083 1.21695 1.40491 0.5
50 3.12988 1.00325 0.0749865 0.5
