ITEM: TIMESTEP
470000
ITEM: NUMBER OF ATOMS
50
ITEM: BOX BOUNDS xy xz yz pp pp pp
0.0000000000000000e+00 3.9685030000000001e+00 0.0000000000000000e+00
0.0000000000000000e+00 3.9685030000000001e+00 0.0000000000000000e+00
0.0000000000000000e+00 3.9685030000000001e+00 0.0000000000000000e+00
ITEM: ATOMS id x y z radius
1 1.42128 0.379568 2.04748 0.5
2 0.462482 0.0649328 2.67831 0.5
3 0.507615 0.760194 1.80136 0.5
4 0.707057 0.346218 3.94683 0.5
5 3.57073 3.9132 3.5607 0.5
6 0.616222 3.52364 3.59431 0.5
7 0.593645 1.43242 1.03904 0.5
8 3.39931 0.354899 0.625311 0.5
9 3.44096 3.71873 2.5433 0.5
10 1.25102 0.382636 3.34226 0.5
11 2.31004 1.75139 3.4628 0.5
12 2.92884 1.55456 0.700513 0.5
13 3.27251 2.46938 1.87278 0.5
14 2.81957 3.40923 1.48115 0.5
15 3.83241 3.18964 1.35117 0.5
16 2.14405 1.76687 1.90326 0.5
17 1.02363 1.19808 0.153634 0.5
18 0.624734 3.69863 1.92011 0.5
19 2.24258 2.57456 1.56532 0.5
20 1.58054 3.53678 3.52311 0.5
21 1.16181 3.36875 2.70268 0.5
22 0.593908 2.07142 0.296741 0.5
23 3.67094 1.25564 1.33152 0.5
24 3.54479 0.193456 1.87263 0.5
25 1.92889 2.2903 0.675904 0.5
26 3.06824 2.57074 0.85414 0.5
27 1.2682 3.0192 0.443654 0.5
28 3.92267 1.41444 0.243699 0.5
29 3.25973 1.84193 3.63323 0.5
30 2.54608 3.53618 3.73302 0.5
31 2.32275 2.64389 3.58151 0.5
32 3.3927 3.42629 0.422242 0.5
33 1.64862 0.293226 0.151689 0.5
34 0.132845 2.9705 2.24349 0.5
35 1.0361 1.73498 3.19978 0.5
36 2.51021 0.26083 2.20568 0.5
37 0.348877 1.84274 1.94486 0.5
38 1.2689 2.57849 3.48781 0.5
39 2.75671 0.0894095 3.1545 0.5
40 2.25964 4.00661 1.37302 0.5
41 3.94244 2.14165 1.14697 0.5
42 2.26433 3.26 2.68715 0.5
43 2.4068 3.20598 0.711476 0.5
44 1.99984 0.96261 1.37908 0.5
45 3.49328 0.849422 3.30618 0.5
46 1.46781 2.39799 2.37108 0.5
47 2.2629 2.37098 2.61713 0.5
48 0.0720776 1.85055 3.00428 0.5
49 1.15285 2.2362 1.49923 0.5
50 1.35324 1.36518 1.87589 0.5
