ITEM: TIMESTEP
660000
ITEM: NUMBER OF ATOMS
50
ITEM: BOX BOUNDS xy xz yz pp pp pp
0.0000000000000000e+00 3.9685030000000001e+00 0.0000000000000000e+00
0.0000000000000000e+00 3.9685030000000001e+00 0.0000000000000000e+00
0.0000000000000000e+00 3.9685030000000001e+00 0.0000000000000000e+00
ITEM: ATOMS id x y z radius
1 0.0564102 1.39471 3.45243 0.5
2 0.60988 1.47799 2.65165 0.5
3 3.12819 1.87415 1.4997 0.5
4 1.97468 0.0550607 3.53169 0.5
5 2.96574 1.03692 3.22896 0.5
6 0.587711 0.410474 3.13673 0.5
7 1.2652 3.82359 0.21765 0.5
8 2.49958 0.571114 1.93506 0.5
9 3.69371 0.58795 2.78208 0.5
10 0.377717 2.26501 3.78893 0.5
11 2.87635 0.384809 0.190199 0.5
12 1.78091 2.8226 1.73617 0.5
13 0.0294737 1.81062 1.11618 0.5
14 0.597915 1.41759 0.202143 0.5
15 0.0683994 3.66952 2.91122 0.5
16 2.63681 2.52826 2.22541 0.5
17 1.56586 0.811953 0.281044 0.5
18 3.7186 0.349523 3.61646 0.5
19 1.37811 1.96134 3.67339 0.5
20 3.53598 1.60464 2.44837 0.5
21 1.54398 0.384791 1.86481 0.5
22 1.04689 2.15535 1.47587 0.5
23 1.94314 2.03027 2.70725 0.5
24 2.13145 3.00569 2.95751 0.5
25 1.43586 1.40806 1.98134 0.5
26 1.31641 2.0481 0.622237 0.5
27 3.6134 2.85305 3.17356 0.5
28 3.76375 0.195968 1.65136 0.5
29 2.5537 1.46959 2.23701 0.5
30 2.32676 3.5057 2.10806 0.5
31 1.43653 2.89861 0.831463 0.5
32 3.81392 0.925049 0.519684 0.5
33 2.7361 3.04204 3.66258 0.5
34 1.31077 3.40741 2.35961 0.5
35 1.08461 3.64206 1.28492 0.5
36 1.34099 3.13871 3.63651 0.5
37 3.35932 3.25193 2.076 0.5
38 0.0419623 3.55534 0.766963 0.5
39 0.404683 3.3702 3.75256 0.5
40 2.15841 1.95461 1.29752 0.5
41 3.08946 3.70256 2.93043 0.5
42 2.97551 3.83092 1.17957 0.5
43 2.97471 2.77197 1.22553 0.5
44 2.35852 2.20619 3.76148 0.5
45 3.57343 3.45177 3.9627 0.5
46 3.52746 1.74698 0.216115 0.5
47 0.664948 0.0600015 2.21548 0.5
48 2.93936 2.10959 3.11554 0.5
49 0.530741 0.378955 0.153652 0.5
50 0.494869 2.71593 0.878715 0.5
