ITEM: TIMESTEP
820000
ITEM: NUMBER OF ATOMS
50
ITEM: BOX BOUNDS xy xz yz pp pp pp
0.0000000000000000e+00 3.9685030000000001e+00 0.0000000000000000e+00
0.0000000000000000e+00 3.9685030000000001e+00 0.0000000000000000e+00
0.0000000000000000e+00 3.9685030000000001e+00 0.0000000000000000e+00
ITEM: ATOMS id x y z radius
1 3.46652 1.96188 0.861487 0.5
2 0.522263 1.68527 0.929743 0.5
3 2.93852 3.91225 2.21188 0.5
4 0.258997 0.322882 2.45983 0.5
5 3.17702 2.99021 2.62471 0.5
6 2.73249 2.20942 1.21555 0.5
7 0.582498 3.50728 0.858797 0.5
8 0.97024 2.63817 3.63919 0.5
9 1.50945 1.79574 0.231072 0.5
10 3.00015 2.79613 3.53465 0.5
11 2.71607 3.08932 1.76529 0.5
12 2.1588 3.70484 2.62982 0.5
13 1.17523 0.179317 0.617556 0.5
14 0.517368 0.693245 1.26617 0.5
15 2.02355 2.74741 1.20294 0.5
16 1.85547 0.635895 0.0315525 0.5
17 1.1657 1.86219 1.51957 0.5
18 1.26305 2.51773 0.796732 0.5
19 0.765432 3.31746 2.31953 0.5
20 2.15676 3.61012 0.818825 0.5
21 2.57913 1.75113 0.443387 0.5
22 2.96148 2.94829 0.685207 0.5
23 3.7611 3.48735 0.172076 0.5
24 0.570416 2.44546 2.77501 0.5
25 2.13583 1.37801 3.43925 0.5
26 3.57586 0.399053 3.46671 0.5
27 1.43274 3.44879 1.50114 0.5
28 3.54491 0.880612 2.02548 0.5
29 1.44591 0.551079 1.5305 0.5
30 3.72693 1.06819 0.345486 0.5
31 0.0771326 1.37278 2.83992 0.5
32 1.4263 3.17307 3.08409 0.5
33 1.37304 2.00299 3.06364 0.5
34 2.16539 3.90345 1.76371 0.5
35 0.287299 0.185715 0.337275 0.5
36 3.3301 1.45376 3.56228 0.5
37 2.07717 2.44783 3.64173 0.5
38 0.351739 1.57478 1.84887 0.5
39 3.76562 2.3126 2.29931 0.5
40 3.64349 3.0952 1.27148 0.5
41 2.22532 0.649592 2.68277 0.5
42 0.425091 0.71019 3.25713 0.5
43 0.537915 2.74247 1.55436 0.5
44 2.6132 0.884733 1.93134 0.5
45 2.69329 1.98793 2.97696 0.5
46 2.86742 0.0802612 1.24417 0.5
47 0.769082 1.1373 0.358407 0.5
48 0.625388 1.73819 3.70288 0.5
49 2.80648 1.12691 1.11761 0.5
50 3.08854 0.99217 2.86894 0.5
