ITEM: TIMESTEP
40000
ITEM: NUMBER OF ATOMS
50
ITEM: BOX BOUNDS xy xz yz pp pp pp
0.0000000000000000e+00 3.9685030000000001e+00 0.0000000000000000e+00
0.0000000000000000e+00 3.9685030000000001e+00 0.0000000000000000e+00
0.0000000000000000e+00 3.9685030000000001e+00 0.0000000000000000e+00
ITEM: ATOMS id x y z radius
1 2.66979 2.28936 1.98368 0.5
2 1.05195 3.78423 3.51419 0.5
3 2.41012 0.137155 0.0941203 0.5
4 1.73315 3.38395 0.142739 0.5
5 2.77654 1.2063 2.05041 0.5
6 2.03577 0.933604 2.17209 0.5
7 3.32304 1.02352 1.42219 0.5
8 3.80934 0.957035 3.60544 0.5
9 3.70368 1.94253 0.182447 0.5
10 3.36104 2.82457 3.61872 0.5
11 0.302488 2.55419 2.49301 0.5
12 3.26957 3.96317 3.7614 0.5
13 1.01704 0.0873799 0.362231 0.5
14 0.744207 2.0182 0.169378 0.5
15 0.269462 1.02185 1.97719 0.5
16 3.33292 1.87662 2.19833 0.5
17 1.91812 3.91238 1.95819 0.5
18 1.31507 3.14494 2.41263 0.5
19 0.251186 3.32549 3.2348 0.5
20 3.29423 1.05597 2.74116 0.5
21 2.2466 3.73913 0.884264 0.5
22 3.35578 1.86581 3.26662 0.5
23 1.34986 0.258422 2.51712 0.5
24 2.49357 1.74467 2.85414 0.5
25 0.285817 0.0899136 0.0640919 0.5
26 2.84694 0.986527 3.62327 0.5
27 1.08083 2.29331 2.10692 0.5
28 3.66158 3.32744 0.361526 0.5
29 1.09055 2.40412 1.20194 0.5
30 0.0328642 2.18328 1.31164 0.5
31 2.76465 3.38353 1.8908 0.5
32 2.11159 0.698946 0.747999 0.5
33 0.690207 3.17158 0.178141 0.5
34 2.0578 0.0614389 3.17365 0.5
35 3.22299 0.59386 0.491167 0.5
36 0.785885 3.8743 1.38499 0.5
37 3.32963 2.72619 2.70424 0.5
38 2.04067 2.48882 0.490352 0.5
39 0.595658 0.623101 3.17561 0.5
40 0.17013 2.32172 3.47429 0.5
41 1.57592 0.667011 1.54621 0.5
42 0.251511 0.662096 1.05864 0.5
43 1.30697 1.54658 0.918007 0.5
44 2.71824 3.09338 0.12619 0.5
45 1.99088 2.71954 1.70126 0.5
46 0.15255 1.56369 2.80941 0.5
47 1.22745 2.75338 3.6829 0.5
48 1.75326 1.79009 1.82127 0.5
49 2.96446 1.81402 1.12867 0.5
50 1.12678 1.2183 2.53634 0.5
