ITEM: TIMESTEP
540000
ITEM: NUMBER OF ATOMS
50
ITEM: BOX BOUNDS xy xz yz pp pp pp
0.0000000000000000e+00 3.9685030000000001e+00 0.0000000000000000e+00
0.0000000000000000e+00 3.9685030000000001e+00 0.0000000000000000e+00
0.0000000000000000e+00 3.9685030000000001e+00 0.0000000000000000e+00
ITEM: ATOMS id x y z radius
1 1.94716 3.91654 3.19961 0.5
2 1.25479 1.87795 1.09933 0.5
3 3.94094 1.60918 -0.000243008 0.5
4 3.61954 2.81003 0.465685 0.5
5 2.40088 1.20127 1.98809 0.5
6 1.17887 0.737552 2.30148 0.5
7 0.30443 3.36222 0.116631 0.5
8 0.00147444 2.52764 3.70191 0.5
9 0.803376 0.137275 1.82794 0.5
10 1.57949 3.113 0.540473 0.5
11 2.15149 1.74567 3.47509 0.5
12 3.28216 3.74499 0.68981 0.5
13 3.01387 2.559 2.74028 0.5
14 3.08926 1.02698 3.96659 0.5
15 2.31759 3.7543 0.0845134 0.5
16 4.00755 0.31369 1.30659 0.5
17 3.07595 0.806793 1.33814 0.5
18 2.91259 0.445765 3.37055 0.5
19 1.38946 1.27226 0.276262 0.5
20 3.1882 3.55722 2.88552 0.5
21 1.19967 1.44992 3.16295 0.5
22 0.356808 2.61424 2.6012 0.5
23 0.716901 3.55943 1.02496 0.5
24 2.39332 0.202365 0.900426 0.5
25 2.81254 1.87863 0.118028 0.5
26 3.16041 3.03234 1.84045 0.5
27 0.26412 3.89306 2.66951 0.5
28 3.25849 0.580243 2.50529 0.5
29 3.27063 1.61285 1.24808 0.5
30 0.846103 1.74292 2.12635 0.5
31 3.35471 1.6152 3.31756 0.5
32 3.89269 0.92723 3.00381 0.5
33 3.83292 4.03889 3.52841 0.5
34 1.79192 0.211328 2.13494 0.5
35 2.61742 2.88123 0.48795 0.5
36 2.53563 0.138051 1.81646 0.5
37 0.984247 0.724422 1.05021 0.5
38 0.312302 1.77116 3.04238 0.5
39 0.900848 2.11427 3.90225 0.5
40 1.1992 3.77667 4.01303 0.5
41 2.10216 2.68585 3.25953 0.5
42 0.11592 1.03927 1.95438 0.5
43 2.00846 2.63132 1.31858 0.5
44 2.53863 3.341 1.33748 0.5
45 1.65496 2.06962 2.54238 0.5
46 1.70212 0.835211 1.50984 0.5
47 2.30015 3.18526 2.2475 0.5
48 0.0262871 3.39371 1.91821 0.5
49 2.27388 1.42274 1.01542 0.5
50 1.92487 2.18742 0.322701 0.5
