ITEM: TIMESTEP
880000
ITEM: NUMBER OF ATOMS
50
ITEM: BOX BOUNDS xy xz yz pp pp pp
0.0000000000000000e+00 3.9685030000000001e+00 0.0000000000000000e+00
0.0000000000000000e+00 3.9685030000000001e+00 0.0000000000000000e+00
0.0000000000000000e+00 3.9685030000000001e+00 0.0000000000000000e+00
ITEM: ATOMS id x y z radius
1 2.89303 2.49035 2.53021 0.5
2 3.21788 3.47344 2.11427 0.5
3 2.36974 1.58256 1.93234 0.5
4 3.73059 1.02587 3.50914 0.5
5 0.753254 1.39534 3.95433 0.5
6 0.451177 0.0260367 1.25256 0.5
7 1.30071 3.36465 2.26741 0.5
8 0.230896 1.07188 2.61575 0.5
9 2.41725 3.55532 2.60283 0.5
10 2.70391 1.7118 0.820715 0.5
11 3.7936 2.92925 2.66995 0.5
12 2.53169 0.194943 1.8857 0.5
13 1.83485 0.481522 2.53436 0.5
14 1.79829 2.09092 1.23079 0.5
15 1.09758 1.37873 1.74605 0.5
16 2.70933 3.29701 1.20588 0.5
17 3.26241 2.91612 3.9751 0.5
18 1.27274 1.47752 0.799136 0.5
19 3.1436 3.20105 3.10903 0.5
20 3.09229 3.94043 0.329174 0.5
21 0.877955 2.68868 2.81024 0.5
22 0.226399 3.10057 1.70801 0.5
23 1.88154 1.93736 0.176435 0.5
24 2.82967 1.37938 3.75026 0.5
25 0.760515 2.27589 1.38567 0.5
26 0.933242 3.38039 0.143926 0.5
27 1.03633 0.557322 2.14701 0.5
28 1.34932 3.03648 1.09864 0.5
29 1.53614 0.155915 0.750267 0.5
30 3.83595 1.47581 0.594494 0.5
31 2.277 1.82481 2.80362 0.5
32 3.93435 3.55671 3.5899 0.5
33 3.43895 3.87433 1.28021 0.5
34 1.46524 2.25164 2.18512 0.5
35 3.94344 0.406433 0.319239 0.5
36 -0.0189408 0.0264419 2.08493 0.5
37 1.20096 1.38806 3.06243 0.5
38 3.95505 3.44731 0.533105 0.5
39 0.257309 2.59642 0.603912 0.5
40 3.08062 0.871118 1.34048 0.5
41 1.0353 2.49673 0.283476 0.5
42 3.13834 1.39307 2.62685 0.5
43 1.73063 2.76117 2.87415 0.5
44 2.14587 0.949932 0.53711 0.5
45 2.05066 0.971104 3.46563 0.5
46 0.348822 2.35679 2.16401 0.5
47 2.98363 0.556971 2.93423 0.5
48 1.60487 0.0338997 3.84565 0.5
49 1.8048 0.827022 1.42606 0.5
50 1.55861 3.92414 1.68473 0.5
