ITEM: TIMESTEP
80000
ITEM: NUMBER OF ATOMS
50
ITEM: BOX BOUNDS xy xz yz pp pp pp
0.0000000000000000e+00 3.9685030000000001e+00 0.0000000000000000e+00
0.0000000000000000e+00 3.9685030000000001e+00 0.0000000000000000e+00
0.0000000000000000e+00 3.9685030000000001e+00 0.0000000000000000e+00
ITEM: ATOMS id x y z radius
1 1.98849 0.120902 3.95102 0.5
2 2.92192 1.80609 2.15307 0.5
3 2.14453 1.13807 3.70047 0.5
4 2.84783 3.33721 2.75931 0.5
5 0.114812 2.79966 3.5313 0.5
6 1.1827 2.31931 1.62502 0.5
7 3.01101 2.85282 3.65983 0.5
8 1.3683 2.20764 2.69362 0.5
9 0.933377 2.58041 3.4095 0.5
10 1.06728 3.57801 3.95986 0.5
11 4.0303 2.22024 1.54388 0.5
12 2.62412 1.09491 2.72237 0.5
13 3.27605 2.02159 0.318024 0.5
14 3.63021 3.49988 0.149508 0.5
15 3.57489 1.178 3.48604 0.5
16 0.411549 0.973406 0.22853 0.5
17 1.86012 1.57409 1.37906 0.5
18 3.89223 3.68564 2.28212 0.5
19 0.350321 2.80044 2.48876 0.5
20 0.229769 2.47811 0.651414 0.5
21 3.58345 1.03894 2.52329 0.5
22 0.157565 1.89885 3.76802 0.5
23 0.949601 0.289919 2.34119 0.5
24 2.66675 0.990234 1.90231 0.5
25 0.848723 1.02991 1.16351 0.5
26 2.6429 3.62584 0.233992 0.5
27 3.52026 3.60654 1.27204 0.5
28 0.995888 1.35169 3.4365 0.5
29 1.35436 0.485102 0.649537 0.5
30 2.57903 2.24608 2.92082 0.5
31 3.27144 0.564038 0.318277 0.5
32 3.60151 0.683799 1.44395 0.5
33 1.31967 3.86945 3.06899 0.5
34 2.63727 0.27601 3.31339 0.5
35 0.0790414 1.53676 0.909681 0.5
36 2.31901 2.32039 1.83876 0.5
37 3.16647 0.218981 2.00926 0.5
38 0.236502 1.46512 1.9075 0.5
39 2.08552 3.02908 2.43272 0.5
40 0.290745 1.86046 2.79746 0.5
41 1.23138 3.17935 2.37038 0.5
42 2.90371 1.58478 1.19972 0.5
43 1.40405 1.44301 0.339873 0.5
44 0.74974 3.85023 0.847085 0.5
45 3.36845 2.82764 0.813353 0.5
46 2.1866 1.00531 0.550459 0.5
47 1.78112 3.5349 0.668235 0.5
48 1.97944 1.68939 2.44167 0.5
49 0.48476 3.23239 1.57821 0.5
50 1.9841 3.07457 3.51011 0.5
