ITEM: TIMESTEP
70000
ITEM: NUMBER OF ATOMS
50
ITEM: BOX BOUNDS xy xz yz pp pp pp
0.0000000000000000e+00 3.9685030000000001e+00 0.0000000000000000e+00
0.0000000000000000e+00 3.9685030000000001e+00 0.0000000000000000e+00
0.0000000000000000e+00 3.9685030000000001e+00 0.0000000000000000e+00
ITEM: ATOMS id x y z radius
1 2.28936 0.511948 3.79471 0.5
2 3.61922 1.70822 2.1858 0.5
3 1.32402 0.234486 0.0733709 0.5
4 3.17408 3.2787 3.34112 0.5
5 3.63719 2.42939 2.69653 0.5
6 1.4026 3.51158 1.97229 0.5
7 2.77359 1.58964 2.68925 0.5
8 0.695414 3.56106 3.40381 0.5
9 0.608043 2.50012 3.33589 0.5
10 2.1223 3.6206 0.445916 0.5
11 1.09534 2.18158 1.74447 0.5
12 2.95181 3.58908 2.28071 0.5
13 0.69958 1.59487 0.501692 0.5
14 0.314242 0.773467 0.989116 0.5
15 2.99925 0.721617 3.04497 0.5
16 1.17812 0.819472 0.641846 0.5
17 2.01039 1.21118 1.01612 0.5
18 3.91863 3.56214 2.73303 0.5
19 0.574691 2.86727 2.46676 0.5
20 0.480856 2.49125 0.351787 0.5
21 2.83763 2.42534 2.13095 0.5
22 3.50368 1.59365 3.18076 0.5
23 1.04135 1.2078 1.39263 0.5
24 2.98881 1.38949 1.5247 0.5
25 2.02731 2.6636 1.55943 0.5
26 2.69295 2.92872 0.11199 0.5
27 2.85293 3.15907 0.988747 0.5
28 0.380077 0.988864 3.83554 0.5
29 2.12282 0.315076 0.854486 0.5
30 2.85617 2.3637 3.27518 0.5
31 2.92259 0.816293 0.739403 0.5
32 2.40979 1.54535 -0.0135982 0.5
33 1.27032 1.04699 3.44117 0.5
34 2.36774 3.93773 2.95365 0.5
35 3.77647 1.75186 0.224641 0.5
36 1.77138 2.56211 2.50243 0.5
37 2.17715 3.62441 1.46951 0.5
38 0.216219 1.70543 1.35215 0.5
39 1.36637 3.50995 2.79736 0.5
40 0.629265 1.63999 2.96353 0.5
41 0.672298 0.541499 2.9039 0.5
42 3.35498 0.736566 2.22261 0.5
43 1.11043 0.108292 1.12364 0.5
44 3.57332 0.241652 1.29166 0.5
45 3.82835 2.73206 1.21213 0.5
46 3.70624 3.12107 0.309735 0.5
47 1.40812 1.99176 0.760768 0.5
48 1.82153 1.72101 2.10894 0.5
49 0.175427 3.64585 0.867049 0.5
50 2.07693 3.30234 3.53174 0.5
