ITEM: TIMESTEP
580000
ITEM: NUMBER OF ATOMS
50
ITEM: BOX BOUNDS xy xz yz pp pp pp
0.0000000000000000e+00 3.9685030000000001e+00 0.0000000000000000e+00
0.0000000000000000e+00 3.9685030000000001e+00 0.0000000000000000e+00
0.0000000000000000e+00 3.9685030000000001e+00 0.0000000000000000e+00
ITEM: ATOMS id x y z radius
1 3.21716 0.90821 0.444359 0.5
2 0.0152545 1.45831 0.429126 0.5
3 -0.00687255 0.834831 3.66876 0.5
4 0.764491 2.17719 0.157044 0.5
5 3.12642 0.833625 2.93652 0.5
6 0.473036 3.31861 1.73004 0.5
7 0.417232 3.57929 2.88767 0.5
8 3.23335 2.77095 0.347344 0.5
9 0.643756 0.451618 2.66953 0.5
10 1.99865 0.237973 -0.00610555 0.5
11 0.680381 2.5312 1.05311 0.5
12 1.01862 1.98832 3.08953 0.5
13 0.246529 3.07999 0.11958 0.5
14 3.332 1.92928 2.13309 0.5
15 2.40362 3.26178 3.92577 0.5
16 2.54073 0.80908 1.12756 0.5
17 0.871366 0.91176 0.273177 0.5
18 3.42243 0.275611 1.26779 0.5
19 1.30943 1.78864 0.802331 0.5
20 1.73821 3.62836 1.44966 0.5
21 3.74948 0.126381 2.32512 0.5
22 0.657162 2.52507 2.23261 0.5
23 1.73273 2.32178 1.54147 0.5
24 3.1247 3.27179 2.4305 0.5
25 0.157079 0.788136 1.01605 0.5
26 1.62512 1.58871 3.9499 0.5
27 2.91142 1.80518 -0.0166108 0.5
28 2.56464 1.29108 2.30717 0.5
29 3.89446 3.10429 1.01076 0.5
30 2.00034 1.47211 3.2101 0.5
31 2.96564 1.678 2.98807 0.5
32 3.38384 1.37921 1.42406 0.5
33 2.28594 1.82001 0.96839 0.5
34 1.62227 0.635585 2.8747 0.5
35 2.1355 2.51451 3.39034 0.5
36 2.77862 3.84648 0.482231 0.5
37 2.92473 3.2711 1.36768 0.5
38 1.01918 0.366289 3.5045 0.5
39 3.72674 2.80331 1.88463 0.5
40 1.29133 -0.0441551 0.540204 0.5
41 1.67467 2.58965 0.170276 0.5
42 3.78337 3.95629 0.251318 0.5
43 3.55825 3.88865 3.33551 0.5
44 1.18247 3.82332 2.17811 0.5
45 3.06821 3.02862 3.36689 0.5
46 0.893245 1.25412 3.30966 0.5
47 3.27357 2.29242 1.0436 0.5
48 1.81752 0.611743 1.83303 0.5
49 0.357102 1.48789 2.49165 0.5
50 0.233762 1.83448 1.43972 0.5
