ITEM: TIMESTEP
800000
ITEM: NUMBER OF ATOMS
50
ITEM: BOX BOUNDS xy xz yz pp pp pp
0.0000000000000000e+00 3.9685030000000001e+00 0.0000000000000000e+00
0.0000000000000000e+00 3.9685030000000001e+00 0.0000000000000000e+00
0.0000000000000000e+00 3.9685030000000001e+00 0.0000000000000000e+00
ITEM: ATOMS id x y z radius
1 4.01316 2.43528 0.910371 0.5
2 1.11674 0.618218 0.749663 0.5
3 2.77948 1.4287 1.86174 0.5
4 0.117976 0.873947 3.18694 0.5
5 1.904 3.00463 1.67832 0.5
6 1.95227 0.460983 0.553656 0.5
7 0.894368 0.449489 2.69108 0.5
8 0.564199 1.53098 1.09352 0.5
9 1.4489 1.61293 3.48704 0.5
10 0.456645 3.89018 3.25834 0.5
11 2.09072 2.32806 2.99557 0.5
12 1.28312 1.28372 2.63683 0.5
13 2.01144 3.55784 3.73245 0.5
14 3.92727 1.70395 2.64474 0.5
15 2.76407 3.168 1.37537 0.5
16 1.27519 2.43467 2.7021 0.5
17 3.14972 2.23574 1.42033 0.5
18 1.87461 1.36474 0.214053 0.5
19 1.4161 2.66908 3.63313 0.5
20 1.24493 3.33376 1.97832 0.5
21 2.67328 1.94645 0.225602 0.5
22 3.411 3.13567 3.1487 0.5
23 3.12321 0.196768 1.04701 0.5
24 0.33946 3.97318 0.367768 0.5
25 3.72172 0.154473 2.41236 0.5
26 3.27711 1.04216 3.38819 0.5
27 3.44059 3.21353 0.124936 0.5
28 3.15479 2.41359 2.36796 0.5
29 2.13744 0.618809 3.50011 0.5
30 0.141755 0.634194 1.00385 0.5
31 3.94245 2.43096 3.87558 0.5
32 1.2933 3.56031 2.93896 0.5
33 0.92074 0.58541 3.69665 0.5
34 2.51185 3.13271 2.39985 0.5
35 2.69864 0.63733 0.198833 0.5
36 0.324128 0.969715 2.00992 0.5
37 2.53707 2.82064 3.74894 0.5
38 0.715312 1.84013 2.02226 0.5
39 3.24707 0.724787 1.94769 0.5
40 2.48276 1.09946 1.09058 0.5
41 2.36606 3.59444 0.646197 0.5
42 0.636255 0.0302693 1.70557 0.5
43 1.14577 2.41137 1.24198 0.5
44 3.39873 0.0960782 3.48777 0.5
45 2.50093 1.67125 3.41191 0.5
46 3.81947 1.59297 1.68766 0.5
47 1.792 2.85501 0.543827 0.5
48 1.37399 3.73812 0.893615 0.5
49 0.0591649 2.56266 1.74823 0.5
50 2.3364 0.0708459 1.57693 0.5
