ITEM: TIMESTEP
30000
ITEM: NUMBER OF ATOMS
50
ITEM: BOX BOUNDS xy xz yz pp pp pp
0.0000000000000000e+00 3.9685030000000001e+00 0.0000000000000000e+00
0.0000000000000000e+00 3.9685030000000001e+00 0.0000000000000000e+00
0.0000000000000000e+00 3.9685030000000001e+00 0.0000000000000000e+00
ITEM: ATOMS id x y z radius
1 2.02553 2.66911 2.65763 0.5
2 1.26674 0.134278 3.53903 0.5
3 2.08729 0.206907 0.990164 0.5
4 2.19061 3.10564 0.982073 0.5
5 2.79463 2.08592 2.25042 0.5
6 2.49742 1.45136 1.5869 0.5
7 0.219647 1.50451 1.10648 0.5
8 1.93255 0.829714 0.0401041 0.5
9 3.63996 1.4848 3.78412 0.5
10 3.84001 3.3734 3.37148 0.5
11 3.55997 2.3059 1.4729 0.5
12 2.84219 3.77149 0.547487 0.5
13 1.13372 0.352654 0.592644 0.5
14 3.89975 2.50995 3.43591 0.5
15 1.36294 0.875618 3.11937 0.5
16 0.788374 1.40183 2.26586 0.5
17 1.53069 3.82595 1.6034 0.5
18 2.92935 2.72516 3.05434 0.5
19 3.83426 3.96638 2.22869 0.5
20 2.32426 0.528406 3.14016 0.5
21 1.10573 3.0685 0.881115 0.5
22 3.73129 1.85089 2.81507 0.5
23 1.51093 3.41433 2.51825 0.5
24 2.82087 1.31513 3.07185 0.5
25 3.68816 0.135227 3.90488 0.5
26 2.76759 3.77571 3.5641 0.5
27 1.46846 1.85787 2.95262 0.5
28 3.07748 3.00718 1.22619 0.5
29 0.801728 2.33374 1.61016 0.5
30 0.062337 2.26374 0.528467 0.5
31 2.39651 3.36856 1.90737 0.5
32 1.18967 1.30508 0.294803 0.5
33 0.606607 3.58273 3.95483 0.5
34 3.14406 3.501 2.5551 0.5
35 2.87595 0.656789 3.94244 0.5
36 0.779516 0.369012 2.05541 0.5
37 3.68356 2.76883 2.39129 0.5
38 1.75938 2.25265 1.23244 0.5
39 3.32125 0.515996 3.0918 0.5
40 0.651168 2.02287 3.53596 0.5
41 0.99637 1.01905 1.38151 0.5
42 0.219135 0.694312 0.567936 0.5
43 0.995676 2.18413 0.594706 0.5
44 3.22696 2.88241 0.0123031 0.5
45 2.74971 2.23124 0.824013 0.5
46 0.71167 2.34752 2.58366 0.5
47 1.81101 3.66755 0.151152 0.5
48 1.61396 1.96561 2.05623 0.5
49 3.32023 1.44776 0.895936 0.5
50 1.98906 1.16077 2.39224 0.5
