ITEM: TIMESTEP
280000
ITEM: NUMBER OF ATOMS
50
ITEM: BOX BOUNDS xy xz yz pp pp pp
0.0000000000000000e+00 3.9685030000000001e+00 0.0000000000000000e+00
0.0000000000000000e+00 3.9685030000000001e+00 0.0000000000000000e+00
0.0000000000000000e+00 3.9685030000000001e+00 0.0000000000000000e+00
ITEM: ATOMS id x y z radius
1 1.06512 1.86128 2.86695 0.5
2 1.96924 3.92977 2.77499 0.5
3 4.02208 0.975907 0.36284 0.5
4 0.826349 1.68274 3.85115 0.5
5 2.41586 1.00822 2.48416 0.5
6 3.23921 1.23193 3.22535 0.5
7 0.0600642 3.42774 3.95482 0.5
8 1.50776 0.392025 2.11061 0.5
9 3.72157 0.120006 0.725751 0.5
10 1.83324 1.99622 2.4281 0.5
11 0.495131 2.57138 3.57992 0.5
12 2.94565 0.0376657 2.77585 0.5
13 0.220652 0.067449 2.95203 0.5
14 3.02549 1.04982 1.65035 0.5
15 0.076358 1.95591 0.346153 0.5
16 3.84604 2.62232 0.798999 0.5
17 0.138073 1.01691 3.30874 0.5
18 1.7259 1.74154 3.62012 0.5
19 2.2893 3.24597 3.36722 0.5
20 3.0591 3.32938 0.172946 0.5
21 2.1296 3.8223 1.83683 0.5
22 3.254 1.766 0.853203 0.5
23 2.60305 2.03284 3.0337 0.5
24 1.48111 3.58517 0.552649 0.5
25 3.32284 3.16631 3.33298 0.5
26 1.05397 2.66915 2.29576 0.5
27 1.21849 1.01099 1.51807 0.5
28 3.24981 0.070909 1.69365 0.5
29 0.520984 3.65955 0.840582 0.5
30 3.62489 2.62985 1.78993 0.5
31 3.68883 3.40475 2.3802 0.5
32 0.795958 2.48768 0.918639 0.5
33 3.39396 0.293552 3.55364 0.5
34 1.56863 1.2567 0.684583 0.5
35 3.62993 0.541672 2.24932 0.5
36 0.142922 1.87755 1.39633 0.5
37 3.18639 2.3819 3.88071 0.5
38 0.671361 0.185984 0.0699276 0.5
39 2.84902 3.19231 1.84245 0.5
40 1.19993 3.40265 1.55189 0.5
41 0.145438 0.715486 1.23661 0.5
42 1.28549 0.930039 3.30781 0.5
43 0.510155 0.21782 2.03996 0.5
44 1.16646 3.61978 2.63472 0.5
45 2.08426 2.94244 2.54971 0.5
46 2.69352 3.72873 1.03708 0.5
47 0.733253 1.4585 0.820466 0.5
48 1.99432 2.78052 1.7069 0.5
49 2.66672 2.23412 2.05317 0.5
50 2.49138 1.77724 0.244503 0.5
