ITEM: TIMESTEP
830000
ITEM: NUMBER OF ATOMS
50
ITEM: BOX BOUNDS xy xz yz pp pp pp
0.0000000000000000e+00 3.9685030000000001e+00 0.0000000000000000e+00
0.0000000000000000e+00 3.9685030000000001e+00 0.0000000000000000e+00
0.0000000000000000e+00 3.9685030000000001e+00 0.0000000000000000e+00
ITEM: ATOMS id x y z radius
1 2.40722 2.67065 3.82318 0.5
2 3.8507 2.53859 0.712432 0.5
3 3.12557 2.92289 2.21455 0.5
4 0.136905 0.867225 3.70687 0.5
5 3.68239 2.46488 1.73371 0.5
6 3.39324 1.90294 1.26756 0.5
7 1.23695 2.9146 1.5853 0.5
8 1.32153 1.81785 0.820798 0.5
9 1.63385 1.92778 3.60978 0.5
10 2.14925 3.46849 3.75989 0.5
11 3.2438 3.16587 1.21071 0.5
12 2.20638 4.01042 2.3818 0.5
13 1.14916 0.0102733 0.140249 0.5
14 0.913386 3.82956 1.41533 0.5
15 2.7681 2.2308 0.695941 0.5
16 1.32246 0.696819 0.831207 0.5
17 0.46742 0.834872 1.52452 0.5
18 2.00035 2.05844 1.42802 0.5
19 2.27394 3.19737 1.61982 0.5
20 1.29683 0.578607 2.12839 0.5
21 1.88538 2.74698 0.784271 0.5
22 3.25728 0.134541 0.678977 0.5
23 3.79917 0.191556 1.47743 0.5
24 0.57694 2.2715 1.41084 0.5
25 2.06857 1.56322 0.47533 0.5
26 3.25418 0.206072 3.51637 0.5
27 1.33678 3.72265 3.18819 0.5
28 3.52401 0.152344 2.41903 0.5
29 0.95361 2.10292 3.00268 0.5
30 0.42366 0.374208 0.696842 0.5
31 0.306153 1.24598 2.67652 0.5
32 2.72593 2.20997 1.88781 0.5
33 1.75254 1.54803 2.75119 0.5
34 0.685617 3.04041 2.87528 0.5
35 0.127875 3.52219 0.627882 0.5
36 2.66414 0.813972 0.24313 0.5
37 2.73471 2.26588 2.95792 0.5
38 0.103389 2.14788 2.96805 0.5
39 0.168437 3.20127 1.57738 0.5
40 3.09871 3.20305 0.28512 0.5
41 1.7991 0.694307 3.02298 0.5
42 3.45726 1.49811 3.30189 0.5
43 1.51293 3.49812 2.29889 0.5
44 2.30026 1.15263 2.00679 0.5
45 2.81807 0.681906 2.76448 0.5
46 2.7255 3.95644 1.67812 0.5
47 0.587855 1.71622 3.77391 0.5
48 1.90657 2.53508 2.37956 0.5
49 2.23795 0.289096 3.51114 0.5
50 2.46688 1.31124 3.41495 0.5
