ITEM: TIMESTEP
840000
ITEM: NUMBER OF ATOMS
50
ITEM: BOX BOUNDS xy xz yz pp pp pp
0.0000000000000000e+00 3.9685030000000001e+00 0.0000000000000000e+00
0.0000000000000000e+00 3.9685030000000001e+00 0.0000000000000000e+00
0.0000000000000000e+00 3.9685030000000001e+00 0.0000000000000000e+00
ITEM: ATOMS id x y z radius
1 2.18377 2.4281 1.02498 0.5
2 2.87175 3.27663 0.88331 0.5
3 0.865777 2.72022 3.65012 0.5
4 3.64966 0.478519 3.7472 0.5
5 0.0877917 2.09061 1.5127 0.5
6 0.893592 1.12354 0.735774 0.5
7 1.03783 1.13817 2.03195 0.5
8 1.10592 1.7359 3.263 0.5
9 2.35266 2.32546 3.60271 0.5
10 3.202 0.316623 2.77971 0.5
11 2.23596 3.77077 1.38338 0.5
12 1.40355 3.57773 1.41972 0.5
13 1.05941 3.77951 3.41612 0.5
14 1.08967 3.22836 0.407801 0.5
15 2.19162 0.519054 0.861011 0.5
16 0.653611 0.360642 0.293734 0.5
17 3.16083 0.26711 1.25716 0.5
18 2.3087 1.56797 1.71747 0.5
19 2.37622 2.43682 2.12345 0.5
20 1.29295 0.327036 1.04907 0.5
21 3.19325 2.67708 1.70528 0.5
22 2.69585 0.0796814 0.250634 0.5
23 0.433046 3.90038 1.65447 0.5
24 1.50082 2.66417 3.02777 0.5
25 1.84139 3.27042 3.73267 0.5
26 2.77154 1.06294 3.37623 0.5
27 1.59067 0.927443 2.75373 0.5
28 0.368583 0.403414 2.9493 0.5
29 0.26576 2.56598 0.533697 0.5
30 3.5331 3.90974 0.439457 0.5
31 0.313572 2.17839 3.40112 0.5
32 3.10916 1.91117 1.07157 0.5
33 2.08892 1.94019 2.82663 0.5
34 0.337891 3.09471 3.04467 0.5
35 0.230389 3.44033 3.86656 0.5
36 3.83627 0.72641 0.730915 0.5
37 2.98851 1.95879 2.95958 0.5
38 3.74327 2.33735 2.50572 0.5
39 3.83352 3.28658 1.38802 0.5
40 3.1396 3.40737 3.69371 0.5
41 2.52211 1.02686 2.43741 0.5
42 0.516691 2.01589 2.53008 0.5
43 1.95166 0.753222 1.68536 0.5
44 3.22259 1.82979 2.07003 0.5
45 3.69302 1.26566 2.93845 0.5
46 2.171 0.098725 2.51992 0.5
47 0.17592 1.62032 0.309734 0.5
48 1.06268 3.83882 2.37256 0.5
49 2.88528 1.09115 0.564809 0.5
50 1.79956 1.35493 0.762543 0.5
