ITEM: TIMESTEP
0
ITEM: NUMBER OF ATOMS
200
ITEM: BOX BOUNDS xy xz yz pp pp pp
0.0000000000000000e+00 1.4638100000000000e+01 0.0000000000000000e+00
0.0000000000000000e+00 1.4638100000000000e+01 0.0000000000000000e+00
0.0000000000000000e+00 1.4638100000000000e+01 0.0000000000000000e+00
ITEM: ATOMS id x y z radius
25 10.3504 0.553994 1.13735 1.1
197 11.8267 0.570489 0.255187 0.5
73 12.4112 1.98062 1.26767 1.1
139 0.582866 3.33667 0.775886 0.5
190 6.66999 3.94026 1.22567 0.5
78 1.71606 4.81378 0.462077 1.1
3 7.09767 4.61872 1.02639 1.1
74 7.36853 4.55509 0.0553906 1.1
193 10.4003 4.83996 1.2899 0.5
67 8.80828 5.58284 0.571256 1.1
38 13.5385 7.20627 0.0793753 1.1
66 8.57501 8.15653 0.946379 1.1
87 12.8671 9.28789 0.877046 1.1
96 12.3046 10.3478 0.706421 1.1
148 4.83968 11.2248 0.0692293 0.5
30 0.881326 13.3212 0.0608484 1.1
97 1.31073 13.8168 0.173348 1.1
109 11.4774 14.1382 0.23037 0.5
114 10.8791 0.288387 1.71617 0.5
93 9.9769 2.40309 2.1779 1.1
185 13.2456 2.28116 2.28314 0.5
182 1.51137 4.50121 2.20935 0.5
11 6.27468 5.62819 1.60854 1.1
161 8.74565 6.91374 1.9489 0.5
112 8.55154 8.88212 2.43861 0.5
80 3.02214 13.6026 1.35261 1.1
172 9.16848 13.9972 1.98815 0.5
128 3.23583 3.97524 3.62018 0.5
88 14.5808 3.53624 2.85296 1.1
194 0.373945 5.1545 3.34506 0.5
26 12.6665 4.64153 3.75982 1.1
195 10.1461 5.65877 3.28552 0.5
81 0.265208 7.365 3.83949 1.1
82 5.50398 7.25961 3.68808 1.1
83 7.87468 6.65777 3.56316 1.1
174 2.41915 8.64178 3.11094 0.5
167 7.61699 8.51896 2.91776 0.5
156 5.81068 9.41518 3.14509 0.5
131 9.84755 9.46226 3.8485 0.5
86 7.7652 11.0204 3.46541 1.1
84 1.59549 12.9652 3.92426 1.1
176 7.08075 13.122 3.63999 0.5
166 14.0371 13.3815 3.19946 0.5
54 8.6312 1.00011 4.35985 1.1
106 2.6513 1.93902 4.74468 0.5
14 5.137 1.99039 4.50971 1.1
68 13.1393 1.92505 4.12933 1.1
27 13.3335 1.76218 4.15986 1.1
184 2.64182 3.64611 5.12025 0.5
122 4.67462 3.58427 4.98838 0.5
76 8.50943 3.77846 4.43176 1.1
77 5.98724 5.21378 4.33483 1.1
169 9.24978 4.50921 4.77149 0.5
89 9.8786 4.24882 5.3132 1.1
52 11.3296 4.19302 4.22082 1.1
160 1.88248 5.90188 5.08427 0.5
119 5.27576 6.67261 4.09727 0.5
163 14.4696 8.29263 4.80116 0.5
61 9.45305 10.1625 4.09279 1.1
19 10.9434 12.2232 4.2095 1.1
10 8.77825 13.311 4.43178 1.1
35 7.85954 1.04897 5.84202 1.1
12 12.7412 0.612628 5.85766 1.1
188 0.277071 1.82068 6.49016 0.5
137 2.23326 2.38765 6.22748 0.5
28 3.24009 2.4164 6.34106 1.1
104 3.80713 3.33785 6.02286 0.5
70 8.25072 3.07654 5.64923 1.1
135 9.86637 3.69323 6.6217 0.5
15 13.3232 3.57996 5.81918 1.1
123 7.35285 4.53367 6.01809 0.5
4 6.88264 6.22589 5.43761 1.1
191 4.00073 7.4348 5.93296 0.5
159 11.6503 7.57503 5.89559 0.5
34 13.0944 7.89377 5.43347 1.1
144 14.6254 6.87213 5.32944 0.5
165 2.11956 8.97379 6.0766 0.5
60 10.4354 8.9834 6.56145 1.1
31 12.6495 11.591 5.68513 1.1
91 8.08233 12.7067 6.11278 1.1
107 10.0759 12.6457 5.96337 0.5
175 12.8569 12.9567 6.28434 0.5
147 2.06934 13.9513 6.45405 0.5
158 5.09423 0.409798 7.56056 0.5
29 8.86645 2.63681 7.3866 1.1
50 12.0498 2.19955 6.71649 1.1
140 12.4068 1.82159 7.19596 0.5
42 7.49826 3.92841 6.92947 1.1
48 10.5614 3.7281 7.10496 1.1
187 7.09851 4.18623 7.21325 0.5
133 11.9732 4.42401 7.43927 0.5
173 10.7157 5.54406 7.44156 0.5
20 3.12018 7.24939 7.6695 1.1
59 3.49646 7.60123 7.1764 1.1
7 9.98327 6.83483 7.79842 1.1
92 7.26683 7.98622 7.70939 1.1
196 4.87358 10.0321 7.14948 0.5
115 6.66684 9.5922 6.70065 0.5
155 9.11262 11.9195 7.90598 0.5
51 9.61951 11.9151 7.5318 1.1
44 1.37073 12.1581 7.65816 1.1
132 10.6107 12.2077 6.71489 0.5
120 5.20314 1.23991 9.18039 0.5
6 0.87724 3.21259 8.68225 1.1
100 12.5611 3.88145 8.17593 1.1
153 12.8851 3.03841 8.81328 0.5
143 4.98132 5.74878 8.25053 0.5
16 5.76432 5.99787 8.29541 1.1
121 9.27864 6.45946 8.05833 0.5
146 10.9369 5.86989 9.0798 0.5
126 0.421095 7.1354 9.27603 0.5
168 1.14583 8.85025 8.36431 0.5
127 6.47258 8.96435 8.51724 0.5
79 7.92898 11.7845 9.22531 1.1
85 10.4643 11.2819 8.01671 1.1
45 12.4405 10.9336 8.17452 1.1
110 7.37162 12.5675 8.17629 0.5
1 13.0459 12.7042 8.35083 1.1
98 0.477204 13.3244 8.70206 1.1
21 12.7934 14.4827 8.11648 1.1
108 13.8534 0.7418 10.4173 0.5
178 14.6181 0.944674 9.44082 0.5
33 2.72879 1.68939 10.2606 1.1
17 7.72636 2.37136 10.4769 1.1
57 1.48081 3.22921 9.87322 1.1
8 13.1167 2.81812 9.8088 1.1
152 6.42101 5.81248 10.3695 0.5
134 7.82155 6.6294 9.6699 0.5
113 13.7501 5.6914 9.96522 0.5
90 6.51517 7.51429 9.84834 1.1
186 6.23656 9.06376 10.5529 0.5
94 8.67085 8.62216 10.1285 1.1
141 2.53859 10.6802 9.49957 0.5
117 12.8219 10.6741 9.33153 0.5
103 13.7243 11.3029 9.84983 0.5
157 1.42822 12.2941 9.37611 0.5
22 1.23769 1.03969 10.7528 1.1
46 10.5865 0.917763 10.9187 1.1
53 3.01362 2.04394 11.5206 1.1
199 4.35839 2.36706 11.4905 0.5
164 7.94414 3.11691 10.8226 0.5
162 9.68179 4.80481 10.7388 0.5
62 3.03479 6.56414 10.7657 1.1
99 6.29217 6.8298 11.1315 1.1
189 11.5832 7.11987 11.7426 0.5
9 2.20748 8.15019 11.4814 1.1
18 3.24572 9.19441 10.7334 1.1
71 3.82922 8.67097 10.6833 1.1
105 3.74841 11.8134 11.2851 0.5
37 0.412727 12.8751 11.2317 1.1
75 8.74946 12.4797 11.8246 1.1
63 11.5296 12.909 10.6924 1.1
124 11.3257 12.4352 11.0364 0.5
130 12.5642 12.3011 10.688 0.5
180 0.0435577 0.168816 12.1382 0.5
116 6.89371 2.05359 12.7541 0.5
171 6.82926 2.03876 12.2287 0.5
36 9.02669 2.34799 13.0504 1.1
23 14.1261 1.81757 12.8196 1.1
138 2.85429 2.92973 12.0227 0.5
24 1.16824 4.88769 13.0492 1.1
95 3.07221 6.05385 12.1862 1.1
151 7.75805 7.91861 13.1326 0.5
49 10.0085 7.06156 12.5895 1.1
101 0.768701 8.75643 12.4481 0.5
200 0.695607 9.86954 13.0929 0.5
111 11.0495 10.1595 12.0075 0.5
125 9.9687 10.9521 12.4721 0.5
39 1.99347 12.33 12.8241 1.1
43 2.82267 13.1042 12.5279 1.1
150 6.66183 13.2009 13.1701 0.5
179 9.4549 11.979 13.1505 0.5
192 0.466793 14.01 12.4631 0.5
56 3.9541 14.2949 13.2151 1.1
183 10.2528 14.4116 13.1367 0.5
40 3.68246 1.21146 13.9886 1.1
41 3.19206 0.315229 13.6944 1.1
5 4.24681 0.703673 13.6871 1.1
13 8.44047 1.12177 14.4172 1.1
129 8.45439 0.838723 14.5578 0.5
58 1.78216 3.2861 14.6131 1.1
149 7.12636 3.874 14.6341 0.5
65 0.852077 4.7963 14.0159 1.1
142 1.50531 5.10636 14.0139 0.5
72 2.75596 4.46798 14.4638 1.1
2 2.25004 6.13407 13.8634 1.1
118 2.3528 5.97816 13.6987 0.5
154 1.87466 6.18113 14.245 0.5
177 4.69215 5.44519 14.5109 0.5
32 7.11777 5.78659 14.3744 1.1
102 6.69454 6.74113 13.9909 0.5
170 6.95062 7.06516 14.5802 0.5
47 7.52035 9.15109 14.482 1.1
145 1.3401 9.67973 13.962 0.5
55 12.2941 9.42193 14.0983 1.1
136 12.0677 10.1971 13.6279 0.5
198 14.5977 9.37928 14.4859 0.5
64 10.2483 11.5078 13.4685 1.1
69 2.33319 13.1679 14.1796 1.1
181 10.96 12.9519 14.2332 0.5
ITEM: TIMESTEP
10000
ITEM: NUMBER OF ATOMS
200
ITEM: BOX BOUNDS xy xz yz pp pp pp
0.0000000000000000e+00 1.4638100000000000e+01 0.0000000000000000e+00
0.0000000000000000e+00 1.4638100000000000e+01 0.0000000000000000e+00
0.0000000000000000e+00 1.4638100000000000e+01 0.0000000000000000e+00
ITEM: ATOMS id x y z radius
114 3.04697 14.477 0.971664 0.5
187 3.50957 1.38804 0.890367 0.5
156 8.68633 0.215683 0.708907 0.5
179 12.5599 13.8426 0.453619 0.5
39 0.271992 1.72338 0.139775 1.1
95 2.37802 2.42036 14.5185 1.1
23 9.53065 2.30871 0.928621 1.1
157 12.3764 1.73019 1.39452 0.5
3 4.24359 3.41023 0.231151 1.1
86 6.21246 4.10123 0.617226 1.1
88 14.2388 5.23747 0.538996 1.1
176 7.28464 5.1786 1.33913 0.5
189 9.57475 4.3949 0.330432 0.5
65 9.85759 6.12351 0.245624 1.1
184 7.10715 7.35699 0.655863 0.5
155 12.4248 8.6102 0.975164 0.5
200 0.484403 8.31394 0.844892 0.5
66 5.25428 10.0726 13.9893 1.1
177 7.55866 9.95669 1.2658 0.5
148 6.91811 9.86685 0.182428 0.5
129 8.744 9.86306 1.68594 0.5
170 10.1779 9.86092 0.341948 0.5
87 13.7484 9.60655 1.01627 1.1
2 10.8446 12.0082 1.62094 1.1
121 0.28963 12.4705 0.179016 0.5
58 12.7398 11.9032 1.35469 1.1
199 2.68458 13.7458 14.1469 0.5
181 9.95148 13.2996 0.76324 0.5
195 9.12468 13.7711 14.4506 0.5
172 9.98259 0.323427 0.56249 0.5
6 14.015 0.168765 1.69258 1.1
124 3.86145 2.2747 1.5633 0.5
123 5.35389 2.41676 1.91908 0.5
154 6.20155 2.64633 2.35979 0.5
68 13.5857 2.97016 1.83665 1.1
198 2.95921 5.30671 1.82772 0.5
122 5.98248 5.60711 1.19945 0.5
159 11.5438 5.38688 3.22224 0.5
180 13.7528 5.66557 2.5521 0.5
174 0.159188 6.40839 1.84852 0.5
26 3.37584 8.10938 1.23535 1.1
69 8.6084 8.01793 1.59647 1.1
118 11.7592 8.0127 1.96083 0.5
153 13.9478 7.69559 2.38648 0.5
34 0.61159 9.26133 2.14819 1.1
52 6.36489 11.5599 1.69234 1.1
137 13.357 13.1192 2.69457 0.5
10 9.6991 1.17625 3.70953 1.1
14 4.69994 1.24279 2.74242 1.1
146 10.5557 2.23247 2.36686 0.5
107 12.604 3.45717 3.35719 0.5
77 3.94155 3.13509 3.1345 1.1
132 5.35553 4.74026 2.77452 0.5
38 8.91168 5.39936 3.12052 1.1
73 1.04785 6.11291 4.47316 1.1
158 6.36623 5.46523 2.90019 0.5
67 13.0687 7.79651 3.76824 1.1
196 6.39353 8.54791 3.18109 0.5
61 9.18269 9.41854 3.29194 1.1
82 5.17979 9.46815 2.12002 1.1
80 2.36443 12.4228 3.1556 1.1
96 10.4594 11.9788 3.73668 1.1
91 2.93777 0.179238 2.67763 1.1
53 2.2954 1.26671 5.11873 1.1
188 3.31072 2.67693 4.89522 0.5
33 5.70327 2.16843 4.38594 1.1
143 0.285645 4.72693 4.75342 0.5
128 1.91876 3.42476 5.01165 0.5
54 8.0671 3.76489 4.68994 1.1
18 3.31133 6.18651 4.84627 1.1
190 4.52229 5.13385 4.86181 0.5
119 6.82751 4.8067 5.55191 0.5
193 10.6777 3.97452 4.98325 0.5
4 8.8519 6.25718 5.05585 1.1
84 5.89747 6.93115 4.69308 1.1
20 10.4519 7.0289 3.89451 1.1
185 7.33299 10.3801 4.71241 0.5
167 8.82655 10.2237 4.58149 0.5
31 12.7913 9.41289 5.56781 1.1
19 12.2202 11.3816 5.09212 1.1
135 13.6282 10.6089 4.96193 0.5
112 7.80407 12.1692 4.98218 0.5
144 3.27547 14.0922 6.3034 0.5
59 6.38791 0.864273 5.73155 1.1
51 10.4079 0.53724 6.4302 1.1
12 13.2054 14.5129 5.24472 1.1
15 2.03137 2.28765 6.97251 1.1
50 8.73027 1.69132 6.07602 1.1
55 0.11157 1.9945 5.19656 1.1
76 9.06791 5.1626 6.81361 1.1
16 2.25504 9.08646 5.9286 1.1
90 4.48211 9.92798 6.30116 1.1
115 7.84745 8.97708 6.34269 0.5
35 0.731589 10.7644 5.48816 1.1
60 9.18673 10.8865 5.98459 1.1
70 5.92101 11.785 6.29662 1.1
178 7.98699 12.5686 5.96438 0.5
98 2.99576 0.5999 7.565 1.1
147 0.0252139 2.33738 7.3802 0.5
21 11.9695 1.43105 8.21219 1.1
48 6.03339 3.13403 6.46922 1.1
100 8.78034 2.67622 8.07231 1.1
7 12.4917 6.08354 7.6385 1.1
136 1.34639 7.6664 7.85491 0.5
28 3.51952 7.44922 7.57764 1.1
173 13.4453 7.99879 6.74408 0.5
149 1.56922 8.17297 7.05198 0.5
89 9.89621 10.2215 8.17305 1.1
85 14.5214 9.51263 7.00705 1.1
43 5.31645 10.896 8.66451 1.1
44 0.137403 0.595821 7.55343 1.1
92 7.48559 13.4202 7.21581 1.1
110 4.15461 0.0575258 9.39784 0.5
27 9.33455 0.341284 9.34812 1.1
175 13.005 0.640619 9.47427 0.5
46 2.68619 4.64841 8.13581 1.1
130 1.70078 6.14677 6.4751 0.5
134 8.55171 7.18108 7.07921 0.5
111 14.4593 6.25414 7.95387 0.5
103 1.40786 9.04001 8.0461 0.5
161 0.639642 9.19423 8.61686 0.5
116 4.29024 9.53473 8.78959 0.5
102 7.97095 9.71868 8.51969 0.5
165 6.79488 11.2585 9.10604 0.5
94 8.02422 11.4723 7.93901 1.1
75 11.1739 11.3303 8.67366 1.1
140 14.6274 11.7977 8.27374 0.5
63 12.9375 14.1233 8.04501 1.1
133 10.9463 0.748501 10.7365 0.5
163 12.3081 0.983675 10.6652 0.5
113 0.705742 3.3273 9.49748 0.5
36 12.0937 2.6707 10.5662 1.1
78 5.98193 4.08365 9.98965 1.1
81 12.9784 4.37356 8.87101 1.1
11 2.15204 6.04938 9.45443 1.1
106 13.7724 6.67912 10.1385 0.5
168 7.27239 6.82477 9.22155 0.5
1 1.96816 9.16326 9.93792 1.1
37 13.8956 10.4566 8.84432 1.1
108 4.62709 12.0304 10.1495 0.5
120 1.03652 13.4719 10.145 0.5
74 1.82605 11.8057 10.749 1.1
105 6.4159 13.4547 8.37024 0.5
127 6.30221 13.4968 10.5202 0.5
152 2.0937 0.924448 10.4925 0.5
29 0.249988 1.39279 10.8203 1.1
72 8.8316 4.32799 11.0847 1.1
139 3.07127 6.03724 11.2657 0.5
71 6.98311 7.36939 11.226 1.1
125 1.6147 8.14419 11.5101 0.5
56 10.8555 10.8949 11.2871 1.1
141 5.73656 10.9072 10.1833 0.5
32 5.7867 11.9214 12.1631 1.1
24 7.70952 12.4264 11.6448 1.1
126 12.6425 11.8138 10.7778 0.5
45 14.021 11.7855 12.1452 1.1
42 3.94504 13.3644 10.6836 1.1
64 7.85382 14.3955 11.0774 1.1
17 5.3132 0.333888 12.832 1.1
164 12.6221 0.489903 12.4448 0.5
194 0.140749 0.218624 12.7092 0.5
97 5.37319 3.04137 13.0904 1.1
8 0.116611 3.32215 12.995 1.1
13 3.22498 5.12453 12.5791 1.1
169 5.66143 4.40374 11.9193 0.5
162 7.89624 5.58632 11.8602 0.5
117 8.69112 4.07326 12.6524 0.5
99 13.6594 5.18323 12.1588 1.1
191 4.40865 9.12497 11.7463 0.5
160 6.65969 9.36651 13.0269 0.5
62 8.97491 7.64466 12.0593 1.1
138 6.98597 10.7021 14.0343 0.5
197 10.4929 11.8702 12.8146 0.5
131 12.867 14.1701 12.4934 0.5
47 2.03023 0.0650137 12.6384 1.1
142 3.81609 13.6497 13.4801 0.5
166 0.539371 0.185027 13.6378 0.5
101 2.84565 0.699616 14.2971 0.5
183 3.79178 0.213173 14.4727 0.5
93 9.06537 0.515478 13.665 1.1
171 1.41767 2.3645 12.6524 0.5
5 7.49324 1.77565 13.6871 1.1
49 12.9055 1.10222 14.0641 1.1
150 6.47909 3.02922 14.3166 0.5
9 12.0169 3.65245 0.0636659 1.1
30 6.61647 6.02139 14.3024 1.1
192 11.0443 4.33273 12.7449 0.5
40 0.192191 7.78903 13.7877 1.1
151 7.07282 8.59953 13.908 0.5
41 11.2853 8.02581 14.3601 1.1
83 3.30341 10.4032 13.5913 1.1
186 7.81252 10.2543 13.3403 0.5
57 1.16038 10.4845 14.5193 1.1
104 6.58071 12.2838 0.199837 0.5
25 11.5248 10.8756 14.2261 1.1
109 2.74605 12.3409 14.6538 0.5
79 8.1338 12.9707 13.4736 1.1
145 13.7156 12.4714 14.1072 0.5
182 7.43264 14.2938 14.0289 0.5
22 10.9235 13.9426 14.2946 1.1
ITEM: TIMESTEP
20000
ITEM: NUMBER OF ATOMS
200
ITEM: BOX BOUNDS xy xz yz pp pp pp
0.0000000000000000e+00 1.4638100000000000e+01 0.0000000000000000e+00
0.0000000000000000e+00 1.4638100000000000e+01 0.0000000000000000e+00
0.0000000000000000e+00 1.4638100000000000e+01 0.0000000000000000e+00
ITEM: ATOMS id x y z radius
14 2.45757 0.89575 0.932768 1.1
182 5.95908 1.19498 1.00344 0.5
172 10.0901 1.04731 0.42813 0.5
57 1.77705 3.47304 1.65248 1.1
123 4.82189 3.18241 0.620736 0.5
95 9.10318 3.75101 1.21291 1.1
77 12.0522 2.70008 0.284888 1.1
200 3.36629 4.58173 0.737828 0.5
189 7.76884 4.9711 1.074 0.5
184 9.90019 5.76873 0.873038 0.5
41 11.0753 8.78602 1.0416 1.1
35 13.3203 8.23441 1.33193 1.1
122 7.08558 9.99731 14.6107 0.5
87 10.0236 11.021 0.756047 1.1
52 14.1403 10.2753 0.236816 1.1
109 2.77569 10.6701 0.518759 0.5
18 6.54093 12.0812 0.00890531 1.1
101 13.3254 11.6246 1.28437 0.5
118 7.10949 13.7389 1.08413 0.5
22 8.65572 12.6219 0.307277 1.1
17 4.95 14.1484 1.14813 1.1
129 8.55626 14.6314 0.117309 0.5
59 7.21045 0.366401 2.27576 1.1
156 9.16164 0.157694 1.36556 0.5
33 5.46597 2.26806 2.3924 1.1
164 11.7455 1.19568 1.62418 0.5
55 4.20561 4.29209 2.04922 1.1
146 9.97631 3.1441 2.63872 0.5
198 2.56905 5.14792 2.11575 0.5
158 6.55658 4.63384 1.57473 0.5
88 11.4834 4.29208 1.76516 1.1
67 0.783543 5.24968 2.48969 1.1
155 12.793 5.73902 2.24936 0.5
153 14.135 6.8195 1.48157 0.5
86 4.74013 8.26431 2.21929 1.1
46 3.62984 10.3074 2.08142 1.1
61 7.41745 10.8411 2.21438 1.1
170 9.23154 9.76428 1.74016 0.5
6 1.36286 11.3499 2.46753 1.1
114 3.69634 11.6184 1.08466 0.5
183 4.78566 12.1737 1.60237 0.5
181 9.38625 12.2997 1.92074 0.5
91 3.38858 13.2582 2.37169 1.1
49 10.5364 14.1193 2.72844 1.1
39 13.8145 13.7896 1.65497 1.1
187 2.01382 2.1856 3.41391 0.5
150 8.48811 1.40455 3.49638 0.5
23 10.2782 1.84835 4.43243 1.1
48 6.91637 3.7747 3.33464 1.1
20 12.2782 4.19323 3.84493 1.1
107 13.6569 5.49512 2.93603 0.5
132 3.43579 5.44394 3.13254 0.5
69 9.02652 7.22593 4.16064 1.1
58 0.481031 8.45582 3.51287 1.1
167 7.40806 11.3726 3.75815 0.5
25 10.754 11.2935 3.93684 1.1
112 6.78907 12.3518 3.29048 0.5
179 9.70585 13.1319 3.95429 0.5
104 8.70411 14.2764 2.71674 0.5
174 1.08556 0.982701 4.14571 0.5
188 6.0227 2.49034 4.12882 0.5
154 7.16634 2.09034 4.2724 0.5
44 4.52105 4.28734 4.97005 1.1
38 5.66313 6.87207 4.38479 1.1
173 12.0009 6.62724 4.25698 0.5
73 1.04632 6.53856 4.663 1.1
176 2.46953 5.33009 4.65556 0.5
196 5.92011 8.44408 3.75537 0.5
180 13.5376 6.84666 4.86165 0.5
16 2.69174 8.39039 5.37404 1.1
28 4.27344 9.33831 4.2291 1.1
84 7.14671 9.41797 4.04124 1.1
135 11.9722 10.1303 4.40935 0.5
185 6.23127 10.8438 4.34596 0.5
12 1.80163 13.1749 4.81194 1.1
178 7.40296 13.2625 4.05476 0.5
80 5.03783 13.4198 4.61851 1.1
2 10.6169 14.4232 4.82233 1.1
137 12.631 13.704 4.08672 0.5
193 0.967222 14.6268 6.36487 0.5
92 8.87777 1.30523 5.71509 1.1
147 0.80105 1.81467 5.23938 0.5
105 5.442 2.30347 5.68552 0.5
157 11.2206 1.15848 5.55692 0.5
34 1.84125 3.7656 5.84482 1.1
68 11.3521 2.64403 6.56606 1.1
10 7.75851 4.82212 5.62419 1.1
128 12.9052 4.62673 6.45442 0.5
115 6.15147 6.20181 6.1137 0.5
134 9.87351 5.95729 4.98013 0.5
4 12.0684 5.98853 5.94222 1.1
143 13.6368 5.55581 5.30742 0.5
96 9.86608 8.91857 6.42609 1.1
103 1.49284 9.74087 6.38173 0.5
37 14.6471 9.27922 5.50975 1.1
116 3.22118 11.9023 5.18499 0.5
60 7.39224 10.7165 5.75728 1.1
19 12.3596 12.0236 5.48507 1.1
53 6.16717 0.782353 7.96031 1.1
63 14.0066 0.55199 7.67816 1.1
11 1.00918 1.87514 7.47245 1.1
29 4.08289 1.85682 6.97715 1.1
159 14.5473 3.0462 6.63357 0.5
7 0.132805 5.06182 7.75078 1.1
130 2.11281 4.40594 7.47089 0.5
119 5.28662 5.66093 6.71167 0.5
54 6.75139 5.72902 7.80446 1.1
149 1.86815 6.89054 7.77544 0.5
171 4.63204 7.00422 7.57084 0.5
43 6.84735 7.59873 6.4458 1.1
31 10.8803 6.88904 7.73041 1.1
51 8.12313 11.3306 7.71211 1.1
70 3.02624 13.628 6.9756 1.1
197 7.76099 1.0212 9.05356 0.5
113 2.13259 0.736162 8.08819 0.5
21 10.6161 1.82699 8.20399 1.1
64 2.86843 3.03024 8.94248 1.1
50 7.42063 2.75063 8.65317 1.1
76 9.79996 4.37382 7.72973 1.1
81 13.0276 4.32259 8.79403 1.1
111 1.32892 6.00777 8.42102 0.5
168 7.86175 6.61283 8.99442 0.5
120 0.35359 9.11238 8.35647 0.5
94 8.09229 9.80549 9.18987 1.1
42 2.37148 10.7204 7.45914 1.1
131 12.5046 11.6994 8.79566 0.5
71 6.56763 13.0684 7.80679 1.1
90 1.01778 14.1691 9.41973 1.1
144 3.94405 14.0836 8.89602 0.5
98 8.32798 13.5501 9.4015 1.1
75 3.11903 1.38162 10.4649 1.1
152 5.8191 0.343546 9.90505 0.5
27 10.1076 0.278492 9.4413 1.1
133 11.8689 0.844111 9.68224 0.5
175 13.5194 0.527884 9.46144 0.5
162 9.2794 2.19609 10.6138 0.5
99 0.0223081 3.024 9.24751 1.1
100 7.4814 4.62311 9.99608 1.1
106 11.034 5.20619 9.78548 0.5
102 5.69151 5.60422 10.2339 0.5
139 2.11352 7.21303 9.52271 0.5
85 12.1223 7.29865 9.35859 1.1
1 14.2981 7.39428 10.6252 1.1
169 5.93857 9.16441 9.90001 0.5
89 9.07324 7.94363 10.0094 1.1
26 4.89323 10.6956 9.92777 1.1
165 9.39083 9.43956 10.9144 0.5
24 11.8702 10.4444 10.0884 1.1
32 9.58268 11.2483 10.421 1.1
140 13.3381 10.9714 9.42692 0.5
108 5.39515 13.6116 10.4491 0.5
163 13.1232 13.4416 9.58847 0.5
110 4.38153 0.607824 11.5639 0.5
45 13.2845 0.0791082 11.237 1.1
126 0.488191 2.42389 10.6847 0.5
72 12.4197 2.27901 11.8543 1.1
47 1.40684 3.08978 11.8514 1.1
9 8.9697 3.80456 11.5013 1.1
15 4.9278 4.81436 11.5292 1.1
74 11.4048 5.60213 11.6475 1.1
13 2.31716 8.23923 11.1508 1.1
62 7.16242 7.05702 11.1691 1.1
136 13.0125 6.92697 12.0757 0.5
30 4.58797 8.99513 11.3018 1.1
161 13.9647 9.37526 11.0668 0.5
191 7.16971 13.4128 10.8215 0.5
93 11.3193 12.2078 11.15 1.1
127 6.79712 14.5179 10.1081 0.5
166 1.73621 1.31213 12.4995 0.5
5 6.65087 0.97961 11.7725 1.1
36 11.1056 0.911924 13.0583 1.1
194 0.00193802 2.94745 12.9265 0.5
78 6.81591 4.71176 12.3525 1.1
40 0.479988 8.36667 12.7527 1.1
160 9.04781 8.76734 12.3867 0.5
125 2.01459 10.1883 12.0078 0.5
148 7.33476 10.4513 12.6078 0.5
141 8.07028 9.75418 12.4051 0.5
56 11.3204 10.3788 12.3951 1.1
66 3.15885 11.8334 13.0142 1.1
79 7.29635 12.2831 12.0669 1.1
199 2.79237 14.0425 13.1354 0.5
195 9.28101 0.272226 14.0938 0.5
192 13.962 0.219232 14.5175 0.5
117 8.0391 2.88641 14.1684 0.5
65 10.1358 3.56565 13.1706 1.1
124 5.66131 6.37387 13.5766 0.5
8 13.2147 5.85544 14.5125 1.1
3 4.17324 7.63429 13.5166 1.1
97 8.36311 7.53114 14.2525 1.1
138 9.88224 7.74112 13.316 0.5
190 6.38571 9.33935 14.2867 0.5
151 7.5756 8.98811 13.3013 0.5
186 9.19485 8.99805 13.7955 0.5
82 4.30776 10.1121 13.3343 1.1
121 0.105199 11.7692 14.0549 0.5
142 2.26155 11.5495 0.0430077 0.5
177 8.29995 10.9423 13.3038 0.5
145 12.6424 12.2154 14.2514 0.5
83 1.24932 13.5855 13.9536 1.1
ITEM: TIMESTEP
30000
ITEM: NUMBER OF ATOMS
200
ITEM: BOX BOUNDS xy xz yz pp pp pp
0.0000000000000000e+00 1.4638100000000000e+01 0.0000000000000000e+00
0.0000000000000000e+00 1.4638100000000000e+01 0.0000000000000000e+00
0.0000000000000000e+00 1.4638100000000000e+01 0.0000000000000000e+00
ITEM: ATOMS id x y z radius
182 5.9376 0.998188 0.356681 0.5
166 2.75114 2.48183 14.4003 0.5
33 5.47475 2.51339 1.09964 1.1
59 8.47246 1.90308 0.66749 1.1
172 10.188 1.55919 0.177115 0.5
67 1.45113 2.89829 0.948053 1.1
78 7.43108 5.17132 0.718564 1.1
95 10.9579 5.48571 0.137494 1.1
184 10.7124 6.99043 0.810909 0.5
86 1.80699 8.91274 14.5507 1.1
109 3.47222 10.2833 0.150086 0.5
122 6.04875 9.96774 0.426842 0.5
142 2.011 11.3409 0.406812 0.5
52 13.5092 11.5006 1.31164 1.1
183 5.95773 13.435 1.13493 0.5
22 8.15155 14.3777 0.544101 1.1
156 11.4021 13.6453 0.657815 0.5
164 11.239 0.637767 2.29846 0.5
23 14.5895 1.59414 1.89356 1.1
153 0.0716361 4.27133 1.4853 0.5
198 3.46357 5.50898 1.66857 0.5
155 13.0324 6.40323 1.47795 0.5
132 3.5305 7.15931 2.22805 0.5
84 7.12572 8.70931 1.02096 1.1
6 0.765517 10.0071 2.43525 1.1
38 5.88747 10.5424 2.15034 1.1
170 9.02448 9.77855 2.25756 0.5
196 4.90787 12.0317 1.87328 0.5
41 11.7034 11.217 2.60849 1.1
192 11.2325 13.7056 1.62966 0.5
72 13.3388 14.0881 2.00555 1.1
57 3.94391 1.43998 3.69631 1.1
17 7.09658 1.15537 3.0534 1.1
49 9.13597 0.209974 2.96163 1.1
188 6.34646 2.41232 3.66106 0.5
150 8.51018 1.32969 3.9156 0.5
77 12.3615 1.95246 2.935 1.1
176 0.612442 2.7478 3.59235 0.5
48 8.62568 3.00853 3.62468 1.1
44 4.25964 4.86205 3.28243 1.1
158 6.76953 4.85696 3.79639 0.5
88 12.5892 4.37323 2.84007 1.1
107 14.3608 4.25977 4.03784 0.5
73 2.41592 6.32795 3.01038 1.1
189 8.46539 6.1816 3.22235 0.5
4 13.0253 6.43541 3.97392 1.1
173 10.9684 6.63463 3.30477 0.5
35 12.6682 8.62571 3.4128 1.1
28 2.71995 10.2063 3.9834 1.1
101 9.96416 10.5892 3.36164 0.5
61 6.21489 12.6482 3.36031 1.1
87 9.42873 12.3318 3.46913 1.1
112 5.2239 13.9121 3.77245 0.5
104 8.20588 13.2965 2.9012 0.5
39 11.6672 13.6857 3.59045 1.1
174 1.11681 0.52421 4.39325 0.5
147 0.642663 1.23297 5.15086 0.5
179 9.06128 0.878283 4.95703 0.5
187 1.18458 2.22433 4.24358 0.5
105 6.25023 2.5977 4.77065 0.5
154 7.24335 2.03048 4.3867 0.5
146 9.13277 1.84643 4.63212 0.5
29 4.82192 3.5449 4.90905 1.1
180 1.58635 5.42577 4.90397 0.5
69 10.0255 6.39816 4.65614 1.1
37 1.06513 7.7667 4.14978 1.1
43 8.05704 8.14459 4.38487 1.1
185 5.6579 10.4679 4.44107 0.5
25 7.27268 10.713 4.62997 1.1
42 0.707939 11.2512 4.50144 1.1
167 5.88343 12.0074 4.84328 0.5
19 12.9756 11.7216 4.69472 1.1
91 3.95507 13.0199 4.18282 1.1
178 5.30397 12.8578 5.27386 0.5
71 7.69151 12.8384 4.97421 1.1
80 5.99989 0.223274 4.81979 1.1
181 9.42932 13.6379 4.39235 0.5
137 13.2935 14.1517 4.1162 0.5
11 2.18614 1.70584 5.67645 1.1
20 0.95669 3.52272 5.75285 1.1
68 12.9218 3.26687 6.27093 1.1
76 7.32078 4.14135 5.08722 1.1
10 5.7638 6.08109 6.62752 1.1
134 11.7974 5.58068 5.32621 0.5
143 14.438 6.44853 5.84942 0.5
115 4.43293 6.90539 5.68909 0.5
96 10.717 7.84158 6.46508 1.1
135 11.2891 9.52677 5.97556 0.5
24 13.4391 9.88392 6.36219 1.1
60 5.456 11.837 6.52565 1.1
116 3.64435 12.2241 5.80814 0.5
193 0.732716 13.8031 6.147 0.5
12 4.37099 14.1417 6.09748 1.1
2 10.607 13.6029 6.62818 1.1
157 0.686112 2.2194 6.69982 0.5
92 7.15954 1.90534 7.71316 1.1
159 14.262 2.24215 7.15955 0.5
34 3.21358 4.44216 7.66186 1.1
128 12.8227 4.63895 7.301 0.5
130 1.55872 5.38984 7.17429 0.5
119 4.57608 5.22527 7.49872 0.5
31 9.48957 5.4252 7.63228 1.1
7 0.466204 7.33505 7.0812 1.1
13 1.06732 10.0582 6.59092 1.1
51 7.27942 10.2 7.47343 1.1
63 13.5199 12.4063 7.4179 1.1
26 7.02818 13.8114 7.97217 1.1
144 3.14349 0.186613 8.42805 0.5
152 5.02612 0.128188 8.06807 0.5
127 5.0161 1.37927 8.38183 0.5
133 11.1226 0.371726 8.40399 0.5
64 0.666845 1.37778 8.64359 1.1
197 7.89505 2.59146 9.0462 0.5
99 12.5579 2.01954 8.48892 1.1
149 2.4533 4.99865 9.22353 0.5
53 6.82767 4.47779 8.22323 1.1
81 12.7453 4.91258 8.99065 1.1
16 3.70078 6.50098 8.10419 1.1
168 8.10262 5.55242 8.5473 0.5
139 0.557332 8.06224 8.6417 0.5
171 5.56139 6.83665 8.02509 0.5
103 0.0453312 8.7904 8.13022 0.5
120 13.3187 8.70762 8.12932 0.5
140 0.00962099 9.75972 8.59479 0.5
32 10.1733 10.8108 9.09595 1.1
131 12.3851 11.4084 8.82439 0.5
98 9.47621 12.8321 8.44853 1.1
108 4.06757 14.0449 8.23718 0.5
175 12.8934 14.2513 8.67863 0.5
5 6.43214 1.16843 9.86372 1.1
21 9.21999 0.815718 10.0591 1.1
9 14.06 3.07382 10.1013 1.1
54 4.53342 4.69515 9.81964 1.1
111 0.487411 5.34916 9.33096 0.5
94 6.46477 5.31108 10.7386 1.1
50 9.16257 5.76871 9.99707 1.1
106 10.7186 5.32464 9.95791 0.5
62 1.33535 7.4919 10.2725 1.1
85 13.9909 6.9842 9.79908 1.1
169 5.98677 9.55855 9.35524 0.5
70 0.494838 11.6716 10.277 1.1
30 3.90078 12.2377 10.4947 1.1
163 13.2662 12.7789 9.44272 0.5
18 4.19775 14.3689 9.79508 1.1
191 5.8891 14.2491 9.58772 0.5
162 9.4962 13.8995 10.6596 0.5
45 14.023 14.2575 10.1346 1.1
65 7.55511 0.0050816 11.5366 1.1
126 1.96384 2.38118 10.6424 0.5
75 5.24076 2.45387 11.3781 1.1
194 14.2953 3.54041 11.8754 0.5
47 1.3294 4.21857 11.5777 1.1
15 3.41123 6.1618 11.3351 1.1
102 5.03434 5.4023 11.6279 0.5
165 9.9376 9.18385 11.5829 0.5
161 14.3183 9.17645 11.4355 0.5
79 5.13076 8.963 11.0683 1.1
125 1.34042 12.4544 11.8035 0.5
113 0.837196 13.6535 10.7059 0.5
110 4.158 1.07571 12.3667 0.5
90 2.39404 2.14824 12.7491 1.1
89 8.83829 4.95965 12.9059 1.1
1 0.550701 6.6616 12.7335 1.1
100 5.00475 5.43933 13.6129 1.1
82 3.61948 7.63426 12.6878 1.1
3 7.50852 7.24466 12.1024 1.1
138 11.4713 7.88627 12.1299 0.5
151 7.87275 9.05677 12.9194 0.5
160 9.02508 9.0001 12.0961 0.5
148 3.20687 9.5181 11.9676 0.5
141 8.12401 9.98063 12.3212 0.5
40 2.85841 12.0957 12.434 1.1
93 14.485 10.6239 12.1757 1.1
36 7.70078 12.486 12.6883 1.1
27 10.8361 12.7747 12.8605 1.1
66 0.693021 14.2291 12.2299 1.1
199 2.85375 13.9608 13.1531 0.5
118 5.48665 0.235721 14.4444 0.5
195 9.46523 1.02837 13.9339 0.5
74 11.4104 0.515558 14.0624 1.1
123 5.31392 3.07175 14.2256 0.5
117 7.98729 2.91156 14.1278 0.5
14 14.186 3.18654 13.7462 1.1
200 3.18465 4.79099 14.1253 0.5
8 12.1255 4.56233 12.9983 1.1
58 2.00267 5.94227 14.5082 1.1
124 7.49657 6.72177 13.8142 0.5
136 12.6334 6.57096 13.3921 0.5
55 6.03263 7.39576 14.5483 1.1
190 4.92977 9.16288 13.3851 0.5
97 10.5337 8.50283 13.8226 1.1
186 12.5602 8.58095 14.4866 0.5
177 7.01709 9.60055 13.8016 0.5
121 0.14891 11.4972 13.9809 0.5
56 9.16047 10.6001 13.9312 1.1
114 2.81385 12.7186 14.1713 0.5
145 12.5895 12.1669 14.1886 0.5
46 4.29554 13.7689 14.189 1.1
129 6.34719 14.5092 13.4251 0.5
83 14.1757 13.4942 13.9696 1.1
ITEM: TIMESTEP
40000
ITEM: NUMBER OF ATOMS
200
ITEM: BOX BOUNDS xy xz yz pp pp pp
0.0000000000000000e+00 1.4638100000000000e+01 0.0000000000000000e+00
0.0000000000000000e+00 1.4638100000000000e+01 0.0000000000000000e+00
0.0000000000000000e+00 1.4638100000000000e+01 0.0000000000000000e+00
ITEM: ATOMS id x y z radius
46 2.06781 0.416292 0.298245 1.1
166 3.37504 2.5682 0.031165 0.5
33 4.49594 1.5461 0.658839 1.1
172 10.1939 1.59018 0.161111 0.5
198 4.06949 4.05723 0.71802 0.5
89 9.95368 4.88935 0.999982 1.1
58 2.85232 5.39692 0.018416 1.1
78 8.01085 6.62311 1.02685 1.1
155 12.6961 5.52618 1.28938 0.5
184 9.94543 6.66213 0.125123 0.5
186 13.9461 7.76925 0.68781 0.5
109 3.49142 10.2726 0.139923 0.5
82 6.07944 9.52767 0.651462 1.1
142 2.0041 11.3351 0.416841 0.5
38 7.09033 11.9027 14.5465 1.1
156 11.6027 12.8269 0.507611 0.5
183 5.91887 13.5653 0.997184 0.5
22 6.95812 14.4978 0.212275 1.1
17 6.64038 2.17993 2.11585 1.1
88 12.736 3.2919 1.22437 1.1
153 0.13461 4.3553 1.36374 0.5
44 6.27397 5.1921 1.53687 1.1
189 8.83953 4.57398 2.14179 0.5
158 8.09328 5.83131 2.6305 0.5
132 4.4434 7.91846 1.47637 0.5
35 11.248 7.2876 1.34949 1.1
84 9.44353 10.4197 1.4429 1.1
170 10.2369 9.77479 2.69274 0.5
52 12.6558 11.3353 1.93123 1.1
42 2.85683 12.1575 1.68043 1.1
196 4.868 12.257 1.74366 0.5
104 8.21536 12.8273 2.26256 0.5
192 10.21 13.7922 2.49812 0.5
74 11.908 14.5227 2.33847 1.1
23 0.756295 0.229837 2.80159 1.1
112 4.70013 0.306263 2.76086 0.5
164 11.0339 0.916733 3.48427 0.5
176 0.126089 2.64974 3.18864 0.5
11 2.24995 1.76357 3.58379 1.1
49 8.83921 1.61986 3.67157 1.1
57 4.88738 3.15581 3.09626 1.1
69 10.2715 4.52761 3.14055 1.1
173 11.0378 6.13393 2.79173 0.5
43 9.53584 7.445 3.04285 1.1
6 13.4515 8.78494 3.01022 1.1
28 3.22813 9.59025 3.63575 1.1
41 10.619 12.1914 3.07286 1.1
61 6.32473 14.1216 2.62844 1.1
174 1.11767 0.511571 4.40007 0.5
150 8.62113 0.896658 5.24619 0.5
77 13.921 0.896354 4.26024 1.1
147 1.00758 1.58755 5.25745 0.5
187 0.865375 2.53607 4.48608 0.5
80 6.36216 2.53112 4.82578 1.1
188 6.04989 4.06687 4.03039 0.5
105 6.78352 4.06991 5.01075 0.5
180 2.21941 4.92962 5.01125 0.5
76 8.31973 5.44178 4.25938 1.1
107 14.597 4.27108 4.51119 0.5
37 0.404551 5.76973 4.10847 1.1
73 4.18423 6.4887 4.22148 1.1
4 12.6645 6.2292 4.08338 1.1
101 8.89268 10.612 4.19522 0.5
19 11.7403 9.90735 5.02938 1.1
13 1.04491 10.522 5.00779 1.1
72 0.046933 13.1479 3.9505 1.1
91 2.22897 13.3109 5.26 1.1
178 5.97174 13.9072 4.47673 0.5
87 9.20365 13.9614 4.37046 1.1
39 11.8703 14.3806 4.83472 1.1
12 4.73153 0.0520114 5.44287 1.1
179 8.864 0.316488 6.03455 0.5
181 9.81713 0.514292 5.34804 0.5
146 10.2121 1.44077 5.43731 0.5
144 2.88724 2.70721 6.08555 0.5
20 0.774961 3.78871 6.03843 1.1
154 7.94433 2.88968 5.605 0.5
48 9.61253 2.84731 5.90379 1.1
29 4.05699 5.02198 5.809 1.1
134 11.9191 5.21682 5.46987 0.5
143 14.3962 6.43459 5.70608 0.5
115 3.79873 7.19483 5.63661 0.5
10 5.49463 7.28037 6.35667 1.1
7 0.0751764 8.95626 6.09497 1.1
185 6.07493 9.6865 5.66378 0.5
135 11.0214 9.57475 6.51693 0.5
116 2.55869 11.6834 6.37772 0.5
25 8.02538 11.7105 5.53516 1.1
193 0.45363 12.842 6.70748 0.5
167 5.01705 12.5547 5.40241 0.5
64 0.387385 14.3578 6.1665 1.1
71 7.25437 14.4965 6.20986 1.1
137 13.3746 14.4817 5.85588 0.5
2 10.2406 0.194938 6.92694 1.1
157 0.855024 1.79698 7.05753 0.5
159 0.0610093 1.36084 7.80558 0.5
127 3.37619 2.27016 7.85749 0.5
92 6.34515 3.23466 7.44022 1.1
68 13.8951 2.72744 7.59643 1.1
130 1.17996 5.2904 7.12541 0.5
81 11.4005 3.97387 7.78605 1.1
128 13.1333 4.22977 6.79473 0.5
31 8.66184 6.61045 7.1082 1.1
96 12.9472 5.99055 6.70493 1.1
50 10.5476 8.12389 7.50238 1.1