ITEM: TIMESTEP
950000
ITEM: NUMBER OF ATOMS
1000
ITEM: BOX BOUNDS xy xz yz pp pp pp
0.0000000000000000e+00 8.3788359999999997e+00 0.0000000000000000e+00
0.0000000000000000e+00 8.3788359999999997e+00 0.0000000000000000e+00
0.0000000000000000e+00 8.3788359999999997e+00 0.0000000000000000e+00
ITEM: ATOMS id x y z radius
1 2.56945 7.04945 4.96922 0.25
2 4.72203 5.22968 4.94315 0.25
3 6.97328 4.70047 3.25141 0.25
4 7.38079 1.12257 5.84378 0.5
5 1.27249 5.48709 6.28202 0.25
6 8.27706 1.79304 3.44669 0.25
7 4.21145 3.2529 6.77179 0.25
8 4.78158 7.77373 3.08095 0.25
9 0.712339 6.096 3.87711 0.25
10 4.16422 1.50431 3.40175 0.25
11 5.44607 8.3413 7.7301 0.25
12 5.08933 3.45409 1.42762 0.25
13 0.52213 2.46387 7.41098 0.25
14 3.77367 2.81953 7.33823 0.25
15 0.0616599 3.31075 6.11952 0.25
16 7.5279 1.04375 6.63403 0.25
17 0.90795 5.34841 8.24239 0.25
18 6.18107 7.50684 8.09402 0.25
19 4.80867 2.0599 7.62004 0.25
20 7.72906 1.45095 0.602395 0.25
21 4.79662 4.22094 1.80113 0.25
22 4.22236 3.2416 1.22564 0.25
23 2.02561 3.4243 2.11873 0.25
24 2.8768 2.05428 4.67738 0.25
25 2.6902 4.42697 2.9685 0.25
26 0.37629 0.070597 5.87696 0.25
27 3.90191 0.506792 6.05285 0.25
28 4.31212 2.13588 8.23723 0.25
29 5.05146 7.00042 3.09882 0.25
30 7.45085 7.41334 2.37736 0.25
31 2.78338 0.269286 7.97754 0.25
32 0.940967 2.70625 7.22207 0.25
33 7.65322 0.183042 5.28244 0.25
34 1.93151 5.60457 1.60191 0.25
35 8.00403 0.108401 4.58481 0.25
36 6.87794 1.9794 5.82151 0.5
37 4.14654 1.48714 2.16015 0.25
38 2.13892 3.38498 4.31797 0.25
39 6.04523 2.65792 4.76343 0.25
40 5.17828 7.74835 3.33402 0.25
41 6.60917 2.17345 2.92253 0.25
42 5.52179 6.06102 5.66055 0.25
43 3.50662 8.01098 4.63936 0.25
44 4.08077 8.14567 5.24559 0.25
45 5.60192 4.05028 3.96544 0.25
46 3.12744 6.02791 1.37861 0.5
47 4.62358 0.897979 5.15084 0.25
48 8.12376 6.19264 6.77527 0.25
49 7.29051 6.7277 4.75512 0.25
50 7.78353 1.33646 1.09821 0.25
51 2.62166 3.44462 4.38817 0.25
52 0.671493 1.48536 2.41847 0.25
53 6.56861 5.08852 6.82246 0.25
54 5.8595 3.22859 4.02194 0.25
55 1.61948 1.08866 5.94864 0.25
56 1.31009 7.40563 0.283727 0.25
57 4.76499 0.796472 2.00875 0.25
58 2.34101 2.15605 4.05731 0.25
59 4.90358 1.19103 6.09182 0.25
60 7.76826 5.52539 5.29878 0.25
61 5.16412 7.92529 7.83276 0.25
62 5.33546 1.82991 0.0467828 0.5
63 7.49613 6.61954 1.15562 0.25
64 1.01722 6.23607 0.763843 0.25
65 4.27878 0.107198 1.79201 0.25
66 2.49392 4.77378 7.21376 0.25
67 8.22531 4.91436 7.48738 0.25
68 7.28305 0.662618 6.40852 0.25
69 0.486949 5.49603 7.59677 0.25
70 1.61429 4.8286 1.03602 0.25
71 8.13588 1.32776 0.267302 0.25
72 6.37287 6.29198 3.52444 0.25
73 0.654362 7.45696 6.86339 0.25
74 7.42934 5.62427 6.86382 0.25
75 7.2643 0.0694105 3.41558 0.25
76 7.74505 6.64475 4.49094 0.25
77 5.57843 2.82234 5.34043 0.25
78 5.33551 3.82127 1.12714 0.25
79 7.71684 5.21838 4.44613 0.25
80 5.72529 3.31635 5.39954 0.25
81 7.34818 1.59265 0.994277 0.25
82 8.06971 2.9987 6.26839 0.25
83 4.42751 5.7866 5.54621 0.25
84 1.10237 1.14576 5.92999 0.25
85 1.36092 1.06884 5.1488 0.25
86 4.54908 8.41492 5.33931 0.25
87 1.96628 2.21877 0.726122 0.25
88 3.14174 6.79723 1.60631 0.25
89 6.9026 7.2972 0.846437 0.25
90 5.37749 6.47104 5.44212 0.25
91 4.10184 4.16035 6.1587 0.25
92 6.16373 4.63706 7.49025 0.25
93 4.95394 6.59721 5.27514 0.25
94 6.87275 0.0664907 4.13705 0.25
95 0.352714 4.47386 7.82094 0.5
96 5.46408 3.077 3.36995 0.5
97 4.12874 4.98787 8.26351 0.25
98 8.32882 2.21231 3.44128 0.25
99 1.57231 6.28086 5.99236 0.25
100 7.00467 6.86153 1.06631 0.25
101 0.728013 7.76693 8.1567 0.25
102 7.76589 4.7645 3.52876 0.25
103 6.81791 1.10902 1.42352 0.25
104 1.09537 4.69199 7.50938 0.25
105 5.09829 5.83853 5.11921 0.5
106 5.41935 0.584157 4.61507 0.25
107 4.13809 3.20937 7.25988 0.25
108 4.92352 1.27858 8.15299 0.25
109 0.752016 0.811716 5.84253 0.25
110 2.26733 7.92948 8.24063 0.25
111 3.19219 3.71419 6.91804 0.25
112 4.71551 2.05125 8.06426 0.25
113 1.61385 1.82216 1.7812 0.5
114 1.74925 3.69935 7.13948 0.25
115 4.57488 6.08558 6.27621 0.25
116 2.46849 7.12779 7.03042 0.25
117 4.13622 2.27303 3.60919 0.5
118 6.68541 7.21487 1.29277 0.25
119 0.987325 6.47821 3.78725 0.25
120 0.0373652 2.85675 3.00218 0.25
121 3.18637 4.13652 3.5766 0.25
122 6.80547 0.818164 6.33838 0.25
123 4.99673 0.686886 5.38191 0.25
124 8.06114 8.09396 2.45236 0.25
125 3.45276 2.02206 3.92486 0.25
126 3.69708 1.30848 5.96583 0.25
127 5.19368 3.89528 1.58606 0.25
128 6.70241 5.45361 7.20006 0.25
129 0.871499 6.43377 4.25266 0.25
130 5.49819 6.23318 0.253707 0.25
131 7.12122 1.63932 6.31982 0.25
132 5.98473 4.19226 7.64349 0.25
133 3.1524 1.80422 3.61108 0.25
134 4.4527 2.63808 0.11389 0.25
135 5.49877 3.84447 3.50232 0.25
136 2.89742 2.56077 3.76584 0.5
137 2.88721 3.97817 3.13598 0.25
138 7.46613 8.00572 2.85465 0.5
139 2.54305 7.6032 5.13912 0.25
140 5.25101 7.46076 7.82383 0.25
141 7.65068 5.92817 4.99043 0.25
142 1.08032 5.11887 3.27986 0.25
143 2.49224 2.06483 8.37215 0.25
144 5.13041 1.16224 2.5769 0.5
145 7.51237 1.91565 3.96305 0.25
146 6.10839 7.35174 0.212226 0.25
147 6.40879 5.70979 4.46864 0.25
148 2.28284 3.03877 4.56804 0.25
149 4.6109 8.27522 2.5491 0.5
150 5.10042 2.77451 3.98479 0.25
151 3.40638 5.84802 7.24991 0.25
152 3.61491 4.67211 5.69521 0.25
153 6.73602 6.00258 2.31351 0.5
154 7.29107 2.38788 4.51896 0.5
155 2.9876 7.2089 7.72076 0.25
156 7.4884 3.52838 1.52392 0.25
157 7.61745 5.94219 1.57944 0.25
158 2.52495 3.71381 0.879696 0.25
159 7.03651 8.02977 4.42551 0.25
160 6.42723 1.74005 3.12313 0.25
161 0.878764 5.27591 2.86332 0.25
162 5.86862 4.36467 7.16248 0.25
163 3.32424 3.79491 4.27306 0.5
164 2.54744 3.79451 2.48488 0.5
165 5.56964 7.87379 7.58857 0.25
166 0.142149 3.61974 7.92508 0.25
167 6.61328 4.03893 8.27943 0.25
168 4.72342 5.9784 5.87822 0.25
169 4.05267 4.39084 5.70576 0.25
170 0.0790756 2.82958 6.0579 0.25
171 7.75521 5.8573 1.12294 0.25
172 1.11686 2.99214 6.79323 0.25
173 4.22728 6.12525 5.89651 0.25
174 2.35781 2.17508 1.07359 0.25
175 7.66339 2.52299 5.92001 0.5
176 2.51638 5.76354 6.05113 0.25
177 5.44412 3.60835 3.95939 0.25
178 2.92581 6.50626 1.9373 0.25
179 3.45582 2.06184 3.40842 0.25
180 5.85589 6.50118 5.76308 0.25
181 6.67048 4.27079 6.9255 0.25
182 3.27766 5.43766 3.35203 0.25
183 8.02798 7.60954 1.7392 0.25
184 3.80865 5.31594 0.0127104 0.25
185 5.76317 6.88716 6.10532 0.25
186 7.53597 5.75465 4.52002 0.25
187 2.85243 5.21434 4.04248 0.25
188 0.64002 5.87413 3.37057 0.25
189 4.12371 6.66996 3.51561 0.25
190 3.93347 3.59193 1.40174 0.25
191 7.04076 1.52442 0.26571 0.5
192 1.0154 4.98466 7.90392 0.25
193 3.91866 5.46399 1.07188 0.25
194 2.52058 6.29471 1.7958 0.25
195 6.19907 5.72318 2.73642 0.25
196 2.23816 7.93484 2.64035 0.25
197 1.31122 0.0436175 2.42959 0.25
198 7.77251 4.9009 7.36592 0.25
199 1.22642 1.29861 3.22018 0.25
200 4.47274 5.30545 1.46846 0.5
201 6.76653 1.37893 3.01862 0.25
202 8.28268 3.85995 5.3773 0.25
203 3.67998 1.64856 3.62252 0.25
204 5.66843 7.91533 8.36697 0.5
205 2.32057 7.52226 4.42604 0.5
206 0.332747 4.48319 5.15552 0.25
207 5.63862 2.74598 4.0425 0.25
208 6.74758 5.34596 4.3227 0.25
209 5.5523 6.98379 8.31494 0.5
210 1.85261 7.99369 3.02716 0.25
211 0.599964 3.72452 4.9886 0.25
212 1.55143 8.01221 8.2549 0.5
213 0.156334 4.04983 2.83595 0.25
214 1.76145 8.01965 2.47678 0.25
215 2.90226 4.32219 3.95031 0.25
216 6.19055 1.86298 2.73878 0.25
217 4.83128 3.68923 1.80976 0.25
218 2.37655 3.42237 4.81473 0.25
219 4.34873 0.915131 2.72724 0.25
220 3.5034 3.56009 1.05163 0.25
221 4.17805 8.27069 5.68405 0.25
222 7.32992 0.454753 5.46161 0.25
223 8.13774 2.68058 2.6268 0.25
224 7.22928 5.51354 7.2992 0.25
225 7.28674 2.211 5.26738 0.25
226 5.12721 2.34083 7.93062 0.25
227 6.42352 3.79999 7.04631 0.25
228 5.41246 3.14977 4.17573 0.25
229 5.65543 5.10638 1.89405 0.25
230 0.56563 8.14807 6.54486 0.5
231 5.28271 4.61303 1.36695 0.5
232 1.96628 2.90625 4.27141 0.25
233 3.76918 5.33978 4.38485 0.25
234 6.69571 1.61342 6.50829 0.25
235 3.40684 7.52096 4.69677 0.25
236 1.06656 2.40213 8.14044 0.25
237 0.104528 2.80678 7.49189 0.25
238 3.20165 0.839212 1.51002 0.25
239 0.276107 2.40752 3.82032 0.25
240 6.67299 6.22984 1.5596 0.25
241 3.37431 7.07539 7.96434 0.25
242 1.69362 7.34194 2.72446 0.5
243 2.83496 4.79441 3.27271 0.25
244 7.08587 3.43032 1.17396 0.25
245 2.12231 1.20175 5.84879 0.25
246 7.60975 8.1493 3.6827 0.25
247 3.50844 2.52456 3.30908 0.25
248 3.72844 3.18321 1.15189 0.25
249 0.283539 5.10675 7.36527 0.25
250 1.32387 3.82107 5.35389 0.25
251 5.31487 2.57087 4.67406 0.5
252 3.24557 2.21636 4.36998 0.25
253 8.05769 5.61463 7.27285 0.5
254 7.46126 5.96518 7.21219 0.25
255 4.61508 0.488436 5.88875 0.5
256 5.18548 6.59867 0.522641 0.25
257 1.18968 0.159676 2.8552 0.25
258 1.57608 1.73565 2.5574 0.25
259 4.38444 3.47255 1.64215 0.25
260 7.86467 6.30908 1.28939 0.25
261 4.04635 8.13912 1.48989 0.25
262 3.55781 2.52454 4.16458 0.25
263 2.43504 0.21619 0.219913 0.5
264 2.79642 4.36834 3.47768 0.25
265 1.15658 3.928 7.50044 0.5
266 0.963455 7.63734 7.45194 0.5
267 5.05191 2.84437 7.96157 0.25
268 6.36773 7.72125 0.11737 0.25
269 1.36821 5.30021 0.912661 0.25
270 3.96032 3.53387 0.901022 0.25
271 7.38936 7.91848 4.79862 0.25
272 1.78531 1.04329 2.68952 0.25
273 1.35121 3.40117 6.99157 0.25
274 0.974235 5.47769 7.7955 0.25
275 4.492 4.55425 1.54358 0.25
276 2.63798 3.24267 1.15666 0.25
277 6.63101 1.15605 6.69176 0.25
278 3.8749 6.25578 1.17949 0.25
279 3.93501 0.497225 5.2674 0.5
280 7.77588 8.17801 4.93716 0.25
281 0.89816 6.63597 0.45561 0.25
282 6.14787 7.13944 6.20515 0.25
283 1.09691 0.166257 6.24604 0.25
284 7.18856 4.42579 1.10211 0.25
285 1.71379 5.96283 1.01599 0.5
286 5.49471 6.80612 3.26249 0.25
287 1.31382 7.65798 3.4935 0.5
288 2.91945 7.40564 4.83195 0.25
289 2.16945 7.29547 5.16252 0.25
290 1.92887 3.8464 1.96587 0.25
291 8.20301 7.50172 7.1305 0.25
292 7.69333 2.42606 3.30995 0.25
293 7.44528 4.47994 3.35375 0.25
294 5.41819 3.80984 3.01779 0.25
295 8.08431 4.27002 1.16421 0.25
296 0.495726 4.17621 4.49154 0.5
297 3.76245 3.10411 6.93244 0.25
298 6.31953 5.05698 7.24292 0.25
299 5.70237 4.62317 7.54531 0.25
300 6.37262 3.36215 0.441698 0.25
301 1.05576 7.40831 8.21562 0.25
302 0.103539 4.25291 1.56445 0.25
303 3.92594 0.541899 1.03198 0.25
304 2.14271 2.61179 4.73572 0.25
305 0.76511 4.85341 8.30952 0.25
306 2.39918 2.16731 4.6009 0.25
307 1.80955 4.70625 7.63668 0.5
308 3.65899 5.19769 3.13987 0.25
309 4.36721 1.0454 5.53534 0.25
310 1.00711 4.64634 4.16218 0.25
311 7.26607 0.133125 3.88114 0.25
312 1.04973 0.809751 2.61464 0.5
313 0.846507 3.81353 5.43383 0.25
314 5.21949 3.42717 2.67331 0.25
315 1.09227 4.55099 7.98325 0.25
316 1.86835 4.1699 7.09794 0.25
317 7.5382 2.34803 3.80498 0.25
318 2.38361 2.59344 4.33733 0.25
319 4.86759 7.14698 7.93779 0.25
320 2.06363 6.0841 6.03712 0.25
321 4.3975 0.647021 1.15816 0.25
322 7.25164 6.29631 5.07979 0.25
323 0.714382 5.97584 4.31781 0.25
324 4.07861 7.14811 7.78053 0.5
325 0.551732 2.11957 0.436371 0.25
326 4.00235 4.91643 5.04152 0.5
327 7.37635 7.39212 3.28842 0.25
328 2.16596 7.7296 1.8322 0.25
329 1.0728 6.03809 3.5671 0.25
330 8.22626 7.01245 7.36322 0.25
331 0.885568 5.37663 3.91825 0.5
332 7.33672 6.5362 2.09571 0.25
333 1.076 1.38526 2.06042 0.25
334 6.85275 1.77397 0.927511 0.25
335 3.18084 3.11986 1.07391 0.25
336 2.86183 6.90616 6.85798 0.25
337 4.31133 7.25471 2.96393 0.5
338 6.55001 7.24615 0.0412915 0.25
339 1.89111 7.90088 3.91516 0.25
340 4.96885 0.695683 4.83615 0.25
341 6.82527 -0.0295604 3.14783 0.25
342 1.23448 5.21814 7.43691 0.25
343 3.07772 1.29692 0.285152 0.25
344 1.12491 5.74406 2.75641 0.25
345 0.471076 1.32949 2.84143 0.25
346 0.656723 2.33888 7.98312 0.25
347 3.32608 5.82576 7.75696 0.25
348 7.29531 7.78407 2.0978 0.25
349 0.824337 2.00536 0.0705177 0.25
350 6.67915 1.71653 2.66883 0.25
351 1.3519 6.90428 0.485789 0.25
352 6.36608 3.55597 7.77367 0.5
353 2.61373 0.0197044 7.56969 0.25
354 1.96449 0.708372 5.80149 0.25
355 0.733626 0.385961 6.12812 0.25
356 1.71527 1.84519 6.05134 0.25
357 3.04704 4.11102 6.70926 0.25
358 6.11788 3.40758 5.18431 0.25
359 4.4457 1.1625 6.3121 0.25
360 1.87876 1.96562 1.11903 0.25
361 0.922284 7.65443 0.239845 0.25
362 6.20627 4.15897 6.85462 0.25
363 7.87478 4.02024 2.12678 0.25
364 6.01016 3.88049 7.24711 0.25
365 5.44258 6.19102 0.725624 0.25
366 5.78724 6.35157 1.01028 0.25
367 3.11721 4.08838 7.20454 0.25
368 6.99651 3.76759 8.24676 0.25
369 1.0297 7.06608 0.147508 0.25
370 5.56342 0.270426 8.12648 0.25
371 2.75293 7.92365 4.88868 0.25
372 1.95877 4.72309 0.738831 0.25
373 6.96704 2.79644 5.02799 0.25
374 3.65366 4.48597 4.46375 0.25
375 5.57958 0.739446 8.06338 0.25
376 2.49721 5.8038 1.01709 0.25
377 6.46133 1.48496 1.97943 0.5
378 0.456966 3.73237 7.59078 0.25
379 5.56018 1.25523 8.01282 0.25
380 2.18727 6.78716 4.70289 0.25
381 4.12915 5.41701 5.61219 0.25
382 1.81943 7.07591 4.8587 0.25
383 6.1493 5.27642 3.93273 0.5
384 2.22356 1.687 1.35102 0.25
385 7.21058 1.53861 7.09733 0.5
386 1.39 1.26208 5.56091 0.25
387 7.89878 0.938883 0.818031 0.25
388 0.621169 5.7426 2.9014 0.25
389 4.39235 2.64609 7.72402 0.5
390 4.12554 0.816191 6.44775 0.25
391 5.27254 4.84621 2.12296 0.25
392 8.16516 2.50338 3.11193 0.25
393 2.67926 6.60548 1.45053 0.25
394 0.821549 8.26968 7.97107 0.25
395 2.62882 1.88438 1.32331 0.25
396 4.75803 7.64178 7.86617 0.25
397 5.1569 0.507612 8.22773 0.25
398 7.55843 1.38319 8.04582 0.25
399 3.18075 4.39347 3.17198 0.25
400 4.89593 4.51127 0.771281 0.25
401 2.22523 7.13398 3.85675 0.25
402 8.24795 7.89885 6.80201 0.25
403 7.69013 6.24735 0.821455 0.25
404 8.06774 6.70771 6.99164 0.25
405 0.47099 7.7979 0.220444 0.25
406 5.68529 0.176065 4.50578 0.25
407 2.65958 1.05147 8.06978 0.5
408 5.49023 3.38224 2.29478 0.25
409 2.09717 4.93196 1.18674 0.25
410 7.69943 0.851093 0.130783 0.5
411 4.4392 5.51365 5.16923 0.25
412 8.29899 7.0719 6.83014 0.25
413 1.03736 2.37329 0.322616 0.25
414 0.697599 3.05797 7.83398 0.5
415 6.57169 4.72994 2.97635 0.25
416 3.01636 3.1346 6.38534 0.25
417 3.39419 4.81164 3.80867 0.5
418 7.27848 6.58758 4.29045 0.25
419 4.03195 3.89295 5.74018 0.25
420 0.836374 3.09657 4.83557 0.25
421 4.10052 4.89609 5.76213 0.25
422 2.18175 5.45972 1.1762 0.25
423 0.341884 0.623831 5.7961 0.25
424 0.434743 3.36382 4.66829 0.25
425 1.94109 2.77688 1.19263 0.5
426 6.9824 5.68361 4.98394 0.5
427 2.75132 2.22388 4.28065 0.25
428 3.97602 5.25118 3.93887 0.25
429 4.45653 4.52795 5.49427 0.25
430 1.8912 7.12698 3.45703 0.25
431 0.903407 3.48411 6.85548 0.25
432 1.56214 6.84171 4.15474 0.5
433 2.33695 1.57587 7.6959 0.25
434 0.657681 6.51661 0.908066 0.25
435 5.68081 3.49272 2.73109 0.25
436 1.00132 6.10957 3.08089 0.25
437 0.224643 1.33211 0.407107 0.25
438 0.994447 3.46822 5.12493 0.25
439 3.68618 2.63283 6.84108 0.25
440 5.29434 1.90325 7.66205 0.25
441 7.94561 4.20565 5.32194 0.25
442 2.34654 5.86699 1.5034 0.25
443 0.326801 2.97899 6.78942 0.5
444 1.94333 3.46087 1.6298 0.25
445 5.41442 7.03165 0.678061 0.25
446 4.25598 5.93519 3.58111 0.5
447 1.39448 1.50212 6.02495 0.25
448 5.7503 7.28731 5.90492 0.25
449 1.01663 5.51133 5.90468 0.25
450 2.97511 3.60679 1.01953 0.25
451 2.53302 7.20219 5.49144 0.25
452 2.73841 0.934613 0.446743 0.25
453 4.51337 4.67824 1.04062 0.25
454 0.128479 3.34361 7.45901 0.25
455 7.94868 5.18144 7.80554 0.25
456 3.05651 1.88858 4.17332 0.25
457 2.48375 3.73148 7.12363 0.5
458 0.126522 7.50621 6.70482 0.25
459 5.05878 7.51168 8.24135 0.25
460 5.70136 0.403826 4.92063 0.25
461 2.55991 3.65093 1.36938 0.25
462 6.23189 5.02951 3.20648 0.25
463 5.04783 7.4161 2.9697 0.25
464 7.54018 6.80815 6.95415 0.25
465 7.04049 2.60833 5.49487 0.25
466 3.99749 1.28115 2.95022 0.25
467 3.82894 6.27723 1.67675 0.25
468 6.86032 5.41861 3.03608 0.5
469 7.4613 7.24332 6.73303 0.25
470 0.642067 1.65041 0.393972 0.25
471 2.00855 0.966573 6.25381 0.25
472 1.87125 7.38461 1.9625 0.25
473 7.41586 5.1178 5.22121 0.25
474 5.17961 5.79761 5.91604 0.25
475 1.46556 1.37066 2.81539 0.25
476 7.17179 0.862186 7.32718 0.25
477 3.20328 5.53079 3.80237 0.25
478 6.16303 3.40266 7.05364 0.25
479 3.37564 7.19766 7.46164 0.25
480 4.79551 0.083566 1.77737 0.25
481 7.88741 2.15092 4.13365 0.25
482 6.9003 5.0299 4.67931 0.25
483 7.95025 5.56485 4.79947 0.25
484 3.11886 0.367024 8.26495 0.25
485 7.93526 7.48452 6.73426 0.25
486 2.51027 6.18305 5.85268 0.25
487 8.04541 7.69335 4.40789 0.25
488 4.49717 4.0585 5.72532 0.25
489 0.848056 8.158 0.0785498 0.25
490 8.0962 8.00808 1.95915 0.25
491 4.42237 2.92428 1.58985 0.25
492 2.57337 1.79855 4.30453 0.25
493 6.30101 4.63196 6.95875 0.25
494 4.9036 7.56932 2.6262 0.25
495 1.29273 5.87992 5.93556 0.25
496 3.24455 7.80767 5.01645 0.25
497 6.47412 4.28782 7.79663 0.25
498 3.42123 2.98635 4.14777 0.25
499 0.76515 5.08536 7.4979 0.25
500 3.93379 2.93061 6.5113 0.25
501 5.86414 3.69269 3.72711 0.25
502 1.69378 7.89395 7.48507 0.25
503 5.95115 5.03899 2.59846 0.5
504 7.73976 7.71366 2.183 0.25
505 5.8895 1.4822 2.45436 0.25
506 6.9771 6.38035 4.66336 0.25
507 1.38722 0.450566 3.19005 0.25
508 0.649842 8.29869 5.45763 0.25
509 8.1173 4.8855 4.9691 0.5
510 5.17657 1.4321 5.77447 0.25
511 0.628572 0.326697 5.64605 0.25
512 1.11251 0.836968 3.36287 0.25
513 3.8969 1.18018 5.53025 0.25
514 2.0529 5.57142 5.98583 0.25
515 0.50002 8.17051 7.22148 0.25
516 7.52235 1.80824 6.02466 0.25
517 7.25598 5.34402 4.47115 0.25
518 0.903739 3.54658 4.64036 0.25
519 6.54394 1.90689 1.35722 0.25
520 7.09959 2.47143 6.38323 0.25
521 7.7786 1.59415 0.109919 0.25
522 6.88611 1.0777 7.66075 0.25
523 5.07433 6.76774 5.69186 0.25
524 2.79338 0.517567 7.56786 0.25
525 6.35549 4.25711 7.29899 0.25
526 7.03586 5.30226 6.87719 0.25
527 7.38561 8.10069 4.09127 0.25
528 7.55599 1.53147 6.46102 0.25
529 6.7028 1.18156 2.58414 0.25
530 2.09933 1.82035 6.3957 0.25
531 7.87613 7.90662 4.0083 0.25
532 1.55515 0.967754 3.13282 0.25
533 7.40772 1.07957 7.68569 0.25
534 8.0786 5.90694 1.50585 0.25
535 0.416584 3.25849 5.47512 0.5
536 6.93739 2.66435 5.98498 0.25
537 4.0659 0.978625 5.95562 0.25
538 6.41519 5.26915 4.64031 0.25
539 2.28897 1.393 6.28258 0.25
540 8.10287 6.4304 2.05825 0.5
541 7.53876 3.97033 1.74675 0.25
542 2.23802 2.01963 7.96097 0.25
543 3.2982 7.15967 6.97747 0.25
544 7.7818 6.49243 6.59949 0.25
545 1.19475 6.10496 4.01946 0.25
546 4.88172 5.72176 6.31033 0.25
547 5.25296 2.64459 8.33522 0.25
548 6.09315 7.29168 6.66023 0.25
549 0.287847 7.76252 7.12386 0.25
550 6.23011 6.87382 8.40164 0.25
551 4.34794 1.39392 2.57095 0.25
552 3.63314 5.61959 4.00975 0.25
553 6.9035 7.82162 3.66417 0.5
554 4.29519 6.54459 3.06835 0.25
555 4.83017 6.63439 3.64719 0.5
556 7.46418 0.618509 0.768381 0.25
557 7.18631 4.87554 3.9577 0.5
558 6.39316 0.0351436 3.46939 0.25
559 1.31906 0.441854 5.61792 0.5
560 5.01084 3.42354 2.21181 0.25
561 2.93519 3.17809 4.10793 0.25
562 5.07504 0.177357 5.4051 0.25
563 2.21888 6.64274 1.5838 0.25
564 6.24215 6.89968 0.767865 0.5
565 6.90427 2.03556 6.61418 0.25
566 1.15902 1.56738 2.44501 0.25
567 4.39719 5.69034 5.99111 0.25
568 5.84471 1.10041 2.77821 0.25
569 2.69773 8.17284 8.03515 0.25
570 1.76614 6.5334 4.75732 0.25
571 2.8981 3.98127 7.67971 0.25
572 8.08222 2.78968 3.78633 0.5
573 3.91332 1.59298 2.61602 0.25
574 1.68043 5.83513 6.27781 0.25
575 2.33301 1.6723 8.2517 0.25
576 4.07042 5.55997 7.66487 0.25
577 5.24626 0.455557 5.0811 0.25
578 1.88866 7.43409 3.887 0.25
579 7.47685 5.2786 7.60105 0.25
580 7.33744 0.307961 4.68101 0.5
581 4.39411 4.55253 6.02485 0.25
582 5.81531 3.00248 4.45947 0.25
583 5.70908 3.65897 4.60537 0.5
584 4.65881 6.46449 5.9732 0.25
585 4.71645 3.14718 1.27371 0.25
586 1.92566 0.286467 2.79132 0.5
587 4.97421 7.05255 2.57784 0.25
588 5.75831 5.1846 3.28184 0.25
589 0.219598 2.46063 7.80142 0.25
590 3.41241 6.47268 1.8622 0.25
591 6.95298 1.25029 0.97822 0.25
592 7.40938 7.15413 1.67585 0.5
593 6.6715 6.77347 1.42338 0.25
594 1.43684 4.91583 0.222503 0.5
595 0.633237 3.80367 8.04247 0.25
596 2.33102 0.816931 0.723491 0.25
597 8.3759 0.295519 5.2022 0.5
598 2.38647 6.27802 1.25643 0.25
599 2.22768 8.2968 7.88559 0.25
600 7.77121 0.452965 5.71153 0.25
601 0.602466 0.70687 5.33746 0.25
602 4.04209 0.187111 2.20173 0.25
603 4.19965 5.47158 8.16288 0.25
604 7.50789 5.14183 7.07027 0.25
605 7.90739 2.0943 3.63561 0.25
606 2.15321 8.13887 2.19015 0.25
607 4.29906 5.1232 7.82492 0.25
608 3.57862 7.55676 7.31116 0.25
609 6.57907 4.8374 4.37128 0.25
610 1.75162 1.487 5.71912 0.25
611 3.18328 0.609017 7.82796 0.25
612 0.602822 7.35599 0.033297 0.25
613 7.12307 1.07487 8.0914 0.25
614 4.23526 1.24652 5.14215 0.25
615 4.8986 2.55581 3.62927 0.25
616 1.04274 5.61033 3.21674 0.25
617 1.67627 8.31471 2.09183 0.25
618 7.41751 7.36519 4.28083 0.5
619 7.76249 8.07313 4.47277 0.25
620 8.20745 7.34069 2.44798 0.5
621 4.13066 6.52925 4.03164 0.25
622 6.15124 6.60959 6.14008 0.25
623 5.91715 6.1856 0.534571 0.25
624 1.16711 3.36036 5.56453 0.25
625 1.39845 5.31542 7.97883 0.25
626 3.32112 0.325879 1.5897 0.25
627 4.80058 4.73712 1.91474 0.25
628 8.12446 3.444 2.49036 0.5
629 7.18633 3.38254 0.209768 0.25
630 1.43433 8.3319 3.24132 0.25
631 1.98057 1.5392 7.97038 0.25
632 7.65465 7.90624 1.74527 0.25
633 6.17855 7.66078 0.602154 0.25
634 2.83958 7.98821 4.01366 0.25
635 0.776763 7.29076 0.785772 0.5
636 1.75964 1.47863 1.12827 0.25
637 5.37167 0.502564 5.61676 0.25
638 4.65365 1.41864 5.20075 0.25
639 4.58364 1.66569 8.34273 0.25
640 5.20237 7.3747 0.333504 0.25
641 1.2416 6.64047 5.33589 0.25
642 3.5832 0.819535 5.84441 0.25
643 6.08232 6.9723 5.75013 0.25
644 5.84421 0.669254 2.49235 0.25
645 2.19285 2.15172 1.49755 0.25
646 8.26647 6.61087 6.57372 0.25
647 2.43416 3.04265 4.11123 0.25
648 5.29448 1.04133 8.37504 0.25
649 0.305371 4.21971 2.04492 0.25
650 8.28098 3.83057 1.38567 0.25
651 3.267 3.2312 3.70555 0.25
652 6.7399 0.971703 7.1272 0.25
653 1.17211 6.60996 0.903506 0.25
654 0.629874 2.4695 0.0407742 0.25
655 3.64655 3.64366 6.40352 0.5
656 0.556639 3.46608 7.21993 0.25
657 1.57807 5.4833 5.9248 0.25
658 6.80963 0.210314 3.63658 0.25
659 2.69204 1.84045 7.9028 0.25
660 6.93543 5.94116 4.01015 0.5
661 0.0296592 1.06197 0.0206005 0.25
662 3.90944 4.8635 4.31594 0.25
663 2.35309 3.63226 1.83473 0.25
664 6.58003 2.68517 4.75797 0.25
665 7.78687 3.87103 1.29155 0.25
666 5.98131 6.81171 6.57552 0.25
667 6.6733 3.4852 0.0958686 0.25
668 6.9828 6.51691 1.79666 0.25
669 5.87379 4.87484 7.09369 0.25
670 5.81896 8.27385 4.88393 0.25
671 3.47512 4.96097 4.56877 0.25
672 2.5497 3.23707 2.06324 0.25
673 0.735704 1.12058 3.22968 0.25
674 4.82334 7.38838 3.41909 0.25
675 5.37546 3.60156 5.26963 0.25
676 7.65008 8.19835 2.14447 0.25
677 6.52553 1.44913 1.2112 0.25
678 7.44935 6.23509 4.61343 0.25
679 1.00691 6.25197 1.21828 0.25
680 3.61872 6.59261 8.18969 0.25
681 7.76624 0.0437862 4.11188 0.25
682 2.00557 6.189 1.62196 0.25
683 1.66094 7.46708 7.32845 0.25
684 0.344771 3.82777 1.63813 0.25
685 2.9428 3.62249 6.49828 0.25
686 4.15039 2.81735 6.97488 0.25
687 1.53149 4.41077 0.780919 0.25
688 3.64902 0.930675 6.31803 0.25
689 6.113 4.1486 8.17573 0.25
690 6.20854 1.04551 2.47536 0.25
691 6.95609 1.57566 1.37157 0.25
692 5.11552 5.1736 1.82838 0.25
693 7.41359 2.01929 6.46442 0.25
694 7.36962 4.94353 4.74868 0.25
695 8.12949 3.13138 5.82904 0.25
696 5.69714 6.01168 3.22832 0.5
697 4.3633 3.7165 6.05279 0.25
698 1.79409 1.02779 5.45409 0.25
699 1.38973 6.81074 4.92157 0.25
700 4.15712 5.90478 1.03569 0.25
701 4.87055 1.65145 7.86379 0.25
702 2.30885 4.36043 7.32606 0.25
703 3.26906 6.50785 7.48834 0.5
704 4.58085 5.16577 8.21999 0.25
705 4.79491 3.21402 1.77727 0.25
706 5.13878 -0.00459129 8.10446 0.25
707 4.61471 3.91192 1.1036 0.5
708 5.78449 7.42333 7.7566 0.25
709 2.4849 7.05078 2.03977 0.5
710 2.20235 4.48536 6.90971 0.25
711 5.15831 6.46349 3.03503 0.25
712 0.56831 5.18035 7.94103 0.25
713 2.69115 3.99286 1.70632 0.25
714 5.24071 4.11227 0.769462 0.25
715 4.73216 6.70769 2.86697 0.25
716 6.71637 0.648698 7.54608 0.25
717 7.68856 7.67499 3.56954 0.25
718 5.94956 3.73572 6.78368 0.25
719 6.03001 4.58555 7.89341 0.25
720 1.61587 7.63254 4.25264 0.25
721 6.50461 2.09949 2.41245 0.25
722 2.40234 7.74353 3.386 0.5
723 2.43601 7.51077 2.65377 0.25
724 7.05963 6.49415 1.34025 0.25
725 7.74469 6.34388 7.08812 0.25
726 0.949663 1.10379 5.43478 0.25
727 4.21736 0.227917 1.35913 0.25
728 3.60326 6.0871 8.07893 0.25
729 4.95519 5.96758 3.31803 0.25
730 2.86796 7.10219 7.27006 0.25
731 5.52407 3.0292 2.65279 0.25
732 4.00762 3.59159 7.04238 0.25
733 3.54696 5.46826 7.53161 0.25
734 3.93975 1.06045 2.46631 0.25
735 3.42265 2.99183 6.62125 0.25
736 8.04093 1.34919 8.14506 0.25
737 3.44729 0.595284 1.19928 0.25
738 0.396262 8.25461 0.390726 0.25
739 4.6805 6.27564 3.00315 0.25
740 5.28091 7.22782 3.41293 0.25
741 0.410836 7.88328 0.732679 0.25
742 3.89697 4.60868 6.12538 0.25
743 7.10605 0.81381 1.10529 0.25
744 4.39848 0.977409 2.25557 0.25
745 3.62236 4.21399 5.90857 0.25
746 1.22787 6.05518 4.7886 0.5
747 4.52459 0.417755 2.10683 0.25
748 2.58458 6.67902 7.18376 0.25
749 1.51932 1.28798 2.33223 0.25
750 0.0318468 3.45285 1.7509 0.25
751 0.960069 0.778707 5.03399 0.25
752 5.94583 5.06815 7.5793 0.25
753 3.96383 0.802596 1.73631 0.5
754 4.26995 6.05918 1.43868 0.25
755 2.75955 2.61951 1.56838 0.5
756 7.70407 6.78239 7.37101 0.25
757 5.5593 6.87637 5.64797 0.25
758 6.80109 4.01493 7.36648 0.25
759 4.38542 0.0386535 4.90775 0.25
760 0.305268 2.55894 3.32657 0.25
761 3.74346 7.05783 7.1511 0.25
762 0.610968 1.83372 3.4433 0.5
763 4.03713 8.10774 2.03035 0.25
764 1.37376 6.42152 0.489505 0.25
765 7.43692 4.93279 3.19917 0.25
766 0.694889 4.51294 2.24188 0.25
767 2.5638 6.92393 7.56443 0.25
768 2.26042 3.0178 5.0419 0.25
769 7.94615 3.6391 1.76005 0.25
770 5.14451 0.897344 7.86271 0.25
771 6.71715 1.29599 6.15302 0.25
772 4.84623 2.44057 8.24489 0.25
773 5.43183 1.16743 5.10567 0.5
774 3.58746 8.17615 5.10785 0.25
775 7.97054 4.48963 2.84007 0.5
776 6.90998 3.9214 0.596619 0.5
777 5.94727 6.45759 0.182174 0.25
778 4.88629 8.00766 8.2461 0.25
779 8.17345 8.16405 4.22428 0.25
780 2.15708 1.71203 5.90141 0.25
781 2.81911 1.64599 0.0027367 0.25
782 1.27192 7.81762 0.538722 0.25
783 6.82787 3.14501 0.423635 0.25
784 2.11489 7.63086 2.28183 0.25
785 2.58924 1.78724 6.2132 0.25
786 2.53386 7.76563 2.21833 0.25
787 7.85542 6.98019 6.61161 0.25
788 8.37045 4.07881 2.36628 0.25
789 3.56322 0.131099 4.66926 0.25
790 7.05606 0.853736 6.78644 0.25
791 0.623755 4.6014 3.04124 0.5
792 2.3265 0.39681 7.79769 0.25
793 8.22976 7.13739 1.6744 0.25
794 5.3365 6.42434 6.2853 0.5
795 2.37659 4.13239 3.18969 0.25
796 2.20082 5.86896 5.62012 0.25
797 6.68934 6.3917 1.08648 0.25
798 7.62187 4.33708 1.38294 0.25
799 4.21512 3.2455 6.25469 0.25
800 7.96806 2.06185 3.12055 0.25
801 3.25793 7.67744 6.93704 0.25
802 3.28963 5.36121 4.30288 0.25
803 3.29397 8.26468 7.57543 0.5
804 3.60334 6.9314 1.85928 0.25
805 1.70124 7.82038 2.07106 0.25
806 2.70512 1.88305 3.82705 0.25
807 4.55946 6.24736 5.47906 0.25
808 4.38167 1.831 7.80906 0.25
809 1.71695 5.89034 5.76744 0.25
810 6.4614 7.47897 6.41227 0.25
811 1.61088 3.28035 4.85945 0.5
812 5.68441 7.42778 0.535895 0.25
813 4.24042 1.74843 3.02065 0.25
814 1.65151 7.47568 7.79619 0.25
815 2.7032 8.18549 4.46739 0.25
816 1.07606 2.96142 5.27603 0.25
817 4.48777 1.41229 7.93603 0.25
818 3.80424 1.73203 3.14774 0.25
819 1.73889 5.30158 1.29756 0.25
820 3.31172 2.84436 7.09679 0.25
821 1.63313 2.0198 0.0318278 0.5
822 5.98206 4.39413 3.39116 0.5
823 5.26779 0.426347 7.75919 0.25
824 0.756406 0.310548 5.11298 0.25
825 3.7744 5.95103 7.61786 0.25
826 3.17265 3.49627 1.68516 0.5
827 5.65376 7.19685 6.40033 0.25
828 0.540943 2.02011 7.65153 0.25
829 8.2264 8.0743 4.7314 0.25
830 0.820437 1.89052 2.67939 0.25
831 2.39065 4.12285 7.76398 0.25
832 5.66643 4.61664 2.01893 0.25
833 1.86197 1.41333 6.20907 0.25
834 4.17855 0.565702 2.43866 0.25
835 6.05032 1.8453 1.42956 0.25
836 3.39765 7.56298 7.75459 0.25
837 3.83245 5.16051 7.89507 0.25
838 7.61131 0.839771 1.20088 0.25
839 5.9846 7.58907 6.28889 0.25
840 6.97411 4.75437 7.43116 0.5
841 3.18993 6.88346 2.11051 0.25
842 0.133938 2.05951 2.71587 0.5
843 5.84832 3.79725 5.32451 0.25
844 4.66845 2.12689 0.174359 0.25
845 7.45044 2.65951 5.17281 0.25
846 3.42377 3.4282 7.54125 0.5
847 1.86257 5.21388 0.830551 0.25
848 1.7907 5.90289 5.31704 0.25
849 5.20229 7.89459 2.82124 0.25
850 6.33452 2.80257 5.46822 0.5
851 5.54647 0.101586 5.29291 0.25
852 7.14991 1.50709 7.84907 0.25
853 3.95552 8.21134 4.7929 0.25
854 4.40292 1.65802 5.82321 0.5
855 0.339972 4.02176 5.28018 0.25
856 0.610344 5.38087 3.25574 0.25
857 3.612 6.66453 1.44222 0.25
858 2.6461 4.81076 3.76642 0.25
859 6.49248 4.53538 3.96399 0.25
860 7.59537 4.16221 0.928513 0.25
861 4.83517 2.95137 8.36683 0.25
862 6.58449 4.83787 3.51503 0.25
863 5.40786 6.63559 0.998723 0.25
864 7.55637 6.93014 2.39311 0.25
865 3.71771 5.62644 8.00606 0.25
866 5.04662 8.17879 3.19823 0.25
867 1.91428 4.0044 7.56183 0.25
868 2.37678 1.605 0.627804 0.5
869 0.985801 3.17912 7.20457 0.25
870 6.17076 5.48834 3.17285 0.25
871 2.85525 7.44419 6.90946 0.25
872 5.79529 3.06792 4.96447 0.25
873 0.400742 8.15645 8.25122 0.25
874 3.96582 1.30406 6.37614 0.25
875 2.04677 4.20462 1.30629 0.5
876 1.38558 5.66667 5.47904 0.25
877 0.103578 5.26895 7.76154 0.25
878 5.78501 1.07852 2.24649 0.25
879 3.14428 8.23109 4.84388 0.25
880 6.41103 6.01475 3.11547 0.25
881 7.3078 1.23906 1.31142 0.25
882 7.87015 7.1474 7.04107 0.25
883 0.510467 4.06727 2.48346 0.25
884 7.22982 3.29813 0.733033 0.25
885 0.758836 4.2152 5.12354 0.25
886 7.90665 7.41366 3.15846 0.25
887 0.908335 6.72873 1.29109 0.25
888 1.10543 4.75668 3.65141 0.25
889 1.43428 8.09295 2.81637 0.25
890 0.263262 4.47767 2.49406 0.25
891 0.974044 2.32475 7.6421 0.25
892 7.4671 3.64175 0.999613 0.25
893 0.822293 8.02075 0.594784 0.25
894 3.84715 5.82783 1.44603 0.25
895 3.71716 5.90949 0.952851 0.25
896 1.98822 1.31808 0.0403782 0.25
897 7.97537 4.13839 1.65003 0.25
898 0.657445 4.61911 3.81735 0.25
899 0.835975 8.32251 5.8819 0.25
900 5.0356 6.273 5.65535 0.25
901 0.953492 1.43362 2.84678 0.25
902 7.3008 3.95247 1.2872 0.25
903 5.87231 3.68137 3.21676 0.25
904 6.9465 4.1131 7.83469 0.25
905 5.25251 0.942987 5.79639 0.25