ITEM: TIMESTEP
540000
ITEM: NUMBER OF ATOMS
1000
ITEM: BOX BOUNDS xy xz yz pp pp pp
0.0000000000000000e+00 8.3788359999999997e+00 0.0000000000000000e+00
0.0000000000000000e+00 8.3788359999999997e+00 0.0000000000000000e+00
0.0000000000000000e+00 8.3788359999999997e+00 0.0000000000000000e+00
ITEM: ATOMS id x y z radius
1 2.69918 6.95833 4.97774 0.25
2 4.64448 4.93218 5.40311 0.25
3 6.94163 4.60872 3.19535 0.25
4 7.17351 1.00217 5.81735 0.5
5 1.05587 5.66715 6.22271 0.25
6 8.28111 1.83403 3.49398 0.25
7 4.11775 3.35345 6.55661 0.25
8 4.88121 7.76722 2.90495 0.25
9 0.758639 6.07372 3.73009 0.25
10 4.03923 1.6614 3.53087 0.25
11 5.40044 0.155368 7.85762 0.25
12 5.37013 3.4587 1.54007 0.25
13 0.508846 2.34973 7.44857 0.25
14 3.64448 2.53624 6.98818 0.25
15 8.30779 2.86676 5.81683 0.25
16 7.3595 0.835223 6.56316 0.25
17 0.853194 5.41091 8.13997 0.25
18 5.90851 7.41702 8.08849 0.25
19 4.46052 1.7627 7.63099 0.25
20 7.74001 1.14832 0.689476 0.25
21 5.16259 4.23006 1.88347 0.25
22 4.23122 3.28119 0.990225 0.25
23 2.22386 3.4056 1.99876 0.25
24 2.89967 1.74178 4.26741 0.25
25 2.87195 4.55279 2.93076 0.25
26 0.356344 0.0987647 5.73416 0.25
27 3.88127 0.37226 5.80448 0.25
28 4.2416 2.13577 0.0153484 0.25
29 5.18304 6.99262 2.92669 0.25
30 7.61133 7.38223 2.28418 0.25
31 2.66732 0.380855 8.07507 0.25
32 0.899276 2.70544 7.36783 0.25
33 7.71845 0.588306 5.31512 0.25
34 2.11561 5.29976 1.46913 0.25
35 8.10665 8.36992 4.54496 0.25
36 6.65912 2.00155 5.95138 0.5
37 4.45325 1.37963 2.3473 0.25
38 2.0813 3.46265 4.16052 0.25
39 6.09911 2.75907 4.92667 0.25
40 5.37319 7.76644 2.99705 0.25
41 6.79403 2.13357 2.53032 0.25
42 5.53979 5.94318 5.95075 0.25
43 3.41618 7.69002 4.93039 0.25
44 3.75638 8.32235 5.46901 0.25
45 5.37111 4.06281 4.08482 0.25
46 3.29105 6.03965 1.56639 0.5
47 5.02555 0.864219 5.46132 0.25
48 8.00867 6.27172 6.77463 0.25
49 7.12234 6.6917 4.79713 0.25
50 7.86937 0.89999 1.09397 0.25
51 2.54069 3.42778 4.30804 0.25
52 0.761402 1.75365 2.39909 0.25
53 6.46925 5.11553 7.04435 0.25
54 5.87718 3.29518 4.12023 0.25
55 1.40374 1.52313 5.88473 0.25
56 1.34893 7.19536 0.367898 0.25
57 4.59637 0.942592 2.10685 0.25
58 2.20596 2.15132 4.06027 0.25
59 4.7096 1.15084 6.27589 0.25
60 7.67578 5.44373 5.1747 0.25
61 5.02705 8.28073 8.14227 0.25
62 5.34778 2.18216 8.10975 0.5
63 7.61267 6.55574 1.10182 0.25
64 1.19045 6.07988 1.07756 0.25
65 4.2669 0.209577 1.76174 0.25
66 2.28075 4.78295 7.38382 0.25
67 8.11847 4.91032 7.28616 0.25
68 7.00576 0.534836 6.40211 0.25
69 0.291017 5.63065 7.53524 0.25
70 1.96505 4.77052 0.831604 0.25
71 8.04375 1.12683 0.314846 0.25
72 6.36432 6.2517 3.4815 0.25
73 0.563435 7.69406 6.73281 0.25
74 7.21218 5.67972 7.03663 0.25
75 7.40355 0.0143493 3.3974 0.25
76 7.37635 6.40986 4.45392 0.25
77 5.61588 2.84652 5.46139 0.25
78 5.53411 3.82683 1.21124 0.25
79 7.55906 4.99738 4.46871 0.25
80 5.68862 3.3637 5.5045 0.25
81 7.17119 1.38638 1.36029 0.25
82 0.318007 2.68306 6.01159 0.25
83 4.39186 5.83936 5.53681 0.25
84 1.16057 1.08077 5.89255 0.25
85 1.59581 0.826166 5.07601 0.25
86 4.60876 8.31827 5.41235 0.25
87 1.64624 1.67411 1.2522 0.25
88 3.31695 6.78414 1.65046 0.25
89 6.67403 7.0236 0.712508 0.25
90 5.55202 6.2698 5.55796 0.25
91 3.92202 4.26217 6.35462 0.25
92 6.0959 4.52855 7.56057 0.25
93 5.17337 6.30655 5.24055 0.25
94 6.97308 8.22921 4.13807 0.25
95 0.217727 4.57124 7.86333 0.5
96 5.45766 3.03576 3.47445 0.5
97 4.12682 5.17041 8.35516 0.25
98 8.20125 2.3 3.48471 0.25
99 1.4248 6.3972 5.85376 0.25
100 7.08767 6.94208 1.03626 0.25
101 0.867365 7.60522 8.16202 0.25
102 7.87275 4.84595 3.41836 0.25
103 6.67964 1.20077 1.44178 0.25
104 0.837031 4.70894 7.38759 0.25
105 5.16591 5.53495 5.40651 0.5
106 5.39316 0.236537 4.57358 0.25
107 4.33418 3.22589 7.00143 0.25
108 4.86642 1.47367 8.30765 0.25
109 0.733843 0.766588 5.92876 0.25
110 2.27372 7.96588 8.36706 0.25
111 3.03807 3.7485 7.13518 0.25
112 4.55187 2.11916 8.01482 0.25
113 1.78944 1.92233 1.94671 0.5
114 1.59407 3.69013 7.37605 0.25
115 4.54862 6.46272 6.01418 0.25
116 2.52931 7.23588 7.07635 0.25
117 4.14158 2.35793 3.79251 0.5
118 6.61455 7.13653 1.18645 0.25
119 0.775517 6.35255 3.28518 0.25
120 0.131623 2.83346 2.56232 0.25
121 3.25598 4.15126 3.56627 0.25
122 6.57412 0.725074 6.24449 0.25
123 5.27632 0.41082 5.5576 0.25
124 8.1679 7.98351 2.39409 0.25
125 3.40283 2.27265 3.80822 0.25
126 3.63508 1.19628 5.72261 0.25
127 5.49119 3.90585 1.70346 0.25
128 6.70872 5.30884 7.43844 0.25
129 0.842518 6.46503 4.11271 0.25
130 5.4379 6.31174 0.809548 0.25
131 6.8838 1.48195 6.39 0.25
132 5.8938 4.13071 7.66739 0.25
133 3.22189 1.99581 3.37769 0.25
134 4.21506 2.45661 8.06202 0.25
135 5.4929 3.82274 3.60685 0.25
136 2.81554 2.59882 3.63774 0.5
137 2.96202 4.11928 3.13498 0.25
138 7.58096 7.94559 2.82132 0.5
139 2.72453 8.34739 4.83464 0.25
140 5.18761 8.01656 7.80609 0.25
141 7.63953 5.90071 4.96657 0.25
142 1.18234 5.05016 3.26789 0.25
143 2.25747 2.10428 8.29409 0.25
144 4.9768 1.10475 2.77287 0.5
145 7.38118 1.99229 3.96333 0.25
146 5.9492 7.46693 0.209152 0.25
147 6.4034 5.54033 4.46193 0.25
148 2.21565 3.08308 4.50421 0.25
149 4.50185 8.23783 2.39064 0.5
150 4.94537 2.93754 4.10295 0.25
151 3.64812 6.02261 7.13427 0.25
152 3.44733 4.66941 5.77604 0.25
153 6.73698 6.067 2.32718 0.5
154 7.18077 2.47761 4.60566 0.5
155 3.02485 7.34352 7.77655 0.25
156 7.54026 3.55568 1.4825 0.25
157 7.611 5.88302 1.53746 0.25
158 2.44969 3.56485 0.817141 0.25
159 7.06621 7.85976 4.47949 0.25
160 6.47767 2.01558 2.9349 0.25
161 1.0423 5.24079 2.82274 0.25
162 5.79943 4.33526 7.22297 0.25
163 3.26618 3.82019 4.25588 0.5
164 2.55556 3.89641 2.51652 0.5
165 5.60081 8.08252 7.60404 0.25
166 8.30065 3.80806 7.84314 0.25
167 6.59832 4.00953 8.25335 0.25
168 4.71285 6.05917 5.8435 0.25
169 3.89137 4.4143 5.84182 0.25
170 8.27322 2.66899 6.28845 0.25
171 7.77321 5.74323 1.04667 0.25
172 1.13962 2.92035 6.93978 0.25
173 4.34647 6.34209 5.57763 0.25
174 2.27487 2.34061 1.00115 0.25
175 7.62157 2.33319 5.9909 0.5
176 2.23126 5.8804 6.22045 0.25
177 5.47697 3.53703 4.00623 0.25
178 3.15087 6.55797 2.00485 0.25
179 3.51737 2.39435 3.33243 0.25
180 5.87029 6.32588 5.94709 0.25
181 6.60521 4.19662 6.90577 0.25
182 3.35309 5.25067 3.29227 0.25
183 8.12901 7.54821 1.6869 0.25
184 3.70452 5.42554 8.35435 0.25
185 5.80943 6.79756 6.17221 0.25
186 7.44016 5.91605 4.50674 0.25
187 3.4359 5.43611 4.27741 0.25
188 0.762041 5.81995 3.32321 0.25
189 4.29682 6.70663 3.49006 0.25
190 4.30592 3.27651 1.4505 0.25
191 7.10757 1.57048 0.587209 0.5
192 0.873499 5.03285 7.78226 0.25
193 4.02493 5.43791 1.05001 0.25
194 2.68813 6.44382 1.92342 0.25
195 6.11769 5.71208 2.67349 0.25
196 2.38875 8.05187 2.67581 0.25
197 1.18927 8.17367 2.41283 0.25
198 7.86063 5.17067 6.87867 0.25
199 1.13653 1.1033 3.0648 0.25
200 4.68199 5.24405 1.45145 0.5
201 6.53928 1.61391 3.18336 0.25
202 8.29092 3.85247 5.41807 0.25
203 3.5896 1.82911 3.7374 0.25
204 5.69497 8.10194 0.00192164 0.5
205 2.45863 7.40327 4.40425 0.5
206 0.346102 4.52814 5.18638 0.25
207 5.79556 2.80252 4.09762 0.25
208 6.80951 5.27536 4.35228 0.25
209 5.36028 7.08452 8.36271 0.5
210 1.94935 8.02238 2.87688 0.25
211 0.600514 3.77844 4.99953 0.25
212 1.51975 7.85543 8.36274 0.5
213 0.320611 4.22032 2.67283 0.25
214 1.98014 7.9797 2.39557 0.25
215 2.92031 4.34847 3.87784 0.25
216 6.3973 1.86445 2.45717 0.25
217 5.11205 3.70243 1.90791 0.25
218 2.39007 3.44255 4.8206 0.25
219 4.23358 1.22158 2.85731 0.25
220 3.70315 3.40078 1.00163 0.25
221 4.17653 8.32079 5.69703 0.25
222 7.36871 0.827844 5.10683 0.25
223 8.11354 2.8176 2.80396 0.25
224 7.26397 5.36061 7.45009 0.25
225 7.16074 2.18301 5.3688 0.25
226 4.8571 2.14097 7.57911 0.25
227 6.34049 3.75558 7.03359 0.25
228 5.41256 3.10288 4.25322 0.25
229 5.83225 4.86582 1.82943 0.25
230 0.250048 8.28975 6.40055 0.5
231 5.40155 4.57622 1.2794 0.5
232 1.89637 3.00953 4.1612 0.25
233 4.13093 5.1412 4.11051 0.25
234 6.47029 1.11579 6.59738 0.25
235 3.03767 7.32469 4.83667 0.25
236 0.816988 2.60733 8.20969 0.25
237 8.22394 2.85688 7.28143 0.25
238 3.69179 1.02987 1.12621 0.25
239 0.24423 2.22795 3.70891 0.25
240 6.68671 6.35996 1.52433 0.25
241 3.41547 7.13776 7.98501 0.25
242 1.99031 7.35671 2.68179 0.5
243 3.00783 4.94215 3.27145 0.25
244 7.09032 3.54495 1.26139 0.25
245 2.18019 1.07244 5.96247 0.25
246 7.73597 8.06996 3.59539 0.25
247 3.5589 2.78206 3.71415 0.25
248 3.89048 3.12763 1.30533 0.25
249 0.0278201 5.19155 7.51918 0.25
250 1.31069 3.7545 5.32677 0.25
251 5.35628 2.5974 4.74445 0.5
252 3.17301 2.21228 4.26594 0.25
253 7.9416 5.662 7.32055 0.5
254 7.30296 6.13686 7.25175 0.25
255 4.65329 0.453264 5.96471 0.5
256 5.92417 6.23926 0.551716 0.25
257 1.08227 0.306377 2.60884 0.25
258 1.71121 1.68353 2.67381 0.25
259 4.69988 3.04136 1.51545 0.25
260 7.8923 6.15464 1.27588 0.25
261 4.07871 0.0742579 1.29262 0.25
262 3.44935 2.59591 4.1654 0.25
263 2.19608 0.249378 0.28667 0.5
264 2.90338 4.46149 3.41702 0.25
265 0.934209 3.95111 7.41959 0.5
266 0.914559 7.74775 7.3974 0.5
267 5.03449 2.57187 7.53726 0.25
268 6.3226 7.87635 0.291552 0.25
269 2.12624 5.53933 0.64945 0.25
270 3.97397 3.62218 1.30435 0.25
271 7.52646 7.84336 4.77787 0.25
272 1.66554 0.921986 2.429 0.25
273 1.29013 3.34001 7.14467 0.25
274 0.756101 5.50665 7.62337 0.25
275 4.71159 4.42863 1.63857 0.25
276 2.42349 3.13051 1.06855 0.25
277 6.6339 0.672159 6.75851 0.25
278 4.04011 6.21819 1.29145 0.25
279 4.12443 0.420949 5.08669 0.5
280 7.89828 8.07852 4.94938 0.25
281 1.01275 6.31506 0.694727 0.25
282 6.19717 7.01511 6.37315 0.25
283 1.00398 8.34501 6.22156 0.25
284 7.43994 4.36569 0.911627 0.25
285 1.94382 6.031 1.19686 0.5
286 5.65379 6.80258 3.0553 0.25
287 1.56108 7.96672 3.39589 0.5
288 2.65059 7.43947 5.18239 0.25
289 2.28649 7.14489 5.03108 0.25
290 2.05012 3.87976 1.91972 0.25
291 8.23831 7.52862 7.16069 0.25
292 7.69576 2.48911 3.45614 0.25
293 7.61724 4.42006 3.43631 0.25
294 5.86864 3.70438 3.2161 0.25
295 8.22853 4.0312 1.07468 0.25
296 0.480343 4.2276 4.49685 0.5
297 3.87885 3.00517 6.86203 0.25
298 6.26948 5.02788 7.42714 0.25
299 5.92286 4.90605 7.80552 0.25
300 6.42632 3.34105 0.559623 0.25
301 1.18771 7.34829 7.94984 0.25
302 0.244925 4.14248 1.44179 0.25
303 4.21798 0.89224 1.1778 0.25
304 2.05563 2.69134 4.66139 0.25
305 0.677225 4.99017 8.26522 0.25
306 2.29059 2.22996 4.53913 0.25
307 1.54426 4.78114 7.53421 0.5
308 3.65229 5.69241 3.11917 0.25
309 4.48031 0.979119 5.48756 0.25
310 1.03437 4.66183 4.14672 0.25
311 7.39116 8.36226 3.90417 0.25
312 0.882436 1.01053 2.29085 0.5
313 0.849785 3.84264 5.41853 0.25
314 5.39993 3.73127 3.13096 0.25
315 1.20217 5.06117 8.18668 0.25
316 1.71648 4.14661 7.17658 0.25
317 7.4727 2.43961 3.89537 0.25
318 2.30039 2.63295 4.2241 0.25
319 4.98563 7.51517 7.85332 0.25
320 1.85844 6.22514 6.06628 0.25
321 4.57904 0.94624 1.54407 0.25
322 6.92181 6.38137 5.10655 0.25
323 0.772394 6.01267 4.2178 0.25
324 4.14293 7.36503 7.76263 0.5
325 0.899551 1.72065 0.194955 0.25
326 3.87938 4.88281 5.1879 0.5
327 7.60504 7.27415 3.2219 0.25
328 2.4174 7.94041 1.81096 0.25
329 1.19719 6.00862 3.43961 0.25
330 8.35397 7.03096 7.28274 0.25
331 1.02945 5.39467 3.88854 0.5
332 7.38404 6.58019 2.20217 0.25
333 1.09734 1.67017 2.03084 0.25
334 6.82602 1.63297 1.69974 0.25
335 3.39524 3.02227 1.11281 0.25
336 2.97128 7.18348 6.83044 0.25
337 4.4322 7.22719 2.91333 0.5
338 6.30176 7.51863 8.26138 0.25
339 2.12118 8.00527 4.00008 0.25
340 4.95589 0.490558 4.78737 0.25
341 6.99424 8.34314 3.19183 0.25
342 1.03909 5.19111 7.30967 0.25
343 2.78594 1.26888 0.2472 0.25
344 1.23651 5.70101 2.65254 0.25
345 0.533314 1.53532 2.77539 0.25
346 0.398434 2.3406 7.93165 0.25
347 3.42454 6.02352 7.61426 0.25
348 7.43216 7.80942 2.05795 0.25
349 0.729783 2.12203 8.24347 0.25
350 6.73665 1.68518 2.69364 0.25
351 1.40001 7.05849 0.86095 0.25
352 6.28609 3.51249 7.78477 0.5
353 2.48369 0.0618573 7.6631 0.25
354 2.00278 0.631354 5.9404 0.25
355 0.752481 0.305589 5.94524 0.25
356 1.82238 1.8287 5.84507 0.25
357 2.72175 3.7428 6.7018 0.25
358 6.06745 3.58922 5.22368 0.25
359 4.23666 0.97628 6.22874 0.25
360 1.91448 2.09032 1.21814 0.25
361 0.97483 7.586 0.330196 0.25
362 6.13812 4.20416 6.86772 0.25
363 8.0418 4.05098 2.04416 0.25
364 5.86566 3.88128 7.22613 0.25
365 5.48358 6.0456 0.36793 0.25
366 5.15249 6.41677 0.325487 0.25
367 2.9135 4.16868 6.91929 0.25
368 6.88376 3.66111 8.21754 0.25
369 1.33257 6.66348 0.453422 0.25
370 5.69164 0.441445 8.1232 0.25
371 2.38318 8.15433 4.4558 0.25
372 2.3853 4.59544 0.683997 0.25
373 7.00703 2.85024 5.2567 0.25
374 3.53313 4.47302 4.55492 0.25
375 5.50424 1.08497 7.87835 0.25
376 2.71387 5.83881 1.1527 0.25
377 6.41753 1.17113 2.18197 0.5
378 0.237954 3.79571 7.48882 0.25
379 5.2273 1.48365 7.89359 0.25
380 2.29983 6.7228 4.73078 0.25
381 3.98838 5.59929 5.51367 0.25
382 1.86416 6.97854 4.6975 0.25
383 6.17136 5.21183 3.89096 0.5
384 1.18746 1.7612 1.52084 0.25
385 6.93696 1.34216 7.12816 0.5
386 1.37516 1.17115 5.47223 0.25
387 7.61032 0.638459 0.754247 0.25
388 0.761813 5.64053 2.85381 0.25
389 4.30874 2.48743 7.31452 0.5
390 3.93157 0.618708 6.2703 0.25
391 5.39466 4.61057 2.05973 0.25
392 8.11855 2.76766 3.30985 0.25
393 2.86002 6.61076 1.54442 0.25
394 0.862248 8.08795 8.0446 0.25
395 2.61209 2.01213 1.11592 0.25
396 4.70404 7.88929 7.96264 0.25
397 5.48826 0.85802 8.34922 0.25
398 7.38582 1.55146 8.30984 0.25
399 3.2957 4.5552 3.16915 0.25
400 4.90848 4.33146 0.740473 0.25
401 2.17734 7.09325 3.78694 0.25
402 8.15509 7.95796 6.9338 0.25
403 7.73101 6.17581 0.793212 0.25
404 7.99209 6.76697 6.99403 0.25
405 0.539094 7.50135 0.104332 0.25
406 5.83704 0.0346621 4.35873 0.25
407 2.32074 1.08997 8.01596 0.5
408 5.54669 3.21056 2.39991 0.25
409 2.33268 4.93251 1.17916 0.25
410 7.48646 0.811315 0.0481081 0.5
411 4.4059 5.37689 5.30343 0.25
412 8.23232 7.17618 6.82211 0.25
413 1.40222 1.69251 0.365587 0.25
414 0.403496 3.09464 7.8157 0.5
415 6.46864 4.6775 2.97208 0.25
416 3.09883 2.95302 6.26805 0.25
417 3.50313 4.82964 3.84362 0.5
418 7.02461 6.66269 4.31878 0.25
419 3.89438 3.91703 5.99465 0.25
420 0.870539 3.14706 4.72828 0.25
421 3.83764 4.93936 5.84533 0.25
422 2.3861 5.46223 1.09689 0.25
423 0.246529 0.5356 5.91391 0.25
424 0.483898 3.44186 4.73774 0.25
425 1.93675 2.84823 1.44946 0.5
426 6.95395 5.63094 5.04392 0.5
427 2.669 2.20187 4.27535 0.25
428 4.12685 5.27356 3.67354 0.25
429 4.31028 4.66228 5.72857 0.25
430 1.81929 7.24691 3.4587 0.25
431 0.915583 3.35503 6.83799 0.25
432 1.51445 6.95208 4.05855 0.5
433 1.95049 1.68943 7.68386 0.25
434 0.901939 6.4741 1.17752 0.25
435 5.76884 3.40819 2.86942 0.25
436 0.985022 6.02698 2.95415 0.25
437 0.130396 0.992015 0.370758 0.25
438 0.945489 3.46766 5.06855 0.25
439 3.95164 2.53003 6.6447 0.25
440 4.97567 1.64817 7.52791 0.25
441 7.92523 4.18063 5.34951 0.25
442 2.49871 5.64371 1.53786 0.25
443 0.398993 2.79833 6.82178 0.5
444 2.14042 3.58451 1.54519 0.25
445 5.26321 7.23529 0.667842 0.25
446 4.28836 5.95401 3.50627 0.5
447 1.50073 1.69296 5.46108 0.25
448 5.98038 7.14161 5.90041 0.25
449 0.982907 5.5475 5.72239 0.25
450 2.8768 3.26562 0.978084 0.25
451 2.53452 7.01904 5.47312 0.25
452 2.43809 0.961384 0.382951 0.25
453 4.66743 4.58645 1.11799 0.25
454 0.0306612 3.39664 7.17802 0.25
455 8.00236 5.03622 7.76254 0.25
456 3.06777 1.91671 3.86134 0.25
457 2.34795 3.75873 7.40858 0.5
458 0.0329774 7.59903 6.67016 0.25
459 5.07846 7.75982 8.25722 0.25
460 5.80446 0.0911769 4.86767 0.25
461 2.53622 3.47962 1.26851 0.25
462 6.19806 5.00388 3.20327 0.25
463 5.18791 7.43292 2.70335 0.25
464 7.53612 6.88885 7.07903 0.25
465 7.02411 2.55565 5.62128 0.25
466 3.92906 1.54779 2.99385 0.25
467 3.95916 6.20993 1.73183 0.25
468 6.7732 5.34319 2.99197 0.5
469 7.40093 7.36689 6.94048 0.25
470 1.29085 1.4289 8.33646 0.25
471 1.65428 1.05084 5.94506 0.25
472 2.0168 7.69266 1.94283 0.25
473 7.42713 5.11983 5.41047 0.25
474 5.09361 5.77342 6.08263 0.25
475 1.42294 1.25215 2.739 0.25
476 7.42771 1.07052 7.64343 0.25
477 3.30909 5.44986 3.80996 0.25
478 6.0505 3.36862 7.10081 0.25
479 3.41597 7.32674 7.49175 0.25
480 4.82177 0.494589 2.27754 0.25
481 7.79101 2.164 4.19217 0.25
482 7.05948 4.98656 4.59306 0.25
483 8.08129 5.58163 5.10708 0.25
484 2.78291 0.734193 0.0682055 0.25
485 7.87599 7.55053 6.8117 0.25
486 2.32706 6.34411 5.99596 0.25
487 8.16947 7.54173 4.38227 0.25
488 4.32717 4.2089 6.01661 0.25
489 0.7438 7.9782 0.117198 0.25
490 8.23989 7.95946 1.90501 0.25
491 4.69625 3.06797 1.04336 0.25
492 2.42393 1.81954 4.34058 0.25
493 6.26201 4.61117 7.1037 0.25
494 4.8378 7.52733 2.41093 0.25
495 1.14507 6.00156 5.78211 0.25
496 2.88614 7.80795 4.89694 0.25
497 6.38782 4.23436 7.81866 0.25
498 3.3139 3.05727 4.10709 0.25
499 0.53035 5.15785 7.37386 0.25
500 3.90136 2.99105 6.3688 0.25
501 5.86883 3.85179 4.01395 0.25
502 1.67528 8.04446 7.63238 0.25
503 5.88421 5.00199 2.51328 0.5
504 7.86773 7.70281 2.09586 0.25
505 5.76575 1.31447 2.98907 0.25
506 6.9536 6.25679 4.60646 0.25
507 1.24724 0.282064 3.08731 0.25
508 0.763676 0.160996 5.41109 0.25
509 8.07559 4.87059 5.09083 0.5
510 4.99917 1.63444 5.70712 0.25
511 0.557828 0.570494 5.54033 0.25
512 0.889297 0.661448 2.97306 0.25
513 4.00323 1.12278 5.34165 0.25
514 1.81855 5.73406 6.11869 0.25
515 0.911834 8.04192 6.65821 0.25
516 7.31344 1.63271 6.07136 0.25
517 7.30858 5.40089 4.45705 0.25
518 0.902183 3.63746 4.57981 0.25
519 6.46707 1.83115 1.89746 0.25
520 6.78557 1.93664 6.6864 0.25
521 7.77447 1.55542 0.310151 0.25
522 6.66497 1.40426 7.89073 0.25
523 5.28101 6.66631 5.56856 0.25
524 2.65123 0.525797 7.6065 0.25
525 6.29649 4.16611 7.3025 0.25
526 6.91789 5.31008 7.02064 0.25
527 7.46682 8.00777 4.24113 0.25
528 7.37167 1.34513 6.49725 0.25
529 6.60596 1.22402 2.91781 0.25
530 2.12174 1.84876 6.24413 0.25
531 7.83928 7.78054 3.99431 0.25
532 1.32212 0.734539 2.77724 0.25
533 7.20471 1.39602 7.8788 0.25
534 8.09648 5.6932 1.42049 0.25
535 0.393215 3.22141 5.4303 0.5
536 6.92731 2.69364 6.05607 0.25
537 4.03791 0.859456 5.78284 0.25
538 6.51357 5.1028 4.6632 0.25
539 2.37934 1.42883 6.2978 0.25
540 8.10941 6.34105 1.91306 0.5
541 7.678 4.04464 1.63237 0.25
542 2.1015 2.15067 7.8384 0.25
543 3.32558 7.44392 7.03138 0.25
544 7.64382 6.56926 6.67976 0.25
545 1.22077 6.13222 3.98069 0.25
546 4.72922 6.02121 6.31943 0.25
547 4.95156 2.81743 8.19971 0.25
548 5.97877 7.33275 6.67477 0.25
549 0.218999 7.84644 7.08836 0.25
550 6.12458 7.01146 0.048229 0.25
551 4.34565 1.65324 2.76518 0.25
552 3.82399 5.49744 3.96903 0.25
553 7.12289 7.71233 3.68244 0.5
554 4.45542 6.51576 3.05842 0.25
555 5.08186 6.75871 3.56657 0.5
556 7.11499 0.79336 0.801007 0.25
557 7.2152 4.96859 3.83145 0.5
558 6.59748 8.20677 3.47653 0.25
559 1.33209 0.430916 5.64316 0.5
560 5.09291 3.43278 2.30184 0.25
561 2.86231 3.27564 4.00614 0.25
562 5.12526 8.3331 5.41397 0.25
563 2.37629 6.57405 1.57007 0.25
564 5.98417 6.94214 0.785347 0.5
565 6.4809 1.58013 6.57874 0.25
566 1.2308 1.6962 2.4818 0.25
567 4.27051 6.01792 6.02267 0.25
568 6.2236 1.24378 3.28124 0.25
569 2.53226 8.27861 8.09935 0.25
570 1.81188 6.50756 4.61647 0.25
571 2.93811 4.221 7.4032 0.25
572 8.14465 2.74647 4.05347 0.5
573 3.97994 1.40449 2.4877 0.25
574 1.4194 6.03506 6.18953 0.25
575 2.04851 1.70032 8.20085 0.25
576 4.16066 5.6888 7.6963 0.25
577 5.30568 0.152368 4.99851 0.25
578 1.98689 7.52267 3.83765 0.25
579 7.65464 5.04669 7.38171 0.25
580 7.39451 0.198499 4.66323 0.5
581 4.12127 4.66253 6.17158 0.25
582 5.88005 3.0291 4.55851 0.25
583 5.56286 3.60973 4.7306 0.5
584 4.82879 6.50889 5.58893 0.25
585 5.15116 3.10119 1.31386 0.25
586 1.77373 0.235256 2.50942 0.5
587 4.94005 7.01046 2.48929 0.25
588 5.75399 5.18711 3.22677 0.25
589 0.0776224 2.45682 7.52266 0.25
590 3.68558 6.59383 1.96151 0.25
591 6.47602 1.41777 1.01866 0.25
592 7.48571 7.12908 1.64382 0.5
593 6.82438 6.86771 1.50059 0.25
594 1.94307 4.97659 0.178378 0.5
595 0.398197 3.83293 7.92164 0.25
596 2.1678 0.868905 0.758253 0.25
597 0.0365872 0.274822 5.13734 0.5
598 2.63725 6.32968 1.15266 0.25
599 2.03383 8.28304 7.99106 0.25
600 7.7236 1.09475 5.29589 0.25
601 0.852725 0.961475 5.48589 0.25
602 3.90049 0.279294 2.06068 0.25
603 4.14478 5.63287 8.17574 0.25
604 7.4121 5.18006 7.03908 0.25
605 7.81924 2.08485 3.71802 0.25
606 2.39442 8.25787 2.23295 0.25
607 4.33349 5.26185 7.90116 0.25
608 3.61891 7.76346 7.34596 0.25
609 6.70274 4.7788 4.33677 0.25
610 1.84229 1.3703 5.64456 0.25
611 3.01526 0.657132 7.95762 0.25
612 0.962433 7.21052 0.0292587 0.25
613 6.93843 1.71336 8.21247 0.25
614 4.73997 0.872201 5.03993 0.25
615 4.88136 2.60724 3.71156 0.25
616 1.14418 5.60119 3.16168 0.25
617 1.59044 7.90443 2.12747 0.25
618 7.53594 7.21649 4.37453 0.5
619 7.86666 7.93093 4.47408 0.25
620 8.37058 7.29041 2.34161 0.5
621 4.49478 6.58107 3.9516 0.25
622 6.03036 6.49148 6.41364 0.25
623 5.274 6.79461 0.703838 0.25
624 1.13665 3.3253 5.47551 0.25
625 1.19101 5.39151 7.78937 0.25
626 3.8433 0.542073 1.20292 0.25
627 4.96533 4.71402 1.90916 0.25
628 8.30849 3.54434 2.51199 0.5
629 7.09281 3.26123 0.0665762 0.25
630 1.1585 8.25874 2.82658 0.25
631 1.68659 1.42604 7.97991 0.25
632 7.75612 7.90308 1.66897 0.25
633 6.07516 7.64951 0.627317 0.25
634 3.02264 7.69793 4.00729 0.25
635 0.700293 6.99529 0.69702 0.5
636 1.45407 2.18002 1.32801 0.25
637 5.62835 0.101752 5.3829 0.25
638 4.84703 1.2963 5.36018 0.25
639 4.71756 1.91838 0.0580438 0.25
640 5.15401 7.68364 0.418229 0.25
641 1.20323 6.62576 5.18159 0.25
642 3.62898 0.774115 5.51073 0.25
643 6.19937 6.67349 5.98817 0.25
644 5.73328 0.837105 3.00468 0.25
645 2.34584 2.17453 1.47656 0.25
646 8.09709 6.72777 6.5485 0.25
647 2.39318 3.07736 4.04146 0.25
648 5.36295 1.38234 8.34505 0.25
649 0.563469 4.06635 1.87621 0.25
650 8.34145 3.69064 1.36672 0.25
651 3.23718 3.25606 3.69845 0.25
652 7.07713 0.618101 6.90369 0.25
653 1.36412 6.55628 0.935764 0.25
654 0.395883 2.4923 0.0424236 0.25
655 3.40322 3.61316 6.50378 0.5
656 0.503057 3.52441 7.09458 0.25
657 1.39981 5.60904 5.91566 0.25
658 6.99846 0.0649016 3.6662 0.25
659 2.40272 1.825 7.89117 0.25
660 6.91539 5.92704 3.97325 0.5
661 8.29517 1.00401 8.27113 0.25
662 3.9212 4.74563 4.41911 0.25
663 2.53401 3.70968 1.77533 0.25
664 6.58623 2.8307 4.94398 0.25
665 7.8836 3.80181 1.24549 0.25
666 5.83545 6.85468 6.68016 0.25
667 6.61798 3.32203 0.114178 0.25
668 7.0718 6.54154 1.83282 0.25
669 5.78915 4.84098 7.30828 0.25
670 5.51626 8.15555 4.64652 0.25
671 3.47005 4.96448 4.57118 0.25
672 2.72462 3.26121 2.03363 0.25
673 0.649611 1.09094 2.99427 0.25
674 5.08347 7.41452 3.20816 0.25
675 5.31644 3.62333 5.47302 0.25
676 7.80746 8.17677 2.05881 0.25
677 6.36572 1.55828 1.48612 0.25
678 7.36376 6.26878 4.92515 0.25
679 1.30242 6.39859 1.41161 0.25
680 3.74369 6.74654 8.08094 0.25
681 7.86689 8.27 4.06412 0.25
682 2.60261 6.13817 1.56838 0.25
683 1.66936 7.77657 7.26223 0.25
684 0.472292 3.69709 1.5087 0.25
685 2.76869 3.32652 6.4115 0.25
686 4.3008 2.88408 6.63488 0.25
687 1.89095 4.36183 0.633437 0.25
688 3.59198 0.775605 6.01032 0.25
689 6.09502 4.03228 8.17651 0.25
690 6.12811 1.11534 2.82798 0.25
691 7.07353 1.15127 1.75923 0.25
692 5.34564 5.06662 1.84854 0.25
693 7.24898 1.82864 6.5147 0.25
694 7.40274 5.1022 4.92095 0.25
695 0.158213 3.07503 6.20346 0.25
696 5.67 6.02864 3.24057 0.5
697 4.14196 3.83675 6.40861 0.25
698 1.84042 0.931593 5.51992 0.25
699 1.47668 6.77569 4.84444 0.25
700 4.30382 5.84129 1.09435 0.25
701 4.81692 1.75332 7.94492 0.25
702 2.07934 4.37761 7.45098 0.25
703 3.41741 6.70627 7.37154 0.5
704 4.47716 4.90248 8.23869 0.25
705 5.07746 3.20399 1.7998 0.25
706 5.25535 0.3028 8.29097 0.25
707 4.79188 3.7794 1.24236 0.5
708 5.47668 7.63582 7.87903 0.25
709 2.70643 7.22793 1.9388 0.5
710 2.10969 4.43162 7.00737 0.25
711 5.29661 6.49304 2.87114 0.25
712 0.421147 5.25058 7.8792 0.25
713 2.80935 4.12828 1.81879 0.25
714 5.29811 3.97455 0.752636 0.25
715 4.83676 6.66498 2.81862 0.25
716 6.97298 0.992606 7.85744 0.25
717 7.82983 7.61252 3.50788 0.25
718 5.92849 3.75921 6.71571 0.25
719 5.98305 4.47547 8.0299 0.25
720 1.75191 7.71488 4.16738 0.25
721 6.8608 1.75739 2.20808 0.25
722 2.50239 7.66262 3.35902 0.5
723 2.67605 7.65964 2.59308 0.25
724 7.10156 6.49302 1.30655 0.25
725 7.70468 6.3793 7.15378 0.25
726 1.09627 0.971271 5.09285 0.25
727 4.283 0.506278 1.44128 0.25
728 3.65963 6.31064 7.92275 0.25
729 4.97664 6.00597 3.49327 0.25
730 2.94836 7.24632 7.28462 0.25
731 5.2436 3.33078 2.79397 0.25
732 3.91953 3.48094 7.07698 0.25
733 3.75522 5.62728 7.47206 0.25
734 3.83125 0.973034 2.64778 0.25
735 3.47634 2.81652 6.62886 0.25
736 7.88969 1.39895 8.28489 0.25
737 3.91354 0.827143 0.767336 0.25
738 0.238111 7.85175 0.224552 0.25
739 4.89666 6.25375 3.06938 0.25
740 5.55248 7.30706 3.07458 0.25
741 0.567847 7.75246 0.565175 0.25
742 3.65368 4.66089 6.22399 0.25
743 7.06417 0.899014 1.33066 0.25
744 4.30042 0.941982 2.48345 0.25
745 3.4909 4.24361 6.13059 0.25
746 1.24565 6.06824 4.71579 0.5
747 4.33623 0.533605 2.18946 0.25
748 2.72881 6.79604 7.07094 0.25
749 1.51112 1.3607 2.27767 0.25
750 0.140792 3.47723 1.78847 0.25
751 1.21746 0.486833 4.91875 0.25
752 6.3747 4.76677 7.84114 0.25
753 3.9122 0.963117 1.86354 0.5
754 4.40427 5.9771 1.59322 0.25
755 2.84867 2.68506 1.40895 0.5
756 7.86278 6.8171 7.48561 0.25
757 5.79857 6.718 5.6484 0.25
758 6.7468 3.89003 7.29222 0.25
759 4.15324 8.09587 5.22482 0.25
760 0.202531 2.62592 3.45312 0.25
761 3.7866 7.34047 7.13145 0.25
762 0.72843 1.64662 3.4692 0.5
763 4.00255 8.22091 1.80106 0.25
764 1.46644 6.22345 0.644701 0.25
765 7.41521 4.77711 3.12301 0.25
766 0.590986 4.35991 2.33889 0.25
767 2.67578 6.97316 7.54532 0.25
768 2.23405 3.03006 4.98431 0.25
769 8.00445 3.64835 1.72437 0.25
770 5.05247 1.03297 8.09092 0.25
771 6.56169 1.24071 6.17368 0.25
772 4.72629 2.53531 7.90373 0.25
773 5.54844 0.841496 5.02446 0.5
774 3.72457 8.14737 5.00748 0.25
775 7.99336 4.38141 2.75805 0.5
776 6.99853 3.80656 0.577594 0.5
777 5.96355 6.56589 0.105481 0.25
778 4.97367 8.15284 0.235477 0.25
779 8.25799 8.01799 4.205 0.25
780 2.2709 1.54663 5.82802 0.25
781 2.56531 1.66741 8.32742 0.25
782 1.28367 7.53852 0.683959 0.25
783 6.8872 3.09883 0.486757 0.25
784 2.36801 7.7992 2.22645 0.25
785 2.58115 1.82777 6.07946 0.25
786 2.82615 7.93365 2.14671 0.25
787 7.77243 7.0942 6.67881 0.25
788 0.11926 4.22939 2.21159 0.25
789 3.67003 7.91796 4.53887 0.25
790 6.73856 0.207902 6.80642 0.25
791 0.700003 4.62344 3.08635 0.5
792 2.21053 0.380215 7.88812 0.25
793 8.19649 7.04701 1.63446 0.25
794 5.22401 6.53252 6.29198 0.5
795 2.50673 4.34228 3.09419 0.25
796 2.11855 5.94073 5.72376 0.25
797 6.67248 6.65253 1.07324 0.25
798 7.81071 4.31752 1.23847 0.25
799 3.99593 3.46738 6.09684 0.25
800 7.91221 2.01033 3.24173 0.25
801 3.23224 8.00397 7.07316 0.25
802 3.88047 5.29278 4.48581 0.25
803 3.19601 8.37415 7.70185 0.5
804 3.72175 7.05404 1.74935 0.25
805 2.00554 8.18064 1.95327 0.25
806 2.57151 1.86143 3.86856 0.25
807 4.71566 6.14512 5.28737 0.25
808 4.11995 2.00631 7.94224 0.25
809 1.64261 5.95977 5.70893 0.25
810 6.45134 7.44341 6.57934 0.25
811 1.60299 3.39295 4.78624 0.5
812 5.59495 7.59382 0.539217 0.25
813 4.19069 1.99495 3.1419 0.25
814 1.63001 7.56018 7.70367 0.25
815 2.87785 8.01342 4.46179 0.25
816 1.06067 2.97355 5.1432 0.25
817 4.39069 1.66173 8.16213 0.25
818 3.69164 1.93579 3.26308 0.25
819 1.96796 5.22277 0.984548 0.25
820 2.97773 2.97347 6.73196 0.25
821 1.45354 2.10593 8.15678 0.5
822 5.92001 4.35812 3.44063 0.5
823 5.29416 0.663666 7.92184 0.25
824 0.708046 0.608008 5.13861 0.25
825 3.87778 6.09742 7.52818 0.25
826 3.23162 3.55703 1.59714 0.5
827 5.68822 7.192 6.30732 0.25
828 0.19502 1.97227 7.62196 0.25
829 8.37176 7.97263 4.72404 0.25
830 0.903221 1.93198 2.82137 0.25
831 2.11894 4.27453 7.90955 0.25
832 5.70791 4.33805 1.846 0.25
833 1.89893 1.44521 6.13524 0.25
834 3.98532 0.507222 2.54971 0.25
835 6.77365 1.64561 1.21589 0.25
836 3.42643 7.64939 7.83396 0.25
837 3.83435 5.35379 7.87908 0.25
838 7.46138 0.619197 1.17568 0.25
839 6.08305 7.48433 6.25038 0.25
840 6.96555 4.63902 7.40517 0.5
841 3.41326 6.96398 2.14498 0.25
842 0.224544 2.23622 2.91241 0.5
843 5.74439 3.88437 5.4589 0.25
844 4.64639 2.46693 8.36292 0.25
845 7.4375 2.58237 5.33497 0.25
846 3.38932 3.12414 7.36119 0.5
847 2.3561 5.10448 0.740532 0.25
848 1.80513 5.86221 5.26762 0.25
849 5.17859 7.91341 2.52742 0.25
850 6.33496 2.9842 5.63507 0.5
851 5.49077 8.12965 5.13111 0.25
852 6.9073 1.79339 7.71479 0.25
853 4.09603 8.02666 4.75667 0.25
854 4.30958 1.57937 5.80204 0.5
855 0.360195 4.03452 5.31934 0.25
856 0.726252 5.32734 3.22035 0.25
857 3.76063 6.65353 1.45409 0.25
858 2.78151 4.84131 3.71697 0.25
859 6.54955 4.55146 3.89362 0.25
860 7.71008 3.97854 0.834061 0.25
861 4.81552 2.98036 7.75528 0.25
862 6.53956 4.78243 3.43673 0.25
863 5.52364 6.27827 8.36437 0.25
864 7.76087 6.89823 2.3215 0.25
865 3.73372 5.83351 7.94609 0.25
866 5.05225 8.21463 2.91602 0.25
867 1.71836 4.10775 7.65713 0.25
868 2.19423 1.69435 0.587143 0.5
869 0.830249 3.19574 7.29443 0.25
870 6.09861 5.47304 3.08673 0.25
871 2.85368 7.64169 6.97669 0.25
872 5.82409 3.10469 5.08403 0.25
873 0.463371 7.79955 8.09576 0.25
874 3.81398 1.14415 6.20125 0.25
875 2.28676 4.1908 1.25698 0.5
876 1.37966 5.68683 5.40868 0.25
877 8.33633 5.41059 7.92536 0.25
878 5.72641 1.04824 2.55257 0.25
879 3.23726 8.10899 4.743 0.25
880 6.38113 5.96211 3.02088 0.25
881 7.50372 1.03603 1.47925 0.25
882 7.85686 7.21838 7.17221 0.25
883 0.458732 3.8986 2.29649 0.25
884 7.19097 3.20417 0.901664 0.25
885 0.789786 4.24904 5.19605 0.25
886 8.07636 7.44993 3.05592 0.25
887 1.19446 6.87873 1.30335 0.25
888 1.11826 4.72372 3.67327 0.25
889 1.50748 7.89498 2.64261 0.25
890 0.227024 4.67675 2.41782 0.25
891 0.885051 2.41829 7.78676 0.25
892 7.51096 3.50953 1.02237 0.25
893 1.04182 8.03221 0.549578 0.25
894 3.99943 5.70458 1.48342 0.25
895 3.74661 5.82756 1.07621 0.25
896 1.78822 1.41602 0.0729418 0.25
897 8.11871 4.13162 1.55937 0.25
898 0.665918 4.65348 3.85739 0.25
899 0.797655 8.23544 5.82482 0.25
900 5.13354 6.15823 5.68376 0.25
901 0.951827 1.4111 2.77039 0.25
902 7.37557 3.95738 1.22425 0.25
903 5.89281 3.56429 3.70313 0.25
904 6.82952 3.98503 7.79282 0.25
905 5.32713 0.849011 5.82303 0.25