ITEM: TIMESTEP
510000
ITEM: NUMBER OF ATOMS
1000
ITEM: BOX BOUNDS xy xz yz pp pp pp
0.0000000000000000e+00 8.3788359999999997e+00 0.0000000000000000e+00
0.0000000000000000e+00 8.3788359999999997e+00 0.0000000000000000e+00
0.0000000000000000e+00 8.3788359999999997e+00 0.0000000000000000e+00
ITEM: ATOMS id x y z radius
1 2.64753 6.97295 4.98223 0.25
2 4.56227 4.91779 5.33125 0.25
3 7.00174 4.63867 3.16305 0.25
4 7.38859 1.011 5.82169 0.5
5 1.23139 5.60369 6.27476 0.25
6 8.27509 1.79712 3.59366 0.25
7 4.2119 3.38036 6.57351 0.25
8 4.84461 7.76243 2.92296 0.25
9 0.742451 6.15425 3.67755 0.25
10 4.11209 1.6841 3.42612 0.25
11 5.22951 0.049635 7.90987 0.25
12 5.16898 3.4456 1.62285 0.25
13 0.522954 2.39115 7.46013 0.25
14 3.71536 2.71675 7.14708 0.25
15 8.1743 2.81072 5.84212 0.25
16 7.44 0.795538 6.55573 0.25
17 0.947947 5.32854 8.10485 0.25
18 5.85677 7.44367 8.11066 0.25
19 4.44999 1.90452 7.67809 0.25
20 7.72497 1.29018 0.643287 0.25
21 4.82762 4.20625 1.9511 0.25
22 4.02836 3.37379 1.08937 0.25
23 2.07487 3.44655 1.9647 0.25
24 2.94373 1.66734 4.26694 0.25
25 2.5628 4.4898 2.96555 0.25
26 0.386283 8.22317 5.70968 0.25
27 3.92623 0.319293 5.7964 0.25
28 4.20165 2.16234 0.0888789 0.25
29 5.1018 6.94427 2.94301 0.25
30 7.49103 7.35661 2.34293 0.25
31 2.68325 0.401451 8.12224 0.25
32 0.907621 2.69349 7.34911 0.25
33 7.76978 0.593889 5.25467 0.25
34 2.4692 5.07069 1.2885 0.25
35 8.1491 0.0884228 4.41299 0.25
36 6.76125 1.90457 5.92106 0.5
37 4.53407 1.3057 2.31918 0.25
38 2.004 3.29637 4.1719 0.25
39 6.08602 2.71378 5.02409 0.25
40 5.27095 7.72842 3.20077 0.25
41 6.86182 2.15946 2.52172 0.25
42 5.50456 5.84077 5.92159 0.25
43 3.43616 7.68475 4.8921 0.25
44 3.78941 8.33384 5.4463 0.25
45 5.62012 4.04973 4.10646 0.25
46 3.29571 5.989 1.38731 0.5
47 4.9908 0.866054 5.53911 0.25
48 8.00237 6.34145 6.89371 0.25
49 7.2691 6.7991 4.93969 0.25
50 7.86306 0.969588 1.03172 0.25
51 2.5411 3.35017 4.35544 0.25
52 0.716045 1.69197 2.39325 0.25
53 6.52968 5.15121 7.05704 0.25
54 5.90656 3.24379 4.1505 0.25
55 1.49379 1.43147 6.06126 0.25
56 1.11553 7.03677 0.148188 0.25
57 4.70306 0.855274 2.17169 0.25
58 2.33017 2.07699 3.91934 0.25
59 4.82154 1.0605 6.37864 0.25
60 7.8083 5.4753 5.2445 0.25
61 4.98565 8.29935 8.30389 0.25
62 5.32472 2.02667 8.26415 0.5
63 7.60667 6.58742 1.079 0.25
64 1.21135 6.05345 0.952755 0.25
65 4.26217 0.230669 1.77379 0.25
66 2.39378 4.80468 7.11097 0.25
67 8.13437 4.97313 7.23619 0.25
68 7.1294 0.479985 6.37779 0.25
69 0.427028 5.60828 7.48737 0.25
70 1.82747 4.8581 0.650255 0.25
71 8.02759 1.30601 0.309509 0.25
72 6.34515 6.30633 3.46776 0.25
73 0.574399 7.71009 6.91729 0.25
74 7.38145 5.66332 6.80265 0.25
75 7.39307 0.0390786 3.30591 0.25
76 7.45132 6.53054 4.51395 0.25
77 5.63016 2.96283 5.62344 0.25
78 5.34302 3.80037 1.29713 0.25
79 7.69972 5.14694 4.44649 0.25
80 5.85782 3.42423 5.57147 0.25
81 7.13835 1.37253 1.32469 0.25
82 8.33197 2.49553 6.2168 0.25
83 4.4464 5.8307 5.30401 0.25
84 1.42138 1.0046 6.20879 0.25
85 1.46608 1.2582 5.29357 0.25
86 4.62718 8.34905 5.36948 0.25
87 1.66262 1.68562 1.27208 0.25
88 3.42138 6.74945 1.58178 0.25
89 6.71474 7.05747 0.64884 0.25
90 5.62918 6.15613 5.54023 0.25
91 3.82386 4.20039 6.23366 0.25
92 6.2174 4.62942 7.53958 0.25
93 5.2985 6.19617 5.16059 0.25
94 7.03256 8.31496 4.08228 0.25
95 0.317351 4.55801 7.62017 0.5
96 5.4331 3.09089 3.59319 0.5
97 4.29197 4.88692 7.78968 0.25
98 8.21674 2.30831 3.6242 0.25
99 1.49698 6.36895 5.94823 0.25
100 7.0576 6.9718 1.00566 0.25
101 0.781802 7.68358 8.23944 0.25
102 7.8481 4.84401 3.31124 0.25
103 6.66917 1.27603 1.46152 0.25
104 0.968425 4.75125 7.24941 0.25
105 5.10479 5.46522 5.35793 0.5
106 5.28328 0.431911 4.55228 0.25
107 4.31991 3.31305 7.06723 0.25
108 4.75647 1.38554 8.34196 0.25
109 0.753221 0.531656 6.13613 0.25
110 2.27136 7.96847 8.35203 0.25
111 3.14165 3.82336 7.03874 0.25
112 4.56267 2.14826 8.10911 0.25
113 1.74919 1.9939 1.96779 0.5
114 1.74555 3.64038 7.14088 0.25
115 4.4845 6.44377 5.79826 0.25
116 2.53133 7.1187 7.05498 0.25
117 4.24799 2.37132 3.76223 0.5
118 6.66639 7.19351 1.12889 0.25
119 0.838379 6.31736 3.245 0.25
120 0.28802 2.75549 2.54231 0.25
121 3.04344 4.13648 3.53287 0.25
122 6.71043 0.625891 6.13605 0.25
123 5.29727 0.446341 5.49534 0.25
124 8.13578 8.03982 2.29286 0.25
125 3.49308 2.21691 3.80109 0.25
126 3.67763 1.18545 5.88162 0.25
127 5.24608 3.8908 1.76857 0.25
128 6.78071 5.39817 7.37713 0.25
129 1.03304 6.44922 4.02452 0.25
130 5.49422 6.27617 0.790478 0.25
131 6.95649 1.42184 6.34305 0.25
132 5.92707 4.14862 7.61365 0.25
133 3.34108 2.01393 3.34888 0.25
134 4.33653 2.54544 8.22487 0.25
135 5.4543 3.81039 3.75113 0.25
136 2.86892 2.51171 3.63491 0.5
137 2.80533 4.06255 3.10346 0.25
138 7.57802 7.94938 2.79565 0.5
139 2.72159 8.24566 4.84383 0.25
140 5.07606 7.98454 7.93451 0.25
141 7.77429 5.94242 5.03614 0.25
142 1.11852 5.09879 3.20787 0.25
143 2.22964 2.14445 8.28272 0.25
144 5.03912 1.06619 2.78965 0.5
145 7.30996 1.92168 3.99442 0.25
146 6.01133 7.45563 0.216951 0.25
147 6.49438 5.65053 4.56071 0.25
148 2.21222 2.98712 4.50583 0.25
149 4.47528 8.23977 2.49743 0.5
150 4.98651 3.04911 4.25122 0.25
151 3.70543 5.93028 7.07933 0.25
152 3.47641 4.56193 5.5682 0.25
153 6.61924 6.02121 2.14182 0.5
154 7.25671 2.43224 4.68883 0.5
155 3.02724 7.26252 7.76655 0.25
156 7.43931 3.49705 1.53011 0.25
157 7.63722 5.89107 1.49456 0.25
158 2.36172 3.59846 0.762488 0.25
159 7.09113 7.99109 4.47389 0.25
160 6.48033 2.06665 2.9214 0.25
161 0.99983 5.2688 2.72234 0.25
162 5.92435 4.46057 7.16081 0.25
163 3.18132 3.77958 4.26609 0.5
164 2.37583 3.87192 2.49385 0.5
165 5.49238 8.07129 7.66097 0.25
166 0.163913 3.90679 7.87734 0.25
167 6.52809 4.0028 8.25161 0.25
168 4.69506 6.0477 5.67164 0.25
169 3.87413 4.3732 5.72451 0.25
170 8.12585 2.88365 6.32339 0.25
171 7.79216 5.82452 1.00318 0.25
172 1.10692 2.89444 6.91382 0.25
173 4.44878 6.35382 5.29956 0.25
174 2.3942 2.22382 1.10393 0.25
175 7.59942 2.35041 6.13187 0.5
176 2.37564 5.93091 6.10737 0.25
177 5.49754 3.56693 4.15485 0.25
178 3.1935 6.4418 1.93925 0.25
179 3.60232 2.46247 3.34085 0.25
180 5.83966 6.26371 5.9565 0.25
181 6.67684 4.21555 6.92551 0.25
182 3.03841 5.29364 3.27113 0.25
183 8.05173 7.52924 1.59423 0.25
184 4.33349 5.14164 8.21809 0.25
185 5.82208 6.77751 6.08099 0.25
186 7.47098 6.03687 4.59405 0.25
187 3.25148 5.36572 4.19523 0.25
188 0.717029 5.86415 3.23028 0.25
189 4.20695 6.55666 3.41906 0.25
190 4.02602 3.15964 1.55195 0.25
191 7.08077 1.6499 0.56409 0.5
192 0.952767 5.0027 7.68789 0.25
193 3.82229 5.41524 1.02358 0.25
194 2.70258 6.33719 1.89289 0.25
195 6.22147 5.64414 2.69132 0.25
196 2.42949 8.01175 2.68374 0.25
197 1.26717 8.12743 2.28908 0.25
198 7.72047 4.77751 7.05363 0.25
199 1.09561 1.11716 3.07034 0.25
200 4.46743 5.20093 1.45879 0.5
201 6.4903 1.66169 3.19762 0.25
202 8.3265 3.89417 5.42707 0.25
203 3.71144 1.79107 3.70531 0.25
204 5.71521 8.06956 8.35878 0.5
205 2.40039 7.56367 4.44626 0.5
206 0.439018 4.51351 5.17726 0.25
207 5.78501 2.74106 4.24289 0.25
208 6.94033 5.37477 4.31955 0.25
209 5.41767 7.03929 0.0473331 0.5
210 1.98809 7.98937 2.87568 0.25
211 0.660067 3.76417 4.95633 0.25
212 1.55211 7.74904 8.3534 0.5
213 0.290012 4.10537 2.60706 0.25
214 2.05678 7.95846 2.39399 0.25
215 2.71545 4.29633 3.91017 0.25
216 6.43579 1.92053 2.44709 0.25
217 4.93503 3.69473 2.05684 0.25
218 2.29878 3.31106 4.84231 0.25
219 4.30332 1.22083 2.81774 0.25
220 3.59958 3.63624 1.0525 0.25
221 4.25176 8.32108 5.64227 0.25
222 7.63984 1.01283 5.09187 0.25
223 8.15676 2.72033 2.73088 0.25
224 7.28856 5.43873 7.30374 0.25
225 7.29285 2.17941 5.44949 0.25
226 4.88836 2.16165 7.6844 0.25
227 6.41936 3.79756 7.00816 0.25
228 5.48017 3.09109 4.39082 0.25
229 5.52513 5.01222 1.95993 0.25
230 0.295091 8.32336 6.46115 0.5
231 5.19671 4.53616 1.42403 0.5
232 1.87943 2.84165 4.2252 0.25
233 3.99296 5.08196 3.89343 0.25
234 6.45758 0.947403 6.42877 0.25
235 3.07717 7.29828 4.80896 0.25
236 0.897766 2.72823 8.25075 0.25
237 8.21402 2.97073 7.42004 0.25
238 3.44516 1.01375 1.39094 0.25
239 0.245013 2.21468 3.66831 0.25
240 6.70294 6.33928 1.46096 0.25
241 3.41321 7.11678 7.98696 0.25
242 2.03483 7.2844 2.62956 0.5
243 2.70056 4.84287 3.29276 0.25
244 7.00423 3.45029 1.24873 0.25
245 2.25036 1.13683 5.73409 0.25
246 7.7144 8.14011 3.54175 0.25
247 3.57512 2.73656 3.69279 0.25
248 3.58975 3.16646 1.33457 0.25
249 0.136506 5.25339 7.42664 0.25
250 1.41533 3.73849 5.19615 0.25
251 5.33417 2.69612 4.8979 0.5
252 3.17138 2.16968 4.22513 0.25
253 8.0027 5.69805 7.24306 0.5
254 7.29276 5.95106 7.20503 0.25
255 4.7023 0.392686 5.95956 0.5
256 5.98377 6.28035 0.514483 0.25
257 1.10401 0.337662 2.65651 0.25
258 1.66111 1.65539 2.66248 0.25
259 4.46807 3.10638 1.76212 0.25
260 7.89076 6.23516 1.24243 0.25
261 3.75937 0.261705 1.10587 0.25
262 3.51819 2.52874 4.15125 0.25
263 2.19127 0.242119 0.275858 0.5
264 2.65607 4.40245 3.44357 0.25
265 1.13407 3.9 7.31071 0.5
266 0.933424 7.71302 7.53537 0.5
267 5.17344 2.54666 7.68667 0.25
268 6.41559 7.78514 0.346772 0.25
269 1.85865 5.33018 0.864154 0.25
270 3.81636 3.58825 1.48988 0.25
271 7.52221 7.99771 4.79207 0.25
272 1.61558 0.921652 2.41989 0.25
273 1.3792 3.32752 6.93748 0.25
274 0.889979 5.5006 7.58128 0.25
275 4.54006 4.45118 1.67441 0.25
276 2.29781 3.21194 1.08186 0.25
277 6.69658 0.602897 6.65107 0.25
278 4.01648 6.14446 1.12386 0.25
279 4.14171 0.472256 5.09898 0.5
280 7.93803 8.27082 4.82772 0.25
281 1.01786 6.38 0.634362 0.25
282 6.16321 6.94007 6.2993 0.25
283 0.915949 0.19512 6.47947 0.25
284 7.22462 4.38205 1.12696 0.25
285 1.90842 6.03657 1.26426 0.5
286 5.52375 6.69726 3.09057 0.25
287 1.56965 7.94053 3.37916 0.5
288 2.70517 7.4412 5.15019 0.25
289 2.23799 7.23262 5.0696 0.25
290 1.94021 3.95131 1.86515 0.25
291 8.18209 7.63116 7.22068 0.25
292 7.72488 2.48513 3.48165 0.25
293 7.4791 4.46247 3.3527 0.25
294 5.84353 3.66669 3.42223 0.25
295 8.0173 4.14325 1.087 0.25
296 0.441237 4.20288 4.45867 0.5
297 3.95757 3.05546 6.86034 0.25
298 6.42457 5.11764 7.5932 0.25
299 5.91841 4.97653 7.75318 0.25
300 6.23438 3.43171 0.499972 0.25
301 1.0208 7.28059 8.13225 0.25
302 0.0923963 4.23089 1.40209 0.25
303 3.86113 1.11171 1.08859 0.25
304 2.01086 2.54084 4.60408 0.25
305 0.734594 4.91483 8.15727 0.25
306 2.28857 2.10753 4.49086 0.25
307 1.66562 4.71725 7.40407 0.5
308 3.56948 5.84914 3.10386 0.25
309 4.50959 0.97988 5.59388 0.25
310 0.94551 4.66052 4.07783 0.25
311 7.41127 0.0480631 3.83309 0.25
312 0.882905 0.947885 2.30735 0.5
313 0.940738 3.81845 5.36432 0.25
314 5.4485 3.78978 3.21549 0.25
315 1.23054 4.88112 8.05398 0.25
316 1.90694 4.12701 7.04629 0.25
317 7.46688 2.36939 3.91054 0.25
318 2.31932 2.5139 4.19744 0.25
319 4.88576 7.50508 7.99285 0.25
320 1.99578 6.19852 6.03792 0.25
321 4.27637 0.868518 1.24276 0.25
322 7.13141 6.47081 5.2737 0.25
323 0.747158 6.0968 4.18354 0.25
324 4.13016 7.38449 7.88767 0.5
325 0.871503 1.84638 0.200842 0.25
326 3.9108 4.88033 5.04196 0.5
327 7.54767 7.32302 3.20759 0.25
328 2.52299 7.89102 1.86415 0.25
329 1.13837 5.97711 3.46714 0.25
330 8.15719 7.17463 7.41649 0.25
331 0.809487 5.39833 3.8212 0.5
332 7.39919 6.50779 2.03092 0.25
333 1.06357 1.64234 2.01525 0.25
334 6.87322 1.58852 1.72464 0.25
335 3.25619 3.28553 1.01076 0.25
336 3.02848 7.10593 6.84829 0.25
337 4.3671 7.14005 2.92938 0.5
338 6.32935 7.5775 8.23795 0.25
339 2.12224 8.01501 3.91974 0.25
340 4.87087 0.536417 4.7631 0.25
341 6.95918 8.31082 3.09191 0.25
342 1.16077 5.21094 7.27339 0.25
343 2.73424 1.28125 0.185817 0.25
344 1.24996 5.68406 2.62902 0.25
345 0.445938 1.44456 2.76843 0.25
346 0.360625 2.38942 7.91989 0.25
347 3.54221 5.92673 7.56481 0.25
348 7.35451 7.76665 2.09319 0.25
349 0.751958 2.23898 8.21983 0.25
350 6.72836 1.67401 2.72536 0.25
351 1.37517 7.00528 0.961876 0.25
352 6.37573 3.52344 7.75188 0.5
353 2.37667 0.0274234 7.58842 0.25
354 2.14954 0.623824 5.68884 0.25
355 0.786932 0.0476156 5.98141 0.25
356 1.78904 1.81996 5.87621 0.25
357 2.87408 3.7625 6.63099 0.25
358 6.26318 3.47972 5.27626 0.25
359 4.35752 0.876464 6.27099 0.25
360 1.91209 2.13405 1.17818 0.25
361 0.94683 7.46353 0.277359 0.25
362 6.1882 4.20598 6.83534 0.25
363 8.00447 3.94339 2.06246 0.25
364 5.98066 3.9438 7.14424 0.25
365 5.60883 5.93588 0.461425 0.25
366 5.25347 6.28659 0.349314 0.25
367 2.83794 4.22484 6.91961 0.25
368 6.94584 3.75223 8.2462 0.25
369 1.33621 6.71439 0.53406 0.25
370 5.45478 0.361364 8.16058 0.25
371 2.46996 8.3561 4.40747 0.25
372 2.29055 4.69321 0.522259 0.25
373 7.01304 2.9244 5.27242 0.25
374 3.52667 4.45012 4.49599 0.25
375 5.25672 0.876151 8.08792 0.25
376 2.58856 5.86738 1.07851 0.25
377 6.45073 1.15567 2.18588 0.5
378 0.371675 3.79486 7.41513 0.25
379 5.08124 1.33122 7.98307 0.25
380 2.23138 6.86815 4.7032 0.25
381 3.98434 5.6408 5.34925 0.25
382 1.85029 7.08248 4.82421 0.25
383 6.31749 5.27438 3.93606 0.5
384 1.22246 1.70929 1.47875 0.25
385 6.83718 1.22939 7.11806 0.5
386 1.39317 1.09142 5.69716 0.25
387 7.60442 0.764825 0.666332 0.25
388 0.760092 5.69672 2.73069 0.25
389 4.40138 2.69442 7.47278 0.5
390 4.00122 0.539823 6.24166 0.25
391 5.23784 4.72772 2.18213 0.25
392 8.13533 2.69298 3.22276 0.25
393 2.90276 6.57544 1.51628 0.25
394 0.935824 8.16892 8.22438 0.25
395 2.1836 1.82097 1.3087 0.25
396 4.62848 7.92787 8.14228 0.25
397 5.34528 0.708726 0.122229 0.25
398 7.40311 1.64281 8.2328 0.25
399 3.06941 4.47568 3.16115 0.25
400 4.76309 4.30637 0.778902 0.25
401 2.28239 7.12905 3.78882 0.25
402 8.17982 7.99219 6.86596 0.25
403 7.74863 6.24552 0.734998 0.25
404 7.94648 6.82546 7.09023 0.25
405 0.4802 7.63857 0.261223 0.25
406 5.76521 0.482029 4.42634 0.25
407 2.2693 1.07782 8.00314 0.5
408 5.50527 3.32816 2.52949 0.25
409 2.15494 4.97306 0.974302 0.25
410 7.44476 0.948047 0.0254438 0.5
411 4.38748 5.33405 5.19859 0.25
412 8.21092 7.20862 6.93162 0.25
413 1.32674 1.64228 0.396713 0.25
414 0.419894 3.1004 7.79455 0.5
415 6.53715 4.6603 2.96753 0.25
416 3.10221 2.94864 6.57743 0.25
417 3.26255 4.79315 3.7986 0.5
418 7.01469 6.76439 4.54947 0.25
419 3.97837 3.85603 5.90756 0.25
420 0.735693 3.15872 4.86711 0.25
421 3.83087 4.86548 5.75097 0.25
422 2.33246 5.4598 0.925612 0.25
423 0.403016 0.324131 5.85179 0.25
424 0.329752 3.40833 4.70283 0.25
425 1.83998 2.84882 1.47151 0.5
426 7.07225 5.68184 5.04739 0.5
427 2.70107 2.10219 4.25306 0.25
428 3.86095 5.07768 3.42235 0.25
429 4.29376 4.6679 5.67247 0.25
430 1.91117 7.23683 3.45393 0.25
431 0.898574 3.37606 6.77406 0.25
432 1.5839 7.04028 4.13955 0.5
433 1.96425 1.67656 7.65603 0.25
434 0.863841 6.38293 1.12156 0.25
435 5.69207 3.48199 2.97617 0.25
436 1.04709 6.01135 2.91979 0.25
437 0.10734 1.15212 0.41198 0.25
438 1.00953 3.46613 5.05047 0.25
439 4.062 2.58189 6.77807 0.25
440 4.92368 1.67309 7.60802 0.25
441 8.04586 4.32012 5.43809 0.25
442 2.54465 5.54994 1.45401 0.25
443 0.351269 2.79893 6.84494 0.5
444 1.99878 3.59705 1.50189 0.25
445 5.3087 7.20387 0.752999 0.25
446 4.22777 5.75111 3.45717 0.5
447 1.39274 1.61142 5.58856 0.25
448 6.10403 7.02473 5.78476 0.25
449 1.06844 5.44689 5.79742 0.25
450 2.77345 3.39236 0.997341 0.25
451 2.56781 7.08305 5.43136 0.25
452 2.41883 0.984459 0.344193 0.25
453 4.51043 4.49544 1.17846 0.25
454 0.0451182 3.41986 7.24727 0.25
455 8.14164 5.09535 7.70355 0.25
456 3.20513 1.84454 3.85073 0.25
457 2.48974 3.69208 7.28183 0.5
458 0.103281 7.61957 6.78337 0.25
459 5.09225 7.77896 8.358 0.25
460 5.6309 0.133621 4.78517 0.25
461 2.4233 3.63373 1.22644 0.25
462 6.26574 5.03001 3.20553 0.25
463 5.16187 7.40842 2.79425 0.25
464 7.45259 6.9617 7.07507 0.25
465 7.03903 2.60344 5.69745 0.25
466 4.01856 1.6442 2.937 0.25
467 3.98071 6.13256 1.62078 0.25
468 6.85101 5.36553 2.97716 0.5
469 7.43682 7.47213 6.91558 0.25
470 1.1805 1.44473 8.36344 0.25
471 1.83509 0.963566 5.91731 0.25
472 2.14744 7.56516 1.96263 0.25
473 7.51359 5.14922 5.38231 0.25
474 4.98352 5.80851 6.0301 0.25
475 1.3885 1.23697 2.71429 0.25
476 7.29058 0.930301 7.60818 0.25
477 3.13456 5.50194 3.72526 0.25
478 6.15304 3.43451 7.06215 0.25
479 3.42971 7.34481 7.51789 0.25
480 4.9377 0.458383 2.27416 0.25
481 7.78385 2.08045 4.2294 0.25
482 7.20313 5.03734 4.61703 0.25
483 8.20938 5.66047 5.06427 0.25
484 2.75692 0.754346 0.115759 0.25
485 7.95554 7.56392 6.77363 0.25
486 2.44273 6.37387 5.89774 0.25
487 8.19801 7.63408 4.35016 0.25
488 4.28038 4.20773 5.95131 0.25
489 0.894129 7.93232 0.261922 0.25
490 8.11242 7.92991 1.82128 0.25
491 4.43845 3.12325 1.30177 0.25
492 2.43711 1.70138 4.26609 0.25
493 6.38499 4.63591 7.03408 0.25
494 4.82996 7.55135 2.46517 0.25
495 1.2132 5.95174 5.89113 0.25
496 2.92334 7.80759 4.88061 0.25
497 6.41068 4.26489 7.80108 0.25
498 3.31551 2.98659 4.08292 0.25
499 0.644434 5.16611 7.30031 0.25
500 4.0292 2.93145 6.38587 0.25
501 6.17445 4.11411 4.21061 0.25
502 1.63581 7.97754 7.65555 0.25
503 5.90836 5.02429 2.56788 0.5
504 7.81151 7.66362 2.0872 0.25
505 5.78363 1.39756 2.89287 0.25
506 7.08875 6.35567 4.75265 0.25
507 1.28463 0.296057 3.12657 0.25
508 0.751541 0.146532 5.51598 0.25
509 8.20479 4.93323 5.02506 0.5
510 5.04558 1.62476 5.9007 0.25
511 0.696601 0.643699 5.60527 0.25
512 0.897444 0.633855 3.04147 0.25
513 4.00756 1.11877 5.44859 0.25
514 1.95788 5.69539 5.99375 0.25
515 0.894071 8.08669 6.7741 0.25
516 7.4244 1.61578 6.18655 0.25
517 7.40618 5.48621 4.47102 0.25
518 0.856953 3.54127 4.58097 0.25
519 6.46981 1.84301 1.97543 0.25
520 6.72666 1.78828 6.67159 0.25
521 7.75386 1.68843 0.20106 0.25
522 6.63467 1.51237 7.84194 0.25
523 5.3758 6.56315 5.4497 0.25
524 2.61656 0.486287 7.65794 0.25
525 6.34441 4.21039 7.30267 0.25
526 7.03126 5.26603 6.93602 0.25
527 7.46697 8.05693 4.2041 0.25
528 7.36195 1.27204 6.55005 0.25
529 6.59112 1.24282 2.92747 0.25
530 2.16579 1.86322 6.23602 0.25
531 7.87431 7.81392 3.94936 0.25
532 1.38903 0.733558 2.87236 0.25
533 7.14133 1.38839 7.87324 0.25
534 8.09168 5.81598 1.38944 0.25
535 0.41169 3.3233 5.51626 0.5
536 6.90082 2.57083 6.17082 0.25
537 4.04459 0.819076 5.84806 0.25
538 6.67008 5.20305 4.68747 0.25
539 2.46783 1.46097 6.12413 0.25
540 8.056 6.3603 1.95748 0.5
541 7.58406 3.95617 1.7484 0.25
542 2.05101 2.15804 7.86164 0.25
543 3.29177 7.44207 7.04751 0.25
544 7.58757 6.61913 6.74903 0.25
545 1.1963 5.97247 3.95952 0.25
546 4.52817 6.08727 6.10731 0.25
547 5.02143 2.69273 0.164496 0.25
548 5.9627 7.30633 6.62534 0.25
549 0.234352 7.92278 7.1449 0.25
550 6.17205 7.06937 8.36803 0.25
551 4.45461 1.68581 2.69013 0.25
552 3.6652 5.39567 3.82478 0.25
553 7.11657 7.76246 3.63701 0.5
554 4.4493 6.37013 3.05143 0.25
555 4.93 6.64665 3.56845 0.5
556 7.08005 0.815797 0.766297 0.25
557 7.27627 5.01817 3.80418 0.5
558 6.59631 8.20934 3.41467 0.25
559 1.39 0.34773 5.8292 0.5
560 5.01232 3.38676 2.45489 0.25
561 2.83198 3.15149 4.02784 0.25
562 5.17489 -0.02243 5.42928 0.25
563 2.3968 6.58137 1.57059 0.25
564 6.02754 6.94875 0.784642 0.5
565 6.45674 1.41798 6.46371 0.25
566 1.17778 1.65564 2.48232 0.25
567 4.20897 6.05781 5.66011 0.25
568 6.18585 1.27677 3.2114 0.25
569 2.49566 8.29488 8.04212 0.25
570 1.86865 6.56432 4.68721 0.25
571 3.05188 4.13125 7.38919 0.25
572 8.06814 2.79218 4.02292 0.5
573 4.0696 1.42844 2.46177 0.25
574 1.5946 5.93057 6.19515 0.25
575 2.02563 1.7128 8.14192 0.25
576 4.31658 5.72845 7.69906 0.25
577 5.23565 0.26588 5.01663 0.25
578 2.00096 7.56191 3.7968 0.25
579 7.65111 5.08461 7.47246 0.25
580 7.47411 0.356648 4.58942 0.5
581 4.02351 4.65446 6.10388 0.25
582 5.92611 2.98898 4.65805 0.25
583 5.77704 3.68936 4.77209 0.5
584 4.90841 6.44561 5.47397 0.25
585 4.88186 3.08079 1.50779 0.25
586 1.80383 0.205758 2.5192 0.5
587 4.95232 7.01952 2.50358 0.25
588 5.82532 5.17181 3.40863 0.25
589 0.0438425 2.53431 7.50227 0.25
590 3.70245 6.4689 1.90767 0.25
591 6.40149 1.4974 1.05094 0.25
592 7.47424 7.09467 1.63964 0.5
593 6.83015 6.83216 1.48017 0.25
594 1.95994 4.98013 8.23656 0.5
595 0.653847 3.83888 7.84368 0.25
596 2.17739 0.817601 0.7255 0.25
597 0.0998212 0.269657 5.14319 0.5
598 2.63117 6.33283 1.1431 0.25
599 2.02296 8.23711 7.92701 0.25
600 8.03592 0.953555 5.40857 0.25
601 0.974682 0.946089 5.92231 0.25
602 3.95563 0.235414 2.1099 0.25
603 4.26335 5.65929 8.20818 0.25
604 7.50072 5.1878 6.95424 0.25
605 7.79554 2.04344 3.7379 0.25
606 2.46447 8.2465 2.24182 0.25
607 4.59288 5.36057 7.87986 0.25
608 3.6068 7.76466 7.42303 0.25
609 6.81674 4.84301 4.35938 0.25
610 1.81012 1.36326 5.63885 0.25
611 2.97564 0.713225 7.94699 0.25
612 0.597589 7.18793 0.0130948 0.25
613 6.94943 1.82649 8.12582 0.25
614 4.77633 0.951399 5.14844 0.25
615 4.89933 2.70519 3.89207 0.25
616 1.12772 5.57979 3.11606 0.25
617 1.69581 7.83796 2.11055 0.25
618 7.52974 7.31722 4.45023 0.5
619 7.86652 8.05957 4.42546 0.25
620 8.32513 7.34861 2.35388 0.5
621 4.24098 6.36133 3.8782 0.25
622 5.98876 6.45506 6.36461 0.25
623 5.26432 6.69442 0.708384 0.25
624 1.20446 3.41633 5.49972 0.25
625 1.3602 5.29407 7.80809 0.25
626 3.82546 0.685039 1.3207 0.25
627 4.76882 4.7206 1.9804 0.25
628 8.35942 3.39105 2.37695 0.5
629 7.03405 3.36366 0.223326 0.25
630 1.21123 8.2238 2.8267 0.25
631 1.61085 1.43288 7.96203 0.25
632 7.64134 7.82007 1.68364 0.25
633 6.07979 7.72194 0.632123 0.25
634 2.9951 7.77443 3.99916 0.25
635 0.680688 7.01769 0.743834 0.5
636 1.44922 2.13203 1.28546 0.25
637 5.68451 0.232681 5.27429 0.25
638 4.88283 1.37847 5.47821 0.25
639 4.64566 1.82792 0.164523 0.25
640 5.18463 7.64634 0.459342 0.25
641 1.2406 6.59452 5.22384 0.25
642 3.64614 0.786447 5.54367 0.25
643 6.21972 6.54264 5.99106 0.25
644 5.78885 0.909445 3.0288 0.25
645 2.30327 2.25951 1.55205 0.25
646 8.07064 6.74908 6.65239 0.25
647 2.35267 3.01206 4.01477 0.25
648 5.2129 1.23639 0.077903 0.25
649 0.429059 4.12464 1.76772 0.25
650 8.25398 3.7917 1.29085 0.25
651 3.20283 3.20142 3.71927 0.25
652 7.12504 0.620042 6.8517 0.25
653 1.32924 6.50568 0.982363 0.25
654 0.404009 2.5388 8.39085 0.25
655 3.55069 3.54366 6.45063 0.5
656 0.532067 3.43529 7.11842 0.25
657 1.54431 5.54965 5.85129 0.25
658 6.96333 0.130141 3.59171 0.25
659 2.41682 1.83325 7.89722 0.25
660 6.91672 6.04883 4.0971 0.5
661 8.23566 1.03287 8.40537 0.25
662 3.86198 4.78064 4.2812 0.25
663 2.39603 3.73119 1.73938 0.25
664 6.61789 2.76004 4.95974 0.25
665 7.73081 3.80145 1.30206 0.25
666 5.7218 6.88621 6.49823 0.25
667 6.59013 3.43512 0.0648583 0.25
668 7.05655 6.47974 1.71872 0.25
669 6.07201 4.99766 7.2627 0.25
670 5.51831 0.0706408 4.32285 0.25
671 3.45754 4.94421 4.48275 0.25
672 2.60178 3.34799 2.0274 0.25
673 0.586215 1.01033 2.97321 0.25
674 4.96778 7.33106 3.20639 0.25
675 5.51645 3.82599 5.49418 0.25
676 7.70278 8.1491 2.09568 0.25
677 6.3518 1.67278 1.52216 0.25
678 7.5231 6.36197 4.95465 0.25
679 1.24712 6.2818 1.47134 0.25
680 3.79618 6.80878 8.08936 0.25
681 7.84906 8.30691 4.01545 0.25
682 2.57807 6.07409 1.54099 0.25
683 1.69249 7.68303 7.22568 0.25
684 0.381948 3.81298 1.38078 0.25
685 2.80108 3.30187 6.39886 0.25
686 4.38652 2.90614 6.73231 0.25
687 1.92251 4.38611 0.392932 0.25
688 3.60087 0.660723 6.02325 0.25
689 6.01005 4.07481 8.11118 0.25
690 6.18852 1.09053 2.81026 0.25
691 7.11183 1.12928 1.69844 0.25
692 5.03121 5.10511 1.98573 0.25
693 7.16461 1.80297 6.53962 0.25
694 7.53862 5.19427 4.90531 0.25
695 0.239618 2.80797 6.06571 0.25
696 5.69433 5.9204 3.17428 0.5
697 4.15589 3.82519 6.32697 0.25
698 1.79993 0.903806 5.44598 0.25
699 1.47031 6.78918 4.85493 0.25
700 4.27828 5.69674 0.973981 0.25
701 4.83803 1.76233 8.02777 0.25
702 2.2461 4.31819 7.39123 0.25
703 3.47739 6.69875 7.38069 0.5
704 4.72748 4.89203 8.04682 0.25
705 4.89916 3.24654 1.96972 0.25
706 5.2584 0.224402 0.235627 0.25
707 4.58068 3.77206 1.38214 0.5
708 5.41208 7.642 7.90468 0.25
709 2.82618 7.16908 1.90541 0.5
710 2.30311 4.37243 6.92635 0.25
711 5.23797 6.40304 2.85376 0.25
712 0.504422 5.22737 7.78687 0.25
713 2.41988 4.20647 1.78407 0.25
714 5.13669 4.03754 0.865746 0.25
715 4.79255 6.57094 2.77028 0.25
716 6.86105 1.02282 7.89416 0.25
717 7.84493 7.64417 3.42547 0.25
718 6.05387 3.73561 6.68787 0.25
719 5.96596 4.49847 7.95371 0.25
720 1.70875 7.77569 4.14284 0.25
721 6.88369 1.74075 2.22445 0.25
722 2.549 7.66049 3.33964 0.5
723 2.77644 7.63365 2.60132 0.25
724 7.1216 6.5282 1.2505 0.25
725 7.6144 6.42941 7.23141 0.25
726 1.0251 0.969594 5.413 0.25
727 4.21127 0.440692 1.29749 0.25
728 3.77334 6.25938 7.93037 0.25
729 4.99805 5.89676 3.5132 0.25
730 2.9801 7.21913 7.28872 0.25
731 5.18054 3.43312 2.94975 0.25
732 4.15259 3.77085 6.93395 0.25
733 3.8841 5.58456 7.43861 0.25
734 3.83823 0.989695 2.62001 0.25
735 3.61369 2.74335 6.63964 0.25
736 7.89523 1.39417 8.21583 0.25
737 3.51105 0.717252 0.96602 0.25
738 0.453922 8.14549 0.465614 0.25
739 4.87792 6.14381 3.06478 0.25
740 5.40694 7.20958 3.21386 0.25
741 0.689735 7.73702 0.660259 0.25
742 3.52143 4.54875 6.07336 0.25
743 7.06224 0.90165 1.30135 0.25
744 4.31288 0.925818 2.48536 0.25
745 3.50282 4.09751 5.85149 0.25
746 1.24094 6.08691 4.71204 0.5
747 4.40704 0.483164 2.16328 0.25
748 2.82464 6.7552 7.12463 0.25
749 1.48619 1.35856 2.25997 0.25
750 0.0902008 3.40313 1.62017 0.25
751 1.37937 0.759954 5.21335 0.25
752 6.38634 4.77409 7.94627 0.25
753 3.96476 0.990633 1.90272 0.5
754 4.42507 5.9495 1.38487 0.25
755 2.87163 2.76079 1.45554 0.5
756 7.74587 6.85279 7.49223 0.25
757 5.84113 6.61859 5.60311 0.25
758 6.80855 3.99017 7.32976 0.25
759 4.18175 8.08579 5.18302 0.25
760 0.214072 2.68853 3.46804 0.25
761 3.78167 7.42401 7.17412 0.25
762 0.693035 1.54195 3.50023 0.5
763 4.01269 8.19696 1.8566 0.25
764 1.49522 6.16185 0.61753 0.25
765 7.42072 4.88977 3.05423 0.25
766 0.575039 4.35655 2.2672 0.25
767 2.70396 6.93663 7.52986 0.25
768 2.15682 2.84658 4.97007 0.25
769 7.96419 3.57538 1.6809 0.25
770 4.91758 0.898285 8.34258 0.25
771 6.686 1.16703 6.05826 0.25
772 4.81375 2.5156 8.06137 0.25
773 5.49828 0.911754 5.01107 0.5
774 3.73292 8.12488 4.96139 0.25
775 7.93449 4.2984 2.75448 0.5
776 6.8317 3.91832 0.60492 0.5
777 6.04798 6.61512 0.120672 0.25
778 5.06759 8.16147 0.388575 0.25
779 8.28809 8.0662 4.16673 0.25
780 2.25599 1.65095 5.75433 0.25
781 2.52934 1.68571 8.29069 0.25
782 1.3578 7.25641 0.549639 0.25
783 6.62402 3.20205 0.468898 0.25
784 2.45907 7.73886 2.30411 0.25
785 2.59829 1.93474 6.01541 0.25
786 2.90328 7.89525 2.19324 0.25
787 7.75536 7.11159 6.73305 0.25
788 0.114967 4.11862 2.16836 0.25
789 3.69781 7.89774 4.54009 0.25
790 6.92233 0.149704 6.71795 0.25
791 0.565305 4.62931 3.00486 0.5
792 2.23645 0.328514 7.92198 0.25
793 8.2235 7.05041 1.65694 0.25
794 5.18343 6.49742 6.1533 0.5
795 2.32286 4.17705 3.16233 0.25
796 2.17199 5.95069 5.63966 0.25
797 6.67433 6.63613 1.03073 0.25
798 7.63392 4.27781 1.36695 0.25
799 4.16227 3.41154 6.08799 0.25
800 7.94166 2.07529 3.27897 0.25
801 3.15073 7.89571 7.05818 0.25
802 3.72289 5.25827 4.29552 0.25
803 3.15473 -0.00659203 7.64163 0.5
804 3.86369 6.90281 1.80062 0.25
805 2.05735 8.07966 1.9443 0.25
806 2.71813 1.78404 3.87708 0.25
807 4.83427 6.08971 5.20943 0.25
808 4.08709 2.10449 7.94487 0.25
809 1.71031 6.01888 5.73329 0.25
810 6.44744 7.30948 6.54377 0.25
811 1.52586 3.17638 4.74035 0.5
812 5.65108 7.53737 0.559105 0.25
813 4.32664 1.97464 3.12862 0.25
814 1.61711 7.45795 7.64406 0.25
815 2.90256 8.08525 4.38614 0.25
816 1.04054 3.01689 5.29561 0.25
817 4.35125 1.73237 8.16935 0.25
818 3.84522 1.99469 3.24395 0.25
819 2.03109 5.31585 1.31344 0.25
820 3.37504 3.03069 6.97071 0.25
821 1.4134 2.10445 8.16808 0.5
822 5.97526 4.39187 3.52012 0.5
823 5.00204 0.433624 8.21718 0.25
824 0.916322 0.508059 5.19565 0.25
825 3.99668 6.12042 7.49149 0.25
826 3.06782 3.73458 1.5971 0.5
827 5.74077 7.21022 6.13496 0.25
828 0.197704 2.02667 7.59291 0.25
829 8.3303 8.08188 4.62651 0.25
830 0.859227 1.84317 2.84724 0.25
831 2.1662 4.34228 7.8457 0.25
832 5.69021 4.53638 1.99837 0.25
833 1.98384 1.43024 6.09231 0.25
834 4.05317 0.520846 2.47449 0.25
835 6.79871 1.67705 1.2176 0.25
836 3.40162 7.67017 7.87678 0.25
837 4.0737 5.34691 7.84996 0.25
838 7.45977 0.653901 1.10072 0.25
839 6.17891 7.40997 6.16258 0.25
840 6.9894 4.70239 7.43033 0.5
841 3.48671 6.84133 2.09152 0.25
842 0.202134 2.14223 2.92796 0.5
843 5.99985 3.90503 5.42376 0.25
844 4.66821 2.35002 0.185565 0.25
845 7.37237 2.61264 5.38168 0.25
846 3.64956 3.51481 7.42412 0.5
847 2.18071 5.20097 0.546061 0.25
848 1.75956 6.02473 5.24194 0.25
849 5.20809 7.91511 2.61981 0.25
850 6.3493 2.8465 5.69923 0.5
851 5.53433 8.18582 5.11023 0.25
852 6.97385 1.75189 7.59955 0.25
853 4.14628 8.2139 4.66602 0.25
854 4.34695 1.53667 5.98805 0.5
855 0.44053 4.03398 5.26176 0.25
856 0.698315 5.34053 3.07988 0.25
857 3.8268 6.55637 1.38904 0.25
858 2.49746 4.76511 3.76562 0.25
859 6.64555 4.57734 3.91307 0.25
860 7.53468 4.026 0.915769 0.25
861 5.21061 2.79609 8.12736 0.25
862 6.60586 4.81211 3.43541 0.25
863 5.71376 6.22085 0.06114 0.25
864 7.71087 6.882 2.33677 0.25
865 3.87007 5.7921 7.90175 0.25
866 5.05549 8.18378 3.02745 0.25
867 1.88242 3.99656 7.51472 0.25
868 2.13152 1.66073 0.531904 0.5
869 0.939458 3.19758 7.22978 0.25
870 6.19349 5.48985 3.17925 0.25
871 2.79481 7.5413 7.00291 0.25
872 5.88161 3.11898 5.19989 0.25
873 0.45027 8.07014 8.35659 0.25
874 3.83979 0.998443 6.27965 0.25
875 2.14682 4.26488 1.14942 0.5
876 1.35115 5.76108 5.4446 0.25
877 0.0828778 5.551 7.83551 0.25
878 5.78489 1.1079 2.53788 0.25
879 3.24988 8.13361 4.70639 0.25
880 6.42723 5.97988 2.99226 0.25
881 7.54362 0.991682 1.43152 0.25
882 7.75575 7.31938 7.1971 0.25
883 0.570102 3.88892 2.2121 0.25
884 7.05032 3.23 0.764672 0.25
885 0.815174 4.24095 5.11074 0.25
886 8.04585 7.32408 3.09359 0.25
887 1.12527 6.76149 1.36407 0.25
888 1.05962 4.71298 3.55855 0.25
889 1.55164 7.87251 2.58584 0.25
890 0.130562 4.58813 2.40761 0.25
891 0.878635 2.50781 7.83773 0.25
892 7.4207 3.5374 0.972397 0.25
893 1.13821 7.6868 0.650461 0.25
894 3.98468 5.73936 1.31687 0.25
895 3.78919 5.85712 0.823237 0.25
896 1.68194 1.38147 0.0562832 0.25
897 8.03624 4.06701 1.59641 0.25
898 0.565235 4.67629 3.78113 0.25
899 1.13441 8.20644 6.29706 0.25
900 5.16444 6.09944 5.61295 0.25
901 0.894657 1.37288 2.76937 0.25
902 7.30281 3.89757 1.31318 0.25
903 5.89876 3.7352 3.94279 0.25
904 6.84387 4.05177 7.82595 0.25
905 5.34002 0.8365 5.86692 0.25