ITEM: TIMESTEP
310000
ITEM: NUMBER OF ATOMS
1000
ITEM: BOX BOUNDS xy xz yz pp pp pp
0.0000000000000000e+00 8.3788359999999997e+00 0.0000000000000000e+00
0.0000000000000000e+00 8.3788359999999997e+00 0.0000000000000000e+00
0.0000000000000000e+00 8.3788359999999997e+00 0.0000000000000000e+00
ITEM: ATOMS id x y z radius
1 2.89227 6.85209 4.53725 0.25
2 4.74775 5.23298 5.00327 0.25
3 7.43336 4.7817 3.10614 0.25
4 7.39493 0.81789 5.95594 0.5
5 1.06205 5.56462 5.98229 0.25
6 8.17951 1.85444 3.41951 0.25
7 4.15996 3.33055 6.50113 0.25
8 4.80398 7.78084 2.97356 0.25
9 0.985289 6.09807 3.69187 0.25
10 4.27223 1.74939 3.27551 0.25
11 5.54654 0.361804 0.059754 0.25
12 5.37285 3.56952 1.55072 0.25
13 0.567477 2.33515 7.49207 0.25
14 3.49585 2.83918 7.1053 0.25
15 8.1407 2.65806 6.33303 0.25
16 7.28107 0.833865 6.77353 0.25
17 0.67505 5.12422 8.32287 0.25
18 5.80626 7.64158 8.0567 0.25
19 4.0452 2.04905 7.72926 0.25
20 7.54389 1.26801 0.578977 0.25
21 5.04708 4.26611 1.85116 0.25
22 4.20104 3.38996 1.06414 0.25
23 2.21645 3.28676 1.9027 0.25
24 2.73719 1.38706 4.05244 0.25
25 2.64119 4.4175 2.90966 0.25
26 0.38165 8.14999 5.76194 0.25
27 3.77647 0.626495 5.95334 0.25
28 4.26829 2.35 0.118287 0.25
29 5.14447 6.9356 3.05631 0.25
30 7.50054 7.40993 2.46006 0.25
31 2.65385 0.356608 8.08053 0.25
32 0.927536 2.61999 7.28761 0.25
33 7.81297 0.476815 5.3767 0.25
34 2.0492 5.04774 1.4676 0.25
35 8.22342 0.0332496 4.47707 0.25
36 6.90473 1.76868 5.65944 0.5
37 4.48325 1.11916 2.43659 0.25
38 2.12897 3.39334 4.34504 0.25
39 6.10411 2.67108 4.88635 0.25
40 5.26289 7.73781 3.21738 0.25
41 6.82441 2.09602 2.51954 0.25
42 5.60802 6.10286 5.59652 0.25
43 3.47764 7.72022 4.50282 0.25
44 3.76678 0.138972 5.74346 0.25
45 5.67946 4.08277 4.12729 0.25
46 3.28876 6.07543 1.27509 0.5
47 4.88049 0.806828 5.40512 0.25
48 8.00755 6.23617 7.05204 0.25
49 7.40248 6.68718 4.8848 0.25
50 7.69486 0.938064 0.957166 0.25
51 2.66702 3.36855 4.41729 0.25
52 0.646321 1.79312 2.44756 0.25
53 6.58225 5.1276 6.8456 0.25
54 5.84342 3.25723 4.0773 0.25
55 1.60976 1.5481 5.92467 0.25
56 1.0518 7.34224 0.0405239 0.25
57 4.7717 0.849388 2.16288 0.25
58 2.25401 2.0778 4.10302 0.25
59 5.04928 1.43718 6.35858 0.25
60 7.84749 5.53334 5.27779 0.25
61 5.21621 0.0994325 8.13394 0.25
62 5.11925 1.79973 8.04199 0.5
63 7.73503 6.66333 1.26805 0.25
64 1.2093 6.20654 0.898437 0.25
65 4.30968 0.0950637 1.83031 0.25
66 2.04171 4.79711 7.14042 0.25
67 7.96586 4.96046 7.07896 0.25
68 7.06185 0.512595 6.50449 0.25
69 8.37902 5.55599 8.09189 0.25
70 2.0028 4.68414 0.691043 0.25
71 7.94796 1.40141 0.315563 0.25
72 6.49642 6.20511 3.43192 0.25
73 0.45132 7.54442 6.74471 0.25
74 7.42246 5.52554 6.82377 0.25
75 7.31166 8.35168 3.52534 0.25
76 7.51779 6.39575 4.48443 0.25
77 5.63425 2.89362 5.54387 0.25
78 5.39441 4.00557 1.15919 0.25
79 7.79481 5.09466 4.46336 0.25
80 5.82616 3.36914 5.48523 0.25
81 7.09251 1.40317 1.31352 0.25
82 8.17196 2.82013 5.88356 0.25
83 4.34238 5.78552 5.60252 0.25
84 1.24237 1.17228 6.02314 0.25
85 1.65636 1.59464 5.39808 0.25
86 4.61185 0.100617 5.77878 0.25
87 1.55641 1.7214 1.20646 0.25
88 3.17719 6.85155 1.54851 0.25
89 6.72213 6.96719 0.730819 0.25
90 5.45703 6.58772 5.46206 0.25
91 3.92912 4.24386 6.16186 0.25
92 6.1506 4.43016 7.29722 0.25
93 4.95858 6.62956 5.32337 0.25
94 6.95012 0.0165479 4.27152 0.25
95 0.392268 4.50986 7.8038 0.5
96 5.3965 3.14081 3.52488 0.5
97 4.296 4.83468 7.77359 0.25
98 8.28319 2.32646 3.43552 0.25
99 1.52614 6.2776 5.80264 0.25
100 7.06796 6.97511 1.12446 0.25
101 0.491032 8.13679 0.233615 0.25
102 8.18775 5.18365 3.07514 0.25
103 6.58709 1.18121 1.4894 0.25
104 0.56873 5.13952 7.34761 0.25
105 5.04402 5.93324 5.056 0.5
106 5.09946 0.300271 4.6533 0.25
107 4.28042 3.33741 6.96801 0.25
108 4.71891 1.44176 0.154534 0.25
109 0.649429 0.438931 6.14558 0.25
110 2.14314 7.91902 8.10348 0.25
111 3.11676 4.0651 7.07722 0.25
112 4.42683 2.18356 8.03055 0.25
113 1.74661 1.9438 1.93853 0.5
114 1.6742 4.13984 6.79416 0.25
115 4.67257 6.19912 6.22558 0.25
116 2.54189 7.09374 7.00367 0.25
117 4.17643 2.34498 3.7644 0.5
118 6.61143 7.12203 1.16941 0.25
119 1.25424 5.96438 2.43697 0.25
120 0.175255 2.88618 2.39481 0.25
121 3.1315 4.05762 3.50703 0.25
122 6.66795 0.676373 6.31155 0.25
123 5.28081 0.452407 5.562 0.25
124 8.01532 8.09467 2.62642 0.25
125 3.48095 2.05286 3.82608 0.25
126 3.8708 1.44075 5.98813 0.25
127 5.44083 4.00386 1.68052 0.25
128 6.72803 5.39323 7.27555 0.25
129 1.18002 6.3462 4.10203 0.25
130 5.62992 6.17985 0.841541 0.25
131 7.10088 1.47041 6.31024 0.25
132 5.96935 4.0787 7.551 0.25
133 3.2895 1.83627 3.39411 0.25
134 4.46016 2.67364 8.14355 0.25
135 5.49854 3.88765 3.66533 0.25
136 2.87211 2.46657 3.72014 0.5
137 2.85175 3.98785 3.10387 0.25
138 7.44531 7.91976 2.98938 0.5
139 2.56725 7.59835 5.00846 0.25
140 5.02393 8.01319 8.07677 0.25
141 8.19991 5.80651 5.02779 0.25
142 1.08183 4.98891 3.17502 0.25
143 2.28648 2.09723 8.33873 0.25
144 5.09485 1.03148 2.84194 0.5
145 7.39708 2.05146 3.94368 0.25
146 6.03557 7.34756 0.415244 0.25
147 6.57518 5.50419 4.61429 0.25
148 2.0202 2.8441 4.41651 0.25
149 4.54114 8.22789 2.50018 0.5
150 4.99388 3.00822 4.11144 0.25
151 3.66224 5.95993 7.11461 0.25
152 3.60096 4.64079 5.50496 0.25
153 6.78792 5.98151 2.20333 0.5
154 7.34812 2.48377 4.5933 0.5
155 3.01576 7.21773 7.70686 0.25
156 7.47885 3.53492 1.42234 0.25
157 7.72399 5.95026 1.64702 0.25
158 2.54831 3.5955 0.794055 0.25
159 7.15005 7.94561 4.50314 0.25
160 6.44493 2.01887 2.90737 0.25
161 1.08115 5.17951 2.74737 0.25
162 5.90504 4.08455 7.04008 0.25
163 3.33789 3.67982 4.1782 0.5
164 2.45769 3.79391 2.4627 0.5
165 5.52497 8.09687 7.92146 0.25
166 0.270249 3.706 8.0819 0.25
167 6.22949 3.90761 0.0889955 0.25
168 4.80001 5.98241 5.80671 0.25
169 4.00488 4.36206 5.67484 0.25
170 0.240257 2.72816 6.07259 0.25
171 7.92425 5.87009 1.14144 0.25
172 1.0245 2.85793 6.82383 0.25
173 4.33977 6.2192 5.83621 0.25
174 2.22043 2.21569 0.959758 0.25
175 7.61195 2.30259 6.00657 0.5
176 2.39717 6.0718 6.05881 0.25
177 5.46552 3.60131 4.09819 0.25
178 2.97026 6.55319 1.83795 0.25
179 3.55867 2.26685 3.41669 0.25
180 5.89715 6.5493 5.7197 0.25
181 6.64591 3.99928 6.81166 0.25
182 3.1426 5.21063 3.23549 0.25
183 8.09201 7.6192 1.9362 0.25
184 4.34125 5.12761 8.13928 0.25
185 5.88503 6.85338 6.13023 0.25
186 7.62012 5.93494 4.55305 0.25
187 3.45891 5.42574 4.17759 0.25
188 0.88211 5.78283 3.27753 0.25
189 4.16023 6.63294 3.49236 0.25
190 4.22728 3.3381 1.51759 0.25
191 6.82805 1.46663 0.47706 0.5
192 0.687489 5.11407 7.87259 0.25
193 3.90883 5.80964 1.6687 0.25
194 2.54781 6.32322 1.5889 0.25
195 6.30726 5.64683 2.68704 0.25
196 2.30853 7.8826 2.65118 0.25
197 0.831438 0.230309 2.43871 0.25
198 7.64593 4.60161 6.97645 0.25
199 1.04634 1.2497 3.17592 0.25
200 4.56084 5.40878 1.52734 0.5
201 6.52707 1.66335 3.23775 0.25
202 8.3649 3.92227 5.47076 0.25
203 3.79091 1.8222 3.45704 0.25
204 5.65173 8.01989 0.242138 0.5
205 2.38488 7.3811 4.36581 0.5
206 0.491737 4.51114 5.18693 0.25
207 5.71723 2.76349 4.161 0.25
208 6.96412 5.31105 4.37816 0.25
209 5.43497 7.06211 0.0562652 0.5
210 1.90012 8.02267 2.91112 0.25
211 0.649044 3.73768 5.03174 0.25
212 1.43785 7.82009 8.03311 0.5
213 0.103872 4.16601 2.66793 0.25
214 1.82497 7.98363 2.44469 0.25
215 2.83434 4.20665 3.89477 0.25
216 6.38128 1.86045 2.4142 0.25
217 5.10913 3.78842 1.9349 0.25
218 2.32162 3.10825 4.67314 0.25
219 4.33201 1.35446 2.86649 0.25
220 3.72301 3.46948 0.980407 0.25
221 4.17197 0.299032 5.98356 0.25
222 7.45777 0.739328 5.19354 0.25
223 8.06761 2.83984 2.67237 0.25
224 7.23944 5.32752 7.32108 0.25
225 7.29 2.26533 5.31085 0.25
226 4.55773 2.01494 7.58972 0.25
227 6.49181 3.55861 7.10869 0.25
228 5.4216 3.13828 4.27448 0.25
229 5.57801 5.10944 1.94057 0.25
230 0.255332 8.19103 6.50569 0.5
231 5.31811 4.73798 1.30475 0.5
232 2.02354 3.07191 3.96442 0.25
233 4.1269 5.04937 3.87638 0.25
234 6.45418 1.11176 6.48964 0.25
235 3.12311 7.31863 4.47889 0.25
236 0.911555 2.39995 7.7994 0.25
237 8.26803 2.96569 7.58404 0.25
238 3.45843 0.192493 1.84349 0.25
239 0.335445 2.39441 3.73359 0.25
240 6.74696 6.28934 1.46525 0.25
241 3.50295 7.12721 7.93623 0.25
242 1.71801 7.33142 2.69414 0.5
243 2.83934 4.78302 3.26488 0.25
244 7.03477 3.55789 1.12386 0.25
245 2.27596 1.00338 5.90726 0.25
246 7.69513 8.02808 3.69687 0.25
247 3.52454 2.6353 3.76504 0.25
248 3.80236 3.17403 1.2947 0.25
249 0.0480552 5.0699 7.35707 0.25
250 1.06085 3.17373 5.54599 0.25
251 5.28209 2.72014 4.83568 0.5
252 3.22338 1.95168 4.26295 0.25
253 7.90816 5.60212 7.46878 0.5
254 7.14269 5.77213 7.17553 0.25
255 4.78856 0.798749 6.0802 0.5
256 6.06794 6.14933 0.506869 0.25
257 0.917462 0.506552 2.84377 0.25
258 1.61197 1.79641 2.68799 0.25
259 4.68197 3.05663 1.60624 0.25
260 8.00061 6.29841 1.36358 0.25
261 3.42156 0.174307 1.32828 0.25
262 3.45318 2.37896 4.19608 0.25
263 2.0324 0.238721 0.0805414 0.5
264 2.69802 4.30842 3.4303 0.25
265 1.12172 3.87062 7.32391 0.5
266 1.04424 7.87387 7.03457 0.5
267 5.15654 2.56993 8.03801 0.25
268 6.32995 7.74757 0.363731 0.25
269 1.85797 5.14206 0.651044 0.25
270 3.92796 3.70716 1.3385 0.25
271 7.61394 7.85165 4.75551 0.25
272 1.59719 1.00481 2.51098 0.25
273 1.33509 3.27787 6.923 0.25
274 0.529647 5.5324 8.08016 0.25
275 4.58887 4.65742 1.3556 0.25
276 2.37523 3.17114 1.0585 0.25
277 6.73048 0.778439 6.79794 0.25
278 3.91558 6.43455 1.11061 0.25
279 4.14571 0.577546 5.34791 0.5
280 7.99779 8.12223 4.95742 0.25
281 1.08058 6.58232 0.611647 0.25
282 6.27672 7.07135 6.3432 0.25
283 0.863382 0.152884 6.51076 0.25
284 7.28688 4.35885 0.83621 0.25
285 1.92019 6.1174 1.14997 0.5
286 5.54813 6.73699 3.24382 0.25
287 1.43042 8.01047 3.50785 0.5
288 2.84046 7.20287 4.86102 0.25
289 2.41784 7.14166 5.08815 0.25
290 2.04034 3.81263 1.83743 0.25
291 8.196 7.50897 7.29149 0.25
292 7.7848 2.56727 3.4277 0.25
293 7.93412 4.84581 3.30425 0.25
294 5.87006 3.6649 3.39136 0.25
295 8.09483 4.18072 0.983601 0.25
296 0.561256 4.19855 4.53542 0.5
297 3.79252 3.14283 6.8448 0.25
298 6.26958 5.17242 7.27077 0.25
299 5.83997 4.82103 7.36726 0.25
300 6.22762 3.65832 0.598361 0.25
301 0.934789 8.12684 0.108298 0.25
302 0.0931226 4.24783 1.34425 0.25
303 3.54513 1.02216 1.53193 0.25
304 2.02429 2.37391 4.47889 0.25
305 1.07617 4.82428 8.1493 0.25
306 2.31638 1.97294 4.54287 0.25
307 1.36864 5.00514 7.53109 0.5
308 3.66541 5.8217 3.06789 0.25
309 4.49487 1.12834 5.53829 0.25
310 1.06762 4.48178 4.01185 0.25
311 7.39251 8.37244 4.00269 0.25
312 0.841 1.02348 2.37748 0.5
313 0.985398 3.64723 5.41918 0.25
314 5.45675 3.85589 3.16281 0.25
315 1.44234 5.20166 8.26441 0.25
316 1.70109 4.41598 7.13542 0.25
317 7.52312 2.49319 3.83703 0.25
318 2.18048 2.58168 4.05728 0.25
319 4.8753 7.49135 8.10055 0.25
320 1.92033 6.09327 6.04002 0.25
321 4.01531 0.918198 1.40296 0.25
322 7.35616 6.281 5.22458 0.25
323 0.92605 5.91947 4.1821 0.25
324 4.12572 7.34657 7.80541 0.5
325 0.975605 1.86438 0.25505 0.25
326 4.09741 4.80068 4.97764 0.5
327 7.36625 7.28754 3.36369 0.25
328 2.29637 7.84099 1.84133 0.25
329 1.35865 5.80397 3.43124 0.25
330 8.24989 7.02052 7.40678 0.25
331 0.923265 5.29262 3.7812 0.5
332 7.41034 6.57633 2.19349 0.25
333 1.04323 1.71978 2.07292 0.25
334 6.79554 1.55326 1.68208 0.25
335 3.35926 3.09851 1.03573 0.25
336 3.0168 7.05146 6.77522 0.25
337 4.36217 7.17695 2.97013 0.5
338 6.17188 7.46302 8.351 0.25
339 2.13283 8.00999 4.00645 0.25
340 4.78128 0.539783 4.95807 0.25
341 6.84687 8.35828 3.33952 0.25
342 0.782986 5.49026 7.64418 0.25
343 2.64117 1.21229 0.237318 0.25
344 1.41109 5.53195 2.62757 0.25
345 0.382934 1.49152 2.73193 0.25
346 0.568717 2.48397 0.0601776 0.25
347 3.53901 5.97005 7.55674 0.25
348 7.30678 7.78455 2.1797 0.25
349 0.798514 2.13598 8.2477 0.25
350 6.73865 1.63451 2.74312 0.25
351 1.49364 6.86522 0.472382 0.25
352 6.51367 3.56598 7.82746 0.5
353 2.45207 0.0066006 7.47119 0.25
354 1.87267 0.817293 5.58521 0.25
355 0.74046 8.33291 6.03245 0.25
356 2.01747 1.73882 5.67766 0.25
357 2.87615 4.04167 6.65949 0.25
358 6.25474 3.42605 5.29882 0.25
359 4.61356 1.30459 6.63782 0.25
360 1.82687 2.12872 1.15192 0.25
361 0.805267 7.98121 0.590061 0.25
362 6.22059 3.82234 6.77592 0.25
363 7.91175 4.09638 1.98458 0.25
364 6.04114 3.67031 7.19718 0.25
365 5.64156 5.84234 0.495168 0.25
366 5.21609 6.08638 0.615382 0.25
367 2.37839 4.7436 6.84002 0.25
368 6.67446 3.09886 0.0497781 0.25
369 1.13185 6.88642 0.179847 0.25
370 5.14571 0.588464 8.23283 0.25
371 2.1492 8.09553 4.47499 0.25
372 2.43845 4.54112 0.533401 0.25
373 7.05558 2.73999 5.17004 0.25
374 3.65438 4.40128 4.43698 0.25
375 4.68564 0.774058 8.08605 0.25
376 2.58669 5.77184 0.967359 0.25
377 6.41631 1.12434 2.20755 0.5
378 0.326642 3.74781 7.62023 0.25
379 4.62602 1.2814 8.04469 0.25
380 2.41745 6.79272 4.77959 0.25
381 4.07115 5.36094 5.51429 0.25
382 1.96488 7.08079 4.89408 0.25
383 6.41134 5.20776 3.89995 0.5
384 1.15182 1.80199 1.55437 0.25
385 6.90104 1.47885 7.02539 0.5
386 1.46995 1.1531 5.60238 0.25
387 7.38429 0.815363 0.580384 0.25
388 0.926582 5.62339 2.75559 0.25
389 4.2162 2.6769 7.40142 0.5
390 4.12303 0.715408 6.25242 0.25
391 5.25949 4.66949 2.04553 0.25
392 8.16235 2.72838 3.16631 0.25
393 2.82018 6.65416 1.36296 0.25
394 0.01989 8.06419 0.441569 0.25
395 2.07757 1.75921 1.24415 0.25
396 4.58379 7.85755 8.31642 0.25
397 4.7543 0.66514 0.185299 0.25
398 7.18045 1.68058 8.21437 0.25
399 3.08865 4.38083 3.11398 0.25
400 4.93384 4.67976 0.603415 0.25
401 2.13318 7.10404 3.68335 0.25
402 8.13621 7.92775 7.05401 0.25
403 7.88676 6.34101 0.859883 0.25
404 7.9545 6.71332 7.14713 0.25
405 0.412816 7.7111 0.506236 0.25
406 5.53828 0.285684 4.42246 0.25
407 2.36177 1.05938 7.93316 0.5
408 5.47594 3.28687 2.5323 0.25
409 2.21726 5.02223 0.993277 0.25
410 7.45545 0.964643 8.24618 0.5
411 4.38927 5.49175 5.14122 0.25
412 8.16675 7.08632 6.92724 0.25
413 1.28648 1.49372 0.116497 0.25
414 0.536083 3.03991 7.81608 0.5
415 6.50209 4.60458 2.95438 0.25
416 2.8891 3.19935 6.66697 0.25
417 3.41426 4.71499 3.76089 0.5
418 7.09448 6.62129 4.48875 0.25
419 3.90063 3.84248 5.84241 0.25
420 0.931874 3.01767 4.70302 0.25
421 4.06758 4.85661 5.66562 0.25
422 2.20332 5.46877 0.759489 0.25
423 0.301078 0.273905 5.90309 0.25
424 0.472682 3.3697 4.7402 0.25
425 1.93015 2.79319 1.39642 0.5
426 7.13491 5.60005 5.0768 0.5
427 2.71195 1.88115 4.24509 0.25
428 3.9994 5.13307 3.44087 0.25
429 4.40778 4.49904 5.54729 0.25
430 1.73004 7.32894 3.48016 0.25
431 0.818384 3.29798 6.76899 0.25
432 1.57507 7.04417 4.20905 0.5
433 2.06817 1.75697 7.66189 0.25
434 0.89623 6.57691 1.08794 0.25
435 5.70377 3.49278 2.89486 0.25
436 1.27259 5.9535 2.9305 0.25
437 8.35153 1.16863 0.486418 0.25
438 0.852023 3.32425 5.07334 0.25
439 3.72879 2.65008 6.71416 0.25
440 4.58213 1.44802 7.55944 0.25
441 8.09348 4.37226 5.44789 0.25
442 2.31314 5.47658 1.26174 0.25
443 0.279176 2.87998 6.88501 0.5
444 2.14477 3.51834 1.4718 0.25
445 5.31848 7.07773 0.830443 0.25
446 4.27976 5.8232 3.48728 0.5
447 1.65021 2.0361 5.65954 0.25
448 5.8954 7.29495 6.05708 0.25
449 1.1249 5.36099 5.51254 0.25
450 2.87823 3.29365 1.02901 0.25
451 2.81278 6.78123 5.0716 0.25
452 2.26622 0.916201 0.299067 0.25
453 4.6764 4.45007 0.948665 0.25
454 0.0520778 3.3982 7.32259 0.25
455 8.0642 4.85727 7.57927 0.25
456 3.02678 1.72985 3.81858 0.25
457 2.31785 4.03196 7.16772 0.5
458 8.34319 7.5507 6.81251 0.25
459 5.03119 7.7257 0.13253 0.25
460 5.54802 0.100452 4.83615 0.25
461 2.54045 3.60076 1.22767 0.25
462 6.35352 4.97275 3.19174 0.25
463 5.14689 7.38777 2.90563 0.25
464 7.49424 6.79361 7.27075 0.25
465 7.04585 2.54401 5.6509 0.25
466 4.23822 1.83819 2.75383 0.25
467 3.86197 6.32613 1.57858 0.25
468 6.96275 5.27205 2.89327 0.5
469 7.38806 7.33496 7.12471 0.25
470 0.82514 1.38065 0.244912 0.25
471 1.76861 1.09761 6.01505 0.25
472 1.78783 7.64805 1.97845 0.25
473 7.63102 5.08843 5.47743 0.25
474 5.24985 5.79248 5.73642 0.25
475 1.37987 1.3568 2.82302 0.25
476 7.3697 1.15692 7.50394 0.25
477 3.23159 5.48878 3.69773 0.25
478 6.25535 3.14379 7.2601 0.25
479 3.44172 7.2657 7.45292 0.25
480 5.01664 0.391972 2.34817 0.25
481 7.87378 2.15027 4.15219 0.25
482 7.26843 4.98127 4.57919 0.25
483 8.2982 5.57896 5.55094 0.25
484 2.68871 0.696277 0.110795 0.25
485 7.83633 7.46491 6.92078 0.25
486 1.82581 6.56013 6.11943 0.25
487 8.3346 7.63276 4.36109 0.25
488 4.33638 4.13166 5.88042 0.25
489 0.411346 8.18629 0.738784 0.25
490 8.12683 8.01926 2.13889 0.25
491 4.64357 3.20593 1.14954 0.25
492 2.28983 1.60941 4.21871 0.25
493 6.29771 4.35147 6.83474 0.25
494 4.91563 7.54251 2.52875 0.25
495 1.28268 5.85024 5.6207 0.25
496 3.00941 7.69148 4.76028 0.25
497 6.42069 4.29379 7.69062 0.25
498 3.36637 2.86674 4.18282 0.25
499 0.266752 5.37769 7.6936 0.25
500 3.85463 3.02209 6.33837 0.25
501 6.15755 4.13154 4.13159 0.25
502 1.72677 8.01719 7.36709 0.25
503 5.96709 5.00472 2.60239 0.5
504 7.76904 7.75574 2.28951 0.25
505 5.83258 1.30695 2.77187 0.25
506 7.22486 6.22616 4.77323 0.25
507 1.22043 0.388261 3.23306 0.25
508 0.685643 0.21093 5.64033 0.25
509 8.32088 5.0095 5.07061 0.5
510 5.17175 1.70997 5.47478 0.25
511 0.624247 0.670728 5.6802 0.25
512 0.891986 0.788876 3.20482 0.25
513 4.05428 1.35634 5.46717 0.25
514 1.9164 5.60408 6.0475 0.25
515 0.773818 7.68667 6.32191 0.25
516 7.55438 1.50019 6.07062 0.25
517 7.44552 5.42726 4.46235 0.25
518 0.923839 3.54341 4.60024 0.25
519 6.45345 1.87377 1.92948 0.25
520 6.9961 2.00161 6.38849 0.25
521 7.56381 1.62718 0.20982 0.25
522 6.58721 1.46816 7.7373 0.25
523 5.1663 6.80762 5.74644 0.25
524 2.69154 0.509616 7.55682 0.25
525 6.37834 4.0433 7.21971 0.25
526 6.98976 5.31696 6.88039 0.25
527 7.58209 7.9693 4.21868 0.25
528 7.43254 1.25674 6.5295 0.25
529 6.57511 1.22603 2.99518 0.25
530 2.46022 1.84944 6.01517 0.25
531 7.98942 7.79111 4.02069 0.25
532 1.32624 0.856664 2.96267 0.25
533 7.079 1.50358 7.76757 0.25
534 8.26451 5.92475 1.59798 0.25
535 0.3011 3.29273 5.55682 0.5
536 6.85429 2.37831 6.0811 0.25
537 4.1199 1.05137 5.89358 0.25
538 6.75276 5.01429 4.72691 0.25
539 2.55436 1.35234 6.17291 0.25
540 8.1319 6.50666 2.04166 0.5
541 7.51805 4.03274 1.5646 0.25
542 2.23628 2.16326 7.86018 0.25
543 3.36295 7.33976 6.978 0.25
544 7.57981 6.51354 6.88641 0.25
545 1.35659 5.89638 3.93816 0.25
546 4.95057 5.73974 6.17051 0.25
547 5.248 2.44035 0.123345 0.25
548 6.13169 7.15385 6.81572 0.25
549 0.258043 7.77042 7.15143 0.25
550 6.17407 6.9693 0.0894694 0.25
551 4.57568 1.55853 2.48596 0.25
552 3.7635 5.42795 3.80353 0.25
553 6.97065 7.77546 3.79972 0.5
554 4.39915 6.46013 3.06911 0.25
555 4.88911 6.6377 3.63358 0.5
556 6.9473 0.786219 0.825642 0.25
557 7.435 5.0137 3.82479 0.5
558 6.51225 8.35014 3.72299 0.25
559 1.32579 0.412915 5.97035 0.5
560 5.05937 3.47731 2.3698 0.25
561 2.93997 3.06476 4.10636 0.25
562 5.1139 8.33897 5.55721 0.25
563 2.41536 6.66809 1.26007 0.25
564 5.99132 6.82615 0.826362 0.5
565 6.65667 1.59823 6.3617 0.25
566 1.17384 1.78793 2.52131 0.25
567 4.42909 5.7814 6.06004 0.25
568 6.08495 1.29991 3.20031 0.25
569 2.46228 8.26723 7.96105 0.25
570 1.95732 6.68817 4.69197 0.25
571 2.84178 4.50085 7.01083 0.25
572 8.153 2.82405 3.93702 0.5
573 4.0776 1.43734 2.42616 0.25
574 1.46835 5.8321 6.06722 0.25
575 2.10432 1.69044 8.09213 0.25
576 4.34673 5.6761 7.5424 0.25
577 5.1577 0.202047 5.09226 0.25
578 1.91454 7.57314 3.84954 0.25
579 7.56065 4.90123 7.42087 0.25
580 7.5437 0.228411 4.67959 0.5
581 4.2955 4.60783 6.01779 0.25
582 5.89792 3.00465 4.57105 0.25
583 5.78792 3.68324 4.74037 0.5
584 4.75626 6.49441 5.83095 0.25
585 5.12122 3.17765 1.40406 0.25
586 1.62982 0.296108 2.53146 0.5
587 4.99022 7.03198 2.6145 0.25
588 5.90884 5.18169 3.37763 0.25
589 0.140714 2.4895 7.53897 0.25
590 3.5263 6.61573 1.83549 0.25
591 6.25744 1.29831 1.05695 0.25
592 7.49741 7.19748 1.75808 0.5
593 6.86357 6.78577 1.54675 0.25
594 1.95913 4.68916 8.29319 0.5
595 0.720976 3.78062 7.95548 0.25
596 1.84469 0.801598 0.544402 0.25
597 0.152667 0.247788 5.1688 0.5
598 2.63671 6.25371 1.08543 0.25
599 2.01565 8.24847 7.74552 0.25
600 7.83113 1.02118 5.35866 0.25
601 0.817657 0.943834 6.06855 0.25
602 3.89316 8.33639 2.09784 0.25
603 4.31714 5.58395 8.02298 0.25
604 7.49504 5.08964 6.9899 0.25
605 7.84781 2.13952 3.6841 0.25
606 2.27851 8.2077 2.28559 0.25
607 4.57784 5.24904 7.72868 0.25
608 3.61186 7.71559 7.32897 0.25
609 6.88723 4.81029 4.33449 0.25
610 1.97199 1.27405 5.61074 0.25
611 3.03754 0.584261 8.0396 0.25
612 0.744465 7.71471 0.122884 0.25
613 6.39948 1.56215 8.20441 0.25
614 4.66707 1.08173 5.0871 0.25
615 4.88062 2.62989 3.78041 0.25
616 1.21212 5.45308 3.12191 0.25
617 1.41722 7.95991 2.2247 0.25
618 7.64335 7.23171 4.3759 0.5
619 7.98474 7.96539 4.46718 0.25
620 8.27452 7.32857 2.57097 0.5
621 4.23991 6.44726 3.96875 0.25
622 6.23125 6.58339 6.10206 0.25
623 5.32939 6.57916 0.680826 0.25
624 0.903469 2.87086 5.19453 0.25
625 1.01723 5.37469 8.05097 0.25
626 3.26221 0.659393 1.79533 0.25
627 4.80065 4.67727 1.82292 0.25
628 8.16679 3.54369 2.4346 0.5
629 6.97448 3.02047 0.432796 0.25
630 1.06703 0.0271472 2.90954 0.25
631 1.74062 1.41283 7.76193 0.25
632 7.66764 7.91635 1.84684 0.25
633 6.02015 7.66016 0.802778 0.25
634 3.00498 8.00744 3.87067 0.25
635 0.916135 7.25269 0.77093 0.5
636 1.37884 2.25008 1.36554 0.25
637 5.56764 0.123636 5.33852 0.25
638 4.99435 1.28059 5.45855 0.25
639 4.50595 1.90445 8.37281 0.25
640 5.21235 7.56644 0.55557 0.25
641 1.42951 6.55536 5.36844 0.25
642 3.7065 1.10323 5.74074 0.25
643 6.19539 6.96364 5.77056 0.25
644 5.81422 0.820431 3.03822 0.25
645 2.26506 2.1783 1.43734 0.25
646 8.04875 6.6319 6.65018 0.25
647 2.46571 2.99801 4.22594 0.25
648 4.98745 1.0794 8.35619 0.25
649 0.359362 4.22241 1.84567 0.25
650 8.26222 3.78151 1.33349 0.25
651 3.29375 3.08811 3.77027 0.25
652 7.02457 0.420228 6.98509 0.25
653 1.36147 6.70746 0.974758 0.25
654 1.0231 2.59377 8.24271 0.25
655 3.44882 3.69152 6.40117 0.5
656 0.512347 3.4369 7.23445 0.25
657 1.5133 5.40392 5.78625 0.25
658 6.984 0.199863 3.8175 0.25
659 2.52889 1.85772 7.91483 0.25
660 6.99957 6.01007 4.09415 0.5
661 8.1824 1.08882 0.0282031 0.25
662 3.99722 4.70941 4.24615 0.25
663 2.49615 3.7207 1.74038 0.25
664 6.61805 2.71704 4.81686 0.25
665 7.81745 3.80841 1.2219 0.25
666 6.07806 6.70798 6.59347 0.25
667 6.47694 3.16075 0.558911 0.25
668 7.08918 6.4829 1.80177 0.25
669 6.19658 4.80171 7.0188 0.25
670 5.18679 8.21246 4.65227 0.25
671 3.52752 4.89299 4.47952 0.25
672 2.70319 3.28645 1.99128 0.25
673 0.59199 1.14742 3.1264 0.25
674 4.91232 7.35475 3.34592 0.25
675 5.5337 3.75168 5.44591 0.25
676 7.60916 8.19197 2.2636 0.25
677 6.30079 1.53975 1.55835 0.25
678 7.70984 6.2343 4.90938 0.25
679 1.20574 6.35591 1.35495 0.25
680 3.79783 6.71964 8.0585 0.25
681 7.90769 8.30135 4.12312 0.25
682 2.59962 5.87998 1.43701 0.25
683 1.86541 7.70855 6.91069 0.25
684 0.350002 3.78814 1.49847 0.25
685 2.6899 3.61887 6.56161 0.25
686 4.19783 2.90163 6.66464 0.25
687 2.68012 4.07409 0.585694 0.25
688 3.7527 1.03638 6.25686 0.25
689 6.12261 4.18185 8.03146 0.25
690 6.19157 1.01309 2.83036 0.25
691 7.03537 1.13615 1.70315 0.25
692 5.08335 5.09183 1.94459 0.25
693 7.43296 1.75098 6.51245 0.25
694 7.62884 5.13574 4.9361 0.25
695 8.36744 3.12015 6.24077 0.25
696 5.81837 5.95336 3.29364 0.5
697 4.20359 3.79897 6.25766 0.25
698 1.79248 1.14001 5.19825 0.25
699 1.55819 6.79309 4.93331 0.25
700 3.85339 5.63703 1.17266 0.25
701 4.39522 1.71031 7.91418 0.25
702 2.03755 4.58284 7.58629 0.25
703 3.46819 6.61553 7.34224 0.5
704 4.73973 4.87279 8.00101 0.25
705 5.00733 3.33824 1.85327 0.25
706 5.04641 0.261577 0.219819 0.25
707 4.69558 3.87062 1.38832 0.5
708 5.33498 7.63998 8.0431 0.25
709 2.48602 7.10702 1.88337 0.5
710 1.96431 4.55988 6.69214 0.25
711 5.21594 6.39844 3.05276 0.25
712 0.244353 5.12622 8.16043 0.25
713 2.70252 4.1871 1.83624 0.25
714 5.0622 4.22374 0.801098 0.25
715 4.81181 6.61574 2.85679 0.25
716 6.88958 1.10022 7.73416 0.25
717 7.68383 7.52491 3.70015 0.25
718 6.1684 3.318 6.78894 0.25
719 5.97193 4.51685 7.76949 0.25
720 1.74632 7.79866 4.23235 0.25
721 6.85741 1.68613 2.22108 0.25
722 2.4182 7.76333 3.36303 0.5
723 2.52901 7.4546 2.56912 0.25
724 7.17464 6.51499 1.31068 0.25
725 7.63359 6.34882 7.34344 0.25
726 1.03078 0.972871 5.59465 0.25
727 3.69878 0.542723 1.50526 0.25
728 3.81394 6.23287 7.92584 0.25
729 5.07058 5.97485 3.29656 0.25
730 3.00151 7.13619 7.22805 0.25
731 5.20903 3.5169 2.86296 0.25
732 4.11722 3.74313 6.74806 0.25
733 3.84625 5.60405 7.38794 0.25
734 4.35345 0.884438 2.8073 0.25
735 3.39457 2.96051 6.58991 0.25
736 7.89853 1.55449 8.25656 0.25
737 3.01834 0.286268 1.52447 0.25
738 0.043798 0.100792 0.801331 0.25
739 4.73627 6.15225 2.98458 0.25
740 5.35917 7.24923 3.35779 0.25
741 0.533729 7.8245 1.01604 0.25
742 3.76974 4.64568 5.97556 0.25
743 6.97973 0.866886 1.34568 0.25
744 4.58892 0.570129 2.53915 0.25
745 3.57276 4.22558 5.8447 0.25
746 1.46044 6.11009 4.67882 0.5
747 4.67109 0.429271 2.00637 0.25
748 2.81027 6.71824 7.02984 0.25
749 1.44753 1.44425 2.35728 0.25
750 8.3508 3.45712 1.67791 0.25
751 1.42295 0.769192 5.31837 0.25
752 6.27547 4.78755 7.54637 0.25
753 3.97034 0.713836 2.11439 0.5
754 4.23345 5.76831 0.868756 0.25
755 2.84669 2.57928 1.25492 0.5
756 7.83941 6.74137 7.63205 0.25
757 5.66975 6.97089 5.69621 0.25
758 6.84774 3.86412 7.29058 0.25
759 4.15054 8.25855 5.71294 0.25
760 0.26858 2.62567 3.28088 0.25
761 3.83799 7.33525 7.11277 0.25
762 0.485917 1.81221 3.40017 0.5
763 4.12475 8.04357 1.82123 0.25
764 1.58347 6.40924 0.606366 0.25
765 7.6827 5.18159 3.04768 0.25
766 0.436462 4.02203 2.34779 0.25
767 2.72036 6.89036 7.49462 0.25
768 2.09424 2.67873 4.87595 0.25
769 7.89438 3.68767 1.71479 0.25
770 4.49669 1.05782 0.0334768 0.25
771 6.72939 1.13696 6.08356 0.25
772 4.78605 2.4262 7.82112 0.25
773 5.41946 0.83327 4.93193 0.5
774 3.84587 8.30219 5.29449 0.25
775 7.93524 4.66429 2.54223 0.5
776 6.95549 3.74134 0.457856 0.5
777 5.97868 6.53434 0.111249 0.25
778 4.87508 8.20407 0.0806116 0.25
779 0.0173084 8.05936 4.12968 0.25
780 2.44114 1.41871 5.71436 0.25
781 2.47935 1.65089 0.026621 0.25
782 1.47347 7.30243 0.244679 0.25
783 6.83694 3.1381 0.930262 0.25
784 2.1453 7.70335 2.23638 0.25
785 2.36921 1.68741 6.49948 0.25
786 2.62211 7.82075 2.2576 0.25
787 7.64496 6.98134 6.84534 0.25
788 8.36124 4.2093 2.19935 0.25
789 3.41092 8.12222 4.12587 0.25
790 6.64867 0.29242 6.65769 0.25
791 0.389535 4.74202 3.03 0.5
792 2.25576 0.32145 7.76682 0.25
793 8.25671 7.20051 1.79669 0.25
794 5.44244 6.38853 6.27002 0.5
795 2.3641 4.11224 3.15358 0.25
796 2.21207 5.85511 5.71437 0.25
797 6.68008 6.647 1.12293 0.25
798 7.65209 4.31728 1.17955 0.25
799 3.98543 3.39308 6.01513 0.25
800 7.91154 2.21343 3.17048 0.25
801 3.29364 7.91208 6.99787 0.25
802 3.84132 5.14185 4.24485 0.25
803 3.11751 8.2938 7.66348 0.5
804 3.58812 7.0907 1.69275 0.25
805 1.92131 8.11373 2.01876 0.25
806 2.52889 1.7697 3.82247 0.25
807 4.60092 6.27125 5.44542 0.25
808 4.01787 2.41497 8.0906 0.25
809 1.75817 5.85591 5.68564 0.25
810 6.52044 7.39616 6.65476 0.25
811 1.58402 3.28057 4.98601 0.5
812 5.62567 7.42635 0.716228 0.25
813 4.50314 2.18375 3.05001 0.25
814 1.6726 7.49919 7.33524 0.25
815 2.69561 8.01755 4.65065 0.25
816 0.529055 2.91988 4.95223 0.25
817 4.04658 1.94924 8.24167 0.25
818 3.96975 2.09212 3.0713 0.25
819 1.84509 5.31641 1.11152 0.25
820 3.27279 3.22709 6.94949 0.25
821 1.50132 2.06724 8.05495 0.5
822 6.06595 4.36075 3.45085 0.5
823 4.74512 0.259193 8.22656 0.25
824 0.955062 0.544616 5.32818 0.25
825 4.04394 6.06973 7.47507 0.25
826 3.22435 3.60458 1.58281 0.5
827 5.77066 7.11039 6.51306 0.25
828 0.422805 2.34096 7.93418 0.25
829 0.0507848 8.01252 4.66433 0.25
830 0.842093 2.05521 2.85298 0.25
831 2.14486 4.15516 7.88423 0.25
832 5.75138 4.64293 1.96592 0.25
833 2.10616 1.46207 6.06233 0.25
834 4.14831 0.465304 2.80213 0.25
835 6.6099 1.60176 1.21221 0.25
836 3.40984 7.56389 7.75102 0.25
837 4.04293 5.27004 7.75403 0.25
838 7.32807 0.638593 1.06863 0.25
839 6.03909 7.51755 6.49798 0.25
840 6.89988 4.61115 7.17643 0.5
841 3.23639 6.93567 2.03964 0.25
842 0.0533513 2.21252 2.70202 0.5
843 6.01064 3.82196 5.48682 0.25
844 4.76312 2.34315 8.32213 0.25
845 7.51538 2.70321 5.3392 0.25
846 3.68309 3.62983 7.32959 0.5
847 2.30833 5.06681 0.44492 0.25
848 1.95436 5.85064 5.23751 0.25
849 5.2264 7.84262 2.69726 0.25
850 6.39336 2.71959 5.53339 0.5
851 5.32174 8.12098 5.13874 0.25
852 6.78153 1.77125 8.06957 0.25
853 4.00084 7.87807 5.53239 0.25
854 4.55264 1.73259 5.96235 0.5
855 0.42194 4.02598 5.2948 0.25
856 0.735527 5.34245 3.07754 0.25
857 3.66778 6.75998 1.38378 0.25
858 2.63839 4.66033 3.73939 0.25
859 6.74812 4.54884 3.86406 0.25
860 7.6647 4.02759 0.769902 0.25
861 4.83584 2.8838 7.86151 0.25
862 6.74877 4.72029 3.38928 0.25
863 5.86361 6.02864 0.0970304 0.25
864 7.64495 6.9565 2.44299 0.25
865 3.87851 5.75841 7.86336 0.25
866 5.08181 8.18171 3.01453 0.25
867 1.67595 4.28761 7.64641 0.25
868 1.97809 1.61249 0.512112 0.5
869 0.939145 3.12538 7.19329 0.25
870 6.24471 5.46595 3.14719 0.25
871 2.8708 7.51103 6.91649 0.25
872 5.89314 3.06864 5.11342 0.25
873 0.294851 0.170261 0.361182 0.25
874 4.18227 1.22508 6.36606 0.25
875 2.30326 4.26925 1.22952 0.5
876 1.54336 5.57359 5.29578 0.25
877 8.30966 5.10303 7.86524 0.25
878 5.76065 0.818741 2.55926 0.25
879 3.21691 8.10919 4.61359 0.25
880 6.56322 5.8882 3.00936 0.25
881 7.39501 0.95219 1.40265 0.25
882 7.80408 7.16226 7.31683 0.25
883 0.338111 3.68208 1.94253 0.25
884 7.2529 3.14419 0.869277 0.25
885 0.91111 4.16897 5.25222 0.25
886 7.90911 7.28735 3.24617 0.25
887 1.15081 6.87093 1.40588 0.25
888 1.03681 4.59713 3.52625 0.25
889 1.44285 8.03601 2.73844 0.25
890 0.302415 4.49333 2.31494 0.25
891 1.00466 2.11193 7.4357 0.25
892 7.50663 3.54665 0.935932 0.25
893 1.20222 7.71369 0.333482 0.25
894 4.13277 6.0782 1.28597 0.25
895 3.84711 6.01163 0.832611 0.25
896 1.73401 1.3921 8.23348 0.25
897 7.98982 4.16485 1.4998 0.25
898 0.634875 4.53172 3.78292 0.25
899 1.08543 8.10102 6.33846 0.25
900 5.11472 6.28092 5.62258 0.25
901 0.860679 1.5496 2.82533 0.25
902 7.31945 3.96449 1.13534 0.25
903 5.87135 3.74062 3.87722 0.25
904 6.90863 4.1417 7.75178 0.25
905 5.34635 0.961823 5.65169 0.25