ITEM: TIMESTEP
360000
ITEM: NUMBER OF ATOMS
1000
ITEM: BOX BOUNDS xy xz yz pp pp pp
0.0000000000000000e+00 8.3788359999999997e+00 0.0000000000000000e+00
0.0000000000000000e+00 8.3788359999999997e+00 0.0000000000000000e+00
0.0000000000000000e+00 8.3788359999999997e+00 0.0000000000000000e+00
ITEM: ATOMS id x y z radius
1 2.87749 6.88427 4.91604 0.25
2 4.72462 4.95196 5.36138 0.25
3 7.00504 4.61384 3.19829 0.25
4 7.37592 1.07915 5.77203 0.5
5 1.24926 5.53491 6.1144 0.25
6 1.69327e-05 1.94788 3.37092 0.25
7 4.16294 3.32877 6.54948 0.25
8 4.81338 7.64048 2.99249 0.25
9 1.05268 6.07473 3.6969 0.25
10 4.35734 1.74695 3.2103 0.25
11 5.66922 0.348454 8.30617 0.25
12 5.22088 3.37244 1.44679 0.25
13 0.42622 2.49856 7.49381 0.25
14 3.5186 2.84164 7.09051 0.25
15 8.10484 2.98657 6.37116 0.25
16 7.34458 0.931845 6.79997 0.25
17 0.78128 5.49107 8.18431 0.25
18 5.82579 7.43287 7.92704 0.25
19 4.05214 2.0485 7.84673 0.25
20 7.65644 1.29626 0.502283 0.25
21 4.89439 4.19466 1.76982 0.25
22 4.04126 3.21755 1.14234 0.25
23 2.22628 3.2709 2.05936 0.25
24 2.85503 1.3554 4.09253 0.25
25 2.63268 4.43068 3.04715 0.25
26 0.441831 8.25113 5.66132 0.25
27 3.76265 0.353641 5.94438 0.25
28 4.42753 2.38367 0.089527 0.25
29 5.0303 6.81364 3.05865 0.25
30 7.55102 7.33563 2.40478 0.25
31 2.65944 0.37461 8.06289 0.25
32 0.831608 2.70499 7.3471 0.25
33 7.69803 0.513853 5.31601 0.25
34 2.13182 4.88555 1.57004 0.25
35 8.03435 0.190177 4.52758 0.25
36 6.88563 1.92682 5.75992 0.5
37 4.58673 1.03628 2.24989 0.25
38 2.20946 3.28937 4.31341 0.25
39 6.14767 2.6369 4.87252 0.25
40 5.2222 7.68523 3.18963 0.25
41 6.81113 2.12146 2.64579 0.25
42 5.62146 5.97827 5.77363 0.25
43 3.53135 7.59421 4.59952 0.25
44 3.85385 8.23544 5.78487 0.25
45 5.7026 4.11386 4.12868 0.25
46 3.166 5.93807 1.45877 0.5
47 4.76 0.844711 5.3587 0.25
48 7.85082 6.36501 6.95983 0.25
49 7.51674 6.82439 4.74054 0.25
50 7.87693 1.06825 0.89195 0.25
51 2.75178 3.29362 4.38695 0.25
52 0.749427 1.79024 2.43952 0.25
53 6.38064 5.37895 6.99131 0.25
54 5.88877 3.29089 4.10413 0.25
55 1.56459 1.52196 5.99624 0.25
56 0.963997 7.32529 8.34584 0.25
57 4.85583 0.679019 2.03085 0.25
58 2.43737 2.08097 4.16006 0.25
59 4.73067 1.49994 6.2344 0.25
60 7.91479 5.44889 5.26722 0.25
61 5.31215 0.101687 7.98529 0.25
62 5.16098 1.76961 7.8998 0.5
63 7.47666 6.66381 1.10799 0.25
64 1.06452 6.12568 0.784294 0.25
65 4.157 0.0542667 1.85318 0.25
66 2.16847 4.68857 7.30392 0.25
67 7.90833 5.08337 7.07866 0.25
68 7.18419 0.643602 6.33725 0.25
69 0.194764 5.68864 7.60727 0.25
70 1.90819 4.72681 0.778076 0.25
71 7.93446 1.3903 0.109476 0.25
72 6.53801 6.27465 3.51267 0.25
73 0.502261 7.46874 6.68768 0.25
74 7.31375 5.66867 6.89196 0.25
75 7.05805 8.29669 3.44029 0.25
76 7.69465 6.47362 4.38945 0.25
77 5.72441 2.87179 5.48557 0.25
78 5.34024 3.80484 1.14802 0.25
79 7.75512 5.01823 4.55361 0.25
80 5.88004 3.36508 5.47768 0.25
81 7.18595 1.41762 1.38282 0.25
82 8.15482 3.16827 5.88634 0.25
83 4.4133 5.82418 5.54334 0.25
84 1.1931 1.18943 6.10277 0.25
85 1.47095 1.61794 5.51571 0.25
86 4.7008 0.103216 5.72775 0.25
87 1.71904 1.63768 1.26995 0.25
88 3.19768 6.73619 1.63764 0.25
89 6.67124 6.97066 0.799641 0.25
90 5.59837 6.34673 5.42765 0.25
91 3.90754 4.24402 6.26109 0.25
92 6.02215 4.54622 7.38201 0.25
93 5.11883 6.44773 5.17997 0.25
94 6.99425 8.14424 4.26086 0.25
95 0.333823 4.65533 7.57533 0.5
96 5.40995 3.15721 3.50849 0.5
97 4.25396 4.83575 7.95203 0.25
98 8.19996 2.38859 3.32652 0.25
99 1.50404 6.35982 5.94824 0.25
100 7.06417 6.99427 1.1707 0.25
101 0.481613 8.13597 0.250665 0.25
102 7.90764 4.77633 3.28391 0.25
103 6.72257 1.23582 1.45536 0.25
104 0.903387 5.04871 7.21088 0.25
105 5.1637 5.62382 5.25652 0.5
106 5.13582 0.317058 4.69285 0.25
107 4.29462 3.23008 7.04267 0.25
108 4.87668 1.41949 0.137496 0.25
109 0.606542 0.506997 6.3019 0.25
110 2.11554 7.94321 8.14329 0.25
111 3.19824 3.98443 7.0997 0.25
112 4.4667 2.17774 8.0165 0.25
113 1.89904 1.91716 1.97848 0.5
114 1.68169 4.17592 6.80509 0.25
115 4.57007 6.42217 6.03558 0.25
116 2.59948 7.10763 7.00198 0.25
117 4.27221 2.33788 3.70057 0.5
118 6.61114 7.20462 1.19998 0.25
119 1.00859 6.20409 2.95969 0.25
120 0.19226 3.05078 2.47015 0.25
121 3.09361 4.00923 3.61901 0.25
122 6.73585 0.786463 6.19293 0.25
123 5.22126 0.703561 5.53656 0.25
124 8.216 7.99277 2.4674 0.25
125 3.58012 2.05148 3.77765 0.25
126 3.59455 1.13162 5.95958 0.25
127 5.22473 3.85229 1.63193 0.25
128 6.6713 5.48573 7.37074 0.25
129 1.23802 6.40278 3.98435 0.25
130 5.53297 6.33065 0.936817 0.25
131 6.98458 1.51317 6.29912 0.25
132 5.91982 4.0728 7.65328 0.25
133 3.33595 1.74158 3.44745 0.25
134 4.49116 2.66911 8.12044 0.25
135 5.513 3.88845 3.67047 0.25
136 2.92727 2.40346 3.69838 0.5
137 2.81022 3.95436 3.18688 0.25
138 7.54196 7.952 2.85889 0.5
139 2.55987 7.81115 4.93937 0.25
140 5.24538 7.9877 7.8931 0.25
141 7.93338 5.91226 5.00365 0.25
142 0.942625 5.0088 3.24942 0.25
143 2.18002 2.06007 8.2008 0.25
144 5.08693 0.977084 2.71701 0.5
145 7.4861 1.92018 3.92435 0.25
146 5.99991 7.4065 0.398838 0.25
147 6.62905 5.65782 4.62877 0.25
148 2.17807 2.83174 4.45632 0.25
149 4.49522 8.14358 2.49536 0.5
150 5.00091 3.01277 4.23677 0.25
151 3.53376 5.95167 7.29158 0.25
152 3.64172 4.64433 5.62705 0.25
153 6.7875 6.01626 2.32664 0.5
154 7.34227 2.40493 4.5283 0.5
155 2.96489 7.3311 7.7802 0.25
156 7.40459 3.55301 1.43981 0.25
157 7.59542 5.89669 1.49607 0.25
158 2.34038 3.58479 0.789149 0.25
159 7.17941 7.70102 4.45864 0.25
160 6.45852 1.99003 2.97622 0.25
161 0.890254 5.2276 2.81557 0.25
162 5.81859 4.15087 7.13293 0.25
163 3.41054 3.63817 4.19162 0.5
164 2.42834 3.7786 2.57151 0.5
165 5.71052 7.87801 7.73728 0.25
166 0.148911 3.90077 7.80584 0.25
167 6.24016 3.88648 0.144665 0.25
168 4.77927 6.04681 5.78986 0.25
169 4.02297 4.39233 5.78899 0.25
170 0.0529482 2.76414 6.0876 0.25
171 7.73036 5.82174 1.00307 0.25
172 1.08716 2.90029 6.90062 0.25
173 4.32296 6.31747 5.62994 0.25
174 2.43306 2.29431 0.970618 0.25
175 7.6967 2.48748 6.0269 0.5
176 2.42543 6.01888 6.16495 0.25
177 5.46814 3.63975 4.07471 0.25
178 2.9731 6.51487 1.96802 0.25
179 3.58648 2.16696 3.3362 0.25
180 5.94347 6.36351 5.79345 0.25
181 6.58767 4.05468 6.86373 0.25
182 3.17112 5.07441 3.33458 0.25
183 8.15799 7.47534 1.80016 0.25
184 4.30499 5.13545 8.35746 0.25
185 5.85631 6.82809 6.02808 0.25
186 7.64666 5.98923 4.55877 0.25
187 3.38379 5.26107 4.27345 0.25
188 0.931752 5.83451 3.26709 0.25
189 4.17195 6.5441 3.58795 0.25
190 4.06896 3.08876 1.62237 0.25
191 6.92095 1.38525 0.40187 0.5
192 0.853046 5.19028 7.73952 0.25
193 3.77474 5.63512 1.77285 0.25
194 2.59036 6.28834 1.88947 0.25
195 6.25536 5.64705 2.73894 0.25
196 2.28747 8.028 2.58089 0.25
197 1.11916 8.34177 2.56517 0.25
198 7.52846 4.75971 6.93071 0.25
199 1.12809 1.25029 3.12098 0.25
200 4.4867 5.32762 1.5782 0.5
201 6.54691 1.59044 3.19091 0.25
202 8.35913 3.7822 5.38705 0.25
203 3.85916 1.76918 3.48528 0.25
204 5.69664 8.02261 0.0915509 0.5
205 2.50165 7.34478 4.337 0.5
206 0.486322 4.4091 5.27446 0.25
207 5.78797 2.7722 4.07648 0.25
208 7.01765 5.35492 4.37252 0.25
209 5.49669 7.04408 0.0533252 0.5
210 1.92643 7.97606 2.9387 0.25
211 0.781532 3.68206 5.10812 0.25
212 1.40377 7.80945 7.99497 0.5
213 0.205274 4.15676 2.56322 0.25
214 1.85318 8.02937 2.46008 0.25
215 2.92532 4.20718 4.02909 0.25
216 6.38806 1.88373 2.4569 0.25
217 4.89561 3.73692 2.01161 0.25
218 2.46104 3.13125 4.73966 0.25
219 4.42578 1.33363 2.87842 0.25
220 3.6481 3.53373 1.02476 0.25
221 4.24356 0.194953 6.00039 0.25
222 7.45363 0.865352 5.05344 0.25
223 8.10439 2.8769 2.7208 0.25
224 7.15944 5.40828 7.32395 0.25
225 7.37516 2.20081 5.33854 0.25
226 4.49791 1.99826 7.55971 0.25
227 6.41384 3.63214 7.06623 0.25
228 5.5154 3.11852 4.28355 0.25
229 5.72359 5.09147 1.87026 0.25
230 0.238007 8.15323 6.43239 0.5
231 5.36692 4.5562 1.39913 0.5
232 2.02527 3.00307 3.99278 0.25
233 4.12488 5.04835 3.96229 0.25
234 6.57944 1.16812 6.50188 0.25
235 3.17084 7.26639 4.69821 0.25
236 0.751746 2.5539 7.87096 0.25
237 8.27382 3.18671 7.47785 0.25
238 3.2813 0.445072 1.70875 0.25
239 0.252975 2.36301 3.50507 0.25
240 6.64511 6.37413 1.62478 0.25
241 3.38597 7.25472 8.06237 0.25
242 1.75346 7.32866 2.63616 0.5
243 2.83797 4.74465 3.39325 0.25
244 7.02106 3.49045 1.1111 0.25
245 2.23902 1.06258 5.75454 0.25
246 7.58882 8.19106 3.65182 0.25
247 3.6068 2.58056 3.68009 0.25
248 3.60884 3.11142 1.31806 0.25
249 8.34677 5.30811 7.33752 0.25
250 1.21552 3.08825 5.47176 0.25
251 5.36027 2.6512 4.8231 0.5
252 3.31987 2.00804 4.22175 0.25
253 7.80059 5.7288 7.40963 0.5
254 7.01356 5.80692 7.20008 0.25
255 4.69342 0.801783 6.00076 0.5
256 5.92873 6.19634 0.638778 0.25
257 1.09705 0.404775 2.74078 0.25
258 1.71888 1.73 2.69714 0.25
259 4.56107 2.9655 1.7379 0.25
260 7.8084 6.27162 1.21726 0.25
261 3.44198 0.120834 1.2905 0.25
262 3.6351 2.42529 4.16405 0.25
263 2.0692 0.245187 0.133342 0.5
264 2.72594 4.29963 3.56151 0.25
265 1.20167 3.93055 7.35933 0.5
266 1.0029 7.93377 7.0024 0.5
267 5.29273 2.52102 7.88588 0.25
268 6.31993 7.71951 0.333293 0.25
269 1.79448 5.21864 0.916389 0.25
270 3.82408 3.50748 1.50003 0.25
271 7.68814 7.83051 4.63598 0.25
272 1.63407 1.06063 2.46718 0.25
273 1.42806 3.318 6.95944 0.25
274 0.686138 5.72599 7.76078 0.25
275 4.6 4.50136 1.54552 0.25
276 2.30163 3.12729 0.947403 0.25
277 6.8631 0.755098 6.69801 0.25
278 3.74658 6.18468 1.1329 0.25
279 4.09652 0.381285 5.29892 0.5
280 8.06194 8.18295 4.90969 0.25
281 0.973988 6.56367 0.4872 0.25
282 6.26851 7.08379 6.17014 0.25
283 0.928832 0.177592 6.48465 0.25
284 7.27488 4.28237 0.705166 0.25
285 1.8113 5.99011 1.10853 0.5
286 5.44951 6.61394 3.22656 0.25
287 1.61702 8.14045 3.54617 0.5
288 2.79106 7.3477 5.03499 0.25
289 2.3691 7.38857 5.16826 0.25
290 2.03652 3.91278 1.91207 0.25
291 8.20285 7.53431 7.26445 0.25
292 7.74438 2.51057 3.39858 0.25
293 7.52183 4.41427 3.33383 0.25
294 5.82938 3.7436 3.32226 0.25
295 8.10321 4.10689 0.914546 0.25
296 0.704572 4.22236 4.61326 0.5
297 3.83803 3.13633 6.8444 0.25
298 6.21149 5.30005 7.46996 0.25
299 5.7894 5.01143 7.52283 0.25
300 6.23106 3.63711 0.577193 0.25
301 0.996778 8.09499 0.152489 0.25
302 0.0681178 4.23033 1.29498 0.25
303 3.7515 0.936737 1.25222 0.25
304 2.20751 2.34204 4.53622 0.25
305 0.617573 4.9947 8.19569 0.25
306 2.49073 1.87992 4.64794 0.25
307 1.55501 4.93651 7.58206 0.5
308 3.65338 5.81284 3.2299 0.25
309 4.27281 1.00181 5.4561 0.25
310 1.02994 4.64828 4.10711 0.25
311 7.24166 8.37088 3.92383 0.25
312 0.895703 1.02669 2.36354 0.5
313 1.17166 3.61184 5.43339 0.25
314 5.4256 3.90287 3.16581 0.25
315 1.15271 5.16994 8.18237 0.25
316 1.77856 4.34284 7.29417 0.25
317 7.52314 2.3979 3.82988 0.25
318 2.25479 2.53797 4.10314 0.25
319 4.93662 7.23825 7.92691 0.25
320 2.00302 6.24251 6.10577 0.25
321 4.12909 0.603903 1.26837 0.25
322 7.33973 6.54503 5.15978 0.25
323 0.987141 6.03005 4.21868 0.25
324 4.11429 7.34938 7.84946 0.5
325 0.833217 1.86941 0.151536 0.25
326 4.07587 4.77418 5.06883 0.5
327 7.65664 7.32795 3.38159 0.25
328 2.25503 7.76411 1.75802 0.25
329 1.36377 5.75495 3.4518 0.25
330 8.2049 7.06107 7.38337 0.25
331 0.837049 5.40297 3.86717 0.5
332 7.45233 6.47049 2.13574 0.25
333 1.12476 1.72694 2.06617 0.25
334 6.83649 1.60877 1.72238 0.25
335 3.28948 3.3001 0.875638 0.25
336 3.05789 6.97545 6.85716 0.25
337 4.26713 7.13761 3.05947 0.5
338 6.17898 7.38572 8.33771 0.25
339 2.26393 8.0142 4.00013 0.25
340 4.76081 0.532403 4.95439 0.25
341 6.75195 8.09671 3.15501 0.25
342 1.01145 5.54461 7.38944 0.25
343 2.66317 1.27153 0.135052 0.25
344 1.34794 5.46825 2.71004 0.25
345 0.448977 1.57501 2.8083 0.25
346 0.424867 2.65483 8.29918 0.25
347 3.41848 5.97039 7.79976 0.25
348 7.43908 7.78959 2.08842 0.25
349 0.632177 2.27358 8.29353 0.25
350 6.76601 1.64416 2.7209 0.25
351 1.4291 6.80665 0.466593 0.25
352 6.42374 3.53502 7.85379 0.5
353 2.36819 0.106931 7.45499 0.25
354 1.81104 0.849126 5.55041 0.25
355 0.704914 0.132314 6.0166 0.25
356 1.83508 1.82092 5.78047 0.25
357 2.86676 4.04617 6.70317 0.25
358 6.25468 3.44173 5.22859 0.25
359 4.33702 1.32723 6.47714 0.25
360 2.00219 2.06308 1.20297 0.25
361 0.820503 7.93047 0.550953 0.25
362 6.12707 3.9328 6.82356 0.25
363 7.89328 4.16598 1.94227 0.25
364 6.00669 3.71061 7.28164 0.25
365 5.58174 5.91826 0.624681 0.25
366 5.14706 6.16574 0.674218 0.25
367 2.51943 4.70565 6.98802 0.25
368 6.57562 3.00682 0.0980971 0.25
369 1.10295 6.8038 0.0588226 0.25
370 5.23777 0.565351 8.17289 0.25
371 2.35979 8.04505 4.46821 0.25
372 2.40746 4.61668 0.68913 0.25
373 7.11774 2.88503 5.10609 0.25
374 3.68564 4.3267 4.5602 0.25
375 4.77343 0.775968 8.10275 0.25
376 2.53425 5.85108 1.04008 0.25
377 6.40785 1.16871 2.12493 0.5
378 0.449589 3.89872 7.4318 0.25
379 4.65076 1.24212 8.08516 0.25
380 2.40641 6.97157 4.97566 0.25
381 4.07045 5.4333 5.57976 0.25
382 1.99499 7.24676 4.87258 0.25
383 6.34022 5.27751 4.01276 0.5
384 1.27017 1.73262 1.56645 0.25
385 6.90517 1.46704 7.04611 0.5
386 1.39575 1.17595 5.63545 0.25
387 7.4857 0.858798 0.578999 0.25
388 0.932807 5.74537 2.76801 0.25
389 4.14739 2.62257 7.40165 0.5
390 4.03017 0.562663 6.2761 0.25
391 5.41676 4.77686 2.12421 0.25
392 8.10038 2.80639 3.21165 0.25
393 2.76969 6.50663 1.47985 0.25
394 0.0411197 8.18122 0.47659 0.25
395 2.23379 1.64683 1.31277 0.25
396 4.84943 7.6948 7.88548 0.25
397 4.90286 0.611311 0.143361 0.25
398 7.28473 1.64585 8.13037 0.25
399 3.08156 4.32017 3.24767 0.25
400 4.93295 4.55722 0.719052 0.25
401 2.1133 7.17869 3.63679 0.25
402 8.1623 7.9355 7.03374 0.25
403 7.62756 6.30703 0.748413 0.25
404 7.8497 6.80451 7.14363 0.25
405 0.379073 7.78629 0.532032 0.25
406 5.51759 0.454638 4.41787 0.25
407 2.20437 1.04709 7.97109 0.5
408 5.52009 3.35939 2.40331 0.25
409 2.22509 4.93319 1.0984 0.25
410 7.50674 0.938378 8.18852 0.5
411 4.47995 5.3658 5.32947 0.25
412 8.14029 7.14243 6.91763 0.25
413 1.30331 1.68774 0.333565 0.25
414 0.523257 3.21508 7.83763 0.5
415 6.54538 4.68568 3.06138 0.25
416 2.8923 3.20054 6.56364 0.25
417 3.43968 4.64374 3.83027 0.5
418 7.29894 6.74233 4.30643 0.25
419 3.92595 3.88028 5.94575 0.25
420 1.06762 3.14269 4.60098 0.25
421 4.04365 4.9209 5.79844 0.25
422 2.25309 5.4319 1.00369 0.25
423 0.30889 0.348782 5.88084 0.25
424 0.655336 3.4274 4.73006 0.25
425 1.95107 2.74168 1.48815 0.5
426 7.22291 5.71536 5.06811 0.5
427 2.84183 1.80318 4.25723 0.25
428 3.96444 5.11583 3.49464 0.25
429 4.49009 4.60677 5.74817 0.25
430 1.8022 7.39763 3.37926 0.25
431 0.988535 3.36964 6.82115 0.25
432 1.55676 7.15359 4.13549 0.5
433 1.80206 1.70387 7.71068 0.25
434 0.74766 6.48119 0.919582 0.25
435 5.68019 3.54031 2.85628 0.25
436 1.38684 5.86571 2.99745 0.25
437 8.32649 1.10015 0.131323 0.25
438 1.01476 3.32608 5.05503 0.25
439 3.8236 2.66188 6.70296 0.25
440 4.55139 1.47079 7.60323 0.25
441 8.05535 4.16426 5.33435 0.25
442 2.42186 5.60687 1.43136 0.25
443 0.304547 2.9266 6.86086 0.5
444 2.02389 3.48271 1.62163 0.25
445 5.21569 7.1935 0.771843 0.25
446 4.26308 5.74808 3.61935 0.5
447 1.36864 2.01841 5.84384 0.25
448 5.9387 7.22404 5.73693 0.25
449 1.15404 5.49043 5.57735 0.25
450 2.7778 3.37718 0.845064 0.25
451 2.64763 6.98666 5.36648 0.25
452 2.31251 0.94654 0.317034 0.25
453 4.69706 4.34718 1.07752 0.25
454 0.143189 3.55657 7.3652 0.25
455 8.01802 5.00641 7.62825 0.25
456 3.12596 1.70717 3.89731 0.25
457 2.32365 3.94931 7.18754 0.5
458 8.32737 7.57772 6.74709 0.25
459 5.07191 7.6766 8.28914 0.25
460 5.64486 0.3592 4.86772 0.25
461 2.46059 3.45185 1.28641 0.25
462 6.28786 5.00275 3.29443 0.25
463 5.07996 7.26475 2.89115 0.25
464 7.35632 6.92631 7.21009 0.25
465 7.19005 2.65993 5.56936 0.25
466 4.26288 1.73857 2.68252 0.25
467 3.86883 6.19149 1.63459 0.25
468 6.92888 5.33619 3.04185 0.5
469 7.35149 7.47643 7.11008 0.25
470 1.09175 1.49211 8.28219 0.25
471 1.75443 1.07044 5.98862 0.25
472 1.87335 7.41525 1.87321 0.25
473 7.64114 5.14786 5.46183 0.25
474 5.16486 5.81323 5.95441 0.25
475 1.37838 1.37546 2.79625 0.25
476 7.11336 0.797923 7.21314 0.25
477 3.19122 5.40105 3.75664 0.25
478 6.15451 3.25682 7.23069 0.25
479 3.43633 7.3655 7.52418 0.25
480 5.01431 0.280098 2.2857 0.25
481 7.92588 2.0894 4.09131 0.25
482 7.2862 5.05338 4.6481 0.25
483 8.31417 5.54897 4.95695 0.25
484 2.67333 0.72353 0.0207677 0.25
485 7.83293 7.51307 6.90933 0.25
486 2.42706 6.49328 5.989 0.25
487 8.36537 7.83736 4.23691 0.25
488 4.39105 4.14329 6.0259 0.25
489 0.454576 8.27078 0.707971 0.25
490 8.2676 7.90318 1.99007 0.25
491 4.45821 2.89328 1.27774 0.25
492 2.39736 1.59767 4.18018 0.25
493 6.18844 4.45499 6.8969 0.25
494 4.75459 7.45852 2.54085 0.25
495 1.33646 5.88488 5.81608 0.25
496 3.05363 7.71714 4.79016 0.25
497 6.32093 4.35403 7.7403 0.25
498 3.39234 2.83852 4.13516 0.25
499 0.513215 5.37774 7.41389 0.25
500 3.84984 2.98572 6.38147 0.25
501 6.22576 4.0186 4.13648 0.25
502 1.71539 8.05932 7.36768 0.25
503 5.98012 4.99131 2.64963 0.5
504 7.88942 7.6821 2.18675 0.25
505 5.84397 1.24474 2.72762 0.25
506 7.31156 6.38436 4.70372 0.25
507 1.39176 0.454009 3.17385 0.25
508 0.696806 0.259565 5.5197 0.25
509 8.32383 4.86545 5.10458 0.5
510 4.68054 1.84061 5.43729 0.25
511 0.615545 0.633085 5.75778 0.25
512 0.989301 0.776291 3.0757 0.25
513 3.74588 1.10323 5.49532 0.25
514 2.07517 5.70566 6.05813 0.25
515 0.822115 7.65319 6.32297 0.25
516 7.59187 1.6924 6.12653 0.25
517 7.51784 5.51988 4.38069 0.25
518 1.08476 3.60997 4.64125 0.25
519 6.45825 1.87963 1.93117 0.25
520 6.79272 1.98255 6.49437 0.25
521 7.62222 1.69134 0.167007 0.25
522 6.54421 1.31069 7.71155 0.25
523 5.26041 6.72675 5.51671 0.25
524 2.60653 0.557483 7.55663 0.25
525 6.32378 4.09415 7.28588 0.25
526 6.90273 5.37813 6.88362 0.25
527 7.53092 8.02268 4.1542 0.25
528 7.45674 1.36983 6.47415 0.25
529 6.65111 1.18304 2.92781 0.25
530 2.29453 1.83673 6.05267 0.25
531 7.99208 8.02759 3.92466 0.25
532 1.39433 0.834862 2.86988 0.25
533 7.09137 1.38528 7.75236 0.25
534 8.06594 5.80393 1.3333 0.25
535 0.460815 3.19467 5.51514 0.5
536 6.99583 2.6478 6.05528 0.25
537 3.96201 0.807195 5.84663 0.25
538 6.79939 5.17191 4.77581 0.25
539 2.57736 1.39929 6.05211 0.25
540 8.13848 6.29997 1.96006 0.5
541 7.54926 4.02857 1.50349 0.25
542 1.97657 2.10934 7.75772 0.25
543 3.3638 7.36171 7.03074 0.25
544 7.46849 6.65619 6.8486 0.25
545 1.43722 5.89951 4.01832 0.25
546 4.7935 5.98665 6.26776 0.25
547 5.3343 2.42057 8.37359 0.25
548 6.20406 7.31682 6.57193 0.25
549 0.246244 7.74846 7.06933 0.25
550 6.18887 6.91997 0.227774 0.25
551 4.62773 1.52379 2.44954 0.25
552 3.70054 5.29495 3.87431 0.25
553 7.04083 7.65462 3.71507 0.5
554 4.30533 6.36843 3.12994 0.25
555 4.90746 6.58959 3.70205 0.5
556 7.10749 0.734772 0.85206 0.25
557 7.32796 5.01349 3.81389 0.5
558 6.56135 8.16807 3.53834 0.25
559 1.31606 0.458405 5.94124 0.5
560 5.04451 3.39626 2.3669 0.25
561 3.01957 3.07024 3.9923 0.25
562 5.24042 0.17603 5.58353 0.25
563 2.26656 6.53371 1.4969 0.25
564 5.974 6.8911 0.87923 0.5
565 6.50457 1.66516 6.37213 0.25
566 1.24122 1.78967 2.50607 0.25
567 4.33138 5.99604 6.01157 0.25
568 6.16288 1.21308 3.17624 0.25
569 2.49342 8.27666 7.9187 0.25
570 2.00291 6.81049 4.69604 0.25
571 2.92493 4.41998 7.03115 0.25
572 8.09235 2.79667 3.94711 0.5
573 4.19447 1.27188 2.49229 0.25
574 1.6336 5.88395 6.17288 0.25
575 1.94214 1.68975 8.17162 0.25
576 4.25459 5.74428 7.7918 0.25
577 5.24426 0.37957 5.13603 0.25
578 2.02407 7.61828 3.83148 0.25
579 7.51717 5.05501 7.38432 0.25
580 7.3438 0.139754 4.72623 0.5
581 4.21839 4.62593 6.15377 0.25
582 5.95194 2.97461 4.53968 0.25
583 5.83767 3.68127 4.69436 0.5
584 4.82162 6.55857 5.60299 0.25
585 4.93605 2.95923 1.4441 0.25
586 1.78642 0.319927 2.55092 0.5
587 4.82064 6.96991 2.6133 0.25
588 5.85931 5.2432 3.42585 0.25
589 8.36949 2.69809 7.58493 0.25
590 3.51115 6.44961 1.89169 0.25
591 6.43179 1.326 1.08562 0.25
592 7.538 7.08926 1.72481 0.5
593 6.79433 6.87584 1.60502 0.25
594 2.11362 4.6049 0.0293496 0.5
595 0.633981 4.02769 7.84183 0.25
596 2.06718 0.841478 0.695848 0.25
597 0.133782 0.378813 5.13262 0.5
598 2.49966 6.36968 1.06161 0.25
599 1.99909 8.28168 7.83095 0.25
600 7.91036 0.964351 5.18994 0.25
601 0.739052 0.954596 6.10672 0.25
602 3.89808 0.0918279 2.25903 0.25
603 4.29848 5.65485 8.27385 0.25
604 7.40931 5.19628 6.97679 0.25
605 7.86905 2.08231 3.5934 0.25
606 2.17544 8.18648 2.05659 0.25
607 4.48952 5.31104 7.96563 0.25
608 3.57451 7.75095 7.39458 0.25
609 6.88122 4.83643 4.41214 0.25
610 1.88014 1.34333 5.61438 0.25
611 2.90502 0.700009 7.94181 0.25
612 0.7074 7.71447 0.116204 0.25
613 6.39599 1.20341 8.20756 0.25
614 4.51148 0.97268 5.00783 0.25
615 4.87005 2.77766 3.8143 0.25
616 1.16827 5.4456 3.14114 0.25
617 1.38049 7.99172 2.33538 0.25
618 7.81651 7.31258 4.17459 0.5
619 7.97925 8.08332 4.4203 0.25
620 0.00481214 7.23572 2.43724 0.5
621 4.27298 6.34026 4.00777 0.25
622 6.16723 6.55166 6.21093 0.25
623 5.25524 6.69835 0.721064 0.25
624 1.111 2.81081 5.06479 0.25
625 1.15547 5.53546 7.87854 0.25
626 3.67778 0.528221 1.5115 0.25
627 4.88386 4.67188 1.94137 0.25
628 8.07154 3.58813 2.39941 0.5
629 6.85913 2.93749 0.526961 0.25
630 1.22532 0.0708559 3.04114 0.25
631 1.51152 1.42841 7.96993 0.25
632 7.79583 7.841 1.70719 0.25
633 6.01672 7.69782 0.748598 0.25
634 3.06649 7.66484 3.86843 0.25
635 0.794099 7.19718 0.655669 0.5
636 1.5515 2.12355 1.32861 0.25
637 5.65161 0.448793 5.37425 0.25
638 4.68424 1.32336 5.35748 0.25
639 4.66585 1.90981 0.0616263 0.25
640 5.12092 7.61365 0.446902 0.25
641 1.29081 6.65668 5.24713 0.25
642 3.49655 0.690505 5.68728 0.25
643 6.22751 6.79305 5.75626 0.25
644 5.8289 0.833492 2.97009 0.25
645 2.41837 2.14824 1.46227 0.25
646 7.87278 6.72404 6.64869 0.25
647 2.53323 2.9412 4.10045 0.25
648 5.09053 1.03742 8.28161 0.25
649 0.289781 4.30668 1.73641 0.25
650 8.28216 3.79519 1.29607 0.25
651 3.45207 3.04318 3.7028 0.25
652 7.18405 0.447922 6.84167 0.25
653 1.25965 6.55548 0.89531 0.25
654 0.914133 2.71619 8.25927 0.25
655 3.42417 3.65043 6.42984 0.5
656 0.602686 3.54399 7.16485 0.25
657 1.63345 5.51084 5.8451 0.25
658 6.76079 0.018868 3.85921 0.25
659 2.29115 1.76513 7.81677 0.25
660 7.01734 6.03906 4.10529 0.5
661 8.1455 1.26518 8.11697 0.25
662 3.9757 4.66524 4.33014 0.25
663 2.44528 3.66522 1.80697 0.25
664 6.69514 2.69879 4.85524 0.25
665 7.75483 3.76453 1.18399 0.25
666 5.96189 6.89108 6.51433 0.25
667 6.41961 3.16971 0.591512 0.25
668 7.08929 6.47213 1.85049 0.25
669 6.09872 4.95652 7.12579 0.25
670 5.44341 8.34061 4.61998 0.25
671 3.53428 4.835 4.55782 0.25
672 2.72727 3.34873 2.03397 0.25
673 0.665818 1.18013 3.03797 0.25
674 4.93429 7.26476 3.3217 0.25
675 5.53919 3.69657 5.39522 0.25
676 7.81148 8.14798 2.15103 0.25
677 6.38793 1.61554 1.50812 0.25
678 7.72341 6.34566 4.91796 0.25
679 1.05818 6.27035 1.24797 0.25
680 3.65369 6.81432 8.14273 0.25
681 7.78086 0.0701649 4.12866 0.25
682 2.4587 6.07615 1.45175 0.25
683 1.75992 7.89901 6.86017 0.25
684 0.367807 3.87024 1.526 0.25
685 2.6601 3.64247 6.55409 0.25
686 4.2739 2.88516 6.66914 0.25
687 2.36125 4.08405 0.524878 0.25
688 3.57965 0.719406 6.2144 0.25
689 6.01449 4.19215 8.15856 0.25
690 6.2174 0.965694 2.75474 0.25
691 7.10919 1.18518 1.84628 0.25
692 5.19508 5.10852 1.81574 0.25
693 7.26965 1.85725 6.43038 0.25
694 7.61577 5.15467 4.99338 0.25
695 0.151984 3.19097 6.21812 0.25
696 5.80664 5.95827 3.2887 0.5
697 4.12911 3.82142 6.34419 0.25
698 1.65727 1.19386 5.21207 0.25
699 1.53657 6.95252 4.91174 0.25
700 3.71093 5.41097 1.30617 0.25
701 4.44094 1.73644 7.97077 0.25
702 2.17686 4.43119 7.68936 0.25
703 3.39317 6.68396 7.4958 0.5
704 4.7398 4.88815 8.16856 0.25
705 4.92472 3.25879 1.84862 0.25
706 5.18958 0.160686 0.0604 0.25
707 4.58135 3.67218 1.33831 0.5
708 5.32734 7.51864 7.8841 0.25
709 2.51761 7.06257 1.94883 0.5
710 1.96954 4.58729 6.88275 0.25
711 5.15358 6.29417 3.02496 0.25
712 0.381262 5.35499 7.94339 0.25
713 2.56209 4.15126 1.90276 0.25
714 5.01589 4.05662 0.89619 0.25
715 4.69098 6.51383 2.91865 0.25
716 6.93807 0.967511 7.64166 0.25
717 7.81038 7.75137 3.53301 0.25
718 6.05726 3.47583 6.80594 0.25
719 5.86768 4.61842 7.85617 0.25
720 1.90983 7.83666 4.24599 0.25
721 6.83183 1.76736 2.22352 0.25
722 2.52359 7.71771 3.33527 0.5
723 2.45841 7.58563 2.54334 0.25
724 7.07812 6.51686 1.35594 0.25
725 7.53806 6.44904 7.32592 0.25
726 0.969153 1.03416 5.63264 0.25
727 3.94393 0.15295 1.40749 0.25
728 3.64434 6.33146 8.05087 0.25
729 5.07333 5.91508 3.35041 0.25
730 2.97962 7.203 7.28832 0.25
731 5.20336 3.522 2.85007 0.25
732 4.05048 3.64632 6.83691 0.25
733 3.77161 5.62068 7.66241 0.25
734 4.37947 0.877741 2.67988 0.25
735 3.39749 2.9831 6.60622 0.25
736 7.82166 1.61368 8.09044 0.25
737 3.29965 0.647528 1.23389 0.25
738 0.134218 7.9948 0.941801 0.25
739 4.66765 6.0827 3.15641 0.25
740 5.41367 7.13201 3.25419 0.25
741 0.569211 7.82215 1.0056 0.25
742 3.72855 4.68679 6.11109 0.25
743 7.17126 0.93177 1.36867 0.25
744 4.60876 0.507986 2.40992 0.25
745 3.52004 4.21523 5.88924 0.25
746 1.53082 6.19554 4.6946 0.5
747 4.63016 0.257079 1.92974 0.25
748 2.7652 6.71735 7.20145 0.25
749 1.49889 1.48537 2.32892 0.25
750 0.0101351 3.53794 1.73325 0.25
751 1.30245 0.872304 5.29399 0.25
752 6.26685 4.86376 7.64925 0.25
753 4.05614 0.732044 1.96685 0.5
754 4.11533 5.58438 1.02167 0.25
755 2.87633 2.79433 1.34547 0.5
756 7.72023 6.86016 7.58888 0.25
757 5.73325 6.80036 5.54058 0.25
758 6.80209 3.92026 7.27771 0.25
759 4.34136 8.13499 5.67972 0.25
760 0.131792 2.7769 3.33093 0.25
761 3.79448 7.33342 7.19394 0.25
762 0.690681 1.79183 3.52816 0.5
763 3.91327 8.0313 1.98769 0.25
764 1.38478 6.29342 0.480866 0.25
765 7.47436 4.8372 3.06614 0.25
766 0.532762 4.27292 2.18008 0.25
767 2.61801 7.02139 7.53104 0.25
768 2.21738 2.72298 4.94455 0.25
769 7.90455 3.76071 1.67701 0.25
770 4.63842 1.02075 0.154782 0.25
771 6.68073 1.24385 6.06615 0.25
772 4.79212 2.43831 7.75392 0.25
773 5.24702 1.02048 4.89806 0.5
774 4.06144 8.02099 5.32503 0.25
775 7.93689 4.49077 2.64278 0.5
776 6.96449 3.64528 0.371605 0.5
777 5.97001 6.48331 0.189685 0.25
778 4.96331 8.16994 8.21237 0.25
779 8.28089 8.36015 4.1566 0.25
780 2.32409 1.53029 5.63611 0.25
781 2.46975 1.70457 8.2862 0.25
782 1.40491 7.2212 0.163242 0.25
783 6.73464 3.13582 0.959182 0.25
784 2.12991 7.713 2.19267 0.25
785 2.34087 1.50868 6.50551 0.25
786 2.5779 7.86285 2.1201 0.25
787 7.61088 7.08851 6.82043 0.25
788 0.0121204 4.27801 2.13899 0.25
789 3.47495 7.79002 4.09025 0.25
790 6.76972 0.34815 6.4433 0.25
791 0.295826 4.73033 3.15028 0.5
792 2.22083 0.320625 7.82862 0.25
793 8.28617 6.98214 1.71621 0.25
794 5.33659 6.48709 6.19979 0.5
795 2.31937 4.11106 3.22855 0.25
796 2.25205 6.07483 5.69428 0.25
797 6.61197 6.71738 1.23065 0.25
798 7.65693 4.24399 1.0598 0.25
799 3.99922 3.36146 6.04882 0.25
800 7.95775 2.03146 3.14491 0.25
801 3.27517 7.83248 6.99951 0.25
802 3.88634 5.12913 4.35458 0.25
803 3.17878 0.00725108 7.58166 0.5
804 3.62143 6.94198 1.79278 0.25
805 1.7681 7.8897 1.98749 0.25
806 2.65569 1.75866 3.79893 0.25
807 4.71494 6.19259 5.29549 0.25
808 4.03459 2.46776 8.14533 0.25
809 1.81438 6.0092 5.74344 0.25
810 6.61443 7.44285 6.32216 0.25
811 1.7043 3.26627 4.94288 0.5
812 5.58014 7.52307 0.627761 0.25
813 4.47573 2.10787 2.93526 0.25
814 1.62628 7.60382 7.31315 0.25
815 2.83737 8.06805 4.54019 0.25
816 0.664489 2.9504 4.87812 0.25
817 4.17351 1.95921 8.36161 0.25
818 3.96315 2.00172 3.02716 0.25
819 1.95999 5.29651 1.37882 0.25
820 3.15039 3.15813 6.97725 0.25
821 1.36709 2.14245 8.11306 0.5
822 6.02641 4.42273 3.53109 0.5
823 4.7979 0.290951 8.12507 0.25
824 0.842419 0.681341 5.32822 0.25
825 3.88874 6.11833 7.67329 0.25
826 3.10017 3.71952 1.43991 0.5
827 5.79579 7.23372 6.24554 0.25
828 0.236294 2.42186 7.92496 0.25
829 0.0226467 8.23337 4.59042 0.25
830 0.933294 2.07171 2.82144 0.25
831 2.25373 3.98906 7.99304 0.25
832 5.8942 4.58226 1.96014 0.25
833 2.07215 1.44534 6.07063 0.25
834 4.17645 0.388233 2.64165 0.25
835 6.82933 1.68357 1.19097 0.25
836 3.41371 7.71125 7.84092 0.25
837 4.01592 5.31257 7.98732 0.25
838 7.56622 0.685864 1.08862 0.25
839 6.18154 7.5352 6.09857 0.25
840 6.81343 4.73665 7.20117 0.5
841 3.27003 6.85321 2.15475 0.25
842 0.234832 2.35558 2.75177 0.5
843 6.00718 3.81709 5.38072 0.25
844 4.86085 2.32749 8.27444 0.25
845 7.58302 2.65643 5.19948 0.25
846 3.59233 3.45589 7.42956 0.5
847 2.20515 5.07923 0.634464 0.25
848 1.93079 6.01843 5.29578 0.25
849 5.16341 7.72947 2.65465 0.25
850 6.47743 2.81429 5.56089 0.5
851 5.51824 8.32571 5.20523 0.25
852 6.73462 1.57488 8.09232 0.25
853 4.43074 7.72646 5.48109 0.25
854 4.13414 1.61227 5.84137 0.5
855 0.452209 3.93243 5.34598 0.25
856 0.642775 5.41895 3.12297 0.25
857 3.61732 6.53309 1.43011 0.25
858 2.65817 4.66996 3.8376 0.25
859 6.64399 4.64661 4.00381 0.25
860 7.64337 3.8937 0.696294 0.25
861 4.74583 2.95764 7.74293 0.25
862 6.68104 4.81964 3.55788 0.25
863 5.78505 6.00759 0.174 0.25
864 7.74654 6.85372 2.40543 0.25
865 3.82024 5.80156 8.08632 0.25
866 5.09855 8.09659 2.96378 0.25
867 1.84196 4.1909 7.77381 0.25
868 2.09561 1.65727 0.553949 0.5
869 0.979383 3.16935 7.26872 0.25
870 6.27293 5.49441 3.20532 0.25
871 2.90184 7.48354 6.95207 0.25
872 5.95193 3.07693 5.08659 0.25
873 -0.0174053 0.0912006 0.903015 0.25
874 3.94597 1.08563 6.29789 0.25
875 2.16214 4.15454 1.26279 0.5
876 1.53032 5.73434 5.36798 0.25
877 8.26922 5.39422 7.81901 0.25
878 5.79287 0.82762 2.46438 0.25
879 3.33193 8.07813 4.53251 0.25
880 6.46501 5.93586 3.06106 0.25
881 7.6551 1.10773 1.37325 0.25
882 7.76228 7.21654 7.26975 0.25
883 0.283643 3.85332 2.03056 0.25
884 7.21623 3.05739 0.817565 0.25
885 0.919454 4.09817 5.31152 0.25
886 8.06575 7.47971 3.11813 0.25
887 1.00515 6.75509 1.25151 0.25
888 0.949932 4.61072 3.59427 0.25
889 1.46351 8.03906 2.79216 0.25
890 0.265162 4.66482 2.3663 0.25
891 0.926547 2.26763 7.48204 0.25
892 7.49397 3.46106 0.876903 0.25
893 1.1745 7.6581 0.318115 0.25
894 3.97357 5.83254 1.37451 0.25
895 3.67799 5.75294 0.901891 0.25
896 1.61376 1.41005 0.0731031 0.25
897 7.99538 4.17167 1.40509 0.25
898 0.562747 4.65094 3.92686 0.25
899 0.981065 8.13516 6.21352 0.25
900 5.16848 6.18588 5.60198 0.25
901 0.932564 1.56511 2.8377 0.25
902 7.2903 3.89701 1.05834 0.25
903 5.89941 3.72359 3.9013 0.25
904 6.77961 4.16293 7.66128 0.25
905 5.12522 1.17224 5.53717 0.25