ITEM: TIMESTEP
670000
ITEM: NUMBER OF ATOMS
1000
ITEM: BOX BOUNDS xy xz yz pp pp pp
0.0000000000000000e+00 8.3788359999999997e+00 0.0000000000000000e+00
0.0000000000000000e+00 8.3788359999999997e+00 0.0000000000000000e+00
0.0000000000000000e+00 8.3788359999999997e+00 0.0000000000000000e+00
ITEM: ATOMS id x y z radius
1 2.85948 6.95907 4.89345 0.25
2 4.74191 5.13482 5.14951 0.25
3 7.01586 4.49315 3.30578 0.25
4 7.3043 1.05585 5.83767 0.5
5 0.958482 5.85886 6.25765 0.25
6 8.16641 1.76555 3.55764 0.25
7 4.2958 3.38558 6.49321 0.25
8 4.8827 7.7765 2.9186 0.25
9 0.74261 6.07098 3.72102 0.25
10 4.10873 1.54267 3.39397 0.25
11 5.3653 0.193866 7.8607 0.25
12 5.16387 3.4778 1.49997 0.25
13 0.64194 2.37443 7.42604 0.25
14 3.70926 2.75864 7.02134 0.25
15 8.33818 2.78312 5.85057 0.25
16 7.45332 0.938499 6.58941 0.25
17 0.880273 5.20773 8.3537 0.25
18 6.12161 7.52669 8.06871 0.25
19 4.50373 1.8981 7.51989 0.25
20 7.81241 1.28961 0.60988 0.25
21 4.86399 4.22088 1.77146 0.25
22 4.33016 3.22127 1.25227 0.25
23 2.17763 3.48281 2.05207 0.25
24 2.76328 1.97846 4.56882 0.25
25 2.78314 4.4799 2.93959 0.25
26 0.41018 0.0164059 5.80941 0.25
27 3.9001 0.339938 5.6878 0.25
28 4.02776 2.38208 7.96478 0.25
29 5.09784 6.89244 2.93933 0.25
30 7.46309 7.25373 2.37806 0.25
31 2.70123 0.400927 8.00187 0.25
32 0.99999 2.69047 7.3496 0.25
33 7.74064 0.0986132 5.18748 0.25
34 2.07954 5.49496 1.53625 0.25
35 7.92941 0.0623475 4.51212 0.25
36 6.75261 2.00739 5.8934 0.5
37 4.59044 1.23723 1.91798 0.25
38 2.14733 3.46368 4.30805 0.25
39 5.98614 2.56733 4.82823 0.25
40 5.39747 7.6645 2.97234 0.25
41 6.62849 2.26363 2.82564 0.25
42 5.58599 6.11827 5.67699 0.25
43 3.41561 7.76971 4.78388 0.25
44 3.78715 8.3049 5.36558 0.25
45 5.58332 4.05592 4.04202 0.25
46 3.22908 6.1134 1.42289 0.5
47 4.98713 0.872487 5.50069 0.25
48 8.10004 6.24693 6.90422 0.25
49 7.31503 6.74372 4.76765 0.25
50 7.92292 1.09908 1.09987 0.25
51 2.62413 3.45111 4.34922 0.25
52 0.626212 1.59999 2.41405 0.25
53 6.46596 5.06233 6.96386 0.25
54 5.78029 3.23324 4.04634 0.25
55 1.6179 1.11569 5.86532 0.25
56 1.22672 7.1998 0.202034 0.25
57 4.72915 0.816332 1.90141 0.25
58 2.22429 2.19877 4.0348 0.25
59 4.67077 0.985339 6.42261 0.25
60 7.80534 5.55047 5.34568 0.25
61 5.01031 8.17029 8.13444 0.25
62 5.12969 2.04238 8.35029 0.5
63 7.51246 6.50551 1.10298 0.25
64 1.07105 6.32038 1.43762 0.25
65 4.22323 0.168319 1.73526 0.25
66 2.26184 4.78531 7.30967 0.25
67 8.29716 4.96287 7.32754 0.25
68 7.11899 0.593494 6.46589 0.25
69 0.418131 5.49913 7.70141 0.25
70 1.87662 4.87582 1.02536 0.25
71 8.08446 1.26785 0.230574 0.25
72 6.47751 6.21908 3.36345 0.25
73 0.606084 7.47904 6.8726 0.25
74 7.43918 5.5498 6.87201 0.25
75 7.11311 8.31301 3.3377 0.25
76 7.47815 6.46067 4.38656 0.25
77 5.51049 2.83692 5.36671 0.25
78 5.43511 3.85216 1.16798 0.25
79 7.4657 5.05609 4.71901 0.25
80 5.70425 3.29587 5.44535 0.25
81 7.1326 1.37018 1.10994 0.25
82 0.433444 2.75596 6.07904 0.25
83 4.37565 5.86847 5.60633 0.25
84 1.09367 1.132 5.87637 0.25
85 1.36084 1.03558 5.0912 0.25
86 4.65978 8.36496 5.29104 0.25
87 1.59798 2.15556 0.858318 0.25
88 3.31169 6.83886 1.59204 0.25
89 6.93214 7.23739 0.772978 0.25
90 5.48354 6.53785 5.45693 0.25
91 3.99309 4.26335 6.232 0.25
92 6.19923 4.56659 7.5851 0.25
93 4.96177 6.62583 5.30096 0.25
94 6.76091 0.271771 3.99696 0.25
95 0.355289 4.50689 7.65392 0.5
96 5.29353 3.12101 3.44498 0.5
97 4.20115 5.03659 8.23611 0.25
98 8.28462 2.22801 3.52089 0.25
99 1.51644 6.34913 5.86081 0.25
100 7.01009 6.81403 0.990649 0.25
101 0.810061 7.6587 8.21295 0.25
102 7.82028 4.55458 3.57318 0.25
103 6.68967 1.14564 1.39193 0.25
104 1.12827 4.73778 7.48576 0.25
105 5.05367 5.81933 5.20331 0.5
106 5.23853 0.565443 4.44053 0.25
107 4.35747 3.37091 7.00677 0.25
108 4.6432 1.40297 8.25642 0.25
109 0.684599 0.813991 5.80362 0.25
110 2.24744 7.92447 8.26874 0.25
111 3.17964 3.83748 6.90847 0.25
112 4.4455 2.11364 7.91767 0.25
113 1.592 2.09111 1.92203 0.5
114 1.80105 3.55081 7.26188 0.25
115 4.64883 6.35521 6.24904 0.25
116 2.45989 7.08465 7.05106 0.25
117 4.12861 2.12579 3.77233 0.5
118 6.71877 7.19406 1.19686 0.25
119 0.855334 6.29864 3.30669 0.25
120 -0.00518303 2.637 2.39843 0.25
121 3.14054 4.13216 3.54122 0.25
122 6.69068 0.783744 6.29066 0.25
123 5.32081 0.468744 5.46631 0.25
124 7.98959 8.02687 2.41011 0.25
125 3.41217 2.05763 3.89983 0.25
126 3.59769 1.09126 5.87826 0.25
127 5.24491 3.95788 1.62012 0.25
128 6.72336 5.32587 7.28927 0.25
129 0.965034 6.42527 4.1358 0.25
130 5.94708 6.25561 0.765924 0.25
131 6.92973 1.53259 6.40262 0.25
132 6.07252 4.11976 7.78695 0.25
133 3.03758 1.79955 3.64537 0.25
134 4.30087 2.79725 8.14488 0.25
135 5.38179 3.82693 3.59052 0.25
136 2.90435 2.53766 3.69188 0.5
137 2.91203 4.05618 3.08008 0.25
138 7.48017 7.78358 2.90172 0.5
139 2.45761 7.83232 5.07756 0.25
140 5.20923 7.74718 7.92658 0.25
141 7.78132 5.94158 4.99505 0.25
142 1.14572 5.03477 3.19093 0.25
143 2.28876 2.12136 0.117429 0.25
144 5.10263 1.26632 2.50762 0.5
145 7.38673 1.91567 4.02518 0.25
146 6.12715 7.44554 0.145253 0.25
147 6.55682 5.62815 4.53197 0.25
148 2.28233 3.12786 4.56794 0.25
149 4.54861 8.24625 2.45085 0.5
150 4.85013 2.93496 4.14905 0.25
151 3.51784 5.87908 7.1115 0.25
152 3.62558 4.72372 5.6777 0.25
153 6.78584 6.00085 2.27845 0.5
154 7.2365 2.34186 4.64361 0.5
155 2.98048 7.19569 7.73874 0.25
156 7.57511 3.4654 1.55844 0.25
157 7.7162 5.82492 1.50617 0.25
158 2.63292 3.75059 0.854674 0.25
159 7.07437 7.75314 4.40319 0.25
160 6.33948 1.8936 3.0576 0.25
161 0.896241 5.19593 2.78393 0.25
162 5.87785 4.34705 7.35711 0.25
163 3.29775 3.77976 4.23475 0.5
164 2.65752 3.97927 2.37331 0.5
165 5.51698 8.11198 7.6731 0.25
166 0.1489 3.82232 7.9346 0.25
167 6.79474 4.01977 8.2629 0.25
168 4.80443 6.06663 5.90121 0.25
169 4.02837 4.46382 5.78658 0.25
170 8.32629 2.67446 6.29681 0.25
171 7.78142 5.73722 1.00815 0.25
172 1.14082 2.90362 6.85565 0.25
173 4.31783 6.34107 5.85279 0.25
174 2.38691 2.07144 1.20231 0.25
175 7.59806 2.4868 5.98711 0.5
176 2.274 5.78891 6.23089 0.25
177 5.34851 3.56189 4.03071 0.25
178 3.12008 6.63837 1.96376 0.25
179 3.42887 1.98309 3.41653 0.25
180 5.91245 6.50484 5.74835 0.25
181 6.5657 4.24667 6.92993 0.25
182 3.32943 5.32062 3.27032 0.25
183 8.03478 7.57416 1.68779 0.25
184 3.74762 5.32099 8.27434 0.25
185 5.84247 6.91114 6.08254 0.25
186 7.47477 5.95619 4.53241 0.25
187 2.90831 5.14204 4.01791 0.25
188 0.758526 5.81666 3.30587 0.25
189 4.24747 6.74603 3.59136 0.25
190 4.02205 3.60881 1.39723 0.25
191 7.16623 1.75321 0.567242 0.5
192 0.970146 4.90505 7.9435 0.25
193 4.02647 5.46322 1.0606 0.25
194 2.69707 6.43455 1.96937 0.25
195 6.25188 5.58037 2.69228 0.25
196 2.21457 8.08317 2.69383 0.25
197 1.25135 0.347404 2.2407 0.25
198 7.77772 4.83875 7.33348 0.25
199 1.15958 1.37451 3.21415 0.25
200 4.65318 5.33707 1.46768 0.5
201 6.60707 1.45839 3.14151 0.25
202 8.26248 3.79799 5.38189 0.25
203 3.57799 1.5965 3.65247 0.25
204 5.72637 8.12735 0.0385978 0.5
205 2.4211 7.38178 4.39306 0.5
206 0.358315 4.47084 5.25041 0.25
207 5.63778 2.74613 4.06677 0.25
208 6.88275 5.33036 4.44053 0.25
209 5.47554 7.15247 8.37537 0.5
210 1.83426 8.1515 3.02402 0.25
211 0.654361 3.77672 4.99959 0.25
212 1.49425 7.91545 0.0165266 0.5
213 0.180854 4.0505 2.7632 0.25
214 1.78374 8.07505 2.51192 0.25
215 2.85738 4.32196 3.91782 0.25
216 6.28712 1.92671 2.57051 0.25
217 4.87871 3.69169 1.81104 0.25
218 2.37464 3.46874 4.80722 0.25
219 4.41001 1.14321 2.74527 0.25
220 3.56056 3.3518 0.88082 0.25
221 4.24286 8.28256 5.54238 0.25
222 7.31756 0.461834 5.21482 0.25
223 8.0043 2.66917 2.66015 0.25
224 7.24149 5.43865 7.31009 0.25
225 7.26494 2.25376 5.40538 0.25
226 4.87816 2.18116 7.65804 0.25
227 6.40656 3.79407 7.06722 0.25
228 5.35202 3.10644 4.23182 0.25
229 5.75777 5.05369 1.86541 0.25
230 0.583947 8.10473 6.47956 0.5
231 5.33718 4.64374 1.33694 0.5
232 1.9464 2.96945 4.28443 0.25
233 3.84315 5.25835 4.38505 0.25
234 6.54041 1.13875 6.59528 0.25
235 3.09311 7.36044 4.71637 0.25
236 0.939849 2.47296 7.82519 0.25
237 8.29907 2.95673 7.41906 0.25
238 3.37595 0.856525 1.26899 0.25
239 0.302901 2.36068 3.83214 0.25
240 6.66246 6.29321 1.56184 0.25
241 3.44165 7.08669 7.94762 0.25
242 1.73724 7.43104 2.78313 0.5
243 3.01965 4.84157 3.25923 0.25
244 7.15297 3.44555 1.27515 0.25
245 2.07887 1.23916 5.8413 0.25
246 7.54008 8.13702 3.57422 0.25
247 3.56089 2.41565 3.52308 0.25
248 3.85399 3.1567 1.21865 0.25
249 0.287942 5.2772 7.32716 0.25
250 1.34719 3.76519 5.42703 0.25
251 5.23023 2.59312 4.76988 0.5
252 3.17342 2.1737 4.29174 0.25
253 7.99759 5.61253 7.36243 0.5
254 7.36436 5.91115 7.18884 0.25
255 4.66923 0.423618 5.85402 0.5
256 5.92216 6.18124 0.313299 0.25
257 1.11414 0.176101 2.64513 0.25
258 1.5411 1.85533 2.61744 0.25
259 4.47168 3.43922 1.67207 0.25
260 7.88985 6.19063 1.20014 0.25
261 3.85631 8.38191 1.3469 0.25
262 3.497 2.46886 4.15976 0.25
263 2.3002 0.244597 0.220115 0.5
264 2.80616 4.43257 3.41108 0.25
265 1.20711 3.94471 7.39983 0.5
266 0.830208 7.82499 7.51913 0.5
267 5.071 2.65339 7.78984 0.25
268 6.42332 7.80753 0.0597019 0.25
269 2.00933 5.62995 0.699221 0.25
270 4.08165 3.52619 0.919378 0.25
271 7.47801 7.7786 4.77276 0.25
272 1.65222 1.0962 2.56095 0.25
273 1.45873 3.3 7.04248 0.25
274 0.912993 5.43236 7.90996 0.25
275 4.57529 4.57934 1.52124 0.25
276 2.67342 3.24652 1.03941 0.25
277 6.76012 0.708203 6.78503 0.25
278 3.96968 6.29467 1.24027 0.25
279 4.15606 0.471457 5.0725 0.5
280 7.83383 8.10562 4.88297 0.25
281 0.726525 6.42843 1.14792 0.25
282 6.22079 7.15033 6.2194 0.25
283 1.21856 0.162544 6.17799 0.25
284 7.29283 4.33518 1.13705 0.25
285 1.86098 6.19527 1.29341 0.5
286 5.53252 6.62362 3.10438 0.25
287 1.3782 7.85951 3.55348 0.5
288 2.75439 7.39766 5.06873 0.25
289 2.42939 7.0204 5.11297 0.25
290 2.06948 3.90749 1.87333 0.25
291 8.23688 7.52719 7.11774 0.25
292 7.64826 2.49412 3.43107 0.25
293 7.45719 4.27553 3.45311 0.25
294 5.35483 3.85 3.07186 0.25
295 8.14919 4.24195 1.18891 0.25
296 0.562792 4.27331 4.52692 0.5
297 3.94547 3.11853 6.77053 0.25
298 6.34493 5.04142 7.44153 0.25
299 5.95185 4.95392 7.78542 0.25
300 6.44943 3.43914 0.620621 0.25
301 1.20439 7.33659 8.08729 0.25
302 0.158719 4.2434 1.55733 0.25
303 3.83514 0.788746 1.07535 0.25
304 2.08358 2.69173 4.67578 0.25
305 0.637853 4.79967 8.33521 0.25
306 2.28926 2.21001 4.54018 0.25
307 1.75746 4.61825 7.87601 0.5
308 3.59807 5.74011 3.22849 0.25
309 4.4725 1.04384 5.50809 0.25
310 0.422303 4.8321 3.94914 0.25
311 7.234 0.056071 3.83435 0.25
312 0.962246 0.915421 2.50362 0.5
313 0.865842 3.83488 5.45503 0.25
314 5.23385 3.45656 2.74805 0.25
315 1.12998 4.78833 8.31704 0.25
316 1.94651 4.3902 7.16501 0.25
317 7.4594 2.37831 3.89584 0.25
318 2.30704 2.63083 4.26436 0.25
319 4.83131 7.35919 7.98687 0.25
320 1.94138 6.1326 6.09542 0.25
321 4.33297 0.749502 1.115 0.25
322 7.05765 6.42085 5.10915 0.25
323 0.806448 5.96916 4.20734 0.25
324 4.1167 7.28031 7.7423 0.5
325 0.942386 1.76264 0.145563 0.25
326 4.04844 4.83746 5.06884 0.5
327 7.54137 7.27474 3.47155 0.25
328 2.24762 7.89653 1.90097 0.25
329 1.17742 5.93998 3.49817 0.25
330 8.25716 7.0859 7.33245 0.25
331 0.947572 5.35276 3.89684 0.5
332 7.42607 6.44703 2.05112 0.25
333 0.974182 1.51692 2.03413 0.25
334 6.80887 1.61978 1.32077 0.25
335 3.10723 3.08685 1.02715 0.25
336 2.91619 6.99995 6.79706 0.25
337 4.3304 7.28339 2.9755 0.5
338 6.55516 7.33423 8.33399 0.25
339 1.92337 7.89263 4.0548 0.25
340 4.87093 0.663518 4.76063 0.25
341 6.60368 0.0351692 3.2141 0.25
342 1.22783 5.20891 7.62943 0.25
343 2.78985 1.30827 0.35471 0.25
344 1.21429 5.60615 2.70294 0.25
345 0.408721 1.35357 2.83654 0.25
346 0.531104 2.32232 7.97626 0.25
347 3.377 5.8717 7.58355 0.25
348 7.22667 7.68662 2.12235 0.25
349 0.839743 2.11846 8.22912 0.25
350 6.71355 1.74026 2.75354 0.25
351 1.33752 6.92025 0.613221 0.25
352 6.48024 3.52132 7.81702 0.5
353 2.40153 8.37958 7.53644 0.25
354 1.98672 0.735698 5.88642 0.25
355 0.754752 0.38457 6.03817 0.25
356 1.65998 1.8521 6.0383 0.25
357 2.87022 3.84392 6.50889 0.25
358 6.15203 3.36098 5.22521 0.25
359 4.2263 0.77716 6.33849 0.25
360 1.91962 2.11719 1.22024 0.25
361 0.88366 7.5338 0.335831 0.25
362 6.06216 4.15768 6.97582 0.25
363 7.97261 4.02982 2.10327 0.25
364 5.9964 3.83155 7.35678 0.25
365 5.48595 6.16459 0.488472 0.25
366 5.26077 6.64562 0.510623 0.25
367 2.88283 4.2575 6.86522 0.25
368 7.00388 3.52698 8.34418 0.25
369 1.03447 6.4176 0.644204 0.25
370 5.50459 0.51957 8.20468 0.25
371 2.42263 8.07662 4.66712 0.25
372 2.10521 4.63289 0.653504 0.25
373 6.91499 2.82384 5.12581 0.25
374 3.74969 4.41649 4.43927 0.25
375 5.32391 0.991899 8.09416 0.25
376 2.57667 6.02061 1.10584 0.25
377 6.50476 1.49266 2.02056 0.5
378 0.412248 3.80329 7.51089 0.25
379 5.07318 1.38749 7.9839 0.25
380 2.47029 6.66637 4.75969 0.25
381 4.02584 5.46345 5.55614 0.25
382 2.05106 6.9092 4.83583 0.25
383 6.28848 5.26398 3.92962 0.5
384 1.60246 1.75246 1.16739 0.25
385 7.02519 1.3867 7.14959 0.5
386 1.3434 1.27826 5.49225 0.25
387 7.77069 0.80977 0.707036 0.25
388 0.70552 5.63759 2.85502 0.25
389 4.38005 2.67336 7.37353 0.5
390 3.97979 0.416192 6.19832 0.25
391 5.40472 4.81248 2.10519 0.25
392 8.05973 2.54512 3.18932 0.25
393 2.83444 6.71679 1.571 0.25
394 0.850493 8.17237 8.20273 0.25
395 2.03378 1.72605 1.43988 0.25
396 4.69908 7.79175 7.9338 0.25
397 5.07506 0.710315 0.00427019 0.25
398 7.38474 1.59145 8.21558 0.25
399 3.25483 4.40262 3.12437 0.25
400 4.94328 4.55997 0.673046 0.25
401 2.18902 7.09055 3.70221 0.25
402 8.25753 7.96061 6.8086 0.25
403 7.73044 6.16417 0.750425 0.25
404 8.01351 6.7331 7.0254 0.25
405 0.431958 7.57183 0.162869 0.25
406 5.41453 0.187901 4.10068 0.25
407 2.4622 1.07601 8.05516 0.5
408 5.59845 3.41617 2.3559 0.25
409 2.27103 5.10823 1.2611 0.25
410 7.40868 0.949513 0.107193 0.5
411 4.39686 5.51131 5.23586 0.25
412 8.30491 7.11207 6.86097 0.25
413 1.45219 1.63274 0.344059 0.25
414 0.537968 3.10836 7.82165 0.5
415 6.53255 4.55948 3.06559 0.25
416 3.09006 2.99268 6.48244 0.25
417 3.46384 4.77986 3.8055 0.5
418 7.02215 6.6835 4.30608 0.25
419 4.00893 3.96634 5.86117 0.25
420 0.832629 3.20871 4.84217 0.25
421 4.08154 4.97114 5.76146 0.25
422 2.34831 5.58091 1.09763 0.25
423 0.276632 0.508904 5.77805 0.25
424 0.473564 3.51409 4.69664 0.25
425 2.02053 2.78883 1.13571 0.5
426 7.08419 5.64743 5.05796 0.5
427 2.64112 2.23501 4.22896 0.25
428 4.06443 5.19162 3.9064 0.25
429 4.47242 4.65732 5.68226 0.25
430 1.76341 7.22143 3.4831 0.25
431 1.02205 3.40253 6.85124 0.25
432 1.55947 6.86705 4.13423 0.5
433 2.1224 1.65655 7.74141 0.25
434 0.910943 6.81247 1.38041 0.25
435 5.69963 3.55606 2.84447 0.25
436 1.06587 5.98499 2.99715 0.25
437 0.143622 1.05314 0.264894 0.25
438 1.03322 3.50219 5.1256 0.25
439 4.05846 2.62127 6.67561 0.25
440 5.06031 1.75198 7.59175 0.25
441 7.94409 4.11432 5.23569 0.25
442 2.53513 5.7442 1.51511 0.25
443 0.408367 2.81927 6.85807 0.5
444 2.07503 3.48516 1.56482 0.25
445 5.58357 7.04444 0.65975 0.25
446 4.24892 5.9545 3.63591 0.5
447 1.35171 1.52148 5.92166 0.25
448 5.90877 7.34576 5.87721 0.25
449 0.842902 5.57544 5.81812 0.25
450 3.08157 3.60016 0.902867 0.25
451 2.76773 6.61355 5.20751 0.25
452 2.45576 0.934171 0.432168 0.25
453 4.67322 4.66315 1.07634 0.25
454 0.158462 3.38888 7.25936 0.25
455 8.0388 4.93468 7.74565 0.25
456 2.92668 1.82658 4.11898 0.25
457 2.52098 3.70186 7.15977 0.5
458 0.100327 7.53964 6.71239 0.25
459 5.05123 7.73459 8.36501 0.25
460 5.57819 0.239363 4.59609 0.25
461 2.73577 3.67716 1.30428 0.25
462 6.28666 4.9196 3.31648 0.25
463 5.05474 7.33768 2.76308 0.25
464 7.5101 6.82222 7.03245 0.25
465 6.98837 2.6544 5.58547 0.25
466 4.0491 1.5028 2.79979 0.25
467 3.93161 6.21156 1.73071 0.25
468 6.92425 5.20318 3.03716 0.5
469 7.50053 7.25207 6.7157 0.25
470 1.30684 1.3447 8.31418 0.25
471 2.02644 1.00637 6.2547 0.25
472 1.94573 7.44551 2.00569 0.25
473 7.46846 5.19583 5.52705 0.25
474 5.24107 5.91007 5.94217 0.25
475 1.38213 1.43359 2.8094 0.25
476 7.10768 0.85778 7.7653 0.25
477 3.28589 5.44115 3.7924 0.25
478 6.14498 3.38995 7.15512 0.25
479 3.38644 7.27784 7.48088 0.25
480 4.74839 0.282947 1.87195 0.25
481 7.82714 2.14336 4.20563 0.25
482 6.97852 4.97583 4.75421 0.25
483 8.17943 5.58197 4.93919 0.25
484 2.99919 0.126612 8.26144 0.25
485 7.9522 7.51423 6.6972 0.25
486 2.43832 6.08769 5.92684 0.25
487 8.16676 7.69675 4.28584 0.25
488 4.41452 4.22707 5.98381 0.25
489 0.745388 8.02399 0.275 0.25
490 8.03882 7.98172 1.97293 0.25
491 4.51662 2.94441 1.665 0.25
492 2.4074 1.79327 4.28533 0.25
493 6.28575 4.59486 7.1357 0.25
494 4.75298 7.485 2.45942 0.25
495 1.14176 6.01844 5.84538 0.25
496 2.90953 7.83317 4.81717 0.25
497 6.53467 4.32992 7.89789 0.25
498 3.36418 3.00183 4.12078 0.25
499 0.745814 5.15895 7.56241 0.25
500 4.08962 3.01201 6.27686 0.25
501 5.75509 3.62518 3.83508 0.25
502 1.57988 7.94234 7.60886 0.25
503 5.93838 4.8922 2.61749 0.5
504 7.73096 7.62842 2.16528 0.25
505 5.88894 1.57113 2.47005 0.25
506 7.04994 6.29711 4.62916 0.25
507 1.18552 0.488679 3.0297 0.25
508 0.745265 8.31518 5.40835 0.25
509 8.03563 4.84959 5.10715 0.5
510 5.00187 1.5551 5.95933 0.25
511 0.668281 0.381729 5.58687 0.25
512 1.10519 0.869412 3.32594 0.25
513 3.95441 1.10563 5.45329 0.25
514 1.78224 5.65024 6.10793 0.25
515 1.10494 7.64311 6.88086 0.25
516 7.38498 1.77307 6.12928 0.25
517 7.37164 5.44512 4.39991 0.25
518 0.991942 3.64864 4.64114 0.25
519 6.54249 2.00668 1.46892 0.25
520 6.77633 1.98007 6.7027 0.25
521 7.80636 1.63709 0.175373 0.25
522 6.66767 1.43818 7.81939 0.25
523 5.17824 6.8641 5.6492 0.25
524 2.56997 0.514277 7.54036 0.25
525 6.38797 4.16685 7.40841 0.25
526 6.9765 5.26297 6.93063 0.25
527 7.41231 7.98855 4.03462 0.25
528 7.42082 1.45135 6.48152 0.25
529 6.643 1.21384 2.68198 0.25
530 2.03726 1.77465 6.44285 0.25
531 7.87379 7.86929 3.89063 0.25
532 1.47086 0.965619 3.02339 0.25
533 7.15808 1.3093 7.92786 0.25
534 8.17972 5.85565 1.35536 0.25
535 0.405766 3.20876 5.45364 0.5
536 6.86479 2.67378 6.05557 0.25
537 4.02132 0.799255 5.84451 0.25
538 6.53699 5.18511 4.73586 0.25
539 2.3295 1.39789 6.28118 0.25
540 8.17582 6.38636 1.89864 0.5
541 7.63026 3.9329 1.77592 0.25
542 2.26886 2.15654 7.97463 0.25
543 3.2848 7.32492 7.02456 0.25
544 7.71987 6.54599 6.69768 0.25
545 1.21339 6.05685 3.97196 0.25
546 4.90905 5.8831 6.3433 0.25
547 5.14399 2.80595 8.27285 0.25
548 6.13636 7.34526 6.6752 0.25
549 0.261507 7.81236 7.08441 0.25
550 6.18005 7.04313 8.23923 0.25
551 4.52129 1.68009 2.63123 0.25
552 3.69982 5.496 4.00612 0.25
553 6.69219 7.96376 3.77152 0.5
554 4.32565 6.52022 3.19493 0.25
555 4.97769 6.74002 3.6065 0.5
556 7.31222 0.630291 0.820059 0.25
557 7.21063 4.7988 3.99673 0.5
558 6.43525 0.255323 3.67609 0.25
559 1.33037 0.511061 5.55108 0.5
560 5.13118 3.2799 2.30869 0.25
561 2.95206 3.18771 4.07439 0.25
562 5.16717 0.0560189 5.28035 0.25
563 2.32647 6.67452 1.61249 0.25
564 6.30347 6.91006 0.634147 0.5
565 6.48246 1.6015 6.49816 0.25
566 1.0939 1.75699 2.50066 0.25
567 4.43639 5.88264 6.15029 0.25
568 5.78888 1.21447 2.754 0.25
569 2.57629 8.28473 7.98162 0.25
570 2.05098 6.4713 4.57017 0.25
571 3.09105 4.10308 7.28383 0.25
572 8.10931 2.78468 3.89857 0.5
573 4.31123 1.37685 2.29728 0.25
574 1.4498 6.0141 6.2037 0.25
575 2.12232 1.75809 8.23193 0.25
576 4.20888 5.60788 7.61439 0.25
577 5.28298 0.39776 4.95733 0.25
578 1.90763 7.43513 3.86291 0.25
579 7.51859 5.1278 7.61766 0.25
580 7.16063 0.0133484 4.62854 0.5
581 4.27852 4.67514 6.1417 0.25
582 5.79942 2.94713 4.53248 0.25
583 5.70632 3.67961 4.67847 0.5
584 4.75737 6.58847 5.81678 0.25
585 4.82372 3.18564 1.33483 0.25
586 1.82347 0.388199 2.64099 0.5
587 4.81767 6.95603 2.53261 0.25
588 5.84453 5.15735 3.32846 0.25
589 0.180476 2.52152 7.48256 0.25
590 3.59767 6.57193 1.91867 0.25
591 6.6379 1.34393 0.946356 0.25
592 7.4169 7.10892 1.62194 0.5
593 6.74971 6.76819 1.434 0.25
594 1.48896 5.10772 0.459773 0.5
595 0.609701 3.84243 7.93162 0.25
596 2.13505 0.840769 0.762332 0.25
597 0.0620579 0.226844 5.10391 0.5
598 2.61785 6.52989 1.17276 0.25
599 2.06894 8.23328 7.92135 0.25
600 7.76012 0.564703 5.38042 0.25
601 0.551229 0.743218 5.33342 0.25
602 3.92414 0.203801 2.16974 0.25
603 4.16267 5.54837 8.13483 0.25
604 7.49379 5.11705 7.0701 0.25
605 7.83128 2.10787 3.73669 0.25
606 2.1415 8.25019 2.21476 0.25
607 4.45883 5.25506 7.87403 0.25
608 3.57599 7.66028 7.34 0.25
609 6.61549 4.86311 4.41279 0.25
610 1.74802 1.52966 5.66041 0.25
611 3.01965 0.683098 7.71264 0.25
612 0.793038 7.22403 8.35196 0.25
613 6.88454 1.45627 8.29201 0.25
614 4.74251 0.943628 5.13152 0.25
615 4.73897 2.66269 3.70554 0.25
616 1.09834 5.51088 3.17405 0.25
617 1.35659 8.24102 2.28268 0.25
618 7.55646 7.23162 4.23521 0.5
619 7.74522 7.97347 4.41185 0.25
620 8.23578 7.31284 2.37905 0.5
621 4.36489 6.6484 4.03113 0.25
622 6.16766 6.59725 6.19652 0.25
623 5.57294 6.56243 0.906562 0.25
624 1.13532 3.34993 5.52641 0.25
625 1.3272 5.20018 8.10753 0.25
626 3.58052 0.423514 1.30949 0.25
627 4.97114 4.68585 1.93034 0.25
628 8.29373 3.3687 2.46075 0.5
629 7.15612 3.1659 0.313036 0.25
630 1.37395 0.0682609 3.13451 0.25
631 1.78079 1.42796 7.98027 0.25
632 7.613 7.82929 1.74776 0.25
633 6.19594 7.73186 0.550115 0.25
634 2.89714 7.83441 3.95784 0.25
635 0.628975 7.0362 0.69509 0.5
636 1.4296 2.27659 1.276 0.25
637 5.67211 0.270349 5.1521 0.25
638 4.86058 1.35581 5.4773 0.25
639 4.38129 1.809 8.38542 0.25
640 5.28296 7.77203 0.405356 0.25
641 1.33431 6.5265 5.1623 0.25
642 3.63668 0.742914 5.50451 0.25
643 6.19088 6.93538 5.75092 0.25
644 5.78356 0.787171 2.51179 0.25
645 2.22334 2.20567 1.61983 0.25
646 8.21546 6.63657 6.58205 0.25
647 2.42497 3.08594 4.09339 0.25
648 5.08095 1.20079 0.0568051 0.25
649 0.481288 4.15385 1.9837 0.25
650 -0.0199594 3.81856 1.38592 0.25
651 3.26675 3.24453 3.67326 0.25
652 6.95631 0.688879 7.30443 0.25
653 1.23568 6.58126 1.02644 0.25
654 0.879485 2.5895 8.32039 0.25
655 3.56352 3.56721 6.29046 0.5
656 0.605204 3.49825 7.17526 0.25
657 1.30212 5.57983 6.02825 0.25
658 6.84332 0.351441 3.52229 0.25
659 2.57826 1.78346 7.93917 0.25
660 6.97655 5.94082 3.95792 0.5
661 8.20629 0.947847 8.27526 0.25
662 4.01218 4.83046 4.27536 0.25
663 2.50132 3.72188 1.75898 0.25
664 6.54546 2.61199 4.86715 0.25
665 7.82547 3.85013 1.35766 0.25
666 5.96964 6.90195 6.57403 0.25
667 6.65465 3.2207 0.145116 0.25
668 7.04452 6.52316 1.76187 0.25
669 5.87946 4.83831 7.32535 0.25
670 5.49455 8.14747 4.36826 0.25
671 3.55166 4.87622 4.49129 0.25
672 2.6723 3.28406 2.00144 0.25
673 0.690699 1.13705 3.18251 0.25
674 5.04418 7.36159 3.19091 0.25
675 5.38977 3.70346 5.345 0.25
676 7.58416 8.09595 2.20033 0.25
677 6.34719 1.5178 1.31485 0.25
678 7.47068 6.31277 4.87515 0.25
679 1.3868 6.73786 1.48739 0.25
680 3.7424 6.68334 8.0526 0.25
681 7.70552 8.34647 4.03945 0.25
682 2.55083 6.24649 1.5553 0.25
683 1.53404 7.62701 7.26364 0.25
684 0.456735 3.85876 1.54083 0.25
685 2.81584 3.39459 6.43842 0.25
686 4.39328 2.93917 6.68956 0.25
687 1.68614 4.46059 0.874947 0.25
688 3.56205 0.60809 5.96926 0.25
689 6.29594 4.06269 8.23822 0.25
690 6.18389 1.10694 2.46951 0.25
691 7.08167 1.25274 1.57521 0.25
692 5.26746 5.1705 1.81176 0.25
693 7.21208 1.92375 6.51266 0.25
694 7.22473 4.89884 5.16002 0.25
695 0.121162 3.11387 6.1766 0.25
696 5.76782 5.90768 3.25929 0.5
697 4.26201 3.84491 6.30193 0.25
698 1.81045 1.0362 5.42726 0.25
699 1.63743 6.68865 4.8335 0.25
700 4.26581 5.93477 1.00488 0.25
701 4.729 1.75007 7.96171 0.25
702 2.35578 4.34675 7.40935 0.25
703 3.37089 6.61417 7.36011 0.5
704 4.57699 5.36212 8.31183 0.25
705 4.8972 3.22399 1.85114 0.25
706 5.11762 0.225379 8.34998 0.25
707 4.68561 3.89683 1.14108 0.5
708 5.71836 7.65569 7.82669 0.25
709 2.62471 7.21379 2.12743 0.5
710 2.40511 4.4382 6.94864 0.25
711 5.13052 6.36965 3.02739 0.25
712 0.533227 5.13894 7.99652 0.25
713 2.8241 4.07359 1.64812 0.25
714 5.30178 4.13665 0.770518 0.25
715 4.70579 6.63179 2.92909 0.25
716 6.65788 0.958765 7.59194 0.25
717 7.42797 7.66525 3.67627 0.25
718 5.93936 3.73944 6.84018 0.25
719 6.09872 4.48547 8.04375 0.25
720 1.60418 7.5501 4.21795 0.25
721 6.73443 2.1269 2.42427 0.25
722 2.29897 7.84016 3.44029 0.5
723 2.4259 7.63862 2.71457 0.25
724 7.11068 6.4239 1.29322 0.25
725 7.70962 6.34091 7.1717 0.25
726 0.922787 1.0734 5.39939 0.25
727 4.05874 0.469302 1.36535 0.25
728 3.63762 6.19432 7.89544 0.25
729 4.99925 6.04828 3.41001 0.25
730 2.91671 7.12115 7.24833 0.25
731 5.47519 3.08835 2.69361 0.25
732 4.06709 3.66769 6.78248 0.25
733 3.71924 5.47384 7.38815 0.25
734 3.98296 1.03712 2.57094 0.25
735 3.65877 2.83722 6.48404 0.25
736 7.89937 1.33391 8.13724 0.25
737 3.45927 0.595662 0.851077 0.25
738 0.265074 8.06458 0.288655 0.25
739 4.6829 6.15897 3.07392 0.25
740 5.45136 7.14584 3.15673 0.25
741 0.547363 7.81364 0.601583 0.25
742 3.75026 4.72483 6.1331 0.25
743 7.1303 0.897862 1.23 0.25
744 4.45789 0.900201 2.29789 0.25
745 3.59313 4.25222 5.90634 0.25
746 1.42551 5.9943 4.65973 0.5
747 4.36121 0.464182 2.09264 0.25
748 2.65285 6.68327 7.11225 0.25
749 1.44371 1.43343 2.30607 0.25
750 0.165411 3.43983 1.66901 0.25
751 0.916434 0.829107 4.99616 0.25
752 6.43945 4.84292 7.89189 0.25
753 3.91854 0.925292 1.80659 0.5
754 4.41366 6.13153 1.48549 0.25
755 2.80072 2.64134 1.57772 0.5
756 7.81181 6.85949 7.42975 0.25
757 5.70355 6.9213 5.64185 0.25
758 6.86082 3.95479 7.26016 0.25
759 4.25596 8.12738 5.09795 0.25
760 0.210183 2.48175 3.32558 0.25
761 3.76663 7.24972 7.15496 0.25
762 0.555958 1.77838 3.49136 0.5
763 3.96731 8.14794 1.82662 0.25
764 1.10005 6.11264 1.00507 0.25
765 7.42465 4.7168 3.26068 0.25
766 0.47844 4.31818 2.42745 0.25
767 2.68011 6.89122 7.53766 0.25
768 2.32161 3.0064 5.0279 0.25
769 8.05752 3.61863 1.75936 0.25
770 4.78969 0.982315 8.05859 0.25
771 6.68771 1.27219 6.14735 0.25
772 4.72187 2.53189 8.05266 0.25
773 5.47698 1.02486 4.99209 0.5
774 3.64683 8.22039 4.85657 0.25
775 7.87179 4.20617 2.87917 0.5
776 7.06375 3.8445 0.602426 0.5
777 6.00351 6.56396 8.38302 0.25
778 5.0241 8.18996 0.257994 0.25
779 8.13492 8.15619 4.16229 0.25
780 2.15656 1.72195 5.96353 0.25
781 2.56702 1.66414 0.0812401 0.25
782 1.24886 7.4091 0.652756 0.25
783 6.77061 3.04901 0.613446 0.25
784 2.13376 7.75424 2.32396 0.25
785 2.56313 1.80041 6.29968 0.25
786 2.58628 7.95996 2.31375 0.25
787 7.88586 6.9972 6.63565 0.25
788 0.0337018 4.13745 2.29602 0.25
789 3.6473 7.97122 4.40237 0.25
790 7.21938 0.773338 6.92351 0.25
791 0.54465 4.60816 3.16232 0.5
792 2.24735 0.326373 7.89122 0.25
793 8.21015 7.11761 1.6802 0.25
794 5.38186 6.51311 6.27458 0.5
795 2.44729 4.14758 3.12667 0.25
796 2.10837 5.7592 5.74944 0.25
797 6.66111 6.44862 1.08435 0.25
798 7.69988 4.32217 1.38824 0.25
799 4.18977 3.44704 5.99821 0.25
800 7.84284 2.08925 3.28709 0.25
801 3.22348 7.82727 6.98709 0.25
802 3.36194 5.27564 4.25295 0.25
803 3.15183 8.31133 7.5277 0.5
804 3.74369 7.07851 1.74553 0.25
805 1.73497 7.91923 2.09999 0.25
806 2.55562 1.88217 3.79543 0.25
807 4.65065 6.31166 5.50654 0.25
808 4.0658 1.9299 7.73302 0.25
809 1.63019 5.92028 5.76823 0.25
810 6.51318 7.50781 6.29643 0.25
811 1.63977 3.34082 4.8852 0.5
812 5.75602 7.48904 0.51255 0.25
813 4.19769 1.86878 3.02989 0.25
814 1.49257 7.4859 7.75434 0.25
815 2.84405 8.12202 4.35554 0.25
816 1.07327 2.97425 5.18703 0.25
817 4.29179 1.62329 7.94071 0.25
818 3.74434 1.73984 3.13746 0.25
819 1.84672 5.3878 1.07698 0.25
820 3.39568 3.07399 6.81581 0.25
821 1.51263 2.05712 8.10447 0.5
822 5.86003 4.37087 3.4963 0.5
823 5.10591 0.603537 7.93438 0.25
824 0.794411 0.36195 5.11138 0.25
825 3.85948 6.02864 7.4849 0.25
826 3.31002 3.46667 1.59764 0.5
827 5.72488 7.27284 6.36647 0.25
828 0.33698 2.02419 7.62125 0.25
829 8.2028 8.06286 4.62079 0.25
830 0.72129 1.96497 2.78885 0.25
831 2.35476 4.10329 7.8491 0.25
832 5.81162 4.549 1.90266 0.25
833 1.80736 1.44653 6.17646 0.25
834 4.11411 0.558347 2.48781 0.25
835 6.49662 1.85382 0.980609 0.25
836 3.35148 7.60627 7.81745 0.25
837 3.95904 5.2109 7.79088 0.25
838 7.61909 0.732365 1.16078 0.25
839 6.0568 7.6824 6.21381 0.25
840 6.98258 4.64946 7.38244 0.5
841 3.37848 7.07021 2.04837 0.25
842 8.38115 1.98418 2.83371 0.5
843 5.89845 3.74839 5.35646 0.25
844 4.43992 2.32256 8.38475 0.25
845 7.39081 2.65231 5.25965 0.25
846 3.62602 3.47588 7.34612 0.5
847 2.22147 5.15584 0.762279 0.25
848 1.74126 5.77669 5.33139 0.25
849 5.1762 7.76985 2.53327 0.25
850 6.22284 2.7089 5.54044 0.5
851 5.50079 8.29675 4.93441 0.25
852 6.9914 1.81058 7.936 0.25
853 4.08207 8.10007 4.63563 0.25
854 4.23577 1.50023 6.05163 0.5
855 0.373251 4.00631 5.33112 0.25
856 0.713447 5.31559 3.22358 0.25
857 3.81414 6.66754 1.51919 0.25
858 2.75162 4.81787 3.68058 0.25
859 6.45509 4.54754 4.03864 0.25
860 7.67241 4.10583 0.956011 0.25
861 4.73908 3.0039 8.041 0.25
862 6.6056 4.65626 3.52265 0.25
863 5.48284 6.39522 0.0715452 0.25
864 7.68169 6.84201 2.28325 0.25
865 3.75826 5.66609 7.85041 0.25
866 5.21225 8.15056 2.90338 0.25
867 1.95007 3.99522 7.49254 0.25
868 2.15791 1.57214 0.678069 0.5
869 0.98773 3.18427 7.27004 0.25
870 6.22662 5.39044 3.14187 0.25
871 2.78197 7.47055 6.96419 0.25
872 5.76852 3.04408 4.99485 0.25
873 0.37988 7.93015 8.20233 0.25
874 3.78522 0.876048 6.28751 0.25
875 2.27017 4.30676 1.31892 0.5
876 1.2717 5.65751 5.54822 0.25
877 0.0628811 5.16635 7.7286 0.25
878 5.81252 1.16319 2.23077 0.25
879 3.21815 8.17427 4.58966 0.25
880 6.44776 5.87752 3.00718 0.25
881 7.5463 1.18111 1.35078 0.25
882 7.86732 7.21656 7.08555 0.25
883 0.406911 3.82562 2.34771 0.25
884 7.23855 3.17199 0.841085 0.25
885 0.809455 4.25422 5.2313 0.25
886 7.9343 7.52325 3.54881 0.25
887 1.25279 7.064 1.1251 0.25
888 1.15799 4.65659 3.49902 0.25
889 1.37928 8.11412 2.77452 0.25
890 0.0750052 4.54056 2.55977 0.25
891 1.11049 2.20074 7.43348 0.25
892 7.62437 3.52528 1.06803 0.25
893 1.02416 7.79778 0.681229 0.25
894 4.02619 5.80245 1.41806 0.25
895 3.75422 5.88348 0.98124 0.25
896 1.78297 1.36053 0.0686716 0.25
897 8.09127 4.11467 1.66361 0.25
898 0.799439 4.53883 3.87124 0.25
899 0.891414 8.33097 5.85645 0.25
900 5.11809 6.36906 5.68419 0.25
901 0.875542 1.52226 2.87293 0.25
902 7.39763 3.9322 1.3517 0.25
903 5.83179 3.71066 3.29925 0.25
904 7.01043 4.04728 7.81003 0.25
905 5.31275 0.843905 5.81112 0.25
906 2.00648 0.963616 0.292698 0.25