ITEM: TIMESTEP
300000
ITEM: NUMBER OF ATOMS
1000
ITEM: BOX BOUNDS xy xz yz pp pp pp
0.0000000000000000e+00 8.3788359999999997e+00 0.0000000000000000e+00
0.0000000000000000e+00 8.3788359999999997e+00 0.0000000000000000e+00
0.0000000000000000e+00 8.3788359999999997e+00 0.0000000000000000e+00
ITEM: ATOMS id x y z radius
1 2.92481 6.94626 4.63101 0.25
2 4.7718 4.9965 5.09461 0.25
3 7.01954 4.72984 3.2021 0.25
4 7.41795 0.781717 6.07362 0.5
5 1.28291 5.59916 6.22563 0.25
6 8.21438 1.94163 3.33827 0.25
7 4.03336 3.32698 6.49274 0.25
8 4.81162 7.70854 3.10566 0.25
9 0.856909 6.19742 3.5901 0.25
10 4.34407 1.70572 3.27372 0.25
11 5.51472 0.30637 8.06928 0.25
12 5.32015 3.6861 1.76197 0.25
13 0.589091 2.32038 7.55966 0.25
14 3.45861 2.88269 7.10229 0.25
15 8.23665 2.62903 6.29169 0.25
16 7.10684 0.921984 7.19596 0.25
17 0.695793 5.24811 8.32474 0.25
18 5.87321 7.60248 7.93474 0.25
19 3.92888 2.04687 7.86227 0.25
20 7.50181 1.30483 0.569253 0.25
21 4.946 4.38662 2.05828 0.25
22 4.17967 3.38543 1.02726 0.25
23 2.22259 3.37505 1.9043 0.25
24 2.73702 1.35767 4.00794 0.25
25 2.62337 4.39229 2.95143 0.25
26 0.402537 8.21807 5.7232 0.25
27 3.75 0.472883 5.90707 0.25
28 4.38916 2.40319 0.036043 0.25
29 5.06342 6.86216 3.02822 0.25
30 7.46225 7.42406 2.48193 0.25
31 2.77839 0.0990685 8.33005 0.25
32 0.982895 2.57917 7.38293 0.25
33 7.76611 0.573305 5.40788 0.25
34 2.10688 4.98909 1.33704 0.25
35 8.17514 0.168806 4.6119 0.25
36 7.03205 1.56526 5.63837 0.5
37 4.73114 1.08056 2.3713 0.25
38 2.19963 3.35306 4.26329 0.25
39 6.12178 2.61744 4.91148 0.25
40 5.27566 7.63236 3.25337 0.25
41 6.91123 2.22846 2.54388 0.25
42 5.57756 6.0197 5.50393 0.25
43 3.38012 7.80105 4.68971 0.25
44 3.73929 0.00943651 5.7325 0.25
45 5.61351 4.07305 4.16725 0.25
46 3.26933 6.08216 1.31988 0.5
47 4.81423 0.75809 5.46221 0.25
48 7.9086 6.27105 6.88778 0.25
49 7.53971 6.80754 4.73379 0.25
50 7.66212 0.984542 0.940329 0.25
51 2.71966 3.27898 4.3349 0.25
52 0.724706 1.69028 2.26592 0.25
53 6.44507 5.2033 6.82429 0.25
54 5.89226 3.25804 4.17702 0.25
55 1.62898 1.46617 5.93827 0.25
56 0.939942 7.24708 0.0781397 0.25
57 5.05967 0.729425 2.21823 0.25
58 2.40083 2.0711 4.04827 0.25
59 4.80944 1.47557 6.37124 0.25
60 7.86595 5.59299 5.22554 0.25
61 5.12583 0.0552877 8.05225 0.25
62 4.96379 1.69014 7.78598 0.5
63 7.54693 6.67571 1.14362 0.25
64 1.14767 6.08626 0.911941 0.25
65 4.50626 0.087312 1.84429 0.25
66 1.99645 4.73665 7.00828 0.25
67 7.91992 4.95235 6.95414 0.25
68 7.15989 0.575241 6.82987 0.25
69 8.35207 5.52648 7.89188 0.25
70 1.99847 4.68907 0.512766 0.25
71 7.94051 1.40424 0.340118 0.25
72 6.40607 6.33834 3.53872 0.25
73 0.521347 7.47843 6.70916 0.25
74 7.25446 5.60511 6.84961 0.25
75 7.26356 0.136519 3.55995 0.25
76 7.69727 6.50516 4.3596 0.25
77 5.70747 2.78295 5.48364 0.25
78 5.39505 3.91803 1.33926 0.25
79 7.79464 5.07355 4.51118 0.25
80 5.87601 3.28712 5.55014 0.25
81 7.048 1.51959 1.24057 0.25
82 8.28195 2.75155 5.82868 0.25
83 4.45637 5.70114 5.55411 0.25
84 1.28144 1.13968 6.11588 0.25
85 1.54994 1.68024 5.53442 0.25
86 4.62886 0.0691424 5.77197 0.25
87 1.72532 1.71318 1.15416 0.25
88 3.26344 6.82861 1.59262 0.25
89 6.66026 6.95932 0.690764 0.25
90 5.43987 6.44061 5.34264 0.25
91 3.92394 4.21526 6.18946 0.25
92 6.04425 4.42776 7.28714 0.25
93 4.91185 6.56445 5.26681 0.25
94 6.95614 8.30005 4.33855 0.25
95 0.340151 4.48945 7.63196 0.5
96 5.43355 3.17187 3.58736 0.5
97 4.30899 4.81625 7.72043 0.25
98 0.13463 2.32704 3.48478 0.25
99 1.50565 6.31333 5.73278 0.25
100 7.06172 7.01027 1.06982 0.25
101 0.471266 8.06791 0.239711 0.25
102 7.96472 4.8256 3.32444 0.25
103 6.54965 1.36521 1.4377 0.25
104 0.541952 5.10101 7.26668 0.25
105 5.05834 5.75302 5.04892 0.5
106 4.96916 0.214749 4.60654 0.25
107 4.12228 3.27158 6.97287 0.25
108 4.80048 1.4874 0.151686 0.25
109 0.646389 0.43763 6.27161 0.25
110 2.14865 7.87742 8.21107 0.25
111 2.99798 3.98311 6.91375 0.25
112 4.40988 2.19241 7.96033 0.25
113 1.78875 1.94478 1.89854 0.5
114 1.61893 3.99422 6.73722 0.25
115 4.68106 6.14716 6.21908 0.25
116 2.59192 7.07645 6.99071 0.25
117 4.21163 2.31601 3.7779 0.5
118 6.54955 7.15645 1.10684 0.25
119 1.16244 5.77233 2.40267 0.25
120 0.184716 2.91573 2.30955 0.25
121 3.12128 3.99905 3.55109 0.25
122 6.78307 0.640201 6.45182 0.25
123 5.23928 0.496973 5.66055 0.25
124 8.01839 8.04538 2.55936 0.25
125 3.51748 2.07757 3.7647 0.25
126 3.63263 1.29356 5.89416 0.25
127 5.20208 4.07909 1.80382 0.25
128 6.74672 5.49767 7.09369 0.25
129 1.06908 6.56416 3.9323 0.25
130 5.49172 6.23355 0.738296 0.25
131 7.13072 1.45661 6.34657 0.25
132 5.98459 4.00776 7.61864 0.25
133 3.32896 1.85466 3.39071 0.25
134 4.48204 2.6889 8.00941 0.25
135 5.54197 3.88842 3.73518 0.25
136 2.90487 2.43581 3.67921 0.5
137 2.87404 3.97658 3.11014 0.25
138 7.44093 7.96672 2.96653 0.5
139 2.41635 7.71817 5.02758 0.25
140 5.04007 7.97613 7.9482 0.25
141 8.31744 5.72023 5.06774 0.25
142 1.02545 4.9996 3.25 0.25
143 2.273 2.05526 8.31263 0.25
144 5.18341 1.027 2.91138 0.5
145 7.45954 1.99421 3.8563 0.25
146 6.00178 7.40935 0.339685 0.25
147 6.63841 5.69681 4.55612 0.25
148 2.041 2.84339 4.3586 0.25
149 4.62366 8.24664 2.56233 0.5
150 4.98028 2.99505 4.25451 0.25
151 3.63586 5.94443 7.18797 0.25
152 3.58124 4.66996 5.62634 0.25
153 6.65625 6.03754 2.33011 0.5
154 7.25773 2.37502 4.51059 0.5
155 2.98329 7.15905 7.6951 0.25
156 7.49315 3.76031 1.50543 0.25
157 7.58195 5.94579 1.59384 0.25
158 2.58679 3.66375 0.70931 0.25
159 7.18459 7.83362 4.53624 0.25
160 6.64202 2.11941 2.91531 0.25
161 0.910057 5.15172 2.80161 0.25
162 5.86568 3.96765 7.10719 0.25
163 3.39542 3.68766 4.21494 0.5
164 2.59368 3.82472 2.41488 0.5
165 5.44179 8.18271 7.76858 0.25
166 0.0852642 3.69352 7.73534 0.25
167 6.40129 4.02963 0.129718 0.25
168 4.83985 5.95216 5.79309 0.25
169 3.98615 4.34873 5.66637 0.25
170 0.308904 2.66159 6.09281 0.25
171 7.73272 5.83622 1.17768 0.25
172 1.12345 2.72619 6.8852 0.25
173 4.362 6.10955 5.84914 0.25
174 2.452 2.02126 1.00371 0.25
175 7.67841 2.25829 5.93525 0.5
176 2.40948 6.21172 5.90936 0.25
177 5.4929 3.60261 4.1548 0.25
178 2.96519 6.48722 1.84035 0.25
179 3.59513 2.29152 3.32464 0.25
180 5.87248 6.43858 5.61272 0.25
181 6.67461 3.93616 6.8664 0.25
182 2.9932 5.17735 3.28709 0.25
183 7.97954 7.58408 1.83563 0.25
184 4.30306 4.98013 8.18777 0.25
185 5.89455 6.79803 5.97109 0.25
186 7.63025 5.99701 4.51189 0.25
187 3.36921 5.24698 4.21826 0.25
188 0.802413 5.85782 3.19381 0.25
189 4.1204 6.68728 3.53939 0.25
190 4.29411 3.26508 1.48907 0.25
191 6.76309 1.50421 0.434062 0.5
192 0.673728 5.12985 7.80931 0.25
193 3.80028 5.67204 1.71955 0.25
194 2.5612 6.32288 1.6053 0.25
195 6.15091 5.74235 2.77602 0.25
196 2.34134 7.87628 2.64557 0.25
197 0.920619 0.0817402 2.33052 0.25
198 7.54956 4.63203 6.88461 0.25
199 1.08164 1.24161 3.10981 0.25
200 4.51301 5.35843 1.52757 0.5
201 6.705 1.69655 3.24852 0.25
202 8.29694 3.90099 5.44445 0.25
203 3.80233 1.82252 3.40659 0.25
204 5.66013 8.04867 0.0867873 0.5
205 2.40081 7.43991 4.34512 0.5
206 0.427906 4.51457 5.2538 0.25
207 5.78387 2.73349 4.16635 0.25
208 7.04158 5.44971 4.37975 0.25
209 5.44362 7.10143 8.31109 0.5
210 1.95168 8.11737 2.88781 0.25
211 0.641889 3.77341 5.01033 0.25
212 1.37449 7.78029 8.13438 0.5
213 0.310529 4.19578 2.65265 0.25
214 1.93743 8.00158 2.43934 0.25
215 2.85186 4.11562 3.91039 0.25
216 6.46804 2.02186 2.44696 0.25
217 4.94968 3.80847 2.12596 0.25
218 2.35936 3.08775 4.62421 0.25
219 4.49311 1.30928 2.99372 0.25
220 3.7031 3.5718 1.02301 0.25
221 4.14996 0.22501 5.98536 0.25
222 7.33111 0.840817 5.27989 0.25
223 8.12727 2.85753 2.56175 0.25
224 7.18863 5.29144 7.25828 0.25
225 7.32347 2.16143 5.20378 0.25
226 4.23167 1.85839 7.57605 0.25
227 6.54952 3.51292 7.16141 0.25
228 5.46992 3.1397 4.33481 0.25
229 5.47536 5.0782 2.07056 0.25
230 0.281311 8.15732 6.50607 0.5
231 5.33275 4.69099 1.47549 0.5
232 2.07545 3.01198 3.90501 0.25
233 4.03803 5.0382 3.84625 0.25
234 6.49519 1.08046 6.56884 0.25
235 3.15633 7.39206 4.60396 0.25
236 0.916546 2.41041 7.87849 0.25
237 8.2306 2.81716 7.46662 0.25
238 3.6241 0.155793 1.84247 0.25
239 0.415708 2.29746 3.92047 0.25
240 6.59914 6.37533 1.52738 0.25
241 3.39552 7.08186 7.99257 0.25
242 1.80288 7.32585 2.70921 0.5
243 2.78477 4.70733 3.30872 0.25
244 7.10116 3.67071 1.20666 0.25
245 2.25502 1.01968 5.67869 0.25
246 7.62806 8.26662 3.73642 0.25
247 3.56969 2.62235 3.72297 0.25
248 3.86115 3.15074 1.27845 0.25
249 0.00132511 5.05911 7.22119 0.25
250 1.11429 3.20247 5.44502 0.25
251 5.32742 2.62042 4.8521 0.5
252 3.21784 1.96683 4.19917 0.25
253 7.86963 5.58371 7.3258 0.5
254 7.09282 5.77932 7.26032 0.25
255 4.67313 0.764517 6.15205 0.5
256 5.86777 6.18673 0.425534 0.25
257 0.951684 0.413954 2.71117 0.25
258 1.674 1.72893 2.6503 0.25
259 4.78099 3.09314 1.43889 0.25
260 7.83792 6.27238 1.40339 0.25
261 3.27823 0.400119 1.535 0.25
262 3.49137 2.34491 4.14211 0.25
263 2.03542 0.228706 0.120363 0.5
264 2.72722 4.25606 3.46171 0.25
265 1.15031 3.83697 7.26158 0.5
266 1.08254 7.87847 7.01404 0.5
267 5.24159 2.35951 7.88558 0.25
268 6.32545 7.72616 0.303778 0.25
269 1.83999 5.14049 0.587235 0.25
270 3.9628 3.63706 1.40336 0.25
271 7.6433 7.87516 4.78346 0.25
272 1.66753 1.00706 2.57079 0.25
273 1.39954 3.16982 6.98456 0.25
274 0.486838 5.57914 7.96959 0.25
275 4.51215 4.67 1.27092 0.25
276 2.48763 3.15547 1.00383 0.25
277 6.68367 0.752077 6.94858 0.25
278 3.85477 6.34267 1.05896 0.25
279 4.14146 0.503931 5.26036 0.5
280 8.004 8.20734 4.96755 0.25
281 1.00885 6.47311 0.605531 0.25
282 6.28513 6.99947 6.10004 0.25
283 0.954612 0.14683 6.50282 0.25
284 7.44959 4.42692 0.777438 0.25
285 1.91418 6.06301 1.15065 0.5
286 5.47152 6.61686 3.17063 0.25
287 1.43904 8.08463 3.43214 0.5
288 2.79536 7.3079 4.96667 0.25
289 2.41995 7.2174 5.16169 0.25
290 2.15334 3.91797 1.81129 0.25
291 8.32266 7.4437 7.31497 0.25
292 7.71715 2.681 3.37028 0.25
293 7.53504 4.57244 3.28102 0.25
294 5.9207 3.70804 3.47296 0.25
295 8.26043 4.15676 0.924901 0.25
296 0.603429 4.2437 4.56854 0.5
297 3.71274 3.11862 6.84336 0.25
298 6.37177 5.2315 7.32924 0.25
299 5.71936 4.81749 7.43221 0.25
300 6.32597 3.83293 0.610592 0.25
301 0.953539 8.10167 0.295457 0.25
302 0.231181 4.36016 1.32664 0.25
303 3.66727 1.0631 1.54654 0.25
304 2.10279 2.329 4.45138 0.25
305 1.11791 5.03236 8.1441 0.25
306 2.34182 1.86192 4.51699 0.25
307 1.33202 4.93267 7.42893 0.5
308 3.49954 5.90189 3.21276 0.25
309 4.41342 1.13882 5.45537 0.25
310 1.02364 4.809 4.15978 0.25
311 7.31089 0.124475 4.08601 0.25
312 0.911999 0.99426 2.29559 0.5
313 1.0627 3.6643 5.37765 0.25
314 5.62676 3.94441 3.21705 0.25
315 1.42375 5.37252 8.06703 0.25
316 1.65659 4.35278 7.10676 0.25
317 7.54214 2.47653 3.80616 0.25
318 2.22846 2.53945 4.02405 0.25
319 4.80869 7.54166 7.91931 0.25
320 1.97496 6.25521 5.96474 0.25
321 3.99635 0.775532 1.38352 0.25
322 7.31295 6.5315 5.10778 0.25
323 0.838304 6.1801 4.1024 0.25
324 4.10091 7.31746 7.89723 0.5
325 0.929191 1.88724 0.29876 0.25
326 4.03983 4.78132 5.03371 0.5
327 7.56396 7.38191 3.43046 0.25
328 2.29154 7.85677 1.76966 0.25
329 1.23628 5.88165 3.394 0.25
330 -0.00257369 6.95708 7.39242 0.25
331 0.881331 5.47534 3.82834 0.5
332 7.33736 6.59215 2.20426 0.25
333 1.12585 1.60986 1.93592 0.25
334 6.78193 1.7147 1.67859 0.25
335 3.41874 3.1285 1.02676 0.25
336 3.08543 6.98716 6.78966 0.25
337 4.27972 7.16597 2.91011 0.5
338 6.15629 7.47903 8.28535 0.25
339 2.10765 7.95554 3.89635 0.25
340 4.81518 0.482764 4.97992 0.25
341 6.8423 8.33567 3.43202 0.25
342 0.725854 5.48806 7.50002 0.25
343 2.63124 1.12181 0.289795 0.25
344 1.32639 5.4455 2.64709 0.25
345 0.418178 1.5456 2.70679 0.25
346 0.462269 2.55624 0.0702759 0.25
347 3.51316 5.91742 7.6814 0.25
348 7.26544 7.84538 2.20945 0.25
349 0.794932 2.24378 8.32405 0.25
350 6.78426 1.76296 2.68577 0.25
351 1.40355 6.76787 0.451658 0.25
352 6.49255 3.53328 7.93788 0.5
353 2.42852 8.37448 7.54567 0.25
354 1.80102 0.866239 5.4758 0.25
355 0.745082 0.0309169 6.04179 0.25
356 2.01313 1.75763 5.76388 0.25
357 2.70205 4.19712 6.57825 0.25
358 6.2961 3.42048 5.30638 0.25
359 4.33257 1.34051 6.52648 0.25
360 1.99685 2.14706 1.1156 0.25
361 0.74629 7.91754 0.675901 0.25
362 6.2134 3.70723 6.86614 0.25
363 8.05891 4.21126 1.99151 0.25
364 6.08046 3.56594 7.28733 0.25
365 5.4771 5.89289 0.343805 0.25
366 5.06876 6.1851 0.428383 0.25
367 2.3834 4.57008 6.73844 0.25
368 6.77536 3.22607 0.227569 0.25
369 1.02645 6.78825 0.167121 0.25
370 5.02188 0.558915 8.13233 0.25
371 2.18249 8.14389 4.36813 0.25
372 2.43876 4.60285 0.471943 0.25
373 7.09368 2.64 5.1637 0.25
374 3.65942 4.3865 4.49685 0.25
375 4.57422 0.772695 8.17479 0.25
376 2.59959 5.83167 0.949991 0.25
377 6.3864 1.32116 2.20188 0.5
378 0.425083 3.76963 7.40022 0.25
379 4.49675 1.28661 8.17223 0.25
380 2.48991 6.8907 4.76718 0.25
381 4.07248 5.33765 5.56613 0.25
382 1.93488 7.19186 4.93341 0.25
383 6.43079 5.3216 4.03406 0.5
384 1.28451 1.73413 1.43379 0.25
385 6.8403 1.56289 7.02707 0.5
386 1.42457 1.15409 5.63709 0.25
387 7.34609 0.817385 0.570081 0.25
388 0.848731 5.63787 2.75696 0.25
389 4.08003 2.62231 7.34258 0.5
390 3.97876 0.64353 6.33393 0.25
391 5.30681 4.69526 2.30143 0.25
392 8.06873 2.89029 3.08268 0.25
393 2.83375 6.69276 1.34687 0.25
394 8.3132 7.99351 0.369102 0.25
395 2.2274 1.72546 1.28812 0.25
396 4.57231 7.89774 8.13853 0.25
397 4.81397 0.631903 0.184721 0.25
398 7.17676 1.73115 8.1781 0.25
399 3.12486 4.36687 3.15173 0.25
400 5.17305 4.6908 0.733023 0.25
401 2.0311 7.11952 3.742 0.25
402 8.21543 7.91371 7.10648 0.25
403 7.73752 6.24774 0.903144 0.25
404 7.99013 6.71564 7.1756 0.25
405 0.352196 7.65702 0.501245 0.25
406 5.45666 0.285998 4.5669 0.25
407 2.34504 1.02741 7.95604 0.5
408 5.40528 3.31343 2.70462 0.25
409 2.27575 4.97409 0.872846 0.25
410 7.47369 1.0548 8.19067 0.5
411 4.44377 5.37423 5.16136 0.25
412 8.2134 7.09072 6.92343 0.25
413 1.34884 1.56075 0.282423 0.25
414 0.533574 3.05116 7.83329 0.5
415 6.49419 4.78683 3.06856 0.25
416 2.85784 3.21091 6.55965 0.25
417 3.37056 4.69567 3.77535 0.5
418 7.26226 6.75916 4.35099 0.25
419 3.89461 3.89775 5.86931 0.25
420 0.919251 3.14031 4.62777 0.25
421 4.0578 4.85595 5.76686 0.25
422 2.24866 5.50525 0.647674 0.25
423 0.317365 0.264704 5.89501 0.25
424 0.483924 3.42872 4.72337 0.25
425 1.9277 2.83548 1.36552 0.5
426 7.19991 5.82659 5.05264 0.5
427 2.75827 1.81899 4.20623 0.25
428 3.87049 5.17804 3.4093 0.25
429 4.44123 4.5311 5.6207 0.25
430 1.68719 7.32183 3.45766 0.25
431 0.93305 3.21862 6.79988 0.25
432 1.51258 7.15906 4.2416 0.5
433 2.21301 1.5896 7.61736 0.25
434 0.817437 6.47143 1.09831 0.25
435 5.71937 3.50359 2.98825 0.25
436 1.20437 5.89566 2.92385 0.25
437 8.33094 1.17626 0.516512 0.25
438 0.886259 3.37469 5.03474 0.25
439 3.64272 2.64627 6.66688 0.25
440 4.33021 1.34175 7.65385 0.25
441 7.95522 4.30381 5.37788 0.25
442 2.37136 5.44319 1.16704 0.25
443 0.358396 2.73935 6.9048 0.5
444 2.14163 3.5757 1.44956 0.25
445 5.27843 7.13612 0.679847 0.25
446 4.17487 5.8457 3.57859 0.5
447 1.59484 1.98041 5.93966 0.25
448 5.88009 7.21684 5.82618 0.25
449 1.26897 5.30535 5.77063 0.25
450 2.9326 3.32996 0.892546 0.25
451 2.79164 6.85433 5.14867 0.25
452 2.28467 0.84353 0.309985 0.25
453 4.7503 4.48418 0.874052 0.25
454 0.0582106 3.31897 7.33501 0.25
455 7.99493 4.79512 7.43747 0.25
456 3.0932 1.6843 3.81256 0.25
457 2.25618 3.93338 7.1284 0.5
458 0.00145405 7.54403 6.80798 0.25
459 5.02869 7.74125 8.35176 0.25
460 5.66492 0.0393294 4.92541 0.25
461 2.5877 3.59939 1.16284 0.25
462 6.2718 5.08301 3.35689 0.25
463 5.13492 7.34474 2.91628 0.25
464 7.56745 6.89139 7.39118 0.25
465 7.10728 2.37782 5.54525 0.25
466 4.32071 1.68574 2.78628 0.25
467 3.85506 6.2534 1.6206 0.25
468 6.85509 5.41439 3.01725 0.5
469 7.52494 7.41249 7.27376 0.25
470 0.867313 1.40372 0.373967 0.25
471 1.78649 1.01582 5.9482 0.25
472 1.84916 7.56751 1.8908 0.25
473 7.59311 5.20624 5.38223 0.25
474 5.24245 5.74997 5.75878 0.25
475 1.36445 1.31259 2.74815 0.25
476 7.35824 1.26399 7.50033 0.25
477 3.12463 5.35644 3.76475 0.25
478 6.32249 3.07485 7.34671 0.25
479 3.4639 7.2268 7.50892 0.25
480 5.13468 0.370463 2.56863 0.25
481 7.89116 2.15984 4.09727 0.25
482 7.29231 5.14863 4.64934 0.25
483 8.33058 5.54563 5.51197 0.25
484 2.68903 0.609695 0.0895436 0.25
485 7.92562 7.50952 7.02172 0.25
486 2.22535 6.66558 6.10182 0.25
487 8.33704 7.84064 4.36296 0.25
488 4.33975 4.1125 5.91084 0.25
489 0.25102 8.13317 0.700013 0.25
490 8.08746 8.01192 2.05302 0.25
491 4.66156 3.3011 1.05172 0.25
492 2.29032 1.59634 4.09273 0.25
493 6.23785 4.24043 6.80791 0.25
494 4.80436 7.52567 2.56446 0.25
495 1.33354 5.79606 5.76166 0.25
496 2.881 7.80804 4.80969 0.25
497 6.36056 4.28363 7.67971 0.25
498 3.40991 2.86949 4.14929 0.25
499 0.224357 5.24622 7.61366 0.25
500 3.75366 2.99614 6.34127 0.25
501 6.08301 4.00422 4.25026 0.25
502 1.71453 8.02644 7.47132 0.25
503 5.82908 5.05065 2.77011 0.5
504 7.72972 7.73426 2.26137 0.25
505 5.88928 1.40642 2.84132 0.25
506 7.29395 6.36829 4.64902 0.25
507 1.2454 0.378456 3.06583 0.25
508 0.723575 0.20024 5.57461 0.25
509 8.25603 4.95694 5.08243 0.5
510 4.90589 1.75799 5.55522 0.25
511 0.610288 0.61767 5.78389 0.25
512 0.910642 0.765026 3.11498 0.25
513 3.87112 1.18451 5.44968 0.25
514 2.097 5.75699 6.0326 0.25
515 0.783381 7.66161 6.31222 0.25
516 7.57443 1.56432 6.25729 0.25
517 7.52995 5.54988 4.45826 0.25
518 0.954541 3.61164 4.61867 0.25
519 6.49675 2.01588 1.95125 0.25
520 6.98578 1.90874 6.2927 0.25
521 7.50718 1.66133 0.210967 0.25
522 6.55643 1.44267 7.73603 0.25
523 5.1732 6.76533 5.59492 0.25
524 2.58354 0.308363 8.01229 0.25
525 6.35413 3.99266 7.25275 0.25
526 6.93947 5.24434 6.78179 0.25
527 7.52666 8.08398 4.23012 0.25
528 7.48842 1.33116 6.67758 0.25
529 6.7245 1.2913 2.94034 0.25
530 2.50725 1.72965 5.95111 0.25
531 7.94587 8.01329 4.0137 0.25
532 1.34362 0.83111 2.85864 0.25
533 7.0304 1.57842 7.75422 0.25
534 8.06429 5.83804 1.54915 0.25
535 0.36397 3.28447 5.51669 0.5
536 6.88471 2.26428 5.99522 0.25
537 3.99689 0.935377 5.85987 0.25
538 6.79006 5.23223 4.74569 0.25
539 2.62883 1.22667 5.9095 0.25
540 8.05669 6.40006 2.07776 0.5
541 7.70124 4.18827 1.6014 0.25
542 2.16418 2.00385 7.82696 0.25
543 3.38251 7.35665 7.05581 0.25
544 7.53046 6.59085 6.96127 0.25
545 1.27117 6.11789 3.81858 0.25
546 5.02609 5.74084 6.22366 0.25
547 5.27865 2.0799 8.36859 0.25
548 6.20332 7.15617 6.60314 0.25
549 0.358994 7.70454 7.11082 0.25
550 6.14987 6.99344 8.37657 0.25
551 4.70908 1.5083 2.54395 0.25
552 3.64769 5.36486 3.83668 0.25
553 7.04955 7.80459 3.82624 0.5
554 4.25462 6.44174 3.12588 0.25
555 4.85086 6.61673 3.62713 0.5
556 6.8645 0.84554 0.799952 0.25
557 7.41096 5.04459 3.81542 0.5
558 6.43077 8.30984 3.72374 0.25
559 1.3412 0.439672 5.90933 0.5
560 5.00639 3.50879 2.54995 0.25
561 2.99892 3.06727 4.0963 0.25
562 5.08687 8.21219 5.64811 0.25
563 2.34673 6.6375 1.26676 0.25
564 5.96249 6.82798 0.697967 0.5
565 6.63509 1.51917 6.28213 0.25
566 1.20781 1.765 2.44651 0.25
567 4.51305 5.71783 6.1035 0.25
568 6.30003 1.38475 3.26216 0.25
569 2.45082 8.24221 7.99813 0.25
570 1.9607 6.82733 4.63213 0.25
571 2.78006 4.45612 7.02008 0.25
572 8.21363 2.78292 3.88956 0.5
573 4.28077 1.25906 2.51278 0.25
574 1.64124 5.95874 6.14582 0.25
575 2.13988 1.65315 8.15118 0.25
576 4.28086 5.6393 7.67149 0.25
577 5.21947 0.16987 5.01617 0.25
578 1.84949 7.56689 3.84753 0.25
579 7.54002 4.94432 7.30388 0.25
580 7.42718 0.215534 4.81071 0.5
581 4.27154 4.57819 6.1061 0.25
582 5.93731 2.9834 4.5988 0.25
583 5.78015 3.63199 4.82637 0.5
584 4.76856 6.45426 5.81977 0.25
585 5.12699 3.40582 1.33743 0.25
586 1.64164 0.26059 2.41663 0.5
587 4.88615 6.95336 2.60205 0.25
588 5.8779 5.23431 3.55539 0.25
589 0.136332 2.42819 7.56229 0.25
590 3.52102 6.54136 1.85601 0.25
591 6.21779 1.5356 1.06021 0.25
592 7.39039 7.1823 1.76259 0.5
593 6.73903 6.89177 1.49282 0.25
594 1.91026 4.75439 8.22457 0.5
595 0.579727 3.76968 7.8379 0.25
596 1.92926 0.765277 0.645223 0.25
597 0.0610764 0.3785 5.2465 0.5
598 2.66044 6.26239 1.13825 0.25
599 1.99787 8.20263 7.8206 0.25
600 7.68766 1.11395 5.45962 0.25
601 0.831155 0.9006 6.17369 0.25
602 4.04669 8.34472 2.11394 0.25
603 4.34248 5.5164 8.13638 0.25
604 7.42283 5.11011 6.86739 0.25
605 7.86053 2.21472 3.60788 0.25
606 2.30207 8.16589 2.18859 0.25
607 4.56911 5.22398 7.7975 0.25
608 3.60008 7.69246 7.38848 0.25
609 6.93043 4.92963 4.38089 0.25
610 1.90231 1.3247 5.58481 0.25
611 2.99619 0.497271 8.07719 0.25
612 0.759112 7.66149 0.218205 0.25
613 6.32713 1.41975 8.19498 0.25
614 4.67956 0.986778 5.04426 0.25
615 4.87045 2.7508 3.82334 0.25
616 1.16404 5.46659 3.10877 0.25
617 1.49344 7.84848 2.22393 0.25
618 7.74308 7.33788 4.24471 0.5
619 7.94813 8.06207 4.50941 0.25
620 8.2481 7.32749 2.52997 0.5
621 4.20286 6.50093 3.97158 0.25
622 6.24422 6.50808 5.9746 0.25
623 5.24215 6.64728 0.594136 0.25
624 0.988438 2.91417 5.06004 0.25
625 0.98337 5.48223 7.93984 0.25
626 3.59486 0.628848 1.69103 0.25
627 4.63617 4.59728 1.74661 0.25
628 8.22535 3.58095 2.35698 0.5
629 6.97762 3.10676 0.64781 0.25
630 1.10153 8.33423 2.81878 0.25
631 1.79788 1.58632 7.83337 0.25
632 7.60355 7.90997 1.86178 0.25
633 6.01996 7.68515 0.721677 0.25
634 3.02903 7.84573 3.86826 0.25
635 0.811161 7.12949 0.786213 0.5
636 1.49274 2.15528 1.25619 0.25
637 5.48618 0.171274 5.40846 0.25
638 4.83558 1.27295 5.46875 0.25
639 4.57334 1.94137 8.37498 0.25
640 5.12298 7.58428 0.464347 0.25
641 1.29782 6.54718 5.26838 0.25
642 3.5712 0.83806 5.65343 0.25
643 6.16632 6.87567 5.59343 0.25
644 5.9089 1.09263 3.18172 0.25
645 2.32457 2.20548 1.48485 0.25
646 7.92919 6.70458 6.67615 0.25
647 2.5021 2.95848 4.13408 0.25
648 4.95598 1.03879 8.25961 0.25
649 0.538414 4.31079 1.7801 0.25
650 0.0387201 3.87512 1.31584 0.25
651 3.3181 3.09996 3.69419 0.25
652 6.83697 0.432097 7.25151 0.25
653 1.30175 6.55934 0.988823 0.25
654 1.00074 2.66133 8.3389 0.25
655 3.41878 3.72819 6.41981 0.5
656 0.582437 3.36278 7.14639 0.25
657 1.6998 5.50852 5.9403 0.25
658 6.86909 0.16925 3.88045 0.25
659 2.55956 1.82601 7.92675 0.25
660 7.03783 6.09761 4.02326 0.5
661 8.14974 1.13989 0.0308138 0.25
662 3.96186 4.69636 4.23443 0.25
663 2.58021 3.68042 1.67886 0.25
664 6.62782 2.61853 4.93365 0.25
665 7.90689 3.87599 1.19639 0.25
666 6.10152 6.68014 6.42071 0.25
667 6.53447 3.33745 0.699051 0.25
668 7.01712 6.55897 1.84908 0.25
669 6.06844 4.88926 7.07945 0.25
670 5.29547 8.15687 4.69061 0.25
671 3.5189 4.8333 4.49975 0.25
672 2.71373 3.28757 1.96397 0.25
673 0.596845 1.15787 2.9828 0.25
674 4.90678 7.28567 3.33501 0.25
675 5.55674 3.62418 5.57423 0.25
676 7.67843 8.24672 2.23879 0.25
677 6.26596 1.71843 1.57158 0.25
678 7.71423 6.32183 4.88269 0.25
679 1.17675 6.26243 1.39315 0.25
680 3.71669 6.72404 8.08615 0.25
681 7.83657 0.0917128 4.17422 0.25
682 2.57885 5.86769 1.43714 0.25
683 1.86754 7.75974 6.98973 0.25
684 0.456268 3.91578 1.51421 0.25
685 2.71886 3.72314 6.55157 0.25
686 4.12428 2.87554 6.65632 0.25
687 2.74727 4.17938 0.551232 0.25
688 3.59071 0.87167 6.16684 0.25
689 6.09405 4.15269 8.11313 0.25
690 6.25377 1.11613 2.86574 0.25
691 6.98913 1.237 1.69224 0.25
692 4.95972 4.92596 2.024 0.25
693 7.37091 1.84243 6.55851 0.25
694 7.60777 5.29657 4.92452 0.25
695 0.0822017 3.08364 6.20927 0.25
696 5.71826 5.96824 3.38857 0.5
697 4.15214 3.76269 6.2937 0.25
698 1.62261 1.25062 5.18935 0.25
699 1.56788 6.84339 4.94192 0.25
700 3.79884 5.52142 1.25393 0.25
701 4.27235 1.68733 8.05911 0.25
702 1.98497 4.53319 7.47619 0.25
703 3.46513 6.61035 7.39461 0.5
704 4.75796 4.83942 7.9326 0.25
705 4.9332 3.36385 1.84307 0.25
706 5.15747 0.272837 0.130827 0.25
707 4.6796 3.9531 1.42506 0.5
708 5.35668 7.65996 7.90196 0.25
709 2.53442 7.11553 1.86578 0.5
710 1.85518 4.42222 6.60954 0.25
711 5.09636 6.33378 3.02829 0.25
712 0.272036 5.14667 8.06904 0.25
713 2.68736 4.13442 1.78118 0.25
714 5.16682 4.21057 0.954717 0.25
715 4.67619 6.5909 2.88216 0.25
716 6.91008 1.10984 7.62743 0.25
717 7.81445 7.77498 3.62027 0.25
718 6.19103 3.23445 6.9251 0.25
719 5.91684 4.4691 7.77545 0.25
720 1.71831 7.90508 4.17491 0.25
721 6.8665 1.85409 2.18157 0.25
722 2.4323 7.66957 3.37532 0.5
723 2.47326 7.46862 2.56862 0.25
724 7.09841 6.58086 1.36173 0.25
725 7.64862 6.37428 7.41353 0.25
726 0.961777 1.01938 5.67832 0.25
727 3.79051 0.33347 1.44692 0.25
728 3.77752 6.21179 8.0018 0.25
729 4.91004 5.96665 3.3629 0.25
730 3.00737 7.12113 7.25153 0.25
731 5.24888 3.66935 3.03944 0.25
732 4.09021 3.75117 6.80857 0.25
733 3.78063 5.54408 7.5114 0.25
734 4.45474 0.895291 2.71983 0.25
735 3.31882 2.97518 6.57618 0.25
736 7.92775 1.63275 8.29793 0.25
737 3.18686 0.916298 1.55893 0.25
738 8.22182 -0.00456385 0.660297 0.25
739 4.63264 6.13027 3.03882 0.25
740 5.37516 7.1149 3.26978 0.25
741 0.350102 7.71247 0.961377 0.25
742 3.73137 4.69006 6.1038 0.25
743 6.91718 0.990342 1.29241 0.25
744 4.67537 0.535867 2.48434 0.25
745 3.53429 4.24938 5.86628 0.25
746 1.48103 6.23287 4.54301 0.5
747 4.88974 0.297903 2.06221 0.25
748 2.81153 6.66354 7.05744 0.25
749 1.50994 1.41833 2.29949 0.25
750 0.1525 3.58758 1.73939 0.25
751 1.30329 0.850778 5.25209 0.25
752 6.19526 4.76912 7.56617 0.25
753 4.19653 0.676564 2.04891 0.5
754 4.23148 5.61824 0.922667 0.25
755 2.93244 2.64367 1.38764 0.5
756 7.98414 6.72575 7.65908 0.25
757 5.66139 6.83189 5.54767 0.25
758 6.86431 3.89592 7.29626 0.25
759 4.17115 8.21645 5.68361 0.25
760 0.153952 2.74257 3.20073 0.25
761 3.88789 7.25184 7.1965 0.25
762 0.604482 1.78654 3.41542 0.5
763 4.36223 7.99846 1.88272 0.25
764 1.47746 6.31736 0.601049 0.25
765 7.49748 4.98434 3.0375 0.25
766 0.605194 4.27115 2.27219 0.25
767 2.64109 6.8582 7.45021 0.25
768 2.10558 2.68494 4.81128 0.25
769 8.01774 3.83289 1.65746 0.25
770 4.53545 1.06153 0.202852 0.25
771 6.80361 1.0622 6.20945 0.25
772 4.75808 2.42175 7.72453 0.25
773 5.39698 0.843285 4.98887 0.5
774 3.82779 8.15415 5.29432 0.25
775 7.99273 4.49939 2.66473 0.5
776 7.07759 3.78833 0.501613 0.5
777 5.97265 6.50277 0.0415485 0.25
778 4.95659 8.19908 0.0453126 0.25
779 8.32096 8.28265 4.23747 0.25
780 2.37057 1.45228 5.54336 0.25
781 2.61157 1.60499 0.0225951 0.25
782 1.39191 7.18412 0.265057 0.25
783 6.82987 3.30607 1.06741 0.25
784 2.19421 7.66561 2.2355 0.25
785 2.52375 1.42626 6.37386 0.25
786 2.64961 7.79223 2.22422 0.25
787 7.71296 7.05908 6.97956 0.25
788 0.168752 4.29597 2.18005 0.25
789 3.40984 8.04994 4.20408 0.25
790 6.77984 0.304176 6.78114 0.25
791 0.406335 4.73362 3.20148 0.5
792 2.15085 0.338075 7.75643 0.25
793 8.15339 7.10294 1.77155 0.25
794 5.45215 6.37034 6.16541 0.5
795 2.38192 4.02166 3.15395 0.25
796 2.30809 5.93121 5.59306 0.25
797 6.67129 6.6361 1.09509 0.25
798 7.82164 4.38526 1.11643 0.25
799 3.89917 3.40844 6.03735 0.25
800 8.09408 2.41423 3.21483 0.25
801 3.32474 7.83896 7.02058 0.25
802 3.84532 5.12132 4.29584 0.25
803 3.17486 8.24369 7.68046 0.5
804 3.66988 7.01781 1.83694 0.25
805 1.88293 8.07986 1.9497 0.25
806 2.64572 1.74634 3.72574 0.25
807 4.61061 6.19544 5.42998 0.25
808 4.02999 2.47835 8.11187 0.25
809 1.79471 5.95931 5.67613 0.25
810 6.5623 7.3424 6.28961 0.25
811 1.63263 3.3178 4.81734 0.5
812 5.5925 7.49627 0.574887 0.25
813 4.51993 2.06624 3.0194 0.25
814 1.62351 7.51953 7.42746 0.25
815 2.66608 8.17832 4.48927 0.25
816 0.543757 3.02398 4.89254 0.25
817 4.08263 2.0254 8.31821 0.25
818 4.03965 2.0375 3.07224 0.25
819 1.90868 5.32053 1.00387 0.25
820 3.18658 3.19723 6.95702 0.25
821 1.4855 2.12311 8.21098 0.5
822 6.08207 4.42888 3.64038 0.5
823 4.71022 0.244511 8.29598 0.25
824 0.875532 0.622404 5.36132 0.25
825 3.94256 6.02075 7.58197 0.25
826 3.24104 3.60646 1.55157 0.5
827 5.79447 7.05966 6.32172 0.25
828 0.428367 2.37766 7.99729 0.25
829 0.0595469 8.12845 4.73976 0.25
830 0.78444 1.95874 2.68621 0.25
831 2.18522 4.18247 7.78733 0.25
832 5.77181 4.69278 2.11678 0.25
833 2.1516 1.40192 5.9857 0.25
834 4.23912 0.431561 2.68923 0.25
835 6.61995 1.79061 1.18288 0.25
836 3.32466 7.53837 7.84308 0.25
837 4.06822 5.2326 7.81979 0.25
838 7.26847 0.706185 1.10366 0.25
839 6.08407 7.45123 6.20426 0.25
840 6.8079 4.64782 7.13594 0.5
841 3.22898 6.8711 2.06091 0.25
842 0.108874 2.19855 2.67499 0.5
843 6.01542 3.78145 5.5512 0.25
844 4.83055 2.33727 8.1941 0.25
845 7.57786 2.5758 5.29348 0.25
846 3.57009 3.62316 7.34729 0.5
847 2.25981 5.09226 0.394876 0.25
848 1.93516 5.84952 5.22104 0.25
849 5.19613 7.81783 2.78932 0.25
850 6.43664 2.7695 5.60377 0.5
851 5.38046 8.11311 5.24629 0.25
852 6.72036 1.77336 8.10195 0.25
853 4.08621 7.77602 5.56505 0.25
854 4.2987 1.67808 5.85504 0.5
855 0.381473 4.02833 5.32152 0.25
856 0.671225 5.39032 3.1321 0.25
857 3.71346 6.67345 1.4116 0.25
858 2.56832 4.584 3.78469 0.25
859 6.76247 4.61693 3.98757 0.25
860 7.77329 4.04948 0.715409 0.25
861 4.9568 2.73907 8.02874 0.25
862 6.7065 4.78768 3.51031 0.25
863 5.72328 6.0227 8.31879 0.25
864 7.6128 6.92674 2.4805 0.25
865 3.88017 5.70242 7.96696 0.25
866 5.09781 8.08482 3.14954 0.25
867 1.6653 4.24411 7.59495 0.25
868 2.07346 1.55622 0.536843 0.5
869 1.00306 3.08244 7.25713 0.25
870 6.18826 5.53487 3.25692 0.25
871 2.92166 7.45049 6.92949 0.25
872 5.87989 3.02869 5.10732 0.25
873 0.154054 0.0803971 0.310417 0.25
874 3.97117 1.15221 6.29828 0.25
875 2.34833 4.27308 1.14778 0.5
876 1.56985 5.55747 5.44416 0.25
877 8.22018 5.05332 7.75561 0.25
878 5.85909 0.96822 2.63782 0.25
879 3.15929 8.22296 4.60709 0.25
880 6.43293 6.01591 3.08506 0.25
881 7.40588 1.13032 1.35439 0.25
882 7.9673 7.16778 7.38022 0.25
883 0.438364 3.88156 2.01406 0.25
884 7.32733 3.22081 1.02343 0.25
885 0.866987 4.16768 5.27832 0.25
886 7.97663 7.48329 3.19237 0.25
887 1.09283 6.75259 1.40292 0.25
888 0.975077 4.76165 3.70673 0.25
889 1.46728 7.97892 2.71455 0.25
890 0.367753 4.6758 2.47218 0.25
891 1.05585 2.10351 7.51958 0.25
892 7.59871 3.61866 0.989269 0.25
893 1.17154 7.63353 0.438549 0.25
894 4.0394 5.93395 1.29294 0.25
895 3.80081 5.86886 0.870604 0.25
896 1.73014 1.38515 8.28474 0.25
897 8.17119 4.25919 1.45288 0.25
898 0.533398 4.78524 3.97862 0.25
899 1.01935 8.11017 6.24996 0.25
900 5.13252 6.24769 5.59449 0.25
901 0.863491 1.52593 2.78006 0.25
902 7.42426 4.06173 1.12553 0.25
903 5.89128 3.71224 3.97094 0.25
904 6.85469 4.16402 7.72109 0.25
905 5.19594 0.988374 5.7257 0.25