ITEM: TIMESTEP
760000
ITEM: NUMBER OF ATOMS
1000
ITEM: BOX BOUNDS xy xz yz pp pp pp
0.0000000000000000e+00 8.3788359999999997e+00 0.0000000000000000e+00
0.0000000000000000e+00 8.3788359999999997e+00 0.0000000000000000e+00
0.0000000000000000e+00 8.3788359999999997e+00 0.0000000000000000e+00
ITEM: ATOMS id x y z radius
1 2.32716 6.82606 4.84865 0.25
2 4.88002 5.02108 5.38161 0.25
3 7.00118 4.65193 3.13845 0.25
4 7.37236 1.05537 5.84631 0.5
5 1.20682 5.40802 6.0921 0.25
6 8.24269 1.73638 3.42669 0.25
7 4.38604 3.2557 6.65091 0.25
8 4.82005 7.68238 3.1825 0.25
9 0.752686 6.122 3.77519 0.25
10 4.13461 1.55769 3.4397 0.25
11 5.3558 0.0581227 7.89585 0.25
12 5.08802 3.42899 1.3248 0.25
13 0.642978 2.40329 7.61891 0.25
14 3.85804 2.85219 7.16734 0.25
15 8.21639 2.95225 5.92918 0.25
16 7.54788 1.06178 6.69713 0.25
17 0.976453 5.32898 8.28904 0.25
18 6.02355 7.4738 8.10421 0.25
19 4.70842 1.8281 7.68396 0.25
20 7.85831 1.30465 0.712709 0.25
21 4.72252 4.13043 1.70724 0.25
22 4.17398 3.18268 1.07265 0.25
23 2.13857 3.33725 1.97269 0.25
24 2.92635 2.04158 4.56684 0.25
25 2.78699 4.53699 2.96702 0.25
26 0.397349 8.38444 5.58868 0.25
27 3.80653 0.504452 5.86156 0.25
28 4.35199 1.9271 0.0811196 0.25
29 5.04346 6.84953 3.0839 0.25
30 7.5577 7.23461 2.31151 0.25
31 2.7369 0.296465 7.92519 0.25
32 1.04062 2.72554 7.43507 0.25
33 7.75694 0.239438 5.08505 0.25
34 2.01633 5.62653 1.67063 0.25
35 7.9408 0.129187 4.58449 0.25
36 6.77209 2.00548 5.84316 0.5
37 4.1551 1.37582 2.21917 0.25
38 2.09157 3.36235 4.17956 0.25
39 6.06093 2.64114 4.77598 0.25
40 5.26337 7.59865 3.37096 0.25
41 6.57392 2.13545 2.85771 0.25
42 5.60694 6.11712 5.90547 0.25
43 3.49885 7.50062 4.6403 0.25
44 3.72887 0.0594846 5.54557 0.25
45 5.48943 3.95571 3.92076 0.25
46 3.21806 6.08118 1.47719 0.5
47 4.92777 1.03863 5.53664 0.25
48 8.203 6.26302 6.86962 0.25
49 7.25101 6.7545 4.79259 0.25
50 7.94437 1.10477 1.18383 0.25
51 2.56362 3.40161 4.3507 0.25
52 0.712282 1.572 2.37533 0.25
53 6.49335 5.11661 6.96375 0.25
54 5.93038 3.17443 3.85995 0.25
55 1.67536 1.13255 5.91605 0.25
56 1.3626 7.41794 0.507467 0.25
57 4.69545 0.647779 2.03808 0.25
58 2.25233 2.115 4.0798 0.25
59 4.60642 1.40727 6.36714 0.25
60 7.66856 5.43945 5.27506 0.25
61 4.98264 8.0965 8.04688 0.25
62 5.46245 1.96776 0.0433989 0.5
63 7.45343 6.59554 1.08855 0.25
64 1.18165 6.16522 0.800397 0.25
65 4.23579 0.0385698 1.9373 0.25
66 2.1632 4.86915 7.04375 0.25
67 8.2876 4.92247 7.33275 0.25
68 7.33895 0.691311 6.50861 0.25
69 0.50094 5.54844 7.61447 0.25
70 1.6308 4.91035 1.09074 0.25
71 8.13764 1.33413 0.338002 0.25
72 6.36474 6.19146 3.44681 0.25
73 0.591569 7.78508 6.79343 0.25
74 7.53475 5.58838 6.76112 0.25
75 7.23083 8.25437 3.27491 0.25
76 7.44917 6.43639 4.43398 0.25
77 5.6462 2.98077 5.32262 0.25
78 5.27596 3.8579 1.06713 0.25
79 7.57823 5.05588 4.53782 0.25
80 5.86523 3.44346 5.26507 0.25
81 7.07729 1.32103 1.12754 0.25
82 0.155334 2.51516 5.83799 0.25
83 4.51774 5.90521 5.46052 0.25
84 1.13533 1.25177 5.82277 0.25
85 1.53764 1.04154 5.12081 0.25
86 4.58902 0.123629 5.49239 0.25
87 1.92488 2.34722 0.721009 0.25
88 3.21391 6.78068 1.72308 0.25
89 6.87716 7.3085 0.769994 0.25
90 5.68902 6.44512 5.61065 0.25
91 4.26177 4.20324 6.24573 0.25
92 6.22512 4.63593 7.44234 0.25
93 5.29108 6.59043 5.30099 0.25
94 6.79043 0.0502112 3.99914 0.25
95 0.345589 4.51455 7.82526 0.5
96 5.42178 2.97439 3.31193 0.5
97 4.25056 5.08132 8.24374 0.25
98 -0.013427 2.18751 3.39461 0.25
99 1.46734 6.17706 5.99696 0.25
100 6.94098 6.88381 1.0164 0.25
101 0.811861 7.67668 8.28202 0.25
102 7.87214 4.78096 3.32404 0.25
103 6.63862 1.09199 1.34489 0.25
104 1.02813 4.68913 7.59923 0.25
105 5.26447 5.74487 5.32904 0.5
106 5.33361 0.43637 4.64089 0.25
107 4.32153 3.16333 7.13996 0.25
108 4.88503 1.33853 8.25619 0.25
109 0.745133 0.908994 5.62659 0.25
110 2.25996 7.91001 8.25304 0.25
111 3.29149 3.87696 6.94766 0.25
112 4.74653 2.05295 8.09367 0.25
113 1.60008 1.95993 1.8036 0.5
114 1.88249 3.68104 7.2162 0.25
115 4.49134 6.53884 6.0303 0.25
116 2.43491 7.06927 7.02013 0.25
117 4.16408 2.24427 3.55301 0.5
118 6.71495 7.29548 1.26899 0.25
119 0.932095 6.28857 3.29144 0.25
120 0.06583 2.87476 2.96639 0.25
121 3.14727 4.0985 3.56455 0.25
122 6.87458 0.801327 6.38244 0.25
123 5.24749 0.636142 5.64652 0.25
124 8.09913 7.96556 2.42861 0.25
125 3.47533 2.08913 3.81852 0.25
126 3.58975 1.31123 5.80808 0.25
127 5.13522 3.88929 1.53587 0.25
128 6.78443 5.43575 7.31377 0.25
129 1.05792 6.38975 4.06661 0.25
130 5.84857 6.12469 0.386816 0.25
131 7.06628 1.62909 6.36306 0.25
132 5.98602 4.17519 7.5329 0.25
133 3.09775 1.79696 3.59988 0.25
134 4.45082 2.3928 8.27691 0.25
135 5.36409 3.81937 3.45016 0.25
136 2.92384 2.5549 3.67129 0.5
137 2.93858 4.11476 3.06874 0.25
138 7.60714 7.70083 2.87706 0.5
139 2.6527 7.48675 5.26847 0.25
140 5.07587 7.6604 7.97268 0.25
141 7.70793 5.90724 5.06643 0.25
142 0.887065 5.01908 3.21095 0.25
143 2.35859 2.08931 8.29209 0.25
144 5.12206 1.02023 2.66703 0.5
145 7.53226 1.93992 3.91821 0.25
146 6.01695 7.39964 0.19448 0.25
147 6.44664 5.65541 4.53632 0.25
148 2.25962 3.01873 4.51906 0.25
149 4.58598 8.17898 2.60938 0.5
150 5.0617 3.01803 3.95461 0.25
151 3.48323 5.81486 7.24776 0.25
152 3.84281 4.43459 5.56166 0.25
153 6.76573 6.02157 2.22931 0.5
154 7.24139 2.31238 4.51965 0.5
155 2.93779 7.11626 7.72491 0.25
156 7.46779 3.46059 1.4088 0.25
157 7.62107 5.87632 1.47423 0.25
158 2.4891 3.90631 0.877209 0.25
159 7.12463 7.79203 4.44546 0.25
160 6.46167 1.7443 3.09225 0.25
161 0.657755 5.21436 2.80791 0.25
162 5.94701 4.40175 7.09158 0.25
163 3.27896 3.7856 4.28826 0.5
164 2.48298 3.92472 2.47036 0.5
165 5.34687 7.9976 7.71292 0.25
166 0.111294 3.7291 7.90343 0.25
167 6.61466 3.98989 8.211 0.25
168 4.79053 6.15151 5.79553 0.25
169 4.30453 4.39651 5.724 0.25
170 8.29149 2.64307 6.27924 0.25
171 7.73443 5.83171 0.980458 0.25
172 1.22254 2.98325 6.98134 0.25
173 4.38687 6.42257 5.60259 0.25
174 2.35158 2.22961 0.981222 0.25
175 7.69216 2.45227 5.9254 0.5
176 2.3942 5.86656 6.06227 0.25
177 5.32795 3.486 3.86069 0.25
178 2.96964 6.50353 2.05814 0.25
179 3.48176 2.0491 3.33065 0.25
180 5.92087 6.46645 6.08759 0.25
181 6.76509 4.22217 6.84834 0.25
182 3.19062 5.28576 3.40739 0.25
183 8.04134 7.53077 1.66751 0.25
184 3.79779 5.32324 8.31479 0.25
185 5.78002 6.96808 6.2541 0.25
186 7.45156 5.95227 4.60212 0.25
187 2.88445 5.09516 4.12725 0.25
188 0.640912 5.88124 3.32521 0.25
189 4.14633 6.65909 3.45334 0.25
190 3.89807 3.53404 1.27298 0.25
191 7.17914 1.68676 0.560739 0.5
192 1.03892 5.00525 7.94097 0.25
193 3.79388 5.49734 1.16186 0.25
194 2.57177 6.26543 1.89907 0.25
195 6.11291 5.67539 2.59617 0.25
196 2.24443 8.00427 2.8018 0.25
197 1.23598 0.210872 2.15397 0.25
198 7.79355 4.84683 7.33151 0.25
199 1.17611 1.25341 3.15806 0.25
200 4.45362 5.24757 1.47742 0.5
201 6.80703 1.34341 3.05489 0.25
202 8.28463 3.84794 5.4815 0.25
203 3.64313 1.66425 3.5871 0.25
204 5.5694 8.01765 0.0972316 0.5
205 2.34481 7.58657 4.58226 0.5
206 0.35161 4.48099 5.25772 0.25
207 5.73147 2.68722 3.96622 0.25
208 6.81762 5.36772 4.3218 0.25
209 5.40177 7.04415 8.29379 0.5
210 1.83439 8.10449 3.06937 0.25
211 0.66107 3.73032 5.04544 0.25
212 1.50168 7.95926 0.0194017 0.5
213 0.170052 3.96317 2.75268 0.25
214 1.79062 7.96525 2.55079 0.25
215 2.84959 4.24936 3.93638 0.25
216 6.22612 1.83483 2.61649 0.25
217 4.77375 3.64934 1.69515 0.25
218 2.41988 3.39749 4.83726 0.25
219 4.3469 0.92199 2.8844 0.25
220 3.4584 3.59725 0.957499 0.25
221 4.1611 0.155624 5.77261 0.25
222 7.3784 0.553011 5.1716 0.25
223 8.13761 2.64821 2.57676 0.25
224 7.28957 5.52185 7.24304 0.25
225 7.25016 2.14788 5.34592 0.25
226 5.0848 2.1295 7.79514 0.25
227 6.49886 3.81729 6.97983 0.25
228 5.50851 3.05885 4.06054 0.25
229 5.62923 4.95842 1.85675 0.25
230 0.305981 8.26344 6.34292 0.5
231 5.20416 4.5695 1.29871 0.5
232 1.92132 2.84552 4.21087 0.25
233 3.82019 5.2962 4.41292 0.25
234 6.63125 1.62766 6.5392 0.25
235 3.05314 7.19086 4.55141 0.25
236 0.988054 2.46089 7.93756 0.25
237 8.31691 3.05059 7.50204 0.25
238 3.5051 0.751498 1.21356 0.25
239 0.363501 2.32524 3.7427 0.25
240 6.62105 6.26175 1.50527 0.25
241 3.33383 7.06921 7.98234 0.25
242 1.84431 7.36927 2.86175 0.5
243 2.98737 4.83663 3.32327 0.25
244 7.00702 3.43166 1.19645 0.25
245 2.19645 1.18706 5.92481 0.25
246 7.60657 8.13458 3.59103 0.25
247 3.52608 2.52377 3.44267 0.25
248 3.68418 3.16272 1.09475 0.25
249 0.339358 5.15232 7.27972 0.25
250 1.39318 3.73865 5.34483 0.25
251 5.31059 2.71988 4.62579 0.5
252 3.24206 2.28301 4.239 0.25
253 8.10497 5.62086 7.28962 0.5
254 7.46023 5.96385 7.14547 0.25
255 4.61211 0.659771 6.08665 0.5
256 5.47421 6.29749 0.151734 0.25
257 1.17413 0.0813771 2.66364 0.25
258 1.61922 1.68043 2.53859 0.25
259 4.3539 3.35389 1.49009 0.25
260 7.80259 6.27632 1.20949 0.25
261 3.95613 8.09561 1.64311 0.25
262 3.55521 2.49552 3.96341 0.25
263 2.27278 0.255922 0.14012 0.5
264 2.82669 4.37312 3.48182 0.25
265 1.21373 3.94428 7.47033 0.5
266 0.887106 7.80496 7.48789 0.5
267 5.38412 2.51452 7.84704 0.25
268 6.30998 7.7961 0.0485276 0.25
269 1.44428 5.363 0.940352 0.25
270 3.81756 3.43031 0.767267 0.25
271 7.52792 7.79777 4.77992 0.25
272 1.73165 1.0117 2.54614 0.25
273 1.47718 3.34543 7.06606 0.25
274 0.9463 5.52101 7.81727 0.25
275 4.47971 4.52451 1.4589 0.25
276 2.66008 3.22649 1.11911 0.25
277 6.71718 1.11932 6.71201 0.25
278 3.94615 6.25316 1.36 0.25
279 4.12591 0.588524 5.13805 0.5
280 7.82904 8.20095 4.92786 0.25
281 1.03566 6.62121 0.646247 0.25
282 6.14008 7.19928 6.50458 0.25
283 1.06483 0.115292 6.17184 0.25
284 7.24771 4.39935 0.958765 0.25
285 1.82726 6.05946 1.12356 0.5
286 5.48774 6.64402 3.2141 0.25
287 1.35577 7.93253 3.64472 0.5
288 2.74824 7.10242 4.93874 0.25
289 2.23529 7.18327 5.18062 0.25
290 1.97573 3.7669 1.91992 0.25
291 8.2154 7.59691 7.16169 0.25
292 7.72138 2.49862 3.23891 0.25
293 7.44493 4.50011 3.40023 0.25
294 5.23182 3.65716 3.00009 0.25
295 8.06261 4.13804 1.15395 0.25
296 0.486153 4.18002 4.57609 0.5
297 3.98577 3.17672 6.83586 0.25
298 6.3611 5.14116 7.44348 0.25
299 5.92646 4.95845 7.63484 0.25
300 6.29931 3.4778 0.430671 0.25
301 1.1526 7.43 8.06239 0.25
302 0.0696624 4.15417 1.53001 0.25
303 4.02944 0.921566 1.13539 0.25
304 2.1026 2.6186 4.67617 0.25
305 0.7984 4.82058 8.34539 0.25
306 2.35444 2.17164 4.57433 0.25
307 1.76443 4.73877 7.72664 0.5
308 3.44044 4.99019 3.17954 0.25
309 4.42037 1.15054 5.57242 0.25
310 0.954942 4.66272 4.12009 0.25
311 7.26851 0.0205344 3.82 0.25
312 0.981236 0.848 2.45675 0.5
313 0.929711 3.78213 5.44887 0.25
314 5.06444 3.31858 2.62526 0.25
315 1.06352 4.51651 8.03414 0.25
316 1.8409 4.16734 7.11875 0.25
317 7.50187 2.41446 3.76938 0.25
318 2.33066 2.59669 4.23069 0.25
319 4.77064 7.34548 7.99167 0.25
320 1.9589 6.08809 6.05059 0.25
321 4.38504 0.576895 1.24649 0.25
322 7.03428 6.44696 5.14081 0.25
323 0.70535 6.02269 4.25984 0.25
324 4.00639 7.26672 7.70599 0.5
325 0.880165 1.88097 0.334712 0.25
326 4.21986 4.84762 5.03375 0.5
327 7.43402 7.25228 3.5207 0.25
328 2.34632 7.81798 1.94371 0.25
329 1.14216 5.85014 3.46529 0.25
330 8.26996 7.10496 7.30859 0.25
331 0.709972 5.36075 3.9048 0.5
332 7.3869 6.51465 2.07542 0.25
333 1.03975 1.45644 1.98367 0.25
334 6.76735 1.5843 1.30191 0.25
335 3.14797 3.13725 0.969518 0.25
336 2.8895 6.94715 6.81308 0.25
337 4.37998 7.13837 3.01433 0.5
338 6.46345 7.32852 0.0136636 0.25
339 2.02978 8.08086 4.09813 0.25
340 4.8821 0.646796 4.85719 0.25
341 6.73442 8.30741 3.17295 0.25
342 1.19636 5.20978 7.53054 0.25
343 2.89879 1.31516 0.305141 0.25
344 0.994899 5.54706 2.59388 0.25
345 0.463591 1.34405 2.71176 0.25
346 0.461851 2.44292 8.05253 0.25
347 3.38641 5.80697 7.7425 0.25
348 7.33698 7.70323 2.17431 0.25
349 0.781245 2.19875 8.36366 0.25
350 6.70449 1.68323 2.65342 0.25
351 1.45495 6.98615 0.76854 0.25
352 6.43367 3.56592 7.67048 0.5
353 2.45454 8.34485 7.45083 0.25
354 1.93843 0.701383 5.92117 0.25
355 0.734512 0.495278 6.01713 0.25
356 1.84504 1.93501 5.98629 0.25
357 3.10906 4.14698 6.58291 0.25
358 6.28963 3.40656 5.01466 0.25
359 4.13942 1.18377 6.36492 0.25
360 1.93057 2.06966 1.13649 0.25
361 0.957416 7.73995 0.433583 0.25
362 6.27416 4.17778 6.71856 0.25
363 7.87737 3.88678 2.09332 0.25
364 6.05401 3.89926 7.09367 0.25
365 5.39293 6.19975 0.603445 0.25
366 5.51726 6.57176 0.938753 0.25
367 3.07592 4.40055 6.96922 0.25
368 7.01255 3.70062 8.16667 0.25
369 1.22741 6.90645 0.322505 0.25
370 5.50018 0.374432 8.22673 0.25
371 2.83969 7.88949 5.02494 0.25
372 1.9965 4.75714 0.793345 0.25
373 6.95478 2.83782 5.03881 0.25
374 3.68013 4.44366 4.55463 0.25
375 5.45095 0.833679 7.98637 0.25
376 2.58618 5.86333 1.09532 0.25
377 6.36077 1.40145 1.99619 0.5
378 0.419682 3.83426 7.51728 0.25
379 5.26198 1.31199 7.91428 0.25
380 2.07422 6.87879 4.41808 0.25
381 4.1501 5.59722 5.37411 0.25
382 1.87417 7.05967 4.84087 0.25
383 6.2362 5.25528 3.91936 0.5
384 2.16783 1.69321 1.35355 0.25
385 7.18124 1.57781 7.09998 0.5
386 1.4759 1.30022 5.52542 0.25
387 7.91247 0.83347 0.818752 0.25
388 0.557369 5.73241 2.86974 0.25
389 4.59572 2.623 7.59261 0.5
390 3.90812 0.808631 6.31717 0.25
391 5.22578 4.69854 2.12269 0.25
392 8.18194 2.46394 3.06457 0.25
393 2.73263 6.60024 1.61752 0.25
394 0.814131 8.15622 8.14559 0.25
395 2.5965 1.90432 1.17639 0.25
396 4.58906 7.77855 8.08444 0.25
397 5.12663 0.666082 8.38749 0.25
398 7.44311 1.52679 8.24244 0.25
399 3.2497 4.46863 3.19944 0.25
400 4.80429 4.46364 0.675035 0.25
401 2.20085 7.18557 3.9494 0.25
402 8.19253 8.01111 6.82338 0.25
403 7.56478 6.26489 0.734545 0.25
404 8.09819 6.75269 7.03018 0.25
405 0.52118 7.61335 0.278207 0.25
406 5.5072 0.00185838 4.53009 0.25
407 2.59625 1.02699 8.04967 0.5
408 5.37456 3.30441 2.24176 0.25
409 2.08591 4.98242 1.25954 0.25
410 7.5607 0.864904 0.158632 0.5
411 4.59103 5.40905 5.22493 0.25
412 8.28121 7.20319 6.85377 0.25
413 1.14467 1.47236 0.274314 0.25
414 0.592455 3.13319 7.9152 0.5
415 6.47117 4.64484 2.97581 0.25
416 3.2331 3.17841 6.38936 0.25
417 3.3951 4.72437 3.90217 0.5
418 7.05263 6.7517 4.38193 0.25
419 4.42779 3.88975 5.95151 0.25
420 0.828069 3.09345 4.84348 0.25
421 4.10323 4.83016 5.75417 0.25
422 2.27285 5.46157 1.22757 0.25
423 0.288267 0.411176 5.81793 0.25
424 0.452017 3.40095 4.77207 0.25
425 1.90599 2.84107 1.31312 0.5
426 6.99196 5.67606 5.05097 0.5
427 2.69868 2.20167 4.20907 0.25
428 3.9732 5.17213 3.93468 0.25
429 4.62819 4.73242 5.73196 0.25
430 1.83469 7.29222 3.6093 0.25
431 1.00637 3.46565 6.90973 0.25
432 1.43423 7.0558 4.21495 0.5
433 2.42349 1.58118 7.6604 0.25
434 0.789207 6.45183 1.02286 0.25
435 5.59329 3.41133 2.68926 0.25
436 1.00972 5.94195 2.95215 0.25
437 0.218531 1.14391 0.398365 0.25
438 0.998928 3.45793 5.10053 0.25
439 3.84147 2.68526 6.70763 0.25
440 5.17108 1.67332 7.56912 0.25
441 7.93509 4.20045 5.42914 0.25
442 2.48021 5.783 1.60361 0.25
443 0.455982 2.85018 6.99238 0.5
444 2.08564 3.53425 1.49317 0.25
445 5.37986 7.03306 0.642148 0.25
446 4.1492 5.87038 3.53626 0.5
447 1.47242 1.63436 5.92442 0.25
448 6.03278 7.30454 6.05328 0.25
449 1.0486 5.362 5.64949 0.25
450 2.9237 3.63882 0.986485 0.25
451 2.55146 6.81863 5.30594 0.25
452 2.59966 0.919787 0.400443 0.25
453 4.45638 4.61503 1.00237 0.25
454 0.169157 3.45869 7.39927 0.25
455 8.06055 5.05522 7.7577 0.25
456 3.04858 1.90524 4.06007 0.25
457 2.61693 3.86924 7.1587 0.5
458 0.110893 7.66138 6.71192 0.25
459 4.94936 7.62313 0.0285584 0.25
460 5.65535 0.189976 4.96366 0.25
461 2.55239 3.68355 1.32496 0.25
462 6.20442 4.96962 3.20378 0.25
463 5.12822 7.31591 3.00282 0.25
464 7.54206 6.82496 6.95062 0.25
465 7.07051 2.60713 5.53782 0.25
466 4.04358 1.32082 3.02836 0.25
467 3.86132 6.11545 1.84661 0.25
468 6.80612 5.3233 2.947 0.5
469 7.45982 7.29785 6.74837 0.25
470 0.653912 1.44899 0.383967 0.25
471 1.93218 0.977364 6.30632 0.25
472 1.89313 7.57844 2.08162 0.25
473 7.42018 5.10208 5.4625 0.25
474 5.14379 5.94425 6.0597 0.25
475 1.40082 1.3049 2.75874 0.25
476 7.16819 0.866312 7.41407 0.25
477 3.17565 5.43982 3.91189 0.25
478 6.23388 3.36821 6.98398 0.25
479 3.32974 7.19015 7.45851 0.25
480 4.74401 0.10238 1.964 0.25
481 7.84293 2.26735 4.05357 0.25
482 7.05359 5.09376 4.63705 0.25
483 8.09894 5.58758 5.01396 0.25
484 3.07044 0.394337 8.24081 0.25
485 7.93008 7.57071 6.75971 0.25
486 2.3906 6.29928 5.86854 0.25
487 8.23041 7.74875 4.2985 0.25
488 4.73622 4.30004 5.97942 0.25
489 0.675393 8.06912 0.217592 0.25
490 8.08912 7.94506 1.9249 0.25
491 4.40704 2.85605 1.387 0.25
492 2.59276 1.76565 4.28736 0.25
493 6.38381 4.59267 6.98275 0.25
494 4.86001 7.51533 2.62836 0.25
495 1.23079 5.77799 5.83804 0.25
496 3.06858 7.49094 4.96619 0.25
497 6.44763 4.30578 7.76384 0.25
498 3.41436 2.98375 4.085 0.25
499 0.693207 5.09416 7.63733 0.25
500 4.1292 2.96807 6.39785 0.25
501 5.74531 3.59436 3.65486 0.25
502 1.65177 8.01193 7.69474 0.25
503 5.83832 4.94672 2.57473 0.5
504 7.81727 7.62873 2.13077 0.25
505 5.90574 1.45622 2.60178 0.25
506 7.05872 6.33619 4.6748 0.25
507 1.27883 0.45 2.95274 0.25
508 0.75305 0.025077 5.29118 0.25
509 8.11977 4.87616 5.08087 0.5
510 4.88174 1.84004 5.73529 0.25
511 0.615914 0.465281 5.49268 0.25
512 1.0573 0.802273 3.22788 0.25
513 3.92013 1.20283 5.41579 0.25
514 2.03366 5.55674 5.95838 0.25
515 0.510758 8.26465 7.00188 0.25
516 7.52195 1.72077 6.05307 0.25
517 7.31852 5.49188 4.4436 0.25
518 0.899368 3.56013 4.61012 0.25
519 6.36778 1.86108 1.39494 0.25
520 7.07711 2.41099 6.39032 0.25
521 7.81746 1.6039 0.227639 0.25
522 6.88976 1.16725 7.66785 0.25
523 5.34775 6.84158 5.64403 0.25
524 2.71225 0.409421 7.46556 0.25
525 6.40891 4.21587 7.23032 0.25
526 7.04864 5.29225 6.89846 0.25
527 7.46651 7.96611 4.03964 0.25
528 7.52681 1.50339 6.49159 0.25
529 6.64282 1.18967 2.6099 0.25
530 2.03577 1.82684 6.46167 0.25
531 7.90168 7.85584 3.92888 0.25
532 1.51523 0.894853 2.97336 0.25
533 7.37465 1.16848 7.8089 0.25
534 8.0656 5.84362 1.32206 0.25
535 0.384535 3.25283 5.51946 0.5
536 6.91489 2.71879 6.02038 0.25
537 3.94063 0.991151 5.84242 0.25
538 6.50893 5.16929 4.65046 0.25
539 2.2355 1.31412 6.4599 0.25
540 8.12919 6.34533 1.85068 0.5
541 7.53784 3.8987 1.68897 0.25
542 2.16962 1.98153 7.82105 0.25
543 3.21742 7.29008 7.00139 0.25
544 7.81913 6.54147 6.63172 0.25
545 1.16545 5.93107 3.9633 0.25
546 4.69266 6.10107 6.28827 0.25
547 5.44918 2.73597 8.27207 0.25
548 5.995 7.51075 6.85282 0.25
549 0.201927 7.94399 7.10387 0.25
550 6.14444 6.97301 8.30786 0.25
551 4.39226 1.32268 2.62553 0.25
552 3.62537 5.48152 3.99882 0.25
553 6.84231 7.78384 3.68443 0.5
554 4.3746 6.39076 3.11603 0.25
555 4.9105 6.51702 3.64995 0.5
556 7.40639 0.59909 0.817682 0.25
557 7.24903 5.04889 3.83087 0.5
558 6.46767 0.0186451 3.63122 0.25
559 1.345 0.524589 5.61488 0.5
560 4.8922 3.35607 2.12354 0.25
561 2.93354 3.18046 4.01411 0.25
562 5.08543 0.202462 5.56429 0.25
563 2.20692 6.57617 1.65832 0.25
564 6.19652 6.93067 0.731023 0.5
565 6.86764 2.05017 6.59688 0.25
566 1.20304 1.64098 2.40458 0.25
567 4.33405 6.08528 5.94698 0.25
568 5.88154 1.0507 2.83992 0.25
569 2.50958 8.22994 7.94615 0.25
570 1.84474 6.5877 4.74849 0.25
571 3.28979 4.18435 7.36253 0.25
572 8.19215 2.83391 3.73544 0.5
573 3.93896 1.55208 2.61874 0.25
574 1.60678 5.72586 6.16334 0.25
575 2.23508 1.63004 8.1754 0.25
576 4.19005 5.57194 7.63659 0.25
577 5.24582 0.395306 5.15591 0.25
578 1.87038 7.58351 3.96891 0.25
579 7.58712 5.19411 7.56334 0.25
580 7.21537 0.129339 4.55776 0.5
581 4.40978 4.64152 6.14606 0.25
582 5.94278 2.97902 4.37569 0.25
583 5.85368 3.69305 4.44104 0.5
584 4.82686 6.64977 5.64245 0.25
585 4.67327 3.13228 1.12937 0.25
586 1.87836 0.306566 2.64004 0.5
587 5.00244 7.00182 2.62606 0.25
588 5.75718 5.16478 3.30564 0.25
589 0.164907 2.62395 7.62777 0.25
590 3.50824 6.51588 1.97931 0.25
591 6.62227 1.28544 0.891273 0.25
592 7.41442 7.09822 1.64222 0.5
593 6.67228 6.76799 1.40649 0.25
594 1.4388 4.90429 0.294611 0.5
595 0.565682 3.83026 7.96819 0.25
596 2.2002 0.834973 0.693767 0.25
597 0.0760525 0.386573 5.00063 0.5
598 2.48025 6.21801 1.44459 0.25
599 2.07535 8.24313 7.85565 0.25
600 7.81394 0.734177 5.24672 0.25
601 0.676584 0.832953 5.13414 0.25
602 3.95463 0.135592 2.31712 0.25
603 4.23605 5.54443 8.12891 0.25
604 7.58508 5.18691 7.0352 0.25
605 7.87762 2.11736 3.61081 0.25
606 2.36406 8.20466 2.28892 0.25
607 4.49731 5.22768 7.86369 0.25
608 3.48664 7.61039 7.2833 0.25
609 6.72091 4.86661 4.35695 0.25
610 1.93089 1.51235 5.69465 0.25
611 3.11743 0.579961 7.73981 0.25
612 0.99384 7.36875 0.160169 0.25
613 7.05374 1.24759 8.18786 0.25
614 4.71127 1.03964 5.09713 0.25
615 4.84665 2.62783 3.57123 0.25
616 0.937234 5.4994 3.12709 0.25
617 1.46739 8.21769 2.35612 0.25
618 7.58545 7.25572 4.28127 0.5
619 7.80118 7.97968 4.44045 0.25
620 8.36887 7.23192 2.29258 0.5
621 4.18469 6.51804 3.97721 0.25
622 6.02648 6.68317 6.52438 0.25
623 5.8274 6.22021 0.850869 0.25
624 1.22976 3.30598 5.57456 0.25
625 1.37616 5.35219 8.01279 0.25
626 3.58222 0.233488 1.41719 0.25
627 4.77472 4.61037 1.85373 0.25
628 8.21157 3.36231 2.44334 0.5
629 7.12178 3.35742 0.166654 0.25
630 1.43391 0.0599327 3.16331 0.25
631 1.99801 1.51445 7.79802 0.25
632 7.59837 7.82472 1.74691 0.25
633 6.08832 7.69832 0.568465 0.25
634 2.89252 7.8917 4.14067 0.25
635 0.784648 7.24055 0.888401 0.5
636 1.73124 1.60126 1.16939 0.25
637 5.62937 0.397902 5.4551 0.25
638 4.80575 1.48249 5.37511 0.25
639 4.79237 1.73697 0.110564 0.25
640 5.17896 7.48505 0.477076 0.25
641 1.1353 6.59275 5.32222 0.25
642 3.60242 0.860652 5.52809 0.25
643 6.23852 6.86596 6.13334 0.25
644 5.81312 0.638416 2.62855 0.25
645 2.26127 2.1733 1.49489 0.25
646 8.29752 6.73569 6.55968 0.25
647 2.41586 3.01143 4.00759 0.25
648 5.31118 1.13364 0.00389597 0.25
649 0.377108 4.08787 1.97175 0.25
650 8.26808 3.73751 1.35547 0.25
651 3.3038 3.25223 3.67455 0.25
652 6.72354 0.999177 7.19836 0.25
653 1.2894 6.61658 1.02078 0.25
654 0.478416 2.59042 0.117496 0.25
655 3.76242 3.68893 6.39076 0.5
656 0.662769 3.51511 7.23406 0.25
657 1.54994 5.41528 5.76985 0.25
658 6.9191 0.211172 3.5444 0.25
659 2.63947 1.81225 7.9842 0.25
660 6.8567 6.04177 4.04644 0.5
661 8.31317 1.05575 8.3168 0.25
662 3.96132 4.84407 4.34176 0.25
663 2.44519 3.68829 1.79174 0.25
664 6.56881 2.60303 4.78148 0.25
665 7.79632 3.78451 1.24269 0.25
666 5.76376 7.05643 6.77667 0.25
667 6.66673 3.49291 0.0663021 0.25
668 6.97594 6.536 1.78754 0.25
669 6.0197 4.92897 7.15288 0.25
670 5.56562 8.04708 4.91452 0.25
671 3.51806 4.98684 4.57914 0.25
672 2.63323 3.19523 2.05899 0.25
673 0.685971 1.10623 3.10982 0.25
674 4.90845 7.23938 3.4155 0.25
675 5.55023 3.84191 5.10533 0.25
676 7.64793 8.07464 2.25117 0.25
677 6.31339 1.43415 1.2452 0.25
678 7.46755 6.28301 4.94284 0.25
679 1.1412 6.26218 1.3367 0.25
680 3.65546 6.68934 8.05518 0.25
681 7.71249 8.33062 4.07631 0.25
682 2.10295 6.10264 1.74285 0.25
683 1.6447 7.7084 7.29867 0.25
684 0.386496 3.75421 1.58485 0.25
685 3.05422 3.6557 6.57622 0.25
686 4.30135 2.78685 6.86837 0.25
687 1.60771 4.50086 0.915098 0.25
688 3.52875 0.821324 6.02631 0.25
689 6.13272 4.09605 8.02779 0.25
690 6.18152 0.994559 2.5133 0.25
691 7.07563 1.19456 1.60589 0.25
692 5.09833 4.99751 1.77432 0.25
693 7.33543 1.97651 6.43429 0.25
694 7.39218 5.07324 5.00321 0.25
695 0.297984 2.90687 6.16978 0.25
696 5.63306 5.87643 3.18524 0.5
697 4.46259 3.73501 6.49627 0.25
698 1.92344 1.05749 5.51511 0.25
699 1.39983 6.86023 4.9298 0.25
700 4.22062 5.82491 1.13259 0.25
701 5.01901 1.67324 8.03952 0.25
702 2.22816 4.45348 7.27705 0.25
703 3.31004 6.51124 7.39136 0.5
704 4.66405 5.39305 8.28695 0.25
705 4.80739 3.17518 1.62874 0.25
706 5.0529 0.131875 8.32021 0.25
707 4.54029 3.90026 1.013 0.5
708 5.57135 7.57074 7.82398 0.25
709 2.55628 7.09303 2.12468 0.5
710 2.17793 4.45157 6.80629 0.25
711 5.17342 6.42772 2.91546 0.25
712 0.586175 5.23881 8.03632 0.25
713 2.70527 4.06896 1.72086 0.25
714 5.20197 4.1439 0.64688 0.25
715 4.74924 6.51874 2.8205 0.25
716 6.75169 0.692979 7.59512 0.25
717 7.53551 7.70092 3.60764 0.25
718 6.19092 3.72306 6.60244 0.25
719 5.98183 4.52488 7.89927 0.25
720 1.67795 7.79496 4.32686 0.25
721 6.51953 2.09294 2.35382 0.25
722 2.39355 7.81079 3.51454 0.5
723 2.55278 7.64881 2.72952 0.25
724 7.02921 6.45433 1.28299 0.25
725 7.76798 6.39339 7.13274 0.25
726 1.06061 1.12116 5.32445 0.25
727 4.09282 0.160225 1.4777 0.25
728 3.67374 6.18459 7.92494 0.25
729 4.91707 5.75317 3.48698 0.25
730 2.86134 7.06744 7.25184 0.25
731 5.41225 2.95097 2.57316 0.25
732 4.23796 3.61908 6.95688 0.25
733 3.7232 5.46476 7.50338 0.25
734 3.96809 1.08281 2.55582 0.25
735 3.66011 3.01558 6.37312 0.25
736 7.96363 1.41426 8.23083 0.25
737 3.47412 0.292449 0.93456 0.25
738 0.198446 7.98558 0.260142 0.25
739 4.83583 6.05893 3.11068 0.25
740 5.33859 7.10866 3.40591 0.25
741 0.55549 7.91157 0.647747 0.25
742 3.92057 4.431 6.05636 0.25
743 7.1207 0.849994 1.20677 0.25
744 4.42155 0.919762 2.36237 0.25
745 4.0172 4.01864 5.79127 0.25
746 1.29839 6.10871 4.74458 0.5
747 4.39482 0.389725 2.19164 0.25
748 2.66097 6.5956 7.0731 0.25
749 1.49377 1.30804 2.20488 0.25
750 0.0346051 3.37797 1.6787 0.25
751 1.14465 0.80913 4.92444 0.25
752 6.40148 4.81694 7.85662 0.25
753 3.90921 0.791155 1.85916 0.5
754 4.31258 6.00298 1.63617 0.25
755 2.83626 2.61433 1.46726 0.5
756 7.79778 6.83362 7.38849 0.25
757 5.8169 6.85071 5.81095 0.25
758 6.87009 3.98901 7.29086 0.25
759 4.17329 8.30219 5.31252 0.25
760 0.32574 2.50897 3.2287 0.25
761 3.69151 7.14389 7.08039 0.25
762 0.606989 1.74758 3.39489 0.5
763 3.89938 8.02892 2.12527 0.25
764 1.49885 6.55346 0.590383 0.25
765 7.41613 4.8748 3.08169 0.25
766 0.650774 4.24552 2.71641 0.25
767 2.56537 6.84187 7.49735 0.25
768 2.2504 2.96238 5.04558 0.25
769 7.90472 3.57028 1.68798 0.25
770 4.97519 0.926092 7.98345 0.25
771 6.7537 1.2747 6.2009 0.25
772 4.98677 2.4407 8.18168 0.25
773 5.45081 1.02531 5.05379 0.5
774 3.71242 8.2612 5.08969 0.25
775 7.88881 4.32148 2.69528 0.5
776 6.87193 3.94392 0.561176 0.5
777 5.95297 6.57 0.121218 0.25
778 4.77851 8.05816 0.12532 0.25
779 8.16088 8.24414 4.19359 0.25
780 2.26191 1.66707 6.06057 0.25
781 2.69217 1.7013 0.0617438 0.25
782 1.28529 7.85618 0.792141 0.25
783 6.75183 3.14334 0.432139 0.25
784 2.21711 7.74933 2.37829 0.25
785 2.47585 1.70683 6.53537 0.25
786 2.69123 7.84644 2.28595 0.25
787 7.91878 7.04107 6.60182 0.25
788 0.0113849 3.9811 2.28275 0.25
789 3.79855 7.93168 4.68917 0.25
790 7.11154 0.850364 6.89716 0.25
791 0.240915 4.65708 3.21725 0.5
792 2.3054 0.310223 7.79482 0.25
793 8.16804 7.03567 1.55124 0.25
794 5.20689 6.657 6.29512 0.5
795 2.44267 4.23905 3.14103 0.25
796 2.16974 5.94056 5.63788 0.25
797 6.67387 6.45935 0.983184 0.25
798 7.59081 4.26694 1.35747 0.25
799 4.3706 3.36044 6.14226 0.25
800 7.92643 2.02647 3.12769 0.25
801 3.15976 7.77455 6.95557 0.25
802 3.30243 5.33625 4.34873 0.25
803 3.14539 8.23483 7.63307 0.5
804 3.63362 6.95622 1.94677 0.25
805 1.91478 8.10826 2.09916 0.25
806 2.59342 1.84391 3.8062 0.25
807 4.78462 6.31468 5.33872 0.25
808 4.30192 2.01412 7.95375 0.25
809 1.69198 5.86345 5.71534 0.25
810 6.4292 7.63717 6.61313 0.25
811 1.59519 3.21545 4.78827 0.5
812 5.67139 7.39117 0.553665 0.25
813 4.27268 1.72155 2.97278 0.25
814 1.55962 7.54173 7.76416 0.25
815 2.88027 8.16232 4.58836 0.25
816 1.05148 2.99041 5.28971 0.25
817 4.52682 1.62402 8.07643 0.25
818 3.80659 1.74544 3.11997 0.25
819 1.77558 5.31351 1.35514 0.25
820 3.51603 3.045 6.83331 0.25
821 1.52574 1.95881 8.21562 0.5
822 5.93543 4.37978 3.47616 0.5
823 5.07659 0.451759 7.93874 0.25
824 0.834822 0.420257 5.01285 0.25
825 3.84887 5.95551 7.51661 0.25
826 3.19016 3.50634 1.63485 0.5
827 5.66185 7.39208 6.42803 0.25
828 0.246399 2.14554 7.69901 0.25
829 8.25059 8.11455 4.6726 0.25
830 0.837573 1.95504 2.68009 0.25
831 2.44218 4.37553 7.68716 0.25
832 5.698 4.5313 1.92577 0.25
833 1.82074 1.46423 6.21984 0.25
834 4.09332 0.559935 2.60549 0.25
835 6.50645 1.77555 0.936749 0.25
836 3.29702 7.54294 7.77563 0.25
837 4.00222 5.20934 7.89842 0.25
838 7.6283 0.684925 1.21587 0.25
839 6.02159 7.70569 6.41448 0.25
840 6.9971 4.74073 7.35383 0.5
841 3.26289 6.92536 2.15338 0.25
842 0.116195 2.03258 2.65334 0.5
843 6.03682 3.86733 5.14932 0.25
844 4.7742 2.2647 0.196369 0.25
845 7.38272 2.56886 5.20742 0.25
846 3.70326 3.55331 7.45763 0.5
847 1.92945 5.2876 0.888444 0.25
848 1.77538 5.90703 5.25813 0.25
849 5.20595 7.79484 2.90184 0.25
850 6.33687 2.86672 5.48279 0.5
851 5.48403 8.3293 5.32714 0.25
852 7.12777 1.57248 7.8517 0.25
853 4.09969 8.27157 4.76934 0.25
854 4.16819 1.75291 5.84221 0.5
855 0.417981 3.98789 5.42033 0.25
856 0.461634 5.38532 3.21428 0.25
857 3.71352 6.62493 1.57913 0.25
858 2.6858 4.70702 3.81555 0.25
859 6.58598 4.6506 3.90942 0.25
860 7.59636 4.07371 0.908687 0.25
861 4.7317 2.77384 0.0493099 0.25
862 6.60115 4.80319 3.44146 0.25
863 5.20321 6.61384 0.516923 0.25
864 7.7691 6.82603 2.23462 0.25
865 3.77419 5.68827 7.95498 0.25
866 5.10663 8.08174 3.2471 0.25
867 2.02306 4.07402 7.53983 0.25
868 2.1703 1.58607 0.555568 0.5
869 1.03783 3.2162 7.33519 0.25
870 6.15762 5.4244 3.08014 0.25
871 2.72718 7.44394 6.90884 0.25
872 5.86205 3.10386 4.91094 0.25
873 0.400922 7.86928 8.19043 0.25
874 3.66619 1.2624 6.26496 0.25
875 2.10954 4.2576 1.38839 0.5
876 1.40553 5.61907 5.3866 0.25
877 0.164207 5.19685 7.70961 0.25
878 5.78609 1.05943 2.30777 0.25
879 3.33152 7.95794 4.86744 0.25
880 6.4074 5.94244 2.96218 0.25
881 7.51731 1.14626 1.39022 0.25
882 7.82918 7.1926 7.06161 0.25
883 0.473548 3.87557 2.41399 0.25
884 7.1033 3.26187 0.714957 0.25
885 0.800396 4.20519 5.21692 0.25
886 7.96514 7.41959 3.5634 0.25
887 0.956738 6.69354 1.41144 0.25
888 0.866216 4.65244 3.60514 0.25
889 1.39889 8.04575 2.84786 0.25
890 0.286145 4.31361 2.46325 0.25
891 1.15196 2.18853 7.58787 0.25
892 7.44936 3.57828 0.931518 0.25
893 0.996314 8.20469 0.62968 0.25
894 3.88747 5.79227 1.50742 0.25
895 3.73206 5.98921 0.977976 0.25
896 1.90222 1.3277 8.3003 0.25
897 7.96586 4.10427 1.61362 0.25
898 0.487973 4.61803 3.93092 0.25
899 0.755931 0.11718 5.79041 0.25
900 5.18203 6.33829 5.7071 0.25
901 0.912902 1.4524 2.78663 0.25
902 7.27556 3.90558 1.22091 0.25
903 5.7403 3.67068 3.142 0.25
904 6.93603 4.0662 7.77424 0.25
905 5.27108 1.04757 5.87917 0.25