ITEM: TIMESTEP
290000
ITEM: NUMBER OF ATOMS
1000
ITEM: BOX BOUNDS xy xz yz pp pp pp
0.0000000000000000e+00 8.3788359999999997e+00 0.0000000000000000e+00
0.0000000000000000e+00 8.3788359999999997e+00 0.0000000000000000e+00
0.0000000000000000e+00 8.3788359999999997e+00 0.0000000000000000e+00
ITEM: ATOMS id x y z radius
1 3.01324 6.92227 4.60109 0.25
2 4.72058 4.97054 5.14777 0.25
3 7.18807 4.70831 3.18957 0.25
4 7.4049 0.772305 6.06364 0.5
5 1.1153 5.71095 6.08239 0.25
6 8.15918 1.86723 3.34818 0.25
7 4.05282 3.25556 6.45927 0.25
8 4.83819 7.69687 2.89699 0.25
9 0.966219 6.24927 3.54798 0.25
10 4.19372 1.68573 3.28846 0.25
11 5.65167 0.237847 8.28856 0.25
12 5.37321 3.59277 1.78084 0.25
13 0.520864 2.42749 7.45545 0.25
14 3.47916 2.79217 7.14019 0.25
15 8.309 2.71236 6.28867 0.25
16 7.23381 0.989844 7.05172 0.25
17 0.774713 5.35304 8.27973 0.25
18 5.78081 7.5455 7.95545 0.25
19 4.03988 1.96503 7.82443 0.25
20 7.57732 1.30031 0.506267 0.25
21 4.993 4.37419 2.05999 0.25
22 4.26027 3.34108 1.15874 0.25
23 2.23792 3.43181 1.95525 0.25
24 2.84204 1.36054 4.17956 0.25
25 2.70385 4.39799 2.99936 0.25
26 0.404056 8.11947 5.68637 0.25
27 3.57966 0.444703 5.90456 0.25
28 4.44832 2.32133 0.102253 0.25
29 5.10659 6.77766 2.91329 0.25
30 7.49775 7.42016 2.40616 0.25
31 2.86461 0.0608296 8.25637 0.25
32 0.931953 2.65008 7.3462 0.25
33 7.80032 0.619188 5.45221 0.25
34 2.04059 4.96669 1.51809 0.25
35 8.13344 0.161064 4.56513 0.25
36 6.99781 1.45662 5.55512 0.5
37 4.62141 1.14041 2.36789 0.25
38 2.17197 3.44792 4.25363 0.25
39 6.06411 2.66006 4.97053 0.25
40 5.32954 7.66014 3.09891 0.25
41 6.94234 2.12516 2.51065 0.25
42 5.51341 5.97974 5.78287 0.25
43 3.47164 7.83494 4.49411 0.25
44 3.8336 0.00867659 5.83184 0.25
45 5.66489 4.03175 4.10686 0.25
46 3.32638 6.12851 1.43503 0.5
47 4.84851 0.785743 5.39952 0.25
48 7.80588 6.29006 6.98727 0.25
49 7.48341 6.82831 4.75894 0.25
50 7.82278 1.03928 0.88464 0.25
51 2.66689 3.38945 4.31527 0.25
52 0.645339 1.8012 2.33109 0.25
53 6.33768 5.12878 6.89921 0.25
54 5.94267 3.21439 4.11639 0.25
55 1.52028 1.47213 6.00061 0.25
56 1.03019 7.34479 0.0570741 0.25
57 4.87795 0.791073 2.04102 0.25
58 2.37063 2.06657 4.21347 0.25
59 4.99148 1.45409 6.30424 0.25
60 7.88744 5.5617 5.30814 0.25
61 5.2885 8.37045 8.12722 0.25
62 5.19243 1.69896 7.87537 0.5
63 7.5129 6.53741 1.18237 0.25
64 1.33196 6.13642 0.803898 0.25
65 4.28239 0.0933426 1.76467 0.25
66 2.11515 4.83196 7.17449 0.25
67 7.85091 5.03842 6.99212 0.25
68 7.13528 0.5635 6.78204 0.25
69 0.0785744 5.6081 7.79107 0.25
70 2.02942 4.69172 0.665228 0.25
71 7.89781 1.41374 0.158571 0.25
72 6.44558 6.32712 3.58626 0.25
73 0.559735 7.39014 6.71985 0.25
74 7.23493 5.65215 6.83406 0.25
75 7.21412 0.0860677 3.50292 0.25
76 7.61202 6.53205 4.3835 0.25
77 5.74919 2.79177 5.41612 0.25
78 5.38213 3.87191 1.3764 0.25
79 7.78176 5.16605 4.56156 0.25
80 5.92118 3.36258 5.49992 0.25
81 7.07924 1.42586 1.23333 0.25
82 8.28632 2.8536 5.84676 0.25
83 4.37076 5.82363 5.34998 0.25
84 1.21755 1.06369 6.09047 0.25
85 1.54931 1.67189 5.54217 0.25
86 4.69825 0.0477425 5.78192 0.25
87 1.58419 1.82613 1.1573 0.25
88 3.29097 6.9329 1.63597 0.25
89 6.68686 6.8958 0.707245 0.25
90 5.50815 6.33122 5.41676 0.25
91 3.84997 4.2097 6.24053 0.25
92 6.05973 4.39801 7.38873 0.25
93 5.09106 6.37995 5.12113 0.25
94 6.98112 8.23607 4.22908 0.25
95 0.235939 4.51339 7.75612 0.5
96 5.48186 3.13606 3.50411 0.5
97 4.16978 4.75591 7.85962 0.25
98 0.0552486 2.28221 3.55016 0.25
99 1.62209 6.40274 5.82804 0.25
100 7.0219 6.83308 1.07291 0.25
101 0.447086 8.1128 0.289275 0.25
102 8.02994 4.86571 3.36728 0.25
103 6.68764 1.19164 1.42617 0.25
104 0.67482 4.95674 7.30297 0.25
105 5.14317 5.60042 5.26445 0.5
106 5.02115 0.280111 4.61464 0.25
107 4.21831 3.16344 6.99127 0.25
108 4.8309 1.42883 0.126201 0.25
109 0.62809 0.359561 6.2667 0.25
110 2.18997 7.95287 8.2698 0.25
111 3.0334 3.91315 7.082 0.25
112 4.48264 2.1309 7.99775 0.25
113 1.70617 2.01552 1.91488 0.5
114 1.68075 4.16782 6.88447 0.25
115 4.52822 6.39577 5.98529 0.25
116 2.54009 7.15656 7.01305 0.25
117 4.17727 2.38422 3.71448 0.5
118 6.56913 7.04178 1.17274 0.25
119 1.10251 6.04915 2.33059 0.25
120 0.214627 2.98987 2.42365 0.25
121 3.1651 3.96798 3.53699 0.25
122 6.75819 0.623256 6.47899 0.25
123 5.2704 0.530726 5.53934 0.25
124 7.90912 8.10274 2.43779 0.25
125 3.45694 2.07256 3.82673 0.25
126 3.74349 1.29726 5.86085 0.25
127 5.26016 4.01603 1.84327 0.25
128 6.58531 5.38446 7.27977 0.25
129 1.24941 6.56954 3.88265 0.25
130 5.57513 6.00882 0.715273 0.25
131 7.06388 1.42254 6.32419 0.25
132 5.97768 3.97948 7.66541 0.25
133 3.24891 1.77488 3.44792 0.25
134 4.58373 2.6218 8.06258 0.25
135 5.62717 3.87409 3.65649 0.25
136 2.86019 2.40158 3.74816 0.5
137 2.88483 3.94361 3.11998 0.25
138 7.36315 7.90545 2.92507 0.5
139 2.63472 7.69928 5.02962 0.25
140 5.05237 7.92516 8.02345 0.25
141 8.2926 5.80154 5.08611 0.25
142 1.01099 5.16217 3.2034 0.25
143 2.1916 2.07072 8.35678 0.25
144 5.12333 1.04209 2.79634 0.5
145 7.41007 1.84082 3.90028 0.25
146 6.01196 7.29492 0.377645 0.25
147 6.62442 5.65784 4.61933 0.25
148 2.07318 2.83475 4.41196 0.25
149 4.55919 8.21355 2.47125 0.5
150 5.06614 3.02179 4.14278 0.25
151 3.67703 5.92985 7.12797 0.25
152 3.45026 4.5855 5.6012 0.25
153 6.68993 6.12621 2.41494 0.5
154 7.28061 2.27342 4.59791 0.5
155 3.1016 7.27166 7.82002 0.25
156 7.55962 3.52495 1.44504 0.25
157 7.57762 5.90882 1.6437 0.25
158 2.49803 3.61431 0.735805 0.25
159 7.16952 7.88623 4.48717 0.25
160 6.60947 2.00387 2.84496 0.25
161 0.973565 5.25991 2.74524 0.25
162 5.84114 4.03067 7.1455 0.25
163 3.39937 3.65461 4.10911 0.5
164 2.56595 3.78338 2.48779 0.5
165 5.52995 8.00255 7.86898 0.25
166 0.27501 3.75668 7.93229 0.25
167 6.31817 3.93968 0.192534 0.25
168 4.71214 6.01206 5.7011 0.25
169 3.86191 4.34222 5.76059 0.25
170 0.379254 2.8069 6.00491 0.25
171 7.78956 5.80049 1.16714 0.25
172 1.10283 2.84487 6.886 0.25
173 4.31877 6.30351 5.51739 0.25
174 2.36009 2.03376 1.01054 0.25
175 7.70836 2.23385 5.99454 0.5
176 2.56201 6.13434 5.71732 0.25
177 5.55586 3.56409 4.06606 0.25
178 3.05606 6.60075 1.91169 0.25
179 3.48314 2.21856 3.35698 0.25
180 5.8612 6.36501 5.79899 0.25
181 6.62989 4.01122 6.8757 0.25
182 3.1156 5.13893 3.28175 0.25
183 7.9417 7.61078 1.77419 0.25
184 4.24236 5.03136 8.23861 0.25
185 5.82186 6.8237 6.0208 0.25
186 7.57698 6.05001 4.5988 0.25
187 3.30808 5.23895 4.26215 0.25
188 0.839069 5.97816 3.16255 0.25
189 4.06206 6.55682 3.33886 0.25
190 4.22246 3.29368 1.67171 0.25
191 6.83613 1.35512 0.390766 0.5
192 0.729657 5.07422 7.81698 0.25
193 3.93794 5.82058 1.76476 0.25
194 2.60122 6.42797 1.66412 0.25
195 6.25913 5.69178 2.81515 0.25
196 2.36446 7.90062 2.65147 0.25
197 1.10818 8.31289 2.50573 0.25
198 7.48877 4.69144 6.88854 0.25
199 0.958149 1.24855 3.08948 0.25
200 4.56817 5.35391 1.618 0.5
201 6.67554 1.57203 3.11593 0.25
202 0.0272723 4.01247 5.50777 0.25
203 3.74834 1.83717 3.52741 0.25
204 5.63059 7.92507 0.219816 0.5
205 2.45629 7.48459 4.29713 0.5
206 0.556663 4.57174 5.30617 0.25
207 5.78376 2.72005 4.1522 0.25
208 7.02203 5.39049 4.43521 0.25
209 5.44123 6.98385 8.35364 0.5
210 1.96891 8.1215 2.95004 0.25
211 0.744219 3.81606 5.04263 0.25
212 1.40434 7.83577 8.07151 0.5
213 0.148569 4.30467 2.66843 0.25
214 1.92413 8.05135 2.52668 0.25
215 2.87063 4.12823 3.92304 0.25
216 6.47709 1.94811 2.3424 0.25
217 5.00846 3.60952 2.11584 0.25
218 2.33527 3.19783 4.66629 0.25
219 4.46026 1.29814 2.7972 0.25
220 3.7393 3.39273 0.980253 0.25
221 4.29132 0.169355 6.03478 0.25
222 7.3743 0.821617 5.23971 0.25
223 8.13027 2.88609 2.64993 0.25
224 7.0995 5.30955 7.26434 0.25
225 7.28177 2.24731 5.35548 0.25
226 4.48492 1.8888 7.53901 0.25
227 6.51047 3.56422 7.19585 0.25
228 5.52991 3.09076 4.26717 0.25
229 5.59219 4.99456 2.05982 0.25
230 0.281915 8.03962 6.41076 0.5
231 5.32533 4.61229 1.45783 0.5
232 2.00871 3.03436 3.9806 0.25
233 4.07393 5.14322 4.02743 0.25
234 6.49286 0.96396 6.63683 0.25
235 3.18882 7.40979 4.47688 0.25
236 0.882001 2.48882 7.81464 0.25
237 8.22858 3.00278 7.32547 0.25
238 3.41734 0.50859 1.66683 0.25
239 0.350599 2.23662 3.98812 0.25
240 6.67512 6.29159 1.59808 0.25
241 3.47143 7.08791 7.97815 0.25
242 1.76083 7.40356 2.6732 0.5
243 2.8398 4.77352 3.33807 0.25
244 7.1146 3.4343 1.16121 0.25
245 2.18063 0.989749 5.94559 0.25
246 7.63627 8.21101 3.68202 0.25
247 3.51534 2.58883 3.71049 0.25
248 3.81002 3.16213 1.40945 0.25
249 8.2976 5.11118 7.27256 0.25
250 1.28622 3.19995 5.37409 0.25
251 5.37134 2.64854 4.77105 0.5
252 3.23272 2.02677 4.27064 0.25
253 7.72896 5.62998 7.44303 0.5
254 6.99414 5.7951 7.21014 0.25
255 4.75963 0.784637 6.10701 0.5
256 5.95047 6.04344 0.378988 0.25
257 1.00811 0.406869 2.68084 0.25
258 1.57794 1.83361 2.60773 0.25
259 4.69087 3.13785 1.38199 0.25
260 7.83864 6.24608 1.34841 0.25
261 3.22569 0.740566 1.24762 0.25
262 3.53567 2.41161 4.19997 0.25
263 2.13849 0.227847 0.122312 0.5
264 2.76141 4.24924 3.50092 0.25
265 1.23009 3.92265 7.41824 0.5
266 1.11442 7.89833 6.99204 0.5
267 5.2412 2.45244 7.83167 0.25
268 6.31753 7.6652 0.401969 0.25
269 1.88275 5.15711 0.707055 0.25
270 3.95792 3.62207 1.41617 0.25
271 7.57762 7.91157 4.73603 0.25
272 1.57609 1.02825 2.49371 0.25
273 1.43349 3.25739 7.05159 0.25
274 0.583585 5.56773 7.86025 0.25
275 4.54243 4.64811 1.3605 0.25
276 2.40459 3.21594 1.03247 0.25
277 6.76029 0.790193 6.98104 0.25
278 3.90629 6.43413 1.11011 0.25
279 4.16654 0.459542 5.34845 0.5
280 7.99405 8.18232 4.94103 0.25
281 1.23656 6.54177 0.545984 0.25
282 6.22545 7.06298 6.15415 0.25
283 0.931781 0.0112918 6.44714 0.25
284 7.36336 4.30204 0.787076 0.25
285 1.94848 6.07484 1.29077 0.5
286 5.45542 6.60373 3.23469 0.25
287 1.50213 8.15287 3.54709 0.5
288 2.91725 7.32524 4.87914 0.25
289 2.47437 7.24792 5.05673 0.25
290 2.16236 3.94368 1.92213 0.25
291 8.3463 7.43638 7.27255 0.25
292 7.67395 2.58526 3.44904 0.25
293 7.62303 4.53121 3.38547 0.25
294 6.01686 3.60739 3.42979 0.25
295 8.18134 4.08384 0.997834 0.25
296 0.617539 4.35655 4.6118 0.5
297 3.74704 3.12047 6.82449 0.25
298 6.10182 5.15714 7.32931 0.25
299 5.72674 4.77517 7.45442 0.25
300 6.27211 3.68161 0.624944 0.25
301 0.951474 8.17335 0.234036 0.25
302 0.143611 4.29274 1.34558 0.25
303 3.90484 1.24595 1.35799 0.25
304 2.05894 2.33165 4.57154 0.25
305 1.14574 5.02542 8.17168 0.25
306 2.39706 1.92199 4.69469 0.25
307 1.45355 5.02488 7.47153 0.5
308 3.56832 5.83274 3.18726 0.25
309 4.46498 1.1034 5.4207 0.25
310 1.04828 4.81666 4.08009 0.25
311 7.36209 0.097195 3.97659 0.25
312 0.854856 1.088 2.28398 0.5
313 1.1804 3.68059 5.29989 0.25
314 5.6802 3.89508 3.15919 0.25
315 1.46263 5.44068 8.11466 0.25
316 1.78377 4.41538 7.24407 0.25
317 7.48464 2.31475 3.84764 0.25
318 2.20892 2.51911 4.08441 0.25
319 4.85002 7.42633 7.9937 0.25
320 2.04737 6.17554 5.91316 0.25
321 4.07237 0.807452 1.20959 0.25
322 7.37185 6.5113 5.18217 0.25
323 0.906913 6.26289 4.02683 0.25
324 4.13316 7.2397 7.76121 0.5
325 0.933847 1.9337 0.274515 0.25
326 3.94677 4.7163 5.06348 0.5
327 7.52807 7.33959 3.40383 0.25
328 2.26904 7.97193 1.83037 0.25
329 1.34068 5.96892 3.30711 0.25
330 8.34352 6.92488 7.40376 0.25
331 0.847546 5.5336 3.79115 0.5
332 7.37316 6.54407 2.21779 0.25
333 1.03958 1.67246 1.95113 0.25
334 6.82752 1.63573 1.63724 0.25
335 3.36435 3.11227 1.12462 0.25
336 2.97394 6.96444 6.89947 0.25
337 4.38306 7.10193 2.87296 0.5
338 6.1538 7.42158 8.31795 0.25
339 2.18585 8.15553 3.93181 0.25
340 4.77154 0.479161 4.99084 0.25
341 6.80834 8.32747 3.27539 0.25
342 0.789211 5.4026 7.41013 0.25
343 2.65401 1.31769 0.328184 0.25
344 1.28413 5.6226 2.54122 0.25
345 0.370558 1.62627 2.67667 0.25
346 0.388378 2.56761 -0.00683717 0.25
347 3.43853 5.86082 7.60068 0.25
348 7.22323 7.77782 2.13431 0.25
349 0.755006 2.23245 8.26523 0.25
350 6.83338 1.65947 2.58744 0.25
351 1.54668 6.87182 0.580995 0.25
352 6.4479 3.55344 7.92018 0.5
353 2.46572 8.36733 7.50292 0.25
354 1.80283 0.84742 5.58909 0.25
355 0.770166 8.36244 5.96922 0.25
356 1.95735 1.78426 5.87965 0.25
357 2.81445 4.19958 6.71569 0.25
358 6.33459 3.45714 5.26916 0.25
359 4.50928 1.38145 6.43693 0.25
360 1.91993 2.17942 1.1096 0.25
361 0.74593 7.91025 0.619211 0.25
362 6.18848 3.81203 6.8501 0.25
363 7.94489 4.17676 1.95544 0.25
364 6.03295 3.6479 7.31074 0.25
365 5.56622 5.75449 0.263824 0.25
366 5.16686 6.00892 0.42607 0.25
367 2.52706 4.61894 6.90461 0.25
368 6.63891 3.11018 0.142881 0.25
369 1.22349 6.89671 0.175269 0.25
370 5.24489 0.536049 8.16225 0.25
371 2.31493 8.1975 4.39565 0.25
372 2.44418 4.5362 0.446496 0.25
373 7.06668 2.66182 5.20228 0.25
374 3.62173 4.36021 4.47075 0.25
375 4.76293 0.694509 8.04059 0.25
376 2.64843 5.75373 1.1099 0.25
377 6.40351 1.20504 2.11798 0.5
378 0.466662 3.79217 7.53109 0.25
379 4.63402 1.21162 8.03366 0.25
380 2.53054 6.93398 4.71153 0.25
381 3.9824 5.44874 5.32799 0.25
382 2.02052 7.18231 4.78026 0.25
383 6.40011 5.25162 4.02153 0.5
384 1.14605 1.85069 1.47688 0.25
385 6.77695 1.56633 6.98353 0.5
386 1.45378 1.16687 5.68335 0.25
387 7.45089 0.851879 0.577858 0.25
388 0.833826 5.73677 2.69567 0.25
389 4.19715 2.58007 7.36469 0.5
390 3.99678 0.619658 6.02567 0.25
391 5.41036 4.61019 2.22208 0.25
392 8.06556 2.85695 3.17907 0.25
393 2.88788 6.68863 1.43893 0.25
394 8.35858 7.97902 0.407155 0.25
395 2.05202 1.75428 1.26374 0.25
396 4.59886 7.7778 8.19637 0.25
397 4.91319 0.584844 0.149037 0.25
398 7.10147 1.57623 8.14033 0.25
399 3.14584 4.36008 3.19079 0.25
400 5.15808 4.62546 0.719516 0.25
401 2.15376 7.21688 3.67904 0.25
402 8.30433 7.90585 7.06516 0.25
403 7.70961 6.20089 0.862037 0.25
404 7.92704 6.73049 7.15734 0.25
405 0.337296 7.62906 0.530217 0.25
406 5.47656 0.242173 4.37627 0.25
407 2.33931 1.05629 8.02844 0.5
408 5.45043 3.19587 2.71538 0.25
409 2.22814 5.01104 1.05867 0.25
410 7.50662 0.937727 8.14018 0.5
411 4.41748 5.33684 5.16888 0.25
412 8.2019 7.0349 6.95777 0.25
413 1.26128 1.61223 0.140401 0.25
414 0.472146 3.07356 7.79771 0.5
415 6.68266 4.67235 3.0865 0.25
416 2.86137 3.11537 6.671 0.25
417 3.38913 4.66377 3.83216 0.5
418 7.17105 6.76279 4.31142 0.25
419 3.82254 3.83958 5.85518 0.25
420 0.84704 3.14107 4.60978 0.25
421 3.88736 4.81425 5.73541 0.25
422 2.23811 5.45868 0.876774 0.25
423 0.306561 0.211953 5.89998 0.25
424 0.493997 3.51211 4.75971 0.25
425 1.87255 2.90818 1.39541 0.5
426 7.19311 5.76701 5.09359 0.5
427 2.77784 1.87213 4.3047 0.25
428 3.9515 5.12233 3.55335 0.25
429 4.3562 4.56197 5.64374 0.25
430 1.74959 7.42696 3.45544 0.25
431 0.988541 3.40943 6.817 0.25
432 1.5704 7.20739 4.14431 0.5
433 2.09513 1.73204 7.60149 0.25
434 0.95299 6.44142 0.932094 0.25
435 5.78711 3.49205 2.97218 0.25
436 1.21451 6.03853 2.7948 0.25
437 8.29112 1.11414 0.116579 0.25
438 0.947812 3.38241 5.00776 0.25
439 3.70634 2.57363 6.75903 0.25
440 4.5738 1.39118 7.59004 0.25
441 8.0736 4.35148 5.37075 0.25
442 2.36362 5.42777 1.38061 0.25
443 0.357729 2.90279 6.83239 0.5
444 2.12834 3.63236 1.51434 0.25
445 5.23057 6.94038 0.721322 0.25
446 4.20705 5.81066 3.53692 0.5
447 1.45944 1.98001 5.94154 0.25
448 5.97725 7.19661 5.75491 0.25
449 1.00942 5.64418 5.54293 0.25
450 2.88368 3.36681 0.998867 0.25
451 2.81711 6.8923 5.12842 0.25
452 2.35408 0.891637 0.369632 0.25
453 4.76893 4.43138 0.979537 0.25
454 0.183716 3.44026 7.26923 0.25
455 7.9627 4.85592 7.50517 0.25
456 3.09369 1.7075 3.92142 0.25
457 2.33191 4.02608 7.30247 0.5
458 0.0425382 7.48173 6.74819 0.25
459 5.03519 7.62835 0.0280711 0.25
460 5.67684 0.15365 4.87617 0.25
461 2.57889 3.62788 1.22518 0.25
462 6.39641 5.02981 3.33825 0.25
463 5.10461 7.24682 2.81992 0.25
464 7.50221 6.93288 7.3727 0.25
465 7.24896 2.66524 5.64978 0.25
466 4.19577 1.70572 2.75602 0.25
467 3.9556 6.32081 1.67475 0.25
468 6.92651 5.42711 3.1724 0.5
469 7.46902 7.43284 7.15138 0.25
470 0.804773 1.49325 0.297726 0.25
471 1.71804 1.01294 6.0693 0.25
472 1.90249 7.60785 1.88042 0.25
473 7.64812 5.24817 5.49854 0.25
474 5.05988 5.80704 5.92958 0.25
475 1.35348 1.36846 2.76764 0.25
476 7.36308 1.31091 7.41159 0.25
477 3.19491 5.38953 3.7942 0.25
478 6.18534 3.16584 7.38501 0.25
479 3.44531 7.23564 7.48976 0.25
480 5.03009 0.415045 2.37023 0.25
481 7.86823 2.02799 4.10724 0.25
482 7.26974 5.10992 4.66884 0.25
483 8.29175 5.65163 5.58743 0.25
484 2.81711 0.572474 8.32197 0.25
485 7.9566 7.53912 6.93043 0.25
486 1.99646 6.62903 6.06979 0.25
487 8.3011 7.81357 4.28988 0.25
488 4.2533 4.15904 5.98773 0.25
489 0.325703 8.10348 0.768182 0.25
490 7.9799 8.06568 1.93101 0.25
491 4.72413 3.33236 0.986459 0.25
492 2.41767 1.55516 4.32222 0.25
493 6.17039 4.31469 6.91964 0.25
494 4.86954 7.45689 2.42619 0.25
495 1.24997 6.0438 5.69631 0.25
496 3.04125 7.79909 4.7432 0.25
497 6.39097 4.27108 7.74011 0.25
498 3.35754 2.82831 4.11345 0.25
499 0.330701 5.24875 7.55524 0.25
500 3.71022 3.0163 6.37584 0.25
501 6.16782 4.09979 4.22544 0.25
502 1.71988 7.99951 7.42878 0.25
503 6.02283 4.92903 2.70501 0.5
504 7.70177 7.75316 2.16984 0.25
505 5.89531 1.34959 2.7957 0.25
506 7.21705 6.39367 4.70778 0.25
507 1.23385 0.456177 3.15048 0.25
508 0.703578 0.0911935 5.4947 0.25
509 8.36056 5.02992 5.10621 0.5
510 4.95413 1.77519 5.37485 0.25
511 0.649672 0.489505 5.73674 0.25
512 0.794639 0.773446 2.9306 0.25
513 3.9987 1.21015 5.40724 0.25
514 1.93973 5.65152 5.90774 0.25
515 0.90944 7.5263 6.32744 0.25
516 7.43769 1.57409 6.15336 0.25
517 7.50148 5.55122 4.50183 0.25
518 0.94858 3.62308 4.62197 0.25
519 6.49181 1.87435 1.8715 0.25
520 7.02369 1.92487 6.21013 0.25
521 7.44686 1.56421 0.080116 0.25
522 6.50931 1.25442 7.64515 0.25
523 5.19579 6.72865 5.51016 0.25
524 2.64017 0.336758 7.86367 0.25
525 6.32779 4.04306 7.28736 0.25
526 6.83447 5.42362 6.86767 0.25
527 7.52169 8.08907 4.23219 0.25
528 7.40927 1.30454 6.67934 0.25
529 6.68721 1.18217 2.82046 0.25
530 2.33961 1.77811 6.22411 0.25
531 7.98628 8.01387 3.96393 0.25
532 1.22905 0.853271 2.80632 0.25
533 6.96209 1.44742 7.67741 0.25
534 8.09769 5.84209 1.52824 0.25
535 0.546542 3.36946 5.55442 0.5
536 6.96783 2.2211 5.77417 0.25
537 4.18753 1.00402 5.78868 0.25
538 6.75507 5.22292 4.78638 0.25
539 2.48241 1.29619 6.25797 0.25
540 8.08769 6.42202 2.01295 0.5
541 7.56463 4.02383 1.57978 0.25
542 2.13404 2.17069 7.89493 0.25
543 3.31867 7.28612 7.01521 0.25
544 7.47493 6.65768 6.98195 0.25
545 1.36271 6.11994 3.82615 0.25
546 4.6834 5.91441 6.17488 0.25
547 5.41018 2.32974 8.26646 0.25
548 6.12306 7.37737 6.54536 0.25
549 0.356038 7.68791 7.08259 0.25
550 6.1662 6.91841 0.0713391 0.25
551 4.62794 1.6308 2.49016 0.25
552 3.66316 5.37804 3.9403 0.25
553 6.99184 7.77029 3.75374 0.5
554 4.329 6.33572 3.02243 0.25
555 4.79185 6.61193 3.524 0.5
556 7.01008 0.770633 0.83893 0.25
557 7.44153 5.05378 3.90324 0.5
558 6.38526 8.21504 3.5467 0.25
559 1.31371 0.376639 5.90885 0.5
560 5.0453 3.41341 2.57946 0.25
561 2.93664 3.07081 4.14406 0.25
562 5.22632 -0.00137007 5.56454 0.25
563 2.38047 6.71992 1.34064 0.25
564 5.97476 6.68916 0.754203 0.5
565 6.60874 1.60347 6.21998 0.25
566 1.13244 1.74623 2.45983 0.25
567 4.27902 5.93335 5.8384 0.25
568 6.2612 1.2647 3.1271 0.25
569 2.48373 8.26767 7.95388 0.25
570 2.03628 6.79745 4.57231 0.25
571 2.90289 4.38293 7.16678 0.25
572 8.1193 2.71765 3.98865 0.5
573 4.19447 1.32721 2.44441 0.25
574 1.57822 5.9879 6.0685 0.25
575 2.0703 1.70076 8.12059 0.25
576 4.22279 5.59853 7.66134 0.25
577 5.1944 0.204361 5.09736 0.25
578 1.98083 7.69374 3.8119 0.25
579 7.47253 4.94148 7.33332 0.25
580 7.42859 0.255279 4.72969 0.5
581 4.11776 4.60336 6.07397 0.25
582 5.92779 2.97679 4.57195 0.25
583 5.80477 3.65323 4.73305 0.5
584 4.75756 6.50602 5.55076 0.25
585 5.13066 3.4191 1.3586 0.25
586 1.71401 0.313265 2.56698 0.5
587 4.93516 6.92071 2.48106 0.25
588 5.91647 5.12462 3.49558 0.25
589 0.0599762 2.56774 7.48191 0.25
590 3.56319 6.59594 1.91271 0.25
591 6.33368 1.21279 1.09 0.25
592 7.39924 7.11336 1.723 0.5
593 6.7608 6.8084 1.55946 0.25
594 1.90448 4.8664 8.34169 0.5
595 0.713133 3.90388 7.95044 0.25
596 2.0176 0.8242 0.696825 0.25
597 0.0625747 0.303635 5.22796 0.5
598 2.62144 6.28098 1.24461 0.25
599 2.06075 8.20949 7.77581 0.25
600 7.66244 1.15585 5.43051 0.25
601 0.789346 0.789921 6.10873 0.25
602 3.95809 0.120556 2.18237 0.25
603 4.22948 5.51119 8.1139 0.25
604 7.32381 5.12794 6.89569 0.25
605 7.87431 2.12403 3.63455 0.25
606 2.31713 8.22147 2.26127 0.25
607 4.48407 5.17536 7.82089 0.25
608 3.59003 7.6543 7.30827 0.25
609 6.91177 4.93092 4.44652 0.25
610 1.90378 1.34246 5.69661 0.25
611 2.99694 0.670147 7.84121 0.25
612 0.739808 7.71398 0.194135 0.25
613 6.36873 1.11734 8.13826 0.25
614 4.68082 0.99474 5.02321 0.25
615 4.87737 2.80772 3.78492 0.25
616 1.15789 5.60923 3.05305 0.25
617 1.42226 7.99486 2.39853 0.25
618 7.67918 7.35268 4.21332 0.5
619 7.93503 8.08166 4.46553 0.25
620 8.23427 7.39843 2.4206 0.5
621 4.12258 6.5731 3.8724 0.25
622 6.10929 6.52594 6.22988 0.25
623 5.28236 6.45236 0.561515 0.25
624 0.961396 2.90406 5.06183 0.25
625 1.05776 5.48512 7.8472 0.25
626 3.62602 0.89679 1.49839 0.25
627 4.69001 4.64371 1.79393 0.25
628 8.16346 3.66443 2.45733 0.5
629 6.92454 2.92685 0.558447 0.25
630 1.10996 0.0152618 2.95645 0.25
631 1.75922 1.45132 7.82396 0.25
632 7.53176 7.87805 1.72864 0.25
633 5.99558 7.53047 0.763252 0.25
634 3.0701 8.0901 3.76068 0.25
635 0.882921 7.1892 0.79927 0.5
636 1.42943 2.29124 1.29561 0.25
637 5.61868 0.269315 5.36578 0.25
638 4.89225 1.2591 5.40325 0.25
639 4.69241 1.87387 -0.00850675 0.25
640 5.12104 7.40338 0.5055 0.25
641 1.41437 6.72492 5.22072 0.25
642 3.68935 0.881624 5.65755 0.25
643 6.21299 6.72088 5.76372 0.25
644 5.86847 0.889486 2.97199 0.25
645 2.25056 2.20307 1.44538 0.25
646 7.8392 6.70288 6.67741 0.25
647 2.43426 3.0099 4.18892 0.25
648 5.07873 1.0134 8.33272 0.25
649 0.395464 4.36164 1.77651 0.25
650 8.3376 3.80305 1.36903 0.25
651 3.19375 3.05484 3.69604 0.25
652 7.04975 0.527363 7.24683 0.25
653 1.41802 6.57268 1.00357 0.25
654 0.952848 2.67032 8.29478 0.25
655 3.33659 3.66121 6.45958 0.5
656 0.668777 3.50231 7.17573 0.25
657 1.4734 5.59168 5.73167 0.25
658 6.80876 0.109925 3.76693 0.25
659 2.49542 1.8445 7.93809 0.25
660 7.00788 6.06663 4.07415 0.5
661 8.14081 1.25565 8.07417 0.25
662 3.89704 4.73771 4.33489 0.25
663 2.54621 3.71383 1.72557 0.25
664 6.62039 2.58096 4.93997 0.25
665 7.87994 3.74938 1.23092 0.25
666 5.90085 6.86546 6.52306 0.25
667 6.47374 3.1932 0.587349 0.25
668 7.04596 6.48518 1.87429 0.25
669 6.03822 4.7784 7.07426 0.25
670 5.2789 8.26972 4.71092 0.25
671 3.46338 4.83372 4.54738 0.25
672 2.74775 3.2922 1.94859 0.25
673 0.494671 1.20592 2.9262 0.25
674 4.93646 7.37655 3.29441 0.25
675 5.49676 3.71472 5.48259 0.25
676 7.50559 8.19654 2.15911 0.25
677 6.31758 1.56582 1.47713 0.25
678 7.71244 6.39488 4.87586 0.25
679 1.20236 6.18459 1.29112 0.25
680 3.72097 6.66862 8.07242 0.25
681 7.87538 0.0551817 4.11093 0.25
682 2.603 5.9169 1.59027 0.25
683 1.86885 7.75274 7.04023 0.25
684 0.426762 3.92416 1.59309 0.25
685 2.67565 3.66509 6.73721 0.25
686 4.13361 2.82255 6.61803 0.25
687 2.69552 4.11476 0.546345 0.25
688 3.6394 0.911227 6.18006 0.25
689 6.01473 4.09848 8.12965 0.25
690 6.25752 1.05465 2.70795 0.25
691 7.1337 1.21069 1.68841 0.25
692 5.00435 4.88195 2.04825 0.25
693 7.35867 1.77051 6.55218 0.25
694 7.64877 5.25912 5.01571 0.25
695 0.0849586 3.17386 6.18984 0.25
696 5.72595 5.91639 3.44138 0.5
697 4.05275 3.7341 6.30811 0.25
698 1.68898 1.24965 5.24053 0.25
699 1.598 6.89515 4.81477 0.25
700 3.85569 5.57152 1.32984 0.25
701 4.44396 1.66932 7.97497 0.25
702 2.05909 4.61155 7.63948 0.25
703 3.38349 6.58332 7.42073 0.5
704 4.59366 4.74953 8.1115 0.25
705 5.00256 3.24951 1.79067 0.25
706 5.23553 0.19722 0.181215 0.25
707 4.65436 3.89999 1.48029 0.5
708 5.31212 7.52789 7.95645 0.25
709 2.56105 7.17258 1.92223 0.5
710 2.03521 4.47348 6.80115 0.25
711 5.1782 6.24181 3.03726 0.25
712 0.308774 5.22624 8.04738 0.25
713 2.64114 4.12955 1.8349 0.25
714 5.19623 4.12137 0.946796 0.25
715 4.77775 6.46712 2.75088 0.25
716 6.97321 0.984979 7.48662 0.25
717 7.76648 7.75781 3.55487 0.25
718 6.16527 3.33326 6.90015 0.25
719 5.86209 4.45802 7.78956 0.25
720 1.88433 7.97111 4.24443 0.25
721 6.89708 1.85555 2.13603 0.25
722 2.49124 7.79063 3.34443 0.5
723 2.55784 7.47974 2.60849 0.25
724 7.07387 6.48758 1.38977 0.25
725 7.58644 6.4313 7.4066 0.25
726 0.992361 0.939938 5.65605 0.25
727 3.67636 0.462413 1.27482 0.25
728 3.69285 6.13311 7.95786 0.25
729 4.96094 5.91097 3.31306 0.25
730 2.9469 7.13624 7.37355 0.25
731 5.2915 3.61233 2.94072 0.25
732 4.03734 3.5857 6.82952 0.25
733 3.79082 5.51358 7.41622 0.25
734 4.3205 0.850728 2.66735 0.25
735 3.30935 2.84888 6.63742 0.25
736 7.81407 1.63845 8.10491 0.25
737 3.38021 1.2421 1.26539 0.25
738 8.22285 8.26522 0.796644 0.25
739 4.68352 6.04951 2.95816 0.25
740 5.36608 7.12213 3.21183 0.25
741 0.443664 7.7148 1.01033 0.25
742 3.57461 4.62501 6.06296 0.25
743 7.11432 0.91704 1.33581 0.25
744 4.62153 0.603992 2.41547 0.25
745 3.44111 4.16024 5.9245 0.25
746 1.4551 6.24216 4.59168 0.5
747 4.67171 0.342515 1.98732 0.25
748 2.65113 6.78295 7.33032 0.25
749 1.43201 1.48506 2.23258 0.25
750 0.0934974 3.57384 1.80888 0.25
751 1.345 0.791248 5.30698 0.25
752 6.17508 4.7699 7.59752 0.25
753 4.12117 0.799356 1.93233 0.5
754 4.2201 5.57418 1.04421 0.25
755 2.80273 2.68077 1.33068 0.5
756 7.87746 6.79462 7.65561 0.25
757 5.70482 6.78199 5.53461 0.25
758 6.8214 3.92346 7.35561 0.25
759 4.25734 8.16681 5.71408 0.25
760 0.141675 2.71979 3.3198 0.25
761 3.74587 7.19791 7.11799 0.25
762 0.53366 1.71237 3.40212 0.5
763 4.0325 8.07433 1.91107 0.25
764 1.70267 6.37498 0.650124 0.25
765 7.55143 5.00201 3.15955 0.25
766 0.494999 4.46545 2.31549 0.25
767 2.79047 6.91 7.76693 0.25
768 2.11826 2.72435 4.87231 0.25
769 7.95479 3.69925 1.71493 0.25
770 4.59594 0.990139 0.0891041 0.25
771 6.72844 1.11743 6.20743 0.25
772 4.77606 2.33702 7.69674 0.25
773 5.40118 0.824623 4.90581 0.5
774 3.90599 8.17841 5.33824 0.25
775 7.84557 4.535 2.67177 0.5
776 7.02389 3.69219 0.448988 0.5
777 6.00368 6.44076 0.0784919 0.25
778 4.91742 8.14806 0.0606058 0.25
779 8.3668 8.281 4.20174 0.25
780 2.35819 1.43498 5.80123 0.25
781 2.49138 1.67474 0.0228301 0.25
782 1.50616 7.31174 0.299139 0.25
783 6.81618 3.08827 0.993443 0.25
784 2.18376 7.69674 2.26607 0.25
785 2.28538 1.48918 6.65251 0.25
786 2.67996 7.8614 2.2376 0.25
787 7.66913 7.10555 6.90722 0.25
788 0.0312265 4.31377 2.19689 0.25
789 3.45568 8.09293 4.08236 0.25
790 6.75491 0.275787 6.86665 0.25
791 0.378388 4.81829 3.10186 0.5
792 2.17712 0.323402 7.81318 0.25
793 8.12719 7.13792 1.77262 0.25
794 5.2341 6.50721 6.17854 0.5
795 2.40046 4.03287 3.21362 0.25
796 2.21637 5.85975 5.52227 0.25
797 6.61801 6.53442 1.12085 0.25
798 7.71808 4.22597 1.10812 0.25
799 3.87957 3.33744 6.00272 0.25
800 8.08186 2.38352 3.29153 0.25
801 3.24339 7.79791 6.97474 0.25
802 3.76647 5.19186 4.41046 0.25
803 3.18864 8.27341 7.62552 0.5
804 3.72929 7.07682 1.89428 0.25
805 1.85138 8.02638 2.06049 0.25
806 2.58505 1.69027 3.87755 0.25
807 4.71668 6.18701 5.21117 0.25
808 4.09697 2.38038 8.12304 0.25
809 1.74669 5.95868 5.60633 0.25
810 6.51848 7.44024 6.31341 0.25
811 1.58483 3.28893 4.68674 0.5
812 5.57399 7.29053 0.633727 0.25
813 4.36356 2.07051 3.03722 0.25
814 1.62529 7.50853 7.40016 0.25
815 2.76711 8.17727 4.53211 0.25
816 0.546235 3.06722 4.93773 0.25
817 4.19129 1.93295 8.31816 0.25
818 3.8642 2.01288 3.10583 0.25
819 1.89885 5.34189 1.23367 0.25
820 3.27568 3.19099 6.93881 0.25
821 1.42841 2.05672 8.05236 0.5
822 6.20704 4.3465 3.58928 0.5
823 4.83725 0.229662 8.21888 0.25
824 0.824919 0.590645 5.31379 0.25
825 3.90993 6.00893 7.57338 0.25
826 3.22246 3.64647 1.51243 0.5
827 5.7188 7.23235 6.20013 0.25
828 0.395928 2.33525 7.89523 0.25
829 0.043689 8.12985 4.66574 0.25
830 0.76029 2.04117 2.7531 0.25
831 2.17959 4.25479 7.97556 0.25
832 5.86517 4.56876 2.04197 0.25
833 2.0232 1.40094 6.21694 0.25
834 4.17962 0.378101 2.55361 0.25
835 6.65531 1.60514 1.11125 0.25
836 3.49323 7.57022 7.80151 0.25
837 3.96956 5.19225 7.78436 0.25
838 7.465 0.698445 1.08775 0.25
839 6.09859 7.55795 6.05095 0.25
840 6.77521 4.67027 7.22772 0.5
841 3.23945 7.03182 2.1017 0.25
842 0.0262941 2.27022 2.72356 0.5
843 6.01283 3.83428 5.39788 0.25
844 4.91314 2.28122 8.18011 0.25
845 7.61199 2.58028 5.2964 0.25
846 3.62077 3.48125 7.44408 0.5
847 2.36208 5.08113 0.581673 0.25
848 1.86958 5.95019 5.1563 0.25
849 5.23079 7.78137 2.64651 0.25
850 6.46536 2.81283 5.61694 0.5
851 5.45621 8.19714 5.17258 0.25
852 6.60257 1.5404 8.06896 0.25
853 4.12494 7.76441 5.53187 0.25
854 4.41407 1.694 5.86682 0.5
855 0.496464 4.11493 5.41449 0.25
856 0.658336 5.52467 3.07764 0.25
857 3.72371 6.73522 1.48587 0.25
858 2.62044 4.60996 3.79707 0.25
859 6.80465 4.65409 4.02251 0.25
860 7.73368 3.8957 0.76362 0.25
861 4.89482 2.81092 7.7072 0.25
862 6.81178 4.8031 3.54917 0.25
863 5.79191 6.00461 8.32118 0.25
864 7.63828 6.93809 2.45817 0.25
865 3.79983 5.65785 7.93796 0.25
866 5.17027 8.13574 2.93824 0.25
867 1.75793 4.33572 7.7665 0.25
868 1.95901 1.59185 0.514064 0.5
869 1.01272 3.18997 7.25592 0.25
870 6.24616 5.4701 3.2586 0.25
871 2.86367 7.51781 6.99297 0.25
872 5.96632 3.09056 5.10824 0.25
873 0.133448 0.119131 0.448149 0.25
874 4.04645 1.12811 6.2629 0.25
875 2.28953 4.27263 1.21061 0.5
876 1.42393 5.76138 5.26577 0.25
877 8.24862 5.1427 7.76496 0.25
878 5.77527 0.97923 2.49003 0.25
879 3.26483 8.26367 4.54953 0.25
880 6.42284 5.96986 3.14414 0.25
881 7.51105 1.15907 1.32805 0.25
882 7.92344 7.22867 7.36167 0.25
883 0.369002 3.94922 2.09316 0.25
884 7.28101 3.08526 0.862639 0.25
885 0.967068 4.19112 5.25181 0.25
886 7.93557 7.46384 3.14312 0.25
887 1.13178 6.69163 1.34408 0.25
888 0.992432 4.80901 3.55946 0.25
889 1.46552 8.06886 2.82549 0.25
890 0.11885 4.72983 2.42167 0.25
891 0.952003 2.14439 7.44737 0.25
892 7.59606 3.46787 0.928209 0.25
893 1.16434 7.70134 0.369463 0.25
894 4.1288 5.98429 1.36288 0.25
895 3.84839 5.95564 0.958535 0.25
896 1.6916 1.33721 8.27442 0.25
897 8.06083 4.1794 1.45193 0.25
898 0.612247 4.78123 3.87506 0.25
899 1.05343 8.0226 6.19908 0.25
900 5.13714 6.20507 5.57334 0.25
901 0.84653 1.54924 2.76453 0.25
902 7.36039 3.86718 1.12571 0.25
903 5.97577 3.74665 3.9393 0.25
904 6.88935 4.12515 7.76558 0.25