ITEM: TIMESTEP
840000
ITEM: NUMBER OF ATOMS
1000
ITEM: BOX BOUNDS xy xz yz pp pp pp
0.0000000000000000e+00 8.3788359999999997e+00 0.0000000000000000e+00
0.0000000000000000e+00 8.3788359999999997e+00 0.0000000000000000e+00
0.0000000000000000e+00 8.3788359999999997e+00 0.0000000000000000e+00
ITEM: ATOMS id x y z radius
1 2.50433 7.01947 4.88508 0.25
2 4.8424 5.16622 5.05888 0.25
3 7.02153 4.58716 3.22767 0.25
4 7.37743 1.03981 5.8456 0.5
5 1.23514 5.8875 6.37759 0.25
6 8.17844 1.74076 3.58538 0.25
7 4.32438 3.23328 6.51878 0.25
8 4.78399 7.72836 2.98674 0.25
9 0.726585 6.16734 3.76897 0.25
10 4.05687 1.46201 3.36589 0.25
11 5.28415 8.30604 7.8286 0.25
12 5.09936 3.46832 1.38153 0.25
13 0.574675 2.37016 7.52622 0.25
14 3.9826 2.71929 7.03413 0.25
15 0.183089 3.05405 6.2137 0.25
16 7.53432 0.947507 6.62947 0.25
17 0.937154 5.41504 8.32846 0.25
18 6.09112 7.3681 8.1458 0.25
19 4.6279 1.76456 7.54447 0.25
20 7.59751 1.47484 0.635033 0.25
21 4.82079 4.2032 1.768 0.25
22 4.25681 3.17249 1.13914 0.25
23 2.19998 3.49539 2.03133 0.25
24 2.8872 2.08368 4.66731 0.25
25 2.79362 4.53807 3.00512 0.25
26 0.275425 0.0414609 5.74286 0.25
27 3.80896 0.335498 5.90074 0.25
28 4.30165 1.88825 8.29528 0.25
29 5.08674 6.85114 3.00313 0.25
30 7.38096 7.45892 2.34012 0.25
31 2.80163 0.386563 8.0859 0.25
32 0.894152 2.67879 7.35176 0.25
33 7.63558 0.0771532 5.12467 0.25
34 1.96836 5.64601 1.76675 0.25
35 7.8334 8.38101 4.62764 0.25
36 6.70492 1.9195 5.83089 0.5
37 4.20916 1.42834 2.06091 0.25
38 2.15456 3.42256 4.33628 0.25
39 5.95423 2.59336 4.7541 0.25
40 5.25113 7.6537 3.1485 0.25
41 6.63058 2.23248 2.90658 0.25
42 5.64785 6.08286 5.70793 0.25
43 3.54623 7.74222 4.60942 0.25
44 3.93879 7.88327 5.29183 0.25
45 5.44191 3.99147 3.98487 0.25
46 3.2011 6.04116 1.58277 0.5
47 4.62746 0.795898 5.19836 0.25
48 8.19521 6.23429 6.86529 0.25
49 7.47676 6.64304 4.62392 0.25
50 7.62341 1.38142 1.15317 0.25
51 2.62366 3.38529 4.41177 0.25
52 0.66294 1.5455 2.46691 0.25
53 6.59862 5.02834 6.83207 0.25
54 5.76924 3.18758 3.96381 0.25
55 1.58681 1.07654 6.00394 0.25
56 1.21851 7.33812 0.310037 0.25
57 4.78681 0.686613 1.98797 0.25
58 2.26752 2.17999 4.05819 0.25
59 4.68518 1.10695 6.09784 0.25
60 7.78396 5.51475 5.22694 0.25
61 5.02575 7.95764 8.04679 0.25
62 5.42667 1.86418 8.26886 0.5
63 7.50905 6.68993 1.14573 0.25
64 1.10714 6.15372 0.817666 0.25
65 4.29152 0.0700076 1.78382 0.25
66 2.16467 4.68868 7.06417 0.25
67 8.25967 4.90301 7.38808 0.25
68 7.37108 0.580627 6.44611 0.25
69 0.445894 5.56245 7.63929 0.25
70 1.69057 4.95017 0.982496 0.25
71 8.02301 1.34561 0.424235 0.25
72 6.46592 6.17804 3.44002 0.25
73 0.579074 7.67623 6.91454 0.25
74 7.4783 5.60608 6.78641 0.25
75 7.21775 0.164372 3.37592 0.25
76 7.28319 6.50161 4.1764 0.25
77 5.55809 2.79698 5.34376 0.25
78 5.39419 3.80695 1.07857 0.25
79 7.6996 5.13311 4.43011 0.25
80 5.70395 3.31407 5.32904 0.25
81 7.1956 1.62443 0.933468 0.25
82 8.0656 3.01786 6.47458 0.25
83 4.47178 5.80664 5.59395 0.25
84 1.08479 1.1645 5.93569 0.25
85 1.42563 0.967149 5.19819 0.25
86 4.7116 8.23664 5.44612 0.25
87 1.96498 2.31564 0.620648 0.25
88 3.17821 6.8096 1.64198 0.25
89 6.82998 7.2299 0.776232 0.25
90 5.59078 6.50858 5.45362 0.25
91 4.12829 4.21455 6.2332 0.25
92 6.28273 4.55992 7.381 0.25
93 5.06639 6.57542 5.29584 0.25
94 6.66057 0.127678 3.98073 0.25
95 0.431748 4.54273 7.83347 0.5
96 5.3593 3.11547 3.36811 0.5
97 4.14356 4.96225 8.02197 0.25
98 8.33873 2.21391 3.528 0.25
99 1.74959 6.4039 5.96658 0.25
100 6.99551 6.82355 1.02351 0.25
101 0.717138 7.79822 8.3185 0.25
102 7.85852 4.69247 3.51899 0.25
103 6.70343 1.20515 1.50682 0.25
104 1.10547 4.7216 7.58638 0.25
105 5.21867 5.80162 5.16849 0.5
106 5.23718 0.575138 4.59937 0.25
107 4.35583 3.08097 7.01449 0.25
108 4.86594 1.26414 8.13576 0.25
109 0.631518 0.90199 5.76125 0.25
110 2.24194 7.97304 8.19636 0.25
111 3.30288 3.81627 7.04989 0.25
112 4.65776 1.99256 8.00179 0.25
113 1.62 1.95822 1.82196 0.5
114 1.87858 3.99259 7.11149 0.25
115 4.67343 6.31406 6.24166 0.25
116 2.58035 7.20287 7.01473 0.25
117 4.15307 2.2063 3.61433 0.5
118 6.74133 7.22109 1.25145 0.25
119 1.01455 6.58488 3.69177 0.25
120 0.0606724 2.83816 3.04211 0.25
121 3.16338 4.10744 3.63562 0.25
122 6.86069 0.708147 6.3781 0.25
123 5.06343 0.633861 5.45502 0.25
124 8.04389 8.16355 2.44792 0.25
125 3.4498 2.08479 3.87198 0.25
126 3.5508 1.09959 5.78427 0.25
127 5.19896 3.89168 1.58529 0.25
128 6.75969 5.40733 7.17237 0.25
129 0.89673 6.51069 4.15676 0.25
130 5.68425 6.17627 0.0375608 0.25
131 7.03245 1.544 6.34857 0.25
132 6.04952 4.10012 7.53957 0.25
133 3.08459 1.791 3.67409 0.25
134 4.37521 2.35984 8.12472 0.25
135 5.40139 3.80789 3.53904 0.25
136 2.8813 2.54885 3.73124 0.5
137 2.93834 4.09555 3.18618 0.25
138 7.36952 8.05941 2.79535 0.5
139 2.65419 7.48292 5.00881 0.25
140 5.14812 7.50034 7.89256 0.25
141 7.68417 5.84443 4.89567 0.25
142 1.16247 5.18598 3.341 0.25
143 2.33322 2.08968 8.30078 0.25
144 5.10674 1.11159 2.59261 0.5
145 7.46826 1.96043 4.01799 0.25
146 6.09554 7.32121 0.237741 0.25
147 6.41846 5.63178 4.52566 0.25
148 2.2434 3.07535 4.57789 0.25
149 4.52224 8.20396 2.46285 0.5
150 4.85948 2.88762 3.96896 0.25
151 3.42737 5.90436 7.09984 0.25
152 3.73122 4.6726 5.65202 0.25
153 6.761 6.04587 2.31173 0.5
154 7.23527 2.43112 4.57916 0.5
155 2.97326 7.2449 7.81266 0.25
156 7.47768 3.52058 1.56024 0.25
157 7.73366 6.01223 1.63713 0.25
158 2.62405 3.75751 0.837459 0.25
159 7.036 7.715 4.30938 0.25
160 6.47449 1.81102 3.14827 0.25
161 0.991499 5.27367 2.85998 0.25
162 6.0469 4.32352 7.0653 0.25
163 3.28048 3.76412 4.28643 0.5
164 2.70441 3.98377 2.40907 0.5
165 5.43529 7.89133 7.67569 0.25
166 0.244789 3.74265 7.93731 0.25
167 6.65297 4.12288 8.20748 0.25
168 4.853 6.04666 5.86309 0.25
169 4.15272 4.34367 5.75135 0.25
170 8.29495 2.66429 6.27769 0.25
171 7.9113 5.94373 1.14964 0.25
172 1.07676 2.86727 6.90539 0.25
173 4.39809 6.29034 5.82424 0.25
174 2.38163 2.25415 1.02075 0.25
175 7.56617 2.50094 6.04279 0.5
176 2.44959 5.59494 5.96848 0.25
177 5.3704 3.50848 3.92826 0.25
178 3.01066 6.61216 2.05855 0.25
179 3.39144 2.02658 3.37643 0.25
180 6.00079 6.47857 5.74562 0.25
181 6.80387 4.10521 6.88961 0.25
182 3.16559 5.29803 3.47108 0.25
183 8.01276 7.64974 1.77224 0.25
184 3.78408 5.27426 8.13652 0.25
185 5.93601 6.85882 6.10187 0.25
186 7.54237 5.65583 4.44704 0.25
187 2.91223 5.21823 4.26643 0.25
188 0.676391 5.89707 3.36123 0.25
189 4.09291 6.6556 3.47398 0.25
190 3.99844 3.60809 1.27177 0.25
191 6.90156 1.51108 0.305093 0.5
192 1.01563 5.09104 7.95196 0.25
193 3.75411 5.41898 1.5731 0.25
194 2.54251 6.39358 1.93661 0.25
195 6.24436 5.61302 2.66897 0.25
196 2.13809 8.04724 2.64224 0.25
197 1.27322 0.123345 2.3888 0.25
198 7.78344 4.90076 7.29375 0.25
199 1.26097 1.42844 3.22153 0.25
200 4.5015 5.32889 1.41858 0.5
201 6.73541 1.38066 3.04717 0.25
202 8.29911 3.91705 5.46309 0.25
203 3.62239 1.65866 3.58865 0.25
204 5.67467 7.89503 8.37597 0.5
205 2.46024 7.44811 4.31265 0.5
206 0.324597 4.52602 5.2546 0.25
207 5.67461 2.7349 4.0102 0.25
208 6.72882 5.32305 4.33166 0.25
209 5.43647 6.94015 0.014966 0.5
210 1.7832 8.17299 2.96019 0.25
211 0.658399 3.82769 5.07411 0.25
212 1.48337 8.00078 8.30445 0.5
213 0.252364 4.07673 2.88318 0.25
214 1.67457 8.16338 2.41293 0.25
215 2.76922 4.27804 3.94911 0.25
216 6.24945 1.95257 2.69136 0.25
217 4.80672 3.67215 1.77282 0.25
218 2.35639 3.40942 4.82267 0.25
219 4.30641 0.92003 2.68125 0.25
220 3.58853 3.55038 0.909811 0.25
221 4.27571 8.05643 5.65603 0.25
222 7.28979 0.487612 5.13192 0.25
223 8.14709 2.65247 2.69295 0.25
224 7.30216 5.44372 7.27317 0.25
225 7.21163 2.22594 5.31878 0.25
226 5.05686 2.07327 7.66623 0.25
227 6.54674 3.6465 6.98282 0.25
228 5.33059 3.06906 4.10902 0.25
229 5.67185 5.01539 1.75717 0.25
230 0.336802 8.21243 6.47764 0.5
231 5.3003 4.5681 1.29164 0.5
232 1.9493 2.92539 4.29356 0.25
233 3.85392 5.19617 4.39851 0.25
234 6.6389 1.4441 6.55131 0.25
235 3.30296 7.31588 4.48598 0.25
236 0.936893 2.56487 8.31533 0.25
237 8.31031 3.04011 7.6894 0.25
238 3.28575 0.853777 1.51517 0.25
239 0.346117 2.38925 3.88347 0.25
240 6.70497 6.21699 1.56169 0.25
241 3.37166 7.0449 8.03717 0.25
242 1.62545 7.48514 2.64712 0.5
243 2.88461 4.88355 3.37301 0.25
244 7.0621 3.51914 1.25142 0.25
245 2.05869 1.10266 5.97085 0.25
246 7.57093 8.25443 3.59501 0.25
247 3.52027 2.48395 3.5001 0.25
248 3.72586 3.17992 1.08614 0.25
249 0.332242 5.14054 7.3807 0.25
250 1.41116 3.79884 5.42514 0.25
251 5.16378 2.61609 4.6652 0.5
252 3.19975 2.28573 4.28646 0.25
253 8.09015 5.62707 7.31798 0.5
254 7.42504 5.96315 7.21572 0.25
255 4.55231 0.407785 5.9137 0.5
256 5.31969 6.23274 0.357121 0.25
257 1.12839 0.234513 2.80739 0.25
258 1.63351 1.836 2.60909 0.25
259 4.42881 3.43146 1.54839 0.25
260 7.91438 6.38357 1.34668 0.25
261 4.02923 8.21347 1.40697 0.25
262 3.57624 2.533 4.02695 0.25
263 2.25441 0.270968 0.116451 0.5
264 2.75591 4.38907 3.49325 0.25
265 1.18707 3.89902 7.40775 0.5
266 0.920241 7.66669 7.61458 0.5
267 5.2347 2.48998 7.821 0.25
268 6.38885 7.73365 0.113762 0.25
269 1.47091 5.39603 0.957453 0.25
270 4.07146 3.5075 0.77205 0.25
271 7.38908 7.6703 4.62001 0.25
272 1.76447 1.1305 2.61827 0.25
273 1.27173 3.31976 6.89323 0.25
274 0.912093 5.53379 7.79874 0.25
275 4.56498 4.54148 1.44908 0.25
276 2.76929 3.28498 1.11327 0.25
277 6.67914 0.986921 6.67211 0.25
278 3.86118 6.19508 1.23873 0.25
279 4.07976 0.24781 5.16597 0.5
280 7.68483 7.94526 4.91537 0.25
281 0.956862 6.56044 0.592979 0.25
282 6.261 7.1234 6.27827 0.25
283 0.93499 0.232012 6.25467 0.25
284 7.25243 4.41287 1.17575 0.25
285 1.81199 6.05455 1.16702 0.5
286 5.47672 6.65946 3.17115 0.25
287 1.3606 7.85528 3.49776 0.5
288 3.00253 7.13192 4.87188 0.25
289 2.18928 7.30538 5.15887 0.25
290 2.12152 3.95181 1.9486 0.25
291 8.21702 7.50851 7.16779 0.25
292 7.71368 2.50692 3.37632 0.25
293 7.45605 4.40054 3.38257 0.25
294 5.35178 3.81208 3.05543 0.25
295 8.07833 4.2011 1.25083 0.25
296 0.532064 4.25557 4.55705 0.5
297 3.91499 3.09215 6.70475 0.25
298 6.42097 5.05828 7.34486 0.25
299 5.94581 4.93307 7.51404 0.25
300 6.39727 3.50767 0.497071 0.25
301 0.990568 7.37302 8.2536 0.25
302 0.0987466 4.20885 1.5836 0.25
303 4.06561 0.52475 0.987496 0.25
304 2.06333 2.68216 4.71557 0.25
305 0.793021 4.94636 8.34085 0.25
306 2.34673 2.23318 4.56074 0.25
307 1.8118 4.77815 7.81462 0.5
308 3.38624 4.99767 3.22103 0.25
309 4.29926 0.916255 5.47874 0.25
310 0.665877 4.81353 4.00176 0.25
311 7.2219 0.148351 3.90154 0.25
312 1.04535 0.923524 2.56451 0.5
313 0.884137 3.89027 5.5136 0.25
314 5.17676 3.45543 2.68438 0.25
315 1.12155 4.64715 8.09851 0.25
316 1.78246 4.44105 7.17559 0.25
317 7.48318 2.38693 3.86588 0.25
318 2.34509 2.60697 4.28449 0.25
319 4.79621 7.15336 8.07455 0.25
320 2.1517 6.06514 5.97571 0.25
321 4.47624 0.680134 1.18112 0.25
322 7.39884 6.2824 4.95157 0.25
323 0.710881 6.10693 4.27453 0.25
324 4.05658 7.22556 7.92785 0.5
325 0.587591 2.04223 0.608031 0.25
326 4.19325 4.78893 5.00891 0.5
327 7.41687 7.46283 3.34492 0.25
328 2.19646 7.84628 1.77589 0.25
329 1.10565 6.09675 3.49789 0.25
330 8.3156 7.0178 7.40949 0.25
331 0.966704 5.52222 3.95067 0.5
332 7.37704 6.61459 2.16079 0.25
333 1.06684 1.45977 2.06702 0.25
334 6.7136 1.83418 0.990749 0.25
335 3.26044 3.17354 1.03899 0.25
336 3.04278 7.11256 6.81594 0.25
337 4.29815 7.18759 2.89453 0.5
338 6.52977 7.26459 0.0218471 0.25
339 2.02294 7.9514 3.93919 0.25
340 4.79039 0.578791 4.80797 0.25
341 6.79782 0.0752346 3.13164 0.25
342 1.25573 5.28205 7.5986 0.25
343 2.89584 1.27564 0.181015 0.25
344 1.2058 5.73598 2.72325 0.25
345 0.451922 1.3177 2.91118 0.25
346 0.508118 2.38126 8.0688 0.25
347 3.32452 5.87625 7.5911 0.25
348 7.26094 7.83304 2.08208 0.25
349 0.845265 2.06847 8.26394 0.25
350 6.72463 1.74918 2.72368 0.25
351 1.35798 6.88395 0.500672 0.25
352 6.43559 3.53563 7.7541 0.5
353 2.46542 -0.00320794 7.47136 0.25
354 1.82302 0.639132 6.01533 0.25
355 0.558065 0.435394 6.01454 0.25
356 1.75896 1.89014 6.0373 0.25
357 3.00983 3.98685 6.6766 0.25
358 6.13294 3.42542 5.13339 0.25
359 4.19025 0.978591 6.2509 0.25
360 1.89512 2.12517 1.09744 0.25
361 0.941041 7.73448 0.364251 0.25
362 6.30101 4.05569 6.73881 0.25
363 7.93282 4.0146 2.17824 0.25
364 6.10395 3.74699 7.12932 0.25
365 5.6526 5.9096 0.472674 0.25
366 5.96086 6.13097 0.807759 0.25
367 3.06571 4.23603 7.12608 0.25
368 6.86899 3.71403 8.26112 0.25
369 0.941467 6.97576 0.284064 0.25
370 5.52896 0.226332 8.13068 0.25
371 2.78348 7.8968 4.80267 0.25
372 2.08489 4.83163 0.692944 0.25
373 6.93348 2.78439 5.13383 0.25
374 3.67408 4.38067 4.50173 0.25
375 5.40789 0.755999 7.97217 0.25
376 2.58098 5.90334 1.17556 0.25
377 6.41804 1.58819 2.0357 0.5
378 0.493225 3.8229 7.57288 0.25
379 5.26777 1.21302 7.83598 0.25
380 2.31305 6.68819 4.56036 0.25
381 4.19141 5.36953 5.49314 0.25
382 2.0162 7.00964 4.76476 0.25
383 6.18264 5.22248 3.85173 0.5
384 2.17853 1.80118 1.26679 0.25
385 7.15708 1.42705 7.12719 0.5
386 1.37451 1.23705 5.58021 0.25
387 7.71788 1.01662 0.818819 0.25
388 0.737656 5.69456 2.87646 0.25
389 4.5751 2.58542 7.46855 0.5
390 3.93939 0.600634 6.31537 0.25
391 5.32641 4.83787 2.02183 0.25
392 8.13932 2.52296 3.19218 0.25
393 2.74426 6.63419 1.59606 0.25
394 0.834411 8.22089 8.09576 0.25
395 2.63342 1.97396 1.30555 0.25
396 4.68008 7.58718 7.9587 0.25
397 5.13812 0.526743 8.28944 0.25
398 7.43478 1.31621 8.18138 0.25
399 3.1745 4.49547 3.26766 0.25
400 4.96413 4.53884 0.673875 0.25
401 2.24562 7.1755 3.66218 0.25
402 8.1897 7.91745 6.89554 0.25
403 7.75715 6.31594 0.869766 0.25
404 8.07842 6.69353 7.06899 0.25
405 0.449118 7.79995 0.361663 0.25
406 5.54129 0.223108 4.41736 0.25
407 2.45453 1.08575 7.97225 0.5
408 5.52576 3.40915 2.2652 0.25
409 2.13947 5.00005 1.20817 0.25
410 7.54104 0.80463 0.203882 0.5
411 4.50963 5.49717 5.16026 0.25
412 8.34967 7.10648 6.92479 0.25
413 0.9873 2.29616 0.357059 0.25
414 0.630138 3.11284 7.87194 0.5
415 6.5191 4.61347 3.00085 0.25
416 3.07637 3.01829 6.5673 0.25
417 3.32755 4.73837 3.92993 0.5
418 7.07717 6.89242 4.41998 0.25
419 4.13875 3.83646 5.89428 0.25
420 0.827653 3.18684 4.92206 0.25
421 4.17079 4.85486 5.72057 0.25
422 2.27387 5.49528 1.28571 0.25
423 0.207397 0.608608 5.68967 0.25
424 0.464561 3.47329 4.75399 0.25
425 2.02641 2.87245 1.23047 0.5
426 6.98765 5.67431 4.96384 0.5
427 2.67342 2.23928 4.27587 0.25
428 3.99033 5.1071 3.91143 0.25
429 4.60425 4.54037 5.6309 0.25
430 1.80248 7.23886 3.41722 0.25
431 0.809466 3.37971 6.88113 0.25
432 1.66572 6.84263 4.08857 0.5
433 2.26974 1.72048 7.56522 0.25
434 0.791325 6.50044 1.0547 0.25
435 5.64919 3.50846 2.8001 0.25
436 0.938704 6.13048 3.0037 0.25
437 0.108571 1.29796 0.563325 0.25
438 1.02474 3.50656 5.24626 0.25
439 3.83132 2.61651 6.59154 0.25
440 5.20506 1.62737 7.55055 0.25
441 7.89807 4.21927 5.42133 0.25
442 2.42199 5.87229 1.65793 0.25
443 0.257957 2.88527 6.98632 0.5
444 2.07148 3.5968 1.56923 0.25
445 5.4264 6.65347 0.730175 0.25
446 4.13521 5.83634 3.54915 0.5
447 1.4089 1.52123 6.00208 0.25
448 6.0239 7.2886 5.90397 0.25
449 0.967578 5.71129 5.94841 0.25
450 3.09871 3.66998 0.955431 0.25
451 2.62383 7.09101 5.32999 0.25
452 2.54311 0.994676 0.356219 0.25
453 4.53391 4.67159 0.959004 0.25
454 0.126011 3.50218 7.52305 0.25
455 7.96385 5.06354 7.7503 0.25
456 3.0133 1.84917 4.17107 0.25
457 2.56696 3.70885 7.21889 0.5
458 0.105317 7.5456 6.78405 0.25
459 4.98356 7.51303 8.34198 0.25
460 5.62457 0.435209 4.87396 0.25
461 2.69306 3.75455 1.29823 0.25
462 6.26504 4.96403 3.19636 0.25
463 5.10221 7.34351 2.82591 0.25
464 7.57642 6.78587 7.0086 0.25
465 6.9754 2.5846 5.56977 0.25
466 3.99062 1.30771 2.8682 0.25
467 3.94206 6.31836 1.70846 0.25
468 6.86193 5.27239 3.00511 0.5
469 7.52506 7.24886 6.79389 0.25
470 0.528778 1.5844 0.604496 0.25
471 1.86685 0.959698 6.40936 0.25
472 1.86519 7.5183 1.87299 0.25
473 7.47039 5.13336 5.25712 0.25
474 5.27938 5.83707 5.90676 0.25
475 1.42681 1.44621 2.80113 0.25
476 7.18448 0.782221 7.36498 0.25
477 3.1274 5.51116 3.93755 0.25
478 6.22096 3.25849 7.10346 0.25
479 3.4258 7.2555 7.55625 0.25
480 4.78653 0.113856 1.9184 0.25
481 7.88945 2.25951 4.19015 0.25
482 6.90236 4.9973 4.64298 0.25
483 7.97352 5.4981 4.72099 0.25
484 2.92185 0.746834 0.0690932 0.25
485 7.98501 7.42347 6.78004 0.25
486 2.57203 5.97812 5.68815 0.25
487 8.08415 7.67047 4.30461 0.25
488 4.52435 4.16006 5.9851 0.25
489 0.829679 8.18534 0.243967 0.25
490 8.05225 8.11012 1.95148 0.25
491 4.40865 2.94907 1.57553 0.25
492 2.51095 1.78652 4.38145 0.25
493 6.47095 4.49573 6.89629 0.25
494 4.78887 7.5145 2.49652 0.25
495 1.29761 6.08541 5.94494 0.25
496 3.15297 7.60932 4.88608 0.25
497 6.47148 4.28975 7.74277 0.25
498 3.38113 2.98899 4.16927 0.25
499 0.757724 5.16733 7.54201 0.25
500 4.0397 2.92005 6.26511 0.25
501 5.81141 3.67195 3.79608 0.25
502 1.66068 8.05394 7.61711 0.25
503 5.89409 4.94751 2.53649 0.5
504 7.74959 7.76965 2.15157 0.25
505 5.84152 1.57826 2.56363 0.25
506 7.03495 6.37562 4.61282 0.25
507 1.30889 0.562023 3.15532 0.25
508 0.679134 8.33198 5.3464 0.25
509 8.03679 4.80806 5.00121 0.5
510 5.04203 1.39375 5.85977 0.25
511 0.580917 0.372587 5.56277 0.25
512 1.19573 0.960899 3.40066 0.25
513 3.83722 0.987721 5.36644 0.25
514 1.94268 5.58868 6.0079 0.25
515 0.675071 8.15075 7.15105 0.25
516 7.42435 1.73588 6.06189 0.25
517 7.21187 5.30691 4.44034 0.25
518 0.929774 3.61251 4.72997 0.25
519 6.45795 2.02622 1.41043 0.25
520 6.94648 2.34378 6.42466 0.25
521 7.71482 1.60042 0.157351 0.25
522 6.83493 0.977337 7.65634 0.25
523 5.24376 6.87015 5.67653 0.25
524 2.72648 0.411433 7.62572 0.25
525 6.4841 4.06995 7.23012 0.25
526 7.04659 5.27731 6.85303 0.25
527 7.39038 8.00692 4.00251 0.25
528 7.51537 1.44549 6.4741 0.25
529 6.69275 1.23237 2.59938 0.25
530 2.10056 1.80846 6.41558 0.25
531 7.91209 8.00477 3.96795 0.25
532 1.59538 1.02137 3.08654 0.25
533 7.33361 0.988491 7.81219 0.25
534 8.21797 6.00869 1.57302 0.25
535 0.379887 3.29699 5.5487 0.5
536 6.85339 2.65685 6.02832 0.25
537 3.91958 0.803544 5.80124 0.25
538 6.40784 5.18585 4.66207 0.25
539 2.24032 1.33667 6.37453 0.25
540 8.14501 6.51454 2.13411 0.5
541 7.55919 3.92917 1.82589 0.25
542 2.10945 2.05396 7.80486 0.25
543 3.37225 7.36355 7.09423 0.25
544 7.81661 6.48939 6.67705 0.25
545 1.19127 6.21605 3.98813 0.25
546 4.98624 5.8652 6.31425 0.25
547 5.02324 2.88207 8.02615 0.25
548 6.09957 7.31114 6.72561 0.25
549 0.22799 7.88369 7.15858 0.25
550 6.20432 6.90795 8.34178 0.25
551 4.34781 1.386 2.54095 0.25
552 3.64235 5.39295 3.99418 0.25
553 6.85313 7.91034 3.62912 0.5
554 4.28394 6.47699 3.10873 0.25
555 4.80896 6.62429 3.60904 0.5
556 7.29065 0.676446 0.854983 0.25
557 7.17618 4.81505 3.94449 0.5
558 6.3691 0.104438 3.52704 0.25
559 1.23766 0.471141 5.63495 0.5
560 4.95652 3.39727 2.22532 0.25
561 2.93778 3.16679 4.10646 0.25
562 5.16277 0.140306 5.4969 0.25
563 2.21169 6.63069 1.62215 0.25
564 6.23263 6.85329 0.734677 0.5
565 6.76134 1.90166 6.63985 0.25
566 1.16763 1.68948 2.48802 0.25
567 4.48407 5.88052 6.08283 0.25
568 5.81843 1.21325 2.83679 0.25
569 2.58486 8.31381 7.91578 0.25
570 1.88488 6.50484 4.70269 0.25
571 3.18124 3.95013 7.52446 0.25
572 8.15356 2.83093 3.81978 0.5
573 3.93009 1.62398 2.51454 0.25
574 1.6987 5.94753 6.23622 0.25
575 2.20053 1.68702 8.09551 0.25
576 4.12424 5.6445 7.55689 0.25
577 5.22154 0.424998 5.0855 0.25
578 1.92396 7.50504 3.79636 0.25
579 7.51453 5.14286 7.58065 0.25
580 7.12276 0.00748097 4.5876 0.5
581 4.40833 4.63609 6.11686 0.25
582 5.77452 2.93853 4.4434 0.25
583 5.66134 3.57998 4.5918 0.5
584 4.84421 6.52823 5.76666 0.25
585 4.71175 3.1835 1.23505 0.25
586 1.92826 0.401347 2.74595 0.5
587 4.93068 6.96342 2.51585 0.25
588 5.73279 5.15877 3.24395 0.25
589 0.151125 2.57704 7.73734 0.25
590 3.49962 6.58088 1.91353 0.25
591 6.78027 1.28058 1.01043 0.25
592 7.42962 7.16512 1.68749 0.5
593 6.76228 6.72004 1.49703 0.25
594 1.41705 5.04056 0.322331 0.5
595 0.711217 3.8352 8.01273 0.25
596 2.27386 0.822981 0.655346 0.25
597 8.37378 0.219118 5.08701 0.5
598 2.51342 6.27714 1.48458 0.25
599 2.05733 8.28744 7.86127 0.25
600 7.73823 0.591564 5.31504 0.25
601 0.581739 0.753237 5.29218 0.25
602 4.00756 0.219535 2.14044 0.25
603 4.17053 5.48703 8.04032 0.25
604 7.52267 5.16859 7.00124 0.25
605 7.85807 2.09856 3.7327 0.25
606 2.06434 8.23801 2.13389 0.25
607 4.46465 5.23993 7.72513 0.25
608 3.64784 7.67034 7.45083 0.25
609 6.5736 4.83144 4.34372 0.25
610 1.77786 1.46207 5.75229 0.25
611 3.08658 0.745243 7.92129 0.25
612 0.640779 7.34972 0.214892 0.25
613 6.95721 0.972721 8.17446 0.25
614 4.1704 1.01947 5.00833 0.25
615 4.80333 2.56701 3.57225 0.25
616 1.08906 5.68393 3.21766 0.25
617 1.65012 0.132675 2.05886 0.25
618 7.55026 7.22926 4.08214 0.5
619 7.68882 7.95082 4.42551 0.25
620 8.22134 7.44555 2.52808 0.5
621 4.16371 6.48883 3.96331 0.25
622 6.24911 6.60974 6.22561 0.25
623 6.11218 6.13046 0.326977 0.25
624 1.17585 3.42658 5.66383 0.25
625 1.37763 5.38895 8.03752 0.25
626 3.4163 0.33693 1.5421 0.25
627 4.87774 4.70795 1.81605 0.25
628 8.26549 3.46903 2.55479 0.5
629 7.08308 3.36247 0.154643 0.25
630 1.4612 0.0887861 3.16595 0.25
631 1.87339 1.53252 7.82759 0.25
632 7.61563 7.92776 1.7156 0.25
633 6.12465 7.6829 0.581712 0.25
634 2.94669 7.90247 3.95783 0.25
635 0.843996 7.29646 0.947213 0.5
636 1.78298 1.62133 1.1378 0.25
637 5.56334 0.506973 5.43303 0.25
638 4.56194 1.31131 5.17273 0.25
639 4.7493 1.70191 0.0143563 0.25
640 5.19785 7.54147 0.439573 0.25
641 1.41152 6.70923 5.34033 0.25
642 3.54395 0.59963 5.56629 0.25
643 6.30789 6.88358 5.7959 0.25
644 5.84025 0.752177 2.6237 0.25
645 2.22412 2.25 1.50022 0.25
646 8.31144 6.68671 6.63647 0.25
647 2.47073 3.03656 4.11774 0.25
648 5.26671 1.05252 8.31479 0.25
649 0.408411 4.19065 2.03831 0.25
650 8.27396 3.80544 1.46625 0.25
651 3.24487 3.22764 3.7621 0.25
652 6.72049 0.849159 7.16532 0.25
653 1.26602 6.62768 0.957185 0.25
654 0.574794 2.29041 0.158484 0.25
655 3.60415 3.61312 6.39381 0.5
656 0.538049 3.50539 7.26042 0.25
657 1.46569 5.63551 5.97646 0.25
658 6.82745 0.321221 3.55625 0.25
659 2.60366 1.90418 7.90555 0.25
660 6.90921 5.91526 4.03446 0.5
661 8.29285 1.03122 0.147401 0.25
662 3.97263 4.7389 4.2953 0.25
663 2.53771 3.73828 1.75978 0.25
664 6.4423 2.55605 4.8582 0.25
665 7.7766 3.86652 1.39552 0.25
666 5.96921 6.81434 6.60315 0.25
667 6.59823 3.3041 0.0996878 0.25
668 7.01756 6.46289 1.89425 0.25
669 6.14621 4.81098 7.00382 0.25
670 5.83905 8.35584 4.78117 0.25
671 3.55151 4.84349 4.60356 0.25
672 2.69638 3.30564 2.0537 0.25
673 0.837951 1.21808 3.25123 0.25
674 4.90252 7.33251 3.30759 0.25
675 5.28938 3.65242 5.31279 0.25
676 7.62545 8.25824 2.10864 0.25
677 6.38296 1.54245 1.24396 0.25
678 7.44163 6.1152 4.48861 0.25
679 1.12961 6.29665 1.36297 0.25
680 3.67849 6.63246 8.07586 0.25
681 7.71313 8.38958 4.09039 0.25
682 2.10724 6.1584 1.80975 0.25
683 1.63698 7.75047 7.25652 0.25
684 0.377938 3.82874 1.67427 0.25
685 2.82561 3.46137 6.55644 0.25
686 4.30113 2.71541 6.67892 0.25
687 1.68344 4.47601 0.80493 0.25
688 3.46769 0.707968 6.07578 0.25
689 6.15594 4.10635 8.09722 0.25
690 6.19728 1.1097 2.54661 0.25
691 6.83673 1.66143 1.38978 0.25
692 5.17495 5.16252 1.64533 0.25
693 7.23938 1.94017 6.49537 0.25
694 7.31384 4.95258 4.79372 0.25
695 8.1253 3.03064 5.95332 0.25
696 5.70299 5.92545 3.21597 0.5
697 4.37744 3.71996 6.31667 0.25
698 1.79441 0.948568 5.57191 0.25
699 1.55784 6.85835 4.88476 0.25
700 4.21795 5.92325 0.916227 0.25
701 4.9852 1.65949 7.90745 0.25
702 2.25913 4.33997 7.35524 0.25
703 3.35931 6.62534 7.36172 0.5
704 4.59443 5.18646 8.15495 0.25
705 4.84365 3.18181 1.73585 0.25
706 5.1429 0.0178178 8.30074 0.25
707 4.62772 3.93816 1.04549 0.5
708 5.67109 7.40596 7.793 0.25
709 2.5202 7.19882 2.02238 0.5
710 2.20316 4.25205 6.87937 0.25
711 5.06774 6.34475 3.03856 0.25
712 0.5655 5.28293 8.02363 0.25
713 2.81908 4.09955 1.64781 0.25
714 5.28125 4.11216 0.640194 0.25
715 4.68196 6.59641 2.83783 0.25
716 6.779 0.468199 7.51967 0.25
717 7.63046 7.81 3.58131 0.25
718 6.13603 3.5502 6.65704 0.25
719 5.96271 4.50724 7.83281 0.25
720 1.70061 7.62797 4.20142 0.25
721 6.57041 2.20478 2.44722 0.25
722 2.35788 7.80953 3.32688 0.5
723 2.37209 7.62758 2.60273 0.25
724 7.09276 6.45593 1.3575 0.25
725 7.76077 6.3178 7.19043 0.25
726 0.972645 1.07534 5.42363 0.25
727 4.26117 0.231176 1.33183 0.25
728 3.65249 6.16198 7.91883 0.25
729 4.95471 5.93233 3.37218 0.25
730 2.97059 7.17923 7.28226 0.25
731 5.46714 3.06283 2.65351 0.25
732 4.1684 3.54233 6.79818 0.25
733 3.62987 5.52961 7.38845 0.25
734 4.00141 1.09536 2.36255 0.25
735 3.5087 2.87283 6.34201 0.25
736 7.96115 1.27573 8.27695 0.25
737 3.52967 0.609492 1.10334 0.25
738 0.369467 8.30438 0.49607 0.25
739 4.6259 6.14843 2.98267 0.25
740 5.33041 7.14818 3.27614 0.25
741 0.656957 8.00685 0.732556 0.25
742 3.92047 4.64136 6.08942 0.25
743 6.9913 0.867116 1.1825 0.25
744 4.47052 0.991935 2.24698 0.25
745 3.70824 4.23164 5.97018 0.25
746 1.25914 6.19634 4.80355 0.5
747 4.46902 0.434041 2.09119 0.25
748 2.76219 6.77658 6.98569 0.25
749 1.53925 1.42943 2.2918 0.25
750 0.062846 3.42812 1.7759 0.25
751 0.99822 0.777104 4.99629 0.25
752 6.35865 4.82717 7.76999 0.25
753 4.04133 0.830969 1.65176 0.5
754 4.29035 6.03451 1.42941 0.25
755 2.85066 2.65283 1.52646 0.5
756 7.82199 6.75705 7.45882 0.25
757 5.7637 6.92433 5.63695 0.25
758 6.88779 3.9278 7.34088 0.25
759 4.41309 7.94866 5.12862 0.25
760 0.282265 2.52705 3.36963 0.25
761 3.80501 7.20845 7.24464 0.25
762 0.602066 1.83904 3.51044 0.5
763 3.9106 8.14011 1.90489 0.25
764 1.47065 6.37563 0.569817 0.25
765 7.50583 4.86892 3.18561 0.25
766 0.734004 4.09486 2.82828 0.25
767 2.66904 6.94807 7.47786 0.25
768 2.24777 3.02203 5.12939 0.25
769 7.97962 3.64177 1.81164 0.25
770 4.97725 0.867278 7.9202 0.25
771 6.71785 1.16319 6.17377 0.25
772 4.87784 2.37881 8.04514 0.25
773 5.31673 1.14815 5.11511 0.5
774 3.53661 7.98391 5.02567 0.25
775 8.02648 4.46186 2.81473 0.5
776 6.99797 3.93357 0.597827 0.5
777 6.01398 6.50428 0.0806869 0.25
778 4.93499 7.96235 0.181532 0.25
779 8.16617 8.19123 4.34027 0.25
780 2.13989 1.62068 5.99434 0.25
781 2.69016 1.72652 8.35197 0.25
782 1.47352 7.65396 0.562267 0.25
783 6.76706 3.16296 0.515316 0.25
784 2.04568 7.80012 2.22407 0.25
785 2.57795 1.72254 6.29625 0.25
786 2.48441 7.95633 2.21628 0.25
787 7.90326 6.95518 6.66136 0.25
788 0.0860275 4.05465 2.38411 0.25
789 3.6582 8.22333 4.65458 0.25
790 7.10381 0.743056 6.83013 0.25
791 0.581673 4.7059 3.22811 0.5
792 2.32059 0.348515 7.80993 0.25
793 8.2078 7.19258 1.83905 0.25
794 5.43025 6.49664 6.28296 0.5
795 2.47822 4.17325 3.14222 0.25
796 2.13962 5.76399 5.56214 0.25
797 6.69336 6.40606 1.08864 0.25
798 7.60919 4.34398 1.54194 0.25
799 4.18442 3.34135 6.03029 0.25
800 7.97215 2.0716 3.28383 0.25
801 3.33912 7.85322 7.08948 0.25
802 3.37065 5.31012 4.37408 0.25
803 3.27306 8.32608 7.66498 0.5
804 3.67493 7.02323 1.72358 0.25
805 1.69052 7.97793 1.95954 0.25
806 2.6173 1.84614 3.89948 0.25
807 4.70324 6.22626 5.41283 0.25
808 4.23808 1.9481 7.81319 0.25
809 1.73287 5.95616 5.74334 0.25
810 6.49735 7.56011 6.55699 0.25
811 1.60966 3.29871 4.92758 0.5
812 5.73602 7.40624 0.588396 0.25
813 4.19693 1.74193 2.90131 0.25
814 1.59942 7.50615 7.63896 0.25
815 2.82266 8.13614 4.36203 0.25
816 1.05363 3.04729 5.36727 0.25
817 4.48579 1.56636 7.98019 0.25
818 3.75654 1.77273 3.13686 0.25
819 1.77529 5.33398 1.34854 0.25
820 3.51091 2.93957 6.84103 0.25
821 1.552 2.07675 8.28131 0.5
822 5.85354 4.3765 3.43577 0.5
823 5.13982 0.37989 7.82737 0.25
824 0.719673 0.345353 5.09438 0.25
825 3.77621 5.99885 7.48506 0.25
826 3.31304 3.56273 1.62012 0.5
827 5.79695 7.24819 6.32536 0.25
828 0.192527 2.06867 7.7196 0.25
829 8.12159 7.92256 4.72465 0.25
830 0.847601 2.00244 2.67987 0.25
831 2.35271 4.15858 7.8147 0.25
832 5.70553 4.49108 1.8905 0.25
833 1.80477 1.44135 6.30423 0.25
834 4.12192 0.594009 2.34522 0.25
835 6.00721 1.87714 1.39022 0.25
836 3.37971 7.59976 7.9345 0.25
837 3.95823 5.19437 7.67573 0.25
838 7.45924 0.930239 1.2476 0.25
839 6.09518 7.63078 6.32609 0.25
840 7.01154 4.68749 7.33167 0.5
841 3.31723 7.02331 2.03227 0.25
842 0.138751 2.01907 2.79641 0.5
843 5.78812 3.79004 5.24497 0.25
844 4.72161 2.20976 0.078734 0.25
845 7.37813 2.71076 5.30464 0.25
846 3.76488 3.39988 7.40406 0.5
847 2.00631 5.32011 0.89624 0.25
848 1.72106 5.87436 5.26418 0.25
849 5.14983 7.79557 2.69161 0.25
850 6.28323 2.8055 5.50913 0.5
851 5.59615 0.0761548 5.21838 0.25
852 6.97521 1.40341 7.90652 0.25
853 3.99951 7.90789 4.7979 0.25
854 4.19826 1.51205 5.8378 0.5
855 0.37877 4.06629 5.37484 0.25
856 0.705965 5.40457 3.26163 0.25
857 3.64008 6.61631 1.44921 0.25
858 2.56539 4.73539 3.74321 0.25
859 6.43665 4.53049 3.91319 0.25
860 7.60435 4.15775 1.0328 0.25
861 4.65546 2.72224 8.29466 0.25
862 6.59147 4.71606 3.47604 0.25
863 5.45339 6.15001 0.842436 0.25
864 7.61595 6.97436 2.4194 0.25
865 3.7423 5.65745 7.85415 0.25
866 5.08389 8.1132 3.05111 0.25
867 1.88737 4.10498 7.57885 0.25
868 2.28046 1.6891 0.576694 0.5
869 0.932806 3.18606 7.26743 0.25
870 6.14658 5.43591 3.10335 0.25
871 2.93288 7.56179 6.99977 0.25
872 5.77452 3.02188 4.99107 0.25
873 0.379785 8.1893 8.40544 0.25
874 3.73764 1.05893 6.24899 0.25
875 2.17198 4.28679 1.23522 0.5
876 1.3277 5.8159 5.52168 0.25
877 0.0723545 5.19919 7.80963 0.25
878 5.77631 1.17187 2.28409 0.25
879 3.17972 8.10764 4.68214 0.25
880 6.43565 5.91438 2.98586 0.25
881 7.1643 1.29697 1.325 0.25
882 7.86008 7.15538 7.15957 0.25
883 0.5371 3.89916 2.44822 0.25
884 7.1334 3.26853 0.841964 0.25
885 0.804011 4.30979 5.23353 0.25
886 7.85964 7.61035 3.14744 0.25
887 1.03938 6.76599 1.41525 0.25
888 1.10419 4.84945 3.70987 0.25
889 1.3276 8.1914 2.79573 0.25
890 0.411456 4.43482 2.5403 0.25
891 0.953258 2.40033 7.82731 0.25
892 7.51889 3.58429 1.04974 0.25
893 1.1184 8.06464 0.634067 0.25
894 3.88367 5.81565 1.65106 0.25
895 3.89318 5.70236 1.22756 0.25
896 1.87471 1.43512 8.33505 0.25
897 8.00622 4.17345 1.72936 0.25
898 0.926952 4.37878 3.87423 0.25
899 0.771536 0.00446778 5.81805 0.25
900 5.19944 6.29857 5.67889 0.25
901 0.903834 1.54219 2.88882 0.25
902 7.31123 3.96747 1.34587 0.25
903 5.82872 3.62634 3.24931 0.25
904 6.94252 4.05336 7.82117 0.25
905 5.12585 0.906191 5.83772 0.25