ITEM: TIMESTEP
720000
ITEM: NUMBER OF ATOMS
1000
ITEM: BOX BOUNDS xy xz yz pp pp pp
0.0000000000000000e+00 8.3788359999999997e+00 0.0000000000000000e+00
0.0000000000000000e+00 8.3788359999999997e+00 0.0000000000000000e+00
0.0000000000000000e+00 8.3788359999999997e+00 0.0000000000000000e+00
ITEM: ATOMS id x y z radius
1 2.55571 6.81624 4.91446 0.25
2 4.8126 4.98691 5.13987 0.25
3 6.97737 4.59426 3.09405 0.25
4 7.23518 1.14066 5.84283 0.5
5 1.16573 5.75221 6.29795 0.25
6 8.22417 1.80836 3.4379 0.25
7 4.28344 3.26724 6.56356 0.25
8 4.7662 7.80028 2.99485 0.25
9 0.736582 6.11599 3.85619 0.25
10 4.08641 1.52914 3.51652 0.25
11 5.3296 0.0973321 7.81952 0.25
12 5.05999 3.54096 1.42082 0.25
13 0.619592 2.36765 7.44265 0.25
14 3.96366 2.83971 7.16439 0.25
15 8.03444 3.09926 5.8839 0.25
16 7.45138 1.04842 6.59617 0.25
17 1.05551 5.35553 8.28474 0.25
18 6.076 7.62697 8.09872 0.25
19 4.63721 1.92032 7.60011 0.25
20 7.83144 1.41097 0.683287 0.25
21 4.87497 4.24956 1.77074 0.25
22 4.18606 3.22862 1.28484 0.25
23 2.18613 3.32286 2.04993 0.25
24 2.84459 1.97758 4.72713 0.25
25 2.76989 4.43816 2.92648 0.25
26 0.332842 8.36102 5.72054 0.25
27 3.89887 0.306413 5.76212 0.25
28 4.16052 2.14298 8.26524 0.25
29 5.0555 6.96233 2.96207 0.25
30 7.46176 7.37888 2.36893 0.25
31 2.72896 0.378443 8.13574 0.25
32 0.982803 2.68192 7.3528 0.25
33 7.52012 0.108665 5.31537 0.25
34 2.06908 5.69657 1.73366 0.25
35 7.87071 0.192208 4.54816 0.25
36 6.69145 2.03599 5.7624 0.5
37 4.20415 1.51186 2.29423 0.25
38 2.16957 3.44963 4.40969 0.25
39 6.09136 2.61452 4.78716 0.25
40 5.2434 7.73255 3.09583 0.25
41 6.62456 2.25699 2.82681 0.25
42 5.6361 5.95997 5.72108 0.25
43 3.41004 7.67468 4.89991 0.25
44 3.80045 8.25003 5.46443 0.25
45 5.62924 4.03787 3.98322 0.25
46 3.30073 6.11305 1.46398 0.5
47 4.99961 0.827454 5.48424 0.25
48 8.10323 6.24188 6.8497 0.25
49 7.4923 6.77533 4.66375 0.25
50 7.88971 1.2498 1.19766 0.25
51 2.65359 3.44649 4.43984 0.25
52 0.667509 1.60481 2.46262 0.25
53 6.69022 5.03503 6.90445 0.25
54 5.82109 3.23621 3.99252 0.25
55 1.62411 1.0693 5.91331 0.25
56 1.30507 7.28696 0.368737 0.25
57 4.6782 0.804094 2.10572 0.25
58 2.1967 2.14984 4.23944 0.25
59 4.71699 1.0944 6.31538 0.25
60 7.73762 5.50472 5.14767 0.25
61 5.01134 8.09481 7.99087 0.25
62 5.2344 1.96992 0.12064 0.5
63 7.49237 6.63649 1.05172 0.25
64 1.14826 6.15792 1.00356 0.25
65 4.28326 0.181454 1.80718 0.25
66 2.36319 4.74181 7.19805 0.25
67 8.36821 4.94503 7.40857 0.25
68 7.06489 0.726646 6.45312 0.25
69 0.494345 5.5472 7.62646 0.25
70 1.72093 4.9235 1.07772 0.25
71 8.18445 1.35298 0.333918 0.25
72 6.52968 6.27358 3.44309 0.25
73 0.527486 7.44702 6.82926 0.25
74 7.49272 5.59128 6.90558 0.25
75 7.14455 0.0243738 3.37188 0.25
76 7.56303 6.45051 4.33555 0.25
77 5.52693 2.79934 5.29563 0.25
78 5.3353 3.88273 1.12565 0.25
79 7.60026 5.03851 4.46456 0.25
80 5.73461 3.3033 5.32657 0.25
81 7.06211 1.41129 1.12299 0.25
82 8.29443 2.71085 5.9599 0.25
83 4.45729 5.68779 5.56027 0.25
84 1.06943 1.0423 5.99692 0.25
85 1.32405 1.07618 5.17647 0.25
86 4.63295 8.25466 5.41286 0.25
87 1.75493 2.43289 0.778905 0.25
88 3.25634 6.83781 1.55547 0.25
89 6.86808 7.29022 0.720301 0.25
90 5.47244 6.40895 5.49017 0.25
91 4.03484 4.11359 6.26004 0.25
92 6.24667 4.63173 7.50033 0.25
93 4.99113 6.42011 5.34359 0.25
94 6.67601 0.27122 4.02018 0.25
95 0.398156 4.57314 7.83692 0.5
96 5.35076 3.11322 3.37756 0.5
97 4.27101 5.02315 8.22598 0.25
98 8.37931 2.21825 3.41732 0.25
99 1.55892 6.34219 5.80389 0.25
100 7.0199 6.89115 1.02172 0.25
101 0.86444 7.72497 8.15901 0.25
102 7.78869 4.77678 3.3428 0.25
103 6.70142 1.19244 1.39544 0.25
104 1.09551 4.71857 7.56414 0.25
105 5.15229 5.70725 5.18648 0.5
106 5.32474 0.326791 4.56897 0.25
107 4.30542 3.20219 7.08738 0.25
108 4.71451 1.4042 8.28176 0.25
109 0.667554 0.741008 5.84964 0.25
110 2.21971 8.00202 8.27084 0.25
111 3.14654 3.71356 6.86589 0.25
112 4.60153 2.15331 8.07116 0.25
113 1.60419 1.97724 1.88515 0.5
114 1.79635 3.63571 7.27357 0.25
115 4.64231 6.13492 6.29407 0.25
116 2.47029 7.1292 7.11735 0.25
117 4.14466 2.23962 3.76001 0.5
118 6.72565 7.29539 1.19499 0.25
119 0.771567 6.35112 3.45997 0.25
120 0.0972141 2.98828 3.0597 0.25
121 3.20631 4.12138 3.57416 0.25
122 6.64303 0.994243 6.29552 0.25
123 5.28826 0.433782 5.54739 0.25
124 8.03446 8.10529 2.39072 0.25
125 3.38531 2.04802 3.95188 0.25
126 3.62306 1.06342 5.7905 0.25
127 5.19945 3.97797 1.59611 0.25
128 6.81019 5.35728 7.2616 0.25
129 0.914745 6.4021 4.24982 0.25
130 6.02557 6.25274 0.446001 0.25
131 7.00437 1.66299 6.41123 0.25
132 5.99758 4.21497 7.64285 0.25
133 3.00654 1.80924 3.67823 0.25
134 4.45728 2.6148 8.31031 0.25
135 5.42172 3.84529 3.54532 0.25
136 2.86531 2.53807 3.79047 0.5
137 2.86792 3.98827 3.20616 0.25
138 7.51583 7.93107 2.90172 0.5
139 2.4468 7.59487 5.15441 0.25
140 5.16248 7.60104 7.85766 0.25
141 7.85605 5.90059 4.88056 0.25
142 1.08982 5.11206 3.12889 0.25
143 2.35721 2.15549 8.21201 0.25
144 5.0485 1.1651 2.68095 0.5
145 7.48498 1.93528 3.89584 0.25
146 6.03937 7.43864 0.146761 0.25
147 6.52434 5.62037 4.47884 0.25
148 2.31577 3.04817 4.65786 0.25
149 4.47441 8.30121 2.52007 0.5
150 5.12277 2.80531 4.00378 0.25
151 3.45341 5.87589 7.23219 0.25
152 3.66735 4.5362 5.62502 0.25
153 6.76535 5.97633 2.25284 0.5
154 7.25695 2.40365 4.48804 0.5
155 2.99482 7.20837 7.76671 0.25
156 7.42821 3.64553 1.50201 0.25
157 7.70451 5.93827 1.5275 0.25
158 2.6207 3.80742 0.952886 0.25
159 6.99376 7.75026 4.38077 0.25
160 6.43218 1.88413 3.07922 0.25
161 0.855728 5.33371 2.74581 0.25
162 5.91394 4.43992 7.20392 0.25
163 3.35513 3.77066 4.22297 0.5
164 2.55909 3.80113 2.54935 0.5
165 5.40108 8.02079 7.69297 0.25
166 0.101781 3.84214 8.0584 0.25
167 6.65037 4.13642 8.2429 0.25
168 4.76587 5.87635 5.8774 0.25
169 4.06496 4.28498 5.76677 0.25
170 8.12263 2.80864 6.36282 0.25
171 7.86119 5.84877 1.05314 0.25
172 1.02969 2.97491 6.93885 0.25
173 4.3657 6.14516 5.89489 0.25
174 2.14679 2.29391 1.03748 0.25
175 7.61988 2.46172 5.96493 0.5
176 2.46115 5.77676 6.11269 0.25
177 5.39139 3.5694 3.97311 0.25
178 3.11494 6.64066 1.97137 0.25
179 3.3743 2.09958 3.39709 0.25
180 5.89721 6.38444 5.82961 0.25
181 6.63839 4.22769 6.85678 0.25
182 3.37814 5.4168 3.30154 0.25
183 7.88603 7.7018 1.66878 0.25
184 3.90154 5.31087 0.0353686 0.25
185 5.79324 6.77842 6.11775 0.25
186 7.54979 5.93242 4.45398 0.25
187 2.88661 5.23105 4.00001 0.25
188 0.649505 5.87556 3.38353 0.25
189 4.18527 6.73247 3.62679 0.25
190 3.93579 3.6099 1.40493 0.25
191 7.11197 1.66635 0.384271 0.5
192 1.0953 5.00442 7.94601 0.25
193 3.78296 5.49674 1.61045 0.25
194 2.69911 6.38828 1.8262 0.25
195 6.15362 5.74094 2.69336 0.25
196 2.2557 7.98172 2.75112 0.25
197 1.19617 0.273868 2.22254 0.25
198 7.86167 4.88687 7.38582 0.25
199 1.15253 1.29363 3.18482 0.25
200 4.50269 5.31411 1.45791 0.5
201 6.72953 1.44034 3.05421 0.25
202 8.207 3.76791 5.24846 0.25
203 3.58436 1.72162 3.62774 0.25
204 5.57158 8.04301 0.0330525 0.5
205 2.35252 7.43427 4.4599 0.5
206 0.288405 4.44826 5.19839 0.25
207 5.64506 2.73381 4.0116 0.25
208 6.87678 5.30246 4.24626 0.25
209 5.53171 7.06857 8.21686 0.5
210 1.84301 8.06697 3.03351 0.25
211 0.694002 3.70621 5.01692 0.25
212 1.44376 7.94709 8.35185 0.5
213 0.321662 4.10438 2.70052 0.25
214 1.84297 8.07153 2.55998 0.25
215 2.91253 4.34242 3.93913 0.25
216 6.19164 1.93106 2.64355 0.25
217 4.8201 3.71592 1.83067 0.25
218 2.43966 3.462 4.89629 0.25
219 4.3215 0.941375 2.85333 0.25
220 3.53418 3.60506 1.05717 0.25
221 4.19981 8.29436 5.64594 0.25
222 7.21232 0.550399 5.23088 0.25
223 8.21568 2.73895 2.66455 0.25
224 7.31565 5.49193 7.32109 0.25
225 7.22249 2.18852 5.28501 0.25
226 5.03295 2.20103 7.80978 0.25
227 6.36926 3.83026 7.02206 0.25
228 5.43479 3.11433 4.19372 0.25
229 5.7421 5.09831 1.85955 0.25
230 0.427692 8.07558 6.39015 0.5
231 5.33959 4.60656 1.33127 0.5
232 1.92625 2.97839 4.33673 0.25
233 3.91236 5.22319 4.34812 0.25
234 6.62659 1.39657 6.64292 0.25
235 3.14018 7.30907 4.67465 0.25
236 0.942507 2.48535 7.8335 0.25
237 8.26045 2.95531 7.497 0.25
238 3.5348 0.847353 1.13376 0.25
239 0.283461 2.33921 3.79845 0.25
240 6.68333 6.27596 1.5756 0.25
241 3.41489 7.0741 7.94362 0.25
242 1.72702 7.38527 2.70553 0.5
243 2.89078 4.82526 3.2534 0.25
244 7.05928 3.59868 1.24062 0.25
245 2.1447 1.18557 5.82172 0.25
246 7.50917 8.19336 3.65105 0.25
247 3.44771 2.46596 3.65538 0.25
248 3.71872 3.18006 1.24641 0.25
249 0.341932 5.23038 7.29435 0.25
250 1.30768 3.70747 5.451 0.25
251 5.35082 2.51724 4.62348 0.5
252 3.17928 2.19147 4.40164 0.25
253 8.07702 5.62789 7.31316 0.5
254 7.46438 5.96312 7.20326 0.25
255 4.66889 0.407624 5.99685 0.5
256 5.67176 6.33329 0.0640468 0.25
257 1.15526 0.130548 2.7181 0.25
258 1.62567 1.79976 2.60528 0.25
259 4.36762 3.45416 1.67185 0.25
260 7.88419 6.33537 1.23826 0.25
261 3.93008 8.34731 1.38743 0.25
262 3.51302 2.51622 4.16788 0.25
263 2.13201 0.34328 0.202532 0.5
264 2.78295 4.4088 3.47268 0.25
265 1.16646 3.95251 7.5191 0.5
266 0.896276 7.68423 7.42868 0.5
267 5.28136 2.62488 8.02279 0.25
268 6.34534 7.8387 0.0781632 0.25
269 1.56621 5.38539 0.948654 0.25
270 4.00054 3.50835 0.917789 0.25
271 7.42267 7.83775 4.62932 0.25
272 1.72585 1.03347 2.61095 0.25
273 1.3114 3.42442 7.10264 0.25
274 1.0226 5.48081 7.80582 0.25
275 4.61027 4.56427 1.58387 0.25
276 2.77057 3.36886 1.15458 0.25
277 6.7148 0.949696 6.76773 0.25
278 3.97328 6.19973 1.21698 0.25
279 4.18013 0.3861 5.05866 0.5
280 7.73879 8.21022 4.89939 0.25
281 0.965876 6.45807 0.678928 0.25
282 6.2035 6.99442 6.25843 0.25
283 1.08734 -0.0207605 6.10414 0.25
284 7.44717 4.41768 0.942172 0.25
285 1.85509 6.05919 1.21243 0.5
286 5.50186 6.73893 3.14684 0.25
287 1.38556 7.77377 3.51268 0.5
288 2.78391 7.26844 5.06669 0.25
289 2.2692 7.11985 5.20257 0.25
290 2.02502 3.76174 2.00537 0.25
291 8.10951 7.6029 7.08359 0.25
292 7.73063 2.52568 3.31367 0.25
293 7.43651 4.43395 3.31465 0.25
294 5.46713 3.82492 3.04139 0.25
295 8.22072 4.14853 1.07516 0.25
296 0.566139 4.22898 4.49122 0.5
297 3.91391 3.08022 6.80423 0.25
298 6.43993 5.05485 7.34622 0.25
299 6.03683 5.03507 7.68324 0.25
300 6.46593 3.43729 0.498819 0.25
301 1.17761 7.37906 8.01757 0.25
302 0.185924 4.07783 1.45445 0.25
303 3.96094 1.18927 1.13488 0.25
304 2.17808 2.66102 4.9428 0.25
305 0.820873 4.91266 8.33193 0.25
306 2.42164 2.23697 4.75911 0.25
307 1.80911 4.70733 7.74159 0.5
308 3.89264 5.50836 3.10982 0.25
309 4.50545 0.933998 5.47946 0.25
310 0.52614 4.72599 3.82135 0.25
311 7.17614 0.0798435 3.89308 0.25
312 0.947851 0.8821 2.52139 0.5
313 0.82055 3.78241 5.50484 0.25
314 5.13831 3.53602 2.73814 0.25
315 1.18149 4.58825 8.09837 0.25
316 1.89791 4.11459 7.13345 0.25
317 7.53558 2.41834 3.76832 0.25
318 2.31801 2.60162 4.40365 0.25
319 4.82005 7.21998 7.97955 0.25
320 2.06839 6.10217 6.01144 0.25
321 4.37873 0.827236 1.16587 0.25
322 7.25204 6.45621 5.06191 0.25
323 0.758849 5.90919 4.25879 0.25
324 4.09895 7.19153 7.71008 0.5
325 1.07546 1.87417 0.193152 0.25
326 4.06769 4.7487 5.0556 0.5
327 7.62724 7.33961 3.35183 0.25
328 2.35701 7.88942 1.91741 0.25
329 1.1141 5.99655 3.5102 0.25
330 8.12317 7.14311 7.34562 0.25
331 0.940311 5.35968 3.84671 0.5
332 7.38442 6.52489 2.10722 0.25
333 1.01947 1.49833 2.0974 0.25
334 6.71484 1.66534 1.35605 0.25
335 3.21655 3.20238 1.09028 0.25
336 2.89152 6.9921 6.90415 0.25
337 4.31069 7.27947 3.04279 0.5
338 6.49386 7.39442 8.27162 0.25
339 1.94845 7.83756 4.01502 0.25
340 4.94686 0.486743 4.80345 0.25
341 6.66871 0.10956 3.17638 0.25
342 1.29193 5.17456 7.53251 0.25
343 2.81369 1.42507 0.345707 0.25
344 1.09936 5.78953 2.67585 0.25
345 0.417729 1.37936 2.80283 0.25
346 0.49706 2.35342 7.94477 0.25
347 3.35825 5.91787 7.73355 0.25
348 7.21087 7.82758 2.17189 0.25
349 0.845307 2.17926 8.26262 0.25
350 6.68173 1.75137 2.67544 0.25
351 1.38691 7.1716 0.895872 0.25
352 6.33649 3.5686 7.70712 0.5
353 2.33301 0.0385591 7.50688 0.25
354 1.95001 0.714788 5.78155 0.25
355 0.676718 0.253149 5.99862 0.25
356 1.80013 1.82349 6.18251 0.25
357 2.81395 3.84754 6.51554 0.25
358 6.12663 3.43965 5.1446 0.25
359 4.25943 0.892512 6.31411 0.25
360 1.76019 2.09745 1.2045 0.25
361 0.888325 7.63063 0.313856 0.25
362 6.1602 4.23806 6.85005 0.25
363 8.0053 4.01292 2.0403 0.25
364 5.94387 3.95253 7.19148 0.25
365 5.53001 6.14007 0.513398 0.25
366 5.45105 6.54843 0.870126 0.25
367 2.85614 4.16509 6.88312 0.25
368 6.83904 3.7153 8.19441 0.25
369 1.32754 6.81634 0.544776 0.25
370 5.47636 0.423331 8.22795 0.25
371 2.52698 8.03655 4.90675 0.25
372 2.07668 4.79032 0.798724 0.25
373 6.99266 2.85718 5.09543 0.25
374 3.69503 4.42973 4.4462 0.25
375 5.36109 0.927613 8.14529 0.25
376 2.61317 5.84082 1.07986 0.25
377 6.35876 1.48459 2.0316 0.5
378 0.419681 3.82952 7.62875 0.25
379 5.14759 1.38525 8.04111 0.25
380 2.2982 6.67972 4.49466 0.25
381 4.07987 5.27314 5.55184 0.25
382 2.02247 6.87762 4.79595 0.25
383 6.21348 5.25422 3.93433 0.5
384 2.07381 1.80145 1.26906 0.25
385 7.07627 1.58148 7.12083 0.5
386 1.32566 1.29266 5.59722 0.25
387 7.87574 0.897044 0.817044 0.25
388 0.642249 5.78613 2.90587 0.25
389 4.62134 2.73245 7.55058 0.5
390 3.97158 0.51 6.29065 0.25
391 5.41709 4.84967 2.04936 0.25
392 8.2138 2.55524 3.13899 0.25
393 2.79193 6.71737 1.50575 0.25
394 0.73942 8.22361 7.99592 0.25
395 2.5181 1.98368 1.22624 0.25
396 4.68182 7.67982 7.98524 0.25
397 5.04915 0.665981 0.0279033 0.25
398 7.50074 1.49682 8.19793 0.25
399 3.18555 4.41354 3.17185 0.25
400 4.91591 4.55389 0.708797 0.25
401 2.19144 7.04928 3.81356 0.25
402 8.17055 7.9372 6.73639 0.25
403 7.75039 6.27149 0.806359 0.25
404 7.96278 6.76135 6.98306 0.25
405 0.487543 7.58143 0.098648 0.25
406 5.52109 8.3375 4.31066 0.25
407 2.56629 1.06982 8.05812 0.5
408 5.48836 3.31263 2.30272 0.25
409 2.17115 4.97581 1.25713 0.25
410 7.56561 0.907092 0.19804 0.5
411 4.51116 5.31733 5.23735 0.25
412 8.20143 7.13955 6.80931 0.25
413 1.37468 1.51849 0.0306461 0.25
414 0.48773 3.11012 7.8857 0.5
415 6.47057 4.71053 2.92611 0.25
416 3.0831 2.93087 6.52505 0.25
417 3.46954 4.79954 3.80075 0.5
418 7.2297 6.71916 4.24218 0.25
419 4.0795 3.80689 5.91205 0.25
420 0.877398 3.14502 4.9085 0.25
421 4.13123 4.7707 5.72307 0.25
422 2.28131 5.50317 1.28084 0.25
423 0.257005 0.412731 5.90286 0.25
424 0.527239 3.40944 4.7269 0.25
425 1.83953 2.86518 1.44132 0.5
426 7.06431 5.72338 4.9524 0.5
427 2.67734 2.19464 4.32443 0.25
428 4.06647 5.19114 3.84306 0.25
429 4.50397 4.43941 5.6415 0.25
430 1.81207 7.10773 3.45737 0.25
431 0.863361 3.47772 6.9257 0.25
432 1.5822 6.76085 4.10929 0.5
433 2.41937 1.56163 7.59472 0.25
434 0.817045 6.496 1.16025 0.25
435 5.64016 3.45796 2.73431 0.25
436 0.985828 6.13779 3.03612 0.25
437 0.191747 1.13882 0.454817 0.25
438 1.02003 3.43 5.21473 0.25
439 3.86583 2.56982 6.71901 0.25
440 5.14192 1.72987 7.68318 0.25
441 7.87076 4.0978 5.25328 0.25
442 2.53136 5.868 1.60892 0.25
443 0.334686 2.92352 6.92682 0.5
444 2.05188 3.54291 1.57629 0.25
445 5.42052 7.00087 0.568977 0.25
446 4.27769 5.95293 3.60829 0.5
447 1.39959 1.46038 6.11511 0.25
448 5.9027 7.20221 5.91205 0.25
449 0.982423 5.54751 5.85105 0.25
450 3.11076 3.73757 1.06047 0.25
451 2.63858 6.9058 5.40435 0.25
452 2.48787 1.03512 0.414262 0.25
453 4.65175 4.72144 1.06037 0.25
454 0.077452 3.45663 7.43071 0.25
455 8.08014 5.03471 7.81516 0.25
456 2.96171 1.83555 4.18108 0.25
457 2.51561 3.64936 7.2292 0.5
458 0.0339584 7.5165 6.68799 0.25
459 5.00173 7.60375 8.34226 0.25
460 5.6673 0.115999 4.83497 0.25
461 2.64605 3.73121 1.41453 0.25
462 6.27968 5.03909 3.25185 0.25
463 5.03035 7.39742 2.78495 0.25
464 7.4759 6.83961 6.89853 0.25
465 7.0545 2.59451 5.51201 0.25
466 4.00798 1.33404 3.06124 0.25
467 4.05744 6.42703 1.64429 0.25
468 6.83603 5.35631 2.98985 0.5
469 7.4411 7.28398 6.6611 0.25
470 0.944602 1.35534 0.177522 0.25
471 2.01224 0.854715 6.21333 0.25
472 1.92283 7.53928 2.01105 0.25
473 7.50423 5.15768 5.39656 0.25
474 5.19898 5.70761 5.90582 0.25
475 1.41652 1.36761 2.77896 0.25
476 7.14268 0.835086 7.47771 0.25
477 3.28583 5.50726 3.82842 0.25
478 5.92592 3.49962 7.04936 0.25
479 3.39374 7.25039 7.44525 0.25
480 4.80819 0.352909 1.94147 0.25
481 7.85774 2.20837 4.10514 0.25
482 7.07314 5.0554 4.58639 0.25
483 8.2169 5.52088 4.86832 0.25
484 2.72807 8.217 8.26262 0.25
485 7.8733 7.527 6.6403 0.25
486 2.53331 6.0945 5.79258 0.25
487 8.13893 7.82498 4.28995 0.25
488 4.49316 4.03641 5.96417 0.25
489 0.674582 8.02981 0.0857302 0.25
490 7.96059 8.09222 1.87264 0.25
491 4.437 2.97987 1.66476 0.25
492 2.45929 1.8153 4.44098 0.25
493 6.35233 4.64823 6.99062 0.25
494 4.7091 7.5666 2.45818 0.25
495 1.27469 5.95348 5.87372 0.25
496 2.90459 7.72194 4.88312 0.25
497 6.49158 4.31557 7.81495 0.25
498 3.36255 3.02107 4.14802 0.25
499 0.811686 5.1287 7.53472 0.25
500 4.00852 2.89216 6.33228 0.25
501 5.81956 3.67679 3.7651 0.25
502 1.66666 8.00732 7.61621 0.25
503 5.90445 5.04721 2.57762 0.5
504 7.68286 7.77534 2.15376 0.25
505 5.84415 1.51809 2.50816 0.25
506 7.18569 6.36802 4.58445 0.25
507 1.22691 0.470015 3.02451 0.25
508 0.663705 8.40452 5.27229 0.25
509 8.05805 4.8081 4.96884 0.5
510 4.97514 1.61639 5.69388 0.25
511 0.567864 0.370454 5.54309 0.25
512 1.10052 0.835619 3.34537 0.25
513 3.98339 1.064 5.41923 0.25
514 2.01725 5.6616 6.14708 0.25
515 0.981328 7.64545 6.68309 0.25
516 7.3199 1.84007 6.08853 0.25
517 7.32699 5.42137 4.40095 0.25
518 1.03402 3.61816 4.69955 0.25
519 6.29709 1.93546 1.36153 0.25
520 7.08513 2.18062 6.42009 0.25
521 7.83071 1.64534 0.207719 0.25
522 6.84085 1.14538 7.74622 0.25
523 5.1587 6.72834 5.69103 0.25
524 2.69247 0.381615 7.61713 0.25
525 6.35931 4.20872 7.31321 0.25
526 7.09123 5.32577 6.87242 0.25
527 7.35598 8.02522 4.12502 0.25
528 7.43044 1.48628 6.44582 0.25
529 6.6318 1.21957 2.61411 0.25
530 2.19108 1.62952 6.52922 0.25
531 7.81879 8.0151 3.91621 0.25
532 1.5318 0.948102 3.05351 0.25
533 7.35051 1.17344 7.81728 0.25
534 8.19257 5.98123 1.42426 0.25
535 0.329502 3.1793 5.43169 0.5
536 6.89566 2.68729 5.97493 0.25
537 4.05762 0.769227 5.79941 0.25
538 6.546 5.21334 4.6412 0.25
539 2.31718 1.21742 6.31563 0.25
540 8.10588 6.51546 1.91003 0.5
541 7.66713 4.07866 1.64917 0.25
542 2.21154 2.00653 7.71058 0.25
543 3.23386 7.3207 6.9911 0.25
544 7.72655 6.45651 6.60243 0.25
545 1.20552 6.08807 4.02672 0.25
546 4.8653 5.72834 6.30257 0.25
547 5.27768 2.77217 0.0923001 0.25
548 6.09451 7.2516 6.70428 0.25
549 0.23445 7.79857 7.03032 0.25
550 6.28179 7.01913 0.133412 0.25
551 4.37033 1.43659 2.74511 0.25
552 3.76301 5.55016 4.04422 0.25
553 6.68371 7.94122 3.72346 0.5
554 4.31901 6.52765 3.20447 0.25
555 4.90967 6.73316 3.61742 0.5
556 7.345 0.699406 0.866632 0.25
557 7.20546 4.92668 3.79529 0.5
558 6.3778 0.201088 3.62106 0.25
559 1.24818 0.492848 5.5257 0.5
560 5.02663 3.41892 2.21076 0.25
561 2.84425 3.17979 4.0806 0.25
562 5.13073 8.36376 5.44606 0.25
563 2.3023 6.59796 1.54028 0.25
564 6.17723 6.97831 0.810392 0.5
565 6.57448 1.89611 6.49035 0.25
566 1.14015 1.68707 2.49367 0.25
567 4.34888 5.72806 6.12973 0.25
568 5.78828 1.20452 2.83888 0.25
569 2.45526 8.3704 7.92082 0.25
570 1.94309 6.38588 4.61856 0.25
571 3.11668 4.03414 7.24389 0.25
572 8.12627 2.82465 3.83167 0.5
573 3.97158 1.71094 2.71435 0.25
574 1.63835 6.0113 6.20551 0.25
575 2.22816 1.71152 8.12054 0.25
576 4.10363 5.6085 7.67035 0.25
577 5.29368 0.209742 5.0701 0.25
578 1.85912 7.40393 3.88152 0.25
579 7.56951 5.16848 7.64711 0.25
580 7.08696 0.11397 4.63397 0.5
581 4.3283 4.51045 6.12674 0.25
582 5.92177 2.94532 4.41351 0.25
583 5.76976 3.66033 4.58116 0.5
584 4.78287 6.40994 5.87472 0.25
585 4.69204 3.23136 1.28738 0.25
586 1.87562 0.341454 2.66817 0.5
587 4.74191 7.03223 2.53125 0.25
588 5.78896 5.18281 3.25757 0.25
589 0.167085 2.51898 7.6212 0.25
590 3.64675 6.64512 1.8828 0.25
591 6.60232 1.36945 0.913776 0.25
592 7.36279 7.14203 1.65193 0.5
593 6.68597 6.77342 1.36321 0.25
594 1.52656 4.98017 0.286883 0.5
595 0.61198 3.84037 8.07266 0.25
596 2.05259 0.959522 0.685017 0.25
597 8.29714 0.294859 5.20838 0.5
598 2.59576 6.25528 1.34311 0.25
599 1.96736 8.28902 7.91264 0.25
600 7.63115 0.611342 5.44425 0.25
601 0.497775 0.776589 5.35458 0.25
602 3.92147 0.260039 2.16745 0.25
603 4.25192 5.50511 8.12577 0.25
604 7.52956 5.13969 7.09243 0.25
605 7.8498 2.11749 3.60747 0.25
606 2.26101 8.2378 2.30934 0.25
607 4.35498 5.13758 7.77247 0.25
608 3.58319 7.61174 7.25454 0.25
609 6.64166 4.79595 4.37231 0.25
610 1.78531 1.51436 5.74771 0.25
611 3.16224 0.55578 7.97478 0.25
612 0.910231 7.277 0.0215333 0.25
613 7.04258 1.19345 8.18198 0.25
614 4.82101 0.892798 5.05379 0.25
615 4.89121 2.49324 3.57092 0.25
616 1.05838 5.62738 3.17085 0.25
617 1.41378 8.17001 2.38114 0.25
618 7.65949 7.31247 4.15622 0.5
619 7.75189 8.06462 4.44786 0.25
620 8.21578 7.37537 2.27766 0.5
621 4.34927 6.63202 4.08209 0.25
622 6.20454 6.47545 6.19522 0.25
623 5.82559 6.27215 0.852004 0.25
624 1.11055 3.34038 5.67816 0.25
625 1.47905 5.32833 7.98702 0.25
626 3.61695 0.363558 1.25955 0.25
627 4.95344 4.75733 1.91391 0.25
628 8.233 3.46608 2.46876 0.5
629 7.10898 3.37058 0.0668076 0.25
630 1.47381 0.0293965 3.17627 0.25
631 1.97081 1.4801 7.74194 0.25
632 7.44329 7.99725 1.76599 0.25
633 6.08964 7.72844 0.547659 0.25
634 2.79851 7.8744 4.02749 0.25
635 0.668302 7.12056 0.774113 0.5
636 1.62974 1.57387 1.19342 0.25
637 5.6612 0.109134 5.39725 0.25
638 4.87751 1.27321 5.36057 0.25
639 4.5028 1.82928 0.0414512 0.25
640 5.20861 7.43692 0.374592 0.25
641 1.40823 6.55439 5.39125 0.25
642 3.68116 0.699095 5.5288 0.25
643 6.16965 6.78256 5.80636 0.25
644 5.71938 0.794173 2.64065 0.25
645 2.20082 2.26041 1.46433 0.25
646 8.20019 6.65875 6.53023 0.25
647 2.40132 3.04382 4.16838 0.25
648 5.09323 1.17707 0.117085 0.25
649 0.450829 4.04583 1.92192 0.25
650 8.30953 3.73246 1.34359 0.25
651 3.21736 3.23696 3.71208 0.25
652 6.6719 0.899011 7.25096 0.25
653 1.29358 6.64054 0.964016 0.25
654 0.424752 2.4602 0.0116861 0.25
655 3.55386 3.47731 6.35824 0.5
656 0.547625 3.52076 7.26441 0.25
657 1.51163 5.51388 6.01044 0.25
658 6.84941 0.323496 3.58475 0.25
659 2.66754 1.88052 7.88241 0.25
660 7.04124 5.98216 3.94565 0.5
661 8.30354 1.04141 0.00825332 0.25
662 4.0644 4.80335 4.25755 0.25
663 2.48403 3.6807 1.82772 0.25
664 6.59385 2.69759 4.8071 0.25
665 7.83329 3.82563 1.26865 0.25
666 5.99864 6.73833 6.61507 0.25
667 6.62691 3.28045 0.0596633 0.25
668 7.07492 6.45861 1.78713 0.25
669 5.97078 4.90557 7.20634 0.25
670 5.69212 8.03985 4.73239 0.25
671 3.60193 4.91373 4.52378 0.25
672 2.65935 3.203 2.05905 0.25
673 0.716238 1.13068 3.15735 0.25
674 4.96846 7.36966 3.29567 0.25
675 5.34007 3.61163 5.22618 0.25
676 7.56031 8.23303 2.1915 0.25
677 6.24654 1.42972 1.22129 0.25
678 7.60646 6.30364 4.78526 0.25
679 1.18594 6.46352 1.42704 0.25
680 3.69643 6.69485 8.05632 0.25
681 7.64651 0.0554682 4.1263 0.25
682 2.27087 6.17867 1.81234 0.25
683 1.73241 7.60545 7.27717 0.25
684 0.396721 3.66142 1.5278 0.25
685 2.81862 3.36155 6.62232 0.25
686 4.29713 2.82223 6.75478 0.25
687 1.70808 4.45221 0.874484 0.25
688 3.58179 0.632089 6.01451 0.25
689 6.17919 4.15924 8.1731 0.25
690 6.1259 1.09078 2.5301 0.25
691 7.02969 1.38142 1.63358 0.25
692 5.19166 5.18925 1.77549 0.25
693 7.51155 1.94479 6.53971 0.25
694 7.43264 5.15247 4.91677 0.25
695 0.0900782 3.07445 6.18992 0.25
696 5.73082 6.0269 3.32196 0.5
697 4.3132 3.72011 6.3453 0.25
698 1.76735 1.07837 5.4323 0.25
699 1.54427 6.64084 4.88909 0.25
700 4.32613 5.88306 1.06015 0.25
701 4.85528 1.7764 8.00833 0.25
702 2.30219 4.28016 7.38386 0.25
703 3.32187 6.59601 7.43466 0.5
704 4.70436 5.22096 8.11189 0.25
705 4.88315 3.20424 1.75062 0.25
706 5.04878 0.177369 8.20829 0.25
707 4.55348 3.97281 1.12577 0.5
708 5.69601 7.67807 7.81838 0.25
709 2.60067 7.21326 2.01337 0.5
710 2.36832 4.33326 6.92422 0.25
711 5.13913 6.46076 3.00592 0.25
712 0.648512 5.28277 8.0224 0.25
713 2.70828 4.07481 1.82413 0.25
714 5.192 4.18915 0.777961 0.25
715 4.6924 6.66953 2.8699 0.25
716 6.77333 0.603107 7.65046 0.25
717 7.4252 7.75739 3.63914 0.25
718 6.01911 3.83104 6.67751 0.25
719 6.09042 4.58192 7.97119 0.25
720 1.5749 7.53415 4.20952 0.25
721 6.52312 2.10626 2.33257 0.25
722 2.37573 7.70666 3.44918 0.5
723 2.46639 7.53075 2.64835 0.25
724 7.07731 6.4577 1.31447 0.25
725 7.69047 6.39106 7.12262 0.25
726 0.876415 1.05344 5.4927 0.25
727 4.11955 0.390991 1.41457 0.25
728 3.64022 6.20859 8.01729 0.25
729 5.01092 6.05177 3.36995 0.25
730 2.86216 7.16658 7.32664 0.25
731 5.2106 3.10356 2.63082 0.25
732 4.08606 3.59152 6.83509 0.25
733 3.61306 5.51275 7.61045 0.25
734 3.94715 1.16984 2.55526 0.25
735 3.54185 2.72842 6.39014 0.25
736 7.99812 1.37112 8.16719 0.25
737 3.68092 0.531164 0.723285 0.25
738 0.19272 7.97332 0.0875986 0.25
739 4.72213 6.22525 3.04791 0.25
740 5.39162 7.22573 3.15552 0.25
741 0.458059 7.82002 0.528035 0.25
742 3.87393 4.55435 6.1079 0.25
743 7.16761 0.981379 1.2637 0.25
744 4.34222 1.03994 2.36436 0.25
745 3.6677 4.12625 5.91411 0.25
746 1.32232 5.93608 4.74877 0.5
747 4.34352 0.499171 2.13762 0.25
748 2.62766 6.67418 7.21621 0.25
749 1.49754 1.41374 2.27629 0.25
750 8.35862 3.35291 1.72295 0.25
751 0.852099 0.889916 5.01786 0.25
752 6.50034 4.83662 7.82227 0.25
753 3.89354 0.933375 1.80584 0.5
754 4.44478 6.13032 1.43148 0.25
755 2.84271 2.61582 1.44714 0.5
756 7.64031 6.83937 7.3568 0.25
757 5.70637 6.81741 5.6254 0.25
758 6.7955 4.00301 7.24249 0.25
759 4.17512 8.02358 5.18464 0.25
760 0.31236 2.55531 3.3202 0.25
761 3.70177 7.18347 7.06687 0.25
762 0.638308 1.79584 3.48124 0.5
763 3.9648 8.21145 1.89579 0.25
764 1.41178 6.28533 0.5877 0.25
765 7.39801 4.89039 3.04083 0.25
766 0.538196 4.32222 2.32165 0.25
767 2.57986 6.92263 7.60825 0.25
768 2.40046 2.99008 5.19699 0.25
769 7.94095 3.67082 1.72915 0.25
770 4.86674 0.986815 8.05495 0.25
771 6.66151 1.49271 6.16065 0.25
772 4.88118 2.46206 8.24744 0.25
773 5.54296 0.826521 5.08808 0.5
774 3.6666 8.15525 4.98136 0.25
775 7.96478 4.31019 2.82187 0.5
776 7.04192 3.90789 0.529057 0.5
777 6.10318 6.57168 0.0938569 0.25
778 4.83756 8.08624 0.0216665 0.25
779 8.14877 8.26096 4.17312 0.25
780 2.22381 1.62825 6.00866 0.25
781 2.65168 1.75842 -0.00690131 0.25
782 1.26571 7.67099 0.666005 0.25
783 6.86126 3.19156 0.491007 0.25
784 2.18279 7.72582 2.33638 0.25
785 2.58939 1.60926 6.35592 0.25
786 2.6122 7.90651 2.34075 0.25
787 7.82789 6.98895 6.55897 0.25
788 0.10305 4.14644 2.25765 0.25
789 3.58225 8.029 4.5085 0.25
790 7.11383 0.860795 6.95536 0.25
791 0.567695 4.6511 3.10618 0.5
792 2.25344 0.373416 7.85628 0.25
793 8.11208 7.22313 1.55026 0.25
794 5.37134 6.35126 6.28479 0.5
795 2.42438 4.20674 3.1605 0.25
796 2.20982 5.73801 5.64443 0.25
797 6.73485 6.43382 1.01696 0.25
798 7.84669 4.3533 1.265 0.25
799 4.19131 3.27382 6.03201 0.25
800 7.95899 2.10325 3.13237 0.25
801 3.19353 7.83143 7.02591 0.25
802 3.36023 5.30442 4.27038 0.25
803 3.14309 8.22327 7.64172 0.5
804 3.70503 7.07044 1.6209 0.25
805 1.87831 8.0219 2.12212 0.25
806 2.54105 1.85641 3.92867 0.25
807 4.65489 6.15296 5.49032 0.25
808 4.20315 2.12031 7.75352 0.25
809 1.73923 5.86689 5.75314 0.25
810 6.51 7.34802 6.42515 0.25
811 1.66516 3.28707 4.96402 0.5
812 5.67224 7.42231 0.520689 0.25
813 4.25906 1.74666 3.10316 0.25
814 1.59954 7.55409 7.76925 0.25
815 2.78955 8.06813 4.46597 0.25
816 1.0713 2.93592 5.34288 0.25
817 4.36156 1.68797 7.97497 0.25
818 3.76151 1.77782 3.16485 0.25
819 1.83295 5.33911 1.39116 0.25
820 3.5094 2.89848 6.85437 0.25
821 1.58221 2.1506 8.10222 0.5
822 5.94854 4.36574 3.36712 0.5
823 5.13327 0.560367 7.91967 0.25
824 0.631617 0.467592 5.05879 0.25
825 3.79612 5.99968 7.56315 0.25
826 3.23814 3.52442 1.76063 0.5
827 5.68461 7.14009 6.41085 0.25
828 0.302872 2.0148 7.61437 0.25
829 8.15829 8.17907 4.66123 0.25
830 0.874052 1.95305 2.76108 0.25
831 2.40946 4.19458 7.8514 0.25
832 5.82517 4.57563 1.92835 0.25
833 1.85763 1.34342 6.24898 0.25
834 4.02623 0.625452 2.53282 0.25
835 6.4951 1.80671 0.922154 0.25
836 3.47294 7.55096 7.78098 0.25
837 3.91249 5.20455 7.92048 0.25
838 7.65594 0.832212 1.22182 0.25
839 6.04112 7.48026 6.28646 0.25
840 7.03729 4.65641 7.37183 0.5
841 3.353 7.04203 1.9895 0.25
842 0.139334 2.04635 2.72226 0.5
843 5.79248 3.75344 5.31142 0.25
844 4.54066 2.25357 0.194629 0.25
845 7.39344 2.58132 5.17821 0.25
846 3.63305 3.44321 7.43914 0.5
847 1.98053 5.28672 0.920457 0.25
848 1.81354 5.7318 5.28282 0.25
849 5.09781 7.87337 2.62715 0.25
850 6.32601 2.84593 5.47012 0.5
851 5.4793 8.15123 5.19023 0.25
852 7.08024 1.59805 7.93475 0.25
853 4.08475 8.12807 4.68324 0.25
854 4.24677 1.48642 5.90269 0.5
855 0.33131 3.95107 5.25574 0.25
856 0.613546 5.38384 3.18342 0.25
857 3.74069 6.65354 1.36224 0.25
858 2.74963 4.83792 3.72879 0.25
859 6.5246 4.56365 3.91398 0.25
860 7.75086 4.03003 0.881792 0.25
861 4.88091 2.94062 8.21682 0.25
862 6.61537 4.74827 3.43629 0.25
863 5.25541 6.54988 0.365276 0.25
864 7.64978 6.88911 2.38012 0.25
865 3.77224 5.71248 8.0428 0.25
866 5.05039 8.22528 3.0068 0.25
867 1.93653 3.98295 7.63429 0.25
868 2.08118 1.73311 0.543781 0.5
869 0.96032 3.19115 7.32644 0.25
870 6.13363 5.48938 3.12858 0.25
871 2.7946 7.52886 6.98441 0.25
872 5.84115 2.99825 4.97882 0.25
873 0.421283 7.8659 8.03187 0.25
874 3.80844 1.01184 6.2314 0.25
875 2.12191 4.24285 1.38343 0.5
876 1.39026 5.57188 5.50709 0.25
877 0.165573 5.21905 7.76141 0.25
878 5.73636 1.09376 2.30119 0.25
879 3.21355 8.13204 4.75175 0.25
880 6.42374 5.97214 3.00901 0.25
881 7.46096 1.2538 1.46459 0.25
882 7.7591 7.22175 7.04084 0.25
883 0.519682 3.82717 2.34584 0.25
884 7.14658 3.20739 0.955257 0.25
885 0.728962 4.21484 5.23004 0.25
886 7.87736 7.73838 3.55251 0.25
887 1.05333 6.94782 1.32104 0.25
888 1.22857 4.80431 3.47893 0.25
889 1.40263 8.07171 2.82564 0.25
890 0.168834 4.5627 2.5217 0.25
891 1.12746 2.23959 7.50149 0.25
892 7.53012 3.5597 1.02643 0.25
893 0.944702 8.05648 0.567625 0.25
894 4.04968 5.89763 1.55721 0.25
895 3.86894 5.69832 1.15866 0.25
896 1.83571 1.37442 8.21216 0.25
897 8.12482 4.12752 1.58322 0.25
898 0.937898 4.56914 3.81457 0.25
899 0.838936 8.30262 5.69384 0.25
900 5.14721 6.16568 5.71482 0.25
901 0.907495 1.49514 2.85534 0.25
902 7.39445 4.01324 1.21444 0.25
903 5.82117 3.63935 3.24072 0.25
904 6.93046 4.01526 7.75866 0.25
905 5.3457 0.798371 5.86645 0.25