ITEM: TIMESTEP
610000
ITEM: NUMBER OF ATOMS
1000
ITEM: BOX BOUNDS xy xz yz pp pp pp
0.0000000000000000e+00 8.3788359999999997e+00 0.0000000000000000e+00
0.0000000000000000e+00 8.3788359999999997e+00 0.0000000000000000e+00
0.0000000000000000e+00 8.3788359999999997e+00 0.0000000000000000e+00
ITEM: ATOMS id x y z radius
1 2.79637 6.9964 4.85051 0.25
2 4.6588 4.85677 5.43347 0.25
3 6.9458 4.58605 3.10977 0.25
4 7.24331 0.982979 5.80681 0.5
5 0.948614 5.73271 6.22142 0.25
6 8.18786 1.76721 3.41682 0.25
7 4.19122 3.29721 6.51842 0.25
8 4.93726 7.72986 2.94062 0.25
9 1.13719 5.7924 4.02983 0.25
10 4.10769 1.64158 3.4029 0.25
11 5.47021 0.110949 7.92923 0.25
12 5.39499 3.59706 1.54762 0.25
13 0.573135 2.35062 7.38788 0.25
14 3.61821 2.73789 7.14084 0.25
15 0.149152 2.6747 6.03326 0.25
16 7.31305 0.912227 6.79195 0.25
17 0.739642 5.36412 8.16842 0.25
18 6.13565 7.39456 8.0421 0.25
19 4.5453 1.74791 7.51792 0.25
20 7.82305 1.36932 0.688837 0.25
21 5.09626 4.32864 1.89846 0.25
22 4.34938 3.23569 1.15804 0.25
23 2.25762 3.34468 2.01064 0.25
24 2.70618 2.07208 4.98681 0.25
25 2.83749 4.45765 3.03477 0.25
26 0.315595 0.0154836 5.76815 0.25
27 3.85549 0.468434 5.68788 0.25
28 4.10643 1.94652 8.25454 0.25
29 5.00975 6.82968 2.888 0.25
30 7.57438 7.39926 2.45626 0.25
31 2.66073 0.375625 7.95433 0.25
32 0.938802 2.71983 7.37281 0.25
33 7.62486 0.105713 5.1654 0.25
34 2.12193 5.35606 1.52218 0.25
35 7.83261 8.37849 4.71438 0.25
36 6.81473 2.02324 5.89661 0.5
37 4.44452 1.29228 2.25162 0.25
38 2.15386 3.42814 4.3243 0.25
39 6.04809 2.6795 4.88431 0.25
40 5.41216 7.57435 3.02305 0.25
41 6.56226 2.2641 2.85547 0.25
42 5.45814 5.94426 5.9159 0.25
43 3.39807 7.77099 4.80114 0.25
44 3.71715 0.104946 5.31203 0.25
45 5.62328 4.10173 4.10136 0.25
46 3.23963 6.02857 1.52958 0.5
47 5.02146 0.876924 5.43387 0.25
48 7.98763 6.2691 6.77733 0.25
49 7.3865 6.69498 4.60313 0.25
50 7.94947 1.22204 1.15542 0.25
51 2.65728 3.41605 4.39817 0.25
52 0.66145 1.65791 2.43428 0.25
53 6.35314 5.03124 6.94326 0.25
54 5.83836 3.29842 4.08162 0.25
55 1.43263 1.16894 6.14986 0.25
56 1.14618 7.14976 0.171893 0.25
57 4.69696 0.89931 2.0338 0.25
58 2.21531 2.07827 4.33193 0.25
59 4.7673 1.12971 6.28144 0.25
60 7.73345 5.42302 5.17519 0.25
61 5.1462 8.10728 8.00574 0.25
62 5.18542 2.04734 0.0149925 0.5
63 7.62389 6.63266 1.2119 0.25
64 1.12699 6.18538 1.22766 0.25
65 4.31069 0.15872 1.76195 0.25
66 2.31063 4.86542 7.4784 0.25
67 8.11546 4.87899 7.20474 0.25
68 7.08222 0.570902 6.41885 0.25
69 0.24156 5.57972 7.48003 0.25
70 1.92182 4.79171 0.930779 0.25
71 8.14972 1.28257 0.325309 0.25
72 6.35589 6.29912 3.44477 0.25
73 0.551779 7.48813 6.8577 0.25
74 7.2866 5.57494 6.71839 0.25
75 7.26514 0.138074 3.37084 0.25
76 7.5226 6.40479 4.26452 0.25
77 5.65829 2.89647 5.40655 0.25
78 5.53473 3.95158 1.2003 0.25
79 7.59829 5.01758 4.40196 0.25
80 5.83366 3.35279 5.46531 0.25
81 7.09083 1.34596 1.1643 0.25
82 0.094037 3.15388 6.16579 0.25
83 4.3791 5.78484 5.34156 0.25
84 0.969083 1.18016 5.99832 0.25
85 1.2341 1.18628 5.15561 0.25
86 4.57916 0.00365093 5.32469 0.25
87 1.69064 1.7502 1.2454 0.25
88 3.32282 6.80067 1.65447 0.25
89 6.83145 6.97164 0.742437 0.25
90 5.51775 6.23699 5.54871 0.25
91 3.93459 4.1919 6.40432 0.25
92 6.19569 4.5694 7.49194 0.25
93 5.16075 6.29747 5.1883 0.25
94 6.72806 0.0903165 4.00941 0.25
95 0.220563 4.53292 7.64823 0.5
96 5.40771 3.09155 3.4884 0.5
97 4.25451 5.13146 8.17003 0.25
98 8.31449 2.21235 3.45554 0.25
99 1.41249 6.40232 5.95659 0.25
100 7.14921 6.89546 1.11356 0.25
101 0.821463 7.64478 8.20192 0.25
102 7.76256 4.63934 3.33389 0.25
103 6.69922 1.11548 1.36088 0.25
104 0.901702 4.76083 7.35102 0.25
105 5.11133 5.54545 5.37711 0.5
106 5.21421 0.338128 4.49992 0.25
107 4.33944 3.22205 7.04208 0.25
108 4.76698 1.35782 8.27957 0.25
109 0.569909 0.852957 5.83172 0.25
110 2.23886 8.00717 8.25516 0.25
111 3.13475 3.94471 7.21528 0.25
112 4.51827 2.034 7.96789 0.25
113 1.71767 1.98263 1.93609 0.5
114 1.74543 3.70074 7.17493 0.25
115 4.46534 6.5083 5.87603 0.25
116 2.53113 7.27673 6.91539 0.25
117 4.12406 2.36784 3.73748 0.5
118 6.65204 7.01431 1.1927 0.25
119 1.1613 6.2408 3.76583 0.25
120 0.0752305 2.75255 2.41199 0.25
121 3.28835 4.00408 3.5717 0.25
122 6.65418 0.788476 6.28294 0.25
123 5.33745 0.44093 5.4766 0.25
124 8.17126 8.0483 2.35754 0.25
125 3.38143 2.05547 3.88121 0.25
126 3.67446 1.29097 5.73915 0.25
127 5.50778 4.05362 1.71621 0.25
128 6.58061 5.382 7.19167 0.25
129 1.50721 6.09438 4.06348 0.25
130 5.73886 6.18013 0.752785 0.25
131 6.99028 1.52232 6.3791 0.25
132 5.95771 4.12309 7.63369 0.25
133 3.07509 1.83682 3.53537 0.25
134 4.14861 2.33264 8.00077 0.25
135 5.38476 3.87948 3.63033 0.25
136 2.7645 2.44265 3.84197 0.5
137 2.99148 3.97289 3.18181 0.25
138 7.73534 7.98678 2.92367 0.5
139 2.38715 7.72452 5.03982 0.25
140 5.20068 7.61074 7.88355 0.25
141 7.83478 5.87597 4.9125 0.25
142 1.16253 5.14938 3.00452 0.25
143 2.26297 2.1587 8.32388 0.25
144 5.10893 1.18679 2.59488 0.5
145 7.36766 1.8651 3.95307 0.25
146 6.1124 7.32988 0.117349 0.25
147 6.5314 5.61003 4.4626 0.25
148 2.29075 3.07202 4.6408 0.25
149 4.74645 8.22371 2.37519 0.5
150 4.9529 3.03814 4.14533 0.25
151 3.39457 5.95653 7.25316 0.25
152 3.46914 4.63577 5.84365 0.25
153 6.69051 6.01821 2.17267 0.5
154 7.26954 2.34539 4.56842 0.5
155 2.95106 7.29925 7.68085 0.25
156 7.59251 3.52824 1.36386 0.25
157 7.72854 5.94992 1.61336 0.25
158 2.67294 3.72075 0.89208 0.25
159 7.15991 7.70222 4.30037 0.25
160 6.40542 1.84813 3.14974 0.25
161 0.900154 5.54339 2.76711 0.25
162 5.84709 4.37322 7.22401 0.25
163 3.36975 3.6038 4.26022 0.5
164 2.69912 3.91706 2.53642 0.5
165 5.51899 8.01856 7.68096 0.25
166 0.0281867 3.76575 7.81775 0.25
167 6.5957 3.9957 8.20808 0.25
168 4.64776 6.05284 5.69481 0.25
169 3.91813 4.37738 5.94824 0.25
170 8.17945 2.79904 6.37459 0.25
171 7.98602 5.91922 1.15904 0.25
172 1.11109 2.94061 6.94123 0.25
173 4.32469 6.31515 5.39556 0.25
174 2.42744 2.20588 1.11155 0.25
175 7.66792 2.35679 5.94766 0.5
176 2.26851 6.00201 6.28937 0.25
177 5.48218 3.6159 4.02849 0.25
178 3.09904 6.56782 2.03516 0.25
179 3.39521 2.21075 3.43172 0.25
180 5.77132 6.30081 6.04414 0.25
181 6.5907 4.09918 6.90454 0.25
182 3.19261 5.27502 3.51623 0.25
183 8.01423 7.59763 1.7328 0.25
184 3.84156 5.41286 8.32957 0.25
185 5.76515 6.78265 6.13637 0.25
186 7.52768 5.93876 4.45528 0.25
187 3.10226 5.07477 4.34995 0.25
188 0.952987 5.81713 3.55887 0.25
189 4.17084 6.68331 3.61966 0.25
190 4.13945 3.27036 1.61503 0.25
191 7.11649 1.73187 0.576867 0.5
192 0.822069 5.0043 7.79516 0.25
193 3.99145 5.33405 1.05367 0.25
194 2.57874 6.43127 1.96776 0.25
195 6.12101 5.74376 2.71205 0.25
196 2.35828 8.13502 2.69159 0.25
197 1.10102 0.123824 2.67832 0.25
198 7.6278 4.8301 7.27905 0.25
199 1.17447 1.34304 3.18607 0.25
200 4.65256 5.28206 1.44596 0.5
201 6.66387 1.42498 3.11982 0.25
202 8.24673 3.778 5.34656 0.25
203 3.56185 1.74059 3.52926 0.25
204 5.72452 7.99376 0.0322068 0.5
205 2.43453 7.47595 4.39143 0.5
206 0.362763 4.3893 5.05846 0.25
207 5.68018 2.81429 4.11542 0.25
208 6.91269 5.38638 4.25327 0.25
209 5.43945 7.01385 8.26174 0.5
210 1.88373 8.17214 3.00311 0.25
211 0.62689 3.65705 4.91227 0.25
212 1.52321 7.86998 0.00572763 0.5
213 0.280426 4.25456 2.65108 0.25
214 1.87901 8.138 2.50508 0.25
215 3.00117 4.18814 3.95705 0.25
216 6.23729 1.88597 2.63804 0.25
217 5.16601 3.8289 1.95487 0.25
218 2.3972 3.49815 4.8323 0.25
219 4.35683 1.19098 2.75465 0.25
220 3.60543 3.47368 1.02592 0.25
221 4.11863 8.35114 5.51419 0.25
222 7.28592 0.461477 5.23851 0.25
223 8.0188 2.81836 2.70268 0.25
224 7.09148 5.45689 7.15109 0.25
225 7.2375 2.06975 5.30804 0.25
226 4.9156 2.10256 7.69201 0.25
227 6.33286 3.68309 7.01409 0.25
228 5.41173 3.15603 4.26039 0.25
229 5.73414 5.01709 1.85437 0.25
230 0.449756 8.10121 6.45651 0.5
231 5.42736 4.69731 1.34884 0.5
232 1.93442 2.95111 4.41307 0.25
233 3.99526 5.26625 4.10772 0.25
234 6.56599 1.16331 6.5872 0.25
235 3.08951 7.36545 4.74498 0.25
236 0.92534 2.59771 8.26525 0.25
237 8.2249 2.94976 7.36598 0.25
238 3.38121 0.77477 1.39882 0.25
239 0.244322 2.35205 3.81847 0.25
240 6.81017 6.24061 1.46912 0.25
241 3.42408 7.1614 7.90018 0.25
242 1.80987 7.49524 2.64567 0.5
243 2.93029 4.77786 3.41877 0.25
244 7.15828 3.50463 1.0908 0.25
245 2.119 1.16884 5.77444 0.25
246 7.60095 8.2631 3.66043 0.25
247 3.44284 2.60484 3.7877 0.25
248 3.81818 3.10712 1.23391 0.25
249 0.201395 5.16701 7.18041 0.25
250 1.21301 3.8632 5.26882 0.25
251 5.26844 2.71947 4.80653 0.5
252 3.06754 2.08078 4.34463 0.25
253 7.93562 5.56667 7.11971 0.5
254 7.27131 5.94375 7.07762 0.25
255 4.65318 0.458603 5.88072 0.5
256 5.85667 6.10063 0.265839 0.25
257 1.21044 0.493928 2.97674 0.25
258 1.6683 1.70215 2.67847 0.25
259 4.63621 3.15518 1.53559 0.25
260 7.98436 6.35115 1.38688 0.25
261 3.98065 8.26555 1.39636 0.25
262 3.42812 2.40967 4.25911 0.25
263 2.24995 0.365842 0.193604 0.5
264 2.84145 4.29801 3.52724 0.25
265 1.01921 3.97826 7.29452 0.5
266 0.90427 7.72067 7.44318 0.5
267 5.06296 2.57321 7.76756 0.25
268 6.38585 7.69531 0.0495084 0.25
269 2.09963 5.59881 0.711484 0.25
270 4.05762 3.57314 1.27484 0.25
271 7.42657 7.64941 4.70758 0.25
272 1.74832 1.16024 2.60687 0.25
273 1.38612 3.35425 7.03499 0.25
274 0.720675 5.53913 7.71983 0.25
275 4.71578 4.54776 1.69671 0.25
276 2.78964 3.24014 1.16297 0.25
277 6.79749 0.788437 6.75521 0.25
278 3.90661 6.18514 1.2499 0.25
279 4.15758 0.543177 5.03029 0.5
280 7.72838 8.01516 4.97277 0.25
281 0.874131 6.40577 0.847403 0.25
282 6.07124 7.05466 6.37656 0.25
283 1.04086 0.199257 6.30651 0.25
284 7.42939 4.43574 0.907952 0.25
285 1.85908 6.06972 1.23653 0.5
286 5.5052 6.64424 2.96003 0.25
287 1.43787 7.80832 3.5355 0.5
288 2.78036 7.41104 5.07825 0.25
289 2.30536 7.22551 5.07017 0.25
290 2.16053 3.86998 1.9695 0.25
291 8.18848 7.51418 7.18315 0.25
292 7.66002 2.46828 3.34443 0.25
293 7.36759 4.32547 3.14904 0.25
294 5.64982 3.7249 3.21837 0.25
295 8.2314 4.12005 0.997317 0.25
296 0.394493 4.05559 4.42137 0.5
297 3.91667 3.09288 6.90044 0.25
298 6.27717 5.07401 7.44504 0.25
299 5.88672 4.92055 7.66199 0.25
300 6.3788 3.50676 0.524218 0.25
301 1.18409 7.33407 8.02851 0.25
302 0.243008 4.15188 1.41029 0.25
303 3.81362 0.688395 1.23256 0.25
304 2.05107 2.71119 4.88174 0.25
305 0.638357 4.93786 8.26715 0.25
306 2.22706 2.23524 4.80726 0.25
307 1.55017 4.73393 7.66175 0.5
308 3.76335 5.74175 3.11092 0.25
309 4.51482 1.05682 5.47695 0.25
310 0.773013 4.48673 3.91229 0.25
311 7.244 0.102908 3.91694 0.25
312 0.936391 0.959463 2.48796 0.5
313 0.743443 3.7681 5.4748 0.25
314 5.34767 3.54144 2.81279 0.25
315 1.14655 4.99231 8.23596 0.25
316 1.80252 4.23069 7.15131 0.25
317 7.43516 2.3042 3.84484 0.25
318 2.26033 2.57481 4.45812 0.25
319 4.80867 7.34793 8.01136 0.25
320 1.88665 6.24273 6.10676 0.25
321 4.28005 0.871699 1.32224 0.25
322 7.18678 6.42162 5.01177 0.25
323 1.30244 5.42557 4.3694 0.25
324 4.06614 7.3632 7.7738 0.5
325 0.895679 1.76782 0.149514 0.25
326 3.9144 4.771 5.27314 0.5
327 7.47971 7.38308 3.32397 0.25
328 2.36498 8.01938 1.85854 0.25
329 1.43968 5.81501 3.61099 0.25
330 8.16486 7.01132 7.3851 0.25
331 1.1441 5.10743 3.72452 0.5
332 7.35935 6.48346 2.19773 0.25
333 1.02028 1.57239 2.07297 0.25
334 6.72232 1.6163 1.31547 0.25
335 3.2964 3.12049 1.12355 0.25
336 2.99354 7.17089 6.75876 0.25
337 4.37351 7.21259 3.06821 0.5
338 6.55972 7.24089 8.27411 0.25
339 1.99617 7.97279 4.00935 0.25
340 4.87627 0.546324 4.76495 0.25
341 6.79481 0.143829 3.22187 0.25
342 1.0173 5.2917 7.39553 0.25
343 2.76911 1.39333 0.317544 0.25
344 1.14337 5.96139 2.75399 0.25
345 0.437908 1.44662 2.85894 0.25
346 0.400349 2.34604 7.8878 0.25
347 3.30998 5.98983 7.76461 0.25
348 7.39822 7.82119 2.22423 0.25
349 0.748038 2.12029 8.15109 0.25
350 6.68115 1.76445 2.71383 0.25
351 1.42469 6.93915 0.617935 0.25
352 6.30262 3.45552 7.79034 0.5
353 2.41948 0.0988127 7.51705 0.25
354 2.00649 0.74191 5.54304 0.25
355 0.595322 0.383942 6.0599 0.25
356 1.67874 1.61163 6.32197 0.25
357 2.84496 3.8227 6.80577 0.25
358 6.24187 3.51498 5.17212 0.25
359 4.29005 0.951044 6.27754 0.25
360 1.96764 2.16811 1.13885 0.25
361 0.87863 7.58634 0.272386 0.25
362 6.05909 4.08945 6.84235 0.25
363 8.03746 4.00311 2.01261 0.25
364 5.91312 3.79926 7.25108 0.25
365 5.36413 6.11383 0.469125 0.25
366 5.14177 6.56922 0.383318 0.25
367 2.90327 4.30698 6.95752 0.25
368 6.98859 3.64999 8.14382 0.25
369 1.19491 6.51841 0.480547 0.25
370 5.58344 0.395935 8.30255 0.25
371 2.45798 8.1475 4.82738 0.25
372 2.37295 4.72638 0.730057 0.25
373 7.0114 2.85333 5.12009 0.25
374 3.76401 4.55613 4.58257 0.25
375 5.4414 0.903489 8.15816 0.25
376 2.59567 5.91887 1.16871 0.25
377 6.43837 1.42619 2.02663 0.5
378 0.312052 3.78738 7.42351 0.25
379 5.2058 1.36705 7.97004 0.25
380 2.31473 6.77124 4.87373 0.25
381 3.99996 5.50982 5.31215 0.25
382 1.90962 7.0273 4.78349 0.25
383 6.31871 5.26958 3.86373 0.5
384 1.23585 1.8958 1.43529 0.25
385 6.97232 1.46614 7.1309 0.5
386 1.32647 1.27481 5.6634 0.25
387 7.87306 0.82389 0.863202 0.25
388 0.800701 5.93853 3.09969 0.25
389 4.35033 2.49491 7.34474 0.5
390 3.97569 0.625888 6.17599 0.25
391 5.42547 4.69109 2.10377 0.25
392 8.10556 2.58665 3.14027 0.25
393 2.80704 6.60917 1.59485 0.25
394 0.862577 8.14129 8.08759 0.25
395 2.16736 1.80246 1.34151 0.25
396 4.716 7.84607 7.95065 0.25
397 5.17891 0.663304 0.0702869 0.25
398 7.40668 1.60245 8.26775 0.25
399 3.27985 4.40981 3.28201 0.25
400 4.90467 4.37739 0.855158 0.25
401 2.2577 7.10836 3.75683 0.25
402 8.20424 7.93231 6.85713 0.25
403 7.7986 6.31491 0.856115 0.25
404 7.94426 6.67348 7.0195 0.25
405 0.406067 7.57265 0.129297 0.25
406 5.51878 0.0489376 4.24812 0.25
407 2.39113 1.09052 8.11502 0.5
408 5.66573 3.33114 2.41308 0.25
409 2.28756 4.99831 1.20248 0.25
410 7.44936 0.941336 0.229079 0.5
411 4.43097 5.29398 5.28826 0.25
412 8.22937 7.05226 6.87596 0.25
413 1.35449 1.6134 0.356503 0.25
414 0.442752 3.09634 7.79981 0.5
415 6.43824 4.66958 2.96457 0.25
416 3.04761 3.0054 6.55644 0.25
417 3.53079 4.68338 3.88134 0.5
418 7.08294 6.67868 4.25358 0.25
419 3.91052 3.86232 5.99093 0.25
420 0.833959 3.12863 4.86999 0.25
421 3.9297 4.86223 5.93134 0.25
422 2.35933 5.48002 1.1359 0.25
423 0.21205 0.51786 5.81187 0.25
424 0.440562 3.35545 4.6496 0.25
425 2.04172 2.86689 1.39085 0.5
426 7.091 5.67594 4.97955 0.5
427 2.62481 2.18118 4.52747 0.25
428 4.04382 5.18432 3.65043 0.25
429 4.36921 4.59485 5.78609 0.25
430 1.89024 7.23649 3.374 0.25
431 0.918168 3.3797 6.81308 0.25
432 1.60557 6.85035 4.06739 0.5
433 2.01927 1.62162 7.71007 0.25
434 0.972901 6.6548 1.27884 0.25
435 5.7257 3.32192 2.91507 0.25
436 1.22279 6.1288 3.23264 0.25
437 0.1774 1.06351 0.337926 0.25
438 0.976027 3.48252 5.15513 0.25
439 3.91454 2.5944 6.7103 0.25
440 5.02531 1.63884 7.59587 0.25
441 7.87574 4.14718 5.2615 0.25
442 2.42277 5.72198 1.58574 0.25
443 0.382899 2.82559 6.83531 0.5
444 2.18141 3.54412 1.58997 0.25
445 5.43841 6.96197 0.599569 0.25
446 4.2294 5.86663 3.5926 0.5
447 1.28288 1.63293 5.98348 0.25
448 6.02853 7.10527 5.87719 0.25
449 0.890207 5.54242 5.74471 0.25
450 3.12742 3.55699 1.02263 0.25
451 2.56414 6.89648 5.27408 0.25
452 2.43185 1.02722 0.452688 0.25
453 4.67697 4.63736 1.19605 0.25
454 0.0732688 3.38067 7.22206 0.25
455 7.91711 5.0201 7.6558 0.25
456 3.03334 1.75941 4.00268 0.25
457 2.43214 3.77187 7.3847 0.5
458 0.0357594 7.49869 6.73475 0.25
459 5.07787 7.69853 8.33105 0.25
460 5.58645 0.128661 4.72296 0.25
461 2.72752 3.68665 1.39002 0.25
462 6.19541 4.98132 3.21759 0.25
463 5.08638 7.26361 2.75115 0.25
464 7.48147 6.83455 7.01872 0.25
465 7.04308 2.67724 5.58929 0.25
466 4.02635 1.57499 2.88564 0.25
467 3.90769 6.1847 1.74011 0.25
468 6.81792 5.36377 2.95439 0.5
469 7.46521 7.34506 6.90061 0.25
470 1.26507 1.41876 8.29047 0.25
471 1.72633 0.977193 5.89366 0.25
472 2.04209 7.64811 1.89558 0.25
473 7.48305 5.05086 5.3362 0.25
474 4.92391 5.8751 6.03722 0.25
475 1.39594 1.39812 2.79165 0.25
476 7.33182 0.782054 7.89861 0.25
477 3.2103 5.4304 3.98656 0.25
478 6.05935 3.29419 7.08234 0.25
479 3.37317 7.29721 7.43809 0.25
480 4.91385 0.423645 1.95831 0.25
481 7.80684 2.13963 4.12336 0.25
482 7.11064 5.02787 4.55798 0.25
483 8.11541 5.51358 4.89704 0.25
484 2.91472 0.586334 8.23009 0.25
485 7.92374 7.48801 6.78283 0.25
486 2.35643 6.37651 6.00131 0.25
487 8.1639 7.71074 4.3702 0.25
488 4.35112 4.15754 6.04922 0.25
489 0.758571 8.0426 0.171184 0.25
490 8.11159 8.01943 1.88743 0.25
491 4.83002 3.19196 1.0542 0.25
492 2.3938 1.77558 4.7053 0.25
493 6.23701 4.51161 6.96363 0.25
494 4.74017 7.51038 2.49989 0.25
495 1.13433 5.96562 5.85375 0.25
496 2.85948 7.86277 4.84422 0.25
497 6.40631 4.20426 7.80818 0.25
498 3.31246 2.85694 4.20146 0.25
499 0.552857 5.13475 7.43253 0.25
500 3.88757 2.94374 6.36668 0.25
501 5.99586 3.7941 4.12232 0.25
502 1.63828 8.014 7.67832 0.25
503 5.84124 5.00266 2.58504 0.5
504 7.83304 7.75396 2.16401 0.25
505 5.91356 1.47046 2.57174 0.25
506 7.17285 6.27209 4.57389 0.25
507 1.52479 0.545675 3.30637 0.25
508 0.678261 8.34253 5.32862 0.25
509 8.08561 4.7761 4.93738 0.5
510 5.04569 1.65307 5.65673 0.25
511 0.589138 0.363106 5.57721 0.25
512 1.11471 0.82217 3.31689 0.25
513 4.00809 1.19328 5.38052 0.25
514 1.86598 5.74535 6.16579 0.25
515 0.974243 7.62037 6.68538 0.25
516 7.39713 1.65535 6.07117 0.25
517 7.38693 5.38211 4.32996 0.25
518 0.935739 3.51381 4.61177 0.25
519 6.31576 1.87113 1.40795 0.25
520 6.85754 2.01576 6.59456 0.25
521 7.81907 1.65672 0.261312 0.25
522 6.71789 1.38729 7.81115 0.25
523 5.28823 6.66113 5.49373 0.25
524 2.61288 0.544165 7.49317 0.25
525 6.28664 4.11116 7.30547 0.25
526 6.8497 5.2016 6.84599 0.25
527 7.48086 7.96673 4.06235 0.25
528 7.43079 1.35948 6.52144 0.25
529 6.70591 1.21935 2.65325 0.25
530 2.18208 1.54468 6.53946 0.25
531 7.93914 7.99331 3.9946 0.25
532 1.4995 0.953864 2.95699 0.25
533 7.17374 1.25644 7.87303 0.25
534 8.2872 5.95486 1.58902 0.25
535 0.338426 3.17823 5.45638 0.5
536 7.03185 2.70642 6.06332 0.25
537 4.0517 0.958147 5.77904 0.25
538 6.60939 5.14366 4.64762 0.25
539 2.40739 1.2563 6.2114 0.25
540 8.13187 6.5181 2.10342 0.5
541 7.69034 3.93412 1.63231 0.25
542 2.08247 2.10954 7.83128 0.25
543 3.31935 7.46598 7.01672 0.25
544 7.61018 6.54088 6.65 0.25
545 1.61753 5.62442 4.05831 0.25
546 4.48939 6.12083 6.18094 0.25
547 4.79186 2.68767 8.37759 0.25
548 5.84161 7.41799 6.61424 0.25
549 0.228877 7.77755 7.11544 0.25
550 6.22499 6.90842 8.21805 0.25
551 4.42256 1.68427 2.602 0.25
552 3.62174 5.41565 3.83269 0.25
553 6.94244 7.89908 3.60429 0.5
554 4.28166 6.52433 3.18457 0.25
555 4.90921 6.63627 3.54634 0.5
556 7.38705 0.623482 0.939071 0.25
557 7.20511 4.87273 3.78418 0.5
558 6.42431 0.138242 3.61193 0.25
559 1.23962 0.552977 5.65415 0.5
560 5.17244 3.49717 2.30965 0.25
561 2.923 3.09785 4.10733 0.25
562 5.05017 8.36259 5.38596 0.25
563 2.36204 6.6611 1.56494 0.25
564 6.1815 6.79258 0.606791 0.5
565 6.4978 1.65094 6.49914 0.25
566 1.17657 1.73688 2.52163 0.25
567 4.17933 6.0223 5.7741 0.25
568 5.82006 1.14449 2.87301 0.25
569 2.52523 8.30426 7.98817 0.25
570 1.96963 6.56729 4.67283 0.25
571 2.96222 4.33595 7.46144 0.25
572 8.04402 2.77516 3.87325 0.5
573 4.03496 1.31315 2.4503 0.25
574 1.45422 5.99121 6.26296 0.25
575 2.09025 1.7248 8.16556 0.25
576 4.06362 5.71089 7.59786 0.25
577 5.2532 0.27729 5.00119 0.25
578 1.97135 7.47594 3.83979 0.25
579 7.40661 5.23608 7.46463 0.25
580 7.10191 8.34807 4.65071 0.5
581 4.25103 4.60738 6.269 0.25
582 5.88316 3.02114 4.52508 0.25
583 5.69422 3.70984 4.73106 0.5
584 4.77918 6.52488 5.50359 0.25
585 5.14297 3.22317 1.37482 0.25
586 1.85024 0.395827 2.62903 0.5
587 4.75203 6.98173 2.48432 0.25
588 5.75369 5.16254 3.33282 0.25
589 0.11587 2.49902 7.44117 0.25
590 3.60169 6.53302 1.95953 0.25
591 6.61247 1.35366 0.943191 0.25
592 7.44318 7.14035 1.76665 0.5
593 6.84262 6.76529 1.51265 0.25
594 1.82783 5.05626 0.245193 0.5
595 0.535794 3.83429 7.88084 0.25
596 2.0962 0.90538 0.784553 0.25
597 8.35705 0.19731 5.13679 0.5
598 2.61066 6.43263 1.19539 0.25
599 2.03925 8.30455 7.89947 0.25
600 7.76593 0.550649 5.43967 0.25
601 0.478477 0.773633 5.35571 0.25
602 4.09738 0.0849304 2.17843 0.25
603 4.18804 5.63761 8.09086 0.25
604 7.33948 5.10017 6.96514 0.25
605 7.82695 2.04988 3.66025 0.25
606 2.25316 8.33236 2.24359 0.25
607 4.38592 5.34787 7.74018 0.25
608 3.56856 7.74927 7.34086 0.25
609 6.6824 4.84513 4.32441 0.25
610 1.73831 1.45553 5.79686 0.25
611 2.99708 0.755628 7.75659 0.25
612 0.732661 7.18545 8.33591 0.25
613 6.93233 1.42532 8.25835 0.25
614 4.77375 0.974651 5.05241 0.25
615 4.80217 2.72127 3.78142 0.25
616 1.21964 5.64415 3.16204 0.25
617 1.45403 8.19725 2.37548 0.25
618 7.67218 7.21182 4.07714 0.5
619 7.74156 7.92985 4.48091 0.25
620 8.34691 7.36849 2.34658 0.5
621 4.40075 6.4581 4.03543 0.25
622 5.90596 6.50758 6.50113 0.25
623 5.45272 6.56361 0.821766 0.25
624 1.11752 3.48309 5.59514 0.25
625 1.15632 5.35363 7.90312 0.25
626 3.59427 0.313779 1.42268 0.25
627 5.00261 4.80482 1.95616 0.25
628 8.32865 3.49912 2.4455 0.5
629 7.11485 3.31588 0.159155 0.25
630 1.41091 0.084197 3.15339 0.25
631 1.68472 1.36662 7.97735 0.25
632 7.60755 7.92903 1.78742 0.25
633 6.17867 7.55252 0.529391 0.25
634 2.85807 7.99687 3.9725 0.25
635 0.712429 7.08525 0.752721 0.5
636 1.54287 2.25505 1.27228 0.25
637 5.72352 0.221555 5.21636 0.25
638 4.90859 1.34137 5.32523 0.25
639 4.51915 1.80393 0.0994549 0.25
640 5.26364 7.45689 0.408831 0.25
641 1.15627 6.58679 5.19099 0.25
642 3.64893 0.873094 5.49773 0.25
643 6.16831 6.61344 6.06584 0.25
644 5.78253 0.705945 2.6683 0.25
645 2.28119 2.2162 1.56497 0.25
646 8.11301 6.64994 6.55431 0.25
647 2.45519 3.02854 4.21487 0.25
648 5.16442 1.20703 0.109315 0.25
649 0.492573 4.11085 1.87195 0.25
650 0.0415325 3.7038 1.29569 0.25
651 3.25119 3.08047 3.74549 0.25
652 6.99476 0.718516 7.19361 0.25
653 1.3072 6.54233 0.980394 0.25
654 0.447436 2.5003 8.36642 0.25
655 3.50372 3.61076 6.58949 0.5
656 0.527495 3.50556 7.14756 0.25
657 1.38073 5.57187 5.96419 0.25
658 6.88722 0.348483 3.63624 0.25
659 2.48181 1.83229 7.88156 0.25
660 6.97088 5.97847 3.91519 0.5
661 8.19497 1.04037 8.36202 0.25
662 3.9191 5.03787 4.53173 0.25
663 2.57648 3.69631 1.84215 0.25
664 6.60423 2.68437 4.86639 0.25
665 7.8883 3.79494 1.19699 0.25
666 5.63153 6.91143 6.58967 0.25
667 6.65056 3.52923 0.0889374 0.25
668 7.10977 6.47766 1.82918 0.25
669 5.963 4.86145 7.14643 0.25
670 5.53424 8.01577 4.60775 0.25
671 3.46001 4.91753 4.66333 0.25
672 2.7472 3.30541 2.09936 0.25
673 0.736013 1.11591 3.13967 0.25
674 5.02415 7.31346 3.22874 0.25
675 5.48236 3.7326 5.47014 0.25
676 7.70791 8.21476 2.16129 0.25
677 6.32141 1.39421 1.3387 0.25
678 7.61777 6.33116 4.80431 0.25
679 1.41091 6.59588 1.46656 0.25
680 3.69746 6.78118 8.10337 0.25
681 7.68774 0.00716186 4.19735 0.25
682 2.51424 6.1926 1.57453 0.25
683 1.60826 7.69586 7.25136 0.25
684 0.451264 3.73695 1.53442 0.25
685 2.82969 3.315 6.82728 0.25
686 4.3194 2.85252 6.70174 0.25
687 1.96586 4.3867 0.624718 0.25
688 3.57427 0.844382 5.97562 0.25
689 6.05511 4.02795 8.14693 0.25
690 6.22239 1.02685 2.60929 0.25
691 7.0325 1.34717 1.63481 0.25
692 5.2799 5.21025 1.96248 0.25
693 7.30608 1.8695 6.51601 0.25
694 7.4662 5.10999 4.84373 0.25
695 8.15561 2.92946 5.8875 0.25
696 5.70456 5.99351 3.25976 0.5
697 4.18071 3.74493 6.3489 0.25
698 1.68611 1.08644 5.40918 0.25
699 1.47902 6.75026 4.83877 0.25
700 4.19493 5.79229 1.00367 0.25
701 4.80738 1.70367 7.98058 0.25
702 2.1416 4.41648 7.48296 0.25
703 3.33848 6.67916 7.39323 0.5
704 4.69943 5.43091 8.11383 0.25
705 5.06994 3.32292 1.83351 0.25
706 5.16812 0.1436 8.32376 0.25
707 4.7482 3.85781 1.37437 0.5
708 5.69966 7.54199 7.83979 0.25
709 2.68879 7.25694 1.96367 0.5
710 2.07696 4.67467 7.07878 0.25
711 5.04939 6.33408 2.90952 0.25
712 0.374051 5.23896 7.91935 0.25
713 2.87382 4.08017 1.73292 0.25
714 5.31579 4.14582 0.848003 0.25
715 4.5991 6.5712 2.78187 0.25
716 6.88049 0.933742 7.63118 0.25
717 7.67398 7.76164 3.61511 0.25
718 5.91963 3.62883 6.78125 0.25
719 5.9912 4.47034 7.95316 0.25
720 1.71184 7.62744 4.20844 0.25
721 6.57312 2.11156 2.35687 0.25
722 2.413 7.79396 3.39478 0.5
723 2.54321 7.69844 2.59683 0.25
724 7.19256 6.45727 1.34979 0.25
725 7.59315 6.32753 7.10117 0.25
726 0.823789 1.1551 5.50887 0.25
727 4.10784 0.36607 1.38724 0.25
728 3.6642 6.29774 7.95929 0.25
729 4.93223 5.96522 3.22467 0.25
730 2.89551 7.26055 7.21444 0.25
731 5.32977 3.08797 2.67727 0.25
732 4.15382 3.6186 6.85142 0.25
733 3.57641 5.59959 7.53224 0.25
734 3.99077 0.812082 2.68389 0.25
735 3.49491 2.8414 6.7007 0.25
736 7.84826 1.3914 8.26589 0.25
737 3.34691 0.503742 1.00507 0.25
738 0.249448 8.02345 0.210433 0.25
739 4.53528 6.15283 3.05015 0.25
740 5.41906 7.07702 3.11209 0.25
741 0.534017 7.82413 0.550244 0.25
742 3.72269 4.63206 6.3308 0.25
743 7.15057 0.919385 1.31891 0.25
744 4.39451 0.867116 2.4312 0.25
745 3.53104 4.21984 6.13725 0.25
746 1.38863 6.02234 4.76132 0.5
747 4.46006 0.444637 2.10829 0.25
748 2.7039 6.82545 7.02584 0.25
749 1.45483 1.44175 2.28254 0.25
750 0.139837 3.38306 1.67036 0.25
751 0.845393 0.882256 5.05036 0.25
752 6.39763 4.77607 7.85068 0.25
753 3.86498 0.80827 1.95459 0.5
754 4.32459 6.02585 1.48792 0.25
755 2.95769 2.62663 1.59459 0.5
756 7.7172 6.74599 7.43525 0.25
757 5.80586 6.6232 5.69173 0.25
758 6.72341 3.8275 7.32961 0.25
759 4.1662 8.1587 5.06364 0.25
760 0.235346 2.57471 3.35496 0.25
761 3.74101 7.29704 7.09613 0.25
762 0.574418 1.79815 3.48587 0.5
763 4.16711 8.10289 1.84237 0.25
764 1.25219 6.10936 0.726329 0.25
765 7.403 4.80724 3.04992 0.25
766 0.614803 4.3884 2.31085 0.25
767 2.62697 6.95405 7.47663 0.25
768 2.32077 3.04983 5.13995 0.25
769 8.06218 3.61564 1.66187 0.25
770 4.94145 0.947247 8.05039 0.25
771 6.58914 1.30267 6.10539 0.25
772 4.6578 2.42311 7.98166 0.25
773 5.51881 0.882719 4.96817 0.5
774 3.6866 8.23942 4.85313 0.25
775 7.95041 4.44902 2.59806 0.5
776 6.96495 4.00633 0.496292 0.5
777 5.92018 6.50248 8.3619 0.25
778 4.8591 8.10611 0.0371597 0.25
779 8.16531 8.25008 4.4141 0.25
780 2.12965 1.57287 6.04215 0.25
781 2.52481 1.75387 8.37884 0.25
782 1.31513 7.40059 0.545656 0.25
783 6.7987 3.18179 0.450513 0.25
784 2.2036 7.85463 2.29487 0.25
785 2.56437 1.7368 6.30309 0.25
786 2.67652 8.0259 2.26936 0.25
787 7.76639 7.00083 6.64339 0.25
788 0.1235 4.18494 2.19638 0.25
789 3.57539 8.0649 4.41026 0.25
790 7.13316 0.427922 6.85311 0.25
791 0.503581 4.88352 2.89425 0.5
792 2.21735 0.401081 7.85916 0.25
793 8.16502 7.1481 1.63521 0.25
794 5.138 6.54594 6.17228 0.5
795 2.50735 4.11186 3.23108 0.25
796 2.09745 5.93385 5.75967 0.25
797 6.7553 6.54487 1.05251 0.25
798 7.79632 4.2656 1.22445 0.25
799 3.96865 3.37191 6.05602 0.25
800 7.88904 2.09579 3.18463 0.25
801 3.235 7.98524 7.01377 0.25
802 3.54235 5.32874 4.34707 0.25
803 3.16435 0.0257053 7.66266 0.5
804 3.77089 7.00287 1.80088 0.25
805 1.86896 8.10024 2.06511 0.25
806 2.60778 1.81838 4.23 0.25
807 4.68124 6.13838 5.21386 0.25
808 4.1048 1.87467 7.76639 0.25
809 1.63334 5.96589 5.78718 0.25
810 6.35997 7.46389 6.53008 0.25
811 1.65127 3.32808 4.94769 0.5
812 5.74333 7.3632 0.513769 0.25
813 4.31984 1.96838 3.06475 0.25
814 1.57357 7.50412 7.71735 0.25
815 2.74625 8.13035 4.41381 0.25
816 1.07405 3.04299 5.30879 0.25
817 4.36815 1.5703 8.00269 0.25
818 3.84587 1.99335 3.16372 0.25
819 1.9077 5.28525 1.08297 0.25
820 3.23662 3.07244 7.05053 0.25
821 1.46484 2.08599 8.14546 0.5
822 5.88807 4.40986 3.48296 0.5
823 5.18876 0.534521 7.97379 0.25
824 0.714371 0.390649 5.1157 0.25
825 3.7636 6.09384 7.54172 0.25
826 3.34112 3.5396 1.67716 0.5
827 5.60018 7.23731 6.22294 0.25
828 0.238447 2.02472 7.58453 0.25
829 8.16336 7.92848 4.79986 0.25
830 0.827355 1.96553 2.75011 0.25
831 2.14768 4.28415 7.91379 0.25
832 5.89457 4.53064 1.99474 0.25
833 1.91229 1.21818 6.23158 0.25
834 4.22517 0.425615 2.54868 0.25
835 6.42419 1.77298 0.962364 0.25
836 3.32183 7.66928 7.76448 0.25
837 3.89684 5.31173 7.85528 0.25
838 7.658 0.807797 1.30414 0.25
839 6.04125 7.48459 6.17659 0.25
840 6.868 4.65972 7.35795 0.5
841 3.38865 6.9823 2.12651 0.25
842 0.122278 2.13359 2.74528 0.5
843 5.93647 3.85864 5.44972 0.25
844 4.42835 2.31637 0.0400644 0.25
845 7.39743 2.5489 5.2803 0.25
846 3.76071 3.44707 7.49269 0.5
847 2.28597 5.17238 0.786093 0.25
848 1.76494 5.90038 5.37937 0.25
849 5.22401 7.67097 2.51564 0.25
850 6.40606 2.88261 5.56709 0.5
851 5.45454 8.20852 5.12795 0.25
852 7.04118 1.73088 7.89843 0.25
853 4.05834 8.27189 4.59626 0.25
854 4.34612 1.62169 5.92955 0.5
855 0.335667 3.92215 5.20926 0.25
856 0.798668 5.42431 3.23704 0.25
857 3.76943 6.63766 1.46785 0.25
858 2.73082 4.5927 3.84425 0.25
859 6.57078 4.51513 3.92318 0.25
860 7.72088 4.11227 0.778057 0.25
861 4.73143 2.90001 7.88381 0.25
862 6.52868 4.73285 3.44856 0.25
863 5.46243 6.25185 0.00850525 0.25
864 7.68561 6.84552 2.52022 0.25
865 3.73756 5.79547 7.97099 0.25
866 5.29617 8.05595 2.9284 0.25
867 1.7772 4.0164 7.61301 0.25
868 2.12458 1.70881 0.585684 0.5
869 0.904257 3.22556 7.25873 0.25
870 6.14207 5.44088 3.13835 0.25
871 2.85537 7.6756 6.88806 0.25
872 5.87335 3.09991 5.04734 0.25
873 0.444944 7.92678 8.11703 0.25
874 3.83676 1.1178 6.23127 0.25
875 2.271 4.25708 1.31695 0.5
876 1.37579 5.67115 5.49384 0.25
877 0.0034819 5.1833 7.57871 0.25
878 5.79278 1.06951 2.33521 0.25
879 3.16717 8.25283 4.7073 0.25
880 6.46161 6.08352 2.9608 0.25
881 7.49434 1.27832 1.44093 0.25
882 7.82103 7.17999 7.12815 0.25
883 0.547928 3.89273 2.33299 0.25
884 7.20664 3.27555 0.667494 0.25
885 0.787443 4.10769 5.08392 0.25
886 7.94095 7.42272 3.35598 0.25
887 1.39164 6.98645 1.11488 0.25
888 1.14397 4.64634 3.06908 0.25
889 1.41007 8.13731 2.82057 0.25
890 0.219749 4.68911 2.31275 0.25
891 0.876519 2.4743 7.78102 0.25
892 7.57145 3.61126 0.854444 0.25
893 1.01182 7.81801 0.630403 0.25
894 3.9592 5.71329 1.43887 0.25
895 3.70519 5.78245 1.01071 0.25
896 1.75883 1.39811 0.0560818 0.25
897 8.14086 4.08068 1.51272 0.25
898 0.884012 4.4394 3.41355 0.25
899 0.788207 8.3676 5.86559 0.25
900 5.04993 6.16773 5.62078 0.25
901 0.913394 1.50691 2.85564 0.25
902 7.40742 3.96897 1.18753 0.25
903 5.82918 3.70139 3.72901 0.25
904 6.8545 3.98082 7.78261 0.25
905 5.35654 0.838312 5.77725 0.25
906 1.94518 1.02074 0.330505 0.25