ITEM: TIMESTEP
630000
ITEM: NUMBER OF ATOMS
1000
ITEM: BOX BOUNDS xy xz yz pp pp pp
0.0000000000000000e+00 8.3788359999999997e+00 0.0000000000000000e+00
0.0000000000000000e+00 8.3788359999999997e+00 0.0000000000000000e+00
0.0000000000000000e+00 8.3788359999999997e+00 0.0000000000000000e+00
ITEM: ATOMS id x y z radius
1 2.81725 6.91882 4.79878 0.25
2 4.71138 4.82896 5.41946 0.25
3 7.03384 4.60795 3.06617 0.25
4 7.33944 0.951603 5.84407 0.5
5 1.22006 5.63923 6.23544 0.25
6 8.23676 1.8519 3.47112 0.25
7 4.25539 3.27173 6.67377 0.25
8 4.85178 7.75779 2.90984 0.25
9 1.0157 5.7959 4.11006 0.25
10 4.04964 1.66076 3.50359 0.25
11 5.36827 0.0909594 7.87809 0.25
12 5.24562 3.64581 1.511 0.25
13 0.647697 2.44768 7.59257 0.25
14 3.69184 2.67223 7.17772 0.25
15 0.277631 2.69732 6.20784 0.25
16 7.50779 0.79535 6.61342 0.25
17 0.798704 5.18526 8.33601 0.25
18 6.1635 7.40337 8.08165 0.25
19 4.41683 1.78457 7.79784 0.25
20 7.79038 1.30418 0.759774 0.25
21 4.993 4.36903 1.86989 0.25
22 4.21372 3.39953 1.08909 0.25
23 2.16985 3.45306 1.95783 0.25
24 2.74439 2.0247 4.67555 0.25
25 2.74557 4.55236 2.95797 0.25
26 0.415136 8.34952 5.70688 0.25
27 3.97973 0.37359 5.82023 0.25
28 4.21368 2.00282 0.159844 0.25
29 5.197 6.96457 2.99969 0.25
30 7.61869 7.30945 2.51572 0.25
31 2.63211 0.392001 7.97952 0.25
32 1.00293 2.77935 7.52048 0.25
33 7.66809 0.13679 5.13044 0.25
34 2.13715 5.46524 1.47307 0.25
35 7.85255 0.0846228 4.61593 0.25
36 6.85016 1.94561 5.92563 0.5
37 4.42587 1.33965 2.34708 0.25
38 2.1422 3.52632 4.27344 0.25
39 6.14239 2.58956 4.92924 0.25
40 5.28579 7.75415 3.17914 0.25
41 6.64728 2.22114 2.83323 0.25
42 5.53199 5.85358 5.83234 0.25
43 3.49251 7.7033 4.82845 0.25
44 3.81321 8.26097 5.41042 0.25
45 5.71623 3.93611 4.04141 0.25
46 3.2113 6.15711 1.53779 0.5
47 4.94724 0.935684 5.47801 0.25
48 7.93172 6.18873 6.79169 0.25
49 7.50471 6.68474 4.60685 0.25
50 7.903 1.12891 1.22405 0.25
51 2.6142 3.4994 4.36282 0.25
52 0.705488 1.71527 2.40446 0.25
53 6.32794 5.04118 7.01776 0.25
54 5.95631 3.10512 4.1063 0.25
55 1.67811 1.00682 5.93883 0.25
56 1.19388 7.14164 0.0794042 0.25
57 4.65608 0.926819 2.1696 0.25
58 2.1581 2.14274 4.17751 0.25
59 4.61994 1.24207 6.31609 0.25
60 7.70349 5.42788 5.21694 0.25
61 5.12418 8.07471 7.95975 0.25
62 5.30716 2.02322 8.34741 0.5
63 7.60016 6.63567 1.19711 0.25
64 1.13684 6.31937 1.29727 0.25
65 4.25579 0.269399 1.75394 0.25
66 2.3232 4.88769 7.33364 0.25
67 8.12099 4.95701 7.28274 0.25
68 7.15541 0.449661 6.44669 0.25
69 0.314776 5.54199 7.6698 0.25
70 1.84037 4.92998 0.956225 0.25
71 8.10283 1.22647 0.374792 0.25
72 6.44212 6.21181 3.47799 0.25
73 0.580632 7.39694 6.80168 0.25
74 7.22966 5.6111 6.86251 0.25
75 7.21367 0.0944335 3.32031 0.25
76 7.60346 6.2702 4.23348 0.25
77 5.53936 2.80574 5.4692 0.25
78 5.38138 3.97964 1.19368 0.25
79 7.66307 4.89514 4.48515 0.25
80 5.81058 3.27755 5.4687 0.25
81 7.13202 1.36544 1.1932 0.25
82 0.0727056 3.1118 6.2936 0.25
83 4.42699 5.70482 5.37673 0.25
84 1.09224 1.05293 5.91577 0.25
85 1.39714 1.05771 5.11174 0.25
86 4.6387 0.0335788 5.46914 0.25
87 1.58686 1.83969 1.19072 0.25
88 3.22161 6.95085 1.59808 0.25
89 6.79573 7.13042 0.869018 0.25
90 5.56273 6.18411 5.44923 0.25
91 3.9645 4.08136 6.33719 0.25
92 6.13125 4.59544 7.53129 0.25
93 5.18951 6.20944 5.0984 0.25
94 6.74675 0.101472 3.98793 0.25
95 0.233743 4.55064 7.59483 0.5
96 5.39346 3.04355 3.51856 0.5
97 4.02091 5.03413 8.1092 0.25
98 8.27428 2.35177 3.47856 0.25
99 1.5533 6.31011 5.96756 0.25
100 7.12711 7.01593 1.20392 0.25
101 0.758117 7.64417 8.1264 0.25
102 7.93029 4.7504 3.34881 0.25
103 6.70739 1.11636 1.35873 0.25
104 0.910006 4.77934 7.36366 0.25
105 5.15474 5.46961 5.30612 0.5
106 5.38547 0.388964 4.55162 0.25
107 4.40998 3.17366 7.11358 0.25
108 4.8419 1.40031 0.031746 0.25
109 0.670663 0.785567 5.80566 0.25
110 2.22836 8.03761 8.2702 0.25
111 3.25957 3.92268 7.11336 0.25
112 4.51651 2.09443 8.18892 0.25
113 1.65595 2.00117 1.92484 0.5
114 1.77763 3.73502 7.13011 0.25
115 4.48751 6.39683 5.87952 0.25
116 2.54288 7.16537 6.93779 0.25
117 4.08883 2.39119 3.84768 0.5
118 6.57908 7.12821 1.2746 0.25
119 1.07976 6.23977 3.94855 0.25
120 0.0472363 2.87495 2.39128 0.25
121 3.14393 4.15028 3.53986 0.25
122 6.72517 0.658793 6.24038 0.25
123 5.2608 0.584425 5.56018 0.25
124 8.14541 7.97653 2.46313 0.25
125 3.36388 2.20307 3.85507 0.25
126 3.53812 1.03918 5.74523 0.25
127 5.40026 4.04353 1.74267 0.25
128 6.57791 5.35079 7.30375 0.25
129 1.50676 6.1225 4.05668 0.25
130 5.79806 6.21435 0.796094 0.25
131 7.04005 1.40299 6.40627 0.25
132 5.89091 4.13585 7.6648 0.25
133 3.22812 2.00818 3.45044 0.25
134 4.18705 2.4411 8.30736 0.25
135 5.40224 3.78825 3.65302 0.25
136 2.76145 2.55288 3.74171 0.5
137 2.85182 4.08047 3.09682 0.25
138 7.55494 7.90381 2.8625 0.5
139 2.51072 7.68504 4.98366 0.25
140 5.24481 7.60941 7.83965 0.25
141 7.82464 5.79398 4.925 0.25
142 1.111 5.30113 3.00737 0.25
143 2.17423 2.19101 0.142006 0.25
144 5.00123 1.18051 2.74389 0.5
145 7.42713 1.98241 4.01704 0.25
146 6.10101 7.34092 0.171597 0.25
147 6.54377 5.51158 4.47373 0.25
148 2.26776 3.1616 4.57537 0.25
149 4.59294 8.19023 2.4002 0.5
150 4.99107 2.90957 4.1868 0.25
151 3.41921 5.95372 7.12136 0.25
152 3.55311 4.45892 5.69267 0.25
153 6.68304 6.05876 2.24996 0.5
154 7.32442 2.45419 4.64653 0.5
155 2.96875 7.28942 7.71008 0.25
156 7.47063 3.52432 1.43335 0.25
157 7.63288 5.90727 1.61061 0.25
158 2.61318 3.89187 0.877727 0.25
159 7.11643 7.69077 4.34091 0.25
160 6.40648 1.90459 3.14418 0.25
161 0.773567 5.61798 2.80836 0.25
162 5.86382 4.37729 7.21664 0.25
163 3.33266 3.76842 4.18898 0.5
164 2.48761 4.08908 2.40157 0.5
165 5.54537 7.98266 7.65511 0.25
166 0.0643815 3.77163 7.7108 0.25
167 6.50476 3.96885 8.26627 0.25
168 4.71857 5.97346 5.70231 0.25
169 3.99576 4.23787 5.86619 0.25
170 8.238 2.69321 6.44429 0.25
171 7.81614 5.82825 1.05748 0.25
172 1.22749 2.91661 7.08407 0.25
173 4.32799 6.1991 5.41712 0.25
174 2.38398 2.1808 1.14565 0.25
175 7.6321 2.38236 6.06982 0.5
176 2.45563 5.85722 6.05081 0.25
177 5.60625 3.44903 4.0204 0.25
178 3.08773 6.66632 2.02009 0.25
179 3.46421 2.39945 3.36116 0.25
180 5.8486 6.28992 5.88514 0.25
181 6.60812 4.19053 6.89154 0.25
182 3.28619 5.32181 3.3733 0.25
183 8.14938 7.5023 1.78584 0.25
184 3.67666 5.36609 8.15245 0.25
185 5.79472 6.77331 6.01155 0.25
186 7.53018 5.81856 4.51237 0.25
187 3.19135 5.23825 4.26749 0.25
188 0.834961 5.87921 3.61867 0.25
189 4.20972 6.55081 3.19233 0.25
190 4.02573 3.32903 1.54786 0.25
191 7.16302 1.6783 0.571393 0.5
192 0.84383 4.9308 7.87084 0.25
193 3.96686 5.48819 1.0621 0.25
194 2.6207 6.45209 2.04395 0.25
195 6.21823 5.68835 2.7049 0.25
196 2.20833 8.05217 2.68988 0.25
197 1.14247 0.262468 2.32073 0.25
198 7.61015 4.84222 7.27205 0.25
199 1.12684 1.38839 3.27326 0.25
200 4.61587 5.45355 1.35498 0.5
201 6.68686 1.47393 3.18201 0.25
202 8.22435 3.75318 5.56295 0.25
203 3.57075 1.77871 3.72184 0.25
204 5.69785 7.99447 8.37942 0.5
205 2.516 7.4312 4.31405 0.5
206 0.341004 4.39308 5.27044 0.25
207 5.72784 2.67278 4.11051 0.25
208 6.93754 5.23487 4.28643 0.25
209 5.53013 7.02779 8.19538 0.5
210 1.83099 8.13297 3.0411 0.25
211 0.571304 3.71092 5.10131 0.25
212 1.46488 7.89579 8.30703 0.5
213 0.296856 4.19586 2.55836 0.25
214 1.78871 8.11277 2.49464 0.25
215 2.84891 4.36326 3.88533 0.25
216 6.24904 1.96296 2.63759 0.25
217 5.04872 3.87158 1.956 0.25
218 2.37516 3.5606 4.76266 0.25
219 4.29086 1.21125 2.87343 0.25
220 3.4698 3.52345 0.870306 0.25
221 4.21945 8.32599 5.68661 0.25
222 7.29965 0.507769 5.19688 0.25
223 8.04453 2.87185 2.70981 0.25
224 7.04667 5.43936 7.29789 0.25
225 7.4047 2.09733 5.40635 0.25
226 4.80723 2.06404 7.74997 0.25
227 6.36409 3.75825 7.05837 0.25
228 5.47722 3.0476 4.24945 0.25
229 5.79096 4.85334 1.71538 0.25
230 0.564823 8.06246 6.40339 0.5
231 5.35232 4.66623 1.23379 0.5
232 1.90589 3.07478 4.2521 0.25
233 4.136 5.15817 3.87697 0.25
234 6.5805 0.981076 6.61785 0.25
235 3.135 7.31936 4.6969 0.25
236 0.92399 2.49597 7.9414 0.25
237 8.30517 2.95615 7.44494 0.25
238 3.40504 0.881883 1.40854 0.25
239 0.311267 2.46014 3.82606 0.25
240 6.69755 6.34898 1.55354 0.25
241 3.43627 7.15671 7.90954 0.25
242 1.72464 7.46982 2.69245 0.5
243 2.91774 4.93918 3.25754 0.25
244 7.08893 3.45916 1.12904 0.25
245 2.13904 1.10426 5.77446 0.25
246 7.60917 8.26999 3.60029 0.25
247 3.48659 2.70329 3.75412 0.25
248 3.73518 3.19585 1.17158 0.25
249 0.153369 5.26146 7.27992 0.25
250 1.21729 3.90974 5.30652 0.25
251 5.28221 2.61117 4.76373 0.5
252 3.08322 2.15707 4.30206 0.25
253 7.818 5.62029 7.29872 0.5
254 7.20446 5.99655 7.22479 0.25
255 4.66609 0.54424 6.01967 0.5
256 5.83365 6.11795 0.297966 0.25
257 1.08978 0.194944 2.81994 0.25
258 1.72916 1.62433 2.59494 0.25
259 4.52321 3.20909 1.50427 0.25
260 7.89283 6.28052 1.31929 0.25
261 3.98906 0.0776492 1.32273 0.25
262 3.40743 2.51714 4.22337 0.25
263 2.2562 0.273894 0.223424 0.5
264 2.80241 4.47653 3.39785 0.25
265 1.10101 3.99627 7.33117 0.5
266 0.910016 7.87213 7.40359 0.5
267 5.12972 2.45221 7.68532 0.25
268 6.39442 7.72116 0.0901434 0.25
269 1.97429 5.68706 0.732588 0.25
270 3.85874 3.67733 1.23727 0.25
271 7.48337 7.76057 4.65156 0.25
272 1.69284 1.11754 2.62382 0.25
273 1.44484 3.35303 7.18121 0.25
274 0.790624 5.46509 7.88516 0.25
275 4.70267 4.71912 1.58 0.25
276 2.70036 3.25773 1.18391 0.25
277 6.79497 0.583811 6.77339 0.25
278 3.84916 6.31997 1.16541 0.25
279 4.16537 0.43208 5.09008 0.5
280 7.7726 8.06603 4.87707 0.25
281 0.824883 6.37309 0.908071 0.25
282 6.13299 7.03571 6.19564 0.25
283 1.14821 0.12673 6.17065 0.25
284 7.24341 4.38808 0.919952 0.25
285 1.87444 6.14609 1.25489 0.5
286 5.58056 6.79624 3.32872 0.25
287 1.39493 7.88283 3.61351 0.5
288 2.80641 7.3402 5.06382 0.25
289 2.33719 7.18294 5.01564 0.25
290 1.96468 3.90923 1.87207 0.25
291 8.22277 7.43068 7.03399 0.25
292 7.76039 2.49973 3.44034 0.25
293 7.54427 4.40576 3.26295 0.25
294 5.52543 3.66475 3.19103 0.25
295 8.11692 4.17826 0.97552 0.25
296 0.323877 4.0634 4.56036 0.5
297 4.01512 2.93823 6.92226 0.25
298 6.21613 5.1142 7.50531 0.25
299 5.82509 4.87774 7.72947 0.25
300 6.35005 3.33229 0.471409 0.25
301 1.13016 7.29533 7.92659 0.25
302 0.175977 4.18655 1.3235 0.25
303 3.86742 0.904761 1.19398 0.25
304 2.04652 2.81309 4.76329 0.25
305 0.536132 4.75692 8.26631 0.25
306 2.22453 2.31674 4.66219 0.25
307 1.59989 4.71858 7.6793 0.5
308 3.78132 5.79335 2.90449 0.25
309 4.39418 1.01708 5.46548 0.25
310 0.528641 4.59422 3.52691 0.25
311 7.27134 0.11917 3.88373 0.25
312 0.931656 0.937701 2.5424 0.5
313 0.777715 3.77251 5.55478 0.25
314 5.25991 3.41953 2.79506 0.25
315 1.0973 4.81362 8.2708 0.25
316 1.79955 4.24093 7.10876 0.25
317 7.53001 2.42924 3.83754 0.25
318 2.28261 2.66851 4.32457 0.25
319 4.8711 7.29922 7.99714 0.25
320 2.03749 6.1406 6.04897 0.25
321 4.30248 1.04149 1.37325 0.25
322 7.28644 6.42593 5.00945 0.25
323 1.02507 5.4383 4.46218 0.25
324 4.13175 7.39687 7.76173 0.5
325 0.966725 1.70418 0.233232 0.25
326 3.98447 4.73874 5.1108 0.5
327 7.48905 7.36328 3.38361 0.25
328 2.26661 7.96315 1.88164 0.25
329 1.32305 5.82491 3.67998 0.25
330 8.20676 6.97497 7.19881 0.25
331 1.09469 5.1324 3.74228 0.5
332 7.34908 6.54644 2.26213 0.25
333 1.02488 1.52583 2.11571 0.25
334 6.7991 1.62801 1.35199 0.25
335 3.2006 3.11957 1.08009 0.25
336 3.00276 7.05295 6.81425 0.25
337 4.41377 7.12718 2.74363 0.5
338 6.56954 7.2712 0.0211052 0.25
339 2.06063 7.91273 4.03783 0.25
340 4.91578 0.532885 4.77527 0.25
341 6.69048 0.0945599 3.15011 0.25
342 1.10193 5.24245 7.55507 0.25
343 2.72353 1.4217 0.271914 0.25
344 0.998284 6.09843 2.90134 0.25
345 0.436744 1.58935 2.79107 0.25
346 0.469239 2.40693 8.06472 0.25
347 3.37112 5.99882 7.64435 0.25
348 7.41547 7.81547 2.09687 0.25
349 0.810821 2.09816 8.30271 0.25
350 6.68458 1.71515 2.71514 0.25
351 1.3861 6.85418 0.447724 0.25
352 6.33111 3.51359 7.71123 0.5
353 2.38714 0.117146 7.60589 0.25
354 2.01555 0.646394 5.80974 0.25
355 0.698044 0.301063 6.01632 0.25
356 1.82711 1.84271 6.04036 0.25
357 2.97272 3.66581 6.76704 0.25
358 6.1923 3.37393 5.21831 0.25
359 4.20019 1.07596 6.44003 0.25
360 1.9006 2.19381 1.20364 0.25
361 0.841832 7.50091 0.201322 0.25
362 6.13806 4.16381 6.85569 0.25
363 7.97979 4.06872 1.981 0.25
364 5.92445 3.89002 7.16507 0.25
365 5.38846 6.15639 0.500066 0.25
366 5.16672 6.59098 0.349404 0.25
367 3.04777 4.12879 6.68688 0.25
368 6.97918 3.68704 8.19297 0.25
369 1.10648 6.40413 0.441085 0.25
370 5.59777 0.368227 8.24591 0.25
371 2.55179 8.0862 4.68194 0.25
372 2.23272 4.84622 0.708514 0.25
373 6.99577 2.82932 5.30242 0.25
374 3.80665 4.48342 4.37064 0.25
375 5.48485 0.907563 8.07682 0.25
376 2.62798 6.06416 1.10714 0.25
377 6.41785 1.48822 2.06418 0.5
378 0.370909 3.85638 7.36459 0.25
379 5.15182 1.3795 8.01579 0.25
380 2.35523 6.74409 4.74544 0.25
381 3.99717 5.45214 5.32605 0.25
382 1.96371 7.01717 4.70977 0.25
383 6.25998 5.16752 3.88315 0.5
384 1.12554 2.03697 1.30913 0.25
385 7.06067 1.29155 7.14539 0.5
386 1.40021 1.2417 5.58487 0.25
387 7.81659 0.733325 0.867028 0.25
388 0.644844 5.92724 3.2347 0.25
389 4.30996 2.55219 7.55744 0.5
390 4.02951 0.586824 6.275 0.25
391 5.41201 4.62441 1.98992 0.25
392 8.13413 2.70282 3.1695 0.25
393 2.74674 6.71423 1.65667 0.25
394 0.85832 8.19219 8.09584 0.25
395 2.12959 1.7594 1.38419 0.25
396 4.75014 7.76655 8.01051 0.25
397 5.30687 0.685363 0.059324 0.25
398 7.44949 1.56204 8.25871 0.25
399 3.19103 4.50156 3.16692 0.25
400 4.73624 4.4359 0.805144 0.25
401 2.24346 7.09511 3.68486 0.25
402 8.2435 7.82358 6.73557 0.25
403 7.76755 6.29945 0.867253 0.25
404 7.88714 6.69019 6.94103 0.25
405 0.391626 7.55316 0.0323082 0.25
406 5.64384 0.0295948 4.44537 0.25
407 2.47217 1.10575 8.07659 0.5
408 5.5214 3.25798 2.35619 0.25
409 2.29564 5.13904 1.13225 0.25
410 7.42708 0.883959 0.241824 0.5
411 4.43799 5.22555 5.18966 0.25
412 8.18385 7.05437 6.68541 0.25
413 1.40892 1.56896 0.342637 0.25
414 0.535032 3.16709 7.86376 0.5
415 6.51128 4.5821 2.92552 0.25
416 3.11433 2.84627 6.54485 0.25
417 3.50868 4.75436 3.75584 0.5
418 7.23918 6.61326 4.18444 0.25
419 4.0063 3.74724 5.97091 0.25
420 0.790513 3.09236 4.95452 0.25
421 3.94726 4.76362 5.82857 0.25
422 2.32239 5.63035 1.03618 0.25
423 0.297862 0.472159 5.68305 0.25
424 0.355119 3.3287 4.85509 0.25
425 1.97973 2.91094 1.38797 0.5
426 7.07813 5.63853 4.9751 0.5
427 2.5568 2.26509 4.35406 0.25
428 4.15685 5.11213 3.33366 0.25
429 4.36726 4.54826 5.7166 0.25
430 1.79459 7.27973 3.40093 0.25
431 1.00293 3.37318 6.90166 0.25
432 1.61792 6.86818 4.03449 0.5
433 2.07025 1.73514 7.73737 0.25
434 0.939338 6.77404 1.21246 0.25
435 5.75779 3.33871 2.87116 0.25
436 1.05037 6.20563 3.41175 0.25
437 0.141461 1.01769 0.430425 0.25
438 0.954499 3.47286 5.19473 0.25
439 4.02554 2.49108 6.77604 0.25
440 4.89631 1.60772 7.68416 0.25
441 7.84914 4.111 5.52956 0.25
442 2.4478 5.78047 1.51517 0.25
443 0.445962 2.81641 6.96344 0.5
444 2.09361 3.61689 1.49533 0.25
445 5.44892 6.97691 0.537869 0.25
446 4.32374 5.841 3.46349 0.5
447 1.45877 1.41282 6.0118 0.25
448 5.95338 7.10603 5.71654 0.25
449 0.947472 5.54761 5.79997 0.25
450 3.00037 3.59347 1.00868 0.25
451 2.6131 6.85858 5.17973 0.25
452 2.44495 0.99251 0.425181 0.25
453 4.6017 4.68445 1.14266 0.25
454 0.0968723 3.45189 7.30099 0.25
455 7.88374 4.96556 7.69325 0.25
456 3.05873 1.83256 3.91128 0.25
457 2.49819 3.82501 7.20864 0.5
458 0.073314 7.46426 6.57621 0.25
459 5.05391 7.62846 8.31829 0.25
460 5.73495 0.240493 4.87271 0.25
461 2.61783 3.69566 1.34333 0.25
462 6.24594 4.91494 3.16332 0.25
463 5.18096 7.40704 2.84422 0.25
464 7.46202 6.87623 6.97401 0.25
465 7.0423 2.65164 5.74707 0.25
466 3.96412 1.56657 3.01936 0.25
467 3.91446 6.40238 1.66078 0.25
468 6.84703 5.29759 2.96584 0.5
469 7.39096 7.32276 6.73355 0.25
470 1.26816 1.37841 8.30191 0.25
471 2.07753 0.874336 6.23927 0.25
472 1.93269 7.56572 1.92197 0.25
473 7.37334 5.13777 5.40183 0.25
474 5.03402 5.7684 5.98109 0.25
475 1.37516 1.39546 2.84516 0.25
476 7.12822 0.72275 7.66253 0.25
477 3.35736 5.52244 3.79923 0.25
478 6.03485 3.38791 7.00496 0.25
479 3.42338 7.32187 7.48339 0.25
480 4.72615 0.275415 1.79295 0.25
481 7.86461 2.19147 4.17212 0.25
482 7.16158 4.93669 4.57351 0.25
483 8.20043 5.47965 4.9954 0.25
484 3.00444 0.468167 8.23663 0.25
485 7.90242 7.46243 6.64664 0.25
486 2.47911 6.31298 5.78944 0.25
487 8.23448 7.76284 4.27698 0.25
488 4.40495 4.11653 6.0896 0.25
489 0.714761 7.96303 0.117063 0.25
490 8.22223 7.89667 1.97631 0.25
491 4.65676 3.22752 1.02672 0.25
492 2.31721 1.8253 4.48093 0.25
493 6.26288 4.55209 7.03851 0.25
494 4.98467 7.49679 2.43626 0.25
495 1.24237 5.95499 5.87232 0.25
496 2.96666 7.80452 4.77846 0.25
497 6.36278 4.25578 7.86356 0.25
498 3.31755 2.94521 4.15511 0.25
499 0.598176 5.21231 7.49012 0.25
500 4.07541 2.86262 6.42999 0.25
501 6.09886 3.61457 4.05443 0.25
502 1.66169 8.02415 7.69224 0.25
503 5.9116 4.95673 2.49785 0.5
504 7.86958 7.66191 2.22448 0.25
505 5.90048 1.63667 2.57518 0.25
506 7.207 6.23396 4.56531 0.25
507 1.19085 0.549315 3.15135 0.25
508 0.73428 8.30374 5.31349 0.25
509 8.04483 4.76976 5.23919 0.5
510 4.80919 1.7133 5.67706 0.25
511 0.662483 0.289914 5.5014 0.25
512 0.974937 0.954039 3.31961 0.25
513 3.86826 1.03786 5.38614 0.25
514 1.99097 5.61329 5.99727 0.25
515 1.05754 7.53028 6.71619 0.25
516 7.51214 1.62031 6.13787 0.25
517 7.42343 5.32263 4.34963 0.25
518 0.817107 3.47875 4.68935 0.25
519 6.44983 2.00781 1.46994 0.25
520 6.83122 1.81879 6.64202 0.25
521 7.81074 1.59509 0.297399 0.25
522 6.74525 1.22451 7.83607 0.25
523 5.27217 6.60258 5.38545 0.25
524 2.56752 0.592583 7.52696 0.25
525 6.33765 4.17628 7.33638 0.25
526 6.82733 5.24267 6.88607 0.25
527 7.45311 8.0181 4.05458 0.25
528 7.48236 1.28917 6.56111 0.25
529 6.62577 1.24727 2.71172 0.25
530 2.19187 1.72649 6.35918 0.25
531 7.91747 7.99722 3.94404 0.25
532 1.41789 0.956709 3.09225 0.25
533 7.2759 1.16083 7.92214 0.25
534 8.13591 5.87111 1.50364 0.25
535 0.434539 3.16199 5.5999 0.5
536 6.88659 2.70646 6.23416 0.25
537 4.01536 0.831996 5.78812 0.25
538 6.64765 5.05931 4.66013 0.25
539 2.40731 1.27463 6.21348 0.25
540 8.09946 6.34337 2.09417 0.5
541 7.61243 3.97328 1.62036 0.25
542 2.16592 2.2381 8.00743 0.25
543 3.32906 7.42718 7.01864 0.25
544 7.59057 6.51808 6.59363 0.25
545 1.44735 5.61597 4.19606 0.25
546 4.68756 6.01791 6.18477 0.25
547 4.97554 2.68803 0.15241 0.25
548 5.9466 7.36324 6.48386 0.25
549 0.26686 7.67058 7.00642 0.25
550 6.27966 6.89751 8.24961 0.25
551 4.37477 1.68257 2.74835 0.25
552 3.78084 5.41653 3.6237 0.25
553 6.90963 7.89052 3.61661 0.5
554 4.58414 6.38069 2.91472 0.25
555 4.90073 6.64639 3.56542 0.5
556 7.3135 0.605731 0.984518 0.25
557 7.27706 4.84133 3.78602 0.5
558 6.41815 0.130584 3.58636 0.25
559 1.35076 0.452425 5.53195 0.5
560 5.06422 3.44416 2.29658 0.25
561 2.89695 3.20547 4.07001 0.25
562 5.1822 0.105492 5.5035 0.25
563 2.25486 6.6758 1.6853 0.25
564 6.18139 6.80869 0.642414 0.5
565 6.54062 1.47467 6.54918 0.25
566 1.19541 1.74536 2.51919 0.25
567 4.27625 5.91824 5.82045 0.25
568 5.76095 1.29355 2.96814 0.25
569 2.50896 8.29452 8.02399 0.25
570 1.87849 6.51172 4.69845 0.25
571 2.98036 4.33741 7.15742 0.25
572 8.12029 2.84422 3.98253 0.5
573 3.99233 1.33873 2.5483 0.25
574 1.62869 5.85889 6.19667 0.25
575 2.07299 1.78313 8.24983 0.25
576 4.13302 5.64237 7.53809 0.25
577 5.31834 0.365208 5.08316 0.25
578 1.9731 7.4531 3.86418 0.25
579 7.40164 5.16238 7.53014 0.25
580 7.11441 8.36251 4.62731 0.5
581 4.16219 4.57077 6.20508 0.25
582 5.91587 2.89242 4.5678 0.25
583 5.75966 3.57721 4.71751 0.5
584 4.81154 6.42638 5.48521 0.25
585 5.02305 3.24648 1.32455 0.25
586 1.79384 0.412104 2.69017 0.5
587 5.08638 6.99125 2.50116 0.25
588 5.80761 5.09938 3.26226 0.25
589 0.167077 2.54887 7.65646 0.25
590 3.55338 6.68046 1.85468 0.25
591 6.6512 1.31689 0.961769 0.25
592 7.51673 7.08305 1.79374 0.5
593 6.85485 6.84325 1.56763 0.25
594 1.56717 5.13253 0.311277 0.5
595 0.543293 3.93244 7.83559 0.25
596 2.20043 0.856842 0.750681 0.25
597 0.0364221 0.171968 5.12216 0.5
598 2.52121 6.56321 1.23634 0.25
599 1.99832 8.30172 7.91773 0.25
600 7.7847 0.572143 5.33252 0.25
601 0.610769 0.718091 5.32238 0.25
602 4.0097 0.146469 2.12536 0.25
603 4.15122 5.53807 8.07203 0.25
604 7.33527 5.13874 6.99344 0.25
605 7.86861 2.11957 3.7012 0.25
606 2.1517 8.29172 2.23984 0.25
607 4.35697 5.21557 7.75899 0.25
608 3.56943 7.72676 7.34271 0.25
609 6.73983 4.76652 4.29407 0.25
610 1.81897 1.46574 5.68656 0.25
611 3.03399 0.64092 7.78076 0.25
612 0.699015 7.16795 8.24862 0.25
613 6.9933 1.30806 8.27041 0.25
614 4.71219 0.933063 5.03675 0.25
615 4.78267 2.71916 3.81576 0.25
616 1.12027 5.73036 3.23333 0.25
617 1.36013 8.17044 2.32779 0.25
618 7.63152 7.30592 4.1022 0.5
619 7.78043 7.99865 4.39246 0.25
620 0.00453558 7.22326 2.5131 0.5
621 4.13975 6.5078 3.7018 0.25
622 6.03422 6.52808 6.30101 0.25
623 5.43049 6.57092 0.797216 0.25
624 1.23044 3.45737 5.58292 0.25
625 1.1955 5.24718 8.04952 0.25
626 3.63338 0.466809 1.29377 0.25
627 4.96777 4.91338 1.90274 0.25
628 8.23094 3.57269 2.42478 0.5
629 7.08322 3.36278 0.126458 0.25
630 1.45543 0.0938513 3.21602 0.25
631 1.74354 1.45691 7.94775 0.25
632 7.76766 7.82699 1.76235 0.25
633 6.12534 7.66198 0.542091 0.25
634 2.976 7.90072 3.9326 0.25
635 0.62889 7.01933 0.59285 0.5
636 1.44745 2.4012 1.28813 0.25
637 5.64083 0.373574 5.42823 0.25
638 4.74326 1.3452 5.29521 0.25
639 4.67807 1.84224 0.22202 0.25
640 5.2739 7.45333 0.368387 0.25
641 1.32495 6.63947 5.27779 0.25
642 3.64087 0.564593 5.55563 0.25
643 6.20505 6.67561 5.80554 0.25
644 5.6967 0.860031 2.67724 0.25
645 2.2775 2.20554 1.59903 0.25
646 8.0305 6.60665 6.45279 0.25
647 2.42686 3.16264 4.10391 0.25
648 5.30585 1.24269 0.037646 0.25
649 0.466763 4.11399 1.76047 0.25
650 8.27663 3.77068 1.25709 0.25
651 3.23852 3.17188 3.70332 0.25
652 6.89398 0.531375 7.25279 0.25
653 1.30107 6.5388 0.890923 0.25
654 0.795753 2.5854 0.0147261 0.25
655 3.55449 3.48574 6.53256 0.5
656 0.582073 3.52176 7.1348 0.25
657 1.47844 5.51443 5.87059 0.25
658 6.88294 0.308801 3.54952 0.25
659 2.44864 1.89424 7.89481 0.25
660 7.03171 5.8946 3.93813 0.5
661 8.22166 0.956458 0.00422818 0.25
662 4.02469 4.95688 4.3323 0.25
663 2.45732 3.80023 1.79612 0.25
664 6.66434 2.63816 4.97681 0.25
665 7.77933 3.81643 1.15373 0.25
666 5.73522 6.92547 6.49129 0.25
667 6.58942 3.46094 0.0522354 0.25
668 7.0757 6.50213 1.85652 0.25
669 5.89093 4.9009 7.25067 0.25
670 5.75073 8.14245 4.83464 0.25
671 3.54387 4.92742 4.46641 0.25
672 2.66755 3.39516 2.09046 0.25
673 0.645306 1.28257 3.14039 0.25
674 4.90021 7.35711 3.27626 0.25
675 5.48772 3.69025 5.40661 0.25
676 7.77291 8.15844 2.17539 0.25
677 6.34684 1.51911 1.34834 0.25
678 7.64845 6.22857 4.74162 0.25
679 1.40859 6.7587 1.32691 0.25
680 3.74065 6.77076 8.02174 0.25
681 7.70811 0.0545158 4.12891 0.25
682 2.53885 6.24966 1.60479 0.25
683 1.61611 7.77345 7.23816 0.25
684 0.413619 3.78921 1.41786 0.25
685 2.89594 3.1719 6.82918 0.25
686 4.44902 2.78759 6.77608 0.25
687 1.81641 4.49687 0.733338 0.25
688 3.56658 0.605337 6.01205 0.25
689 5.98102 4.00662 8.15369 0.25
690 6.09703 1.15806 2.63962 0.25
691 7.06493 1.26074 1.71796 0.25
692 5.42074 5.12131 1.86397 0.25
693 7.32669 1.79622 6.53753 0.25
694 7.49468 5.02249 4.94871 0.25
695 8.25709 2.80436 5.99791 0.25
696 5.76075 5.98559 3.32855 0.5
697 4.25192 3.71436 6.42062 0.25
698 1.80207 0.978572 5.42729 0.25
699 1.5037 6.81555 4.83068 0.25
700 4.17433 5.93688 0.977191 0.25
701 4.77747 1.71854 8.09267 0.25
702 2.18816 4.43233 7.36215 0.25
703 3.37809 6.66118 7.34633 0.5
704 4.46498 5.13814 8.25544 0.25
705 4.91198 3.44183 1.80074 0.25
706 5.09327 0.166686 8.27131 0.25
707 4.62017 3.93671 1.37207 0.5
708 5.78996 7.58173 7.78144 0.25
709 2.61798 7.293 2.03588 0.5
710 2.03522 4.72636 7.0334 0.25
711 5.37977 6.53505 2.93211 0.25
712 0.401179 5.14269 7.97356 0.25
713 2.79131 4.12013 1.6927 0.25
714 5.07143 4.06962 0.807959 0.25
715 4.94405 6.58447 2.77037 0.25
716 6.64144 0.809077 7.61012 0.25
717 7.63882 7.78073 3.60587 0.25
718 6.13998 3.71534 6.67579 0.25
719 5.97489 4.4606 8.02225 0.25
720 1.73153 7.57514 4.25913 0.25
721 6.66426 2.04854 2.40708 0.25
722 2.32872 7.78641 3.415 0.5
723 2.51137 7.66275 2.67294 0.25
724 7.13219 6.52328 1.33162 0.25
725 7.56258 6.38572 7.11939 0.25
726 0.97085 1.07388 5.42676 0.25
727 4.1537 0.553024 1.39972 0.25
728 3.70201 6.24069 7.88805 0.25
729 5.05555 5.93774 3.4857 0.25
730 2.96181 7.20128 7.24606 0.25
731 5.42446 2.93811 2.76273 0.25
732 4.2923 3.63116 6.94012 0.25
733 3.6417 5.60845 7.43662 0.25
734 3.91017 0.86841 2.74518 0.25
735 3.61461 2.7393 6.66291 0.25
736 7.94754 1.34473 8.26441 0.25
737 3.51514 0.739751 0.910677 0.25
738 0.237467 8.0142 0.146674 0.25
739 5.00351 6.12907 3.05613 0.25
740 5.38295 7.27919 3.33714 0.25
741 0.462138 7.69243 0.491278 0.25
742 3.67491 4.48982 6.20679 0.25
743 7.16759 0.918231 1.39239 0.25
744 4.30669 0.890652 2.51525 0.25
745 3.56715 4.0475 5.98742 0.25
746 1.3366 6.07237 4.77486 0.5
747 4.41769 0.481434 2.1474 0.25
748 2.7579 6.72553 7.04999 0.25
749 1.44844 1.37732 2.27464 0.25
750 0.0582253 3.41512 1.63944 0.25
751 0.982458 0.82332 5.00776 0.25
752 6.32156 4.78282 7.9293 0.25
753 3.87853 0.915995 1.94879 0.5
754 4.3296 6.26608 1.34158 0.25
755 2.85098 2.6534 1.60356 0.5
756 7.81214 6.78294 7.36258 0.25
757 5.76402 6.65192 5.55338 0.25
758 6.76903 3.92682 7.30267 0.25
759 4.29889 8.11617 5.23789 0.25
760 0.234417 2.68869 3.37887 0.25
761 3.76183 7.27254 7.11759 0.25
762 0.600601 1.93397 3.47571 0.5
763 4.05126 8.17669 1.75784 0.25
764 1.20878 6.09196 0.821863 0.25
765 7.50813 4.84183 3.02072 0.25
766 0.589673 4.41875 2.199 0.25
767 2.60865 6.93203 7.4773 0.25
768 2.2585 3.18184 5.06626 0.25
769 7.94957 3.62217 1.59518 0.25
770 4.98034 0.940856 8.12672 0.25
771 6.70025 1.1635 6.15422 0.25
772 4.80646 2.49071 8.08835 0.25
773 5.46551 1.01608 5.00186 0.5
774 3.86606 8.03898 4.96379 0.25
775 8.02986 4.45837 2.69579 0.5
776 6.83096 3.88363 0.562222 0.5
777 5.98045 6.48635 0.0111549 0.25
778 4.89672 8.08822 0.0313416 0.25
779 8.18875 8.2726 4.28736 0.25
780 2.2757 1.59416 5.87024 0.25
781 2.55152 1.8667 0.0271313 0.25
782 1.27284 7.36522 0.488383 0.25
783 6.75071 3.08558 0.348584 0.25
784 2.1439 7.80156 2.30425 0.25
785 2.6071 1.73473 6.19549 0.25
786 2.55219 7.98879 2.30368 0.25
787 7.7036 6.99976 6.56397 0.25
788 0.106972 4.22494 2.08994 0.25
789 3.76321 7.94636 4.47855 0.25
790 7.22896 0.590173 6.92966 0.25
791 0.593071 4.83706 2.85386 0.5
792 2.15899 0.443241 7.85825 0.25
793 8.28795 7.02095 1.75466 0.25
794 5.23148 6.49891 6.11997 0.5
795 2.38777 4.28295 3.12586 0.25
796 2.20452 5.87242 5.64232 0.25
797 6.7014 6.69581 1.12666 0.25
798 7.66278 4.30332 1.25219 0.25
799 4.15784 3.29597 6.2188 0.25
800 7.92508 2.10686 3.19031 0.25
801 3.243 7.92281 7.01011 0.25
802 3.70782 5.29735 4.09419 0.25
803 3.12331 8.33273 7.60733 0.5
804 3.68588 7.17013 1.7174 0.25
805 1.7317 8.00004 2.03793 0.25
806 2.64444 1.91182 4.15205 0.25
807 4.7354 6.05417 5.20317 0.25
808 4.05522 2.03035 8.06904 0.25
809 1.71387 5.96286 5.727 0.25
810 6.43154 7.38852 6.39655 0.25
811 1.54031 3.38581 4.85008 0.5
812 5.74191 7.36006 0.473209 0.25
813 4.22602 1.997 3.13169 0.25
814 1.58357 7.49758 7.68825 0.25
815 2.94482 8.10012 4.40248 0.25
816 1.11759 3.01499 5.34067 0.25
817 4.35051 1.58517 8.25686 0.25
818 3.73693 1.95098 3.30695 0.25
819 1.84233 5.39026 1.05837 0.25
820 3.31945 2.96201 6.97708 0.25
821 1.46922 2.10301 8.20887 0.5
822 5.95831 4.28735 3.32245 0.5
823 5.23051 0.565951 7.96217 0.25
824 0.768568 0.338997 5.00929 0.25
825 3.8231 6.06059 7.45271 0.25
826 3.2514 3.54621 1.67805 0.5
827 5.65107 7.20955 6.10627 0.25
828 0.275693 2.07063 7.72748 0.25
829 8.19793 8.05181 4.69175 0.25
830 0.8263 2.00537 2.75551 0.25
831 2.25839 4.26421 7.78882 0.25
832 5.8185 4.3776 1.83782 0.25
833 1.92548 1.38541 6.1436 0.25
834 4.13456 0.431592 2.54825 0.25
835 6.53599 1.85351 0.99618 0.25
836 3.35689 7.6292 7.85145 0.25
837 3.86746 5.25796 7.72546 0.25
838 7.59755 0.749068 1.32125 0.25
839 6.08436 7.50622 6.05403 0.25
840 6.89331 4.65535 7.4281 0.5
841 3.36105 7.09947 2.09568 0.25
842 0.108841 2.21942 2.74861 0.5
843 5.92635 3.8013 5.44305 0.25
844 4.62447 2.35309 0.20236 0.25
845 7.43238 2.63537 5.3969 0.25
846 3.80453 3.41577 7.45558 0.5
847 2.18818 5.30993 0.7192 0.25
848 1.76733 5.90139 5.28946 0.25
849 5.27912 7.8552 2.6759 0.25
850 6.31423 2.73159 5.62236 0.5
851 5.57314 8.31558 5.25529 0.25
852 7.09204 1.63825 7.87691 0.25
853 4.2033 8.18431 4.74777 0.25
854 4.09321 1.5653 5.84424 0.5
855 0.31681 3.93998 5.41036 0.25
856 0.678356 5.42843 3.25548 0.25
857 3.67008 6.76669 1.3904 0.25
858 2.6959 4.79902 3.69361 0.25
859 6.56677 4.50056 3.85961 0.25
860 7.5883 4.07623 0.795735 0.25
861 5.25353 2.70088 8.11509 0.25
862 6.62033 4.66639 3.39385 0.25
863 5.48512 6.27686 8.37257 0.25
864 7.67784 6.8295 2.49818 0.25
865 3.75125 5.74488 7.86922 0.25
866 5.08273 8.17729 3.01422 0.25
867 1.87511 4.00714 7.5579 0.25
868 2.14066 1.64522 0.647606 0.5
869 0.951873 3.21337 7.32921 0.25
870 6.18559 5.40835 3.13403 0.25
871 2.8415 7.55836 6.93999 0.25
872 5.86298 2.96298 5.09328 0.25
873 0.4251 7.96424 8.06414 0.25
874 3.7523 1.03908 6.21723 0.25
875 2.18131 4.34278 1.29896 0.5
876 1.36212 5.68616 5.46622 0.25
877 8.28321 5.19016 7.70778 0.25
878 5.70553 1.25232 2.41039 0.25
879 3.34974 8.10692 4.68166 0.25
880 6.50009 5.97137 3.04438 0.25
881 7.51588 1.23978 1.49205 0.25
882 7.79637 7.18662 7.02444 0.25
883 0.504169 3.88816 2.24978 0.25
884 7.17012 3.20219 0.658496 0.25
885 0.743893 4.13368 5.20412 0.25
886 7.94956 7.48375 3.35656 0.25
887 1.29653 7.03881 0.951453 0.25
888 1.29277 4.82482 3.14203 0.25
889 1.41766 8.15439 2.82709 0.25
890 0.180169 4.69106 2.27243 0.25
891 1.12341 2.30171 7.54181 0.25
892 7.45024 3.56457 0.900009 0.25
893 0.953355 7.76247 0.500045 0.25
894 3.97534 5.91041 1.425 0.25
895 3.6751 5.91733 0.960651 0.25
896 1.80327 1.40163 0.0330276 0.25
897 8.08229 4.12274 1.4912 0.25
898 1.00493 4.49314 3.3987 0.25
899 0.907554 8.29426 5.7791 0.25
900 5.14065 6.0708 5.54041 0.25
901 0.925121 1.54553 2.85358 0.25
902 7.30872 3.95181 1.16535 0.25
903 5.85185 3.59489 3.61 0.25
904 6.81626 4.0225 7.83091 0.25
905 5.24878 1.01734 5.78936 0.25