ITEM: TIMESTEP
980000
ITEM: NUMBER OF ATOMS
1000
ITEM: BOX BOUNDS xy xz yz pp pp pp
0.0000000000000000e+00 8.3788359999999997e+00 0.0000000000000000e+00
0.0000000000000000e+00 8.3788359999999997e+00 0.0000000000000000e+00
0.0000000000000000e+00 8.3788359999999997e+00 0.0000000000000000e+00
ITEM: ATOMS id x y z radius
1 2.6782 6.97556 4.89614 0.25
2 4.70301 5.39802 4.8674 0.25
3 6.93333 4.62202 3.14888 0.25
4 7.47641 1.14089 5.92463 0.5
5 1.14329 5.69474 6.278 0.25
6 8.26213 1.78431 3.49969 0.25
7 4.01606 3.2463 6.78385 0.25
8 4.77662 7.75513 3.0459 0.25
9 0.822444 6.07493 3.72328 0.25
10 4.18719 1.54685 3.43383 0.25
11 5.07323 8.37282 8.07017 0.25
12 5.17062 3.42263 1.37362 0.25
13 0.47313 2.50605 7.39961 0.25
14 3.53806 2.85505 7.35802 0.25
15 0.105596 3.33749 6.16042 0.25
16 7.63148 1.06645 6.73489 0.25
17 0.929198 5.35769 8.3301 0.25
18 6.15467 7.4656 8.15026 0.25
19 4.49926 1.88834 7.66557 0.25
20 7.67788 1.39515 0.663427 0.25
21 4.87819 4.16111 1.76405 0.25
22 4.2819 3.16815 1.22209 0.25
23 2.18062 3.26597 1.96599 0.25
24 2.89618 1.98432 4.61885 0.25
25 2.76713 4.44632 2.91794 0.25
26 0.367703 0.0554225 5.79967 0.25
27 3.71312 0.490455 5.98205 0.25
28 4.60419 2.34897 8.3635 0.25
29 5.04327 6.95894 3.05499 0.25
30 7.47431 7.37385 2.37229 0.25
31 2.75399 0.261871 8.05426 0.25
32 0.929719 2.75117 7.29365 0.25
33 7.73893 0.226039 5.24236 0.25
34 2.03304 5.64198 1.58395 0.25
35 8.00699 0.0579484 4.50872 0.25
36 6.85889 2.02768 5.83149 0.5
37 4.15169 1.41176 2.22192 0.25
38 2.05897 3.34963 4.33451 0.25
39 6.01541 2.63295 4.83831 0.25
40 5.23346 7.71361 3.26917 0.25
41 6.57577 2.13286 2.94304 0.25
42 5.58057 6.30703 5.43719 0.25
43 3.62386 8.01306 4.58683 0.25
44 4.10988 8.13237 5.19488 0.25
45 5.56778 4.05943 3.99252 0.25
46 3.20391 6.03828 1.33201 0.5
47 4.68566 0.874187 5.29567 0.25
48 8.17773 6.20528 6.95464 0.25
49 6.96297 6.8272 4.69327 0.25
50 7.71263 1.31282 1.14253 0.25
51 2.55783 3.39232 4.40638 0.25
52 0.628607 1.48326 2.42019 0.25
53 6.6117 5.00546 6.72967 0.25
54 5.83361 3.255 4.02862 0.25
55 1.62868 1.1267 5.97716 0.25
56 1.35955 7.52986 0.565374 0.25
57 4.73119 0.692813 2.0572 0.25
58 2.32082 2.05163 4.08565 0.25
59 4.77322 1.12904 6.25203 0.25
60 7.55744 5.402 5.2241 0.25
61 4.92823 7.93214 7.9537 0.25
62 5.30878 1.96984 0.0348095 0.5
63 7.55957 6.58373 1.15073 0.25
64 1.1959 6.22516 0.655532 0.25
65 4.24244 0.0698697 1.8809 0.25
66 2.42525 4.86312 7.25412 0.25
67 8.21014 4.84494 7.57475 0.25
68 7.41133 0.691223 6.51804 0.25
69 0.383595 5.46173 7.69313 0.25
70 1.70061 4.91304 1.0163 0.25
71 8.05625 1.41787 0.385547 0.25
72 6.30801 6.29405 3.41671 0.25
73 0.539614 7.54958 6.88182 0.25
74 7.48958 5.5996 6.88933 0.25
75 7.25081 0.0257961 3.37802 0.25
76 7.41801 6.64048 4.79986 0.25
77 5.53704 2.89134 5.38543 0.25
78 5.32174 3.83118 1.09163 0.25
79 7.73009 5.19723 4.33791 0.25
80 5.75134 3.37409 5.42858 0.25
81 7.29901 1.55758 1.05691 0.25
82 8.10296 3.04743 6.35284 0.25
83 4.49997 5.80216 5.68332 0.25
84 1.10563 1.18632 5.90465 0.25
85 1.37296 1.0208 5.12061 0.25
86 4.56991 8.36192 5.39014 0.25
87 1.88078 2.19292 0.723851 0.25
88 3.18194 6.76352 1.57048 0.25
89 6.93728 7.26941 0.727186 0.25
90 5.33581 6.71618 5.52945 0.25
91 4.20536 4.14718 6.06105 0.25
92 6.23334 4.57534 7.37213 0.25
93 4.83686 6.7118 5.52176 0.25
94 6.82898 8.29785 4.12854 0.25
95 0.382497 4.48413 7.85958 0.5
96 5.48632 3.0546 3.38526 0.5
97 4.28985 5.07861 8.26933 0.25
98 8.35218 2.25722 3.45095 0.25
99 1.61478 6.36119 5.95099 0.25
100 7.06519 6.84219 0.990331 0.25
101 0.785599 7.76203 8.23327 0.25
102 7.77851 4.65812 3.40398 0.25
103 6.85777 1.12453 1.52192 0.25
104 1.00326 4.73174 7.5571 0.25
105 4.90337 6.09136 5.0795 0.5
106 5.50413 0.56513 4.9315 0.25
107 3.94059 3.18392 7.25572 0.25
108 4.80683 1.43168 0.109266 0.25
109 0.724178 0.85576 5.74254 0.25
110 2.28816 7.89704 8.17336 0.25
111 3.40067 3.98978 6.95273 0.25
112 4.77213 2.06244 8.01525 0.25
113 1.58636 1.81521 1.76604 0.5
114 1.80073 3.77172 7.14316 0.25
115 4.87092 6.08469 6.35741 0.25
116 2.55173 7.0148 6.99653 0.25
117 4.21661 2.28332 3.61587 0.5
118 6.81288 7.25803 1.17229 0.25
119 1.12616 6.49274 3.62016 0.25
120 0.054379 2.86317 2.99613 0.25
121 3.10586 4.13153 3.58959 0.25
122 6.95428 0.806828 6.38587 0.25
123 4.98654 0.670538 5.59983 0.25
124 8.11415 7.98798 2.4372 0.25
125 3.51737 2.09637 3.91293 0.25
126 3.6485 1.29939 5.89895 0.25
127 5.24849 3.86994 1.56859 0.25
128 6.74521 5.35471 7.07965 0.25
129 0.865132 6.4403 4.06632 0.25
130 5.6201 6.3367 0.0732012 0.25
131 7.10292 1.64111 6.39112 0.25
132 6.02639 4.20283 7.54886 0.25
133 3.18092 1.79826 3.63858 0.25
134 4.52553 2.76915 8.27222 0.25
135 5.39976 3.79715 3.50754 0.25
136 2.92603 2.55057 3.70251 0.5
137 2.90264 4.03867 3.1204 0.25
138 7.51579 7.94754 2.86356 0.5
139 2.67995 7.42984 5.07413 0.25
140 5.25196 7.65582 7.86448 0.25
141 7.612 5.80078 4.90698 0.25
142 1.17182 5.06803 3.22185 0.25
143 2.27967 2.05285 8.30193 0.25
144 5.09036 1.03691 2.7219 0.5
145 7.53404 1.9334 3.92725 0.25
146 6.09666 7.42477 0.209769 0.25
147 6.35892 5.58734 4.41903 0.25
148 2.24344 2.9886 4.55627 0.25
149 4.50544 8.25391 2.61197 0.5
150 5.09777 2.87204 4.01933 0.25
151 3.53898 5.85718 7.20812 0.25
152 3.81151 4.74356 5.58317 0.25
153 6.72064 6.01435 2.22317 0.5
154 7.30055 2.42081 4.5105 0.5
155 2.97493 7.21157 7.67548 0.25
156 7.44115 3.48661 1.49804 0.25
157 7.62185 5.86603 1.61349 0.25
158 2.64711 3.65274 0.91597 0.25
159 7.01845 7.87663 4.47327 0.25
160 6.44341 1.72509 3.2001 0.25
161 1.0118 5.1906 2.78157 0.25
162 5.91347 4.41025 7.09487 0.25
163 3.26281 3.81842 4.26212 0.5
164 2.5295 3.83126 2.47813 0.5
165 5.403 8.1197 7.80552 0.25
166 0.247755 3.7526 8.05399 0.25
167 6.60745 4.1695 8.2622 0.25
168 4.92735 6.01053 5.85949 0.25
169 4.17205 4.39182 5.55753 0.25
170 0.0726396 2.88515 6.06254 0.25
171 7.81773 5.76779 1.09976 0.25
172 1.13282 3.00077 6.87217 0.25
173 4.4256 6.09525 6.08392 0.25
174 2.28345 2.07913 1.05509 0.25
175 7.70331 2.53612 5.94675 0.5
176 2.34803 5.90295 6.14009 0.25
177 5.43056 3.58393 3.96286 0.25
178 2.99965 6.46295 1.88291 0.25
179 3.50227 2.06262 3.43556 0.25
180 5.84322 6.71973 5.56488 0.25
181 6.74117 4.1852 6.89231 0.25
182 3.19193 5.30581 3.38886 0.25
183 8.07549 7.53777 1.73339 0.25
184 3.85999 5.33787 8.32421 0.25
185 5.88825 6.9597 6.04483 0.25
186 7.51527 5.69235 4.45958 0.25
187 2.83928 5.37961 4.11811 0.25
188 0.778413 5.80164 3.25363 0.25
189 4.12335 6.62163 3.3757 0.25
190 3.99221 3.535 1.37378 0.25
191 6.98923 1.55075 0.374659 0.5
192 1.01934 5.0302 7.91198 0.25
193 3.99398 5.43077 0.977992 0.25
194 2.58831 6.27769 1.7793 0.25
195 6.18054 5.7103 2.7197 0.25
196 2.23783 8.02492 2.69802 0.25
197 1.29396 0.0349864 2.45878 0.25
198 7.69043 4.86348 7.50639 0.25
199 1.21441 1.37279 3.21253 0.25
200 4.56017 5.27901 1.53116 0.5
201 6.71249 1.31682 3.14202 0.25
202 8.31879 3.94723 5.36313 0.25
203 3.72418 1.69277 3.66507 0.25
204 5.60104 8.01245 0.0876035 0.5
205 2.43983 7.44056 4.37644 0.5
206 0.403766 4.51051 5.18182 0.25
207 5.63882 2.77232 4.06319 0.25
208 6.76893 5.28154 4.28972 0.25
209 5.50657 7.06194 8.28028 0.5
210 1.8224 8.08611 3.00098 0.25
211 0.668746 3.82401 4.99744 0.25
212 1.528 7.85183 8.30081 0.5
213 0.146707 4.03533 2.81906 0.25
214 1.7666 8.08916 2.50664 0.25
215 2.7673 4.34155 3.9145 0.25
216 6.26532 1.85378 2.75219 0.25
217 4.89132 3.64842 1.7757 0.25
218 2.3287 3.36239 4.83143 0.25
219 4.30632 0.941351 2.85914 0.25
220 3.57631 3.43375 1.06516 0.25
221 4.13456 8.31758 5.6992 0.25
222 7.47337 0.604788 5.36674 0.25
223 8.11446 2.70043 2.65338 0.25
224 7.2151 5.47896 7.28044 0.25
225 7.37673 2.26072 5.34265 0.25
226 4.87809 2.20314 7.5034 0.25
227 6.45954 3.72696 7.01362 0.25
228 5.43382 3.15444 4.2112 0.25
229 5.72626 4.93657 1.75458 0.25
230 0.501681 8.20581 6.54329 0.5
231 5.32329 4.58359 1.31365 0.5
232 1.98081 2.88453 4.21818 0.25
233 3.83233 5.29233 4.2965 0.25
234 6.64633 1.64113 6.52867 0.25
235 3.53029 7.49149 4.5631 0.25
236 0.945639 2.46863 8.18438 0.25
237 0.0643727 2.84998 7.38736 0.25
238 3.91502 0.981997 1.13923 0.25
239 0.342713 2.44144 3.75374 0.25
240 6.65571 6.28458 1.50614 0.25
241 3.45077 7.12592 7.94021 0.25
242 1.70534 7.40557 2.75136 0.5
243 2.8715 4.88444 3.22615 0.25
244 7.03029 3.42096 1.21262 0.25
245 2.14355 1.25063 5.9563 0.25
246 7.64457 8.13471 3.63813 0.25
247 3.60229 2.55337 3.40114 0.25
248 3.79426 3.06014 1.25735 0.25
249 0.204402 5.12909 7.4479 0.25
250 1.39093 3.65336 5.34021 0.25
251 5.24285 2.64092 4.67968 0.5
252 3.23479 2.19536 4.35413 0.25
253 8.00252 5.59562 7.41872 0.5
254 7.32323 5.95753 7.15305 0.25
255 4.55071 0.431678 6.0237 0.5
256 5.20476 6.55298 0.373593 0.25
257 1.11891 0.131723 2.92983 0.25
258 1.59985 1.67743 2.47915 0.25
259 4.44095 3.41197 1.65648 0.25
260 7.89036 6.18306 1.37942 0.25
261 4.02265 8.15954 1.52376 0.25
262 3.50265 2.56283 4.15695 0.25
263 2.16019 0.232902 0.0669586 0.5
264 2.73639 4.40228 3.43404 0.25
265 1.17422 4.01051 7.49854 0.5
266 0.871217 7.76483 7.47905 0.5
267 5.05255 2.67903 7.5915 0.25
268 6.36867 7.80651 0.069464 0.25
269 1.53532 5.37581 0.888341 0.25
270 4.04613 3.41127 0.880714 0.25
271 7.42456 7.91554 4.75861 0.25
272 1.75939 1.14869 2.60001 0.25
273 1.42992 3.36456 7.05725 0.25
274 0.835694 5.51111 7.79292 0.25
275 4.62302 4.52249 1.60065 0.25
276 2.69258 3.16148 1.13574 0.25
277 6.68467 1.09837 6.71498 0.25
278 3.94921 6.20642 1.21936 0.25
279 3.98755 0.483397 5.23959 0.5
280 7.84617 8.19126 4.94888 0.25
281 1.10756 6.7111 0.451697 0.25
282 6.28209 7.27439 6.1125 0.25
283 1.05063 0.298706 6.30602 0.25
284 7.32328 4.2938 0.91738 0.25
285 1.80969 6.0445 1.03408 0.5
286 5.45943 6.73966 3.26873 0.25
287 1.40197 7.82484 3.58783 0.5
288 3.06603 7.375 4.78203 0.25
289 2.25621 7.2045 5.08112 0.25
290 2.07221 3.81231 1.9258 0.25
291 8.12718 7.53752 7.06357 0.25
292 7.68508 2.47571 3.34375 0.25
293 7.41216 4.41056 3.21019 0.25
294 5.41556 3.77578 3.03709 0.25
295 8.11265 4.06916 1.07885 0.25
296 0.489101 4.2294 4.49244 0.5
297 3.56064 3.15423 6.91102 0.25
298 6.34598 5.05132 7.15169 0.25
299 5.78487 4.64807 7.52673 0.25
300 6.2616 3.37583 0.584456 0.25
301 1.0038 7.337 8.17742 0.25
302 0.0925575 4.12338 1.50248 0.25
303 3.93892 0.502762 1.06797 0.25
304 2.07876 2.57084 4.70248 0.25
305 0.809413 4.87336 8.33929 0.25
306 2.4478 2.16326 4.58772 0.25
307 1.76256 4.75768 7.63753 0.5
308 3.39028 4.93696 3.13271 0.25
309 4.40392 1.01152 5.6467 0.25
310 1.02055 4.65331 4.16688 0.25
311 7.23788 0.00443047 3.89263 0.25
312 1.01192 0.840438 2.62813 0.5
313 0.87969 3.85206 5.44553 0.25
314 5.2115 3.36971 2.71387 0.25
315 1.16234 4.58717 8.05332 0.25
316 1.83811 4.23863 7.07773 0.25
317 7.53155 2.38573 3.79461 0.25
318 2.35181 2.5554 4.25854 0.25
319 4.83787 7.37394 8.00833 0.25
320 2.03146 6.20805 6.01157 0.25
321 4.31624 0.715556 1.26033 0.25
322 7.36939 6.20228 5.071 0.25
323 0.782771 5.96648 4.20972 0.25
324 4.10949 7.29775 7.72176 0.5
325 0.559235 2.23961 0.540526 0.25
326 4.13239 4.96115 4.99212 0.5
327 7.49963 7.30586 3.25899 0.25
328 2.21454 7.80154 1.84726 0.25
329 1.22343 5.96989 3.44812 0.25
330 8.14414 7.07347 7.32362 0.25
331 1.00955 5.36807 3.83857 0.5
332 7.35018 6.58097 2.12069 0.25
333 0.987752 1.36568 2.04923 0.25
334 6.79391 1.76525 1.12732 0.25
335 3.25255 3.04998 1.12394 0.25
336 3.05193 6.94051 6.78209 0.25
337 4.30951 7.19715 2.92125 0.5
338 6.58146 7.39567 8.28865 0.25
339 2.04167 7.9448 3.97691 0.25
340 5.06687 0.703769 5.0013 0.25
341 6.81581 8.27417 3.16314 0.25
342 1.18145 5.21341 7.48088 0.25
343 2.85758 1.24401 0.193151 0.25
344 1.2119 5.64843 2.61397 0.25
345 0.47772 1.31801 2.90372 0.25
346 0.497872 2.37743 8.06551 0.25
347 3.45956 5.89357 7.71864 0.25
348 7.38602 7.7757 2.03654 0.25
349 0.774374 2.07663 0.0585775 0.25
350 6.70565 1.61417 2.77246 0.25
351 1.38891 7.05266 0.689989 0.25
352 6.3246 3.56901 7.73548 0.5
353 2.37599 8.20643 7.43093 0.25
354 1.94756 0.746779 5.95636 0.25
355 0.646127 0.438531 6.03459 0.25
356 1.74156 1.89693 6.04992 0.25
357 3.07462 4.3476 6.83281 0.25
358 6.17041 3.42602 5.16134 0.25
359 4.27951 1.04376 6.41245 0.25
360 1.85282 1.93425 1.10647 0.25
361 0.949135 7.60545 0.310062 0.25
362 6.24775 4.11996 6.75793 0.25
363 7.90319 4.03171 2.08289 0.25
364 6.01496 3.84828 7.11364 0.25
365 5.51176 6.18239 0.557447 0.25
366 5.89456 6.27532 0.849098 0.25
367 3.19054 4.24443 7.31159 0.25
368 6.69695 3.73707 8.26503 0.25
369 1.1633 7.20546 0.278575 0.25
370 5.39203 0.369174 8.16514 0.25
371 2.87395 7.87059 4.90019 0.25
372 1.98827 4.70607 0.72864 0.25
373 6.98467 2.86716 5.05136 0.25
374 3.65704 4.4601 4.41689 0.25
375 5.30233 0.889598 8.0503 0.25
376 2.55095 5.85054 1.02476 0.25
377 6.38975 1.40818 2.12659 0.5
378 0.414593 3.72094 7.61653 0.25
379 5.57347 1.35175 8.07039 0.25
380 2.25015 6.84081 4.73553 0.25
381 4.20104 5.40005 5.60465 0.25
382 1.84508 7.12241 4.77383 0.25
383 6.15888 5.22058 3.82842 0.5
384 2.14036 1.62282 1.29306 0.25
385 7.16638 1.52258 7.16832 0.5
386 1.47343 1.27679 5.56096 0.25
387 7.79595 0.918372 0.865648 0.25
388 0.785266 5.62028 2.78307 0.25
389 4.28437 2.61167 7.64728 0.5
390 3.92017 0.75146 6.41251 0.25
391 5.42328 4.69403 2.02774 0.25
392 8.13503 2.49448 3.12886 0.25
393 2.73602 6.63357 1.49135 0.25
394 0.855457 8.21581 8.08614 0.25
395 2.6079 1.80873 1.29621 0.25
396 4.5224 7.749 8.20277 0.25
397 5.13388 0.651744 0.109772 0.25
398 7.39363 1.44565 8.16791 0.25
399 3.15685 4.47892 3.22589 0.25
400 4.85192 4.52891 0.729257 0.25
401 2.21398 7.03733 3.7683 0.25
402 8.17838 7.92469 6.7251 0.25
403 7.78717 6.23324 0.88321 0.25
404 8.05455 6.69822 6.98154 0.25
405 0.507469 7.75286 0.287371 0.25
406 5.85033 0.213356 4.78557 0.25
407 2.50036 1.02831 8.00988 0.5
408 5.55105 3.29765 2.26618 0.25
409 2.18469 4.93212 1.07797 0.25
410 7.61026 0.836422 0.158662 0.5
411 4.39202 5.61069 5.19892 0.25
412 8.29345 7.09953 6.84346 0.25
413 1.02063 2.4427 0.294098 0.25
414 0.537486 3.08172 7.8944 0.5
415 6.46089 4.60062 2.92869 0.25
416 2.93226 3.44273 6.48971 0.25
417 3.29705 4.81972 3.85414 0.5
418 7.21509 6.57307 4.33074 0.25
419 4.15874 3.90698 5.63304 0.25
420 0.839978 3.1137 4.76812 0.25
421 4.26967 4.90123 5.66471 0.25
422 2.29825 5.40529 1.22664 0.25
423 0.260336 0.576363 5.71016 0.25
424 0.502028 3.46486 4.73715 0.25
425 1.93448 2.75053 1.3183 0.5
426 6.91 5.63954 4.94197 0.5
427 2.72876 2.16452 4.20314 0.25
428 4.00987 5.14845 3.79561 0.25
429 4.62787 4.58291 5.4203 0.25
430 1.84381 7.15123 3.48032 0.25
431 1.00247 3.50562 6.89241 0.25
432 1.53321 6.881 4.10536 0.5
433 2.31838 1.58238 7.63043 0.25
434 0.783969 6.53519 0.823879 0.25
435 5.66247 3.46511 2.7527 0.25
436 1.09502 6.00225 2.9387 0.25
437 0.153374 1.41684 0.522185 0.25
438 0.955597 3.43561 5.11372 0.25
439 3.35756 2.75796 6.88472 0.25
440 5.03436 1.74552 7.69892 0.25
441 7.99809 4.30939 5.42751 0.25
442 2.461 5.81244 1.507 0.25
443 0.405701 2.98992 6.78953 0.5
444 2.10931 3.46507 1.50675 0.25
445 5.43595 6.98064 0.563578 0.25
446 4.16081 5.87554 3.48737 0.5
447 1.40677 1.58321 5.94269 0.25
448 5.77293 7.42696 6.06696 0.25
449 0.966932 5.55871 5.81215 0.25
450 3.05795 3.53632 1.05838 0.25
451 2.64364 7.05285 5.39011 0.25
452 2.58454 0.86949 0.310099 0.25
453 4.57277 4.65526 1.1269 0.25
454 0.116788 3.38263 7.39927 0.25
455 7.86221 5.05553 7.91554 0.25
456 3.08141 1.8135 4.13185 0.25
457 2.58293 3.79815 7.08792 0.5
458 0.117683 7.54144 6.70339 0.25
459 5.0075 7.62999 8.36799 0.25
460 5.80122 0.352642 5.2738 0.25
461 2.61125 3.6143 1.36559 0.25
462 6.15793 4.96737 3.11361 0.25
463 5.09941 7.3958 2.89052 0.25
464 7.57116 6.73566 6.82831 0.25
465 7.08746 2.67539 5.52681 0.25
466 4.01739 1.32368 3.04927 0.25
467 3.861 6.14967 1.70339 0.25
468 6.75276 5.32202 3.0218 0.5
469 7.58443 7.2098 6.57369 0.25
470 0.590979 1.7347 0.436033 0.25
471 1.96558 1.02136 6.42529 0.25
472 1.88001 7.4651 1.96278 0.25
473 7.313 4.96485 5.01113 0.25
474 5.35562 5.91783 5.66552 0.25
475 1.40896 1.39794 2.79215 0.25
476 7.2021 0.797392 7.38087 0.25
477 3.14922 5.5607 3.8509 0.25
478 6.11952 3.33688 7.0531 0.25
479 3.42087 7.22766 7.4377 0.25
480 4.71888 0.124639 1.92671 0.25
481 7.90684 2.17327 4.15269 0.25
482 6.94295 4.95634 4.6297 0.25
483 7.93492 5.52032 4.67631 0.25
484 2.90148 0.566645 0.0535815 0.25
485 8.02077 7.45133 6.56211 0.25
486 2.47564 6.19225 5.75584 0.25
487 8.10117 7.68927 4.32078 0.25
488 4.61835 4.13572 5.73261 0.25
489 0.862956 8.09792 0.230168 0.25
490 8.14332 7.97545 1.98459 0.25
491 4.42735 2.9003 1.64615 0.25
492 2.58429 1.72799 4.2678 0.25
493 6.33479 4.58039 6.90649 0.25
494 4.76502 7.56293 2.5577 0.25
495 1.23216 6.00851 5.93738 0.25
496 3.34304 7.77921 4.95155 0.25
497 6.49399 4.25235 7.69851 0.25
498 3.40858 3.06841 4.194 0.25
499 0.680131 5.07953 7.52728 0.25
500 3.71255 2.85981 6.53226 0.25
501 5.843 3.72139 3.7508 0.25
502 1.63441 7.94876 7.58492 0.25
503 5.88851 5.04187 2.48175 0.5
504 7.80591 7.68175 2.18023 0.25
505 5.87138 1.44775 2.64362 0.25
506 6.97744 6.34579 4.71592 0.25
507 1.36888 0.511631 3.18235 0.25
508 0.739989 8.31333 5.4284 0.25
509 8.09449 4.88652 4.99416 0.5
510 5.12591 1.44819 5.99127 0.25
511 0.674247 0.355458 5.58945 0.25
512 1.18774 0.95162 3.34923 0.25
513 3.93173 1.18497 5.50267 0.25
514 1.95623 5.64021 6.05444 0.25
515 0.29204 8.24677 7.29185 0.25
516 7.53304 1.81354 6.11361 0.25
517 7.2465 5.29779 4.39526 0.25
518 0.930376 3.57999 4.61578 0.25
519 6.60436 1.86977 1.54946 0.25
520 7.07625 2.48382 6.41404 0.25
521 7.68493 1.6517 0.154953 0.25
522 6.87997 1.05386 7.63788 0.25
523 5.10968 6.88151 5.93331 0.25
524 2.77934 0.470716 7.61307 0.25
525 6.37049 4.16288 7.23351 0.25
526 7.1221 5.24458 6.83556 0.25
527 7.3204 8.02387 4.22308 0.25
528 7.57317 1.53158 6.56971 0.25
529 6.70283 1.11501 2.69569 0.25
530 2.07473 1.85394 6.47699 0.25
531 7.73632 7.8242 3.98696 0.25
532 1.56387 1.01516 3.08875 0.25
533 7.35871 1.14281 7.78607 0.25
534 8.06494 5.74596 1.55907 0.25
535 0.354943 3.28855 5.43835 0.5
536 6.95248 2.78788 6.01987 0.25
537 4.01897 0.957533 5.96539 0.25
538 6.42411 5.09683 4.6047 0.25
539 2.26397 1.41214 6.44375 0.25
540 8.05649 6.32962 2.04926 0.5
541 7.57494 3.89203 1.67422 0.25
542 2.05017 1.98406 7.85777 0.25
543 3.29253 7.29206 7.00408 0.25
544 7.87856 6.4122 6.63498 0.25
545 1.22919 6.12564 3.97223 0.25
546 5.21192 5.71682 6.15721 0.25
547 5.24272 2.20744 7.77792 0.25
548 6.42064 7.19148 6.5932 0.25
549 0.190682 7.84062 7.08679 0.25
550 6.32098 7.02762 0.0438357 0.25
551 4.37217 1.37826 2.68759 0.25
552 3.66842 5.46646 3.88501 0.25
553 7.01927 7.74757 3.63284 0.5
554 4.38544 6.45174 3.01654 0.25
555 4.84053 6.65636 3.59554 0.5
556 7.42404 0.586616 0.888327 0.25
557 7.1962 4.8283 3.84161 0.5
558 6.41961 8.19778 3.4509 0.25
559 1.33129 0.516453 5.61691 0.5
560 5.03119 3.34613 2.17605 0.25
561 2.91143 3.23035 4.07857 0.25
562 5.00619 0.0938903 5.58404 0.25
563 2.25016 6.57241 1.53516 0.25
564 6.26077 6.92874 0.757856 0.5
565 6.90593 2.0319 6.65895 0.25
566 1.11859 1.60769 2.43455 0.25
567 4.67923 5.68659 6.13116 0.25
568 5.85456 1.06991 2.95642 0.25
569 2.53429 8.18781 7.94551 0.25
570 1.77413 6.62845 4.69334 0.25
571 2.82031 4.19003 7.68063 0.25
572 8.14694 2.8459 3.78331 0.5
573 3.94019 1.62086 2.66802 0.25
574 1.59095 5.95548 6.25516 0.25
575 2.19843 1.63411 8.15555 0.25
576 4.23644 5.61196 7.63011 0.25
577 5.28155 0.382555 5.30218 0.25
578 1.95959 7.45986 3.88283 0.25
579 7.42455 5.19135 7.63901 0.25
580 7.31688 0.216244 4.66233 0.5
581 4.51859 4.57464 5.92289 0.25
582 5.8925 2.94776 4.45045 0.25
583 5.73619 3.66972 4.65236 0.5
584 4.83041 6.49247 6.04984 0.25
585 4.76389 3.17865 1.32835 0.25
586 1.89927 0.371772 2.7183 0.5
587 4.94804 7.05578 2.5833 0.25
588 5.71303 5.17775 3.23193 0.25
589 0.100078 2.45106 7.75291 0.25
590 3.48739 6.50775 1.8435 0.25
591 6.89885 1.25225 1.06641 0.25
592 7.43204 7.13154 1.64309 0.5
593 6.75288 6.77937 1.39795 0.25
594 1.51681 4.99681 0.240598 0.5
595 0.705351 3.77636 8.01923 0.25
596 2.2601 0.745314 0.657442 0.25
597 0.0722657 0.213798 5.12379 0.5
598 2.45945 6.23588 1.27164 0.25
599 2.04744 8.16169 7.84805 0.25
600 7.94258 0.657936 5.50664 0.25
601 0.617089 0.729972 5.31542 0.25
602 3.92687 0.167709 2.22483 0.25
603 4.30215 5.56062 8.11384 0.25
604 7.51569 5.10278 7.10875 0.25
605 7.9179 2.1186 3.64134 0.25
606 2.1681 8.19092 2.20291 0.25
607 4.49585 5.18759 7.8449 0.25
608 3.53464 7.6587 7.25095 0.25
609 6.58315 4.80045 4.25065 0.25
610 1.83267 1.51016 5.72239 0.25
611 3.09635 0.598982 7.99183 0.25
612 0.675614 7.2862 0.146081 0.25
613 7.041 1.10142 8.16045 0.25
614 4.31502 1.24028 5.21114 0.25
615 4.96859 2.58494 3.58155 0.25
616 1.18729 5.54839 3.10267 0.25
617 1.70478 0.0275613 2.10561 0.25
618 7.50882 7.2558 4.36734 0.5
619 7.79614 8.02526 4.45698 0.25
620 8.29347 7.27828 2.39795 0.5
621 4.2 6.54286 3.8928 0.25
622 6.25147 6.77878 5.83085 0.25
623 5.97904 6.15839 0.364178 0.25
624 1.10276 3.39583 5.58361 0.25
625 1.34009 5.36606 7.94597 0.25
626 3.30018 0.31215 1.59074 0.25
627 4.93902 4.64024 1.9461 0.25
628 8.06755 3.41483 2.51818 0.5
629 6.82945 3.29866 8.33676 0.25
630 1.50558 0.0621228 3.20915 0.25
631 1.88564 1.50019 7.8682 0.25
632 7.73493 7.87315 1.75461 0.25
633 6.14705 7.71104 0.538706 0.25
634 2.93416 7.91845 3.99837 0.25
635 0.791979 7.27294 0.941047 0.5
636 1.70717 1.44542 1.06693 0.25
637 5.34701 0.38701 5.83081 0.25
638 4.72796 1.35825 5.33981 0.25
639 4.61533 1.89233 0.0871557 0.25
640 5.24254 7.46327 0.432245 0.25
641 1.25115 6.67309 5.35884 0.25
642 3.52469 0.886401 5.68249 0.25
643 6.03612 7.19042 5.63147 0.25
644 5.74851 0.635177 2.69256 0.25
645 2.19948 2.0671 1.50665 0.25
646 8.38296 6.61216 6.62993 0.25
647 2.4393 3.03322 4.10294 0.25
648 5.22927 1.19442 0.0820477 0.25
649 0.352363 4.16405 1.98151 0.25
650 8.31575 3.68471 1.4203 0.25
651 3.26336 3.20566 3.72987 0.25
652 6.72377 0.863963 7.1818 0.25
653 1.25704 6.63272 0.95953 0.25
654 0.547607 2.55269 0.135408 0.25
655 3.66585 3.60595 6.24056 0.5
656 0.623278 3.51945 7.26259 0.25
657 1.46905 5.5278 5.97677 0.25
658 6.79407 0.0524183 3.6685 0.25
659 2.55424 1.8643 7.88596 0.25
660 6.88803 5.93524 3.99669 0.5
661 8.31084 1.17508 0.0948122 0.25
662 3.98188 4.84657 4.20029 0.25
663 2.49553 3.61546 1.82312 0.25
664 6.58356 2.64411 4.81919 0.25
665 7.80907 3.72323 1.28585 0.25
666 6.29249 6.76113 6.29139 0.25
667 6.39045 3.38183 0.118691 0.25
668 7.01891 6.48762 1.73872 0.25
669 5.89365 4.85217 7.11741 0.25
670 5.88091 8.27442 5.23426 0.25
671 3.52511 4.95125 4.50714 0.25
672 2.64891 3.153 2.07706 0.25
673 0.745198 1.17994 3.27447 0.25
674 4.85605 7.37769 3.31826 0.25
675 5.40992 3.69239 5.29473 0.25
676 7.65245 8.14637 2.18263 0.25
677 6.50715 1.41692 1.37783 0.25
678 7.44463 6.13853 4.58492 0.25
679 1.10282 6.215 1.12218 0.25
680 3.79524 6.73618 7.9959 0.25
681 7.68939 8.33626 4.10474 0.25
682 2.12795 6.13452 1.71106 0.25
683 1.60722 7.58263 7.15652 0.25
684 0.372881 3.76179 1.67168 0.25
685 3.08064 3.92541 6.5129 0.25
686 3.87287 2.78535 7.00154 0.25
687 1.60143 4.46743 0.815449 0.25
688 3.53475 0.900051 6.16298 0.25
689 6.12389 4.18463 8.08522 0.25
690 6.18428 0.952305 2.62068 0.25
691 6.95456 1.51015 1.52838 0.25
692 5.22295 5.03897 1.88672 0.25
693 7.35297 2.03365 6.49238 0.25
694 7.4492 4.85662 4.55909 0.25
695 8.09285 3.22081 5.89897 0.25
696 5.6109 5.95194 3.17113 0.5
697 4.45709 3.72808 6.00092 0.25
698 1.92113 1.02369 5.55972 0.25
699 1.39822 6.85356 4.8851 0.25
700 4.29454 5.85353 1.08073 0.25
701 4.66274 1.59819 8.0183 0.25
702 2.31246 4.40764 7.29575 0.25
703 3.45823 6.59382 7.34021 0.5
704 4.70969 5.32766 8.30908 0.25
705 4.89915 3.17113 1.74807 0.25
706 5.06429 0.192746 0.146006 0.25
707 4.60105 3.91026 1.15503 0.5
708 5.76121 7.6699 7.83956 0.25
709 2.5622 7.11486 2.02342 0.5
710 2.09884 4.64346 6.90709 0.25
711 5.21671 6.46616 2.9241 0.25
712 0.563492 5.15499 8.04816 0.25
713 2.67107 4.0317 1.72016 0.25
714 5.18965 4.19033 0.731206 0.25
715 4.75837 6.63647 2.82505 0.25
716 6.78491 0.544216 7.55198 0.25
717 7.74279 7.59127 3.56338 0.25
718 6.09702 3.64873 6.63931 0.25
719 6.19314 4.59061 7.83919 0.25
720 1.69236 7.63225 4.24549 0.25
721 6.73017 1.97827 2.5356 0.25
722 2.42565 7.70804 3.38062 0.5
723 2.51225 7.5759 2.6484 0.25
724 7.12081 6.46069 1.28012 0.25
725 7.73531 6.35283 7.14952 0.25
726 0.998794 1.11341 5.42888 0.25
727 4.10341 0.261288 1.44053 0.25
728 3.8043 6.22934 7.94346 0.25
729 4.88194 5.90433 3.43534 0.25
730 2.93968 7.09026 7.24651 0.25
731 5.57505 3.00416 2.64865 0.25
732 3.73492 3.61099 7.00008 0.25
733 3.73199 5.5458 7.54907 0.25
734 3.98234 1.12144 2.5782 0.25
735 3.25408 3.0759 6.55807 0.25
736 7.89608 1.37894 8.25005 0.25
737 3.48617 0.652513 1.30042 0.25
738 0.402416 8.22351 0.450643 0.25
739 4.81568 6.16762 2.99957 0.25
740 5.35523 7.21489 3.3075 0.25
741 0.253072 7.82188 0.722189 0.25
742 4.03372 4.6102 5.97581 0.25
743 7.08747 0.791618 1.21926 0.25
744 4.36917 0.985934 2.34743 0.25
745 3.79384 4.21383 5.78234 0.25
746 1.23295 6.10102 4.77162 0.5
747 4.35648 0.451388 2.18002 0.25
748 2.76982 6.59968 7.08836 0.25
749 1.44498 1.25198 2.24342 0.25
750 0.113689 3.4023 1.80842 0.25
751 0.963338 0.811553 5.00146 0.25
752 6.13898 5.01852 7.56547 0.25
753 3.84185 0.758667 1.87372 0.5
754 4.29552 5.95019 1.51951 0.25
755 2.79592 2.51329 1.50365 0.5
756 7.70579 6.81479 7.311 0.25
757 5.54385 7.08893 5.76362 0.25
758 6.76832 3.97525 7.39635 0.25
759 4.46306 0.0710012 4.94236 0.25
760 0.308073 2.55119 3.25944 0.25
761 3.78338 7.28073 7.04736 0.25
762 0.631488 1.84598 3.42501 0.5
763 3.95863 8.09109 2.02103 0.25
764 1.55798 6.58323 0.570745 0.25
765 7.3731 4.85512 3.12746 0.25
766 0.652858 4.48671 2.26754 0.25
767 2.64376 6.82022 7.47413 0.25
768 2.20668 2.96204 5.06237 0.25
769 7.94772 3.60393 1.78195 0.25
770 4.83235 0.941091 8.25236 0.25
771 6.80408 1.26522 6.23778 0.25
772 4.86425 2.48145 7.9949 0.25
773 5.5116 1.10566 5.45866 0.5
774 3.63237 8.22272 5.02023 0.25
775 7.93068 4.47248 2.73588 0.5
776 6.85809 3.81625 0.556094 0.5
777 6.06487 6.62562 0.10152 0.25
778 4.87076 8.09397 0.0327809 0.25
779 8.10748 8.11717 4.1224 0.25
780 2.19728 1.69514 6.03754 0.25
781 2.66438 1.66126 8.33657 0.25
782 1.15377 7.95675 0.614615 0.25
783 6.74214 3.15297 0.452756 0.25
784 2.13391 7.69396 2.31496 0.25
785 2.55522 1.81702 6.39976 0.25
786 2.56144 7.86576 2.25513 0.25
787 7.95604 6.88411 6.54527 0.25
788 -0.000798292 4.03405 2.33833 0.25
789 3.60309 0.12032 4.61395 0.25
790 7.11047 0.881902 6.88141 0.25
791 0.629045 4.61993 3.03965 0.5
792 2.41934 0.189561 7.76195 0.25
793 8.2005 6.99487 1.66358 0.25
794 5.61277 6.37252 6.1793 0.5
795 2.45195 4.14248 3.10139 0.25
796 2.12334 5.89948 5.66277 0.25
797 6.73143 6.42273 1.01564 0.25
798 7.68139 4.2239 1.2519 0.25
799 4.20711 3.05476 6.36135 0.25
800 7.94107 2.06053 3.18258 0.25
801 3.17705 7.78794 6.89021 0.25
802 3.31882 5.39583 4.34929 0.25
803 3.11411 8.258 7.53725 0.5
804 3.63018 6.96641 1.72887 0.25
805 1.81517 7.90025 2.06669 0.25
806 2.70493 1.83879 3.8002 0.25
807 4.58915 6.30952 5.71069 0.25
808 4.27143 2.01138 8.06012 0.25
809 1.6764 5.93184 5.8003 0.25
810 6.53923 7.65465 6.3389 0.25
811 1.55192 3.17922 4.81655 0.5
812 5.70117 7.43455 0.506286 0.25
813 4.26877 1.76379 3.00996 0.25
814 1.53106 7.4686 7.61135 0.25
815 2.79021 8.10924 4.44105 0.25
816 0.973481 2.98087 5.24459 0.25
817 4.30787 1.54547 8.33137 0.25
818 3.81646 1.70046 3.1719 0.25
819 1.83414 5.30009 1.30436 0.25
820 3.02902 3.13562 6.96806 0.25
821 1.55448 1.97481 0.0462521 0.5
822 5.81225 4.39619 3.33337 0.5
823 4.97211 0.483749 8.07694 0.25
824 0.797609 0.341905 5.1326 0.25
825 3.91947 5.99931 7.57796 0.25
826 3.23071 3.46847 1.70869 0.5
827 5.89442 7.13971 6.50381 0.25
828 0.483751 2.11428 7.66358 0.25
829 8.25113 8.07942 4.62875 0.25
830 0.828949 1.93206 2.60785 0.25
831 2.34229 4.18819 7.76985 0.25
832 5.83273 4.49357 1.94835 0.25
833 1.79779 1.49918 6.23385 0.25
834 4.10394 0.609033 2.51354 0.25
835 6.12612 1.72745 1.47558 0.25
836 3.33676 7.57863 7.70917 0.25
837 3.98586 5.26001 7.86616 0.25
838 7.55433 0.846874 1.29753 0.25
839 6.06093 7.60416 6.44535 0.25
840 6.90708 4.70783 7.3938 0.5
841 3.24996 6.89835 2.02331 0.25
842 0.100461 2.00276 2.73069 0.5
843 5.89626 3.83971 5.3924 0.25
844 5.01037 2.7194 0.0433978 0.25
845 7.41609 2.71217 5.18804 0.25
846 3.34276 3.55682 7.57394 0.5
847 1.97508 5.28814 0.787735 0.25
848 1.74244 5.90634 5.30423 0.25
849 5.15759 7.89287 2.767 0.25
850 6.36035 2.79323 5.5219 0.5
851 5.53528 0.0195736 5.55293 0.25
852 6.99245 1.5313 7.90144 0.25
853 4.03895 8.26891 4.71473 0.25
854 4.34039 1.64794 5.94051 0.5
855 0.394343 4.04449 5.28793 0.25
856 0.729775 5.31338 3.14897 0.25
857 3.647 6.56931 1.43021 0.25
858 2.56403 4.8012 3.64784 0.25
859 6.39171 4.51251 3.86378 0.25
860 7.65353 3.9472 0.836048 0.25
861 4.88672 2.9725 8.01374 0.25
862 6.51061 4.71512 3.41732 0.25
863 5.51364 6.55522 0.814793 0.25
864 7.62558 6.98628 2.35461 0.25
865 3.83334 5.72892 7.99986 0.25
866 5.01656 8.11547 3.14134 0.25
867 1.98104 4.03209 7.51615 0.25
868 2.31484 1.59071 0.557335 0.5
869 0.999668 3.24152 7.28954 0.25
870 6.10273 5.45536 3.12808 0.25
871 2.82163 7.43456 6.85027 0.25
872 5.81481 3.05862 5.00232 0.25
873 0.418248 8.10582 8.31594 0.25
874 3.77785 1.25464 6.36622 0.25
875 2.1376 4.17866 1.26465 0.5
876 1.36295 5.73522 5.54052 0.25
877 0.0440954 5.15024 7.92829 0.25
878 5.74574 1.0288 2.39808 0.25
879 3.19076 8.1972 4.73908 0.25
880 6.41765 6.05457 3.00121 0.25
881 7.27635 1.19835 1.36011 0.25
882 7.8133 7.14036 6.96528 0.25
883 0.505389 4.04275 2.47551 0.25
884 7.12569 3.14533 0.772154 0.25
885 0.816751 4.26413 5.13232 0.25
886 8.03176 7.42384 3.13686 0.25
887 0.908706 6.64109 1.32381 0.25
888 1.06787 4.71618 3.63907 0.25
889 1.39243 8.10311 2.8338 0.25
890 0.225901 4.44099 2.41716 0.25
891 0.855704 2.44705 7.69594 0.25
892 7.46459 3.47295 0.957991 0.25
893 0.726763 7.93799 0.728213 0.25
894 3.91451 5.74556 1.35414 0.25
895 3.79514 5.87995 0.883741 0.25
896 1.84127 1.28555 8.31901 0.25
897 8.03358 4.05359 1.60031 0.25
898 0.627539 4.6743 3.88266 0.25
899 0.89075 0.0367686 5.91336 0.25
900 5.11034 6.38267 5.71055 0.25
901 0.892606 1.52754 2.85847 0.25
902 7.30441 3.87353 1.19855 0.25
903 5.81258 3.66888 3.24493 0.25
904 6.8962 4.01912 7.85111 0.25