ITEM: TIMESTEP
40000
ITEM: NUMBER OF ATOMS
1000
ITEM: BOX BOUNDS xy xz yz pp pp pp
0.0000000000000000e+00 8.3788359999999997e+00 0.0000000000000000e+00
0.0000000000000000e+00 8.3788359999999997e+00 0.0000000000000000e+00
0.0000000000000000e+00 8.3788359999999997e+00 0.0000000000000000e+00
ITEM: ATOMS id x y z radius
1 2.91945 7.173 4.47613 0.25
2 4.5492 5.00991 5.18587 0.25
3 7.26601 4.93388 3.7034 0.25
4 7.36334 0.467453 6.29005 0.5
5 1.14764 6.0133 6.07778 0.25
6 0.403289 1.82275 3.1616 0.25
7 4.22342 3.49009 6.70975 0.25
8 4.81508 8.03244 3.12542 0.25
9 0.919659 6.4105 3.82371 0.25
10 4.57874 2.00942 3.28849 0.25
11 4.95744 0.100819 0.214945 0.25
12 5.30097 3.34267 2.16166 0.25
13 8.15399 2.43477 6.73675 0.25
14 3.95133 2.80007 6.97996 0.25
15 0.0933944 2.34576 5.50457 0.25
16 7.03088 8.31779 6.6967 0.25
17 0.635539 4.71061 7.80416 0.25
18 5.73734 7.26082 8.09047 0.25
19 4.41508 1.9632 7.76737 0.25
20 7.39969 1.57132 0.574632 0.25
21 5.01438 4.13751 2.32141 0.25
22 3.96423 3.58934 1.51883 0.25
23 2.15712 3.31839 1.79422 0.25
24 3.31626 1.6794 4.209 0.25
25 1.7433 4.39465 2.7382 0.25
26 0.322658 0.0242218 6.09339 0.25
27 3.86995 1.2847 6.17973 0.25
28 4.57535 2.31803 0.185961 0.25
29 5.11531 7.09031 3.09515 0.25
30 7.14135 7.43429 2.60606 0.25
31 2.99411 0.704065 7.7401 0.25
32 0.719746 2.32153 6.83509 0.25
33 7.75983 0.258467 5.58861 0.25
34 1.61246 4.7983 0.999296 0.25
35 8.27103 0.273124 4.41583 0.25
36 7.29612 1.31629 5.69821 0.5
37 4.57848 0.904152 2.05171 0.25
38 2.27478 3.33476 4.2823 0.25
39 6.51429 2.57986 5.114 0.25
40 4.60156 0.102762 3.2249 0.25
41 6.7541 2.61529 2.91352 0.25
42 5.38191 5.99765 5.86269 0.25
43 3.02509 8.21264 4.30063 0.25
44 3.70274 0.842849 6.19325 0.25
45 5.84212 4.23737 4.62377 0.25
46 3.71416 5.72976 1.56493 0.5
47 4.80193 0.772503 5.24155 0.25
48 7.60939 6.79689 6.94633 0.25
49 7.45273 7.2302 4.82621 0.25
50 7.59572 1.14172 0.873979 0.25
51 2.72694 3.41431 4.21183 0.25
52 1.03324 1.81886 2.49304 0.25
53 6.23499 5.02605 6.6162 0.25
54 6.09764 3.83726 4.85243 0.25
55 1.61248 1.41837 5.76743 0.25
56 0.681078 7.71818 0.0933387 0.25
57 4.87018 0.532322 1.99309 0.25
58 2.55139 2.11465 4.12668 0.25
59 5.60522 1.5856 5.37322 0.25
60 0.632667 5.60153 5.58395 0.25
61 5.45188 0.287708 0.0196665 0.25
62 5.42745 1.67881 8.00956 0.5
63 7.84634 6.49158 1.53031 0.25
64 1.06721 5.58146 0.495462 0.25
65 3.74624 8.27083 1.95511 0.25
66 2.3112 4.41092 6.8532 0.25
67 7.32577 4.59662 7.09618 0.25
68 6.97456 8.2311 6.20548 0.25
69 0.0895155 5.07573 7.1809 0.25
70 1.86838 4.20378 0.314484 0.25
71 7.73528 1.70474 0.241751 0.25
72 6.39495 6.52301 3.72159 0.25
73 0.561651 7.24767 6.56051 0.25
74 7.02948 5.33073 6.62205 0.25
75 7.32631 0.485071 3.29167 0.25
76 7.51267 6.91977 4.44088 0.25
77 6.13287 2.43258 5.44489 0.25
78 5.41009 3.64679 1.78933 0.25
79 8.03727 5.93388 5.27218 0.25
80 6.23517 3.19999 5.84656 0.25
81 6.79807 1.59228 1.21942 0.25
82 0.212794 2.70068 5.07324 0.25
83 4.24659 5.87917 5.35141 0.25
84 1.22155 1.03537 5.76461 0.25
85 1.81271 1.33981 5.34553 0.25
86 4.0089 0.430717 6.2299 0.25
87 2.33635 1.59426 1.10436 0.25
88 3.29947 6.28737 1.67531 0.25
89 6.57059 7.34222 0.868707 0.25
90 5.35249 6.38156 5.56411 0.25
91 3.79141 4.33625 6.17193 0.25
92 5.83895 4.53098 7.29305 0.25
93 5.0023 6.44462 5.16921 0.25
94 6.81665 7.97834 4.3252 0.25
95 0.30304 4.27099 7.29118 0.5
96 5.55693 3.35388 4.02889 0.5
97 4.10016 4.58482 8.06651 0.25
98 0.533726 2.31313 3.26382 0.25
99 1.67235 6.57688 5.69217 0.25
100 7.03938 7.29348 1.0758 0.25
101 0.241579 0.135511 0.507229 0.25
102 8.02403 5.18305 3.98972 0.25
103 6.65358 1.46421 1.68193 0.25
104 0.542447 4.94906 7.2783 0.25
105 5.01568 5.65222 5.24921 0.5
106 4.33804 8.39998 5.00311 0.25
107 3.82016 3.8019 6.95236 0.25
108 4.74703 1.41948 8.32461 0.25
109 0.633395 0.259816 6.44181 0.25
110 2.22705 7.97809 0.0716183 0.25
111 2.98133 3.49187 6.33753 0.25
112 4.74151 2.14641 8.10856 0.25
113 2.42545 1.82162 1.74123 0.5
114 1.56528 3.92682 6.51405 0.25
115 4.26535 6.41956 5.95445 0.25
116 2.8205 6.23977 7.44172 0.25
117 4.27412 2.46249 3.83214 0.5
118 6.7128 7.56749 1.3096 0.25
119 0.561013 5.67747 2.02541 0.25
120 0.387806 2.93994 2.17159 0.25
121 3.18473 4.01988 3.41711 0.25
122 6.64465 0.120032 6.45626 0.25
123 5.10661 0.395706 5.33922 0.25
124 7.83506 8.00908 2.35988 0.25
125 3.58859 2.06862 3.98147 0.25
126 4.38825 1.97384 5.704 0.25
127 5.3577 3.78816 2.26329 0.25
128 6.61614 5.24873 6.84484 0.25
129 1.10775 6.50105 4.26769 0.25
130 5.42941 5.90056 0.825073 0.25
131 6.9919 1.089 6.33732 0.25
132 5.96323 4.16691 7.64653 0.25
133 3.31897 1.82443 3.6832 0.25
134 4.32674 2.71098 0.0572397 0.25
135 5.6668 4.01389 4.17978 0.25
136 2.95049 2.43255 3.538 0.5
137 2.52777 4.18005 2.92016 0.25
138 7.31145 8.12032 2.90632 0.5
139 2.29867 7.63176 4.7753 0.25
140 5.84858 8.20297 7.82729 0.25
141 0.767936 5.72106 6.0566 0.25
142 0.762798 5.08649 3.08386 0.25
143 1.78888 1.83191 8.33859 0.25
144 5.05071 1.03577 2.61152 0.5
145 7.55784 2.36145 3.86409 0.25
146 5.75065 7.2615 0.188606 0.25
147 6.13296 6.29631 4.57441 0.25
148 2.07252 3.08192 3.88748 0.25
149 4.22858 8.26376 2.60786 0.5
150 5.15051 3.05866 4.57475 0.25
151 3.41098 5.78004 7.61698 0.25
152 3.39479 4.635 5.46901 0.25
153 6.85142 6.20946 2.62924 0.5
154 7.48434 2.22112 4.59484 0.5
155 3.0857 7.6341 7.98243 0.25
156 7.77491 3.89387 1.26157 0.25
157 7.49863 6.16439 1.53646 0.25
158 2.54742 3.68106 0.652104 0.25
159 7.13041 0.00560213 4.3945 0.25
160 6.70895 2.09964 2.95335 0.25
161 0.482867 5.12259 2.7103 0.25
162 6.10524 3.64034 7.65589 0.25
163 3.42596 3.6184 3.99097 0.5
164 2.1925 3.96635 2.2493 0.5
165 5.90932 0.102649 8.26414 0.25
166 0.087076 3.53472 7.17617 0.25
167 6.61927 4.66132 0.442044 0.25
168 4.51081 6.03948 5.729 0.25
169 3.83636 4.64423 5.7515 0.25
170 0.517626 2.70865 5.47135 0.25
171 7.83454 6.09059 1.20663 0.25
172 1.04321 2.40909 6.46899 0.25
173 4.16359 6.34382 5.49469 0.25
174 2.85778 2.36766 0.822243 0.25
175 7.80495 1.89435 6.29046 0.5
176 2.3605 6.5993 6.36946 0.25
177 5.63968 3.83646 4.65859 0.25
178 2.99226 5.87467 1.80669 0.25
179 3.71353 2.13462 3.47427 0.25
180 5.61529 6.13042 6.33638 0.25
181 6.67639 3.89479 7.07587 0.25
182 3.03755 5.2591 3.18902 0.25
183 7.18817 7.75359 1.28701 0.25
184 4.31674 4.83344 0.0602376 0.25
185 5.65668 6.61269 6.23744 0.25
186 7.5048 6.45023 4.69048 0.25
187 3.20264 5.23929 4.04667 0.25
188 0.763188 5.9866 2.75661 0.25
189 4.22594 6.72485 3.5542 0.25
190 4.25039 3.18622 1.49354 0.25
191 6.61617 1.63023 0.491984 0.5
192 0.955234 4.70525 7.38271 0.25
193 4.88517 5.26935 1.52363 0.25
194 2.57593 5.8571 1.45487 0.25
195 6.31511 5.77293 3.02922 0.25
196 1.85919 7.33994 2.21179 0.25
197 1.11573 0.444116 1.86872 0.25
198 7.14471 4.47339 7.59251 0.25
199 1.27091 0.876951 2.64545 0.25
200 4.60746 4.70347 1.97207 0.5
201 6.96163 1.65754 3.05047 0.25
202 0.32244 4.18313 5.35087 0.25
203 4.10166 2.25749 3.14717 0.25
204 5.42361 7.88338 8.32832 0.5
205 2.27607 7.50839 4.04891 0.5
206 0.624109 4.90931 5.02735 0.25
207 5.92076 3.44682 4.6623 0.25
208 6.90504 5.7505 4.79768 0.25
209 5.1644 6.96464 0.594825 0.5
210 1.70225 7.7329 2.46519 0.25
211 0.709398 3.96588 4.75861 0.25
212 1.46622 7.74699 0.27704 0.5
213 8.11478 4.30041 3.29899 0.25
214 1.5366 7.63129 2.00835 0.25
215 2.97989 4.24532 3.80669 0.25
216 6.4136 2.38672 2.60518 0.25
217 5.03014 3.66449 2.54024 0.25
218 2.16537 2.8875 4.29385 0.25
219 4.37937 1.4747 2.60381 0.25
220 3.76481 3.11122 1.58782 0.25
221 4.17392 0.917612 6.37756 0.25
222 7.37058 0.543123 5.55391 0.25
223 8.27744 2.81822 2.36457 0.25
224 6.99448 5.31766 7.11923 0.25
225 6.88865 1.95134 5.547 0.25
226 4.90249 2.09404 7.66864 0.25
227 6.63317 3.66169 7.60192 0.25
228 5.4687 3.41278 4.80569 0.25
229 5.82233 5.00196 2.33916 0.25
230 0.416234 8.01835 6.7486 0.5
231 5.52277 4.42593 1.88842 0.5
232 2.46579 2.95353 3.54907 0.25
233 4.04927 4.99108 3.85822 0.25
234 6.36136 0.407589 6.76443 0.25
235 2.99778 7.65813 4.27199 0.25
236 0.475397 2.12133 7.68027 0.25
237 0.0419477 3.75352 6.74236 0.25
238 3.58836 0.479058 1.18104 0.25
239 0.44136 1.97579 3.64645 0.25
240 6.67745 6.56099 1.15025 0.25
241 3.37963 7.18457 8.13172 0.25
242 1.36253 7.04445 2.54464 0.5
243 2.66241 4.88565 3.27619 0.25
244 7.42285 4.18528 1.52583 0.25
245 2.15573 0.966773 6.20248 0.25
246 7.58296 0.26572 3.68049 0.25
247 3.73964 2.57947 3.27903 0.25
248 3.94442 2.8167 1.23001 0.25
249 7.84713 4.46989 7.20097 0.25
250 0.745368 3.02634 4.46615 0.25
251 5.84619 2.73058 4.8743 0.5
252 3.49582 2.52134 4.19258 0.25
253 7.70486 5.25943 7.07376 0.5
254 7.17011 6.62047 7.13485 0.25
255 5.12069 1.07553 5.72208 0.5
256 5.87908 6.10123 0.880834 0.25
257 0.802001 0.294283 2.23158 0.25
258 1.86237 1.54329 2.17899 0.25
259 4.31911 3.0548 0.969863 0.25
260 8.30677 6.19752 1.37383 0.25
261 3.64422 0.0912857 0.761153 0.25
262 3.59706 2.49518 3.75615 0.25
263 2.46698 0.246884 8.02687 0.5
264 2.79804 4.39006 3.32532 0.25
265 1.24631 3.39432 6.98272 0.5
266 1.28621 7.98033 7.20074 0.5
267 4.76021 2.59959 8.24187 0.25
268 5.85334 6.82402 7.90712 0.25
269 1.79332 4.67746 0.0626047 0.25
270 3.96724 3.34629 1.9161 0.25
271 7.03818 7.99359 4.77004 0.25
272 1.42491 0.795327 2.12877 0.25
273 1.36631 2.70087 6.65602 0.25
274 0.799458 5.11713 7.6721 0.25
275 5.06992 4.85444 1.36087 0.25
276 2.60839 3.17504 0.73804 0.25
277 6.51701 8.29083 6.88249 0.25
278 4.16373 6.34992 1.69076 0.25
279 4.08366 0.871486 5.61743 0.5
280 8.28383 8.31369 4.78164 0.25
281 0.730553 5.8217 0.241115 0.25
282 6.04593 6.85365 6.38851 0.25
283 1.07029 0.0412662 6.63554 0.25
284 7.76811 4.91137 1.08498 0.25
285 1.61589 5.87257 0.856234 0.5
286 5.39497 6.71195 3.04652 0.25
287 1.45993 8.03541 3.10215 0.5
288 2.79496 7.55837 4.71621 0.25
289 2.45187 7.37173 5.11612 0.25
290 1.91879 3.74262 1.62127 0.25
291 0.261142 7.25881 7.54498 0.25
292 7.85519 2.71884 3.66143 0.25
293 7.77667 4.85792 3.74893 0.25
294 6.05398 3.86934 3.88731 0.25
295 8.46348 2.733 0.921612 0.25
296 0.555888 4.56303 4.30734 0.5
297 3.85318 3.32299 6.93455 0.25
298 6.16271 5.26566 7.04429 0.25
299 5.48904 4.86091 7.29935 0.25
300 6.44523 4.40361 0.838013 0.25
301 0.865678 8.19874 0.0840692 0.25
302 0.42292 2.84674 1.21938 0.25
303 3.95043 0.158473 1.13913 0.25
304 2.16425 2.42581 4.35967 0.25
305 1.23539 5.25646 7.58855 0.25
306 2.37606 2.05946 4.61862 0.25
307 1.72193 4.77786 7.23759 0.5
308 3.53263 5.9756 3.18929 0.25
309 4.5618 1.26558 5.26216 0.25
310 1.0085 5.05244 3.95933 0.25
311 7.35226 0.410614 4.13656 0.25
312 0.782519 1.07729 2.13775 0.5
313 1.10105 3.70243 4.85001 0.25
314 5.63605 4.02116 3.67581 0.25
315 1.61249 4.70214 7.97395 0.25
316 1.69834 3.99715 6.97011 0.25
317 8.04358 2.40583 4.07782 0.25
318 2.35741 2.59808 3.90405 0.25
319 4.50557 7.03895 0.257916 0.25
320 2.08933 6.47767 5.95519 0.25
321 3.90509 8.18076 1.46105 0.25
322 7.29095 6.9494 5.25474 0.25
323 1.00387 6.01238 4.17149 0.25
324 4.1469 7.08707 7.96835 0.5
325 0.52896 1.72959 8.38825 0.25
326 3.82732 4.94608 4.94488 0.5
327 7.1092 7.75576 3.53387 0.25
328 2.33037 7.09007 1.583 0.25
329 1.23405 5.78313 2.74536 0.25
330 0.097264 6.83874 7.28822 0.25
331 0.952963 5.65897 3.48542 0.5
332 7.0442 6.62344 2.09031 0.25
333 1.64525 1.77775 1.7962 0.25
334 6.43244 1.91146 1.78302 0.25
335 3.846 3.02071 0.743685 0.25
336 3.232 6.07749 7.23772 0.25
337 4.41778 7.32264 3.08739 0.5
338 5.26135 7.18539 8.2923 0.25
339 2.20712 7.89444 3.3289 0.25
340 4.43575 0.437239 5.18177 0.25
341 6.8624 0.292715 3.05909 0.25
342 1.03962 5.13709 7.14814 0.25
343 2.9783 1.23992 0.0222938 0.25
344 0.774262 5.27602 2.28274 0.25
345 0.661119 1.58031 2.75447 0.25
346 0.215415 2.38979 7.95626 0.25
347 3.44325 5.79803 8.12758 0.25
348 6.99371 7.83816 2.25276 0.25
349 0.593624 2.12493 8.14311 0.25
350 6.85384 2.31212 2.48261 0.25
351 1.87563 7.10855 0.144372 0.25
352 6.48642 4.32052 8.10638 0.5
353 2.70194 7.89819 8.17407 0.25
354 1.96837 0.642992 5.84626 0.25
355 0.808135 8.25993 6.15044 0.25
356 2.09549 1.59094 5.69624 0.25
357 3.15354 3.1742 5.96097 0.25
358 6.53346 3.31727 5.51988 0.25
359 5.35115 1.78495 5.77634 0.25
360 2.06343 1.94963 1.0402 0.25
361 0.76221 0.0344775 0.545508 0.25
362 6.37493 3.18954 7.63967 0.25
363 7.79257 3.90317 3.31815 0.25
364 5.93136 3.83056 8.09573 0.25
365 5.1359 6.00826 0.405982 0.25
366 4.94575 5.71076 0.742003 0.25
367 2.20212 4.44468 6.35445 0.25
368 6.99465 4.39279 0.297384 0.25
369 0.781175 7.40167 0.507159 0.25
370 5.13753 0.573256 0.123161 0.25
371 1.96186 8.05967 3.71297 0.25
372 2.09014 3.74728 0.386641 0.25
373 7.33554 2.45339 5.31122 0.25
374 3.34147 4.32737 4.19967 0.25
375 4.77315 0.730826 7.8176 0.25
376 2.13021 5.56815 1.3583 0.25
377 6.42961 1.61413 2.45052 0.5
378 0.477506 3.54985 6.94411 0.25
379 4.82193 1.25708 7.82344 0.25
380 2.49765 7.15903 4.6588 0.25
381 3.22614 5.11059 5.34447 0.25
382 2.02045 7.24781 4.76703 0.25
383 6.35001 5.57646 4.33325 0.5
384 1.8306 1.64891 1.35798 0.25
385 6.8163 1.08388 7.02345 0.5
386 1.63163 0.897048 5.57159 0.25
387 7.15694 1.09317 0.552657 0.25
388 0.467611 5.58844 2.51146 0.25
389 4.44198 2.69523 7.61772 0.5
390 4.38775 1.27965 6.11729 0.25
391 5.53651 4.76326 2.62813 0.25
392 8.14683 2.58808 3.27331 0.25
393 2.99968 6.01094 1.32261 0.25
394 8.3569 8.07569 0.536755 0.25
395 2.52103 2.00592 0.952545 0.25
396 4.83323 7.00473 8.24836 0.25
397 4.76485 0.525571 8.25028 0.25
398 6.88666 2.17417 8.33066 0.25
399 2.19849 4.57299 2.80267 0.25
400 6.4876 4.19801 1.32256 0.25
401 2.02546 7.04137 3.46811 0.25
402 0.617181 7.56946 7.37209 0.25
403 8.06026 6.54932 1.09782 0.25
404 7.91664 6.87568 7.31217 0.25
405 0.426301 8.13443 0.819676 0.25
406 4.5413 8.15064 4.59609 0.25
407 2.46549 1.20732 7.80745 0.5
408 5.5136 3.37814 3.14842 0.25
409 2.09281 4.84814 0.840682 0.25
410 7.30986 1.43494 8.20147 0.5
411 4.32183 5.44042 5.09568 0.25
412 8.20131 7.28915 7.29824 0.25
413 0.618232 1.30237 8.1966 0.25
414 0.347685 2.77856 7.25916 0.5
415 6.77937 4.83049 3.47009 0.25
416 2.87992 2.84111 6.22324 0.25
417 3.43734 4.73188 3.55445 0.5
418 7.06035 7.11457 4.45325 0.25
419 4.07744 4.17595 5.77137 0.25
420 0.792201 3.22504 4.02828 0.25
421 3.5765 5.05931 5.73428 0.25
422 2.20455 5.37927 0.879753 0.25
423 0.587174 0.342194 5.95648 0.25
424 0.390188 3.81554 4.4193 0.25
425 2.27614 2.69929 1.20127 0.5
426 7.31255 6.16332 5.3137 0.5
427 2.85056 1.90348 4.43947 0.25
428 3.93589 5.26766 3.42551 0.25
429 4.21978 4.63305 5.47096 0.25
430 1.55955 7.24962 3.26008 0.25
431 1.01936 2.94674 6.34996 0.25
432 1.5288 6.9834 3.97771 0.5
433 1.86604 1.73176 7.52359 0.25
434 0.556936 5.70608 0.63919 0.25
435 5.8417 3.67623 3.43241 0.25
436 0.936097 5.77646 2.35554 0.25
437 8.0773 1.41075 0.147685 0.25
438 0.813421 3.53411 4.50148 0.25
439 4.07123 3.03812 6.56962 0.25
440 4.71942 1.61673 7.53915 0.25
441 8.32022 4.50207 5.42713 0.25
442 1.87081 5.21137 1.12922 0.25
443 0.312085 2.66742 6.2337 0.5
444 2.1499 3.43904 1.29206 0.25
445 5.63507 6.85873 1.18705 0.25
446 4.15999 5.9719 3.50658 0.5
447 1.72932 1.79823 5.49574 0.25
448 6.02097 6.78738 5.92946 0.25
449 1.12274 5.736 5.64041 0.25
450 3.0094 3.52142 0.839893 0.25
451 2.8655 7.08238 4.97303 0.25
452 2.54201 0.881345 0.0867207 0.25
453 4.98556 4.34467 1.39063 0.25
454 0.145213 3.25556 6.71845 0.25
455 7.59579 4.66086 7.53353 0.25
456 3.12592 2.13287 4.11429 0.25
457 2.29399 3.70359 6.6146 0.5
458 0.149565 7.67488 7.35477 0.25
459 4.80079 7.4363 0.0741486 0.25
460 4.93922 8.12647 4.81241 0.25
461 2.57739 3.50639 1.11393 0.25
462 6.4285 5.16347 3.67335 0.25
463 4.77596 7.7723 3.55844 0.25
464 7.77542 6.77276 7.79127 0.25
465 7.36276 2.095 5.72674 0.25
466 4.4086 1.96918 2.82463 0.25
467 4.536 4.9699 1.33134 0.25
468 6.99638 5.62492 3.47806 0.5
469 8.05601 7.08719 8.14288 0.25
470 0.0971889 1.48661 8.2385 0.25
471 1.66297 0.991177 6.06014 0.25
472 1.44678 7.20119 1.88177 0.25
473 7.9408 5.79389 5.753 0.25
474 4.89065 5.84669 5.99918 0.25
475 1.55751 1.20369 2.42144 0.25
476 6.78205 1.0271 7.85393 0.25
477 3.17277 5.46794 3.65481 0.25
478 6.3969 3.54768 8.07133 0.25
479 3.42276 7.28962 7.72014 0.25
480 4.57468 0.138378 2.05753 0.25
481 7.84875 1.96434 4.01406 0.25
482 7.77633 5.70955 4.89617 0.25
483 0.766147 6.07185 5.65518 0.25
484 2.93164 0.779542 8.22377 0.25
485 8.2808 7.43144 7.79329 0.25
486 2.38635 6.85325 5.96256 0.25
487 8.17291 7.89403 4.08052 0.25
488 4.23443 4.60548 5.99692 0.25
489 0.0540162 8.36962 0.99315 0.25
490 7.79548 7.69628 1.99042 0.25
491 4.33027 3.49403 1.17205 0.25
492 2.40771 1.66367 4.24507 0.25
493 6.33421 3.52166 7.24713 0.25
494 4.92581 7.83993 2.70047 0.25
495 1.34984 6.17002 5.62465 0.25
496 2.6396 7.9838 4.48913 0.25
497 5.93528 4.6558 7.73808 0.25
498 3.26184 2.90098 3.96286 0.25
499 8.23618 4.70563 6.96489 0.25
500 4.4817 3.70071 6.34895 0.25
501 6.33042 4.19638 4.62578 0.25
502 1.89751 8.16453 8.08101 0.25
503 6.16647 5.08633 3.01494 0.5
504 7.43733 7.69413 2.38107 0.25
505 5.70358 1.03773 2.98845 0.25
506 7.18199 6.81377 4.81231 0.25
507 1.3158 0.364682 2.84046 0.25
508 0.663164 8.32073 5.66603 0.25
509 8.3662 5.26983 5.26106 0.5
510 5.67296 2.1424 5.3404 0.25
511 0.796213 0.350112 5.47868 0.25
512 0.874433 0.588377 2.71096 0.25
513 4.18869 1.59258 5.33975 0.25
514 2.35001 6.02875 5.71237 0.25
515 1.01907 7.52103 6.62081 0.25
516 7.44086 1.17504 6.45862 0.25
517 7.36173 5.88683 4.6781 0.25
518 1.1268 3.96392 4.42693 0.25
519 6.03975 2.12137 1.98363 0.25
520 7.0792 1.59442 6.40948 0.25
521 7.29368 1.98653 0.261694 0.25
522 6.22085 1.59478 7.86071 0.25
523 5.05335 6.76117 5.50483 0.25
524 2.7666 8.39277 7.41165 0.25
525 6.37868 4.02083 7.3986 0.25
526 6.71909 4.93253 6.46241 0.25
527 7.50531 8.37582 4.06497 0.25
528 7.21138 0.350962 7.07344 0.25
529 7.07173 1.85602 2.64988 0.25
530 2.39459 1.67947 6.09486 0.25
531 7.91162 8.2656 3.81997 0.25
532 1.17974 0.520241 2.38081 0.25
533 6.70066 1.47215 7.67442 0.25
534 7.93938 5.96637 1.69763 0.25
535 0.414902 3.38737 5.11838 0.5
536 7.03873 1.91883 6.0633 0.25
537 4.50938 1.51024 5.7128 0.25
538 7.31984 5.5105 5.01119 0.25
539 2.38906 1.36278 6.41595 0.25
540 7.7756 6.40676 2.22207 0.5
541 8.14691 4.18484 1.46909 0.25
542 1.90219 2.10991 7.92277 0.25
543 3.11994 7.01788 7.39428 0.25
544 7.46414 6.9362 7.40081 0.25
545 1.34882 6.23357 3.91677 0.25
546 4.40411 5.99834 6.21512 0.25
547 5.57071 2.42247 8.23346 0.25
548 5.85584 7.27226 6.55888 0.25
549 0.758514 7.37218 6.97235 0.25
550 6.12289 7.06865 8.31366 0.25
551 4.74004 1.79223 2.49984 0.25
552 3.66794 5.42033 3.80516 0.25
553 6.83112 0.0492785 3.70265 0.5
554 4.36673 6.58736 3.081 0.25
555 4.91789 6.63539 3.66359 0.5
556 6.78602 1.1069 0.938151 0.25
557 7.38975 5.32664 4.30748 0.5
558 6.21427 0.50516 3.64497 0.25
559 1.31316 0.318045 6.0165 0.5
560 5.1003 3.47566 3.0011 0.25
561 2.88913 3.16696 3.78642 0.25
562 5.02189 8.35065 5.60655 0.25
563 2.59372 6.2622 1.15919 0.25
564 6.10124 6.83212 0.653121 0.5
565 6.29019 0.874459 6.61702 0.25
566 1.34658 1.57444 2.17114 0.25
567 4.05104 6.0313 5.85141 0.25
568 6.08293 1.35571 3.11806 0.25
569 2.8806 7.96879 7.71142 0.25
570 2.09688 6.87592 4.43532 0.25
571 1.85853 4.16673 6.20519 0.25
572 0.268363 2.74119 3.82975 0.5
573 4.58714 1.41578 2.16799 0.25
574 1.60156 6.25901 6.03699 0.25
575 1.97958 1.61037 7.97726 0.25
576 4.1627 5.4109 7.84177 0.25
577 4.75049 0.0513697 5.22231 0.25
578 1.86182 7.53364 3.47895 0.25
579 7.19925 4.97656 7.42284 0.25
580 7.63191 0.103754 4.86346 0.5
581 3.82016 4.86903 6.20301 0.25
582 6.30054 3.3388 5.01891 0.25
583 5.77631 3.56198 5.43021 0.5
584 4.61486 6.52424 5.56706 0.25
585 5.21659 3.40668 1.38797 0.25
586 1.60559 0.0387149 2.20834 0.5
587 5.06271 7.61231 3.14822 0.25
588 5.95702 5.33832 3.75995 0.25
589 8.15695 2.90536 6.76131 0.25
590 3.76461 6.25585 2.02762 0.25
591 6.19854 1.44376 1.74804 0.25
592 7.18041 7.28707 1.83626 0.5
593 6.66496 7.01411 1.24699 0.25
594 2.16544 4.17982 7.99339 0.5
595 0.58878 3.50907 7.39521 0.25
596 2.21116 0.663887 0.32467 0.25
597 0.0905964 0.424955 5.41131 0.5
598 2.35681 5.81777 1.01509 0.25
599 1.93317 8.1808 7.55948 0.25
600 7.80597 0.762428 5.77677 0.25
601 0.783474 0.756723 5.67588 0.25
602 3.6659 0.290626 2.31263 0.25
603 4.32043 5.31283 8.27725 0.25
604 7.07319 4.93174 6.87004 0.25
605 8.03761 2.25439 3.63158 0.25
606 1.90991 7.40288 1.71959 0.25
607 4.39461 4.96512 7.97379 0.25
608 3.81542 7.53633 7.43884 0.25
609 6.86469 5.25896 4.85489 0.25
610 2.01507 1.10591 5.72673 0.25
611 3.16405 1.14896 7.94642 0.25
612 0.397035 8.11269 0.294434 0.25
613 6.1414 1.62856 8.32204 0.25
614 4.44089 0.88376 4.93813 0.25
615 4.90857 2.80674 4.25261 0.25
616 0.879151 5.46324 2.76549 0.25
617 1.48269 7.53696 1.52609 0.25
618 7.45296 7.67865 4.20659 0.5
619 7.9805 8.28443 4.30307 0.25
620 7.83485 7.3007 2.70597 0.5
621 4.26506 6.55642 4.0142 0.25
622 5.71929 6.49266 6.68172 0.25
623 5.52379 6.43451 1.03726 0.25
624 0.266441 2.86009 4.62344 0.25
625 1.16298 4.84223 7.81827 0.25
626 3.5591 0.148658 1.5264 0.25
627 5.10554 4.6054 2.50518 0.25
628 8.04024 3.23476 3.02841 0.5
629 7.5237 4.28499 0.361437 0.25
630 0.984089 0.0915293 2.65989 0.25
631 1.68739 1.34396 7.70686 0.25
632 7.53951 7.87903 1.60553 0.25
633 5.71416 7.31075 1.05623 0.25
634 3.09645 0.562085 3.89563 0.25
635 1.28706 6.73837 0.437583 0.5
636 1.84938 2.13397 1.43119 0.25
637 5.24384 8.28323 5.17741 0.25
638 4.89837 1.13348 4.95395 0.25
639 4.81199 1.87251 0.10955 0.25
640 5.25104 7.23619 1.30258 0.25
641 1.55603 6.72883 5.24106 0.25
642 4.05464 1.58342 5.83371 0.25
643 6.06694 6.38086 6.27768 0.25
644 6.05099 0.811144 3.29108 0.25
645 2.88297 2.20044 1.27474 0.25
646 7.67128 7.27201 7.12486 0.25
647 2.51371 3.07096 3.95994 0.25
648 5.02982 0.972435 8.17249 0.25
649 0.310457 3.5894 1.4333 0.25
650 8.34125 2.85161 1.42129 0.25
651 3.60827 2.91869 3.61644 0.25
652 7.48253 8.34688 6.83775 0.25
653 0.876972 6.04937 0.625051 0.25
654 0.73695 2.50658 7.84484 0.25
655 3.72589 3.6059 6.24759 0.5
656 0.67107 3.15035 6.64413 0.25
657 1.54947 5.76953 5.88468 0.25
658 7.22448 0.664675 3.72386 0.25
659 2.30915 1.87678 7.69433 0.25
660 6.91558 6.35902 4.30432 0.5
661 8.01924 1.74297 8.17996 0.25
662 3.79538 4.62731 4.20955 0.25
663 2.4179 3.73029 1.57234 0.25
664 7.02247 2.70332 5.03199 0.25
665 8.11097 4.14796 1.01024 0.25
666 5.52277 6.92456 6.60554 0.25
667 7.14604 3.99876 0.615251 0.25
668 6.88881 6.66812 1.59789 0.25
669 5.8298 4.88782 6.95077 0.25
670 4.5379 7.96044 5.04654 0.25
671 3.34824 4.83959 4.31882 0.25
672 2.59103 3.43176 1.90046 0.25
673 0.904335 1.11335 2.91312 0.25
674 4.39526 8.03538 3.36523 0.25
675 6.07313 3.54867 6.13831 0.25
676 7.44189 8.01804 2.07933 0.25
677 5.94955 1.8897 1.59118 0.25
678 7.66847 6.80297 4.96114 0.25
679 0.887399 5.76199 1.00315 0.25
680 3.88956 6.51983 0.061115 0.25
681 7.86215 0.364471 4.14252 0.25
682 2.16368 6.15057 1.3579 0.25
683 2.04225 7.7984 7.22778 0.25
684 0.338563 3.08789 1.61771 0.25
685 2.63255 3.27712 6.13345 0.25
686 4.32905 3.11933 7.01341 0.25
687 2.3789 4.12282 0.38779 0.25
688 4.39864 1.7381 6.14953 0.25
689 5.73016 4.3655 8.08544 0.25
690 6.16653 0.983528 2.79718 0.25
691 7.15555 1.50248 1.52096 0.25
692 5.31288 4.99382 2.25886 0.25
693 7.38529 1.49773 6.82235 0.25
694 7.70521 5.57835 5.39653 0.25
695 0.0337088 2.86144 5.51663 0.25
696 5.76949 6.11912 3.49113 0.5
697 4.26011 4.12357 6.26752 0.25
698 2.01387 0.814086 5.28865 0.25
699 1.71953 6.8863 4.78164 0.25
700 4.40442 5.38365 1.62135 0.25
701 4.74319 1.72109 7.97038 0.25
702 2.11876 4.14849 7.18245 0.25
703 3.44324 6.48075 7.81878 0.5
704 4.61072 4.55421 8.13776 0.25
705 4.74381 3.15997 1.29379 0.25
706 5.03218 0.143159 8.15516 0.25
707 4.69635 3.69643 1.81101 0.5
708 4.92634 7.37918 7.96638 0.25
709 2.59987 6.4752 1.88999 0.5
710 1.88763 4.32562 6.68004 0.25
711 5.17093 6.26896 3.03422 0.25
712 0.255045 4.97764 7.64311 0.25
713 1.74043 4.22335 1.71502 0.25
714 5.24015 3.91342 1.40135 0.25
715 4.85045 6.65085 2.92193 0.25
716 6.34161 1.1501 7.64855 0.25
717 7.4939 8.13227 3.61175 0.25
718 5.98679 3.31353 8.02646 0.25
719 5.47916 4.41499 7.62504 0.25
720 1.54387 7.72926 3.79657 0.25
721 6.5557 2.27399 2.11805 0.25
722 2.21091 7.38771 2.8298 0.5
723 2.10803 6.86657 2.34571 0.25
724 7.14907 6.83322 1.19855 0.25
725 7.61125 6.48454 7.38512 0.25
726 1.20812 0.643353 5.41114 0.25
727 3.3292 0.606015 1.61191 0.25
728 3.83445 6.00654 8.36196 0.25
729 4.97251 5.96241 3.41348 0.25
730 2.99575 6.58113 7.19925 0.25
731 5.28407 3.68753 3.41946 0.25
732 4.25263 3.94431 6.77667 0.25
733 3.64964 5.39583 7.82589 0.25
734 4.25185 1.03955 2.36877 0.25
735 3.58987 2.98974 6.69318 0.25
736 7.68223 2.10084 8.34349 0.25
737 3.81954 8.0791 0.929283 0.25
738 0.472298 8.37227 1.258 0.25
739 4.68138 6.22444 3.08211 0.25
740 5.05529 7.38268 3.54172 0.25
741 0.456474 0.314895 0.881262 0.25
742 3.42272 4.65636 5.98649 0.25
743 6.92673 1.07552 1.38443 0.25
744 4.46803 0.57379 2.38793 0.25
745 3.55734 4.21162 5.76316 0.25
746 1.6826 6.18917 4.60107 0.5
747 4.26636 8.15942 1.83396 0.25
748 2.78671 6.68697 7.65437 0.25
749 1.58449 1.26596 1.89838 0.25
750 8.35393 3.05223 1.92538 0.25
751 1.65243 0.415209 5.38936 0.25
752 5.91437 5.0142 7.39534 0.25
753 4.0778 0.522531 1.74707 0.5
754 4.09965 5.29676 2.02486 0.25
755 3.17512 2.87246 1.13845 0.5
756 8.09383 6.51329 7.54605 0.25
757 5.70604 6.36177 5.88277 0.25
758 6.90381 4.06923 7.48636 0.25
759 3.70211 8.33927 6.27128 0.25
760 0.194554 2.62714 3.05974 0.25
761 3.65894 7.05758 7.39567 0.25
762 1.12373 1.83799 3.23833 0.5
763 3.43531 8.23279 2.28896 0.25
764 1.18751 5.9976 0.20613 0.25
765 7.65971 5.26245 3.53903 0.25
766 8.09883 4.48342 2.82567 0.25
767 2.9393 7.12299 7.82526 0.25
768 1.80542 2.67403 4.05048 0.25
769 8.26991 3.7157 1.19949 0.25
770 4.51562 1.02464 8.14204 0.25
771 6.68085 0.65017 6.40589 0.25
772 5.13066 2.40778 7.96423 0.25
773 4.88092 0.425374 4.60083 0.5
774 3.66844 0.345699 5.91226 0.25
775 7.4559 4.65156 3.12232 0.5
776 7.10596 4.61525 0.968256 0.5
777 5.65689 6.84228 8.36436 0.25
778 5.53593 0.139247 7.9446 0.25
779 8.31226 0.0536938 4.01236 0.25
780 2.42621 1.27392 5.9125 0.25
781 2.28147 1.93498 8.20164 0.25
782 0.93717 7.26782 0.0253483 0.25
783 6.93634 3.99517 1.42328 0.25
784 1.93514 6.97348 1.87777 0.25
785 2.82079 1.43931 6.17811 0.25
786 2.3065 7.22056 2.05632 0.25
787 7.82482 7.24877 7.63219 0.25
788 7.93025 4.01743 2.87422 0.25
789 3.32982 0.129418 4.04865 0.25
790 6.64659 7.97561 6.52164 0.25
791 0.0240755 5.01164 3.33193 0.5
792 2.38485 8.08446 7.42845 0.25
793 8.19398 6.65738 2.81629 0.25
794 4.98682 6.56787 6.23515 0.5
795 2.04434 4.10389 2.98707 0.25
796 2.57242 6.39783 5.93539 0.25
797 6.87956 6.9184 0.764914 0.25
798 8.17628 4.60826 1.14364 0.25
799 4.39131 3.79042 5.89909 0.25
800 0.104923 2.19266 3.34568 0.25
801 3.38663 7.38148 7.21209 0.25
802 3.71185 5.13155 4.19787 0.25
803 2.76693 7.72863 6.96041 0.5
804 3.43255 6.67131 1.95741 0.25
805 1.71681 7.92364 1.70118 0.25
806 2.85876 1.73461 3.96137 0.25
807 4.58826 6.21754 5.24063 0.25
808 4.29368 2.2973 8.15783 0.25
809 1.85093 6.08568 5.68436 0.25
810 5.68922 7.53183 6.21685 0.25
811 1.4991 3.27232 4.37584 0.5
812 5.67543 7.45639 0.577519 0.25
813 4.8831 2.09163 2.85986 0.25
814 2.19763 7.29441 7.15502 0.25
815 2.50199 8.34477 4.13809 0.25
816 0.351968 3.31424 4.39078 0.25
817 4.37904 1.8509 8.30546 0.25
818 4.51088 2.43347 3.04916 0.25
819 1.77549 5.17738 0.658532 0.25
820 3.22964 3.06404 6.41714 0.25
821 1.19081 1.83018 7.91219 0.5
822 6.15613 4.57638 3.99915 0.5
823 5.20783 0.541314 7.99263 0.25
824 1.23307 0.146728 5.24228 0.25
825 3.87926 5.83987 7.87767 0.25
826 3.2261 3.60589 1.51638 0.5
827 5.6714 7.08621 6.15284 0.25
828 8.09826 2.25767 8.0152 0.25
829 0.0964606 8.17316 4.36476 0.25
830 1.53697 1.6928 2.5624 0.25
831 2.44691 3.84636 7.37934 0.25
832 5.97686 4.57976 2.47911 0.25
833 1.99973 1.41489 6.13688 0.25
834 3.98583 0.646396 2.54624 0.25
835 6.33274 1.7008 1.33257 0.25
836 3.31423 7.76089 7.52355 0.25
837 3.95188 5.04773 8.11557 0.25
838 7.18936 0.824966 1.02078 0.25
839 6.09378 7.2943 6.09385 0.25
840 6.52863 4.66809 7.19565 0.5
841 3.26487 6.13531 2.08079 0.25
842 0.397053 2.22818 2.54136 0.5
843 6.36013 3.69589 5.80205 0.25
844 5.10662 2.29735 0.0664314 0.25
845 7.28927 1.93297 5.26503 0.25
846 3.12803 3.56951 7.05588 0.5
847 2.21099 4.59602 0.348681 0.25
848 2.11903 5.95519 5.27601 0.25
849 4.89985 8.32827 2.81445 0.25
850 6.77555 2.65525 5.78697 0.5
851 4.86426 7.9488 5.33816 0.25
852 6.61868 1.78541 8.10486 0.25
853 3.54034 0.412082 6.36862 0.25
854 4.96105 1.9134 5.15526 0.5
855 0.64591 4.3752 5.04534 0.25
856 0.47029 5.55266 2.99167 0.25
857 3.72894 6.50684 1.57902 0.25
858 2.65027 4.59335 3.6983 0.25
859 6.73906 4.95489 4.43374 0.25
860 7.81698 4.5206 0.763196 0.25
861 4.54012 3.06293 8.31986 0.25
862 6.82273 5.02489 3.94381 0.25
863 5.10943 6.21275 0.854738 0.25
864 7.208 6.9114 2.47514 0.25
865 3.80794 5.50666 8.25407 0.25
866 4.85977 8.18157 2.35492 0.25
867 1.92439 3.72307 7.35998 0.25
868 2.26078 1.45627 0.400302 0.5
869 0.898138 2.74957 6.7482 0.25
870 6.32099 5.63696 3.52497 0.25
871 2.64499 7.12305 7.34805 0.25
872 6.26783 2.93266 5.38407 0.25
873 8.12808 0.172564 0.584657 0.25
874 4.85077 1.81666 5.88591 0.25
875 2.05333 4.13462 1.02253 0.5
876 1.59078 5.82887 5.36337 0.25
877 8.16595 4.79309 7.47109 0.25
878 5.78074 1.34306 2.66309 0.25
879 2.87853 0.287435 4.26565 0.25
880 6.45772 6.13315 3.30506 0.25
881 7.45472 1.1564 1.36444 0.25
882 8.25846 6.99476 7.711 0.25
883 0.26241 3.4262 1.90601 0.25
884 7.26539 3.88713 1.09877 0.25
885 0.845839 3.99191 5.26414 0.25
886 7.55741 7.62385 3.4626 0.25
887 1.03294 6.28285 1.02373 0.25
888 0.71519 4.91357 3.55753 0.25
889 1.21812 7.81352 2.40739 0.25
890 7.8283 4.32255 2.45926 0.25
891 0.930722 2.27996 7.36272 0.25
892 7.60778 4.10398 0.832205 0.25
893 0.814411 7.91126 0.537251 0.25
894 4.06792 5.04828 1.57148 0.25
895 3.99338 6.29603 1.18433 0.25
896 1.71106 1.2948 8.22866 0.25
897 0.110305 3.2125 1.12884 0.25
898 0.531168 5.17313 3.9165 0.25
899 1.15496 8.02324 6.44818 0.25
900 4.93599 6.23765 5.59125 0.25
901 1.1299 1.38612 2.58399 0.25
902 7.74917 4.41481 1.25438 0.25
903 6.09741 3.83296 4.35716 0.25
904 6.92343 4.88611 7.81253 0.25