ITEM: TIMESTEP
520000
ITEM: NUMBER OF ATOMS
1000
ITEM: BOX BOUNDS xy xz yz pp pp pp
0.0000000000000000e+00 8.3788359999999997e+00 0.0000000000000000e+00
0.0000000000000000e+00 8.3788359999999997e+00 0.0000000000000000e+00
0.0000000000000000e+00 8.3788359999999997e+00 0.0000000000000000e+00
ITEM: ATOMS id x y z radius
1 2.67823 7.04568 5.00714 0.25
2 4.66334 5.02507 5.08957 0.25
3 7.01461 4.65936 3.12585 0.25
4 7.27214 1.01712 5.80265 0.5
5 1.12737 5.85801 6.29414 0.25
6 8.24405 1.86609 3.46114 0.25
7 4.21087 3.26152 6.52046 0.25
8 4.75867 7.7428 2.86019 0.25
9 0.868614 6.21718 3.73593 0.25
10 4.13392 1.59675 3.40304 0.25
11 5.30664 0.107988 7.98008 0.25
12 5.34293 3.53361 1.45991 0.25
13 0.589057 2.45612 7.4748 0.25
14 3.65524 2.6698 7.14114 0.25
15 8.26199 2.80746 5.85474 0.25
16 7.46807 0.957825 6.56343 0.25
17 0.934512 5.43078 7.98211 0.25
18 5.88046 7.44294 8.13112 0.25
19 4.5255 1.84859 7.70214 0.25
20 7.81152 1.35578 0.593332 0.25
21 4.88469 4.18003 1.91971 0.25
22 4.1729 3.28559 1.11706 0.25
23 2.23657 3.39076 2.02815 0.25
24 2.9528 1.70754 4.3501 0.25
25 2.61534 4.47291 3.0129 0.25
26 0.233439 8.27106 5.60162 0.25
27 3.99913 0.215497 5.87333 0.25
28 4.29797 2.07129 0.12055 0.25
29 5.08239 6.92328 2.99757 0.25
30 7.49691 7.38518 2.32135 0.25
31 2.70479 0.428587 8.08881 0.25
32 0.965738 2.78038 7.38149 0.25
33 7.64554 0.58949 5.2294 0.25
34 2.05782 5.28425 1.3415 0.25
35 8.04205 0.147141 4.35701 0.25
36 6.72452 2.00529 5.95709 0.5
37 4.37447 1.27498 2.28236 0.25
38 2.12674 3.32257 4.27993 0.25
39 6.00977 2.67891 4.88214 0.25
40 5.28643 7.71563 3.05638 0.25
41 6.80191 2.17249 2.55221 0.25
42 5.47995 5.89711 5.77544 0.25
43 3.45886 7.69912 4.97511 0.25
44 3.88886 8.20096 5.5014 0.25
45 5.68297 4.09863 4.03072 0.25
46 3.14478 5.97072 1.44719 0.5
47 4.94787 0.957663 5.52308 0.25
48 7.95018 6.33586 6.86875 0.25
49 7.262 6.77574 4.76401 0.25
50 7.94556 1.09131 1.11037 0.25
51 2.60408 3.31831 4.37378 0.25
52 0.708816 1.70376 2.37755 0.25
53 6.48806 5.01599 7.01011 0.25
54 5.84428 3.25416 4.0939 0.25
55 1.43566 1.34526 6.22411 0.25
56 1.25337 7.18124 0.434208 0.25
57 4.57531 0.846872 1.97865 0.25
58 2.29482 2.02439 4.09825 0.25
59 4.6624 1.11146 6.40662 0.25
60 7.84355 5.47285 5.14372 0.25
61 4.94487 8.2781 8.28658 0.25
62 5.41594 2.07503 8.26258 0.5
63 7.56505 6.61618 1.08495 0.25
64 1.12167 6.05576 0.977085 0.25
65 4.11765 0.117503 1.77524 0.25
66 2.36416 4.80488 7.15238 0.25
67 8.11301 4.9422 7.24067 0.25
68 7.1214 0.580401 6.38436 0.25
69 0.334097 5.56017 7.53642 0.25
70 1.94703 4.72077 0.775628 0.25
71 8.09807 1.29549 0.256153 0.25
72 6.44846 6.30087 3.38574 0.25
73 0.493784 7.64729 6.79188 0.25
74 7.29294 5.63231 6.86077 0.25
75 7.16663 0.114108 3.37728 0.25
76 7.52659 6.49447 4.40521 0.25
77 5.53922 3.0309 5.45503 0.25
78 5.41733 3.95231 1.21765 0.25
79 7.64871 5.09488 4.43568 0.25
80 5.8067 3.46095 5.43585 0.25
81 7.18547 1.47427 1.35657 0.25
82 0.320615 2.79673 6.11985 0.25
83 4.32168 5.72256 5.58877 0.25
84 1.18694 0.93153 6.24847 0.25
85 1.29875 1.28971 5.36348 0.25
86 4.72945 0.0149235 5.39742 0.25
87 1.65901 1.71842 1.19531 0.25
88 3.15799 6.69754 1.63791 0.25
89 6.81213 7.0085 0.587437 0.25
90 5.43517 6.359 5.46746 0.25
91 3.97458 4.12403 6.24073 0.25
92 6.20348 4.55339 7.46533 0.25
93 4.92736 6.46211 5.29965 0.25
94 6.88566 8.22784 4.15688 0.25
95 0.26002 4.54606 7.77463 0.5
96 5.4868 3.09732 3.49221 0.5
97 4.45618 4.92735 7.90943 0.25
98 8.14003 2.34442 3.46542 0.25
99 1.71473 6.40953 5.9226 0.25
100 7.11657 6.86271 0.993723 0.25
101 0.83778 7.65396 8.18951 0.25
102 7.85944 4.80495 3.2778 0.25
103 6.72685 1.27373 1.44238 0.25
104 0.890702 4.66468 7.41906 0.25
105 5.01977 5.68704 5.20534 0.5
106 5.20141 0.474745 4.47917 0.25
107 4.34147 3.21762 7.01878 0.25
108 4.85636 1.45663 8.38252 0.25
109 0.511732 0.528648 6.1284 0.25
110 2.27017 7.95299 8.27108 0.25
111 3.19093 3.81821 7.05807 0.25
112 4.59366 2.14125 8.1269 0.25
113 1.80084 1.90134 1.99468 0.5
114 1.81924 3.60301 7.26485 0.25
115 4.48429 6.21444 6.25049 0.25
116 2.52389 7.08072 7.1023 0.25
117 4.19917 2.32667 3.71556 0.5
118 6.77627 7.16522 1.08561 0.25
119 1.02351 6.37724 3.25778 0.25
120 0.214229 2.85278 2.53507 0.25
121 3.18207 4.09097 3.54957 0.25
122 6.67404 0.751897 6.22132 0.25
123 5.30197 0.593654 5.53415 0.25
124 8.13719 8.01758 2.40882 0.25
125 3.49738 2.17137 3.86483 0.25
126 3.57836 1.00764 5.9182 0.25
127 5.29735 3.93707 1.7378 0.25
128 6.66854 5.38669 7.26937 0.25
129 1.0583 6.48114 4.12674 0.25
130 5.55184 6.28816 0.780917 0.25
131 6.94855 1.4844 6.40454 0.25
132 5.97143 4.12527 7.63489 0.25
133 3.30999 1.91259 3.39709 0.25
134 4.25957 2.51634 8.24975 0.25
135 5.54243 3.8534 3.6123 0.25
136 2.84851 2.47165 3.7483 0.5
137 2.86404 4.04552 3.13604 0.25
138 7.50024 7.98825 2.80999 0.5
139 2.63267 8.27929 4.8924 0.25
140 5.10357 8.02056 7.88752 0.25
141 7.84008 5.93733 4.96401 0.25
142 1.09774 5.12308 3.15189 0.25
143 2.29733 2.09235 0.00993793 0.25
144 5.03652 1.05232 2.55538 0.5
145 7.37958 1.94207 4.02026 0.25
146 6.05705 7.42536 0.21119 0.25
147 6.5732 5.72129 4.45232 0.25
148 2.31777 2.98059 4.59392 0.25
149 4.49374 8.1113 2.28032 0.5
150 4.97988 3.02751 4.13273 0.25
151 3.66501 5.97335 7.33024 0.25
152 3.57454 4.52187 5.69481 0.25
153 6.77235 6.02966 2.20356 0.5
154 7.19403 2.4897 4.60501 0.5
155 2.96742 7.27256 7.811 0.25
156 7.56457 3.59176 1.42023 0.25
157 7.66446 5.92764 1.47931 0.25
158 2.3805 3.47212 0.754955 0.25
159 7.02534 7.85314 4.42642 0.25
160 6.45517 2.06231 2.87701 0.25
161 1.00752 5.30856 2.72508 0.25
162 5.94044 4.30963 7.17039 0.25
163 3.29177 3.69848 4.22547 0.5
164 2.45825 3.89408 2.5146 0.5
165 5.53987 8.13466 7.72231 0.25
166 0.0876262 3.74314 7.8725 0.25
167 6.63723 4.0418 8.24423 0.25
168 4.67449 5.9596 5.86005 0.25
169 3.97982 4.27144 5.76591 0.25
170 8.26194 2.77574 6.34341 0.25
171 7.89727 5.80124 1.01483 0.25
172 1.09155 2.94017 6.92101 0.25
173 4.24183 6.19853 5.85628 0.25
174 2.37313 2.15355 1.03665 0.25
175 7.63895 2.41425 6.06041 0.5
176 2.43579 5.76901 6.11513 0.25
177 5.49939 3.61076 4.031 0.25
178 2.93976 6.38891 1.99888 0.25
179 3.55016 2.34028 3.38427 0.25
180 5.83536 6.35047 5.76429 0.25
181 6.66928 4.12517 6.93114 0.25
182 3.18576 5.22383 3.34385 0.25
183 8.09102 7.57142 1.68344 0.25
184 4.35335 5.15516 8.35879 0.25
185 5.76055 6.76952 6.04521 0.25
186 7.54714 5.99473 4.51225 0.25
187 3.35153 5.29117 4.24371 0.25
188 0.78744 5.93324 3.27971 0.25
189 4.15771 6.62518 3.52249 0.25
190 4.22474 3.2348 1.59141 0.25
191 7.09164 1.61733 0.497726 0.5
192 0.918827 4.99592 7.69429 0.25
193 3.72045 5.34617 1.24371 0.25
194 2.52137 6.32884 1.91185 0.25
195 6.24793 5.70081 2.65002 0.25
196 2.42378 8.05906 2.72375 0.25
197 1.20082 8.29739 2.50049 0.25
198 7.70372 4.73834 7.04566 0.25
199 1.08405 1.16828 3.10818 0.25
200 4.33794 5.17065 1.64353 0.5
201 6.51925 1.66984 3.15176 0.25
202 -0.0125385 3.90427 5.31509 0.25
203 3.65705 1.73477 3.67132 0.25
204 5.73382 8.09499 0.0387597 0.5
205 2.42011 7.61609 4.56873 0.5
206 0.422936 4.4829 5.07208 0.25
207 5.69017 2.76145 4.18384 0.25
208 6.89549 5.34353 4.31657 0.25
209 5.35463 7.08133 0.0251102 0.5
210 1.98611 8.02788 2.98454 0.25
211 0.717756 3.77527 4.96972 0.25
212 1.52523 7.79822 0.0318732 0.5
213 0.265558 4.1668 2.66238 0.25
214 1.95141 8.00504 2.48726 0.25
215 2.89723 4.24923 3.96313 0.25
216 6.42398 1.87997 2.38223 0.25
217 4.97655 3.68544 2.03316 0.25
218 2.46751 3.25625 4.95218 0.25
219 4.30762 1.1601 2.75726 0.25
220 3.68451 3.48958 0.986894 0.25
221 4.36419 8.29193 5.69525 0.25
222 7.37351 0.943455 5.08156 0.25
223 8.10089 2.77481 2.68225 0.25
224 7.17734 5.40269 7.28337 0.25
225 7.24794 2.28131 5.4138 0.25
226 4.92723 2.17565 7.73031 0.25
227 6.48094 3.69654 7.1075 0.25
228 5.41624 3.18314 4.25056 0.25
229 5.51318 5.16517 1.9494 0.25
230 0.171215 8.22496 6.35937 0.5
231 5.21527 4.65332 1.42118 0.5
232 1.97048 2.83192 4.28879 0.25
233 4.11659 5.08103 4.00002 0.25
234 6.54786 1.12344 6.54406 0.25
235 3.01601 7.41491 4.86842 0.25
236 0.852931 2.59732 8.31965 0.25
237 8.28397 3.00504 7.52959 0.25
238 3.47213 0.932275 1.30997 0.25
239 0.208179 2.24947 3.59744 0.25
240 6.67229 6.29086 1.4396 0.25
241 3.41124 7.15771 8.05622 0.25
242 1.91098 7.38452 2.81375 0.5
243 2.82935 4.82164 3.30423 0.25
244 7.09948 3.60819 1.20421 0.25
245 2.04942 1.04297 5.76858 0.25
246 7.55298 8.25379 3.5689 0.25
247 3.5933 2.67108 3.7249 0.25
248 3.75909 3.14884 1.35404 0.25
249 0.0925364 5.17076 7.45397 0.25
250 1.37887 3.72166 5.36968 0.25
251 5.26722 2.69173 4.78461 0.5
252 3.23497 2.12468 4.28323 0.25
253 7.97294 5.7001 7.27644 0.5
254 7.31767 5.94561 7.27406 0.25
255 4.7374 0.41897 6.00903 0.5
256 5.91919 6.22063 0.373672 0.25
257 1.05103 0.364592 2.73776 0.25
258 1.61199 1.75262 2.72846 0.25
259 4.67299 3.1615 1.66671 0.25
260 7.94665 6.24634 1.21964 0.25
261 3.88062 8.34462 1.34136 0.25
262 3.58961 2.50517 4.20947 0.25
263 2.17409 0.230485 0.202867 0.5
264 2.76758 4.34843 3.46902 0.25
265 1.13579 3.93902 7.41755 0.5
266 0.846312 7.77718 7.44239 0.5
267 5.13804 2.63006 7.76475 0.25
268 6.43943 7.68988 0.271812 0.25
269 2.05031 5.46985 0.491588 0.25
270 3.935 3.61371 1.41126 0.25
271 7.48054 7.91913 4.659 0.25
272 1.62482 0.942452 2.45583 0.25
273 1.37318 3.36981 7.06868 0.25
274 0.821663 5.4659 7.49196 0.25
275 4.53566 4.43125 1.71086 0.25
276 2.42411 3.05296 0.950011 0.25
277 6.72386 0.66532 6.71611 0.25
278 3.93522 6.14259 1.27456 0.25
279 4.13879 0.398789 5.17992 0.5
280 7.89216 8.2098 4.75204 0.25
281 0.879243 6.35495 0.676999 0.25
282 6.14266 6.99967 6.17036 0.25
283 0.856331 8.14792 6.17646 0.25
284 7.39553 4.49953 1.06478 0.25
285 1.85307 5.94418 1.05441 0.5
286 5.54714 6.74137 3.08924 0.25
287 1.59193 8.10821 3.56275 0.5
288 2.74072 7.51469 5.26322 0.25
289 2.3117 7.2464 5.19534 0.25
290 2.1424 3.91053 1.90403 0.25
291 8.14316 7.52629 7.10913 0.25
292 7.68864 2.51354 3.4266 0.25
293 7.47332 4.49388 3.2146 0.25
294 5.89403 3.67274 3.34849 0.25
295 8.22949 4.1828 1.05425 0.25
296 0.632632 4.16271 4.43676 0.5
297 3.90517 3.01413 6.88869 0.25
298 6.32344 5.05404 7.45244 0.25
299 5.94347 4.92498 7.681 0.25
300 6.38031 3.61013 0.528651 0.25
301 1.16408 7.31642 7.93975 0.25
302 0.240036 4.07643 1.39233 0.25
303 3.95498 0.772367 1.23654 0.25
304 2.08708 2.56209 4.71838 0.25
305 0.785177 4.9983 8.1293 0.25
306 2.33682 2.11082 4.64111 0.25
307 1.65599 4.75425 7.41775 0.5
308 3.66576 5.9298 3.2828 0.25
309 4.43269 1.01125 5.59858 0.25
310 1.10164 4.63327 4.00782 0.25
311 7.20542 0.0350728 3.86545 0.25
312 0.869352 0.980884 2.392 0.5
313 0.88417 3.80951 5.40353 0.25
314 5.49686 3.81988 3.1081 0.25
315 1.30383 5.00522 8.037 0.25
316 1.86388 4.10307 7.10924 0.25
317 7.44597 2.40847 3.87373 0.25
318 2.3447 2.4897 4.30211 0.25
319 4.95831 7.53323 7.90189 0.25
320 2.13518 6.16853 6.01875 0.25
321 4.41897 0.726173 1.41377 0.25
322 7.12976 6.43976 5.16472 0.25
323 0.783648 6.08527 4.19792 0.25
324 4.08377 7.35465 7.80504 0.5
325 0.939993 1.6267 0.0784817 0.25
326 3.95674 4.74536 5.08707 0.5
327 7.47076 7.32706 3.21435 0.25
328 2.34157 7.89783 1.92962 0.25
329 1.19688 5.92718 3.48681 0.25
330 8.20182 7.05538 7.2074 0.25
331 0.844713 5.38116 3.8142 0.5
332 7.34214 6.5813 2.01281 0.25
333 1.10237 1.62111 2.03056 0.25
334 6.83275 1.70996 1.66109 0.25
335 3.35418 3.11562 0.98307 0.25
336 2.9714 6.97298 6.85243 0.25
337 4.32456 7.10251 2.94859 0.5
338 6.33852 7.5384 8.18751 0.25
339 2.13842 8.12057 4.10418 0.25
340 4.82254 0.575692 4.81095 0.25
341 6.79555 8.25801 3.14212 0.25
342 1.06913 5.15356 7.20028 0.25
343 2.77062 1.26222 0.284984 0.25
344 1.38913 5.66705 2.78969 0.25
345 0.442651 1.54483 2.74542 0.25
346 0.435331 2.39477 7.93331 0.25
347 3.50959 5.88853 7.77115 0.25
348 7.34768 7.8289 2.06932 0.25
349 0.753245 2.12607 8.24819 0.25
350 6.72295 1.65759 2.70375 0.25
351 1.33059 7.08029 0.898823 0.25
352 6.41449 3.49865 7.8254 0.5
353 2.37705 8.38518 7.56116 0.25
354 1.86413 0.574643 5.77292 0.25
355 0.561389 0.147709 5.91289 0.25
356 1.66935 1.7179 6.01387 0.25
357 2.864 3.69134 6.69407 0.25
358 6.23833 3.44209 5.24492 0.25
359 4.27297 0.886799 6.35104 0.25
360 1.93445 2.10193 1.26657 0.25
361 0.932384 7.5633 0.341331 0.25
362 6.21964 4.02562 6.85212 0.25
363 8.0288 4.00834 1.97747 0.25
364 5.99606 3.79462 7.22704 0.25
365 5.455 6.02773 0.333582 0.25
366 5.11949 6.42185 0.46326 0.25
367 3.0111 4.14419 6.74144 0.25
368 7.04543 3.705 8.26708 0.25
369 1.14514 6.72782 0.506665 0.25
370 5.58372 0.444082 8.23363 0.25
371 2.43532 8.3768 4.46797 0.25
372 2.37489 4.57396 0.618904 0.25
373 6.99625 2.74214 5.21406 0.25
374 3.58365 4.41711 4.46158 0.25
375 5.44171 0.928876 8.08017 0.25
376 2.55105 5.92992 1.00521 0.25
377 6.41592 1.23365 2.12599 0.5
378 0.412733 3.83162 7.55741 0.25
379 5.20144 1.38989 8.00972 0.25
380 2.14359 6.93476 4.78226 0.25
381 3.98488 5.28144 5.57667 0.25
382 1.82491 7.21366 5.01026 0.25
383 6.27713 5.29007 3.92792 0.5
384 1.23402 1.76863 1.52618 0.25
385 6.97809 1.33013 7.12491 0.5
386 1.24591 1.11567 5.81076 0.25
387 7.70331 0.907902 0.724727 0.25
388 0.883449 5.82257 2.77688 0.25
389 4.3263 2.59528 7.48158 0.5
390 4.04194 0.445451 6.32069 0.25
391 5.31434 4.7656 2.14337 0.25
392 8.03466 2.78699 3.20356 0.25
393 2.67494 6.59743 1.54833 0.25
394 0.878179 8.16836 8.0901 0.25
395 2.20566 1.72436 1.27385 0.25
396 4.65716 7.86485 8.10866 0.25
397 5.26335 0.765233 0.15191 0.25
398 7.43846 1.65392 8.13947 0.25
399 3.09782 4.43113 3.14986 0.25
400 4.77004 4.42409 0.822821 0.25
401 2.28425 7.25574 3.93498 0.25
402 8.07953 8.00198 6.91049 0.25
403 7.82414 6.26395 0.745344 0.25
404 7.90641 6.81323 6.96056 0.25
405 0.478258 7.53217 0.17738 0.25
406 5.65731 0.66084 4.3226 0.25
407 2.39537 1.07341 8.024 0.5
408 5.67476 3.41711 2.41637 0.25
409 2.31363 4.90332 1.07689 0.25
410 7.42874 0.905695 0.0529687 0.5
411 4.31987 5.37775 5.23813 0.25
412 8.16272 7.19268 6.74848 0.25
413 1.36611 1.47166 0.245296 0.25
414 0.534926 3.12105 7.87889 0.5
415 6.49599 4.68593 2.99429 0.25
416 3.04535 2.93304 6.62839 0.25
417 3.44988 4.72882 3.75152 0.5
418 7.06745 6.73474 4.32658 0.25
419 3.91624 3.76197 5.91118 0.25
420 0.877032 3.15317 4.76491 0.25
421 4.03438 4.78724 5.79896 0.25
422 2.34327 5.38687 0.933768 0.25
423 0.141828 0.295067 5.79172 0.25
424 0.512577 3.42875 4.64606 0.25
425 1.98083 2.77913 1.47247 0.5
426 7.10003 5.67823 5.00373 0.5
427 2.72003 2.09896 4.34805 0.25
428 3.98766 5.17962 3.50743 0.25
429 4.41182 4.48425 5.63516 0.25
430 1.8611 7.39085 3.60185 0.25
431 0.927585 3.43233 6.85155 0.25
432 1.60914 7.066 4.28521 0.5
433 2.0495 1.76099 7.71001 0.25
434 0.851912 6.4079 1.19663 0.25
435 5.81279 3.56401 2.85515 0.25
436 1.24095 6.06402 3.01845 0.25
437 0.155644 1.00356 0.224692 0.25
438 1.00417 3.44064 5.08685 0.25
439 3.92935 2.53386 6.78404 0.25
440 5.01921 1.68575 7.62059 0.25
441 8.00763 4.26552 5.27435 0.25
442 2.52151 5.5941 1.36769 0.25
443 0.356291 2.92486 6.89271 0.5
444 2.06976 3.53472 1.58404 0.25
445 5.35434 7.28987 0.753494 0.25
446 4.28128 5.88893 3.64931 0.5
447 1.26481 1.5893 5.77659 0.25
448 5.87633 7.16966 5.81485 0.25
449 1.01264 5.67064 5.83105 0.25
450 2.8372 3.28989 0.875257 0.25
451 2.6607 7.0954 5.47831 0.25
452 2.40161 0.937472 0.395834 0.25
453 4.49506 4.53321 1.23821 0.25
454 0.0631925 3.4769 7.3754 0.25
455 8.04001 5.097 7.697 0.25
456 3.17567 1.82337 3.89993 0.25
457 2.58762 3.74704 7.34452 0.5
458 0.0180005 7.62324 6.71327 0.25
459 5.08141 7.79959 8.34078 0.25
460 5.6041 0.353526 4.75956 0.25
461 2.47854 3.45429 1.2366 0.25
462 6.22511 5.0475 3.23583 0.25
463 5.12466 7.38951 2.75067 0.25
464 7.43893 6.94406 7.02493 0.25
465 6.98767 2.6059 5.695 0.25
466 4.04737 1.5341 2.94446 0.25
467 3.7869 6.16487 1.76623 0.25
468 6.84473 5.35481 2.95231 0.5
469 7.41827 7.44975 6.85909 0.25
470 1.26005 1.41315 8.10296 0.25
471 1.64873 0.916348 6.06316 0.25
472 1.90657 7.63919 2.08123 0.25
473 7.60956 5.0987 5.36448 0.25
474 5.10163 5.69009 5.96499 0.25
475 1.37954 1.32162 2.80932 0.25
476 7.23508 0.861089 7.71364 0.25
477 3.24323 5.44691 3.78471 0.25
478 6.15521 3.33851 7.15764 0.25
479 3.37557 7.28112 7.5605 0.25
480 4.85398 0.453518 2.12285 0.25
481 7.77012 2.18487 4.16856 0.25
482 7.19995 5.03657 4.55106 0.25
483 8.25084 5.68483 4.83422 0.25
484 2.78794 0.737755 0.146075 0.25
485 7.90466 7.5842 6.65499 0.25
486 2.56554 6.12219 5.7664 0.25
487 8.13695 7.7615 4.20904 0.25
488 4.37305 4.05848 5.92529 0.25
489 0.74605 7.97929 0.183833 0.25
490 8.19782 7.9746 1.90639 0.25
491 4.60824 3.01531 1.23997 0.25
492 2.45366 1.67043 4.43083 0.25
493 6.36387 4.52665 6.98647 0.25
494 4.76301 7.47205 2.42807 0.25
495 1.2839 6.05302 5.90613 0.25
496 2.98165 7.87679 4.9399 0.25
497 6.49068 4.24531 7.76054 0.25
498 3.35989 2.91874 4.08151 0.25
499 0.558437 5.10351 7.33846 0.25
500 3.94372 2.90738 6.38917 0.25
501 6.1812 4.03416 4.13706 0.25
502 1.59191 8.026 7.6824 0.25
503 5.87304 5.05243 2.60258 0.5
504 7.83276 7.70072 2.14755 0.25
505 5.80063 1.31797 2.7101 0.25
506 7.14802 6.33001 4.64516 0.25
507 1.26189 0.387125 3.1937 0.25
508 0.553284 0.17629 5.43562 0.25
509 8.28723 4.92195 4.8256 0.5
510 4.80317 1.72201 5.74408 0.25
511 0.500996 0.625119 5.6366 0.25
512 0.878221 0.73753 3.06975 0.25
513 3.85689 1.00587 5.50769 0.25
514 1.96867 5.71071 6.08592 0.25
515 0.827504 7.95005 6.64756 0.25
516 7.34256 1.68344 6.0858 0.25
517 7.37814 5.48746 4.32943 0.25
518 1.01926 3.57484 4.59753 0.25
519 6.49262 1.97239 1.88364 0.25
520 6.74541 1.87117 6.72448 0.25
521 7.76458 1.62997 0.115654 0.25
522 6.67937 1.48293 7.80469 0.25
523 5.10807 6.72725 5.61401 0.25
524 2.63561 0.43915 7.57451 0.25
525 6.39593 4.13666 7.3204 0.25
526 6.92683 5.26542 6.83987 0.25
527 7.36107 8.00848 4.16065 0.25
528 7.38428 1.39041 6.4617 0.25
529 6.54891 1.26219 2.90668 0.25
530 2.15416 1.7328 6.15123 0.25
531 7.7564 7.92649 3.88814 0.25
532 1.32675 0.803635 2.89475 0.25
533 7.13855 1.352 7.88894 0.25
534 8.12369 5.83851 1.43547 0.25
535 0.393927 3.2888 5.47495 0.5
536 6.92287 2.80793 6.09366 0.25
537 4.0086 0.729027 5.8872 0.25
538 6.52447 5.2479 4.6546 0.25
539 2.40613 1.37228 5.99892 0.25
540 8.11638 6.396 1.92588 0.5
541 7.66464 4.03356 1.64311 0.25
542 2.16216 2.18436 7.91033 0.25
543 3.26973 7.32124 7.09392 0.25
544 7.55483 6.58739 6.65211 0.25
545 1.20372 5.99843 3.98664 0.25
546 4.75904 5.80065 6.32692 0.25
547 5.0739 2.78248 8.27115 0.25
548 6.03593 7.25109 6.61806 0.25
549 0.149265 7.82338 7.12343 0.25
550 6.14852 7.06063 8.31126 0.25
551 4.44274 1.64222 2.61035 0.25
552 3.73862 5.37875 3.91534 0.25
553 6.99854 7.74307 3.63524 0.5
554 4.41506 6.41536 3.18324 0.25
555 4.92248 6.7865 3.61405 0.5
556 7.20539 0.915699 0.816614 0.25
557 7.27932 4.98725 3.77478 0.5
558 6.38929 8.21096 3.36172 0.25
559 1.20441 0.339376 5.7836 0.5
560 5.20043 3.35562 2.36173 0.25
561 2.91997 3.08681 4.07062 0.25
562 5.19747 0.0962333 5.47451 0.25
563 2.16269 6.49216 1.59425 0.25
564 6.0601 6.89038 0.717928 0.5
565 6.4681 1.60098 6.45177 0.25
566 1.19168 1.69827 2.51669 0.25
567 4.30634 5.76496 6.12465 0.25
568 6.08962 1.26575 3.12342 0.25
569 2.48758 8.32365 7.98998 0.25
570 1.98065 6.53836 4.57787 0.25
571 3.05572 4.29325 7.18538 0.25
572 8.07533 2.81075 3.99607 0.5
573 3.93998 1.37713 2.48584 0.25
574 1.62805 6.00295 6.24279 0.25
575 2.07556 1.70932 8.20024 0.25
576 4.35333 5.75771 7.77321 0.25
577 5.26212 0.403555 5.07174 0.25
578 2.01427 7.67571 3.93837 0.25
579 7.60478 5.08772 7.42367 0.25
580 7.32012 0.250267 4.59643 0.5
581 4.30396 4.49824 6.12055 0.25
582 5.86471 3.01546 4.55602 0.25
583 5.81835 3.71787 4.66514 0.5
584 4.67164 6.50283 5.80017 0.25
585 5.0452 3.16713 1.31322 0.25
586 1.79763 0.244048 2.67579 0.5
587 4.90216 6.97003 2.5689 0.25
588 5.78628 5.19595 3.33473 0.25
589 0.105408 2.56304 7.58399 0.25
590 3.47014 6.45842 1.92117 0.25
591 6.47224 1.41644 0.978611 0.25
592 7.41881 7.19478 1.61153 0.5
593 6.8134 6.78078 1.39266 0.25
594 1.99567 4.84145 8.33018 0.5
595 0.598019 3.89715 8.00929 0.25
596 1.98593 0.823823 0.677355 0.25
597 8.33369 0.367066 5.07569 0.5
598 2.52708 6.38908 1.12052 0.25
599 2.02134 8.23608 7.89865 0.25
600 7.82279 1.01474 5.29005 0.25
601 0.747164 0.914626 5.95025 0.25
602 3.82907 0.0720651 2.18079 0.25
603 4.35722 5.64333 8.28291 0.25
604 7.46695 5.16682 6.93945 0.25
605 7.76311 2.10341 3.7072 0.25
606 2.35231 8.2735 2.29075 0.25
607 4.63766 5.37002 8.00692 0.25
608 3.5327 7.68809 7.35068 0.25
609 6.74629 4.85777 4.33317 0.25
610 1.65072 1.29937 5.73827 0.25
611 3.06002 0.633201 7.79346 0.25
612 0.949302 7.27287 0.0380313 0.25
613 6.91967 1.76259 8.15209 0.25
614 4.65489 0.920402 5.15253 0.25
615 4.8851 2.72653 3.72603 0.25
616 1.10694 5.58107 3.16163 0.25
617 1.54571 7.93523 2.28904 0.25
618 7.56304 7.29603 4.2277 0.5
619 7.8077 8.07118 4.34691 0.25
620 8.27717 7.32269 2.39021 0.5
621 4.3314 6.55992 4.01144 0.25
622 6.05599 6.46934 6.21478 0.25
623 5.35287 6.7673 0.754686 0.25
624 1.16896 3.3419 5.53859 0.25
625 1.30112 5.35846 7.64687 0.25
626 3.578 0.410608 1.33151 0.25
627 4.84083 4.65169 2.05879 0.25
628 8.25059 3.51077 2.45204 0.5
629 7.19947 3.4678 0.333138 0.25
630 1.20436 8.33095 3.01815 0.25
631 1.73157 1.44714 7.87153 0.25
632 7.72604 7.91334 1.68514 0.25
633 6.12369 7.67178 0.661178 0.25
634 3.02373 7.83649 4.07924 0.25
635 0.614801 7.06412 0.761501 0.5
636 1.44551 2.17263 1.3014 0.25
637 5.67142 0.403181 5.29915 0.25
638 4.69024 1.34643 5.40538 0.25
639 4.76984 1.89166 0.164899 0.25
640 5.23421 7.69448 0.457392 0.25
641 1.32189 6.66039 5.2477 0.25
642 3.62118 0.526123 5.64723 0.25
643 6.09962 6.76689 5.74221 0.25
644 5.79765 0.860252 2.93181 0.25
645 2.38546 2.12692 1.53363 0.25
646 8.09172 6.72311 6.53503 0.25
647 2.40951 2.9509 4.10877 0.25
648 5.35118 1.25993 0.129872 0.25
649 0.541937 4.01435 1.81186 0.25
650 8.31015 3.70654 1.32272 0.25
651 3.246 3.14345 3.67871 0.25
652 7.16926 0.662983 6.83845 0.25
653 1.26305 6.54467 0.921975 0.25
654 0.433803 2.48803 0.037311 0.25
655 3.49479 3.49513 6.463 0.5
656 0.519941 3.56392 7.19932 0.25
657 1.47273 5.6254 6.0069 0.25
658 6.75993 0.06678 3.67616 0.25
659 2.48906 1.87989 7.96019 0.25
660 6.99963 6.0122 3.94738 0.5
661 8.20441 0.980351 8.24934 0.25
662 3.98282 4.74283 4.33015 0.25
663 2.55325 3.68598 1.72434 0.25
664 6.49628 2.6262 4.98049 0.25
665 7.86304 3.87734 1.24606 0.25
666 5.83552 6.79284 6.56428 0.25
667 6.68377 3.5541 0.114403 0.25
668 7.06814 6.49129 1.67831 0.25
669 5.97786 4.81934 7.13399 0.25
670 5.58166 0.159542 4.32334 0.25
671 3.45705 4.84868 4.46662 0.25
672 2.75766 3.3036 2.04458 0.25
673 0.567406 1.09726 2.99186 0.25
674 4.95105 7.41644 3.22208 0.25
675 5.52832 3.88951 5.30389 0.25
676 7.75295 8.15674 2.10958 0.25
677 6.38667 1.66315 1.43753 0.25
678 7.52368 6.31622 4.93121 0.25
679 1.31268 6.34304 1.36962 0.25
680 3.72799 6.75321 8.15627 0.25
681 7.69689 0.0147564 4.00697 0.25
682 2.41656 6.07094 1.48489 0.25
683 1.60787 7.75002 7.26704 0.25
684 0.444411 3.68927 1.45796 0.25
685 2.72892 3.25125 6.64956 0.25
686 4.34247 2.79502 6.71893 0.25
687 1.92212 4.30724 0.471796 0.25
688 3.61776 0.517053 6.1172 0.25
689 6.16576 4.11524 8.13107 0.25
690 6.17148 1.05348 2.73947 0.25
691 7.06816 1.20108 1.74438 0.25
692 5.0718 5.11472 1.92151 0.25
693 7.19856 1.88862 6.53576 0.25
694 7.57184 5.09141 4.90034 0.25
695 0.0521642 3.20961 6.17348 0.25
696 5.71608 5.98442 3.25023 0.5
697 4.23432 3.69545 6.30345 0.25
698 1.59264 0.872684 5.53673 0.25
699 1.70187 6.75535 4.8711 0.25
700 4.16631 5.64903 1.15876 0.25
701 4.85083 1.76967 8.06291 0.25
702 2.24818 4.37826 7.31447 0.25
703 3.39828 6.60341 7.49534 0.5
704 4.82177 4.97653 8.24506 0.25
705 5.13832 3.23757 1.82026 0.25
706 5.23281 0.226756 0.106495 0.25
707 4.70595 3.78917 1.31946 0.5
708 5.44489 7.65208 7.95031 0.25
709 2.56411 7.16147 1.98467 0.5
710 2.12242 4.49495 6.87655 0.25
711 5.22705 6.44291 3.00803 0.25
712 0.500253 5.20322 7.78652 0.25
713 2.63705 4.11637 1.82762 0.25
714 5.17901 4.12379 0.850028 0.25
715 4.75688 6.52785 2.87668 0.25
716 6.79485 1.00105 7.83557 0.25
717 7.75448 7.72565 3.43529 0.25
718 6.01281 3.53469 6.75027 0.25
719 6.03791 4.51502 7.92171 0.25
720 1.72081 7.86775 4.26507 0.25
721 6.87013 1.79613 2.21142 0.25
722 2.56086 7.74629 3.46784 0.5
723 2.63168 7.55336 2.68729 0.25
724 7.12428 6.46807 1.21026 0.25
725 7.58132 6.44355 7.1715 0.25
726 0.896024 0.992702 5.48954 0.25
727 4.10297 0.395731 1.38816 0.25
728 3.72168 6.23011 8.07087 0.25
729 5.03627 6.08947 3.69393 0.25
730 2.92748 7.1596 7.32765 0.25
731 5.363 3.4079 2.82486 0.25
732 4.09795 3.59923 6.82336 0.25
733 3.8597 5.57661 7.61414 0.25
734 3.89584 0.889149 2.70622 0.25
735 3.50268 2.74608 6.62114 0.25
736 7.94388 1.3571 8.14966 0.25
737 3.57706 0.681451 0.900677 0.25
738 0.257405 7.96246 0.245008 0.25
739 4.87662 6.16559 3.18976 0.25
740 5.42304 7.24887 3.16319 0.25
741 0.563112 7.79767 0.628721 0.25
742 3.76611 4.54145 6.12047 0.25
743 7.15785 0.961036 1.3059 0.25
744 4.3368 0.807882 2.40097 0.25
745 3.54238 4.12466 5.99881 0.25
746 1.39461 6.09174 4.71171 0.5
747 4.33423 0.391134 2.16837 0.25
748 2.78851 6.64664 7.15369 0.25
749 1.47211 1.38902 2.32189 0.25
750 0.0455144 3.37626 1.67605 0.25
751 1.26963 0.742617 5.18056 0.25
752 6.42674 4.77032 7.87056 0.25
753 3.83593 0.799383 1.93387 0.5
754 4.21158 5.91135 1.61444 0.25
755 2.88639 2.72757 1.43545 0.5
756 7.76687 6.91184 7.42601 0.25
757 5.5992 6.77418 5.62017 0.25
758 6.81652 3.94714 7.4147 0.25
759 4.33604 8.09262 5.22763 0.25
760 0.106426 2.68375 3.38064 0.25
761 3.71839 7.23106 7.1871 0.25
762 0.570014 1.5731 3.48089 0.5
763 3.88335 8.07986 1.80935 0.25
764 1.3636 6.21206 0.58145 0.25
765 7.46291 4.93901 3.04041 0.25
766 0.570431 4.32499 2.31169 0.25
767 2.67162 6.88371 7.6005 0.25
768 2.29554 2.86958 5.08444 0.25
769 8.00033 3.64661 1.68368 0.25
770 4.97023 1.02151 8.22591 0.25
771 6.6798 1.26082 6.11191 0.25
772 4.76449 2.50947 8.05057 0.25
773 5.36788 1.06219 4.96276 0.5
774 3.84121 8.01954 5.04366 0.25
775 7.93443 4.42111 2.62855 0.5
776 6.97612 4.06729 0.603463 0.5
777 5.94278 6.65239 0.0661133 0.25
778 5.06114 8.19032 0.356994 0.25
779 8.17044 8.17949 3.98712 0.25
780 2.03525 1.54554 5.71647 0.25
781 2.59647 1.68841 0.0444921 0.25
782 1.22104 7.52925 0.70211 0.25
783 6.78361 3.28699 0.507887 0.25
784 2.30421 7.74545 2.36899 0.25
785 2.44042 1.81881 5.75291 0.25
786 2.72245 7.88532 2.3326 0.25
787 7.70199 7.09522 6.60238 0.25
788 0.140908 4.16585 2.13664 0.25
789 3.73127 7.88183 4.55672 0.25
790 6.99608 0.21352 6.70836 0.25
791 0.550844 4.73177 2.9917 0.5
792 2.22134 0.37384 7.87491 0.25
793 8.13253 7.05395 1.71383 0.25
794 5.25302 6.42393 6.26118 0.5
795 2.36679 4.14224 3.28263 0.25
796 2.21993 5.79056 5.67494 0.25
797 6.71023 6.66093 0.950697 0.25
798 7.81897 4.3429 1.29825 0.25
799 4.12579 3.26194 6.06962 0.25
800 7.85092 2.06104 3.22586 0.25
801 3.25872 7.81889 6.99681 0.25
802 3.8081 5.17454 4.37053 0.25
803 3.15234 8.27496 7.67196 0.5
804 3.59984 6.94378 1.79333 0.25
805 1.91661 8.16446 2.01673 0.25
806 2.63672 1.71683 3.96963 0.25
807 4.54068 6.18846 5.47542 0.25
808 4.12047 2.06297 7.98408 0.25
809 1.75293 5.97942 5.77721 0.25
810 6.43015 7.34342 6.39574 0.25
811 1.62995 3.2346 4.85266 0.5
812 5.69833 7.53748 0.497596 0.25
813 4.29297 1.90855 3.05608 0.25
814 1.54915 7.52796 7.67707 0.25
815 2.95039 8.10087 4.45287 0.25
816 0.9953 2.96674 5.26416 0.25
817 4.41241 1.67515 8.17948 0.25
818 3.80037 1.93345 3.22163 0.25
819 1.89226 5.19575 0.879792 0.25
820 3.3889 3.0226 6.9773 0.25
821 1.48369 2.07218 8.20055 0.5
822 5.97027 4.41093 3.45434 0.5
823 5.14025 0.556657 8.12175 0.25
824 0.759738 0.600654 5.1868 0.25
825 3.98557 6.09311 7.66843 0.25
826 3.17802 3.64839 1.44146 0.5
827 5.63189 7.12694 6.28681 0.25
828 0.299029 2.1105 7.62385 0.25
829 8.28692 8.17535 4.50978 0.25
830 0.786204 1.91372 2.86911 0.25
831 2.21664 4.38369 7.75861 0.25
832 5.74503 4.67789 1.94274 0.25
833 1.91003 1.31057 6.15514 0.25
834 4.07149 0.397881 2.57175 0.25
835 6.80947 1.70104 1.15582 0.25
836 3.34346 7.63084 7.87013 0.25
837 4.11277 5.29016 7.9858 0.25
838 7.57138 0.76157 1.15546 0.25
839 5.98361 7.5018 6.21808 0.25
840 6.9836 4.68349 7.39865 0.5
841 3.21173 6.78607 2.11476 0.25
842 0.099244 2.20144 2.8653 0.5
843 6.00218 3.86401 5.396 0.25
844 4.71938 2.43545 0.142451 0.25
845 7.44922 2.70026 5.40262 0.25
846 3.72414 3.44489 7.45529 0.5
847 2.31949 5.03944 0.578127 0.25
848 1.81178 5.89235 5.34464 0.25
849 5.14897 7.76058 2.51023 0.25
850 6.28576 2.84318 5.61991 0.5
851 5.55489 8.32878 5.11395 0.25
852 7.08502 1.77631 7.6957 0.25
853 4.15926 8.14827 4.74945 0.25
854 4.13488 1.49185 5.99067 0.5
855 0.418708 4.034 5.19474 0.25
856 0.697333 5.46828 3.0517 0.25
857 3.6128 6.53524 1.41334 0.25
858 2.69027 4.72844 3.7881 0.25
859 6.62145 4.61482 3.87646 0.25
860 7.74067 4.16878 0.860673 0.25
861 4.80914 2.98423 7.91045 0.25
862 6.63067 4.86149 3.42128 0.25
863 5.60428 6.27149 8.32962 0.25
864 7.66808 6.898 2.27571 0.25
865 3.92173 5.75721 8.04441 0.25
866 5.08376 8.15284 2.80013 0.25
867 1.90078 3.99578 7.56238 0.25
868 2.04219 1.58231 0.555397 0.5
869 0.918836 3.24575 7.2997 0.25
870 6.16489 5.50858 3.12875 0.25
871 2.88017 7.45323 6.94529 0.25
872 5.81889 3.11356 5.0817 0.25
873 0.453829 7.90051 8.15404 0.25
874 3.78448 0.920502 6.36244 0.25
875 2.22294 4.13883 1.20232 0.5
876 1.40432 5.75047 5.50926 0.25
877 0.0250981 5.3505 7.87521 0.25
878 5.79682 0.915032 2.4628 0.25
879 3.38293 8.11018 4.76157 0.25
880 6.43611 5.98568 2.96032 0.25
881 7.58993 1.12802 1.45864 0.25
882 7.78586 7.25247 7.0629 0.25
883 0.531159 3.86559 2.33505 0.25
884 7.19735 3.3507 0.821029 0.25
885 0.826689 4.25972 5.14599 0.25
886 7.97656 7.44154 3.08634 0.25
887 1.1286 6.86999 1.28773 0.25
888 1.13932 4.73871 3.48215 0.25
889 1.47554 7.97954 2.8201 0.25
890 0.207516 4.61648 2.37261 0.25
891 0.924099 2.48275 7.86805 0.25
892 7.5479 3.67741 0.94668 0.25
893 1.03395 7.96883 0.639151 0.25
894 3.81602 5.77236 1.46201 0.25
895 3.72343 5.82192 0.991381 0.25
896 1.74356 1.32233 8.29891 0.25
897 8.17693 4.14237 1.56059 0.25
898 0.674913 4.64965 3.7981 0.25
899 0.713464 8.12575 5.67918 0.25
900 5.03845 6.18912 5.66946 0.25
901 0.871261 1.47029 2.79027 0.25
902 7.40148 4.06098 1.2461 0.25
903 5.92762 3.71179 3.85084 0.25
904 6.97392 4.05423 7.85246 0.25
905 5.23648 0.964165 5.9572 0.25