ITEM: TIMESTEP
120000
ITEM: NUMBER OF ATOMS
1000
ITEM: BOX BOUNDS xy xz yz pp pp pp
0.0000000000000000e+00 8.3788359999999997e+00 0.0000000000000000e+00
0.0000000000000000e+00 8.3788359999999997e+00 0.0000000000000000e+00
0.0000000000000000e+00 8.3788359999999997e+00 0.0000000000000000e+00
ITEM: ATOMS id x y z radius
1 2.73019 6.97469 4.64674 0.25
2 4.46023 5.04229 5.00728 0.25
3 7.23267 4.74503 3.52578 0.25
4 7.39551 0.764497 6.25589 0.5
5 0.927525 5.66387 5.91407 0.25
6 8.08703 1.82065 3.23199 0.25
7 4.09442 3.29867 6.46916 0.25
8 4.69521 7.74487 2.91288 0.25
9 1.1629 6.274 3.39664 0.25
10 4.07628 1.62989 3.14059 0.25
11 5.7589 0.385995 8.25746 0.25
12 5.107 3.25674 2.0317 0.25
13 0.0308617 2.57669 7.37365 0.25
14 3.53548 2.80027 7.17873 0.25
15 8.06593 2.87345 6.44069 0.25
16 7.06765 0.32037 6.75457 0.25
17 0.79736 4.96174 8.372 0.25
18 5.73579 7.77399 7.6636 0.25
19 4.35103 2.06613 7.54046 0.25
20 7.50696 1.40919 0.541776 0.25
21 5.07336 4.11387 2.14967 0.25
22 4.33829 3.38324 1.07605 0.25
23 2.34014 3.26847 1.86789 0.25
24 2.65332 1.26136 3.82405 0.25
25 2.13459 4.45396 2.87801 0.25
26 0.313526 0.132317 5.86315 0.25
27 4.11575 1.28614 5.90481 0.25
28 4.36983 2.50764 8.25367 0.25
29 5.11644 6.91596 3.03768 0.25
30 7.04952 7.69848 2.60736 0.25
31 2.94652 0.549231 7.66652 0.25
32 0.962407 2.70642 7.22688 0.25
33 7.79163 0.551209 5.61094 0.25
34 2.05277 4.89111 1.45033 0.25
35 8.21593 0.225988 4.55925 0.25
36 7.28652 1.56147 5.60012 0.5
37 4.41195 1.04604 2.26902 0.25
38 2.08666 3.42722 4.25287 0.25
39 6.33575 2.71544 4.96729 0.25
40 5.14763 7.85661 3.10861 0.25
41 6.87962 2.23605 2.54004 0.25
42 5.41367 5.91842 5.50974 0.25
43 3.05091 7.81149 4.50007 0.25
44 3.82776 0.849068 6.07344 0.25
45 5.68871 4.16891 4.44326 0.25
46 3.80196 5.71603 1.33879 0.5
47 4.65723 0.474347 5.10195 0.25
48 8.06787 6.33934 7.11875 0.25
49 7.31154 7.12262 4.89765 0.25
50 7.57246 1.00071 0.773623 0.25
51 2.53064 3.29214 4.38986 0.25
52 0.826423 1.74775 2.52965 0.25
53 6.80494 5.32156 6.6112 0.25
54 5.98789 3.38586 4.36327 0.25
55 1.57748 1.49948 5.75451 0.25
56 0.710697 7.37508 0.183867 0.25
57 4.704 0.824426 1.90658 0.25
58 2.21266 2.00414 4.03868 0.25
59 5.55896 1.2697 5.26377 0.25
60 0.446455 5.55321 5.19922 0.25
61 5.37668 0.17425 7.8243 0.25
62 5.31172 2.08049 7.83075 0.5
63 7.77794 6.36981 1.56454 0.25
64 1.33551 6.26321 0.907919 0.25
65 4.19096 0.128552 1.60732 0.25
66 1.93831 4.79403 7.24463 0.25
67 7.67242 4.93057 7.47684 0.25
68 7.00367 0.125019 6.26634 0.25
69 0.148677 5.51288 8.18793 0.25
70 1.9903 4.50971 0.685422 0.25
71 7.91242 1.52451 0.212026 0.25
72 6.41287 6.27429 3.72773 0.25
73 0.746147 7.51998 6.84949 0.25
74 7.491 5.75971 6.89933 0.25
75 7.09972 0.395769 3.48121 0.25
76 7.47536 6.84463 4.47599 0.25
77 5.81173 2.818 5.66527 0.25
78 5.44587 3.46189 1.64664 0.25
79 8.12959 5.70889 5.21051 0.25
80 6.02141 3.28169 5.70186 0.25
81 6.83479 1.5707 1.13643 0.25
82 8.06013 2.90729 5.92497 0.25
83 4.25654 5.67554 5.5623 0.25
84 1.18319 1.17598 5.73042 0.25
85 1.6804 1.51626 5.30672 0.25
86 4.11605 0.397094 5.94935 0.25
87 1.93276 1.58052 1.0307 0.25
88 3.68909 6.48404 1.51132 0.25
89 6.75198 7.35926 0.835746 0.25
90 5.28527 6.3824 5.32569 0.25
91 3.82101 4.05037 6.11963 0.25
92 6.22568 4.7 7.0449 0.25
93 4.7885 6.43381 5.22883 0.25
94 6.75869 7.82638 4.49981 0.25
95 0.344299 4.43337 7.93928 0.5
96 5.44392 3.202 3.81815 0.5
97 4.36456 4.8264 8.06408 0.25
98 0.294069 2.42729 3.28262 0.25
99 1.45108 6.3265 5.72905 0.25
100 7.16003 7.28038 1.11776 0.25
101 0.31837 8.15405 0.269302 0.25
102 8.10486 5.0556 3.64039 0.25
103 6.59363 1.4668 1.5658 0.25
104 0.431947 5.54055 7.77626 0.25
105 4.83881 5.70572 5.01365 0.5
106 4.30481 8.08511 4.90524 0.25
107 3.9363 3.48612 6.8785 0.25
108 4.67402 1.67235 8.22033 0.25
109 0.643863 0.345784 6.21336 0.25
110 2.1702 7.89696 8.1688 0.25
111 2.85442 3.70832 6.8749 0.25
112 4.60124 2.41461 7.83628 0.25
113 2.09059 1.82477 1.68165 0.5
114 1.61947 4.13869 6.85566 0.25
115 4.52177 6.1872 6.15457 0.25
116 2.52947 6.42317 7.28382 0.25
117 4.03388 2.27182 3.66339 0.5
118 6.76046 7.61112 1.3003 0.25
119 0.349184 6.11791 2.37957 0.25
120 0.439378 2.66966 2.18706 0.25
121 3.10722 3.86762 3.53029 0.25
122 6.70959 0.466934 6.47762 0.25
123 4.95071 0.179153 5.36059 0.25
124 7.94471 7.93794 2.72405 0.25
125 3.35013 1.98266 3.69994 0.25
126 4.37066 1.84425 5.34554 0.25
127 5.35 3.69007 2.09516 0.25
128 7.0015 5.62187 6.96567 0.25
129 1.05798 6.18729 3.89682 0.25
130 5.64693 6.34924 0.76856 0.25
131 6.95101 1.39362 6.27257 0.25
132 5.89052 4.39151 7.30573 0.25
133 3.11134 1.72123 3.34539 0.25
134 4.52043 2.88729 7.9629 0.25
135 5.60989 3.98429 3.98858 0.25
136 2.71887 2.38004 3.68409 0.5
137 2.80491 3.88254 3.10003 0.25
138 7.33706 8.25282 3.03234 0.5
139 2.09206 7.52829 4.58647 0.25
140 5.27502 8.03588 7.71018 0.25
141 0.519296 5.37873 5.63444 0.25
142 0.925901 5.17697 2.88871 0.25
143 1.98892 1.96369 8.32019 0.25
144 4.95881 0.947073 2.69863 0.5
145 7.50437 2.27654 3.7884 0.25
146 6.0321 7.37324 0.0278721 0.25
147 6.79902 5.95622 4.83127 0.25
148 1.88482 2.97382 4.20478 0.25
149 4.52836 8.14112 2.2064 0.5
150 5.29996 2.81918 4.42843 0.25
151 3.532 5.74082 7.28613 0.25
152 3.3666 4.54309 5.61534 0.25
153 6.59896 6.26346 2.62674 0.5
154 7.39097 2.43023 4.60433 0.5
155 3.00953 7.54492 7.75479 0.25
156 7.51408 3.79643 1.64997 0.25
157 7.3371 6.09162 1.60884 0.25
158 2.6884 3.74064 0.773859 0.25
159 7.08178 8.23421 4.5286 0.25
160 6.7078 2.07434 2.9813 0.25
161 0.535113 5.3405 2.62635 0.25
162 6.00481 3.89863 7.28285 0.25
163 3.29698 3.53472 4.19852 0.5
164 2.49978 3.98923 2.36256 0.5
165 5.72631 8.24193 7.6208 0.25
166 0.151837 3.66734 8.04633 0.25
167 6.38539 4.40782 0.353185 0.25
168 4.62018 5.9434 5.77745 0.25
169 3.78935 4.29919 5.67929 0.25
170 0.0340625 2.70555 6.13006 0.25
171 7.63463 5.98272 1.31112 0.25
172 1.15385 2.93441 6.79643 0.25
173 4.16715 6.18628 5.83762 0.25
174 2.58123 2.20151 0.731211 0.25
175 7.77785 2.21705 6.10621 0.5
176 2.2456 6.34191 5.84726 0.25
177 5.6328 3.67471 4.35694 0.25
178 3.45226 6.19542 1.77125 0.25
179 3.3725 2.20729 3.30508 0.25
180 5.77776 6.36108 5.54505 0.25
181 6.64801 4.40095 7.01958 0.25
182 3.08501 5.08873 3.29513 0.25
183 7.87801 7.67524 1.71102 0.25
184 4.42738 5.13225 0.0406076 0.25
185 5.7131 6.75433 5.90181 0.25
186 7.69412 6.38043 4.59376 0.25
187 3.18996 5.16571 4.16069 0.25
188 0.763735 6.04204 3.09029 0.25
189 4.16377 6.45716 3.55181 0.25
190 4.15941 3.25115 1.50148 0.25
191 6.86127 1.84111 0.493444 0.5
192 0.676605 5.11802 7.93805 0.25
193 4.17044 5.07766 1.00689 0.25
194 3.07055 5.95902 1.52222 0.25
195 6.26493 5.66644 3.00889 0.25
196 2.1659 7.48428 2.14002 0.25
197 1.07137 0.287541 2.14689 0.25
198 7.32634 4.83837 7.82768 0.25
199 1.24754 0.917053 2.77428 0.25
200 4.86756 4.83634 1.5187 0.5
201 6.88009 1.60326 3.0714 0.25
202 8.25369 3.89208 5.57745 0.25
203 3.61417 1.72758 3.37102 0.25
204 5.63783 8.04258 8.35497 0.5
205 2.30261 7.18058 4.00006 0.5
206 0.447026 4.38589 5.4043 0.25
207 5.80764 2.89225 4.35208 0.25
208 7.12989 5.59848 4.65902 0.25
209 5.23397 7.17879 0.161149 0.5
210 1.92344 7.79887 2.46962 0.25
211 0.614224 3.69239 5.17064 0.25
212 1.43917 7.57113 8.28618 0.5
213 7.97094 3.94345 3.14785 0.25
214 1.84845 7.83919 1.98044 0.25
215 2.85022 4.06426 3.92903 0.25
216 6.39846 2.02734 2.53 0.25
217 4.91418 3.64961 2.35227 0.25
218 2.20361 3.06046 4.59086 0.25
219 4.23693 1.22679 2.78605 0.25
220 3.84005 3.24857 1.11904 0.25
221 4.36553 0.875881 6.10369 0.25
222 7.38398 0.803774 5.51379 0.25
223 8.349 2.7498 2.39119 0.25
224 7.32662 5.63942 7.36691 0.25
225 6.99846 2.19158 5.29309 0.25
226 4.77113 2.25944 7.39983 0.25
227 6.53815 3.93269 7.29166 0.25
228 5.55049 3.2271 4.61449 0.25
229 5.91532 4.89796 2.19661 0.25
230 0.438787 8.0716 6.5045 0.5
231 5.70384 4.25447 1.80019 0.5
232 2.05713 2.89742 3.73133 0.25
233 4.0297 5.0569 4.0569 0.25
234 6.48146 0.893176 6.77806 0.25
235 2.86325 7.39903 4.42314 0.25
236 0.665677 2.17917 7.85415 0.25
237 8.28694 3.37558 7.71133 0.25
238 3.54393 0.759699 1.18285 0.25
239 0.446525 2.22806 3.76331 0.25
240 6.64024 6.61588 1.1698 0.25
241 3.3222 7.08355 7.95262 0.25
242 1.53604 7.17442 2.25611 0.5
243 2.79808 4.70578 3.31851 0.25
244 7.08919 3.86232 1.47861 0.25
245 2.20174 0.990972 6.00034 0.25
246 7.45824 0.16722 3.79608 0.25
247 3.39233 2.52645 3.69135 0.25
248 3.80982 2.91308 1.47797 0.25
249 8.13467 4.88716 7.67806 0.25
250 1.10852 3.09972 5.47264 0.25
251 5.59307 2.56913 5.028 0.5
252 3.10552 1.92272 4.19432 0.25
253 8.0349 5.62648 7.54817 0.5
254 7.61492 6.09885 7.25061 0.25
255 5.00644 0.882201 5.58928 0.5
256 6.01006 6.26847 0.454505 0.25
257 0.806453 0.246068 2.53579 0.25
258 1.62606 1.71262 2.27888 0.25
259 4.26384 2.77975 1.59187 0.25
260 8.14226 6.00041 1.40303 0.25
261 3.72532 0.569611 0.774035 0.25
262 3.40884 2.3007 4.1268 0.25
263 2.40418 0.197624 8.01177 0.5
264 2.70553 4.18901 3.45977 0.25
265 1.15679 3.87495 7.49874 0.5
266 1.40124 7.98907 6.92487 0.5
267 5.27575 3.15954 7.67855 0.25
268 6.10981 7.65601 7.93042 0.25
269 1.8318 4.97168 0.63604 0.25
270 4.02121 3.71044 1.28508 0.25
271 7.10587 7.95852 4.91483 0.25
272 1.50797 0.85324 2.34387 0.25
273 1.37452 3.279 7.02368 0.25
274 0.652313 5.45526 8.26132 0.25
275 5.56655 4.68865 1.19065 0.25
276 2.6557 3.24831 0.811301 0.25
277 6.60852 0.382917 6.93259 0.25
278 4.40907 6.03057 1.73369 0.25
279 3.95646 0.789245 5.38085 0.5
280 8.19913 8.28266 4.90188 0.25
281 1.1837 6.71445 0.746062 0.25
282 6.09216 6.96637 5.9938 0.25
283 1.03235 0.0703651 6.45962 0.25
284 7.65975 4.56671 1.05146 0.25
285 1.95988 6.02617 1.16711 0.5
286 5.36792 6.53921 3.12855 0.25
287 1.54526 7.92479 3.1028 0.5
288 2.53269 7.40679 4.76771 0.25
289 2.07223 7.31093 5.05713 0.25
290 2.06973 3.66995 1.86829 0.25
291 8.31397 7.64907 7.37262 0.25
292 7.78004 2.5454 3.4962 0.25
293 7.75319 4.7096 3.70574 0.25
294 5.81246 3.93605 3.53277 0.25
295 0.0230645 3.9841 1.12852 0.25
296 0.483672 4.20514 4.69745 0.5
297 3.72208 3.05864 6.78687 0.25
298 6.5188 5.53563 6.96217 0.25
299 5.8969 5.03035 6.83489 0.25
300 6.09744 4.16145 0.702188 0.25
301 0.756148 7.87041 0.136476 0.25
302 0.391691 3.942 1.48917 0.25
303 4.04608 0.839763 1.09439 0.25
304 1.97603 2.18975 4.45962 0.25
305 1.41901 5.57845 7.86837 0.25
306 2.2472 1.76811 4.4693 0.25
307 1.35785 4.8494 7.70316 0.5
308 3.63651 5.688 3.1138 0.25
309 4.56335 1.02376 5.0467 0.25
310 1.48604 4.85559 3.6033 0.25
311 7.22546 0.30806 4.25177 0.25
312 0.792166 0.953223 2.23706 0.5
313 1.0593 3.59239 5.42325 0.25
314 5.37171 3.97038 3.53149 0.25
315 1.81234 5.32114 8.06601 0.25
316 1.70672 4.34334 7.31895 0.25
317 7.57879 2.73524 3.91153 0.25
318 2.04842 2.5077 4.07841 0.25
319 4.57868 7.51237 8.25993 0.25
320 1.84602 6.09826 5.90902 0.25
321 4.35894 0.517528 1.31785 0.25
322 7.25865 6.79324 5.26054 0.25
323 0.819772 5.7744 4.17939 0.25
324 4.0384 7.17015 7.76789 0.5
325 0.903778 1.70103 0.267918 0.25
326 3.81719 4.70076 5.03723 0.5
327 7.03397 7.75328 3.59703 0.25
328 2.75496 7.49518 1.60974 0.25
329 1.21642 6.02453 2.93491 0.25
330 0.119916 7.14996 7.43555 0.25
331 1.11232 5.49624 3.54882 0.5
332 6.90999 6.70741 2.10805 0.25
333 1.37139 1.74506 1.85607 0.25
334 6.87212 1.59197 1.89851 0.25
335 3.93285 2.51606 1.30449 0.25
336 2.80036 6.67537 6.88522 0.25
337 4.34559 7.07047 3.07363 0.5
338 5.75284 7.37667 8.00754 0.25
339 2.12611 7.77884 3.5866 0.25
340 4.23483 0.202572 4.97971 0.25
341 6.65697 0.293757 3.21854 0.25
342 0.905758 5.52361 7.83432 0.25
343 2.95185 1.11958 8.33347 0.25
344 0.677315 5.71555 2.31014 0.25
345 0.522253 1.41755 2.76893 0.25
346 0.38154 2.34644 8.2193 0.25
347 3.42061 5.73518 7.76257 0.25
348 7.15168 8.07492 2.27179 0.25
349 0.682796 2.00124 8.32 0.25
350 6.83468 1.74121 2.58881 0.25
351 1.54338 6.9605 0.409512 0.25
352 6.1959 4.12254 8.01731 0.5
353 2.66764 7.83027 8.00957 0.25
354 1.92904 0.772061 5.60884 0.25
355 0.814924 0.00185024 5.94974 0.25
356 1.98219 1.78487 5.70392 0.25
357 2.60599 3.85155 6.44328 0.25
358 6.39519 3.43277 5.45147 0.25
359 5.34639 1.56615 5.57896 0.25
360 2.24591 1.98057 0.959199 0.25
361 0.682918 8.07553 0.597865 0.25
362 6.23749 3.64646 6.95834 0.25
363 7.66748 3.99904 2.74023 0.25
364 5.80343 3.60484 7.63097 0.25
365 5.55138 6.1258 0.322831 0.25
366 5.20168 6.45851 0.435341 0.25
367 2.19264 4.86291 6.84305 0.25
368 6.74731 4.10545 0.209445 0.25
369 0.688439 7.26763 0.707644 0.25
370 5.4211 0.67686 7.97762 0.25
371 2.06692 7.85009 4.16673 0.25
372 2.34926 4.11689 0.575927 0.25
373 7.16768 2.63308 5.28195 0.25
374 3.552 4.2424 4.46969 0.25
375 5.04792 1.00266 7.83415 0.25
376 2.34969 5.60804 1.64935 0.25
377 6.22633 1.40262 2.23304 0.5
378 0.365391 3.68267 7.59437 0.25
379 4.80677 1.45867 7.79226 0.25
380 2.21848 6.99849 4.67795 0.25
381 3.85467 5.31663 5.52694 0.25
382 1.79065 7.16517 4.60777 0.25
383 6.45071 5.39344 4.3033 0.5
384 1.54233 1.60294 1.32782 0.25
385 7.0109 1.39938 7.0039 0.5
386 1.59362 1.09242 5.47551 0.25
387 7.14734 1.10501 0.440955 0.25
388 0.422095 5.80063 2.7509 0.25
389 4.30364 2.87529 7.19509 0.5
390 4.59932 1.34515 5.99527 0.25
391 5.58343 4.68073 2.41901 0.25
392 7.91531 2.78967 3.15059 0.25
393 3.29177 6.27386 1.29399 0.25
394 8.36078 7.82305 0.368949 0.25
395 2.46399 1.57781 1.11302 0.25
396 4.85018 7.3916 7.84857 0.25
397 5.01645 0.798041 8.26582 0.25
398 7.40217 2.14547 0.0389155 0.25
399 2.63923 4.40201 2.95012 0.25
400 6.19519 4.1797 1.16749 0.25
401 2.02088 6.94575 3.3695 0.25
402 0.208856 8.06089 7.19165 0.25
403 7.89467 6.30566 1.0611 0.25
404 8.08432 6.83306 7.30005 0.25
405 0.188214 8.09656 0.769622 0.25
406 4.46322 7.80597 4.47252 0.25
407 2.45898 1.11689 7.74377 0.5
408 5.36468 3.32725 2.98965 0.25
409 2.16778 4.84066 0.963634 0.25
410 7.41253 1.46655 8.12059 0.5
411 4.18144 5.36464 5.18698 0.25
412 8.21868 7.30104 7.03833 0.25
413 1.00722 1.2576 0.137427 0.25
414 0.526136 2.98333 7.76888 0.5
415 6.66531 4.71701 3.45873 0.25
416 2.58487 3.34873 6.47143 0.25
417 3.37697 4.58383 3.739 0.5
418 7.01747 7.00566 4.48481 0.25
419 3.69385 3.80573 5.71617 0.25
420 0.875071 3.04686 4.69739 0.25
421 3.88197 4.798 5.73848 0.25
422 2.25551 5.35554 1.21421 0.25
423 0.614676 0.483683 5.7652 0.25
424 0.352687 3.41426 4.91439 0.25
425 2.25151 2.7555 1.12902 0.5
426 7.45583 6.03457 5.229 0.5
427 2.62212 1.7282 4.11312 0.25
428 3.97687 5.01758 3.58513 0.25
429 4.26041 4.44118 5.55739 0.25
430 1.61125 7.14694 3.11789 0.25
431 0.935668 3.46737 6.89052 0.25
432 1.45278 6.88048 3.90646 0.5
433 1.87359 1.64565 7.52615 0.25
434 1.00421 6.62191 1.20043 0.25
435 5.6315 3.59765 3.26898 0.25
436 0.790634 6.13767 2.61808 0.25
437 8.13015 1.16951 0.0395225 0.25
438 0.797924 3.31687 5.08311 0.25
439 3.7092 2.57691 6.79288 0.25
440 4.75012 1.79124 7.39272 0.25
441 8.02944 4.36627 5.53694 0.25
442 1.92161 5.36438 1.57333 0.25
443 0.388396 2.91017 6.78289 0.5
444 2.21951 3.41572 1.42307 0.25
445 5.5203 7.26924 0.774742 0.25
446 4.22328 5.66008 3.55813 0.5
447 1.60475 1.98679 5.54069 0.25
448 5.71839 7.19868 5.68946 0.25
449 0.92262 5.519 5.45787 0.25
450 3.04919 3.44751 0.980194 0.25
451 2.50109 7.05793 5.10481 0.25
452 2.59827 0.795633 0.110268 0.25
453 5.24387 4.2641 1.15565 0.25
454 0.043034 3.48831 7.24021 0.25
455 7.77215 5.07635 7.94772 0.25
456 2.9305 1.69714 3.76073 0.25
457 2.34158 4.18483 7.0985 0.5
458 8.26492 7.83202 6.88938 0.25
459 4.9573 7.83114 8.07743 0.25
460 4.69425 7.86225 4.88918 0.25
461 2.6742 3.4606 1.21787 0.25
462 6.45387 5.07429 3.67752 0.25
463 4.99725 7.40934 2.95363 0.25
464 7.69786 6.93773 7.6022 0.25
465 7.20711 2.34921 5.68226 0.25
466 4.09383 1.68919 2.63923 0.25
467 4.20847 5.12592 1.46703 0.25
468 6.97092 5.40541 3.34916 0.5
469 7.53064 7.39459 7.44337 0.25
470 0.525535 1.29483 0.392885 0.25
471 1.69019 1.07764 5.92159 0.25
472 1.91359 7.42794 1.64591 0.25
473 8.0197 5.6398 5.68475 0.25
474 5.04043 5.65856 5.71332 0.25
475 1.48223 1.32358 2.56357 0.25
476 6.83182 1.28376 7.74332 0.25
477 3.18952 5.36274 3.68581 0.25
478 6.29596 3.57019 7.47275 0.25
479 3.32729 7.23353 7.45504 0.25
480 4.95449 0.429317 2.12482 0.25
481 7.92678 2.33541 4.02929 0.25
482 7.81258 5.4257 4.90188 0.25
483 0.649411 5.89883 5.55851 0.25
484 2.93401 0.654836 8.13255 0.25
485 7.88656 7.6274 7.16875 0.25
486 1.84007 6.6173 6.0104 0.25
487 8.18564 7.89714 4.14983 0.25
488 4.14582 4.01292 5.77004 0.25
489 8.26971 8.32061 0.487523 0.25
490 7.83309 7.74225 2.21572 0.25
491 4.60407 3.07917 1.33346 0.25
492 2.22527 1.4696 4.03419 0.25
493 6.19588 4.17258 6.97502 0.25
494 4.70697 7.42404 2.53462 0.25
495 1.13144 5.96094 5.6097 0.25
496 2.53199 7.78299 4.40112 0.25
497 6.14063 4.74214 7.56826 0.25
498 3.21818 2.73364 4.17513 0.25
499 0.170991 5.14432 7.80114 0.25
500 3.57812 2.84929 6.43156 0.25
501 6.12395 3.92404 4.36687 0.25
502 1.82203 8.06916 7.87745 0.25
503 6.03597 4.94755 3.03731 0.5
504 7.4842 7.82241 2.45639 0.25
505 5.74517 1.18718 2.76435 0.25
506 7.20149 6.64311 4.81103 0.25
507 1.21042 0.190576 2.89462 0.25
508 0.67347 0.110807 5.4711 0.25
509 0.00477921 4.99939 5.31673 0.5
510 5.62757 1.82833 5.23124 0.25
511 0.792695 0.531704 5.27454 0.25
512 0.882248 0.566786 2.8878 0.25
513 4.22456 1.43202 5.07337 0.25
514 2.12252 5.94538 5.54212 0.25
515 0.978394 7.56481 6.41488 0.25
516 7.46489 1.50382 6.33833 0.25
517 7.6138 5.81328 4.56099 0.25
518 0.790259 3.55005 4.6828 0.25
519 6.20841 2.14699 2.05054 0.25
520 7.15477 1.84915 6.38139 0.25
521 7.63981 1.88856 0.394328 0.25
522 6.591 2.12799 7.83092 0.25
523 4.98247 6.71513 5.56303 0.25
524 2.90895 0.129257 7.38376 0.25
525 6.37026 4.34995 7.35578 0.25
526 7.27971 5.38789 6.63193 0.25
527 7.44714 8.30868 4.20151 0.25
528 7.3485 0.673242 6.99096 0.25
529 6.65166 1.28546 2.80971 0.25
530 2.24148 1.7848 6.18621 0.25
531 7.84756 8.22834 3.90306 0.25
532 1.26397 0.45405 2.56058 0.25
533 6.96205 1.79276 7.6442 0.25
534 7.80238 5.9203 1.77779 0.25
535 0.371568 3.20092 5.65081 0.5
536 7.01583 2.19418 6.07065 0.25
537 4.47998 1.338 5.49649 0.25
538 7.35731 5.30253 5.03973 0.25
539 2.38316 1.28703 6.38013 0.25
540 7.53929 6.31256 2.31558 0.5
541 7.81495 4.20405 1.69163 0.25
542 1.99993 2.07699 7.79907 0.25
543 3.09332 6.9767 7.06515 0.25
544 7.61203 6.59166 7.19521 0.25
545 1.53357 6.11896 3.77678 0.25
546 4.74722 5.70047 6.18431 0.25
547 5.37395 2.80504 8.05136 0.25
548 6.03287 7.17019 6.44257 0.25
549 0.646162 7.87828 7.16101 0.25
550 6.1446 7.1157 8.00736 0.25
551 4.48277 1.51334 2.41301 0.25
552 3.6236 5.29896 3.86603 0.25
553 6.72495 8.34446 3.9221 0.5
554 4.37929 6.34067 3.13796 0.25
555 4.89189 6.5165 3.65233 0.5
556 6.74969 1.20436 0.762574 0.25
557 7.46853 5.14896 4.20871 0.5
558 6.17494 0.284944 3.47562 0.25
559 1.31563 0.432902 5.85485 0.5
560 4.91849 3.46838 2.79949 0.25
561 2.82251 2.95986 4.11153 0.25
562 4.70915 8.22832 5.61063 0.25
563 2.77168 6.22343 1.22828 0.25
564 6.16501 6.95627 0.673642 0.5
565 6.5032 1.36541 6.53017 0.25
566 1.13053 1.60733 2.26046 0.25
567 4.26336 5.73897 6.10578 0.25
568 6.15109 1.36093 3.00536 0.25
569 2.8557 8.03493 7.5968 0.25
570 1.89857 6.65022 4.47024 0.25
571 2.10786 4.56922 6.43503 0.25
572 8.35537 2.82608 3.7424 0.5
573 3.997 1.28927 2.37462 0.25
574 1.37772 5.86564 6.00379 0.25
575 2.01485 1.62119 7.98251 0.25
576 4.23732 5.63832 7.78056 0.25
577 4.54282 8.32038 5.17192 0.25
578 1.81282 7.39908 3.47494 0.25
579 7.41058 5.29667 7.66866 0.25
580 7.55504 0.248028 4.94448 0.5
581 4.09478 4.49513 6.07496 0.25
582 6.03441 3.09501 4.76366 0.25
583 5.83135 3.73353 5.06544 0.5
584 4.60167 6.46209 5.74376 0.25
585 5.07448 3.04638 1.57707 0.25
586 1.88511 0.151748 2.36995 0.5
587 4.94314 6.94432 2.6292 0.25
588 5.91269 5.1701 3.77203 0.25
589 8.24038 3.02921 7.32354 0.25
590 3.96127 6.2426 1.87251 0.25
591 6.12461 1.60333 1.44648 0.25
592 7.21751 7.32281 1.88924 0.5
593 6.7136 7.10561 1.27445 0.25
594 2.14207 4.65682 8.37531 0.5
595 0.664343 3.70382 7.99445 0.25
596 2.19232 0.656791 0.384475 0.25
597 0.043352 0.595451 5.27088 0.5
598 2.67985 5.72958 1.32425 0.25
599 1.9825 8.20207 7.45557 0.25
600 7.85391 1.02855 5.70091 0.25
601 0.726054 0.950893 5.5331 0.25
602 3.88878 0.064366 2.02499 0.25
603 4.29856 5.6307 8.28969 0.25
604 7.55879 5.29406 7.11021 0.25
605 7.97696 2.16849 3.62624 0.25
606 2.31383 7.72806 1.74944 0.25
607 4.58356 5.28947 7.97842 0.25
608 3.70525 7.50231 7.24042 0.25
609 6.97842 5.09794 4.73316 0.25
610 2.0129 1.28322 5.64086 0.25
611 3.1593 1.00818 7.8962 0.25
612 0.45568 7.70817 0.483459 0.25
613 6.45465 2.0472 8.31675 0.25
614 4.36015 0.624638 4.69753 0.25
615 5.11454 2.56035 4.04025 0.25
616 0.914146 5.6449 2.76186 0.25
617 1.83771 7.85333 1.45965 0.25
618 7.48777 7.59406 4.30224 0.5
619 7.94919 8.20214 4.41797 0.25
620 7.62014 7.28881 2.82371 0.5
621 4.36456 6.30148 4.03927 0.25
622 6.05825 6.43339 5.925 0.25
623 5.4249 6.75952 0.801323 0.25
624 0.885689 2.83098 5.16204 0.25
625 1.08012 5.3046 8.2175 0.25
626 3.85931 0.438716 1.29701 0.25
627 5.16749 4.58775 2.16596 0.25
628 8.25318 3.36668 2.76009 0.5
629 7.32014 3.75836 0.690503 0.25
630 1.19501 8.31854 2.49768 0.25
631 1.70815 1.24808 7.74846 0.25
632 7.5215 7.99121 1.98004 0.25
633 5.86278 7.64811 0.928964 0.25
634 3.14878 0.104094 4.01275 0.25
635 1.41022 7.33602 1.0962 0.5
636 1.75268 2.06243 1.09611 0.25
637 4.98329 8.06222 5.20506 0.25
638 4.90274 0.797383 4.81693 0.25
639 4.74755 2.17732 8.28987 0.25
640 5.43145 7.72778 0.605844 0.25
641 1.1621 6.52232 4.98374 0.25
642 4.00146 1.55696 5.50303 0.25
643 6.00411 6.7831 5.48729 0.25
644 5.92941 0.911956 3.15476 0.25
645 2.62521 2.08566 1.19825 0.25
646 7.93354 6.74067 6.82242 0.25
647 2.35741 2.95433 4.11908 0.25
648 5.10544 1.37991 8.14054 0.25
649 0.657262 3.85854 1.88431 0.25
650 8.39189 3.64361 1.49389 0.25
651 3.16784 2.97552 3.74076 0.25
652 7.16718 8.1797 6.66631 0.25
653 1.47147 6.62064 1.1767 0.25
654 0.931924 2.4107 8.19894 0.25
655 3.33769 3.50782 6.35188 0.5
656 0.559277 3.49114 7.20841 0.25
657 1.36362 5.50159 5.70632 0.25
658 7.11361 0.649925 3.87215 0.25
659 2.37133 1.78312 7.55998 0.25
660 7.06734 6.22481 4.18487 0.5
661 8.20751 1.58922 8.12229 0.25
662 3.8675 4.63887 4.29741 0.25
663 2.60638 3.65334 1.71583 0.25
664 6.82004 2.89265 4.98064 0.25
665 7.92173 3.85102 1.31729 0.25
666 5.9059 6.66783 6.36205 0.25
667 6.79257 3.72538 0.542573 0.25
668 6.78078 6.74148 1.65152 0.25
669 6.33127 5.15329 6.71704 0.25
670 4.29118 7.62423 4.965 0.25
671 3.31262 4.73466 4.46828 0.25
672 2.79329 3.31842 2.04329 0.25
673 0.814868 1.10586 3.01695 0.25
674 4.77006 7.62601 3.36259 0.25
675 5.69281 3.62888 5.76057 0.25
676 7.69942 8.21425 2.38704 0.25
677 6.49486 1.93906 1.6717 0.25
678 7.66246 6.73851 4.97469 0.25
679 1.27909 6.27257 1.41754 0.25
680 3.63854 6.65163 8.06388 0.25
681 7.79791 0.286375 4.25889 0.25
682 2.56949 6.06441 1.64376 0.25
683 2.13844 8.05954 7.01222 0.25
684 0.377848 3.45999 1.75103 0.25
685 2.4194 3.48622 6.81928 0.25
686 4.06232 2.80194 6.47602 0.25
687 2.83566 4.18493 0.796029 0.25
688 4.39281 1.7465 5.80162 0.25
689 5.62865 4.60774 7.70457 0.25
690 6.27159 0.927417 2.76288 0.25
691 7.11671 1.36427 1.48489 0.25
692 5.48113 4.93253 1.98781 0.25
693 7.52404 1.84864 6.72524 0.25
694 7.75506 5.3879 5.3851 0.25
695 8.34056 3.20336 6.22166 0.25
696 5.7767 5.9433 3.52991 0.5
697 4.00571 3.56243 6.0346 0.25
698 1.98074 1.09247 5.19054 0.25
699 1.45857 6.79477 4.69269 0.25
700 4.50043 5.39751 1.11695 0.25
701 4.66011 1.93865 7.84822 0.25
702 2.0594 4.57486 7.62735 0.25
703 3.23294 6.45259 7.49995 0.5
704 4.83789 4.95355 8.13413 0.25
705 4.60996 3.06146 1.76838 0.25
706 5.26728 0.331743 8.25941 0.25
707 4.75812 3.73826 1.57754 0.5
708 5.32826 7.54647 7.88218 0.25
709 2.91113 6.71082 1.73052 0.5
710 1.79198 4.61397 6.82508 0.25
711 5.18804 6.13347 3.06219 0.25
712 0.310579 5.07479 8.28405 0.25
713 2.86063 4.10102 1.72331 0.25
714 5.51717 3.81857 1.29524 0.25
715 4.8722 6.50093 2.883 0.25
716 6.50063 1.65085 7.61961 0.25
717 7.37068 8.07707 3.75219 0.25
718 5.97737 3.35076 7.22111 0.25
719 5.73908 4.88658 7.26621 0.25
720 1.70001 7.70119 3.81909 0.25
721 6.68063 1.97986 2.15017 0.25
722 2.3242 7.4458 2.87775 0.5
723 2.35583 7.02181 2.23726 0.25
724 7.10863 6.79606 1.27961 0.25
725 7.89203 6.4391 7.57947 0.25
726 1.17684 0.882702 5.26731 0.25
727 3.35908 0.450828 1.52635 0.25
728 3.61458 6.13827 8.04463 0.25
729 4.96515 5.7685 3.37493 0.25
730 2.63926 6.89637 7.25871 0.25
731 5.09051 3.65061 3.28961 0.25
732 4.01178 3.78382 6.51464 0.25
733 3.83121 5.45729 7.59294 0.25
734 4.20374 0.791302 2.57068 0.25
735 3.2616 2.91981 6.81572 0.25
736 7.88819 1.98404 8.34585 0.25
737 4.17063 0.411049 0.889095 0.25
738 8.28578 0.0814273 0.952153 0.25
739 4.70208 6.03817 3.05607 0.25
740 5.06709 7.23448 3.43118 0.25
741 0.332482 0.137249 0.646844 0.25
742 3.58696 4.50817 6.08561 0.25
743 6.82095 1.0792 1.24464 0.25
744 4.52026 0.536549 2.27984 0.25
745 3.35389 4.15234 5.89248 0.25
746 1.42779 6.02421 4.52034 0.5
747 4.60693 0.40092 1.79075 0.25
748 2.52351 6.70741 7.68093 0.25
749 1.55457 1.33223 2.07876 0.25
750 8.30678 3.41055 1.95541 0.25
751 1.66143 0.66506 5.19307 0.25
752 6.19398 5.18298 7.20306 0.25
753 3.92014 0.748045 1.89298 0.5
754 4.90891 5.56232 1.32897 0.25
755 3.14162 2.74471 1.1504 0.5
756 8.19968 6.84546 7.74868 0.25
757 5.47555 6.77864 5.52648 0.25
758 6.8158 4.29784 7.53604 0.25
759 3.83995 8.38193 6.18575 0.25
760 0.0222431 2.7115 2.93854 0.25
761 3.59879 6.98343 7.1389 0.25
762 0.823738 1.79342 3.3496 0.5
763 3.98362 8.02483 1.67782 0.25
764 1.68448 6.63342 0.757525 0.25
765 7.61291 5.16292 3.49345 0.25
766 0.0325314 4.13458 3.08628 0.25
767 2.89389 7.08178 7.59745 0.25
768 1.92872 2.62845 4.58014 0.25
769 8.04023 3.74825 1.80781 0.25
770 4.62302 1.12607 8.13465 0.25
771 6.76324 0.96848 6.43146 0.25
772 4.95071 2.76825 7.6629 0.25
773 4.85367 0.102706 4.53319 0.5
774 3.62999 0.372563 5.88998 0.25
775 7.85561 4.67045 3.00023 0.5
776 6.89858 4.34548 0.923516 0.5
777 5.85344 6.87853 8.31898 0.25
778 4.99227 8.34664 8.05306 0.25
779 8.25004 0.00533003 4.12216 0.25
780 2.41197 1.46249 5.92109 0.25
781 2.42862 1.8663 8.03169 0.25
782 1.09462 7.15572 0.470296 0.25
783 6.56365 3.82486 1.34851 0.25
784 2.3414 7.2423 1.73405 0.25
785 1.98465 1.57301 6.57691 0.25
786 2.60549 7.46785 2.08052 0.25
787 7.74826 7.09547 7.10134 0.25
788 8.15 4.11024 2.6676 0.25
789 3.29377 8.05413 4.05017 0.25
790 6.68045 8.38287 6.63549 0.25
791 0.353415 4.81397 3.22403 0.5
792 2.48109 8.28804 7.32767 0.25
793 8.04207 6.65329 2.81569 0.25
794 5.24419 6.32107 6.14071 0.5
795 2.31188 4.05331 3.12146 0.25
796 2.53001 6.25002 5.5119 0.25
797 6.92211 6.89255 0.81675 0.25
798 8.01892 4.31502 1.23603 0.25
799 3.90692 3.05156 6.05471 0.25
800 8.13544 2.3374 3.19448 0.25
801 3.2879 7.40448 6.95811 0.25
802 3.63646 5.06569 4.31114 0.25
803 2.8235 7.96163 6.76739 0.5
804 4.05282 6.73007 1.68913 0.25
805 2.0616 8.16915 1.77525 0.25
806 2.43981 1.67132 3.67085 0.25
807 4.39316 6.15817 5.39237 0.25
808 4.1616 2.49537 7.87647 0.25
809 1.61687 5.91162 5.54284 0.25
810 5.79791 7.60357 6.46605 0.25
811 1.53322 3.23636 4.82374 0.5
812 5.83997 7.51783 0.460404 0.25
813 4.26906 2.11915 2.99103 0.25
814 2.07297 7.6552 6.78716 0.25
815 2.50119 7.95705 3.88649 0.25
816 0.443421 2.94721 4.95313 0.25
817 4.30441 2.03086 8.05742 0.25
818 3.78717 2.04352 2.95077 0.25
819 1.80941 5.21787 1.12842 0.25
820 2.8295 3.21921 6.88341 0.25
821 1.30621 1.74256 7.9943 0.5
822 6.1885 4.50333 3.98689 0.5
823 4.97298 0.488768 7.93069 0.25
824 1.2349 0.452613 5.06063 0.25
825 3.84668 5.91441 7.64596 0.25
826 3.37788 3.51039 1.63652 0.5
827 5.66227 7.09662 6.18563 0.25
828 8.32702 2.09648 8.16156 0.25
829 0.064746 8.13658 4.53443 0.25
830 1.32115 1.72942 2.73149 0.25
831 2.32019 4.18272 7.86632 0.25
832 6.05264 4.47143 2.4341 0.25
833 1.97363 1.43957 6.09944 0.25
834 4.05453 0.290216 2.45182 0.25
835 6.47436 1.92361 1.23625 0.25
836 3.27357 7.76423 7.31695 0.25
837 4.10401 5.23126 8.00069 0.25
838 7.08569 0.828735 0.850609 0.25
839 5.99943 7.46457 6.04119 0.25
840 6.87891 5.01081 7.27262 0.5
841 3.65241 6.64086 1.99315 0.25
842 0.186768 2.07476 2.66231 0.5
843 6.14336 3.76166 5.77951 0.25
844 4.87766 2.63988 8.17004 0.25
845 7.55421 2.26844 5.33862 0.25
846 3.4128 3.47097 7.32956 0.5
847 2.49462 4.54812 0.692929 0.25
848 1.84496 5.83679 5.10642 0.25
849 5.08798 7.74879 2.60874 0.25
850 6.54476 2.6942 5.68954 0.5
851 4.54962 7.81067 5.3353 0.25
852 6.9511 2.00593 8.16939 0.25
853 3.7838 0.448036 6.39481 0.25
854 4.95207 1.62241 4.9301 0.5
855 0.368759 3.93045 5.4743 0.25
856 0.549797 5.52754 3.09807 0.25
857 4.19804 6.33011 1.38355 0.25
858 2.61837 4.54083 3.74867 0.25
859 6.84283 4.76196 4.39576 0.25
860 7.70776 4.04207 0.905994 0.25
861 4.77303 3.22301 7.67107 0.25
862 6.88236 4.86573 3.90562 0.25
863 5.47508 6.49278 8.3057 0.25
864 7.05197 6.85175 2.54137 0.25
865 3.84534 5.63964 8.06433 0.25
866 4.95186 8.16303 2.83456 0.25
867 1.83312 4.18188 7.80193 0.25
868 2.34963 1.49705 0.308888 0.5
869 0.955758 3.19104 7.25089 0.25
870 6.32068 5.48808 3.52607 0.25
871 2.72131 7.22271 6.90052 0.25
872 6.08704 3.05452 5.3022 0.25
873 8.26767 8.16082 8.40362 0.25
874 4.81648 1.64702 5.65289 0.25
875 2.24074 4.1392 1.29986 0.5
876 1.37194 5.68893 5.22361 0.25
877 8.20183 5.06739 8.13594 0.25
878 5.77524 0.706093 2.72482 0.25
879 2.85245 8.17178 4.20896 0.25
880 6.5006 5.9755 3.34631 0.25
881 7.36206 0.967916 1.26327 0.25
882 8.0359 7.29249 7.49451 0.25
883 0.340543 3.55974 2.21456 0.25
884 6.92161 3.61585 1.02675 0.25
885 0.86846 4.09047 5.34424 0.25
886 7.49339 7.65039 3.46366 0.25
887 1.32956 6.78374 1.5986 0.25
888 1.16706 4.87813 3.16078 0.25
889 1.48013 7.94302 2.34535 0.25
890 0.130076 4.4285 2.67604 0.25
891 1.05712 2.42349 7.68 0.25
892 7.41589 3.71284 1.15574 0.25
893 0.990141 7.64889 0.545737 0.25
894 4.49186 5.52352 1.59897 0.25
895 4.48528 5.88157 1.27168 0.25
896 1.82044 1.24093 8.23802 0.25
897 8.30424 4.12448 1.57958 0.25
898 1.03624 4.71365 3.61483 0.25
899 1.14504 8.03427 6.16929 0.25
900 4.93082 6.11492 5.54152 0.25
901 1.02564 1.37922 2.73728 0.25
902 7.50908 4.18155 1.35942 0.25
903 6.03571 3.71815 3.96853 0.25
904 6.8279 4.62742 7.91792 0.25
905 5.20602 0.516935 5.0568 0.25
906 2.16094 0.875673 8.34814 0.25