ITEM: TIMESTEP
450000
ITEM: NUMBER OF ATOMS
1000
ITEM: BOX BOUNDS xy xz yz pp pp pp
0.0000000000000000e+00 8.3788359999999997e+00 0.0000000000000000e+00
0.0000000000000000e+00 8.3788359999999997e+00 0.0000000000000000e+00
0.0000000000000000e+00 8.3788359999999997e+00 0.0000000000000000e+00
ITEM: ATOMS id x y z radius
1 2.69971 6.86515 4.90944 0.25
2 4.66256 5.05634 5.07237 0.25
3 7.34446 4.65836 3.12669 0.25
4 7.34471 1.01922 5.81185 0.5
5 1.06814 5.97115 6.3049 0.25
6 8.37935 1.97543 3.4203 0.25
7 4.22301 3.27879 6.5102 0.25
8 4.76039 7.70155 2.91772 0.25
9 0.767011 6.05074 3.75456 0.25
10 4.23554 1.69437 3.24587 0.25
11 5.4909 8.36278 7.87087 0.25
12 5.38765 3.51602 1.56833 0.25
13 0.507508 2.49147 7.58542 0.25
14 3.6074 2.69669 7.12045 0.25
15 8.2141 2.93512 6.24466 0.25
16 7.28709 0.9208 6.68759 0.25
17 0.813785 5.41398 8.0436 0.25
18 5.80947 7.32164 8.21397 0.25
19 4.32971 1.82556 7.70457 0.25
20 7.56191 1.36152 0.548055 0.25
21 5.0009 4.17961 1.94252 0.25
22 4.17771 3.36105 0.983613 0.25
23 2.23662 3.41031 1.98049 0.25
24 2.7514 1.3881 4.08755 0.25
25 2.59024 4.43637 2.98949 0.25
26 0.382227 8.16808 5.61541 0.25
27 3.85722 0.362839 5.77475 0.25
28 4.21632 2.07136 0.104673 0.25
29 5.12776 6.91892 3.01339 0.25
30 7.61919 7.4021 2.36313 0.25
31 2.60891 0.396559 8.17982 0.25
32 0.952602 2.73245 7.47698 0.25
33 7.65207 0.573273 5.26388 0.25
34 2.03025 4.92321 1.49816 0.25
35 8.08824 0.0206922 4.49863 0.25
36 6.79384 1.93964 5.84273 0.5
37 4.56158 1.06206 2.41425 0.25
38 2.28663 3.39493 4.33809 0.25
39 6.15395 2.64823 4.84431 0.25
40 5.21946 7.69017 3.13453 0.25
41 6.77466 2.11416 2.61335 0.25
42 5.46278 6.00688 5.58302 0.25
43 3.41378 7.65585 4.91789 0.25
44 3.78012 8.32754 5.52908 0.25
45 5.56151 4.07221 4.07498 0.25
46 3.20628 6.0168 1.4889 0.5
47 4.99284 0.894134 5.53038 0.25
48 7.78262 6.4041 7.00201 0.25
49 7.33397 6.71269 4.95624 0.25
50 7.66908 1.1086 0.975217 0.25
51 2.77592 3.34497 4.39663 0.25
52 0.728641 1.79442 2.44321 0.25
53 6.38136 5.3274 6.9748 0.25
54 5.96372 3.20892 4.04852 0.25
55 1.45097 1.41414 5.84373 0.25
56 0.846724 7.264 8.2718 0.25
57 4.8162 0.811272 2.16777 0.25
58 2.40505 2.15859 4.22528 0.25
59 4.65319 1.17936 6.36781 0.25
60 7.83591 5.33838 5.23332 0.25
61 5.12988 0.00699373 8.19812 0.25
62 5.2981 1.99008 8.21255 0.5
63 7.58067 6.62262 1.10706 0.25
64 1.09226 6.03265 0.791724 0.25
65 4.14972 0.0710761 1.79414 0.25
66 2.2639 4.82804 7.04299 0.25
67 7.80378 5.0763 7.05661 0.25
68 7.13613 0.620062 6.35629 0.25
69 0.169358 5.55778 7.53873 0.25
70 2.01923 4.77617 0.651701 0.25
71 7.93911 1.4348 0.297725 0.25
72 6.45775 6.21371 3.49699 0.25
73 0.445422 7.54118 6.7885 0.25
74 7.29214 5.70072 6.86543 0.25
75 7.41438 0.0121568 3.42182 0.25
76 7.52931 6.44948 4.50072 0.25
77 5.66097 2.87306 5.44881 0.25
78 5.49876 3.90254 1.23922 0.25
79 7.732 5.02598 4.41053 0.25
80 5.86046 3.32727 5.43404 0.25
81 6.96381 1.51354 1.31026 0.25
82 0.007732 2.71687 5.84201 0.25
83 4.25156 5.70081 5.58781 0.25
84 1.20134 1.08001 6.0684 0.25
85 1.56069 1.30791 5.33305 0.25
86 4.60618 8.30533 5.48578 0.25
87 1.61868 1.68281 1.2683 0.25
88 3.13471 6.79474 1.6548 0.25
89 6.72925 7.03836 0.67055 0.25
90 5.33483 6.40948 5.36855 0.25
91 3.92754 4.10296 6.12904 0.25
92 5.97242 4.53116 7.36151 0.25
93 4.80365 6.46969 5.28877 0.25
94 6.96734 8.22649 4.14074 0.25
95 0.223995 4.57409 7.68259 0.5
96 5.43809 3.17215 3.50979 0.5
97 4.32187 4.90913 7.65674 0.25
98 8.2528 2.43929 3.438 0.25
99 1.68544 6.38208 5.94613 0.25
100 7.0888 6.90449 1.02822 0.25
101 0.537544 7.991 0.0270937 0.25
102 8.1162 4.98144 3.23599 0.25
103 6.53235 1.31203 1.51083 0.25
104 0.811641 4.81998 7.20614 0.25
105 4.96948 5.73206 5.13298 0.5
106 5.32249 0.305064 4.62231 0.25
107 4.36851 3.19877 7.02955 0.25
108 4.83529 1.40079 0.0344301 0.25
109 0.589717 0.356951 6.18318 0.25
110 2.06201 8.04037 8.19067 0.25
111 3.23498 3.97015 7.15038 0.25
112 4.53883 2.05744 8.08586 0.25
113 1.7389 2.02449 2.01328 0.5
114 1.70623 3.66281 7.19291 0.25
115 4.50295 6.15333 6.29628 0.25
116 2.60956 7.29978 6.99856 0.25
117 4.19533 2.25327 3.75799 0.5
118 6.67494 7.22153 1.09489 0.25
119 0.771023 6.25083 2.95217 0.25
120 0.229227 2.87931 2.41749 0.25
121 3.15628 4.03212 3.53149 0.25
122 6.68504 0.708469 6.17642 0.25
123 5.31262 0.488107 5.60308 0.25
124 8.25883 8.0918 2.35672 0.25
125 3.50882 2.01554 3.75057 0.25
126 3.58886 1.16531 5.72437 0.25
127 5.41341 3.97331 1.74957 0.25
128 6.65162 5.48625 7.41426 0.25
129 1.00504 6.33762 4.17027 0.25
130 5.53057 6.28968 0.946322 0.25
131 7.04453 1.523 6.34779 0.25
132 5.92888 4.09457 7.61617 0.25
133 3.24442 1.83027 3.37241 0.25
134 4.26767 2.42136 8.19772 0.25
135 5.50313 3.88281 3.59057 0.25
136 2.84524 2.41488 3.69509 0.5
137 2.8326 3.98128 3.11028 0.25
138 7.66471 7.98289 2.82528 0.5
139 2.52982 8.08868 4.87832 0.25
140 5.12544 7.94756 7.92475 0.25
141 7.87251 5.80859 5.06267 0.25
142 1.11383 5.09335 3.22441 0.25
143 2.33263 2.15544 0.0473793 0.25
144 5.05304 0.977344 2.85651 0.5
145 7.55095 1.94132 3.98379 0.25
146 5.95241 7.40843 0.319692 0.25
147 6.57015 5.55558 4.61102 0.25
148 2.18373 2.89272 4.50033 0.25
149 4.47105 8.18326 2.46709 0.5
150 4.98784 2.99305 4.14714 0.25
151 3.50497 6.0112 7.2031 0.25
152 3.55636 4.52888 5.53818 0.25
153 6.75122 6.21958 2.29469 0.5
154 7.32935 2.37658 4.5556 0.5
155 3.00213 7.34111 7.80615 0.25
156 7.60083 3.59091 1.34089 0.25
157 7.64279 5.91301 1.50153 0.25
158 2.43009 3.68303 0.7754 0.25
159 7.05227 7.83447 4.43673 0.25
160 6.49265 1.97227 3.00922 0.25
161 1.07388 5.26689 2.78783 0.25
162 5.77371 4.18004 7.10025 0.25
163 3.47222 3.6763 4.10783 0.5
164 2.4968 3.98731 2.41058 0.5
165 5.54775 7.8714 7.68603 0.25
166 0.0413151 3.79372 7.81192 0.25
167 6.62771 4.22286 8.17333 0.25
168 4.63544 5.91328 5.85829 0.25
169 3.96685 4.23997 5.66759 0.25
170 0.085596 2.53507 6.31337 0.25
171 7.81159 5.83871 1.08014 0.25
172 1.07073 2.952 6.97032 0.25
173 4.17532 6.15898 5.86163 0.25
174 2.34226 2.19683 1.07958 0.25
175 7.70373 2.4004 6.00911 0.5
176 2.34842 5.67653 6.18414 0.25
177 5.35417 3.63721 4.06036 0.25
178 2.97556 6.52136 2.02787 0.25
179 3.52533 2.19533 3.30388 0.25
180 5.7545 6.44046 5.59002 0.25
181 6.56713 4.1316 6.77402 0.25
182 3.13868 5.25061 3.27159 0.25
183 8.18579 7.5939 1.68513 0.25
184 4.28325 5.08526 8.14955 0.25
185 5.71198 6.80927 5.94185 0.25
186 7.62827 5.94863 4.58079 0.25
187 3.29839 5.27887 4.16064 0.25
188 0.804361 5.85724 3.28576 0.25
189 4.21546 6.56398 3.48599 0.25
190 4.20151 3.13761 1.43547 0.25
191 6.81301 1.53365 0.513895 0.5
192 0.836284 5.06021 7.69168 0.25
193 3.75227 5.68621 1.74492 0.25
194 2.57958 6.30939 1.93944 0.25
195 6.26612 5.75214 2.68822 0.25
196 2.31067 7.97043 2.69576 0.25
197 1.14496 8.28392 2.4273 0.25
198 7.44916 4.73341 6.96092 0.25
199 1.04308 1.16857 3.14454 0.25
200 4.3794 5.16935 1.5922 0.5
201 6.63529 1.63088 3.24512 0.25
202 8.36855 3.80474 5.3409 0.25
203 3.76233 1.76946 3.35524 0.25
204 5.72418 8.00972 0.0616736 0.5
205 2.36451 7.47195 4.49649 0.5
206 0.408171 4.45215 5.19919 0.25
207 5.75125 2.72222 4.0674 0.25
208 6.93462 5.35872 4.31392 0.25
209 5.24405 7.01983 0.180448 0.5
210 1.89393 7.97258 2.97001 0.25
211 0.735766 3.78631 5.02161 0.25
212 1.31477 7.95208 8.09933 0.5
213 0.270915 4.2296 2.58626 0.25
214 1.85484 7.90889 2.49943 0.25
215 2.88013 4.23082 3.91438 0.25
216 6.34021 1.87146 2.52325 0.25
217 5.06517 3.67458 1.96079 0.25
218 2.49016 3.1874 4.71732 0.25
219 4.34477 1.29841 2.86935 0.25
220 3.72255 3.60096 1.00092 0.25
221 4.20881 8.33496 5.73895 0.25
222 7.41799 0.925369 5.04553 0.25
223 8.12207 2.8443 2.63846 0.25
224 7.17072 5.417 7.3314 0.25
225 7.40148 2.1573 5.33114 0.25
226 4.78064 2.01871 7.59546 0.25
227 6.39962 3.68852 6.98489 0.25
228 5.48412 3.11761 4.23749 0.25
229 5.60165 5.1159 1.91287 0.25
230 0.240774 8.10714 6.397 0.5
231 5.25702 4.62078 1.43093 0.5
232 2.01154 3.07566 4.07494 0.25
233 4.08736 5.08923 3.93519 0.25
234 6.44032 1.09735 6.46793 0.25
235 3.03771 7.29197 4.74652 0.25
236 0.888135 2.5252 7.8987 0.25
237 8.22203 3.05621 7.53445 0.25
238 3.3015 0.888469 1.65819 0.25
239 0.312568 2.3584 3.54094 0.25
240 6.72907 6.43704 1.5514 0.25
241 3.42421 7.13779 8.05157 0.25
242 1.7841 7.29437 2.79376 0.5
243 2.8112 4.8139 3.28576 0.25
244 7.16288 3.65588 1.13857 0.25
245 2.18417 1.09695 6.06021 0.25
246 7.77629 8.11335 3.58695 0.25
247 3.54047 2.55852 3.66949 0.25
248 3.77217 3.19547 1.22098 0.25
249 8.29371 5.17212 7.30358 0.25
250 1.41784 3.81862 5.34054 0.25
251 5.36721 2.63046 4.76364 0.5
252 3.2961 2.0186 4.17575 0.25
253 7.81322 5.74927 7.40205 0.5
254 6.94769 5.83096 7.21822 0.25
255 4.6109 0.501896 6.01976 0.5
256 5.92114 6.22302 0.63313 0.25
257 1.01632 0.397319 2.67719 0.25
258 1.66203 1.73151 2.73336 0.25
259 4.68428 3.024 1.60422 0.25
260 7.93418 6.28821 1.22999 0.25
261 3.45214 0.128319 1.32907 0.25
262 3.52676 2.40181 4.13912 0.25
263 2.03738 0.277465 0.203107 0.5
264 2.75236 4.29527 3.46835 0.25
265 1.04932 4.02766 7.29299 0.5
266 1.03036 7.92445 7.07787 0.5
267 5.25656 2.66327 7.89931 0.25
268 6.38815 7.71038 0.300207 0.25
269 1.90559 5.28996 0.767622 0.25
270 3.99237 3.59314 1.43347 0.25
271 7.49261 7.89659 4.7835 0.25
272 1.55477 0.949087 2.49812 0.25
273 1.37528 3.3003 7.06414 0.25
274 0.710524 5.57972 7.56945 0.25
275 4.58957 4.43883 1.74533 0.25
276 2.35575 3.28336 1.11027 0.25
277 6.76645 0.772737 6.64116 0.25
278 3.93718 6.32004 1.18618 0.25
279 4.17563 0.423849 5.1044 0.5
280 7.84994 8.1707 4.91582 0.25
281 1.0423 6.44004 0.442776 0.25
282 6.09086 7.03788 6.0137 0.25
283 0.877615 0.0851881 6.54217 0.25
284 7.3725 4.47421 0.845919 0.25
285 1.86465 6.01825 1.15012 0.5
286 5.59519 6.79179 3.2112 0.25
287 1.4774 8.04311 3.52229 0.5
288 2.75557 7.32124 5.17874 0.25
289 2.32153 7.08118 5.14646 0.25
290 2.04828 3.87864 1.86995 0.25
291 8.1001 7.59833 7.28062 0.25
292 7.78698 2.55072 3.43239 0.25
293 7.8138 4.59735 3.34081 0.25
294 5.94409 3.66574 3.36326 0.25
295 8.18454 4.27667 0.954993 0.25
296 0.611988 4.18369 4.51532 0.5
297 3.89642 2.99168 6.889 0.25
298 6.15718 5.2538 7.45302 0.25
299 5.79266 4.93725 7.54162 0.25
300 6.43272 3.47641 0.46199 0.25
301 0.615994 7.66432 8.04714 0.25
302 0.190858 4.31237 1.37677 0.25
303 3.65714 0.934281 1.27302 0.25
304 2.21298 2.43214 4.5981 0.25
305 0.706073 4.95085 8.17556 0.25
306 2.45185 1.96696 4.65639 0.25
307 1.58082 4.8482 7.4955 0.5
308 3.70074 5.85097 3.15133 0.25
309 4.47706 0.989824 5.54083 0.25
310 1.02575 4.67634 4.08749 0.25
311 7.37986 8.35945 3.90494 0.25
312 0.752745 1.07565 2.37476 0.5
313 0.972197 3.83538 5.41665 0.25
314 5.54955 3.78838 3.12358 0.25
315 1.18511 5.04485 8.06762 0.25
316 1.74925 4.12513 6.9922 0.25
317 7.55841 2.42714 3.88221 0.25
318 2.25569 2.61073 4.11055 0.25
319 4.91305 7.4902 8.02302 0.25
320 2.09353 6.09921 6.09324 0.25
321 4.11235 0.639877 1.2606 0.25
322 7.17299 6.3605 5.25609 0.25
323 0.760643 5.9265 4.31278 0.25
324 4.11927 7.39109 7.88256 0.5
325 0.895625 1.84741 0.258768 0.25
326 3.93313 4.74517 4.97689 0.5
327 7.63654 7.31302 3.2241 0.25
328 2.35333 7.85149 1.88 0.25
329 1.21419 5.84501 3.54556 0.25
330 8.14359 7.10778 7.44859 0.25
331 0.794539 5.33533 3.85535 0.5
332 7.41823 6.61649 2.07288 0.25
333 1.04817 1.69962 2.02898 0.25
334 6.71039 1.71089 1.72338 0.25
335 3.31722 3.22997 0.954208 0.25
336 3.09967 7.17032 6.85255 0.25
337 4.36479 7.0411 2.91607 0.5
338 6.24878 7.38238 8.2982 0.25
339 2.01581 8.03701 4.08548 0.25
340 4.90713 0.501055 4.81832 0.25
341 7.0097 8.32634 3.18197 0.25
342 0.966909 5.24358 7.25676 0.25
343 2.62446 1.2729 0.3716 0.25
344 1.41084 5.62317 2.75607 0.25
345 0.452484 1.63405 2.84723 0.25
346 0.405183 2.41501 8.04988 0.25
347 3.44842 5.93349 7.67578 0.25
348 7.46063 7.79585 2.08031 0.25
349 0.788118 2.16715 8.24248 0.25
350 6.79594 1.63035 2.76681 0.25
351 1.45334 6.74187 0.402888 0.25
352 6.35811 3.58208 7.75119 0.5
353 2.43475 0.0755598 7.4714 0.25
354 1.9029 0.737099 5.77557 0.25
355 0.736104 8.30733 5.97104 0.25
356 1.83712 1.67663 5.66816 0.25
357 2.93637 3.82092 6.7685 0.25
358 6.28978 3.41728 5.16164 0.25
359 4.20712 1.00092 6.26143 0.25
360 1.89792 2.0959 1.238 0.25
361 0.867766 7.65845 0.187411 0.25
362 6.08027 3.98942 6.77093 0.25
363 8.01364 4.1201 1.93977 0.25
364 5.94158 3.74025 7.23191 0.25
365 5.48737 5.97538 0.583076 0.25
366 5.10713 6.3205 0.659788 0.25
367 2.93746 4.32427 6.89924 0.25
368 6.8621 3.82352 8.16492 0.25
369 1.07213 6.80598 0.0767979 0.25
370 5.50806 0.356303 8.20588 0.25
371 2.31502 8.2262 4.46321 0.25
372 2.5096 4.65436 0.673195 0.25
373 7.05293 2.85405 5.14064 0.25
374 3.59787 4.34987 4.41156 0.25
375 5.35976 0.845267 8.06614 0.25
376 2.58739 5.95672 1.02538 0.25
377 6.40595 1.16326 2.202 0.5
378 0.388636 3.85497 7.4898 0.25
379 5.08275 1.27963 7.97838 0.25
380 2.25069 6.77718 4.7236 0.25
381 3.95344 5.28394 5.56952 0.25
382 1.85892 7.00699 4.93022 0.25
383 6.35576 5.24147 3.87838 0.5
384 1.19399 1.7547 1.53542 0.25
385 6.89002 1.40803 7.06961 0.5
386 1.45248 0.968939 5.67413 0.25
387 7.36028 0.921911 0.616534 0.25
388 0.879373 5.7375 2.83591 0.25
389 4.22602 2.58592 7.55337 0.5
390 3.90905 0.606117 6.21896 0.25
391 5.36898 4.76329 2.11643 0.25
392 8.1371 2.82959 3.18125 0.25
393 2.76221 6.57827 1.55392 0.25
394 0.334176 8.25167 0.425968 0.25
395 2.18705 1.77131 1.40557 0.25
396 4.70876 8.00574 8.17216 0.25
397 5.33673 0.732998 0.186551 0.25
398 7.54847 1.62628 7.95488 0.25
399 3.09343 4.3983 3.16212 0.25
400 4.81211 4.34415 0.852454 0.25
401 2.15615 7.13133 3.82917 0.25
402 8.1206 7.9839 6.99571 0.25
403 7.67723 6.24033 0.768014 0.25
404 7.7724 6.84947 7.17784 0.25
405 0.546735 7.8164 0.47203 0.25
406 5.83146 0.327174 4.60103 0.25
407 2.34792 1.09892 8.06411 0.5
408 5.76355 3.35379 2.41314 0.25
409 2.2648 4.99386 0.993121 0.25
410 7.44908 0.938202 8.2956 0.5
411 4.25203 5.38573 5.22011 0.25
412 8.05739 7.21817 6.9796 0.25
413 1.27824 1.56065 0.184413 0.25
414 0.492531 3.20674 7.88989 0.5
415 6.44086 4.63835 2.86107 0.25
416 3.01721 2.92325 6.51862 0.25
417 3.40652 4.70604 3.76043 0.5
418 7.07472 6.70129 4.50217 0.25
419 3.98417 3.73967 5.80849 0.25
420 0.996516 3.07796 4.80562 0.25
421 3.97206 4.77706 5.7179 0.25
422 2.36358 5.48601 0.891658 0.25
423 0.278826 0.202043 5.85675 0.25
424 0.60733 3.41389 4.75839 0.25
425 1.94096 2.80337 1.42585 0.5
426 7.13623 5.61812 5.07002 0.5
427 2.82197 1.87045 4.27763 0.25
428 3.93604 5.11807 3.48857 0.25
429 4.38466 4.46828 5.61223 0.25
430 1.70752 7.30124 3.57485 0.25
431 0.90727 3.40141 6.87608 0.25
432 1.56178 6.9427 4.25994 0.5
433 2.12917 1.7955 7.76116 0.25
434 0.812067 6.39447 0.885048 0.25
435 5.88647 3.49677 2.89324 0.25
436 1.19195 6.00791 3.02997 0.25
437 8.36173 1.17859 0.51567 0.25
438 1.05706 3.4942 5.10148 0.25
439 3.94436 2.52886 6.79359 0.25
440 5.0897 1.61652 7.61152 0.25
441 8.05016 4.11 5.17761 0.25
442 2.52647 5.63671 1.36849 0.25
443 0.322284 2.86213 6.93879 0.5
444 2.08395 3.54771 1.53214 0.25
445 5.35397 7.2243 0.967574 0.25
446 4.27642 5.79516 3.57979 0.5
447 1.40934 1.79969 5.49093 0.25
448 5.7334 7.23306 5.77154 0.25
449 0.942689 5.79633 5.78041 0.25
450 2.80154 3.41784 0.974919 0.25
451 2.78403 6.89762 5.42366 0.25
452 2.3052 0.949109 0.394259 0.25
453 4.53054 4.49017 1.2024 0.25
454 0.0625235 3.50462 7.42332 0.25
455 7.97237 5.01922 7.55705 0.25
456 3.06885 1.74974 3.86421 0.25
457 2.43989 3.82321 7.24798 0.5
458 8.31225 7.59149 6.81102 0.25
459 5.10149 7.71322 8.36306 0.25
460 5.63658 0.0768884 4.9451 0.25
461 2.49927 3.68538 1.2478 0.25
462 6.29402 5.04178 3.17499 0.25
463 5.12922 7.35505 2.85553 0.25
464 7.28719 7.0124 7.24433 0.25
465 7.13273 2.57548 5.59332 0.25
466 4.27088 1.75767 2.74932 0.25
467 3.8449 6.20933 1.67098 0.25
468 6.90837 5.30196 2.94318 0.5
469 7.28513 7.48045 7.05798 0.25
470 1.34922 1.42526 8.10815 0.25
471 1.65721 0.9939 6.12002 0.25
472 1.83069 7.54338 2.12823 0.25
473 7.51544 4.96603 5.37604 0.25
474 5.08092 5.71298 5.84453 0.25
475 1.36846 1.31587 2.77947 0.25
476 7.26773 0.849076 7.57396 0.25
477 3.21464 5.45115 3.70831 0.25
478 6.13324 3.31862 7.11596 0.25
479 3.44131 7.37916 7.59954 0.25
480 4.97519 0.322556 2.27236 0.25
481 7.95835 2.16602 4.16784 0.25
482 7.20021 5.01022 4.5277 0.25
483 8.30673 5.57563 5.01153 0.25
484 2.72774 0.730986 0.203164 0.25
485 7.7693 7.62537 6.9455 0.25
486 2.57352 5.93983 5.86196 0.25
487 8.18259 7.67474 4.3732 0.25
488 4.39059 4.0634 5.9015 0.25
489 0.864607 8.16229 0.339542 0.25
490 8.24042 7.99314 1.9007 0.25
491 4.58734 3.06189 1.11443 0.25
492 2.38642 1.63166 4.30994 0.25
493 6.14345 4.46051 6.88054 0.25
494 4.81574 7.46113 2.51233 0.25
495 1.26695 6.18642 5.85903 0.25
496 2.93242 7.7336 4.87452 0.25
497 6.35414 4.29705 7.69301 0.25
498 3.42572 2.87418 4.09342 0.25
499 0.483087 5.20704 7.35967 0.25
500 3.9478 2.88064 6.41005 0.25
501 6.02172 4.13244 4.15935 0.25
502 1.68702 7.99068 7.44239 0.25
503 5.88226 5.08941 2.58851 0.5
504 7.92474 7.71604 2.12317 0.25
505 5.84297 1.26872 2.84097 0.25
506 7.13275 6.30279 4.76907 0.25
507 1.22896 0.355428 3.15966 0.25
508 0.64493 0.174216 5.52245 0.25
509 8.22392 4.85219 4.95641 0.5
510 4.88127 1.69857 5.60557 0.25
511 0.522021 0.606269 5.7495 0.25
512 0.801872 0.726738 3.02516 0.25
513 3.94132 1.09345 5.36393 0.25
514 1.84594 5.6729 6.13587 0.25
515 0.8189 7.54239 6.40321 0.25
516 7.51281 1.68569 6.13818 0.25
517 7.42161 5.46632 4.47265 0.25
518 1.03803 3.57964 4.66193 0.25
519 6.28897 1.83724 1.99258 0.25
520 6.75156 1.94778 6.57351 0.25
521 7.47845 1.62856 0.1008 0.25
522 6.72733 1.53038 7.79796 0.25
523 5.04735 6.69575 5.59572 0.25
524 2.68809 0.521465 7.71397 0.25
525 6.26115 4.11432 7.2156 0.25
526 6.88893 5.40137 6.95352 0.25
527 7.43848 8.0214 4.20007 0.25
528 7.42002 1.39995 6.54604 0.25
529 6.62519 1.18343 3.00681 0.25
530 2.0924 1.93286 6.0987 0.25
531 7.82935 7.79997 3.98813 0.25
532 1.2551 0.766089 2.91286 0.25
533 7.22121 1.3183 7.71965 0.25
534 8.15237 5.82872 1.44326 0.25
535 0.492249 3.2591 5.4967 0.5
536 6.93669 2.62727 6.05248 0.25
537 4.01822 0.853341 5.78834 0.25
538 6.6928 5.08631 4.65043 0.25
539 2.26341 1.52372 6.34893 0.25
540 8.19405 6.3689 1.89775 0.5
541 7.64952 4.02469 1.56462 0.25
542 2.15435 2.2423 7.97542 0.25
543 3.39808 7.49181 7.16304 0.25
544 7.42159 6.6839 6.86081 0.25
545 1.15021 5.9487 4.01257 0.25
546 4.81655 5.70754 6.25908 0.25
547 5.001 2.71009 8.35252 0.25
548 6.13012 7.20376 6.48011 0.25
549 0.234681 7.85371 7.12097 0.25
550 6.00535 6.97443 0.112937 0.25
551 4.66059 1.53209 2.51288 0.25
552 3.67782 5.39982 3.85898 0.25
553 7.18692 7.69492 3.66183 0.5
554 4.4727 6.37229 3.1011 0.25
555 4.97718 6.64466 3.64196 0.5
556 6.9118 0.858575 0.833108 0.25
557 7.29475 4.98133 3.75826 0.5
558 6.61554 8.21573 3.50015 0.25
559 1.28794 0.322994 5.84201 0.5
560 5.24166 3.37172 2.31643 0.25
561 2.97928 3.10777 4.07104 0.25
562 5.06854 0.0645858 5.55504 0.25
563 2.30408 6.51375 1.59218 0.25
564 5.99329 6.94122 0.863656 0.5
565 6.55485 1.54894 6.41036 0.25
566 1.16472 1.7644 2.55704 0.25
567 4.32133 5.70507 6.12891 0.25
568 6.20887 1.2626 3.30895 0.25
569 2.47256 8.34058 8.00294 0.25
570 1.87132 6.49756 4.76732 0.25
571 3.02839 4.32815 7.4365 0.25
572 8.16707 2.84025 4.00296 0.5
573 4.15949 1.34838 2.43301 0.25
574 1.5612 6.063 6.27925 0.25
575 2.09286 1.76575 8.2317 0.25
576 4.19162 5.74397 7.61429 0.25
577 5.29781 0.277334 5.13383 0.25
578 1.90637 7.56631 3.92704 0.25
579 7.42709 4.98912 7.3639 0.25
580 7.38124 0.250094 4.64621 0.5
581 4.18374 4.51555 6.08021 0.25
582 5.94423 2.97161 4.51886 0.25
583 5.80488 3.6637 4.68348 0.5
584 4.63604 6.42819 5.85665 0.25
585 5.08795 3.12313 1.32016 0.25
586 1.74853 0.241111 2.60662 0.5
587 4.96607 6.97799 2.5606 0.25
588 5.84843 5.21586 3.29982 0.25
589 0.0377778 2.58018 7.64378 0.25
590 3.52163 6.55291 1.9317 0.25
591 6.24009 1.43442 1.11633 0.25
592 7.59287 7.13209 1.62256 0.5
593 6.90082 6.9165 1.50314 0.25
594 2.25768 4.67726 8.31018 0.5
595 0.562399 3.94442 7.88403 0.25
596 1.90002 0.877074 0.638151 0.25
597 8.35523 0.315266 5.18221 0.5
598 2.57788 6.42768 1.14605 0.25
599 1.99436 8.29417 7.79837 0.25
600 7.89343 0.974562 5.24749 0.25
601 0.80932 0.801592 6.16962 0.25
602 3.89647 0.08746 2.23289 0.25
603 4.22639 5.61823 8.11296 0.25
604 7.33341 5.22272 6.93165 0.25
605 7.92524 2.13293 3.67252 0.25
606 2.30377 8.1671 2.26939 0.25
607 4.50775 5.36918 7.78104 0.25
608 3.62289 7.83711 7.49833 0.25
609 6.77633 4.83867 4.28179 0.25
610 1.88361 1.1974 5.6899 0.25
611 3.01425 0.684855 8.09186 0.25
612 0.397746 7.48313 0.102464 0.25
613 7.11155 1.559 8.12939 0.25
614 4.77079 0.863008 5.09992 0.25
615 4.79859 2.75918 3.75358 0.25
616 1.18206 5.55229 3.16362 0.25
617 1.46719 7.88205 2.25012 0.25
618 7.52263 7.23925 4.44186 0.5
619 7.83913 7.98814 4.46019 0.25
620 0.024144 7.33461 2.35124 0.5
621 4.29144 6.38495 3.95462 0.25
622 6.05195 6.5166 5.96316 0.25
623 5.2841 6.75057 0.877469 0.25
624 1.26754 3.39374 5.52952 0.25
625 1.21664 5.4461 7.70572 0.25
626 3.60868 0.536047 1.52471 0.25
627 4.85154 4.67923 2.04472 0.25
628 8.29813 3.50378 2.31884 0.5
629 7.21543 3.28405 0.203096 0.25
630 1.16255 8.36421 2.91599 0.25
631 1.78022 1.49247 7.86734 0.25
632 7.78031 7.86062 1.71534 0.25
633 6.05932 7.71897 0.702807 0.25
634 2.90394 7.82889 4.05039 0.25
635 0.84264 7.13713 0.6777 0.5
636 1.44215 2.14769 1.36874 0.25
637 5.70106 0.282336 5.41886 0.25
638 4.82296 1.287 5.35951 0.25
639 4.65523 1.85846 0.122149 0.25
640 5.17068 7.68536 0.446279 0.25
641 1.48587 6.68218 5.67326 0.25
642 3.62573 0.724533 5.44715 0.25
643 6.03811 6.84352 5.54885 0.25
644 5.8566 0.884694 3.16105 0.25
645 2.28446 2.26133 1.55572 0.25
646 7.8964 6.81891 6.72876 0.25
647 2.52442 3.02135 4.19663 0.25
648 5.31286 1.21299 0.0118023 0.25
649 0.501985 4.27029 1.77729 0.25
650 8.36425 3.84442 1.21203 0.25
651 3.27193 3.06089 3.64247 0.25
652 7.06443 0.427903 6.82799 0.25
653 1.29363 6.50897 0.868949 0.25
654 0.782528 2.61501 8.38077 0.25
655 3.5398 3.54828 6.45279 0.5
656 0.518699 3.52019 7.19455 0.25
657 1.35991 5.6642 6.0077 0.25
658 6.99143 0.0536097 3.70602 0.25
659 2.52032 1.89047 8.05126 0.25
660 7.01927 6.03089 4.07913 0.5
661 8.22253 1.07887 0.0617217 0.25
662 3.95217 4.74557 4.256 0.25
663 2.52119 3.76159 1.76693 0.25
664 6.6531 2.63557 4.88514 0.25
665 7.89943 3.91456 1.14882 0.25
666 5.91382 6.75119 6.37738 0.25
667 6.74816 3.4009 0.0360526 0.25
668 7.13015 6.55269 1.80965 0.25
669 6.06323 4.9253 7.11472 0.25
670 5.57174 8.26901 4.48128 0.25
671 3.453 4.86852 4.44829 0.25
672 2.73024 3.30501 1.99167 0.25
673 0.511232 1.14792 3.06121 0.25
674 4.92444 7.32236 3.28604 0.25
675 5.55279 3.76091 5.38315 0.25
676 7.81988 8.21511 2.11171 0.25
677 6.24078 1.6801 1.57099 0.25
678 7.59324 6.222 4.98064 0.25
679 1.19898 6.24833 1.23452 0.25
680 3.73262 6.74546 8.1313 0.25
681 7.81262 8.28886 4.08182 0.25
682 2.50009 6.08695 1.5274 0.25
683 1.7963 7.75098 7.01827 0.25
684 0.469723 3.9066 1.40022 0.25
685 2.88499 3.34012 6.76741 0.25
686 4.33939 2.79188 6.73184 0.25
687 2.47145 4.12298 0.511413 0.25
688 3.54075 0.739212 5.95713 0.25
689 6.13129 4.15629 8.13263 0.25
690 6.23273 1.00816 2.86252 0.25
691 6.96629 1.26146 1.72516 0.25
692 5.08742 5.15506 1.90328 0.25
693 7.25795 1.90413 6.51135 0.25
694 7.58027 5.14892 4.84978 0.25
695 0.368606 2.95221 6.13756 0.25
696 5.75761 5.97773 3.282 0.5
697 4.26117 3.73025 6.27688 0.25
698 1.68997 0.786182 5.35555 0.25
699 1.55501 6.62258 5.12095 0.25
700 3.74195 5.4995 1.27889 0.25
701 4.71377 1.62491 7.97556 0.25
702 2.11919 4.45081 7.18117 0.25
703 3.4256 6.70834 7.42737 0.5
704 4.75035 4.98499 8.00635 0.25
705 5.16344 3.21967 1.82043 0.25
706 5.26663 0.237721 0.243283 0.25
707 4.72514 3.75799 1.36984 0.5
708 5.39458 7.52544 8.01828 0.25
709 2.48709 7.09987 2.03022 0.5
710 2.4504 4.42851 6.82097 0.25
711 5.30631 6.45849 2.98901 0.25
712 0.424132 5.2642 7.84313 0.25
713 2.73786 4.26491 1.76192 0.25
714 5.1814 4.04655 0.872938 0.25
715 4.88394 6.5191 2.85725 0.25
716 6.84429 1.00464 7.74936 0.25
717 7.91338 7.65272 3.51399 0.25
718 5.93039 3.48083 6.76537 0.25
719 5.89697 4.5244 7.85909 0.25
720 1.65141 7.76333 4.25763 0.25
721 6.75923 1.75501 2.24432 0.25
722 2.40258 7.69292 3.41077 0.5
723 2.53972 7.49599 2.67024 0.25
724 7.13133 6.54139 1.3061 0.25
725 7.44475 6.50651 7.37645 0.25
726 0.907785 0.95467 5.68909 0.25
727 3.93508 0.174285 1.35948 0.25
728 3.68048 6.25887 8.00449 0.25
729 5.07362 5.88306 3.5637 0.25
730 3.00041 7.26272 7.31122 0.25
731 5.41388 3.4037 2.78561 0.25
732 4.18703 3.63486 6.84976 0.25
733 3.75148 5.6168 7.43648 0.25
734 4.26035 0.870884 2.72064 0.25
735 3.49861 2.73936 6.59564 0.25
736 7.92465 1.47306 8.22426 0.25
737 3.25098 0.586527 1.19566 0.25
738 0.58974 8.2899 0.777496 0.25
739 4.92445 6.08976 3.11736 0.25
740 5.37572 7.21634 3.29067 0.25
741 0.876626 7.84624 0.756203 0.25
742 3.69095 4.51383 6.03556 0.25
743 6.94394 0.996341 1.34069 0.25
744 4.56252 0.530407 2.46124 0.25
745 3.57512 4.05555 5.82646 0.25
746 1.28147 6.09461 4.78733 0.5
747 4.58572 0.373995 1.99385 0.25
748 2.77372 6.82422 7.08442 0.25
749 1.44956 1.42976 2.28951 0.25
750 0.178337 3.50988 1.5537 0.25
751 1.1956 0.919487 5.26337 0.25
752 6.21542 4.80664 7.6649 0.25
753 4.02175 0.772167 1.97223 0.5
754 4.15713 5.59168 0.988467 0.25
755 2.87067 2.76073 1.37113 0.5
756 7.66261 6.93017 7.62181 0.25
757 5.48561 6.86892 5.50425 0.25
758 6.724 3.96708 7.23618 0.25
759 4.184 8.13019 5.22928 0.25
760 0.182996 2.78799 3.36463 0.25
761 3.8153 7.32448 7.25654 0.25
762 0.638308 1.67966 3.59881 0.5
763 3.87875 8.06816 1.97063 0.25
764 1.47892 6.25357 0.520458 0.25
765 7.65401 5.04476 3.07205 0.25
766 0.564938 4.45163 2.26974 0.25
767 2.70488 6.96623 7.55021 0.25
768 2.26051 2.79384 4.9197 0.25
769 8.05699 3.71337 1.59128 0.25
770 4.9005 0.927231 8.24667 0.25
771 6.65092 1.24405 6.01966 0.25
772 4.77491 2.46972 8.00234 0.25
773 5.48324 0.937529 5.01896 0.5
774 3.68496 8.09169 5.04805 0.25
775 7.94237 4.52245 2.62406 0.5
776 7.00241 3.99929 0.463868 0.5
777 5.89462 6.48112 0.211626 0.25
778 4.97798 8.14446 0.229416 0.25
779 8.26209 8.0782 4.17751 0.25
780 2.2578 1.53527 5.86594 0.25
781 2.55618 1.68945 0.10206 0.25
782 1.24512 7.31792 0.130442 0.25
783 6.8186 3.17484 0.480395 0.25
784 2.21962 7.66788 2.32051 0.25
785 2.6047 1.83003 6.10321 0.25
786 2.65303 7.81486 2.27051 0.25
787 7.57904 7.1689 6.82555 0.25
788 0.0726722 4.28567 2.12289 0.25
789 3.64907 7.93307 4.50811 0.25
790 6.72874 0.309006 6.45405 0.25
791 0.498773 4.70488 3.01812 0.5
792 2.23457 0.35993 7.87099 0.25
793 8.36135 7.07183 1.65342 0.25
794 5.27078 6.36945 6.1752 0.5
795 2.35541 4.09188 3.19734 0.25
796 2.13548 5.73586 5.74806 0.25
797 6.67297 6.69606 1.0986 0.25
798 7.74209 4.37312 1.22524 0.25
799 4.08793 3.26432 6.03719 0.25
800 7.9219 2.18642 3.17043 0.25
801 3.34778 7.95528 7.08092 0.25
802 3.7515 5.20086 4.31659 0.25
803 3.20118 0.0562235 7.74357 0.5
804 3.5842 7.04838 1.77422 0.25
805 1.91623 8.0648 2.05468 0.25
806 2.56386 1.7374 3.88015 0.25
807 4.4768 6.15808 5.46039 0.25
808 4.06461 2.05122 8.03599 0.25
809 1.70548 5.93326 5.80539 0.25
810 6.39168 7.42567 6.08187 0.25
811 1.73005 3.34895 4.84223 0.5
812 5.59449 7.52448 0.647739 0.25
813 4.47643 2.09998 3.03619 0.25
814 1.60984 7.53425 7.48273 0.25
815 2.8235 8.08535 4.49155 0.25
816 1.18896 3.00338 5.21879 0.25
817 4.36968 1.62048 8.25597 0.25
818 3.96935 2.07858 3.07065 0.25
819 2.05718 5.35138 1.26561 0.25
820 3.30643 3.07888 6.91838 0.25
821 1.48007 2.13329 8.18041 0.5
822 5.92557 4.42026 3.41823 0.5
823 5.01623 0.45449 8.25359 0.25
824 0.779249 0.615885 5.30966 0.25
825 3.86133 6.13817 7.54888 0.25
826 3.20202 3.67473 1.51302 0.5
827 5.64273 7.09009 6.28773 0.25
828 0.179958 2.11676 7.74798 0.25
829 8.29931 8.03646 4.69899 0.25
830 0.848933 1.95597 2.93643 0.25
831 2.16378 4.34137 7.66536 0.25
832 5.81263 4.64992 1.97652 0.25
833 1.84166 1.43665 6.15109 0.25
834 4.07818 0.41222 2.62761 0.25
835 6.58711 1.7371 1.22818 0.25
836 3.38072 7.67526 7.91734 0.25
837 3.99858 5.31225 7.83377 0.25
838 7.34872 0.781278 1.13934 0.25
839 5.90148 7.4824 6.17433 0.25
840 6.76636 4.73315 7.19697 0.5
841 3.23916 6.94476 2.13347 0.25
842 0.161341 2.29173 2.80054 0.5
843 6.01842 3.80948 5.44335 0.25
844 4.66423 2.367 0.0874725 0.25
845 7.48419 2.65743 5.28888 0.25
846 3.73397 3.41644 7.43073 0.5
847 2.34484 5.11184 0.541511 0.25
848 1.79026 5.84056 5.33236 0.25
849 5.16869 7.81999 2.65205 0.25
850 6.38259 2.75663 5.5502 0.5
851 5.49471 8.22858 5.34698 0.25
852 7.13055 1.78037 7.67817 0.25
853 4.11774 8.14325 4.70643 0.25
854 4.22546 1.58934 5.89748 0.5
855 0.464618 3.97618 5.2884 0.25
856 0.72269 5.41264 3.14051 0.25
857 3.61388 6.60069 1.44518 0.25
858 2.6736 4.6636 3.77172 0.25
859 6.65397 4.5327 3.8516 0.25
860 7.72413 4.15529 0.725961 0.25
861 4.84741 2.94473 7.95279 0.25
862 6.63727 4.74554 3.41959 0.25
863 5.2906 6.22504 0.179635 0.25
864 7.78066 6.88215 2.35176 0.25
865 3.75642 5.76761 7.95966 0.25
866 5.03505 8.1725 3.01525 0.25
867 1.83032 4.08678 7.45787 0.25
868 2.02132 1.63789 0.605663 0.5
869 0.950258 3.23412 7.31839 0.25
870 6.23073 5.48019 3.13206 0.25
871 2.94487 7.65512 7.04651 0.25
872 5.93952 3.05958 5.03949 0.25
873 0.62872 0.231425 0.389011 0.25
874 3.74597 1.09998 6.23188 0.25
875 2.22021 4.28708 1.22123 0.5
876 1.34574 5.82435 5.52754 0.25
877 8.28949 5.23357 7.80008 0.25
878 5.77639 0.827484 2.6409 0.25
879 3.26105 8.11371 4.74727 0.25
880 6.45104 5.99119 3.04449 0.25
881 7.38928 1.21528 1.46525 0.25
882 7.70643 7.32162 7.33888 0.25
883 0.417853 3.99033 2.22022 0.25
884 7.22863 3.34369 0.731371 0.25
885 0.879907 4.25262 5.20455 0.25
886 8.11848 7.41729 3.10203 0.25
887 0.990003 6.73543 1.26349 0.25
888 1.08585 4.69879 3.56105 0.25
889 1.42163 7.99516 2.76287 0.25
890 0.144755 4.68995 2.34914 0.25
891 1.02913 2.26387 7.52025 0.25
892 7.60154 3.67528 0.830644 0.25
893 1.22835 7.82658 0.431657 0.25
894 4.02297 5.86802 1.39322 0.25
895 3.74824 5.90191 0.942534 0.25
896 1.73381 1.43499 0.0104334 0.25
897 8.09414 4.22217 1.49312 0.25
898 0.6481 4.52876 3.78872 0.25
899 0.993156 8.03705 6.2931 0.25
900 4.98079 6.18197 5.64353 0.25
901 0.892057 1.50998 2.90109 0.25
902 7.39457 4.036 1.11048 0.25
903 5.87322 3.72737 3.88785 0.25
904 6.83746 4.11515 7.69997 0.25
905 5.28253 0.919574 5.84335 0.25