ITEM: TIMESTEP
60000
ITEM: NUMBER OF ATOMS
1000
ITEM: BOX BOUNDS xy xz yz pp pp pp
0.0000000000000000e+00 8.3788359999999997e+00 0.0000000000000000e+00
0.0000000000000000e+00 8.3788359999999997e+00 0.0000000000000000e+00
0.0000000000000000e+00 8.3788359999999997e+00 0.0000000000000000e+00
ITEM: ATOMS id x y z radius
1 2.80894 7.12372 4.35879 0.25
2 4.4159 5.36631 4.9729 0.25
3 7.25462 4.90677 3.66384 0.25
4 7.3839 0.59337 6.35711 0.5
5 1.29059 5.6749 5.96811 0.25
6 0.429382 1.89998 3.10936 0.25
7 4.1372 3.55368 6.64854 0.25
8 4.79365 7.84504 2.89642 0.25
9 0.607242 6.41311 3.72086 0.25
10 4.49381 1.81481 3.30246 0.25
11 5.01344 0.04184 0.308792 0.25
12 5.25328 3.29641 2.14345 0.25
13 8.13501 2.66716 7.12736 0.25
14 3.8238 2.96555 7.169 0.25
15 8.16078 2.62282 6.04442 0.25
16 7.15208 0.00345875 6.76447 0.25
17 0.67675 5.00472 8.10529 0.25
18 5.96885 7.63557 8.03745 0.25
19 4.44415 1.95309 7.6697 0.25
20 7.48849 1.51424 0.702681 0.25
21 5.0147 4.16953 2.23308 0.25
22 4.14194 3.52713 1.27134 0.25
23 2.43789 3.17153 1.6789 0.25
24 2.85125 1.46653 3.9842 0.25
25 2.17342 4.35306 2.75925 0.25
26 0.373092 0.19176 5.86595 0.25
27 3.95664 1.24381 6.21119 0.25
28 4.57844 2.1589 0.105119 0.25
29 5.18766 6.96199 3.02298 0.25
30 7.09354 7.40991 2.67319 0.25
31 2.79127 0.567384 7.62315 0.25
32 0.754354 2.6977 7.07548 0.25
33 7.73757 0.542291 5.65794 0.25
34 2.02638 4.82888 1.25521 0.25
35 8.30606 0.171433 4.56537 0.25
36 7.22018 1.40978 5.76311 0.5
37 4.59113 0.933485 1.92529 0.25
38 2.19237 3.30042 4.33406 0.25
39 6.51452 2.83727 5.04356 0.25
40 4.70983 8.30559 3.02775 0.25
41 6.74032 2.55779 2.88244 0.25
42 5.35958 6.12866 5.55596 0.25
43 3.20224 8.02661 4.30727 0.25
44 3.73332 0.780962 6.20562 0.25
45 5.8459 4.11706 4.61304 0.25
46 3.72388 5.66967 1.45798 0.5
47 4.70116 0.637192 5.17938 0.25
48 7.82813 6.66424 6.90608 0.25
49 7.29954 7.15615 4.95984 0.25
50 7.68554 1.09622 0.884718 0.25
51 2.69297 3.35767 4.29478 0.25
52 0.897491 1.83775 2.44103 0.25
53 6.73873 5.00858 6.47458 0.25
54 6.02051 3.73402 4.85505 0.25
55 1.60192 1.58211 5.84317 0.25
56 0.664679 7.47597 0.199133 0.25
57 4.85894 0.531634 1.8549 0.25
58 2.33805 2.11099 3.97739 0.25
59 5.58161 1.41395 5.15763 0.25
60 0.666682 5.63771 5.42542 0.25
61 5.44337 0.168504 8.41889 0.25
62 5.43633 1.6699 8.05212 0.5
63 7.85907 6.41742 1.53812 0.25
64 1.1094 5.52502 1.06179 0.25
65 3.77176 8.25793 1.87676 0.25
66 2.27544 4.59049 6.99103 0.25
67 7.61488 4.91255 7.31403 0.25
68 6.96653 8.33048 6.30035 0.25
69 0.165598 5.64122 7.69842 0.25
70 1.93201 4.26532 0.48223 0.25
71 7.75595 1.71643 0.334312 0.25
72 6.4086 6.39746 3.70909 0.25
73 0.597172 7.43044 6.29736 0.25
74 7.40787 5.57319 6.70905 0.25
75 7.26063 0.452778 3.37435 0.25
76 7.3663 6.87952 4.52991 0.25
77 6.28576 2.46755 5.25542 0.25
78 5.52863 3.54294 1.79372 0.25
79 8.08054 5.75456 5.29078 0.25
80 6.1356 3.16314 5.8605 0.25
81 6.93442 1.48344 1.33315 0.25
82 8.16498 2.77249 5.59083 0.25
83 4.20622 5.9291 5.55248 0.25
84 1.18832 1.26137 5.72138 0.25
85 1.85612 1.62029 5.40016 0.25
86 3.97257 0.390674 6.20159 0.25
87 2.44262 1.4588 0.930194 0.25
88 3.56369 6.45765 1.62122 0.25
89 6.87575 7.41892 0.860407 0.25
90 5.2975 6.54994 5.39314 0.25
91 3.8986 4.10096 6.02332 0.25
92 6.14152 4.50452 7.03999 0.25
93 4.78375 6.65465 5.26884 0.25
94 6.74163 8.01009 4.41731 0.25
95 0.351075 4.52603 7.55245 0.5
96 5.46652 3.29893 3.98057 0.5
97 4.20562 4.62557 7.91264 0.25
98 0.531577 2.39042 3.26952 0.25
99 1.68321 6.38778 5.75142 0.25
100 7.30588 7.29548 1.16403 0.25
101 0.436956 8.27424 0.235347 0.25
102 8.02741 5.28123 3.97167 0.25
103 6.79636 1.35417 1.77278 0.25
104 0.47431 5.22459 7.70477 0.25
105 4.76831 5.9784 5.03299 0.5
106 4.27134 8.24984 4.87689 0.25
107 3.71477 3.84968 6.82835 0.25
108 4.66719 1.32407 8.19366 0.25
109 0.737218 0.450218 6.18859 0.25
110 2.15325 7.78522 8.31678 0.25
111 2.76239 3.50886 6.48886 0.25
112 4.72305 2.14366 8.00461 0.25
113 2.45813 1.78186 1.63024 0.5
114 1.50595 4.24878 6.63982 0.25
115 4.4669 6.19727 6.31727 0.25
116 2.63686 6.38036 7.56526 0.25
117 4.24936 2.43699 3.74749 0.5
118 6.94302 7.63567 1.32402 0.25
119 0.615172 5.371 2.17646 0.25
120 0.377831 2.9561 2.13368 0.25
121 3.0806 3.9275 3.45936 0.25
122 6.7088 0.233268 6.5784 0.25
123 5.07306 0.298992 5.27677 0.25
124 7.87521 7.9571 2.54431 0.25
125 3.5468 2.02923 3.7994 0.25
126 4.47728 1.9563 5.6667 0.25
127 5.35431 3.76499 2.193 0.25
128 6.97322 5.37412 6.68976 0.25
129 0.834461 6.69316 4.12682 0.25
130 5.74754 5.95452 0.70219 0.25
131 6.90427 1.14434 6.42489 0.25
132 5.85842 4.36671 7.4155 0.25
133 3.2688 1.9023 3.37877 0.25
134 4.44486 2.55481 8.30635 0.25
135 5.62066 3.96201 4.14306 0.25
136 2.84138 2.46445 3.54999 0.5
137 2.8726 3.88693 3.00002 0.25
138 7.3266 8.15322 3.03787 0.5
139 2.21105 7.48079 4.84217 0.25
140 5.76061 8.00527 7.78012 0.25
141 0.832926 5.5104 5.85366 0.25
142 0.709065 5.08983 3.33984 0.25
143 1.75051 1.91224 8.33367 0.25
144 5.07493 0.924132 2.52031 0.5
145 7.61393 2.09872 3.93905 0.25
146 5.97384 7.34479 0.0477893 0.25
147 6.11028 6.12036 4.52536 0.25
148 1.93647 3.12262 3.92512 0.25
149 4.28021 8.1534 2.43581 0.5
150 5.11603 2.88478 4.49746 0.25
151 3.33769 5.75644 7.51111 0.25
152 3.44173 4.44269 5.41726 0.25
153 6.67121 6.2469 2.64528 0.5
154 7.37404 2.27291 4.65062 0.5
155 2.96059 7.53103 7.97511 0.25
156 7.64217 3.80468 1.29323 0.25
157 7.46108 6.0702 1.66648 0.25
158 2.67058 3.66848 0.600893 0.25
159 7.08887 0.0003393 4.43448 0.25
160 6.49616 2.13128 3.09083 0.25
161 0.501635 5.07613 2.86194 0.25
162 5.86047 3.93922 7.54829 0.25
163 3.35952 3.6031 4.10236 0.5
164 2.54038 3.83406 2.22864 0.5
165 5.85645 8.27442 8.18773 0.25
166 0.144856 3.8053 7.76776 0.25
167 6.35232 4.44617 0.436732 0.25
168 4.63275 6.027 5.85061 0.25
169 3.90157 4.29526 5.53272 0.25
170 0.22698 2.7218 5.82007 0.25
171 7.80223 5.93397 1.34684 0.25
172 1.01027 2.87225 6.62486 0.25
173 4.16964 6.27788 5.93998 0.25
174 2.98573 2.2229 0.687921 0.25
175 7.61709 2.03162 6.26764 0.5
176 2.5393 6.31988 6.14821 0.25
177 5.58015 3.72513 4.60304 0.25
178 3.28751 6.14276 1.86163 0.25
179 3.63465 2.23138 3.35063 0.25
180 5.70543 6.49944 5.69189 0.25
181 6.50692 4.16716 7.01689 0.25
182 3.01167 5.12717 3.1923 0.25
183 7.43077 7.81646 1.36898 0.25
184 4.34338 4.84226 8.29359 0.25
185 5.68175 6.87168 6.07253 0.25
186 7.46686 6.39069 4.6721 0.25
187 3.07945 5.16905 4.03305 0.25
188 0.730322 5.85164 2.92951 0.25
189 4.15484 6.63214 3.35794 0.25
190 4.31092 3.10889 1.57078 0.25
191 6.68444 1.6625 0.66369 0.5
192 0.89475 4.9938 7.67846 0.25
193 4.57519 5.08473 0.947987 0.25
194 2.90153 5.97588 1.60086 0.25
195 6.39229 5.65324 3.07261 0.25
196 1.95552 7.38006 2.21204 0.25
197 1.07155 0.557828 1.80806 0.25
198 7.31638 4.78462 7.72514 0.25
199 1.25078 0.891791 2.62993 0.25
200 4.78448 4.72557 1.64821 0.5
201 6.75711 1.75451 3.17832 0.25
202 0.276335 4.04387 5.34209 0.25
203 4.0493 1.95791 3.18805 0.25
204 5.30277 7.79429 8.34262 0.5
205 2.27243 7.56002 4.05954 0.5
206 0.609759 4.775 5.13006 0.25
207 5.84582 3.36475 4.66739 0.25
208 6.91486 5.6969 4.83684 0.25
209 5.36803 6.90518 0.290293 0.5
210 1.72515 7.72763 2.45442 0.25
211 0.652521 3.8283 4.86805 0.25
212 1.42548 7.41058 8.34 0.5
213 8.18107 4.21387 3.07012 0.25
214 1.61663 7.67679 1.96178 0.25
215 2.87233 4.1976 3.88545 0.25
216 6.42406 2.26822 2.5908 0.25
217 4.99047 3.6947 2.47984 0.25
218 2.03089 2.85841 4.35207 0.25
219 4.46288 1.25139 2.67703 0.25
220 3.83442 3.14806 1.48694 0.25
221 4.2711 0.83215 6.32977 0.25
222 7.27667 0.686229 5.57705 0.25
223 8.32089 2.9881 2.34376 0.25
224 7.14163 5.54158 7.1769 0.25
225 7.05958 2.0373 5.31939 0.25
226 4.9185 2.02305 7.56251 0.25
227 6.35107 3.78122 7.40641 0.25
228 5.31578 3.28777 4.70078 0.25
229 5.9754 4.91835 2.22088 0.25
230 0.519906 8.16204 6.48708 0.5
231 5.65778 4.30285 1.82956 0.5
232 2.20975 2.95427 3.53581 0.25
233 3.99286 5.14962 3.9077 0.25
234 6.5136 0.502705 6.99632 0.25
235 2.93828 7.61039 4.25387 0.25
236 0.422689 2.27869 7.67465 0.25
237 8.24591 3.66808 7.38755 0.25
238 3.54641 0.524084 1.14714 0.25
239 0.446235 2.04352 3.62306 0.25
240 6.81382 6.63559 1.07308 0.25
241 3.2782 7.13876 8.17902 0.25
242 1.4548 7.05834 2.49333 0.5
243 2.73205 4.68977 3.24975 0.25
244 7.17517 3.90399 1.39949 0.25
245 2.16213 1.04743 6.12868 0.25
246 7.55034 0.205568 3.78711 0.25
247 3.63178 2.73734 3.3269 0.25
248 3.98529 2.7042 1.43561 0.25
249 8.14687 5.01823 7.32527 0.25
250 0.578624 2.95185 4.56856 0.25
251 5.7211 2.6723 4.87008 0.5
252 3.22065 2.24858 4.1023 0.25
253 7.90297 5.69091 7.29526 0.5
254 7.5633 6.37271 7.12682 0.25
255 5.14288 0.99883 5.63487 0.5
256 6.22319 6.15107 0.642487 0.25
257 0.795566 0.220797 2.11433 0.25
258 1.73477 1.64527 2.05962 0.25
259 4.45363 2.68878 1.27044 0.25
260 8.27658 6.10946 1.42475 0.25
261 3.69402 0.290601 0.680594 0.25
262 3.5583 2.53963 3.75872 0.25
263 2.33432 0.149 8.06533 0.5
264 2.72681 4.23498 3.34204 0.25
265 1.15018 3.83229 7.20192 0.5
266 1.46674 7.96713 6.84113 0.5
267 4.94401 2.61862 8.15379 0.25
268 6.18933 7.12995 7.9869 0.25
269 1.7686 4.66462 0.287484 0.25
270 4.06294 3.56097 1.72824 0.25
271 7.00674 8.11646 4.84802 0.25
272 1.40017 0.821545 2.16012 0.25
273 1.31929 3.23495 6.74534 0.25
274 0.846842 5.43109 7.98227 0.25
275 5.39171 4.61881 1.22212 0.25
276 2.67239 3.17602 0.836443 0.25
277 6.7519 0.0806502 7.06535 0.25
278 4.30841 5.9852 1.90264 0.25
279 4.07265 0.870193 5.59397 0.5
280 8.27102 8.28771 4.94072 0.25
281 0.833339 5.82381 0.748566 0.25
282 6.08788 7.09891 6.17155 0.25
283 1.14436 0.176403 6.3753 0.25
284 7.49979 4.81317 1.26793 0.25
285 1.83136 5.90472 1.21306 0.5
286 5.42927 6.55769 3.1203 0.25
287 1.36879 7.98607 3.07494 0.5
288 2.70265 7.48057 4.64903 0.25
289 2.60111 7.34113 5.13601 0.25
290 2.12478 3.60377 1.64044 0.25
291 0.284031 7.48848 7.30862 0.25
292 7.83242 2.79184 3.51321 0.25
293 7.74823 4.84331 3.7938 0.25
294 5.9815 3.74983 3.81917 0.25
295 0.101158 3.10244 0.903119 0.25
296 0.564428 4.44539 4.41273 0.5
297 3.74532 3.38941 6.99081 0.25
298 6.42843 5.26446 6.76934 0.25
299 5.77706 4.84521 6.74171 0.25
300 6.17239 4.14753 0.786829 0.25
301 0.790794 7.93777 0.0670289 0.25
302 0.451383 3.41018 1.2203 0.25
303 3.89543 0.204378 1.08068 0.25
304 2.01365 2.37025 4.28887 0.25
305 1.65304 5.34885 7.91515 0.25
306 2.35177 1.99357 4.47111 0.25
307 1.65211 4.77362 7.47974 0.5
308 3.48394 5.83752 3.03699 0.25
309 4.55708 1.17585 5.21083 0.25
310 1.05263 5.05419 4.14751 0.25
311 7.33524 0.424083 4.21305 0.25
312 0.69254 1.08604 2.15334 0.5
313 1.033 3.46254 5.04905 0.25
314 5.59904 4.04217 3.6167 0.25
315 1.69895 4.93704 8.18753 0.25
316 1.73139 4.26699 7.12061 0.25
317 7.71123 2.56239 3.94758 0.25
318 2.18014 2.62594 3.92784 0.25
319 4.60706 6.76936 0.239345 0.25
320 2.18373 6.33916 5.80004 0.25
321 3.81437 8.16061 1.37313 0.25
322 7.29434 6.8738 5.34875 0.25
323 0.799969 6.21873 4.14374 0.25
324 4.07494 7.00611 8.07121 0.5
325 0.536803 1.68393 8.32947 0.25
326 3.82063 4.90691 4.89191 0.5
327 7.14505 7.70675 3.6363 0.25
328 2.34588 7.1433 1.55833 0.25
329 1.21175 5.80338 2.92177 0.25
330 0.265043 7.04137 7.13101 0.25
331 0.896913 5.68522 3.68186 0.5
332 7.00171 6.72199 2.07481 0.25
333 1.66881 1.62284 1.52303 0.25
334 6.58264 1.80203 1.91573 0.25
335 4.11607 2.52392 0.969247 0.25
336 3.00204 6.09205 7.28762 0.25
337 4.50253 7.16682 2.93371 0.5
338 5.69998 7.1854 8.04385 0.25
339 1.98748 8.01314 3.48838 0.25
340 4.27036 0.314312 5.13591 0.25
341 6.81148 0.345682 3.09258 0.25
342 1.21464 5.43481 7.61315 0.25
343 2.75195 1.14895 8.25823 0.25
344 0.89884 5.13393 2.54522 0.25
345 0.618437 1.5574 2.7497 0.25
346 0.169828 2.51272 8.06284 0.25
347 3.35106 5.7254 8.00461 0.25
348 7.03322 7.82946 2.33395 0.25
349 0.471904 2.12506 8.1824 0.25
350 6.84354 2.08266 2.74084 0.25
351 1.11135 6.77262 8.17706 0.25
352 6.27669 4.19502 8.09687 0.5
353 2.63157 7.83185 8.14331 0.25
354 1.9997 0.84451 5.65823 0.25
355 0.866218 0.0519701 5.93675 0.25
356 2.05279 1.83183 5.86155 0.25
357 2.86834 3.12875 6.17142 0.25
358 6.34219 3.4447 5.52274 0.25
359 5.49971 1.66367 5.59444 0.25
360 2.21886 1.90988 0.898325 0.25
361 0.839022 8.23992 0.484822 0.25
362 5.98009 3.56431 7.23736 0.25
363 7.77132 3.94717 2.927 0.25
364 5.7095 3.67854 7.96901 0.25
365 5.9456 5.95959 0.241158 0.25
366 5.47885 5.68997 0.299103 0.25
367 2.26739 4.4926 6.44396 0.25
368 6.82304 4.32201 0.320014 0.25
369 0.89897 7.17423 0.50573 0.25
370 5.04415 0.543821 0.10644 0.25
371 1.96245 8.23912 3.93017 0.25
372 2.2118 3.82592 0.484556 0.25
373 7.25327 2.46993 5.35458 0.25
374 3.53105 4.34865 4.34848 0.25
375 4.943 0.751549 7.74469 0.25
376 2.1606 5.48105 1.73795 0.25
377 6.44853 1.50849 2.52125 0.5
378 0.342001 3.77092 7.28165 0.25
379 4.86744 1.22526 7.7521 0.25
380 2.38175 7.14732 4.64659 0.25
381 3.3913 4.88692 5.58774 0.25
382 1.8353 7.31998 4.59165 0.25
383 6.38758 5.45042 4.29113 0.5
384 1.92378 1.54799 1.0703 0.25
385 6.87457 1.23026 7.14225 0.5
386 1.65448 1.17234 5.52104 0.25
387 7.25845 1.09059 0.622959 0.25
388 0.5373 5.50374 2.65935 0.25
389 4.48148 2.68368 7.55825 0.5
390 4.46166 1.23032 6.08117 0.25
391 5.67621 4.73544 2.48941 0.25
392 8.08356 2.60427 3.19575 0.25
393 3.17141 6.27863 1.39542 0.25
394 0.0781543 8.07127 0.469805 0.25
395 2.68716 1.88363 0.867062 0.25
396 4.80578 6.82569 8.16601 0.25
397 4.75258 0.506782 8.10234 0.25
398 6.99895 2.14754 0.186081 0.25
399 2.67615 4.34783 2.86745 0.25
400 6.21618 4.05662 1.25232 0.25
401 1.97402 7.11248 3.50151 0.25
402 0.664942 7.72517 7.10246 0.25
403 7.9891 6.28781 1.05375 0.25
404 8.13801 6.87483 7.21335 0.25
405 0.408114 8.3203 0.702884 0.25
406 4.37432 7.89857 4.53906 0.25
407 2.27735 1.10085 7.69889 0.5
408 5.46344 3.35008 3.14637 0.25
409 2.30973 4.89378 0.852785 0.25
410 7.28121 1.45771 8.27141 0.5
411 4.04944 5.63073 5.18417 0.25
412 8.25655 7.36726 7.04872 0.25
413 0.502094 1.34545 7.92054 0.25
414 0.290417 3.06783 7.50495 0.5
415 6.85863 4.75247 3.49501 0.25
416 2.65048 2.78441 6.48183 0.25
417 3.37863 4.6395 3.62787 0.5
418 6.91565 7.06097 4.59361 0.25
419 3.89895 3.77603 5.658 0.25
420 0.551342 3.29939 4.24435 0.25
421 3.87862 4.82274 5.62674 0.25
422 2.22882 5.25948 1.28374 0.25
423 0.658305 0.54683 5.71853 0.25
424 0.313498 3.67808 4.53738 0.25
425 2.40576 2.60077 1.12388 0.5
426 7.36784 6.08272 5.36997 0.5
427 2.77103 1.9725 4.19351 0.25
428 3.88207 5.18551 3.42055 0.25
429 4.29582 4.58269 5.45742 0.25
430 1.56841 7.19121 3.21486 0.25
431 0.879876 3.3913 6.58555 0.25
432 1.41997 7.18581 3.96214 0.5
433 1.76133 1.70664 7.46944 0.25
434 0.725342 6.13638 1.16291 0.25
435 5.75859 3.67515 3.39631 0.25
436 0.95938 5.6026 2.53116 0.25
437 8.07372 1.4343 0.125169 0.25
438 0.720437 3.42768 4.685 0.25
439 3.92782 3.09399 6.63371 0.25
440 4.67405 1.56669 7.43124 0.25
441 8.34658 4.40338 5.48496 0.25
442 1.79698 5.19682 1.48365 0.25
443 0.2355 2.9031 6.56618 0.5
444 2.35067 3.33977 1.24753 0.25
445 5.56422 6.79014 0.972309 0.25
446 4.11668 5.86112 3.48818 0.5
447 1.69221 2.06123 5.63544 0.25
448 5.70997 7.3504 5.94196 0.25
449 1.16009 5.60609 5.47312 0.25
450 3.04328 3.42822 0.804162 0.25
451 2.77686 7.02577 4.90132 0.25
452 2.36585 0.838812 8.34512 0.25
453 5.13387 4.18816 1.2618 0.25
454 0.0236789 3.54877 6.96875 0.25
455 7.79385 5.07644 7.7264 0.25
456 3.12466 1.82803 3.84319 0.25
457 2.16619 3.85357 6.77034 0.5
458 0.131756 7.83459 7.02775 0.25
459 4.79496 7.23602 -0.0575152 0.25
460 4.74436 8.05212 4.86192 0.25
461 2.73558 3.59773 1.05867 0.25
462 6.47053 5.0527 3.66644 0.25
463 4.80196 7.66654 3.34946 0.25
464 8.02525 6.88133 7.68751 0.25
465 7.15614 2.11158 5.76085 0.25
466 4.35655 1.74377 2.81484 0.25
467 4.14635 5.01507 1.17247 0.25
468 7.03113 5.53083 3.36553 0.5
469 8.00378 7.3676 7.84577 0.25
470 0.0602479 1.55023 8.17667 0.25
471 1.65944 1.1456 5.98692 0.25
472 1.64843 7.26531 1.74895 0.25
473 7.89335 5.64359 5.73683 0.25
474 5.03235 5.84382 5.76098 0.25
475 1.47364 1.24643 2.31811 0.25
476 6.7436 1.14144 7.86192 0.25
477 3.11998 5.35367 3.59131 0.25
478 6.08622 3.54339 7.76656 0.25
479 3.35732 7.25181 7.74351 0.25
480 4.65531 0.072532 1.91324 0.25
481 8.01823 2.21431 4.13357 0.25
482 7.7659 5.58116 4.89947 0.25
483 0.932673 5.955 5.73623 0.25
484 2.80522 0.702121 8.14901 0.25
485 8.17864 7.66176 7.40991 0.25
486 2.4171 6.75653 5.89869 0.25
487 8.16375 7.8152 4.24653 0.25
488 4.28691 4.11579 5.73735 0.25
489 0.128873 0.217276 0.40657 0.25
490 7.89194 7.6219 2.17534 0.25
491 4.56678 3.2125 1.15008 0.25
492 2.37578 1.6534 4.13516 0.25
493 6.02838 4.02349 7.09205 0.25
494 4.91414 7.66408 2.46835 0.25
495 1.37734 6.00705 5.61093 0.25
496 2.71881 7.99696 4.51042 0.25
497 6.13795 4.73761 7.5156 0.25
498 3.27212 2.81373 4.10291 0.25
499 0.193089 5.25752 7.325 0.25
500 4.23964 3.20209 6.2207 0.25
501 6.29402 4.04779 4.58662 0.25
502 1.81552 7.96008 7.984 0.25
503 6.17755 4.93324 3.03217 0.5
504 7.45932 7.66562 2.51284 0.25
505 5.64179 0.903775 3.05124 0.25
506 7.13073 6.70325 4.91953 0.25
507 1.27628 0.375544 2.74628 0.25
508 0.704549 0.193541 5.42239 0.25
509 0.091186 5.16801 5.54133 0.5
510 5.68151 1.94073 5.18321 0.25
511 0.841098 0.612877 5.23944 0.25
512 0.817297 0.61589 2.7495 0.25
513 4.25599 1.59941 5.33823 0.25
514 2.32932 6.10632 5.39862 0.25
515 1.04306 7.73151 6.25135 0.25
516 7.33367 1.36838 6.54114 0.25
517 7.34191 5.85804 4.67909 0.25
518 0.755849 3.72426 4.35042 0.25
519 6.25917 2.14046 2.17406 0.25
520 6.93975 1.64006 6.43052 0.25
521 7.3602 1.96353 0.475641 0.25
522 6.22026 1.76541 7.97079 0.25
523 5.04168 6.82095 5.71589 0.25
524 2.92668 0.0413103 7.53353 0.25
525 6.29719 4.26035 7.42842 0.25
526 7.22239 4.9172 6.57291 0.25
527 7.48643 8.30539 4.21872 0.25
528 7.43649 0.704756 7.05198 0.25
529 7.09593 1.60906 2.91248 0.25
530 2.29295 1.82778 6.28808 0.25
531 7.91352 8.1911 3.96532 0.25
532 1.05355 0.541674 2.33679 0.25
533 6.70987 1.69566 7.78927 0.25
534 7.93796 5.99127 1.80624 0.25
535 0.272709 3.27248 5.17793 0.5
536 6.87197 2.04869 6.13054 0.25
537 4.60576 1.46258 5.6634 0.25
538 7.29721 5.41353 4.9745 0.25
539 2.31007 1.3598 6.46124 0.25
540 7.69599 6.43417 2.31032 0.5
541 7.92691 4.20933 1.47715 0.25
542 1.87787 2.06737 7.8475 0.25
543 3.15335 6.95845 7.43305 0.25
544 7.65656 6.8351 7.31717 0.25
545 1.13303 6.48193 3.84727 0.25
546 4.74464 5.77274 6.23206 0.25
547 5.50046 2.4417 8.17564 0.25
548 6.05994 7.20332 6.66602 0.25
549 0.901729 7.47547 6.70032 0.25
550 6.45268 7.13884 8.39118 0.25
551 4.76648 1.63984 2.54376 0.25
552 3.56159 5.37883 3.77866 0.25
553 6.85466 0.00747952 3.78038 0.5
554 4.41666 6.4323 2.96436 0.25
555 4.87109 6.53152 3.63166 0.5
556 6.85695 1.03021 0.945698 0.25
557 7.42138 5.30236 4.29167 0.5
558 6.24528 0.475943 3.77346 0.25
559 1.36622 0.504224 5.74213 0.5
560 5.02915 3.54154 2.97116 0.25
561 2.90553 3.14098 3.90048 0.25
562 4.88513 8.27326 5.58781 0.25
563 2.63582 6.16781 1.27897 0.25
564 6.27836 6.9458 0.701122 0.5
565 6.26716 0.870381 6.83863 0.25
566 1.20109 1.59191 2.12126 0.25
567 4.25184 5.82901 6.12334 0.25
568 6.01273 1.21081 3.10302 0.25
569 2.81791 7.909 7.65193 0.25
570 1.97509 6.89183 4.43746 0.25
571 1.76727 4.34625 6.22445 0.25
572 0.114643 2.74208 3.86962 0.5
573 4.54509 1.3722 2.19406 0.25
574 1.68642 5.91687 5.97191 0.25
575 1.87252 1.58475 7.92125 0.25
576 4.09098 5.43637 7.71436 0.25
577 4.65842 0.0314104 5.19217 0.25
578 1.81915 7.57508 3.47909 0.25
579 7.34006 5.22205 7.52733 0.25
580 7.58602 0.246759 4.93561 0.5
581 4.15312 4.56495 5.90676 0.25
582 6.26109 3.27589 5.00209 0.25
583 5.64196 3.46994 5.39746 0.5
584 4.61738 6.52319 6.00937 0.25
585 5.28633 3.16999 1.66005 0.25
586 1.53504 0.0288953 2.0939 0.5
587 5.11939 7.50794 2.9714 0.25
588 6.01533 5.142 3.72773 0.25
589 8.10647 3.19709 7.12014 0.25
590 3.82479 6.16511 1.94182 0.25
591 6.32498 1.3832 1.78205 0.25
592 7.3003 7.31899 1.88534 0.5
593 6.81106 7.13152 1.29147 0.25
594 2.15467 4.2285 8.15462 0.5
595 0.625104 3.74492 7.7189 0.25
596 2.01888 0.584794 0.27666 0.25
597 0.0558318 0.618575 5.33807 0.5
598 2.51213 5.66858 1.44339 0.25
599 1.92674 8.15043 7.49911 0.25
600 7.83143 0.975677 5.8654 0.25
601 0.781036 0.989762 5.51451 0.25
602 3.70299 0.284943 2.27133 0.25
603 4.27948 5.30197 8.20825 0.25
604 7.40669 5.20429 6.96994 0.25
605 7.98048 2.3095 3.62963 0.25
606 2.07127 7.51919 1.72647 0.25
607 4.40445 5.03541 7.77914 0.25
608 3.75434 7.4703 7.57789 0.25
609 6.84971 5.20543 4.83946 0.25
610 2.03674 1.34575 5.76501 0.25
611 2.99365 1.03001 7.83702 0.25
612 0.543943 7.84844 0.482297 0.25
613 6.15959 1.68177 0.0909556 0.25
614 4.30804 0.806765 4.91966 0.25
615 4.96254 2.64461 4.09643 0.25
616 0.91635 5.40745 2.98525 0.25
617 1.62183 7.76197 1.52104 0.25
618 7.40805 7.66739 4.38204 0.5
619 7.97827 8.21363 4.45747 0.25
620 7.86626 7.26178 2.85947 0.5
621 4.15892 6.53174 3.85748 0.25
622 6.01811 6.57656 6.07539 0.25
623 5.76249 6.42335 0.721106 0.25
624 0.147499 2.74404 4.68389 0.25
625 1.21167 5.06446 7.97685 0.25
626 3.55123 0.158553 1.47654 0.25
627 5.22414 4.6051 2.29384 0.25
628 8.21083 3.38357 3.078 0.5
629 7.30685 4.26361 0.539022 0.25
630 0.878667 0.12032 2.58345 0.25
631 1.55439 1.25544 7.63295 0.25
632 7.80895 7.94772 1.77171 0.25
633 5.60175 7.29546 0.856156 0.25
634 3.08079 0.475366 4.10754 0.25
635 1.09151 6.48418 0.529152 0.5
636 1.88375 1.99706 1.26491 0.25
637 5.11672 8.22572 5.16019 0.25
638 4.80999 0.964408 4.84728 0.25
639 4.81902 1.76632 -0.00509838 0.25
640 5.14361 7.08082 1.01806 0.25
641 1.32941 6.72988 5.13854 0.25
642 4.146 1.594 5.88736 0.25
643 5.97584 6.96422 5.71176 0.25
644 5.96545 0.769113 3.40207 0.25
645 2.9702 2.11011 1.20822 0.25
646 7.7813 7.13839 6.92603 0.25
647 2.43345 3.03595 3.98421 0.25
648 5.00265 0.963713 8.16575 0.25
649 0.740204 3.63466 1.5808 0.25
650 8.41201 3.31476 1.35307 0.25
651 3.33893 3.01288 3.65758 0.25
652 7.40874 8.16662 6.4287 0.25
653 1.1381 6.01957 1.0296 0.25
654 0.692367 2.53622 7.99923 0.25
655 3.51051 3.48854 6.23956 0.5
656 0.507037 3.49071 6.92302 0.25
657 1.63994 5.58578 5.59646 0.25
658 7.30439 0.705916 3.80501 0.25
659 2.24733 1.84374 7.61042 0.25
660 6.83916 6.31815 4.31256 0.5
661 7.98973 1.83466 8.24692 0.25
662 3.83148 4.7421 4.16093 0.25
663 2.65946 3.62649 1.52609 0.25
664 7.03797 2.87101 5.06928 0.25
665 7.87301 4.13693 0.993362 0.25
666 5.89885 6.75393 6.49232 0.25
667 6.95164 3.94784 0.619497 0.25
668 6.87308 6.69166 1.59301 0.25
669 6.29572 4.81691 6.65896 0.25
670 4.35504 7.80113 5.02305 0.25
671 3.34275 4.81071 4.36868 0.25
672 2.89116 3.30101 1.81834 0.25
673 0.818877 1.1446 2.91398 0.25
674 4.39607 7.92482 3.14542 0.25
675 5.79694 3.46543 6.14313 0.25
676 7.54807 8.03099 2.20824 0.25
677 6.13021 1.82462 1.80739 0.25
678 7.60452 6.73567 5.00037 0.25
679 1.0518 5.87484 1.48636 0.25
680 3.80417 6.44671 0.132002 0.25
681 7.86302 0.257305 4.24963 0.25
682 2.413 6.04604 1.71631 0.25
683 2.18399 8.07955 7.05516 0.25
684 0.456795 3.21068 1.64041 0.25
685 2.40445 3.25892 6.33575 0.25
686 4.22292 3.20759 7.05818 0.25
687 2.6204 4.17565 0.488257 0.25
688 4.59095 1.7297 6.07043 0.25
689 5.65012 4.65172 7.71785 0.25
690 6.17462 0.807999 2.9397 0.25
691 7.28569 1.30736 1.61105 0.25
692 5.49161 4.96026 2.07474 0.25
693 7.18922 1.77238 6.78097 0.25
694 7.70444 5.38156 5.36724 0.25
695 8.33662 3.10156 5.89581 0.25
696 5.75474 5.86304 3.48706 0.5
697 4.21288 3.72152 6.10663 0.25
698 2.11155 1.13158 5.2942 0.25
699 1.51464 6.96356 4.71309 0.25
700 4.44454 5.38019 1.35252 0.25
701 4.77182 1.66386 7.89093 0.25
702 2.1751 4.28234 7.36047 0.25
703 3.27883 6.45388 7.8516 0.5
704 4.65879 4.60265 8.00725 0.25
705 4.8255 2.96945 1.50738 0.25
706 5.03614 0.0951613 8.17924 0.25
707 4.78112 3.71077 1.7259 0.5
708 5.213 7.13855 8.02618 0.25
709 2.79242 6.69884 1.85704 0.5
710 1.83466 4.57562 6.71841 0.25
711 5.19388 6.06969 3.09812 0.25
712 0.347886 5.39139 8.13694 0.25
713 1.96399 4.0767 1.82548 0.25
714 5.37768 3.79528 1.31253 0.25
715 4.96887 6.50969 2.87207 0.25
716 6.33153 1.3609 7.73217 0.25
717 7.50343 8.0608 3.76896 0.25
718 5.63122 3.45664 7.54328 0.25
719 5.72638 4.7812 7.23223 0.25
720 1.55837 7.90584 3.80315 0.25
721 6.78539 2.1073 2.26383 0.25
722 2.23624 7.49693 2.90255 0.5
723 2.20492 6.9727 2.37012 0.25
724 7.2276 6.81747 1.28767 0.25
725 8.00262 6.44443 7.3715 0.25
726 1.20258 1.00928 5.24542 0.25
727 3.3091 0.640991 1.6168 0.25
728 3.68944 5.97519 8.29806 0.25
729 4.92199 5.81543 3.48303 0.25
730 2.92407 6.57773 7.18912 0.25
731 5.25883 3.71962 3.40688 0.25
732 3.99711 4.01984 6.45595 0.25
733 3.5977 5.36736 7.70811 0.25
734 4.33486 0.912928 2.33724 0.25
735 3.46984 3.0428 6.8668 0.25
736 7.73574 2.15729 0.143703 0.25
737 3.87639 8.1893 0.877797 0.25
738 0.288499 0.389159 0.816091 0.25
739 4.69825 6.08795 3.06767 0.25
740 5.08631 7.26513 3.39566 0.25
741 0.596361 0.357236 0.451209 0.25
742 3.60914 4.50237 5.89672 0.25
743 6.97854 0.980194 1.41283 0.25
744 4.54874 0.476586 2.23419 0.25
745 3.47636 4.0741 5.76341 0.25
746 1.41476 6.27392 4.53925 0.5
747 4.26837 8.29945 1.65307 0.25
748 2.68302 6.86612 7.49694 0.25
749 1.46569 1.24053 1.81934 0.25
750 0.0496793 3.29981 1.8993 0.25
751 1.7231 0.766227 5.20416 0.25
752 6.08945 5.02362 7.06975 0.25
753 4.06269 0.560683 1.72403 0.5
754 4.40816 5.53538 1.80066 0.25
755 3.3488 2.73779 1.06129 0.5
756 0.0715743 6.72258 7.50367 0.25
757 5.48992 6.95098 5.67702 0.25
758 6.79164 4.04706 7.47347 0.25
759 3.64777 8.37342 6.20105 0.25
760 0.171705 2.70025 3.12357 0.25
761 3.65655 7.01435 7.4426 0.25
762 1.08205 1.795 3.20388 0.5
763 3.49333 8.25442 2.28799 0.25
764 1.32112 5.76061 0.6986 0.25
765 7.69914 5.2564 3.55834 0.25
766 8.23477 4.64505 2.81392 0.25
767 2.9153 7.03603 7.89497 0.25
768 1.69102 2.69558 4.03117 0.25
769 8.13665 3.78616 1.32584 0.25
770 4.51647 0.91377 7.95306 0.25
771 6.65999 0.71723 6.60234 0.25
772 5.14811 2.32164 7.83654 0.25
773 4.80836 0.299042 4.5319 0.5
774 3.59707 0.407658 5.88909 0.25
775 7.51779 4.63575 3.08723 0.5
776 6.81959 4.5144 1.05798 0.5
777 6.04573 6.84861 8.373 0.25
778 5.44156 0.0333847 7.88207 0.25
779 8.35324 8.31904 4.13725 0.25
780 2.44366 1.47684 5.99334 0.25
781 2.24046 1.85891 8.12772 0.25
782 0.756464 6.97775 0.0574602 0.25
783 6.68064 3.86694 1.35155 0.25
784 2.02073 7.00717 1.93089 0.25
785 2.73327 1.64215 6.42028 0.25
786 2.3836 7.36181 2.06481 0.25
787 7.85513 7.26427 7.37133 0.25
788 7.97287 4.28229 2.58489 0.25
789 3.19329 8.40188 3.90908 0.25
790 6.71211 8.13011 6.68351 0.25
791 0.0795129 4.85456 3.51686 0.5
792 2.47921 8.20281 7.42565 0.25
793 8.35645 6.67323 2.73154 0.25
794 5.24061 6.37625 6.26463 0.5
795 2.36461 4.03118 2.98188 0.25
796 2.65013 6.42329 5.64889 0.25
797 7.04699 6.99097 0.805242 0.25
798 7.92638 4.6039 1.15176 0.25
799 4.05211 3.34962 5.7673 0.25
800 0.0681186 2.22973 3.32937 0.25
801 3.35381 7.33707 7.22601 0.25
802 3.55469 5.20813 4.24304 0.25
803 2.90651 7.85921 6.94298 0.5
804 3.9746 6.63602 1.85155 0.25
805 1.99568 8.0254 1.72426 0.25
806 2.65163 1.8169 3.76306 0.25
807 4.42268 6.38766 5.55441 0.25
808 4.22796 2.2204 8.07456 0.25
809 1.89781 6.04444 5.53365 0.25
810 5.72704 7.58679 6.72193 0.25
811 1.34377 3.19395 4.39556 0.5
812 5.82599 7.56174 0.474021 0.25
813 4.83381 1.9416 2.89245 0.25
814 2.18332 7.59988 6.8285 0.25
815 2.4321 8.3146 4.19867 0.25
816 0.167575 3.23994 4.47794 0.25
817 4.37415 1.75434 8.17884 0.25
818 4.43098 2.19937 3.01051 0.25
819 1.85805 5.15327 0.990785 0.25
820 3.0103 3.06936 6.63415 0.25
821 1.13461 1.87137 7.86852 0.5
822 6.2408 4.43265 3.95996 0.5
823 5.25899 0.517206 8.04587 0.25
824 1.27881 0.526595 4.98696 0.25
825 3.75445 5.84324 7.80874 0.25
826 3.36842 3.73873 1.41853 0.5
827 5.62977 7.17735 6.41159 0.25
828 8.08394 2.37234 8.19347 0.25
829 0.0764074 8.09307 4.53619 0.25
830 1.43711 1.72398 2.49279 0.25
831 2.35275 3.84243 7.50939 0.25
832 6.06915 4.48113 2.47433 0.25
833 1.92962 1.51274 6.1892 0.25
834 4.08449 0.488396 2.48849 0.25
835 6.50072 1.6898 1.43704 0.25
836 3.29157 7.71944 7.60798 0.25
837 3.93293 5.04558 7.96791 0.25
838 7.2642 0.797439 1.03651 0.25
839 5.94865 7.5815 6.3189 0.25
840 6.82583 4.80487 7.19318 0.5
841 3.50293 6.52593 2.10262 0.25
842 0.276008 2.27618 2.55157 0.5
843 6.18061 3.67472 5.93436 0.25
844 5.07505 2.21117 -0.0375941 0.25
845 7.52966 2.05532 5.4084 0.25
846 3.03812 3.6154 7.14565 0.5
847 2.28797 4.57829 0.45858 0.25
848 1.97647 6.0406 5.04686 0.25
849 4.99848 8.16579 2.59872 0.25
850 6.77306 2.7487 5.78127 0.5
851 4.71559 7.94709 5.29985 0.25
852 6.61599 1.87418 8.30813 0.25
853 3.52148 0.380774 6.404 0.25
854 4.94382 1.79879 5.04851 0.5
855 0.644339 4.23902 5.12183 0.25
856 0.433287 5.47169 3.17517 0.25
857 4.11879 6.27149 1.57419 0.25
858 2.59221 4.51133 3.68807 0.25
859 6.81355 4.8083 4.49057 0.25
860 7.5188 4.52032 0.877337 0.25
861 4.62742 2.95897 8.26727 0.25
862 6.84014 4.95662 3.95328 0.25
863 5.4924 6.14072 0.364277 0.25
864 7.16317 6.93509 2.51121 0.25
865 3.79348 5.50491 8.1438 0.25
866 4.93448 8.08816 2.12678 0.25
867 1.8426 3.99988 7.51114 0.25
868 2.09814 1.38674 0.281506 0.5
869 0.881576 3.17206 7.00808 0.25
870 6.35641 5.52823 3.56544 0.25
871 2.83237 7.10904 7.12202 0.25
872 6.21618 2.99728 5.36927 0.25
873 8.31613 8.31464 0.0889386 0.25
874 4.97027 1.78274 5.7543 0.25
875 2.34145 4.13817 1.14689 0.5
876 1.59735 5.81291 5.17664 0.25
877 8.3436 5.19826 7.82875 0.25
878 5.85823 1.05638 2.63478 0.25
879 2.89159 0.0649251 4.30983 0.25
880 6.4452 6.02272 3.35008 0.25
881 7.56018 0.979966 1.37616 0.25
882 8.34645 7.2373 7.53519 0.25
883 0.51074 3.48266 2.01113 0.25
884 6.98629 3.67896 1.02753 0.25
885 0.716395 3.76865 5.34517 0.25
886 7.63108 7.60296 3.54742 0.25
887 1.2043 6.35839 1.36241 0.25
888 0.802191 4.8607 3.78071 0.25
889 1.25199 7.74967 2.28816 0.25
890 7.96295 4.77141 2.40953 0.25
891 0.871918 2.50578 7.52109 0.25
892 7.36534 4.02491 0.935724 0.25
893 1.00418 7.71567 0.462772 0.25
894 4.15557 5.10945 1.66215 0.25
895 4.43907 5.92112 1.44881 0.25
896 1.57497 1.18444 8.10609 0.25
897 0.0934295 3.64244 1.03911 0.25
898 0.582117 5.09479 4.1035 0.25
899 1.21398 8.15291 6.14145 0.25
900 4.91529 6.34783 5.60855 0.25
901 1.11164 1.40975 2.58017 0.25
902 7.50561 4.30027 1.30576 0.25
903 6.02904 3.73853 4.34737 0.25
904 7.03916 4.38138 7.76775 0.25
905 5.20994 0.711563 5.02689 0.25