ITEM: TIMESTEP
690000
ITEM: NUMBER OF ATOMS
1000
ITEM: BOX BOUNDS xy xz yz pp pp pp
0.0000000000000000e+00 8.3788359999999997e+00 0.0000000000000000e+00
0.0000000000000000e+00 8.3788359999999997e+00 0.0000000000000000e+00
0.0000000000000000e+00 8.3788359999999997e+00 0.0000000000000000e+00
ITEM: ATOMS id x y z radius
1 2.70265 6.74549 4.97722 0.25
2 4.79309 5.27811 5.01139 0.25
3 6.92102 4.54088 3.21031 0.25
4 7.1561 1.00148 5.90447 0.5
5 1.267 5.70499 6.33471 0.25
6 8.2196 1.78203 3.4452 0.25
7 4.39914 3.36516 6.51552 0.25
8 4.80593 7.74499 3.03101 0.25
9 0.76303 6.14448 3.80905 0.25
10 4.0094 1.52505 3.4573 0.25
11 5.33949 0.0358237 7.95407 0.25
12 5.1361 3.48136 1.53056 0.25
13 0.761383 2.42913 7.44787 0.25
14 4.03446 2.9534 7.21959 0.25
15 8.15147 2.99998 5.97782 0.25
16 7.28872 1.01115 6.61744 0.25
17 0.986918 5.38498 8.31068 0.25
18 6.19631 7.41197 8.18602 0.25
19 4.60001 1.88718 7.64488 0.25
20 7.84034 1.44066 0.639261 0.25
21 5.02466 4.3262 1.8641 0.25
22 4.20732 3.16852 1.36575 0.25
23 2.17332 3.32922 2.03861 0.25
24 2.77056 2.01508 4.65512 0.25
25 2.74243 4.44318 2.9527 0.25
26 0.359518 8.1944 5.78991 0.25
27 3.85122 0.293503 5.8328 0.25
28 4.2225 2.3822 8.21572 0.25
29 5.06521 6.89026 2.87379 0.25
30 7.57676 7.33663 2.39719 0.25
31 2.87017 0.366737 8.07846 0.25
32 1.11055 2.75246 7.35202 0.25
33 7.43264 0.0428414 5.25897 0.25
34 2.04458 5.38214 1.49104 0.25
35 7.80563 0.0448776 4.61012 0.25
36 6.74542 2.02417 5.88268 0.5
37 4.43206 1.3735 1.9579 0.25
38 1.9711 3.41791 4.28493 0.25
39 6.05706 2.53899 4.82051 0.25
40 5.30525 7.66921 3.07813 0.25
41 6.55867 2.2367 2.80434 0.25
42 5.64809 6.20851 5.65593 0.25
43 3.40395 7.78644 4.7573 0.25
44 3.71461 8.25209 5.49399 0.25
45 5.57584 3.95436 4.00085 0.25
46 3.17982 6.06049 1.43822 0.5
47 4.90106 0.973788 5.47459 0.25
48 8.15812 6.34256 6.81386 0.25
49 7.28084 6.72396 4.7369 0.25
50 7.88727 1.28427 1.07598 0.25
51 2.4436 3.42572 4.45111 0.25
52 0.623281 1.62116 2.36561 0.25
53 6.57038 5.16561 6.93035 0.25
54 5.82759 3.12186 4.06893 0.25
55 1.54411 0.90181 5.77486 0.25
56 1.31072 7.23146 0.109327 0.25
57 4.63303 0.888058 1.85003 0.25
58 2.12437 2.14659 4.16665 0.25
59 4.74406 1.08465 6.35438 0.25
60 7.76585 5.45934 5.2423 0.25
61 5.09672 8.02023 8.15677 0.25
62 5.23791 1.91132 0.10762 0.5
63 7.57244 6.61717 1.11687 0.25
64 1.13863 6.40457 1.41941 0.25
65 4.2101 0.176023 1.83868 0.25
66 2.2743 4.73321 7.17516 0.25
67 8.21249 4.91296 7.49326 0.25
68 6.92131 0.709813 6.54091 0.25
69 0.451689 5.50442 7.65732 0.25
70 1.74551 4.79317 0.976018 0.25
71 8.18899 1.34959 0.296836 0.25
72 6.39717 6.17115 3.48167 0.25
73 0.625915 7.52238 6.86308 0.25
74 7.49959 5.6484 6.80222 0.25
75 7.05569 0.0700742 3.37869 0.25
76 7.51575 6.41377 4.38559 0.25
77 5.57774 2.76965 5.42947 0.25
78 5.39686 3.75927 1.20984 0.25
79 7.37178 5.10697 4.54669 0.25
80 5.7126 3.2109 5.41165 0.25
81 7.03765 1.33122 1.09902 0.25
82 8.3651 2.59873 5.84289 0.25
83 4.50645 5.85743 5.65897 0.25
84 1.09662 0.769699 5.98854 0.25
85 1.18463 1.01429 5.00387 0.25
86 4.52712 -0.00356791 5.32431 0.25
87 1.88402 2.3837 0.807911 0.25
88 3.27096 6.87345 1.61713 0.25
89 7.07047 7.25044 0.766957 0.25
90 5.48286 6.62537 5.49015 0.25
91 4.0887 4.18191 6.09386 0.25
92 6.24048 4.66131 7.42058 0.25
93 4.95104 6.61124 5.44797 0.25
94 6.55491 0.194103 3.97085 0.25
95 0.418077 4.51661 7.81927 0.5
96 5.34891 3.01987 3.46592 0.5
97 4.25557 5.01386 8.1618 0.25
98 8.26355 2.25318 3.43623 0.25
99 1.58585 6.32287 5.92516 0.25
100 7.09191 6.84294 1.0768 0.25
101 0.916041 7.75275 8.12667 0.25
102 7.72382 4.7474 3.35751 0.25
103 6.69578 1.13725 1.36611 0.25
104 1.04709 4.72619 7.53739 0.25
105 5.13765 5.9545 5.17071 0.5
106 5.18524 0.48336 4.47949 0.25
107 4.38975 3.36429 7.10499 0.25
108 4.62657 1.37717 8.32663 0.25
109 0.704198 0.81296 5.68694 0.25
110 2.40742 8.00484 8.22364 0.25
111 3.14189 3.78065 6.83688 0.25
112 4.6056 2.17659 8.06058 0.25
113 1.61916 1.86973 1.81072 0.5
114 1.81987 3.73827 7.11176 0.25
115 4.76194 6.19388 6.37981 0.25
116 2.66104 7.16436 6.97735 0.25
117 4.01393 2.25439 3.81044 0.5
118 6.84039 7.24156 1.25042 0.25
119 0.828653 6.31311 3.32479 0.25
120 0.165593 2.79494 2.40362 0.25
121 3.1006 4.06386 3.63834 0.25
122 6.5159 0.96628 6.42884 0.25
123 5.23829 0.566654 5.48491 0.25
124 8.06027 7.99238 2.45885 0.25
125 3.32753 2.02973 3.92222 0.25
126 3.56489 1.13728 5.97859 0.25
127 5.30044 3.92198 1.6894 0.25
128 6.72932 5.50446 7.15873 0.25
129 0.982267 6.43007 4.16641 0.25
130 6.04117 6.23149 0.646039 0.25
131 7.10892 1.53734 6.39779 0.25
132 5.99289 4.22018 7.51451 0.25
133 2.94707 1.80763 3.65453 0.25
134 4.56299 2.70961 8.20696 0.25
135 5.40249 3.7248 3.61458 0.25
136 2.74681 2.58788 3.78547 0.5
137 2.89395 4.01422 3.17596 0.25
138 7.53176 7.9221 2.91998 0.5
139 2.53564 7.51952 5.17039 0.25
140 5.24403 7.55936 8.0069 0.25
141 7.79468 5.88047 4.94694 0.25
142 1.14822 5.07497 3.33554 0.25
143 2.45354 2.12551 8.23267 0.25
144 5.06491 1.33195 2.42293 0.5
145 7.44983 1.92988 3.92423 0.25
146 6.20753 7.37991 0.289599 0.25
147 6.54763 5.61358 4.51245 0.25
148 2.11156 3.05783 4.6268 0.25
149 4.55131 8.31115 2.47636 0.5
150 4.88729 2.878 4.12819 0.25
151 3.47847 5.8008 7.16833 0.25
152 3.76229 4.65717 5.54306 0.25
153 6.76947 6.00031 2.32267 0.5
154 7.22518 2.33194 4.55215 0.5
155 3.04108 7.16868 7.74511 0.25
156 7.48271 3.52379 1.44482 0.25
157 7.76784 5.96402 1.62008 0.25
158 2.61664 3.91449 0.98219 0.25
159 6.96977 7.66521 4.33725 0.25
160 6.41613 1.83853 3.02799 0.25
161 1.02931 5.18387 2.89095 0.25
162 5.94467 4.41863 7.08366 0.25
163 3.17364 3.85276 4.32538 0.5
164 2.55759 3.79757 2.53653 0.5
165 5.45304 7.92878 7.80655 0.25
166 0.273523 3.77385 8.04388 0.25
167 6.58456 4.09854 8.17992 0.25
168 4.86621 6.03236 5.92481 0.25
169 4.13702 4.34332 5.64491 0.25
170 8.29513 2.70096 6.32375 0.25
171 7.8886 5.87196 1.13357 0.25
172 1.23786 3.00811 6.93093 0.25
173 4.39188 6.20736 5.98548 0.25
174 2.33458 2.25431 0.993145 0.25
175 7.65976 2.42036 5.9223 0.5
176 2.49276 5.83132 6.13324 0.25
177 5.38726 3.45359 4.04892 0.25
178 3.09699 6.57409 1.99358 0.25
179 3.27523 2.08571 3.40195 0.25
180 5.9052 6.68458 5.75418 0.25
181 6.71574 4.3068 6.80257 0.25
182 3.36107 5.17783 3.23445 0.25
183 8.01576 7.59711 1.70119 0.25
184 3.80523 5.23202 8.28074 0.25
185 5.82519 6.99522 6.17945 0.25
186 7.52609 5.95922 4.50065 0.25
187 2.93093 5.31693 4.0025 0.25
188 0.706688 5.83451 3.35052 0.25
189 4.19135 6.62796 3.62745 0.25
190 3.92086 3.56529 1.51149 0.25
191 7.16326 1.71452 0.523215 0.5
192 1.05728 5.05858 7.95095 0.25
193 3.9146 5.31585 1.04429 0.25
194 2.60428 6.43522 1.94928 0.25
195 6.22282 5.59999 2.73492 0.25
196 2.1732 8.09774 2.68608 0.25
197 1.03586 0.104859 2.38146 0.25
198 7.76138 5.01013 7.39353 0.25
199 1.08539 1.3909 3.16332 0.25
200 4.61375 5.32719 1.2824 0.5
201 6.67203 1.48874 3.04105 0.25
202 8.11285 3.87141 5.32434 0.25
203 3.52635 1.70903 3.65972 0.25
204 5.75816 8.00148 0.0955507 0.5
205 2.39041 7.41054 4.40023 0.5
206 0.180772 4.47191 5.11023 0.25
207 5.63387 2.64862 4.08561 0.25
208 6.90599 5.25814 4.37601 0.25
209 5.50716 7.04876 0.131006 0.5
210 1.75987 8.10292 2.99978 0.25
211 0.53655 3.75432 5.0425 0.25
212 1.59239 7.91865 8.31406 0.5
213 0.238702 4.06166 2.70983 0.25
214 1.75232 8.10698 2.4752 0.25
215 2.81411 4.31036 3.92169 0.25
216 6.21864 1.94035 2.52848 0.25
217 4.9504 3.78502 1.93305 0.25
218 2.27293 3.40193 4.97074 0.25
219 4.42673 1.14118 2.78389 0.25
220 3.53002 3.60266 1.10198 0.25
221 4.14177 8.35186 5.6331 0.25
222 7.12164 0.471318 5.27914 0.25
223 8.04198 2.75278 2.65679 0.25
224 7.26663 5.58315 7.20595 0.25
225 7.25364 2.14534 5.30243 0.25
226 5.04101 2.09471 7.77565 0.25
227 6.51292 3.86534 6.9637 0.25
228 5.38398 3.00774 4.21186 0.25
229 5.63222 5.05863 1.83707 0.25
230 0.646479 8.18827 6.47769 0.5
231 5.38077 4.57302 1.26541 0.5
232 1.82731 2.89853 4.34178 0.25
233 3.79473 5.20599 4.37022 0.25
234 6.41331 1.36388 6.7957 0.25
235 3.15943 7.33098 4.52647 0.25
236 1.07011 2.5263 7.83924 0.25
237 8.37715 2.9563 7.46421 0.25
238 3.07952 0.824612 1.54645 0.25
239 0.211864 2.39986 3.81276 0.25
240 6.71318 6.23559 1.53744 0.25
241 3.4151 7.01042 7.98593 0.25
242 1.62299 7.44106 2.67541 0.5
243 2.93723 4.80015 3.24483 0.25
244 7.11895 3.45094 1.09462 0.25
245 1.97483 1.15816 5.6386 0.25
246 7.4064 8.20615 3.62459 0.25
247 3.42149 2.4595 3.59475 0.25
248 3.70067 3.15321 1.30044 0.25
249 0.285234 5.11836 7.32839 0.25
250 1.22539 3.71055 5.47556 0.25
251 5.26497 2.49077 4.72065 0.5
252 3.11056 2.2282 4.36131 0.25
253 8.11964 5.68086 7.28334 0.5
254 7.47403 6.00705 7.16054 0.25
255 4.65413 0.426038 5.93864 0.5
256 5.65953 6.25958 0.272506 0.25
257 1.00389 0.174795 2.89581 0.25
258 1.59619 1.69808 2.529 0.25
259 4.31001 3.42099 1.76288 0.25
260 7.94267 6.31131 1.27276 0.25
261 3.91595 8.21988 1.60386 0.25
262 3.37059 2.54125 4.10257 0.25
263 2.33711 0.299722 0.156953 0.5
264 2.78155 4.41385 3.46247 0.25
265 1.18581 3.99172 7.38841 0.5
266 1.00828 7.78903 7.4215 0.5
267 5.31345 2.52381 7.90793 0.25
268 6.45059 7.68797 0.0604848 0.25
269 1.85037 5.59024 0.726964 0.25
270 4.03868 3.45939 1.04224 0.25
271 7.29718 7.74732 4.66965 0.25
272 1.67705 1.15608 2.64041 0.25
273 1.42736 3.43437 6.96773 0.25
274 0.921081 5.5142 7.85075 0.25
275 4.66724 4.57271 1.5462 0.25
276 2.73024 3.19766 1.21636 0.25
277 6.57437 0.912142 6.86964 0.25
278 3.88449 6.18781 1.14023 0.25
279 4.02217 0.478167 5.13064 0.5
280 7.64915 8.06775 4.90203 0.25
281 0.81883 6.5266 1.03784 0.25
282 6.22735 7.21171 6.36379 0.25
283 1.16769 0.245394 6.00275 0.25
284 7.29761 4.35539 0.945574 0.25
285 1.82862 6.08886 1.30315 0.5
286 5.47219 6.65561 3.04091 0.25
287 1.38429 7.77224 3.55755 0.5
288 2.87331 7.15802 4.94303 0.25
289 2.38573 7.08852 5.03612 0.25
290 1.99853 3.80909 1.98163 0.25
291 8.2321 7.66725 7.10467 0.25
292 7.71834 2.4258 3.4141 0.25
293 7.41975 4.37512 3.28295 0.25
294 5.39107 3.75509 3.10783 0.25
295 8.09397 4.15716 1.06863 0.25
296 0.495064 4.22377 4.49764 0.5
297 4.01963 3.21642 6.80232 0.25
298 6.4534 5.20152 7.4311 0.25
299 6.01054 5.08884 7.60927 0.25
300 6.34628 3.48595 0.416663 0.25
301 1.22694 7.37237 7.95585 0.25
302 0.105192 4.23458 1.44352 0.25
303 3.4785 0.597839 1.27183 0.25
304 1.94391 2.63374 4.78287 0.25
305 0.819131 4.88642 8.36716 0.25
306 2.28377 2.20056 4.67554 0.25
307 1.77159 4.7544 7.72167 0.5
308 3.61468 5.6079 3.1349 0.25
309 4.39791 1.02245 5.57455 0.25
310 0.446359 4.74073 3.87343 0.25
311 7.1325 0.0645752 3.88581 0.25
312 0.905708 0.91764 2.55594 0.5
313 0.722882 3.85833 5.44431 0.25
314 5.13523 3.4977 2.81833 0.25
315 1.10198 4.56328 8.05012 0.25
316 1.91545 4.29422 7.07307 0.25
317 7.44822 2.3847 3.8388 0.25
318 2.1711 2.60467 4.39318 0.25
319 4.85018 7.24791 8.17359 0.25
320 2.08234 6.09295 6.03783 0.25
321 3.95492 0.747151 1.16321 0.25
322 7.039 6.30942 5.12559 0.25
323 0.748491 6.03161 4.28949 0.25
324 4.15278 7.17564 7.84378 0.5
325 1.12963 1.88213 0.169521 0.25
326 4.21043 4.88913 4.93511 0.5
327 7.21776 7.39945 3.39743 0.25
328 2.2365 7.87238 1.84993 0.25
329 1.15085 5.97326 3.52589 0.25
330 8.25627 7.20856 7.39336 0.25
331 0.822831 5.37229 3.92159 0.5
332 7.40046 6.5212 2.13434 0.25
333 0.959256 1.51013 2.00642 0.25
334 6.76041 1.63676 1.25279 0.25
335 3.21243 3.15623 1.13014 0.25
336 3.11141 7.07972 6.8038 0.25
337 4.31542 7.19934 3.09479 0.5
338 6.59162 7.22928 8.38944 0.25
339 1.9535 7.83842 4.04473 0.25
340 4.71514 0.614813 4.74309 0.25
341 6.60875 0.144438 3.15333 0.25
342 1.25199 5.22104 7.54135 0.25
343 2.86949 1.39684 0.323161 0.25
344 1.37 5.56369 2.82577 0.25
345 0.37473 1.39732 2.78286 0.25
346 0.567965 2.37282 7.92942 0.25
347 3.35744 5.79672 7.64294 0.25
348 7.35494 7.7521 2.15883 0.25
349 0.947932 2.25215 8.24206 0.25
350 6.70869 1.73374 2.62921 0.25
351 1.34497 6.85793 0.518663 0.25
352 6.41021 3.6273 7.6922 0.5
353 2.51974 0.0341691 7.48256 0.25
354 1.89489 0.668686 5.4587 0.25
355 0.711008 0.440039 6.00756 0.25
356 1.56591 1.66429 6.12028 0.25
357 2.87876 3.83696 6.44833 0.25
358 6.10248 3.34329 5.19032 0.25
359 4.29082 0.878866 6.35773 0.25
360 1.91906 2.08665 1.16902 0.25
361 1.00649 7.60187 0.238285 0.25
362 6.24234 4.19635 6.71623 0.25
363 7.99091 4.05669 2.03059 0.25
364 6.03732 3.91992 7.06849 0.25
365 5.53424 6.15973 0.756177 0.25
366 5.31832 6.6517 0.790579 0.25
367 2.88597 4.21489 6.7994 0.25
368 6.99455 3.82715 8.20491 0.25
369 1.02406 6.46508 0.585082 0.25
370 5.44091 0.372052 8.3087 0.25
371 2.60689 8.01078 4.91504 0.25
372 2.11658 4.6841 0.692784 0.25
373 6.98005 2.79584 5.10213 0.25
374 3.69142 4.44447 4.55417 0.25
375 5.25869 0.82668 8.24569 0.25
376 2.51827 5.9578 1.10026 0.25
377 6.42531 1.4793 1.98685 0.5
378 0.442118 3.8037 7.59282 0.25
379 5.07109 1.29175 8.13067 0.25
380 2.26746 6.68829 4.68366 0.25
381 4.18537 5.38908 5.57587 0.25
382 1.90191 6.96331 4.81459 0.25
383 6.21224 5.23849 3.95452 0.5
384 1.61702 1.76278 1.09385 0.25
385 7.3539 1.5969 7.09202 0.5
386 1.16242 1.09164 5.5433 0.25
387 7.88358 0.885321 0.774371 0.25
388 0.818436 5.6488 2.90483 0.25
389 4.63982 2.63863 7.47187 0.5
390 3.97989 0.501228 6.28494 0.25
391 5.31436 4.74792 2.02873 0.25
392 8.10448 2.57978 3.15881 0.25
393 2.85316 6.68197 1.58191 0.25
394 0.988657 8.24121 8.02333 0.25
395 2.07865 1.66734 1.25231 0.25
396 4.73214 7.65725 8.02425 0.25
397 5.04133 0.557009 0.154303 0.25
398 7.52289 1.63795 8.23379 0.25
399 3.20474 4.35151 3.19758 0.25
400 4.88378 4.43084 0.715058 0.25
401 2.28601 7.13092 3.71159 0.25
402 8.33007 7.9983 6.73589 0.25
403 7.73811 6.23155 0.801485 0.25
404 8.05989 6.81778 7.01931 0.25
405 0.560857 7.67102 0.0765471 0.25
406 5.37481 0.0724323 4.21058 0.25
407 2.68973 1.1026 8.04083 0.5
408 5.54361 3.4197 2.42659 0.25
409 2.13977 4.97087 1.14012 0.25
410 7.59523 0.940342 0.177354 0.5
411 4.47518 5.565 5.24224 0.25
412 8.29817 7.19155 6.86356 0.25
413 1.47898 1.5445 8.38803 0.25
414 0.631116 3.11928 7.84567 0.5
415 6.4333 4.58501 2.95983 0.25
416 3.20869 3.0175 6.58807 0.25
417 3.40622 4.74028 3.84817 0.5
418 7.01098 6.6221 4.27673 0.25
419 4.09745 3.8006 5.81479 0.25
420 0.777524 3.09209 4.8375 0.25
421 4.22585 4.85402 5.66345 0.25
422 2.20335 5.51335 1.05062 0.25
423 0.260035 0.218998 5.97891 0.25
424 0.39877 3.41937 4.69516 0.25
425 2.02484 2.81163 1.36722 0.5
426 7.11159 5.58276 5.00325 0.5
427 2.57287 2.2457 4.32152 0.25
428 4.03873 5.13137 3.93289 0.25
429 4.58635 4.51564 5.53543 0.25
430 1.82221 7.1979 3.42433 0.25
431 0.969 3.44134 6.78202 0.25
432 1.70546 6.74154 4.07145 0.5
433 2.53911 1.62826 7.55839 0.25
434 1.02068 6.91042 1.31384 0.25
435 5.63307 3.42946 2.879 0.25
436 1.09869 5.97092 3.02171 0.25
437 0.256195 1.17496 0.343675 0.25
438 0.873395 3.45781 5.18804 0.25
439 4.02163 2.66316 6.80418 0.25
440 5.09718 1.62663 7.73694 0.25
441 7.79263 4.2004 5.1571 0.25
442 2.44026 5.66259 1.52332 0.25
443 0.471843 2.88386 6.90432 0.5
444 2.1113 3.55283 1.57286 0.25
445 5.65765 7.0078 0.911139 0.25
446 4.28944 5.82456 3.58955 0.5
447 1.31974 1.22844 6.05661 0.25
448 5.84666 7.45434 6.13783 0.25
449 1.04733 5.53071 5.8741 0.25
450 3.0069 3.62455 1.10794 0.25
451 2.66494 7.04008 5.38907 0.25
452 2.47676 1.09178 0.413245 0.25
453 4.60364 4.63029 1.0401 0.25
454 0.155694 3.42559 7.35438 0.25
455 7.95697 5.16092 7.81554 0.25
456 2.85158 1.87684 4.15042 0.25
457 2.55877 3.71722 7.21175 0.5
458 0.154808 7.58237 6.72172 0.25
459 5.06381 7.62867 0.0565144 0.25
460 5.52512 0.187766 4.69364 0.25
461 2.62298 3.71495 1.4342 0.25
462 6.18228 4.89115 3.27338 0.25
463 4.98842 7.35595 2.8653 0.25
464 7.55125 6.93073 7.01491 0.25
465 7.08024 2.55318 5.52977 0.25
466 4.04 1.45461 2.94939 0.25
467 3.90323 6.21041 1.63997 0.25
468 6.82725 5.2579 3.03341 0.5
469 7.51936 7.45182 6.73146 0.25
470 1.01906 1.41962 0.115985 0.25
471 1.99358 0.766537 5.92187 0.25
472 1.98484 7.412 1.94496 0.25
473 7.53655 5.05674 5.43986 0.25
474 5.35928 5.87075 5.86766 0.25
475 1.30433 1.40606 2.78315 0.25
476 7.08971 1.03768 7.49434 0.25
477 3.30914 5.42239 3.71323 0.25
478 6.33251 3.42979 6.9977 0.25
479 3.49749 7.18051 7.51173 0.25
480 4.70279 0.352258 1.85175 0.25
481 7.82043 2.14639 4.14629 0.25
482 6.96994 4.89053 4.71555 0.25
483 8.18086 5.56124 4.94291 0.25
484 2.93005 8.26199 8.32236 0.25
485 8.0344 7.55901 6.71719 0.25
486 2.56472 6.13274 5.8276 0.25
487 8.01205 7.672 4.28572 0.25
488 4.54507 4.13176 5.86685 0.25
489 0.824831 8.07866 0.101148 0.25
490 8.12902 8.03559 1.97372 0.25
491 4.41456 2.94901 1.72947 0.25
492 2.40953 1.80231 4.39999 0.25
493 6.37149 4.66648 6.90172 0.25
494 4.71389 7.57874 2.54449 0.25
495 1.31861 5.92736 5.96103 0.25
496 2.92166 7.66544 4.82871 0.25
497 6.44332 4.39233 7.75406 0.25
498 3.27018 3.07064 4.1962 0.25
499 0.759167 5.15625 7.52688 0.25
500 4.1488 2.96165 6.39605 0.25
501 5.78917 3.59025 3.84514 0.25
502 1.78036 8.01899 7.57362 0.25
503 5.89026 4.94885 2.60079 0.5
504 7.81551 7.7252 2.17378 0.25
505 5.8732 1.60149 2.46932 0.25
506 7.08679 6.25978 4.59284 0.25
507 1.24546 0.530803 3.14405 0.25
508 0.597749 8.25971 5.37099 0.25
509 7.99688 4.85729 4.87835 0.5
510 4.95395 1.64684 5.877 0.25
511 0.515057 0.325054 5.56204 0.25
512 1.00168 0.904749 3.31177 0.25
513 3.8702 1.11488 5.58225 0.25
514 2.09074 5.58376 6.06273 0.25
515 1.07179 7.53951 6.66472 0.25
516 7.44691 1.73451 6.07235 0.25
517 7.37115 5.4918 4.30969 0.25
518 0.833225 3.62163 4.71251 0.25
519 6.3499 1.93352 1.32737 0.25
520 7.22217 2.00567 6.43254 0.25
521 7.83782 1.67198 0.200106 0.25
522 6.84308 1.3738 7.73059 0.25
523 5.1541 6.86241 5.82529 0.25
524 2.81108 0.416195 7.59535 0.25
525 6.42847 4.25791 7.20385 0.25
526 7.08324 5.31349 6.79804 0.25
527 7.27381 7.92752 4.10091 0.25
528 7.60564 1.38774 6.40993 0.25
529 6.63532 1.22509 2.66082 0.25
530 2.03645 1.57612 6.34617 0.25
531 7.7825 7.96028 3.91368 0.25
532 1.43688 1.02018 3.0575 0.25
533 7.38486 1.28027 7.86446 0.25
534 8.26626 5.97238 1.45089 0.25
535 0.252828 3.21939 5.43593 0.5
536 6.97193 2.71006 5.95576 0.25
537 4.03815 0.799085 5.88511 0.25
538 6.50308 5.15393 4.69845 0.25
539 2.2637 1.23018 5.99072 0.25
540 8.15195 6.42283 2.04145 0.5
541 7.5612 3.96714 1.69603 0.25
542 2.32056 2.03427 7.71112 0.25
543 3.45339 7.3104 7.04738 0.25
544 7.75451 6.56597 6.72001 0.25
545 1.23342 6.05375 4.05284 0.25
546 5.08464 5.82443 6.29441 0.25
547 5.36367 2.65929 8.38631 0.25
548 6.23294 7.31091 6.84177 0.25
549 0.3247 7.91742 7.09047 0.25
550 6.22864 6.93974 0.010381 0.25
551 4.48332 1.64408 2.80593 0.25
552 3.72248 5.51344 3.96771 0.25
553 6.7105 7.89484 3.65233 0.5
554 4.26938 6.46947 3.15884 0.25
555 4.91603 6.65726 3.54973 0.5
556 7.43906 0.676026 0.940615 0.25
557 7.18155 4.8578 3.88993 0.5
558 6.27293 0.146032 3.52194 0.25
559 1.20004 0.382618 5.35213 0.5
560 5.06445 3.38766 2.32611 0.25
561 2.78814 3.23541 4.15459 0.25
562 5.07434 0.0849551 5.34069 0.25
563 2.37949 6.64165 1.57656 0.25
564 6.38682 6.95131 0.793657 0.5
565 6.75648 1.75292 6.5967 0.25
566 1.12651 1.72042 2.42815 0.25
567 4.57843 5.76412 6.22181 0.25
568 5.76766 1.26087 2.78992 0.25
569 2.61709 8.35996 7.91543 0.25
570 1.84297 6.46073 4.76283 0.25
571 3.14121 4.13759 7.23698 0.25
572 8.06195 2.75675 3.9425 0.5
573 4.28986 1.43996 2.44056 0.25
574 1.71973 5.85258 6.24403 0.25
575 2.33269 1.68914 8.06337 0.25
576 4.18682 5.56084 7.64302 0.25
577 5.13713 0.38025 4.9601 0.25
578 1.92734 7.38787 3.84493 0.25
579 7.51987 5.33843 7.57563 0.25
580 7.02678 0.0147999 4.60579 0.5
581 4.3967 4.59068 5.98698 0.25
582 5.82879 2.89986 4.46509 0.25
583 5.65878 3.55173 4.66904 0.5
584 4.79189 6.5346 5.99552 0.25
585 4.68925 3.18188 1.46368 0.25
586 1.71365 0.388415 2.63066 0.5
587 4.72902 7.04947 2.53332 0.25
588 5.76677 5.08229 3.40299 0.25
589 0.273739 2.55555 7.553 0.25
590 3.57309 6.50148 1.87583 0.25
591 6.61879 1.28495 0.85239 0.25
592 7.46449 7.16246 1.67704 0.5
593 6.80106 6.73789 1.45342 0.25
594 1.46345 5.00854 0.334559 0.5
595 0.719938 3.87382 7.99086 0.25
596 2.08127 0.863364 0.55766 0.25
597 8.21656 0.122876 5.2493 0.5
598 2.5035 6.47193 1.17904 0.25
599 2.13101 8.31641 7.86 0.25
600 7.58434 0.507161 5.41785 0.25
601 0.420274 0.67417 5.24134 0.25
602 3.96086 0.286615 2.28092 0.25
603 4.2291 5.44249 8.09679 0.25
604 7.50797 5.18878 7.03895 0.25
605 7.83337 2.02155 3.6624 0.25
606 2.16351 8.22052 2.18448 0.25
607 4.47322 5.19148 7.78703 0.25
608 3.71879 7.60647 7.37338 0.25
609 6.58491 4.78171 4.38817 0.25
610 1.52488 1.37404 5.662 0.25
611 3.20848 0.614344 7.781 0.25
612 0.823372 7.2433 8.30985 0.25
613 7.0252 1.35452 8.20964 0.25
614 4.61095 0.952389 5.09498 0.25
615 4.65275 2.68717 3.75532 0.25
616 1.13883 5.54317 3.25543 0.25
617 1.36541 8.10175 2.31232 0.25
618 7.45614 7.20523 4.15437 0.5
619 7.65348 7.99211 4.44075 0.25
620 8.3193 7.31183 2.32821 0.5
621 4.39531 6.43175 4.05947 0.25
622 6.22862 6.74101 6.17077 0.25
623 5.7973 6.52178 1.03732 0.25
624 1.06752 3.26534 5.60968 0.25
625 1.40414 5.37054 8.04932 0.25
626 3.28409 0.417558 1.70845 0.25
627 4.89165 4.84941 1.80744 0.25
628 8.23885 3.45829 2.3789 0.5
629 7.12059 3.42488 0.067142 0.25
630 1.35026 8.39018 3.19788 0.25
631 2.07992 1.58752 7.6863 0.25
632 7.71028 7.94138 1.75129 0.25
633 6.34281 7.75952 0.558585 0.25
634 2.83207 7.8476 3.97717 0.25
635 0.722549 7.17685 0.693788 0.5
636 1.51213 2.26047 1.14644 0.25
637 5.54353 0.297073 5.18986 0.25
638 4.72473 1.37257 5.4389 0.25
639 4.51916 1.83636 0.0375013 0.25
640 5.29271 7.6368 0.53644 0.25
641 1.29247 6.56744 5.29352 0.25
642 3.56456 0.735745 5.647 0.25
643 6.13979 7.13611 5.8499 0.25
644 5.72626 0.810345 2.56047 0.25
645 2.2708 2.09053 1.51531 0.25
646 8.20637 6.79663 6.5412 0.25
647 2.30174 3.03423 4.16053 0.25
648 4.99928 1.08449 0.185859 0.25
649 0.44649 4.10777 1.87204 0.25
650 8.26496 3.73964 1.30437 0.25
651 3.08055 3.26731 3.74532 0.25
652 6.69567 1.27318 7.2342 0.25
653 1.30293 6.62684 0.966698 0.25
654 0.476216 2.55679 0.0259843 0.25
655 3.60988 3.59391 6.34136 0.5
656 0.619321 3.52888 7.23275 0.25
657 1.57341 5.4771 5.98922 0.25
658 6.70503 0.2804 3.58704 0.25
659 2.77931 1.88913 7.89476 0.25
660 6.96378 5.91041 3.96803 0.5
661 8.33398 1.08739 8.32229 0.25
662 3.97418 4.79852 4.28757 0.25
663 2.48595 3.67351 1.87505 0.25
664 6.57442 2.64321 4.84597 0.25
665 7.80285 3.81815 1.26259 0.25
666 6.06879 6.85636 6.6364 0.25
667 6.62131 3.55482 0.018187 0.25
668 7.09172 6.46097 1.8281 0.25
669 6.08455 4.98544 7.09752 0.25
670 5.50908 8.10201 4.56573 0.25
671 3.49148 4.88168 4.56233 0.25
672 2.65478 3.21833 2.10661 0.25
673 0.622833 1.20261 3.17874 0.25
674 4.98906 7.38203 3.38948 0.25
675 5.34057 3.55382 5.37313 0.25
676 7.69723 8.19504 2.19739 0.25
677 6.29817 1.39559 1.23322 0.25
678 7.48208 6.26264 4.87919 0.25
679 1.52616 6.80327 1.35785 0.25
680 3.6998 6.56009 8.05867 0.25
681 7.5987 -0.000465304 4.12755 0.25
682 2.53002 6.19295 1.57415 0.25
683 1.72634 7.60952 7.25889 0.25
684 0.342547 3.83942 1.45001 0.25
685 2.86178 3.39333 6.64745 0.25
686 4.44185 2.96242 6.81574 0.25
687 1.72905 4.35836 0.680174 0.25
688 3.56474 0.662656 6.07399 0.25
689 6.06559 4.15617 8.06937 0.25
690 6.12214 1.10349 2.52327 0.25
691 7.00853 1.37363 1.5962 0.25
692 5.23921 5.19703 1.69102 0.25
693 7.72103 1.85468 6.46962 0.25
694 7.27608 4.88121 5.03905 0.25
695 0.277932 2.91118 6.15208 0.25
696 5.70021 5.92213 3.26116 0.5
697 4.34628 3.81281 6.264 0.25
698 1.61366 0.977973 5.31459 0.25
699 1.46966 6.74372 4.89916 0.25
700 4.15295 5.80121 0.933353 0.25
701 4.81884 1.74193 8.04846 0.25
702 2.31007 4.30359 7.34969 0.25
703 3.40556 6.52119 7.39778 0.5
704 4.68058 5.26755 8.23049 0.25
705 4.76256 3.35264 1.91141 0.25
706 5.12873 0.0605242 0.0629321 0.25
707 4.60366 3.90768 1.3097 0.5
708 5.76601 7.50272 7.9072 0.25
709 2.70643 7.21955 2.04299 0.5
710 2.39587 4.37147 6.85725 0.25
711 5.07749 6.33672 2.92825 0.25
712 0.586724 5.22275 8.04932 0.25
713 2.74232 4.0833 1.75944 0.25
714 5.10623 4.00523 0.828743 0.25
715 4.6573 6.63333 2.84005 0.25
716 6.6141 0.927867 7.58769 0.25
717 7.46758 7.69217 3.66564 0.25
718 6.17215 3.70863 6.58351 0.25
719 6.02127 4.61376 7.8384 0.25
720 1.639 7.48098 4.20128 0.25
721 6.61466 2.13825 2.28523 0.25
722 2.3309 7.79807 3.40201 0.5
723 2.40685 7.64777 2.65283 0.25
724 7.17753 6.46258 1.36375 0.25
725 7.74924 6.44674 7.18335 0.25
726 0.751928 1.02306 5.27267 0.25
727 3.93647 0.356169 1.50279 0.25
728 3.70478 6.05279 7.94508 0.25
729 4.95795 6.01588 3.27665 0.25
730 3.02708 7.18022 7.27793 0.25
731 5.28583 3.1012 2.70898 0.25
732 4.20473 3.72231 6.81503 0.25
733 3.67162 5.40739 7.48437 0.25
734 3.9679 1.09188 2.61268 0.25
735 3.71521 2.9054 6.50087 0.25
736 8.01928 1.5142 8.20318 0.25
737 3.08309 0.378422 1.24267 0.25
738 0.348008 8.05978 0.183338 0.25
739 4.58111 6.19362 3.02893 0.25
740 5.38932 7.15383 3.21191 0.25
741 0.67166 7.87831 0.514708 0.25
742 3.88006 4.5989 5.96952 0.25
743 7.20542 0.966494 1.29415 0.25
744 4.4099 0.966869 2.30154 0.25
745 3.68928 4.17238 5.81011 0.25
746 1.28178 6.02483 4.81041 0.5
747 4.35792 0.552609 2.13876 0.25
748 2.78514 6.74688 6.98006 0.25
749 1.39773 1.35396 2.23115 0.25
750 0.0371762 3.41243 1.63654 0.25
751 0.744584 0.740551 4.85309 0.25
752 6.42225 4.88236 7.85122 0.25
753 3.79444 0.922692 1.89253 0.5
754 4.33852 6.04014 1.36346 0.25
755 2.87076 2.55003 1.52604 0.5
756 7.81502 6.9517 7.43298 0.25
757 5.63755 7.06619 5.75611 0.25
758 6.86829 4.04251 7.23603 0.25
759 4.09128 8.12876 5.18142 0.25
760 0.196464 2.62547 3.31408 0.25
761 3.8761 7.107 7.22931 0.25
762 0.567814 1.92695 3.37893 0.5
763 3.97292 8.20162 2.09685 0.25
764 1.13997 6.13625 0.989631 0.25
765 7.34509 4.78482 3.01865 0.25
766 0.514068 4.33308 2.38907 0.25
767 2.73678 6.90493 7.47162 0.25
768 2.10002 2.94544 5.12722 0.25
769 7.9296 3.65972 1.70634 0.25
770 4.7723 0.908192 8.15604 0.25
771 6.58968 1.41806 6.28818 0.25
772 4.97055 2.47122 8.1796 0.25
773 5.34933 1.04225 4.95301 0.5
774 3.54703 8.19909 5.00538 0.25
775 7.85187 4.29488 2.68988 0.5
776 6.95468 3.97724 0.516976 0.5
777 6.05718 6.55566 0.256546 0.25
778 5.02107 8.0137 0.280253 0.25
779 8.07503 8.19645 4.2194 0.25
780 2.00314 1.58066 5.81976 0.25
781 2.75216 1.7662 8.36728 0.25
782 1.45523 7.36468 0.565648 0.25
783 6.83326 3.24775 0.312808 0.25
784 2.10811 7.75302 2.29438 0.25
785 2.39377 1.72795 6.10129 0.25
786 2.54825 7.98927 2.32924 0.25
787 7.83452 7.08588 6.63818 0.25
788 0.0822106 4.09729 2.23124 0.25
789 3.49925 8.16461 4.43288 0.25
790 7.02778 0.907991 6.99704 0.25
791 0.637064 4.5998 3.19052 0.5
792 2.38249 0.393102 7.79728 0.25
793 8.26849 7.14315 1.62994 0.25
794 5.52892 6.44029 6.35936 0.5
795 2.38652 4.18766 3.21037 0.25
796 2.22228 5.82698 5.64275 0.25
797 6.78123 6.38365 1.09805 0.25
798 7.65099 4.28194 1.33037 0.25
799 4.28319 3.33324 6.041 0.25
800 7.87508 2.08391 3.17277 0.25
801 3.41917 7.83353 7.03297 0.25
802 3.37876 5.33764 4.25559 0.25
803 3.33224 8.28345 7.66783 0.5
804 3.79096 6.91291 1.79874 0.25
805 1.77686 7.91248 2.01828 0.25
806 2.45349 1.93007 3.92077 0.25
807 4.65758 6.30673 5.60084 0.25
808 4.15202 2.11898 7.75774 0.25
809 1.73474 5.89178 5.76541 0.25
810 6.50276 7.63623 6.60124 0.25
811 1.49516 3.26645 4.90484 0.5
812 5.83596 7.49252 0.6123 0.25
813 4.22754 1.86717 3.14166 0.25
814 1.62505 7.50948 7.72994 0.25
815 2.68617 8.02985 4.44491 0.25
816 0.941966 2.93668 5.31399 0.25
817 4.30195 1.71286 8.03016 0.25
818 3.70135 1.83868 3.16875 0.25
819 1.75316 5.28346 1.1249 0.25
820 3.58822 3.04048 6.93036 0.25
821 1.69099 2.13962 8.09458 0.5
822 5.92037 4.28015 3.42027 0.5
823 4.9909 0.401206 8.08604 0.25
824 0.513183 0.287907 5.00129 0.25
825 3.81602 5.91556 7.52458 0.25
826 3.25189 3.51076 1.78056 0.5
827 5.77279 7.21609 6.59083 0.25
828 0.454633 2.07612 7.60224 0.25
829 8.09156 8.00324 4.67848 0.25
830 0.832317 2.04627 2.62304 0.25
831 2.31893 4.21173 7.7893 0.25
832 5.77273 4.6108 1.91031 0.25
833 1.79059 1.2049 6.09875 0.25
834 4.14492 0.6481 2.57005 0.25
835 6.43371 1.7671 0.870059 0.25
836 3.46796 7.51241 7.82509 0.25
837 3.9683 5.13951 7.80537 0.25
838 7.70629 0.885713 1.26167 0.25
839 6.0062 7.64481 6.55844 0.25
840 6.98599 4.75251 7.33136 0.5
841 3.43521 6.93224 2.09627 0.25
842 0.105338 2.11373 2.71422 0.5
843 5.84472 3.71157 5.3541 0.25
844 4.60383 2.2915 0.161733 0.25
845 7.42664 2.68648 5.22854 0.25
846 3.68935 3.62778 7.33962 0.5
847 2.0511 5.16092 0.740105 0.25
848 1.78298 5.79211 5.31385 0.25
849 5.10452 7.82448 2.65819 0.25
850 6.33231 2.75163 5.53099 0.5
851 5.37001 8.27561 5.03674 0.25
852 7.1741 1.69895 7.86065 0.25
853 3.95087 8.2112 4.71332 0.25
854 4.20406 1.53792 6.09515 0.5
855 0.21664 4.02751 5.2303 0.25
856 0.670796 5.3146 3.2138 0.25
857 3.6899 6.6234 1.3991 0.25
858 2.73857 4.8454 3.71257 0.25
859 6.4318 4.54151 3.94828 0.25
860 7.67157 4.04235 0.852413 0.25
861 5.03221 2.91529 8.07789 0.25
862 6.55072 4.66287 3.45208 0.25
863 5.28449 6.39475 0.423185 0.25
864 7.64208 6.87278 2.36154 0.25
865 3.74035 5.586 7.96196 0.25
866 5.06495 8.14864 2.99934 0.25
867 1.91548 4.0198 7.50521 0.25
868 2.10889 1.71187 0.441436 0.5
869 1.01382 3.24338 7.24906 0.25
870 6.1186 5.37643 3.2131 0.25
871 2.97342 7.54125 6.96695 0.25
872 5.78734 2.91092 5.00291 0.25
873 0.528357 8.01663 8.03524 0.25
874 3.81771 0.950527 6.39847 0.25
875 2.12315 4.22935 1.37124 0.5
876 1.38221 5.62024 5.49941 0.25
877 0.0896597 5.18376 7.80395 0.25
878 5.76453 1.16937 2.1976 0.25
879 3.07485 8.15458 4.70824 0.25
880 6.42423 5.94625 3.0236 0.25
881 7.44856 1.40956 1.26976 0.25
882 7.88359 7.28966 7.0763 0.25
883 0.515731 3.86275 2.31975 0.25
884 7.18913 3.29716 0.598118 0.25
885 0.655216 4.25976 5.1587 0.25
886 7.69252 7.28825 3.32233 0.25
887 1.39796 7.11219 0.98624 0.25
888 1.20879 4.73668 3.6963 0.25
889 1.29081 8.12432 2.78449 0.25
890 0.118079 4.50167 2.58939 0.25
891 1.22064 2.2764 7.42978 0.25
892 7.52989 3.57791 0.912163 0.25
893 1.19489 7.82733 0.608863 0.25
894 3.91439 5.74481 1.40277 0.25
895 3.68191 5.71866 0.944154 0.25
896 1.95822 1.41094 8.15777 0.25
897 8.03457 4.12847 1.54549 0.25
898 0.869489 4.5356 3.93985 0.25
899 0.75876 -0.0140735 5.84457 0.25
900 5.16839 6.36543 5.75413 0.25
901 0.807244 1.58726 2.78729 0.25
902 7.29608 3.94461 1.22784 0.25
903 5.83406 3.57276 3.33517 0.25
904 6.87923 4.14658 7.7626 0.25
905 5.26776 0.880446 5.8127 0.25
906 2.08419 1.04775 0.118251 0.25