ITEM: TIMESTEP
270000
ITEM: NUMBER OF ATOMS
1000
ITEM: BOX BOUNDS xy xz yz pp pp pp
0.0000000000000000e+00 8.3788359999999997e+00 0.0000000000000000e+00
0.0000000000000000e+00 8.3788359999999997e+00 0.0000000000000000e+00
0.0000000000000000e+00 8.3788359999999997e+00 0.0000000000000000e+00
ITEM: ATOMS id x y z radius
1 2.85879 6.89574 4.84731 0.25
2 4.67546 5.12065 4.8953 0.25
3 7.18058 4.7224 3.14281 0.25
4 7.37563 0.879475 6.03856 0.5
5 1.25532 5.4025 6.1043 0.25
6 8.14396 1.89705 3.3103 0.25
7 4.05903 3.22759 6.47568 0.25
8 4.87982 7.74782 3.12412 0.25
9 0.949829 6.10713 3.63381 0.25
10 4.29383 1.75351 3.23242 0.25
11 5.55465 0.273148 8.18874 0.25
12 5.34849 3.44223 1.69555 0.25
13 0.523126 2.41071 7.48527 0.25
14 3.42284 2.87977 7.20065 0.25
15 8.23194 2.80525 6.33766 0.25
16 6.9247 0.854539 7.06478 0.25
17 0.685317 5.30971 0.0116148 0.25
18 5.8351 7.595 7.94291 0.25
19 4.05618 2.00167 7.84159 0.25
20 7.58678 1.34873 0.459963 0.25
21 5.04982 4.28206 2.04038 0.25
22 4.16968 3.42566 1.06226 0.25
23 2.09105 3.39209 1.89958 0.25
24 2.77145 1.42305 4.02558 0.25
25 2.67748 4.30961 2.95385 0.25
26 0.324241 8.20376 5.68257 0.25
27 3.77666 0.351942 5.98925 0.25
28 4.47988 2.34963 0.0919986 0.25
29 5.14711 6.86199 3.06673 0.25
30 7.56227 7.51121 2.4743 0.25
31 2.84188 0.124217 -0.0160047 0.25
32 0.923151 2.61777 7.39999 0.25
33 7.73892 0.673783 5.38072 0.25
34 2.05252 4.90582 1.49572 0.25
35 8.23531 0.111822 4.57333 0.25
36 7.10399 1.6436 5.56531 0.5
37 4.65513 1.14938 2.40239 0.25
38 2.23836 3.40178 4.39916 0.25
39 6.11998 2.62056 4.86612 0.25
40 5.3516 7.61837 3.3003 0.25
41 6.96133 2.08343 2.45459 0.25
42 5.55379 6.01468 5.51027 0.25
43 3.45294 7.62554 4.70027 0.25
44 3.94572 8.24801 5.90122 0.25
45 5.79456 4.09662 4.14101 0.25
46 3.33987 5.97407 1.41395 0.5
47 4.83657 0.800885 5.29748 0.25
48 7.75024 6.19996 6.91591 0.25
49 7.45019 6.88212 4.72966 0.25
50 7.72055 1.02429 0.83656 0.25
51 2.70295 3.30201 4.38692 0.25
52 0.698665 1.69068 2.42219 0.25
53 6.40788 5.17584 6.6601 0.25
54 5.93148 3.25077 4.05508 0.25
55 1.64139 1.47803 5.98384 0.25
56 0.958692 7.26344 0.06852 0.25
57 4.89567 0.851411 2.09114 0.25
58 2.32691 2.10938 4.11664 0.25
59 4.84087 1.60186 6.09884 0.25
60 7.93142 5.48656 5.37501 0.25
61 5.17445 8.36327 8.05058 0.25
62 5.15489 1.6941 7.90737 0.5
63 7.62112 6.75688 1.17909 0.25
64 1.24228 6.213 1.01954 0.25
65 4.3232 0.06058 1.99048 0.25
66 1.94265 4.88431 7.14326 0.25
67 7.89995 5.0025 7.04347 0.25
68 7.05155 0.588248 6.68267 0.25
69 8.31273 5.60761 7.94531 0.25
70 1.95211 4.62741 0.702356 0.25
71 7.90821 1.45585 0.178542 0.25
72 6.44999 6.27445 3.46581 0.25
73 0.487051 7.51081 6.70134 0.25
74 7.19595 5.62583 6.85982 0.25
75 7.25899 0.168016 3.48087 0.25
76 7.65939 6.62502 4.37507 0.25
77 5.66578 2.80626 5.463 0.25
78 5.43264 3.77601 1.35764 0.25
79 7.85467 5.26584 4.51107 0.25
80 5.87024 3.28882 5.50079 0.25
81 6.97097 1.39806 1.22691 0.25
82 8.29557 2.86482 5.87917 0.25
83 4.30856 5.68626 5.47958 0.25
84 1.3111 1.114 6.10203 0.25
85 1.63306 1.57635 5.52455 0.25
86 4.75443 0.115619 5.80357 0.25
87 1.63989 1.63861 1.28206 0.25
88 3.34393 6.77085 1.62123 0.25
89 6.75949 7.098 0.776761 0.25
90 5.32471 6.41715 5.32545 0.25
91 3.9432 4.14477 6.20772 0.25
92 6.04408 4.52 7.28066 0.25
93 4.83717 6.46155 5.27037 0.25
94 7.05185 8.35148 4.29045 0.25
95 0.232486 4.49001 7.82946 0.5
96 5.44916 3.16553 3.51511 0.5
97 4.42945 4.77309 7.85178 0.25
98 0.0762678 2.24985 3.51816 0.25
99 1.56512 6.22517 5.90029 0.25
100 7.12043 7.0604 1.16916 0.25
101 0.465344 8.15325 0.229481 0.25
102 7.99948 4.89561 3.26164 0.25
103 6.49841 1.21092 1.33739 0.25
104 0.513219 5.08528 7.42202 0.25
105 5.03449 5.73114 5.02947 0.5
106 4.98068 0.173986 4.638 0.25
107 4.22008 3.22284 6.97288 0.25
108 4.79723 1.42961 0.0430021 0.25
109 0.663293 0.455147 6.24574 0.25
110 2.10307 7.97476 8.19796 0.25
111 3.06237 4.10589 7.1872 0.25
112 4.46406 2.17729 8.01309 0.25
113 1.76275 1.96229 1.97637 0.5
114 1.5279 4.21323 6.85673 0.25
115 4.63654 6.09196 6.18854 0.25
116 2.50215 7.10683 7.04132 0.25
117 4.20261 2.3736 3.71569 0.5
118 6.62898 7.27916 1.21852 0.25
119 1.16972 6.0502 2.4017 0.25
120 0.153271 2.91063 2.48707 0.25
121 3.17985 3.99447 3.54519 0.25
122 6.71871 0.673313 6.27768 0.25
123 5.23975 0.599332 5.51051 0.25
124 8.06463 8.20136 2.41392 0.25
125 3.52744 2.09534 3.79111 0.25
126 3.71069 1.22833 5.89779 0.25
127 5.32909 3.8974 1.81707 0.25
128 6.73052 5.43537 7.00955 0.25
129 1.27005 6.37542 3.95561 0.25
130 5.63161 6.26391 0.734915 0.25
131 7.07096 1.41747 6.31263 0.25
132 5.92324 4.16858 7.62237 0.25
133 3.30036 1.82054 3.39988 0.25
134 4.54417 2.66653 8.04246 0.25
135 5.67214 3.9184 3.69321 0.25
136 2.8694 2.40521 3.65222 0.5
137 2.9241 3.91073 3.09746 0.25
138 7.59917 8.0497 2.9347 0.5
139 2.46063 7.8024 4.93898 0.25
140 5.01621 7.90105 8.00222 0.25
141 0.0894622 5.73829 5.1571 0.25
142 1.00538 5.04395 3.06658 0.25
143 2.40592 2.07449 0.0582597 0.25
144 5.17741 1.09781 2.86757 0.5
145 7.36884 1.91845 3.87892 0.25
146 6.06531 7.41797 0.404896 0.25
147 6.71703 5.71266 4.51057 0.25
148 2.14598 2.90043 4.43373 0.25
149 4.65115 8.25082 2.6175 0.5
150 5.07236 3.02941 4.12555 0.25
151 3.7625 5.97648 7.18194 0.25
152 3.58577 4.67907 5.5621 0.25
153 6.61798 6.17235 2.23886 0.5
154 7.3235 2.22953 4.62038 0.5
155 2.95398 7.17563 7.777 0.25
156 7.48599 3.57289 1.38922 0.25
157 7.65262 6.07665 1.66621 0.25
158 2.49238 3.59998 0.755162 0.25
159 7.24112 7.97643 4.55294 0.25
160 6.62894 2.01049 2.84359 0.25
161 0.84161 5.32508 2.66929 0.25
162 5.79066 4.14155 7.12753 0.25
163 3.33163 3.64296 4.17967 0.5
164 2.59342 3.66896 2.45563 0.5
165 5.46811 7.98375 7.81149 0.25
166 0.0530191 3.73771 7.75316 0.25
167 6.28566 4.1002 0.150415 0.25
168 4.75613 5.84655 5.74504 0.25
169 3.93278 4.29507 5.65521 0.25
170 0.34289 2.77682 6.1494 0.25
171 7.81587 5.89781 1.19773 0.25
172 1.13825 2.83751 6.99818 0.25
173 4.2705 6.12153 5.79384 0.25
174 2.28808 2.1813 1.02129 0.25
175 7.76576 2.33645 5.87719 0.5
176 2.33767 6.51248 6.04743 0.25
177 5.558 3.64456 4.10976 0.25
178 3.07716 6.45551 1.88853 0.25
179 3.52004 2.26446 3.30467 0.25
180 5.79364 6.48114 5.52827 0.25
181 6.54946 3.96663 6.79274 0.25
182 3.07478 5.12178 3.25393 0.25
183 8.12532 7.66904 1.78759 0.25
184 4.34076 5.06867 8.27145 0.25
185 5.80405 6.75913 5.92205 0.25
186 7.66717 6.13324 4.48903 0.25
187 3.31794 5.24002 4.17576 0.25
188 0.921771 5.89252 3.17325 0.25
189 4.09941 6.56378 3.5238 0.25
190 4.33402 3.27624 1.52498 0.25
191 6.8384 1.57364 0.380888 0.5
192 0.62745 5.11393 7.96501 0.25
193 3.96196 5.63779 1.7734 0.25
194 2.63406 6.25795 1.72362 0.25
195 6.28094 5.65633 2.74903 0.25
196 2.40451 7.834 2.60926 0.25
197 1.12507 8.32415 2.50663 0.25
198 7.57994 4.6365 6.8764 0.25
199 1.05403 1.17348 3.19943 0.25
200 4.59626 5.26012 1.56491 0.5
201 6.76409 1.50435 3.05628 0.25
202 8.34579 3.90978 5.36517 0.25
203 3.79364 1.84058 3.41806 0.25
204 5.64303 7.98198 0.156409 0.5
205 2.4472 7.33994 4.38421 0.5
206 0.549808 4.4679 5.19415 0.25
207 5.72168 2.74767 4.14192 0.25
208 7.09965 5.47751 4.31344 0.25
209 5.47778 7.05256 0.0382098 0.5
210 1.9717 8.00994 2.91368 0.25
211 0.69858 3.75437 4.97527 0.25
212 1.39052 7.73128 8.04784 0.5
213 0.106212 4.11017 2.74868 0.25
214 1.94995 8.01198 2.45719 0.25
215 2.90567 4.23282 3.91789 0.25
216 6.47704 1.90332 2.35889 0.25
217 5.01883 3.53951 2.04177 0.25
218 2.41079 3.16029 4.80843 0.25
219 4.48594 1.3954 2.91901 0.25
220 3.70879 3.49479 1.02789 0.25
221 4.30885 0.184731 6.08925 0.25
222 7.36519 0.928538 5.23875 0.25
223 8.03639 2.77631 2.48867 0.25
224 7.11384 5.2643 7.21477 0.25
225 7.11387 2.34038 5.39502 0.25
226 4.47842 1.92602 7.57424 0.25
227 6.36716 3.5689 7.08731 0.25
228 5.4933 3.17177 4.28721 0.25
229 5.54513 4.96355 2.07237 0.25
230 0.311802 8.15934 6.48293 0.5
231 5.39646 4.5413 1.48862 0.5
232 1.9237 3.22445 4.11631 0.25
233 4.07778 5.09777 3.82688 0.25
234 6.35348 1.05459 6.43754 0.25
235 3.10089 7.28625 4.65712 0.25
236 0.829175 2.45263 7.87855 0.25
237 8.2145 3.1046 7.42822 0.25
238 3.34075 0.684272 1.87136 0.25
239 0.261917 2.15379 3.97813 0.25
240 6.69627 6.4416 1.51021 0.25
241 3.26956 7.04092 8.05141 0.25
242 1.82292 7.35587 2.63029 0.5
243 2.77391 4.69089 3.2324 0.25
244 7.0689 3.59521 1.10263 0.25
245 2.24783 0.952393 5.84577 0.25
246 7.70233 8.28001 3.71801 0.25
247 3.51499 2.60779 3.6744 0.25
248 3.8507 3.16075 1.36244 0.25
249 8.36916 5.0437 7.34464 0.25
250 1.19643 3.18773 5.4202 0.25
251 5.32578 2.67728 4.80438 0.5
252 3.21575 2.05248 4.18814 0.25
253 7.74772 5.57024 7.37067 0.5
254 6.96327 5.76689 7.30046 0.25
255 4.77617 0.876698 6.01392 0.5
256 6.06987 6.20421 0.484161 0.25
257 1.09304 0.364021 2.76889 0.25
258 1.64574 1.73566 2.72555 0.25
259 4.57234 2.83069 1.51185 0.25
260 7.91243 6.41617 1.38869 0.25
261 3.13076 0.534906 1.4551 0.25
262 3.54893 2.46504 4.16189 0.25
263 2.03708 0.234765 0.0855785 0.5
264 2.7559 4.2254 3.42763 0.25
265 1.16673 3.90008 7.44443 0.5
266 1.02413 7.89188 7.05691 0.5
267 5.20333 2.44707 7.75666 0.25
268 6.3833 7.77649 0.3474 0.25
269 1.8292 5.11784 0.689805 0.25
270 3.99708 3.59656 1.44945 0.25
271 7.65016 7.91155 4.73699 0.25
272 1.5868 1.0282 2.61138 0.25
273 1.40581 3.26988 7.11526 0.25
274 0.492386 5.61901 8.02344 0.25
275 4.67607 4.61641 1.26803 0.25
276 2.40722 3.18537 0.971142 0.25
277 6.5662 0.716241 6.78846 0.25
278 4.05829 6.2985 1.23042 0.25
279 4.16077 0.354561 5.40496 0.5
280 8.04033 8.19073 4.95109 0.25
281 1.07982 6.51895 0.627853 0.25
282 6.21449 6.9808 6.09508 0.25
283 0.934339 0.114852 6.51076 0.25
284 7.3656 4.45786 0.814464 0.25
285 1.96768 6.06848 1.19308 0.5
286 5.49922 6.62054 3.2886 0.25
287 1.60277 8.0435 3.54509 0.5
288 2.74733 7.317 5.02394 0.25
289 2.3152 7.31664 5.17334 0.25
290 2.04319 3.90719 1.89579 0.25
291 8.20179 7.47046 7.21561 0.25
292 7.61457 2.56939 3.41707 0.25
293 7.64675 4.59691 3.29614 0.25
294 6.0717 3.72596 3.39908 0.25
295 8.18188 4.14961 0.976158 0.25
296 0.519776 4.20706 4.4832 0.5
297 3.75824 3.14716 6.85651 0.25
298 6.34931 5.26096 7.18032 0.25
299 5.86999 4.97267 7.36527 0.25
300 6.25447 3.86145 0.631578 0.25
301 0.965754 8.14278 0.150608 0.25
302 0.197593 4.21754 1.39132 0.25
303 3.96987 1.1355 1.41115 0.25
304 2.12724 2.39084 4.48296 0.25
305 1.15866 5.13799 8.27537 0.25
306 2.38792 1.96568 4.62236 0.25
307 1.28024 4.98665 7.62485 0.5
308 3.57169 5.868 3.14731 0.25
309 4.38997 1.01805 5.41532 0.25
310 0.919316 4.66238 4.03739 0.25
311 7.38633 0.18502 4.01539 0.25
312 0.875044 0.944082 2.36134 0.5
313 1.10111 3.68279 5.28255 0.25
314 5.62434 3.90144 3.23938 0.25
315 1.44879 5.52233 8.12717 0.25
316 1.64073 4.47825 7.25691 0.25
317 7.47994 2.40007 3.84683 0.25
318 2.26011 2.57694 4.07912 0.25
319 4.82632 7.41927 7.99452 0.25
320 2.04544 6.13232 5.98532 0.25
321 3.96272 0.646399 1.25675 0.25
322 7.36373 6.59814 5.16257 0.25
323 0.932088 6.06543 4.12874 0.25
324 3.99129 7.23954 8.00871 0.5
325 0.90588 1.93082 0.236523 0.25
326 4.04353 4.66336 4.92545 0.5
327 7.62519 7.38322 3.42072 0.25
328 2.43846 7.82355 1.77653 0.25
329 1.34342 5.79423 3.43177 0.25
330 8.29576 7.00923 7.37164 0.25
331 0.839461 5.36003 3.72205 0.5
332 7.293 6.64286 2.23238 0.25
333 1.09293 1.59514 2.07347 0.25
334 6.66994 1.57683 1.60434 0.25
335 3.36788 3.17207 1.12465 0.25
336 2.99694 7.05902 6.84078 0.25
337 4.38073 7.17676 3.0913 0.5
338 6.17949 7.46203 8.3069 0.25
339 2.21769 7.95165 3.94808 0.25
340 4.73531 0.44983 4.94944 0.25
341 6.86626 8.33864 3.17196 0.25
342 0.709764 5.49108 7.62149 0.25
343 2.68843 1.19562 0.337045 0.25
344 1.25145 5.53052 2.5251 0.25
345 0.431193 1.51627 2.76976 0.25
346 0.390834 2.52966 0.0530094 0.25
347 3.52851 5.86088 7.63028 0.25
348 7.37458 7.87581 2.19638 0.25
349 0.726904 2.18767 8.27103 0.25
350 6.78211 1.64978 2.55851 0.25
351 1.47799 6.88257 0.594939 0.25
352 6.36747 3.68861 7.90065 0.5
353 2.39635 8.32433 7.87215 0.25
354 1.82472 0.809516 5.56511 0.25
355 0.773778 -0.0190785 5.97583 0.25
356 2.00024 1.72952 5.82736 0.25
357 2.8514 4.12982 6.73704 0.25
358 6.2398 3.34591 5.23376 0.25
359 4.46368 1.42215 6.42227 0.25
360 1.87784 2.08213 1.24854 0.25
361 0.712547 7.92565 0.602469 0.25
362 6.0349 3.80924 6.84899 0.25
363 7.8562 4.08156 1.9541 0.25
364 5.93583 3.72382 7.32355 0.25
365 5.65878 5.95301 0.297581 0.25
366 5.26483 6.32064 0.336343 0.25
367 2.33522 4.77622 6.83049 0.25
368 6.65164 3.31499 0.0895346 0.25
369 1.12273 6.79454 0.22261 0.25
370 5.14654 0.533847 8.14348 0.25
371 2.25836 8.01623 4.48065 0.25
372 2.41295 4.5181 0.478532 0.25
373 7.05913 2.73623 5.13565 0.25
374 3.75342 4.29342 4.28526 0.25
375 4.64262 0.674584 8.14553 0.25
376 2.61849 5.64967 1.10451 0.25
377 6.31555 1.21948 2.10306 0.5
378 0.418577 3.86092 7.5118 0.25
379 4.57484 1.1944 8.05693 0.25
380 2.37694 6.87513 4.9401 0.25
381 4.04537 5.21462 5.38194 0.25
382 1.91662 7.16113 4.8488 0.25
383 6.43492 5.32604 3.98918 0.5
384 1.20365 1.70008 1.56182 0.25
385 6.67111 1.55576 6.90297 0.5
386 1.4841 1.12836 5.67482 0.25
387 7.32395 0.918838 0.459396 0.25
388 0.904883 5.81559 2.72309 0.25
389 4.12277 2.60132 7.38705 0.5
390 4.11672 0.659002 6.21229 0.25
391 5.40261 4.60017 2.2712 0.25
392 7.95646 2.86984 3.30577 0.25
393 2.93577 6.5872 1.3863 0.25
394 8.33166 8.00801 0.24907 0.25
395 2.16498 1.75096 1.32772 0.25
396 4.57243 7.78161 8.2341 0.25
397 4.87939 0.581682 0.172481 0.25
398 7.11944 1.66502 8.05872 0.25
399 3.14233 4.30351 3.14402 0.25
400 5.37465 4.53226 0.744459 0.25
401 2.13285 7.07192 3.63306 0.25
402 8.17882 7.91941 6.95174 0.25
403 7.8256 6.37282 0.888913 0.25
404 7.92854 6.69692 7.12902 0.25
405 0.326447 7.65866 0.364917 0.25
406 5.41739 0.224869 4.43314 0.25
407 2.38644 1.09528 8.01402 0.5
408 5.4826 3.19246 2.69897 0.25
409 2.18833 4.98095 1.05742 0.25
410 7.41103 0.977003 8.04741 0.5
411 4.35639 5.41347 5.03172 0.25
412 8.14422 7.06032 6.87194 0.25
413 1.258 1.62274 0.223655 0.25
414 0.45686 3.10135 7.90674 0.5
415 6.67598 4.76156 3.00957 0.25
416 2.82724 3.30296 6.62349 0.25
417 3.42329 4.66469 3.70215 0.5
418 7.19093 6.7905 4.27658 0.25
419 3.75696 3.83101 5.86534 0.25
420 1.01552 3.11652 4.59483 0.25
421 4.07892 4.76478 5.63617 0.25
422 2.21192 5.44936 0.829781 0.25
423 0.334286 0.25808 5.88269 0.25
424 0.574577 3.39738 4.69112 0.25
425 1.81936 2.784 1.3484 0.5
426 7.32502 5.76771 5.02446 0.5
427 2.76161 1.87418 4.22529 0.25
428 3.90075 5.14885 3.38586 0.25
429 4.41644 4.35447 5.58703 0.25
430 1.77539 7.33965 3.4298 0.25
431 1.0044 3.33799 6.87628 0.25
432 1.53669 7.04001 4.13551 0.5
433 2.1126 1.82529 7.73849 0.25
434 0.951182 6.60899 1.13871 0.25
435 5.82085 3.50514 2.95795 0.25
436 1.36191 5.90176 2.8825 0.25
437 8.3213 1.0855 0.29392 0.25
438 0.972131 3.3343 4.98241 0.25
439 3.65727 2.62235 6.81633 0.25
440 4.50259 1.39738 7.62087 0.25
441 8.08654 4.35656 5.44112 0.25
442 2.26816 5.40785 1.3373 0.25
443 0.377478 2.92156 6.8933 0.5
444 1.86864 3.58842 1.5158 0.25
445 5.25266 7.10956 0.766539 0.25
446 4.2101 5.77448 3.41977 0.5
447 1.44986 1.889 5.83494 0.25
448 5.80801 7.22215 5.84152 0.25
449 1.17992 5.33336 5.57691 0.25
450 2.92627 3.38072 0.937591 0.25
451 2.67237 6.95137 5.33918 0.25
452 2.29848 0.903575 0.319362 0.25
453 4.91587 4.38361 0.908066 0.25
454 0.0734443 3.50236 7.33447 0.25
455 7.92645 4.85931 7.54761 0.25
456 3.09942 1.74891 3.84349 0.25
457 2.25149 4.11967 7.22981 0.5
458 8.37079 7.50869 6.72665 0.25
459 5.03815 7.65478 8.37574 0.25
460 5.71275 0.161929 4.88607 0.25
461 2.55808 3.59257 1.22632 0.25
462 6.41064 5.0752 3.28395 0.25
463 5.0916 7.3047 2.99229 0.25
464 7.46636 6.86844 7.29016 0.25
465 7.19234 2.76356 5.63737 0.25
466 4.26628 1.81903 2.71863 0.25
467 3.98562 6.13794 1.7604 0.25
468 6.93097 5.44848 3.00352 0.5
469 7.4128 7.3325 7.11797 0.25
470 0.775109 1.42684 0.306313 0.25
471 1.7923 0.999651 6.06801 0.25
472 1.91803 7.86624 2.01535 0.25
473 7.58711 5.18031 5.51538 0.25
474 5.16764 5.68784 5.76503 0.25
475 1.31177 1.357 2.83438 0.25
476 7.21599 1.2058 7.29768 0.25
477 3.15448 5.37382 3.64978 0.25
478 6.09699 3.21836 7.33191 0.25
479 3.36229 7.23145 7.5795 0.25
480 5.14051 0.466106 2.33999 0.25
481 7.81152 2.03567 4.10479 0.25
482 7.37283 5.1682 4.6302 0.25
483 8.3548 5.52319 5.62207 0.25
484 2.71363 0.646869 0.105019 0.25
485 7.86053 7.50359 6.87887 0.25
486 1.85966 6.55903 6.23628 0.25
487 8.36923 7.74434 4.34268 0.25
488 4.26887 3.99925 5.90834 0.25
489 0.219944 8.11702 0.649951 0.25
490 8.1407 8.16315 1.93351 0.25
491 4.62483 3.19541 1.21137 0.25
492 2.31291 1.6237 4.26321 0.25
493 6.17056 4.31885 6.83339 0.25
494 4.8442 7.52215 2.64482 0.25
495 1.34114 5.77812 5.73286 0.25
496 2.94653 7.74457 4.87162 0.25
497 6.38518 4.39688 7.65001 0.25
498 3.31345 2.87441 4.09277 0.25
499 0.213718 5.32019 7.70438 0.25
500 3.66629 2.95745 6.43208 0.25
501 6.28093 3.97623 4.21033 0.25
502 1.69173 7.9336 7.39343 0.25
503 5.93089 4.9781 2.70416 0.5
504 7.84577 7.81149 2.16013 0.25
505 6.00506 1.28667 2.76073 0.25
506 7.32573 6.41878 4.70136 0.25
507 1.25013 0.345745 3.243 0.25
508 0.718831 0.141038 5.54331 0.25
509 8.37482 4.93814 5.13316 0.5
510 4.77586 1.75426 5.21422 0.25
511 0.630758 0.617222 5.75982 0.25
512 0.864376 0.687955 3.0999 0.25
513 3.85926 1.07944 5.38348 0.25
514 2.09872 5.60854 5.96025 0.25
515 0.829839 7.67218 6.38309 0.25
516 7.52737 1.66223 6.16788 0.25
517 7.56311 5.61232 4.36402 0.25
518 0.985112 3.60545 4.5435 0.25
519 6.36239 1.90878 1.84297 0.25
520 7.12198 1.92325 6.2917 0.25
521 7.49095 1.65025 0.0409479 0.25
522 6.4541 1.41525 7.67173 0.25
523 5.0626 6.68515 5.66412 0.25
524 2.64576 0.383303 7.97891 0.25
525 6.29347 4.06986 7.26568 0.25
526 6.90425 5.2471 6.63144 0.25
527 7.54492 8.13443 4.22442 0.25
528 7.24384 1.13907 6.77929 0.25
529 6.69269 1.17716 2.77641 0.25
530 2.4619 1.70738 6.15524 0.25
531 8.03476 8.01711 3.99613 0.25
532 1.32178 0.796427 2.97673 0.25
533 6.96625 1.52864 7.63977 0.25
534 8.15353 6.0153 1.56167 0.25
535 0.439651 3.2672 5.49178 0.5
536 7.0605 2.31207 5.89932 0.25
537 4.05778 0.978762 5.7958 0.25
538 6.88562 5.25674 4.68611 0.25
539 2.58774 1.19845 6.17921 0.25
540 8.04987 6.47881 2.10468 0.5
541 7.57286 4.10066 1.54055 0.25
542 2.20987 2.2247 8.03181 0.25
543 3.31893 7.39721 7.13458 0.25
544 7.48049 6.57133 6.90936 0.25
545 1.33434 5.89242 3.93326 0.25
546 4.9481 5.63625 6.20591 0.25
547 5.40331 2.35464 8.18868 0.25
548 6.12818 7.09077 6.58792 0.25
549 0.238491 7.73533 7.07706 0.25
550 6.20856 7.01244 0.180604 0.25
551 4.71487 1.61575 2.53027 0.25
552 3.66224 5.36658 3.78322 0.25
553 7.0849 7.90013 3.717 0.5
554 4.31977 6.40715 3.15735 0.25
555 4.85666 6.60838 3.64425 0.5
556 6.8886 0.862403 0.706569 0.25
557 7.44211 5.08291 3.81197 0.5
558 6.53045 8.36609 3.60021 0.25
559 1.32937 0.358886 5.94561 0.5
560 5.05306 3.40902 2.50797 0.25
561 2.89948 3.10771 3.92658 0.25
562 5.23352 0.0865725 5.58476 0.25
563 2.45971 6.57743 1.37424 0.25
564 6.03957 6.90208 0.868568 0.5
565 6.69473 1.71747 6.17171 0.25
566 1.15813 1.71149 2.51837 0.25
567 4.42993 5.6836 6.00118 0.25
568 6.342 1.21759 3.10616 0.25
569 2.58965 8.05224 8.2004 0.25
570 1.9148 6.71086 4.63465 0.25
571 2.78765 4.54199 7.00137 0.25
572 8.13781 2.70016 4.01319 0.5
573 4.23135 1.39247 2.54347 0.25
574 1.66499 5.74479 6.13795 0.25
575 2.11029 1.74405 8.2065 0.25
576 4.34575 5.68385 7.71837 0.25
577 5.24114 0.214148 5.11298 0.25
578 1.98291 7.52002 3.83227 0.25
579 7.4604 4.87313 7.27042 0.25
580 7.5341 0.295365 4.75899 0.5
581 4.29574 4.50037 5.99697 0.25
582 5.90551 2.96374 4.53913 0.25
583 5.86575 3.64326 4.71931 0.5
584 4.68902 6.38351 5.77598 0.25
585 5.14487 3.38535 1.22087 0.25
586 1.80766 0.285912 2.6387 0.5
587 4.93758 7.01308 2.63843 0.25
588 5.92414 5.19104 3.43706 0.25
589 0.0625978 2.61942 7.5542 0.25
590 3.60365 6.43661 1.94417 0.25
591 6.25706 1.43776 0.94414 0.25
592 7.46994 7.24553 1.78162 0.5
593 6.78913 6.93814 1.55504 0.25
594 1.8936 4.8333 8.30507 0.5
595 0.568289 3.80541 7.98053 0.25
596 1.90928 0.776862 0.607422 0.25
597 0.132653 0.401697 5.18917 0.5
598 2.67333 6.1542 1.23376 0.25
599 1.94047 8.21147 7.79821 0.25
600 7.71017 1.19934 5.41806 0.25
601 0.826875 0.912511 6.1441 0.25
602 4.02063 0.106042 2.38915 0.25
603 4.38379 5.5441 8.19818 0.25
604 7.40945 5.13022 6.85304 0.25
605 7.76995 2.12207 3.62392 0.25
606 2.33621 8.12527 2.18974 0.25
607 4.6214 5.24547 7.85735 0.25
608 3.5208 7.67416 7.53844 0.25
609 6.95116 4.98035 4.32749 0.25
610 1.95999 1.2595 5.63817 0.25
611 3.03574 0.556362 8.12348 0.25
612 0.769722 7.69302 0.140776 0.25
613 6.34679 1.4098 8.18877 0.25
614 4.52966 0.93991 4.94729 0.25
615 4.90238 2.66541 3.78231 0.25
616 1.1245 5.50703 3.04572 0.25
617 1.49669 8.04293 2.30028 0.25
618 7.7172 7.40161 4.23118 0.5
619 8.02852 8.08612 4.45888 0.25
620 8.28745 7.43837 2.44657 0.5
621 4.20109 6.28852 3.93879 0.25
622 6.14555 6.50078 5.92879 0.25
623 5.33673 6.65498 0.689378 0.25
624 1.0543 2.86224 5.10461 0.25
625 0.970642 5.49479 8.03967 0.25
626 3.52893 0.877626 1.47558 0.25
627 4.72274 4.53646 1.78261 0.25
628 8.07305 3.5222 2.38665 0.5
629 6.88798 3.13645 0.494694 0.25
630 1.19853 8.32714 2.97772 0.25
631 1.76201 1.54675 7.81608 0.25
632 7.67116 7.96444 1.75406 0.25
633 6.04199 7.72766 0.75668 0.25
634 3.01668 7.72085 3.91751 0.25
635 0.872045 7.23884 0.803296 0.5
636 1.36798 2.14823 1.36391 0.25
637 5.61188 0.260911 5.38824 0.25
638 4.79113 1.28988 5.28398 0.25
639 4.64455 1.88795 0.04562 0.25
640 5.10038 7.56107 0.490145 0.25
641 1.21442 6.51338 5.17153 0.25
642 3.64934 0.771725 5.67541 0.25
643 6.10812 6.88014 5.60566 0.25
644 5.93625 0.917612 3.09349 0.25
645 2.23582 2.19108 1.51712 0.25
646 7.91931 6.61571 6.66251 0.25
647 2.43592 3.03471 4.05881 0.25
648 4.99827 1.0121 8.25162 0.25
649 0.39809 4.135 1.93372 0.25
650 8.30278 3.79079 1.28652 0.25
651 3.32106 3.09915 3.67127 0.25
652 6.77501 0.402847 7.04862 0.25
653 1.39114 6.66744 1.01292 0.25
654 0.931684 2.66817 8.34801 0.25
655 3.39351 3.73306 6.52367 0.5
656 0.615862 3.49675 7.2017 0.25
657 1.63711 5.3995 5.78485 0.25
658 6.90102 0.223895 3.86388 0.25
659 2.55097 1.87011 7.996 0.25
660 7.06444 6.09336 3.9964 0.5
661 8.13139 1.17631 8.26064 0.25
662 3.97316 4.70273 4.16719 0.25
663 2.35717 3.74806 1.67423 0.25
664 6.68171 2.65298 4.84348 0.25
665 7.83761 3.87731 1.15561 0.25
666 6.00879 6.6404 6.40495 0.25
667 6.47884 3.39862 0.59537 0.25
668 7.07397 6.59801 1.81632 0.25
669 6.14344 4.82234 6.95816 0.25
670 5.3399 8.2116 4.75144 0.25
671 3.5398 4.75883 4.42339 0.25
672 2.64871 3.36994 1.7841 0.25
673 0.557696 1.11038 3.05392 0.25
674 4.95397 7.39418 3.48072 0.25
675 5.60256 3.69759 5.41464 0.25
676 7.66308 8.27678 2.15482 0.25
677 6.20829 1.64969 1.43637 0.25
678 7.75331 6.49664 4.8857 0.25
679 1.33241 6.44753 1.43956 0.25
680 3.58304 6.61054 8.13618 0.25
681 7.96034 0.119302 4.13677 0.25
682 2.60397 5.77855 1.55096 0.25
683 1.7761 7.72196 6.99146 0.25
684 0.381328 3.77804 1.54221 0.25
685 2.59877 3.74201 6.52692 0.25
686 4.11134 2.80262 6.69565 0.25
687 2.59014 4.07894 0.555641 0.25
688 3.69677 0.822737 6.18254 0.25
689 6.11261 4.37825 8.12139 0.25
690 6.27299 0.893901 2.74527 0.25
691 6.91381 1.11498 1.60737 0.25
692 5.02384 4.8184 2.05502 0.25
693 7.38248 1.57197 6.61577 0.25
694 7.7177 5.20164 5.01903 0.25
695 0.0959226 3.23745 6.22395 0.25
696 5.71079 5.9023 3.34299 0.5
697 4.0492 3.67462 6.24639 0.25
698 1.69493 1.11409 5.23211 0.25
699 1.50469 6.85388 4.8918 0.25
700 3.95901 5.46962 1.26114 0.25
701 4.4467 1.6945 8.03847 0.25
702 2.01511 4.62211 7.59321 0.25
703 3.41867 6.60673 7.38878 0.5
704 4.78008 4.9215 8.18424 0.25
705 4.88154 3.23689 1.67206 0.25
706 5.18435 0.179602 0.146247 0.25
707 4.67399 3.91662 1.44575 0.5
708 5.33876 7.53824 7.95179 0.25
709 2.61503 7.03672 1.89949 0.5
710 1.82349 4.59334 6.75805 0.25
711 5.14508 6.35658 2.99832 0.25
712 0.227724 5.24063 8.18054 0.25
713 2.48155 4.15342 1.87727 0.25
714 5.2872 4.0376 0.949072 0.25
715 4.7544 6.63398 2.87353 0.25
716 6.83507 1.0885 7.52215 0.25
717 7.83946 7.7997 3.61049 0.25
718 5.8983 3.38092 6.95431 0.25
719 5.98478 4.69132 7.76695 0.25
720 1.82792 7.77638 4.22257 0.25
721 6.82781 1.813 2.03785 0.25
722 2.48606 7.6864 3.31188 0.5
723 2.54712 7.39661 2.58432 0.25
724 7.12888 6.63466 1.34669 0.25
725 7.59812 6.36701 7.37984 0.25
726 1.03149 0.977122 5.70925 0.25
727 3.61341 0.399512 1.58394 0.25
728 3.66778 6.10994 8.02591 0.25
729 4.96787 5.98941 3.27736 0.25
730 2.94833 7.15096 7.32313 0.25
731 5.32247 3.5844 2.95969 0.25
732 4.0397 3.60259 6.78211 0.25
733 3.92532 5.59176 7.45227 0.25
734 4.36574 0.932143 2.75539 0.25
735 3.33507 3.02726 6.74795 0.25
736 7.90088 1.58832 8.06179 0.25
737 3.72642 1.00477 0.993789 0.25
738 8.12312 8.26295 0.627254 0.25
739 4.65783 6.15977 2.98788 0.25
740 5.36842 7.14008 3.40601 0.25
741 0.376031 7.73876 0.879095 0.25
742 3.78416 4.62066 6.03077 0.25
743 6.9159 0.874589 1.1804 0.25
744 4.71276 0.634226 2.49149 0.25
745 3.49397 4.23447 5.90494 0.25
746 1.4812 6.10594 4.65176 0.5
747 4.72332 0.360565 2.05842 0.25
748 2.7883 6.68532 7.08199 0.25
749 1.45093 1.38942 2.35982 0.25
750 8.35301 3.44243 1.6734 0.25
751 1.35359 0.77177 5.34192 0.25
752 6.3205 4.90135 7.50386 0.25
753 4.12347 0.81358 1.99652 0.5
754 4.33711 5.56717 0.971183 0.25
755 2.76478 2.73857 1.35804 0.5
756 7.87809 6.74738 7.61515 0.25
757 5.52867 6.84784 5.53109 0.25
758 6.76523 3.85229 7.24761 0.25
759 4.39275 8.15796 5.81868 0.25
760 0.0656984 2.68742 3.30898 0.25
761 3.75891 7.265 7.26096 0.25
762 0.537112 1.72764 3.45966 0.5
763 3.99116 8.06009 2.11938 0.25
764 1.52976 6.39979 0.627357 0.25
765 7.54698 5.03863 3.05696 0.25
766 0.399127 3.95598 2.39457 0.25
767 2.68588 6.84304 7.49915 0.25
768 2.13284 2.70506 4.89035 0.25
769 7.93347 3.70526 1.62567 0.25
770 4.5411 0.994493 0.1248 0.25
771 6.68693 1.21025 6.13103 0.25
772 4.77229 2.3079 7.67956 0.25
773 5.33334 0.844764 4.82827 0.5
774 4.06687 7.95851 5.5045 0.25
775 7.86901 4.48678 2.61902 0.5
776 7.03981 3.87137 0.415604 0.5
777 6.05141 6.58469 0.114359 0.25
778 4.9256 8.12172 0.0503007 0.25
779 0.0254194 8.21717 4.21521 0.25
780 2.40364 1.38573 5.74816 0.25
781 2.54841 1.61518 0.0750896 0.25
782 1.37174 7.26265 0.28058 0.25
783 6.77302 3.24429 0.953118 0.25
784 2.25079 7.62828 2.21607 0.25
785 2.43085 1.44282 6.56388 0.25
786 2.70657 7.78835 2.19609 0.25
787 7.65332 7.0506 6.83551 0.25
788 8.36162 4.11204 2.23007 0.25
789 3.47886 7.81801 4.23098 0.25
790 6.66623 0.250998 6.60301 0.25
791 0.327436 4.78619 3.03255 0.5
792 2.17163 0.340664 7.71154 0.25
793 0.0560361 6.64666 2.66769 0.25
794 5.37618 6.3041 6.13351 0.5
795 2.40258 3.98624 3.09899 0.25
796 2.22609 5.91452 5.59379 0.25
797 6.71891 6.76459 1.13747 0.25
798 7.74331 4.36218 1.147 0.25
799 3.76252 3.30987 6.03053 0.25
800 8.05718 2.3627 3.31496 0.25
801 3.26853 7.86428 7.09351 0.25
802 3.77784 5.11755 4.24261 0.25
803 3.1391 8.26388 7.73822 0.5
804 3.75639 6.92655 1.85635 0.25
805 1.86717 8.34608 2.03047 0.25
806 2.56016 1.76808 3.79103 0.25
807 4.5491 6.08789 5.38033 0.25
808 4.08252 2.43848 8.1479 0.25
809 1.76879 5.89129 5.69327 0.25
810 6.53414 7.2763 6.39748 0.25
811 1.65403 3.32597 4.82277 0.5
812 5.58093 7.46708 0.688675 0.25
813 4.47268 2.19478 3.03966 0.25
814 1.5733 7.492 7.383 0.25
815 2.72427 8.08149 4.58383 0.25
816 0.643846 2.92172 4.84237 0.25
817 4.16241 1.97457 8.32203 0.25
818 3.97166 2.09945 3.04082 0.25
819 1.85324 5.29868 1.15504 0.25
820 3.0158 3.2084 7.05543 0.25
821 1.47094 2.13419 8.13282 0.5
822 6.1651 4.43536 3.55838 0.5
823 4.77407 0.19668 8.26921 0.25
824 0.874198 0.588863 5.38977 0.25
825 3.9775 6.05778 7.64378 0.25
826 3.20792 3.71925 1.58039 0.5
827 5.74753 7.04693 6.26117 0.25
828 0.320268 2.35339 7.94059 0.25
829 0.100759 8.08228 4.72441 0.25
830 0.785775 1.92213 2.84191 0.25
831 2.17291 4.3054 7.95628 0.25
832 5.86408 4.58317 2.10137 0.25
833 2.12616 1.34837 6.16115 0.25
834 4.26362 0.447802 2.66793 0.25
835 6.61638 1.66788 1.12373 0.25
836 3.22348 7.54393 7.9548 0.25
837 4.14885 5.24372 7.84108 0.25
838 7.33009 0.734597 0.901469 0.25
839 6.06568 7.43754 6.23713 0.25
840 6.80215 4.63146 7.03864 0.5
841 3.36376 6.87899 2.09166 0.25
842 0.10083 2.21595 2.73866 0.5
843 6.09776 3.78996 5.43343 0.25
844 4.90698 2.27942 8.17593 0.25
845 7.49836 2.69424 5.23526 0.25
846 3.56747 3.59367 7.39781 0.5
847 2.29099 5.0389 0.550638 0.25
848 1.9045 5.94158 5.21192 0.25
849 5.2729 7.72848 2.78828 0.25
850 6.39338 2.71835 5.55342 0.5
851 5.50194 8.19782 5.22101 0.25
852 6.64179 1.77056 7.98979 0.25
853 4.34324 7.63896 5.69301 0.25
854 4.2357 1.68658 5.75257 0.5
855 0.440814 3.99769 5.30993 0.25
856 0.642715 5.48894 3.07881 0.25
857 3.7971 6.57104 1.51297 0.25
858 2.62075 4.5491 3.74265 0.25
859 6.76065 4.66959 3.96496 0.25
860 7.67001 4.09972 0.716847 0.25
861 4.84074 2.81092 7.69059 0.25
862 6.83327 4.84654 3.46799 0.25
863 5.61223 6.32991 8.29778 0.25
864 7.66541 7.00041 2.47364 0.25
865 3.90019 5.68907 7.93614 0.25
866 5.18731 8.07438 3.19408 0.25
867 1.71851 4.3351 7.74982 0.25
868 2.02479 1.5851 0.584612 0.5
869 0.960884 3.11723 7.32244 0.25
870 6.25553 5.51444 3.23214 0.25
871 2.85821 7.53473 7.03138 0.25
872 5.89067 3.01273 5.07759 0.25
873 0.0863327 0.0739047 0.304675 0.25
874 4.09026 1.17873 6.23921 0.25
875 2.24833 4.21519 1.20433 0.5
876 1.51411 5.61764 5.28912 0.25
877 8.18563 5.14921 7.88358 0.25
878 5.84464 0.801883 2.59665 0.25
879 3.2895 8.05196 4.62582 0.25
880 6.43066 6.02518 3.02984 0.25
881 7.36145 1.08945 1.27809 0.25
882 7.83086 7.16453 7.2655 0.25
883 0.270579 3.68727 2.0202 0.25
884 7.24156 3.21101 0.853741 0.25
885 0.880955 4.16251 5.17558 0.25
886 8.05206 7.50476 3.18115 0.25
887 1.16302 6.90779 1.41558 0.25
888 0.907709 4.70362 3.48034 0.25
889 1.49589 8.02376 2.75077 0.25
890 0.255995 4.41584 2.36917 0.25
891 0.975988 2.09141 7.54262 0.25
892 7.51029 3.6339 0.880958 0.25
893 1.1733 7.72834 0.385038 0.25
894 4.17298 5.88782 1.36289 0.25
895 3.96664 5.87304 0.906319 0.25
896 1.69576 1.41167 8.31573 0.25
897 8.04821 4.20437 1.47646 0.25
898 0.521329 4.65612 3.78736 0.25
899 1.04256 8.11839 6.30979 0.25
900 5.05902 6.15621 5.58006 0.25
901 0.872182 1.45056 2.82677 0.25
902 7.36933 4.03154 1.10193 0.25
903 6.03222 3.67638 3.91881 0.25
904 6.77989 4.13049 7.60357 0.25
905 5.23185 1.11819 5.48734 0.25