ITEM: TIMESTEP
860000
ITEM: NUMBER OF ATOMS
1000
ITEM: BOX BOUNDS xy xz yz pp pp pp
0.0000000000000000e+00 8.3788359999999997e+00 0.0000000000000000e+00
0.0000000000000000e+00 8.3788359999999997e+00 0.0000000000000000e+00
0.0000000000000000e+00 8.3788359999999997e+00 0.0000000000000000e+00
ITEM: ATOMS id x y z radius
1 2.52432 6.96181 4.96176 0.25
2 4.82863 5.14116 5.11337 0.25
3 7.01075 4.6333 3.1882 0.25
4 7.42604 1.14285 5.82054 0.5
5 1.11675 5.75162 6.40228 0.25
6 8.32948 1.76349 3.42534 0.25
7 4.34087 3.35503 6.52523 0.25
8 4.7785 7.70349 3.01615 0.25
9 0.739672 6.16994 3.92261 0.25
10 4.06642 1.46781 3.36185 0.25
11 5.47558 0.0892243 7.9184 0.25
12 5.16838 3.49948 1.37441 0.25
13 0.587511 2.38771 7.50634 0.25
14 3.92727 2.81271 7.02847 0.25
15 8.17543 3.11314 6.03619 0.25
16 7.49424 1.03198 6.6481 0.25
17 0.97978 5.36721 8.35312 0.25
18 6.07442 7.38886 8.12011 0.25
19 4.54186 1.74902 7.62469 0.25
20 7.62836 1.40786 0.577663 0.25
21 4.87688 4.1993 1.69958 0.25
22 4.30376 3.16016 1.17239 0.25
23 2.21482 3.30983 1.95257 0.25
24 2.85253 2.00604 4.59004 0.25
25 2.78497 4.47918 3.00563 0.25
26 0.414259 8.36808 5.67672 0.25
27 3.9645 0.385189 6.09602 0.25
28 4.19598 2.07179 8.35711 0.25
29 5.032 6.81722 2.89712 0.25
30 7.36519 7.45407 2.3729 0.25
31 2.71739 0.3837 8.08507 0.25
32 0.990325 2.71363 7.39098 0.25
33 7.66537 0.208489 5.10283 0.25
34 2.05557 5.5714 1.58091 0.25
35 7.82099 0.106798 4.5609 0.25
36 6.70608 1.9662 5.7888 0.5
37 4.12382 1.33703 2.17943 0.25
38 2.08033 3.37985 4.27772 0.25
39 5.98178 2.58937 4.72736 0.25
40 5.23572 7.60089 3.21417 0.25
41 6.78477 2.12934 2.62641 0.25
42 5.64409 6.08769 5.7247 0.25
43 3.46425 7.89635 4.72349 0.25
44 3.94216 8.08402 5.40344 0.25
45 5.53698 4.02869 3.8896 0.25
46 3.2234 6.0775 1.39559 0.5
47 4.54868 0.742138 5.15459 0.25
48 8.17045 6.24809 6.83073 0.25
49 7.44535 6.63786 4.70138 0.25
50 7.6994 1.33486 1.09452 0.25
51 2.59134 3.35497 4.34027 0.25
52 0.771215 1.54113 2.36246 0.25
53 6.59628 5.00042 6.82159 0.25
54 5.80609 3.22892 3.96785 0.25
55 1.59769 1.11979 5.92789 0.25
56 1.27584 7.30769 0.253057 0.25
57 4.72608 0.793226 1.89148 0.25
58 2.23826 2.08653 4.03048 0.25
59 4.93676 1.10839 5.94741 0.25
60 7.67496 5.516 5.30691 0.25
61 5.09114 8.13305 8.03389 0.25
62 5.34179 1.95377 8.26954 0.5
63 7.67019 6.58024 1.29547 0.25
64 1.05515 6.09388 0.752391 0.25
65 4.34517 0.0720284 1.76533 0.25
66 2.23537 4.72966 7.09194 0.25
67 8.13609 4.94938 7.71384 0.25
68 7.34631 0.651201 6.3612 0.25
69 0.401269 5.52186 7.76213 0.25
70 1.7579 4.83268 0.994735 0.25
71 7.99823 1.26709 0.318952 0.25
72 6.36704 6.21842 3.51339 0.25
73 0.582544 7.6799 6.82152 0.25
74 7.52772 5.5019 6.75912 0.25
75 7.09828 0.108289 3.34967 0.25
76 7.29254 6.49776 4.24842 0.25
77 5.48132 2.8602 5.29586 0.25
78 5.35564 3.90562 1.13328 0.25
79 7.71157 5.07847 4.46018 0.25
80 5.67513 3.34181 5.32692 0.25
81 7.25849 1.59173 0.94864 0.25
82 8.20154 2.7491 6.41345 0.25
83 4.44675 5.90852 5.59476 0.25
84 1.0785 1.11614 5.85224 0.25
85 1.40131 1.09484 5.07865 0.25
86 4.7784 8.14095 5.43478 0.25
87 1.96028 2.35297 0.706097 0.25
88 3.22356 6.82443 1.65863 0.25
89 6.86061 7.25039 0.80305 0.25
90 5.56654 6.50605 5.50709 0.25
91 4.03245 4.33176 6.23126 0.25
92 6.19041 4.59848 7.30881 0.25
93 5.16011 6.61587 5.25321 0.25
94 6.64346 0.185214 4.00091 0.25
95 0.418829 4.52388 7.87467 0.5
96 5.40152 3.07682 3.36778 0.5
97 4.21817 5.10452 8.26103 0.25
98 0.134877 2.19604 3.41217 0.25
99 1.57306 6.388 6.05783 0.25
100 7.03004 6.83219 1.01623 0.25
101 0.64133 7.78701 8.31181 0.25
102 7.78679 4.59693 3.54625 0.25
103 6.8138 1.1438 1.5243 0.25
104 1.01828 4.73097 7.55695 0.25
105 5.19229 5.84641 5.18687 0.5
106 5.1612 0.388787 4.45586 0.25
107 4.29472 3.20128 7.01967 0.25
108 4.81252 1.37514 8.31384 0.25
109 0.724115 0.779881 5.71228 0.25
110 2.19299 7.97796 8.20102 0.25
111 3.21752 3.86729 6.96508 0.25
112 4.58762 2.04008 8.04742 0.25
113 1.70117 1.92044 1.82058 0.5
114 1.93392 3.92855 7.16943 0.25
115 4.65847 6.34881 6.23019 0.25
116 2.45816 7.13037 7.09407 0.25
117 4.15431 2.16007 3.59575 0.5
118 6.74472 7.16073 1.24043 0.25
119 1.10207 6.5141 3.76834 0.25
120 0.179583 2.84891 3.02836 0.25
121 3.15451 4.01886 3.57134 0.25
122 6.89413 0.762184 6.24483 0.25
123 4.98024 0.626812 5.30239 0.25
124 7.97754 8.10955 2.44809 0.25
125 3.42494 2.0552 3.84061 0.25
126 3.75434 1.23296 6.16123 0.25
127 5.26983 3.91252 1.62447 0.25
128 6.75895 5.37479 7.12892 0.25
129 0.899831 6.52258 4.31784 0.25
130 5.41454 6.32004 0.157197 0.25
131 7.03417 1.61311 6.29945 0.25
132 5.96578 4.17815 7.5234 0.25
133 3.09967 1.7302 3.61446 0.25
134 4.35304 2.44531 8.09158 0.25
135 5.42548 3.7664 3.46083 0.25
136 2.87727 2.525 3.65137 0.5
137 2.92733 4.02523 3.15935 0.25
138 7.37307 8.0227 2.85099 0.5
139 2.61765 7.49042 5.10567 0.25
140 5.17998 7.65525 7.95644 0.25
141 7.70055 5.85865 4.91326 0.25
142 1.14282 5.16189 3.37487 0.25
143 2.3305 2.20886 8.31702 0.25
144 5.0694 1.11011 2.58744 0.5
145 7.60912 1.88996 3.90415 0.25
146 6.06722 7.3683 0.225706 0.25
147 6.40709 5.69134 4.39268 0.25
148 2.244 2.9999 4.51884 0.25
149 4.55997 8.15985 2.49819 0.5
150 5.05504 2.83816 3.94917 0.25
151 3.48744 5.97039 7.21469 0.25
152 3.65075 4.74227 5.61741 0.25
153 6.71183 5.94197 2.23687 0.5
154 7.22773 2.37832 4.46502 0.5
155 2.95596 7.28923 7.75655 0.25
156 7.62019 3.52583 1.53698 0.25
157 7.70912 5.89544 1.71053 0.25
158 2.67368 3.73783 0.921561 0.25
159 7.00658 7.77522 4.33755 0.25
160 6.57385 1.97787 3.09855 0.25
161 0.949443 5.33679 2.93795 0.25
162 5.96717 4.25211 7.02033 0.25
163 3.33594 3.69966 4.28248 0.5
164 2.55993 3.89198 2.45858 0.5
165 5.49883 8.02866 7.7449 0.25
166 0.167979 3.79153 7.87746 0.25
167 6.41828 4.2264 8.23368 0.25
168 4.85361 6.07246 5.87506 0.25
169 4.06526 4.47886 5.78902 0.25
170 0.216678 2.96372 6.21209 0.25
171 7.9762 5.79744 1.25392 0.25
172 1.18873 2.93044 6.94416 0.25
173 4.37829 6.34033 5.8115 0.25
174 2.37359 2.21506 1.06174 0.25
175 7.502 2.57465 5.95319 0.5
176 2.36181 5.78591 6.18274 0.25
177 5.38012 3.53835 3.95014 0.25
178 3.01062 6.49195 1.92701 0.25
179 3.38964 1.98228 3.33315 0.25
180 5.97173 6.46587 5.84861 0.25
181 6.7913 4.05267 6.9949 0.25
182 3.19497 5.29108 3.47662 0.25
183 7.98767 7.56389 1.78988 0.25
184 3.80296 5.37662 8.33729 0.25
185 5.89074 6.90539 6.13641 0.25
186 7.51974 5.63414 4.45092 0.25
187 2.86691 5.03461 4.2288 0.25
188 0.674379 5.90372 3.4833 0.25
189 3.99377 6.64468 3.49363 0.25
190 3.9993 3.59962 1.31031 0.25
191 6.94826 1.57474 0.280819 0.5
192 1.01171 5.03287 7.97482 0.25
193 3.66883 5.47118 1.3248 0.25
194 2.6053 6.28499 1.78542 0.25
195 6.1877 5.66793 2.7315 0.25
196 2.23437 7.97448 2.62942 0.25
197 1.26763 0.0357949 2.43399 0.25
198 7.63937 5.07424 7.50149 0.25
199 1.20913 1.27663 3.15358 0.25
200 4.46563 5.32531 1.36934 0.5
201 6.70902 1.47349 3.17816 0.25
202 8.2389 3.76534 5.46501 0.25
203 3.62308 1.65476 3.55437 0.25
204 5.71527 8.04258 0.0666792 0.5
205 2.48675 7.40064 4.38664 0.5
206 0.314697 4.4328 5.35319 0.25
207 5.62731 2.74102 3.98931 0.25
208 6.72481 5.28485 4.2915 0.25
209 5.4148 7.08749 0.0693158 0.5
210 1.85225 8.05198 2.97331 0.25
211 0.596481 3.70022 5.08725 0.25
212 1.45378 8.00504 8.26781 0.5
213 0.285585 3.99011 2.90542 0.25
214 1.76197 8.01576 2.4926 0.25
215 2.87962 4.2405 3.9677 0.25
216 6.33998 2.02315 2.67182 0.25
217 4.90756 3.66232 1.83477 0.25
218 2.33619 3.36148 4.78717 0.25
219 4.26984 0.823267 2.81588 0.25
220 3.5897 3.54806 1.01106 0.25
221 4.3616 8.28293 5.61854 0.25
222 7.34914 0.663146 5.15813 0.25
223 8.23488 2.68223 2.62008 0.25
224 7.29131 5.40303 7.22409 0.25
225 7.18084 2.30591 5.27018 0.25
226 4.95459 2.05536 7.67958 0.25
227 6.51281 3.68354 7.20518 0.25
228 5.37691 3.12526 4.16807 0.25
229 5.62137 5.0919 1.82583 0.25
230 0.392395 8.28658 6.3643 0.5
231 5.31626 4.6193 1.34903 0.5
232 1.90117 2.88876 4.24391 0.25
233 3.77577 5.21305 4.44816 0.25
234 6.58541 1.50166 6.45733 0.25
235 3.21834 7.40184 4.63075 0.25
236 0.863338 2.57382 8.22832 0.25
237 8.3562 3.0482 7.58913 0.25
238 3.2303 0.835124 1.68739 0.25
239 0.483435 2.38091 3.70015 0.25
240 6.77398 6.22269 1.49939 0.25
241 3.41725 7.15321 8.02097 0.25
242 1.73535 7.34104 2.66944 0.5
243 2.96014 4.8322 3.3595 0.25
244 7.1803 3.46421 1.30166 0.25
245 2.0512 1.19934 5.82548 0.25
246 7.48636 8.28422 3.59434 0.25
247 3.54194 2.42455 3.4815 0.25
248 3.78909 3.13798 1.14511 0.25
249 0.175805 5.13151 7.49622 0.25
250 1.3614 3.7202 5.33701 0.25
251 5.21669 2.57688 4.64901 0.5
252 3.2424 2.21782 4.30314 0.25
253 8.01749 5.71261 7.39256 0.5
254 7.38219 5.91593 7.10727 0.25
255 4.7303 0.4334 5.89255 0.5
256 5.17798 6.49576 0.548546 0.25
257 1.17148 0.196432 2.8919 0.25
258 1.74825 1.57307 2.58901 0.25
259 4.50542 3.44837 1.5871 0.25
260 7.98277 6.22116 1.4595 0.25
261 4.17254 8.10995 1.44988 0.25
262 3.58263 2.5022 3.99594 0.25
263 2.13822 0.285715 0.195693 0.5
264 2.8323 4.35328 3.48798 0.25
265 1.21153 3.99244 7.51209 0.5
266 0.899643 7.73681 7.51588 0.5
267 5.27475 2.46088 7.67487 0.25
268 6.34591 7.69891 0.0391194 0.25
269 1.55169 5.27927 0.876813 0.25
270 4.05101 3.38593 0.833477 0.25
271 7.37176 7.77611 4.70195 0.25
272 1.80282 1.04606 2.59671 0.25
273 1.46047 3.40671 7.04295 0.25
274 0.888312 5.50103 7.85759 0.25
275 4.58876 4.56857 1.54631 0.25
276 2.80057 3.26775 1.14352 0.25
277 6.64378 1.07479 6.58071 0.25
278 3.96935 6.26747 1.291 0.25
279 3.86961 0.398593 5.35557 0.5
280 7.69999 8.12693 4.90373 0.25
281 0.89634 6.56283 0.526948 0.25
282 6.30971 7.10775 6.31787 0.25
283 1.15686 0.175729 6.12602 0.25
284 7.28284 4.43392 1.21653 0.25
285 1.8604 6.00731 1.01502 0.5
286 5.37633 6.63201 3.15081 0.25
287 1.40055 7.69367 3.49749 0.5
288 2.95619 7.23684 5.04576 0.25
289 2.16203 7.25678 5.13606 0.25
290 2.07653 3.84242 1.95026 0.25
291 8.26015 7.55324 7.11296 0.25
292 7.82192 2.4992 3.31752 0.25
293 7.44793 4.37066 3.27815 0.25
294 5.48907 3.7682 2.98667 0.25
295 8.17957 4.27962 1.2655 0.25
296 0.484999 4.23737 4.63568 0.5
297 3.92208 3.17712 6.68324 0.25
298 6.38222 5.1106 7.21367 0.25
299 5.92641 4.96876 7.37648 0.25
300 6.47128 3.39006 0.779931 0.25
301 0.992133 7.40164 8.22563 0.25
302 0.251704 4.29466 1.62999 0.25
303 3.85303 0.617196 0.992579 0.25
304 2.05801 2.57265 4.62728 0.25
305 0.792408 4.89862 0.0134885 0.25
306 2.36161 2.16315 4.50041 0.25
307 1.78213 4.78838 7.71373 0.5
308 3.46721 4.95351 3.22667 0.25
309 4.2851 0.954021 5.549 0.25
310 0.594415 4.79574 4.06783 0.25
311 7.14119 0.0921981 3.8694 0.25
312 1.03805 0.802189 2.51954 0.5
313 0.873317 3.74201 5.48984 0.25
314 5.17812 3.47032 2.68165 0.25
315 1.15251 4.59581 8.07542 0.25
316 1.79243 4.42878 7.05897 0.25
317 7.57988 2.35331 3.77662 0.25
318 2.29156 2.57043 4.15022 0.25
319 4.82816 7.36774 8.0426 0.25
320 2.03063 6.17304 6.13038 0.25
321 4.34064 0.705884 1.11318 0.25
322 7.41382 6.28383 4.99032 0.25
323 0.743479 6.09596 4.38919 0.25
324 4.09141 7.33343 7.73312 0.5
325 0.4129 2.1945 0.531313 0.25
326 4.13826 4.82279 5.07171 0.5
327 7.29511 7.40561 3.30791 0.25
328 2.27752 7.78783 1.82965 0.25
329 1.15625 6.04841 3.63304 0.25
330 8.30924 7.08184 7.22938 0.25
331 0.87598 5.47571 4.01763 0.5
332 7.31995 6.53603 2.17214 0.25
333 1.07614 1.44509 2.00097 0.25
334 6.74236 1.77139 0.949221 0.25
335 3.28469 3.11773 1.04416 0.25
336 2.91615 6.98764 6.86583 0.25
337 4.28746 7.14878 2.99757 0.5
338 6.47251 7.24546 0.000222997 0.25
339 1.98746 7.92375 3.92764 0.25
340 4.80597 0.497417 4.84003 0.25
341 6.64889 0.0530107 3.06533 0.25
342 1.20041 5.22239 7.59019 0.25
343 2.88727 1.29165 0.151433 0.25
344 1.17581 5.74579 2.79609 0.25
345 0.505377 1.31913 2.73951 0.25
346 0.44025 2.39399 7.9765 0.25
347 3.34466 5.94059 7.68886 0.25
348 7.23187 7.82866 2.08598 0.25
349 0.770369 2.11117 8.26444 0.25
350 6.71624 1.69791 2.72428 0.25
351 1.35824 6.86536 0.50521 0.25
352 6.33054 3.61728 7.88766 0.5
353 2.4561 0.108186 7.48633 0.25
354 1.96213 0.725851 5.84141 0.25
355 0.7451 0.379869 5.9533 0.25
356 1.76186 1.91186 5.95734 0.25
357 2.92139 4.08792 6.69206 0.25
358 6.11923 3.41066 5.11587 0.25
359 4.59219 1.02314 6.29922 0.25
360 1.89648 2.07718 1.14877 0.25
361 0.949559 7.67651 0.308192 0.25
362 6.32637 4.01714 6.81976 0.25
363 8.07277 3.95828 2.15995 0.25
364 6.03331 3.80548 7.20825 0.25
365 5.44871 6.06203 0.618411 0.25
366 5.92035 6.19348 0.795569 0.25
367 3.06421 4.31308 7.08554 0.25
368 6.89677 3.97987 8.31357 0.25
369 0.970803 6.93916 0.201238 0.25
370 5.5781 0.451415 8.25962 0.25
371 2.62601 7.98135 4.86001 0.25
372 2.07684 4.69324 0.702242 0.25
373 6.90027 2.70598 5.02738 0.25
374 3.84875 4.37838 4.49265 0.25
375 5.4642 0.919911 8.13525 0.25
376 2.61987 5.78169 1.03704 0.25
377 6.51424 1.589 2.06635 0.5
378 0.494853 3.88644 7.574 0.25
379 5.13773 1.31449 7.97704 0.25
380 2.33584 6.6764 4.57553 0.25
381 4.09466 5.46979 5.54766 0.25
382 2.01151 6.95253 4.80097 0.25
383 6.12779 5.16515 3.88481 0.5
384 2.20664 1.74374 1.25664 0.25
385 7.08208 1.51243 7.0601 0.5
386 1.39421 1.30084 5.49671 0.25
387 7.77381 0.95236 0.706531 0.25
388 0.676948 5.79768 3.01104 0.25
389 4.52447 2.58682 7.41985 0.5
390 4.26974 0.652062 6.43187 0.25
391 5.36607 4.75714 2.03991 0.25
392 8.28129 2.47457 3.11434 0.25
393 2.75211 6.6178 1.51805 0.25
394 0.688462 8.21409 8.12515 0.25
395 2.691 1.90182 1.17756 0.25
396 4.73772 7.81992 7.89063 0.25
397 5.1458 0.688524 0.0856596 0.25
398 7.42584 1.40084 8.08378 0.25
399 3.26827 4.4378 3.23085 0.25
400 4.9395 4.50556 0.737294 0.25
401 2.29928 7.03436 3.79985 0.25
402 8.20873 7.95792 6.79808 0.25
403 7.93392 6.21817 0.965158 0.25
404 8.10296 6.77028 6.96966 0.25
405 0.436275 7.74387 0.401346 0.25
406 5.38774 0.0674726 4.17371 0.25
407 2.43476 1.13533 7.9415 0.5
408 5.59702 3.3585 2.28565 0.25
409 2.23026 4.89097 1.15347 0.25
410 7.4999 0.807031 0.0812814 0.5
411 4.50882 5.48816 5.23385 0.25
412 8.34035 7.16077 6.7601 0.25
413 0.865114 2.36796 0.322854 0.25
414 0.654419 3.13752 7.88523 0.5
415 6.5495 4.6849 2.9156 0.25
416 3.13455 3.12898 6.47767 0.25
417 3.43781 4.691 3.91734 0.5
418 7.03333 6.83337 4.50799 0.25
419 4.08371 3.98177 5.9242 0.25
420 0.752222 3.2018 4.83303 0.25
421 4.11796 4.98295 5.80272 0.25
422 2.33577 5.413 1.18565 0.25
423 0.252117 0.486204 5.79898 0.25
424 0.426634 3.4601 4.70652 0.25
425 2.0163 2.81901 1.31557 0.5
426 6.96812 5.67029 4.93927 0.5
427 2.7154 2.22093 4.20571 0.25
428 4.03175 5.19614 3.96235 0.25
429 4.47136 4.65124 5.67007 0.25
430 1.9042 7.11613 3.46903 0.25
431 1.00791 3.4588 6.93327 0.25
432 1.64269 6.80469 4.16827 0.5
433 2.2143 1.71793 7.60622 0.25
434 0.741179 6.38107 0.992329 0.25
435 5.69245 3.44616 2.74144 0.25
436 1.08102 6.08995 3.11433 0.25
437 0.109362 1.28135 0.497396 0.25
438 0.979385 3.44094 5.17067 0.25
439 3.86893 2.72015 6.55128 0.25
440 5.02903 1.59981 7.56003 0.25
441 7.89687 4.1064 5.48995 0.25
442 2.52244 5.77472 1.52687 0.25
443 0.400724 2.96183 6.97915 0.5
444 2.14946 3.55266 1.53607 0.25
445 5.59539 6.94773 0.741468 0.25
446 4.14065 5.89224 3.63515 0.5
447 1.35958 1.57599 5.92838 0.25
448 5.9907 7.30615 5.96204 0.25
449 0.917574 5.58615 5.95222 0.25
450 3.12047 3.63345 1.03761 0.25
451 2.59657 7.05801 5.36612 0.25
452 2.54385 0.971009 0.321138 0.25
453 4.58715 4.60447 1.06886 0.25
454 0.177623 3.50923 7.46571 0.25
455 7.88327 5.2936 7.97214 0.25
456 3.03917 1.83974 4.1394 0.25
457 2.60714 3.70947 7.29042 0.5
458 0.135231 7.64154 6.6877 0.25
459 4.98173 7.72467 8.3568 0.25
460 5.5823 0.0929352 4.61674 0.25
461 2.70066 3.65746 1.34669 0.25
462 6.24649 4.98039 3.19793 0.25
463 5.01126 7.26079 2.91111 0.25
464 7.59077 6.82024 6.8697 0.25
465 6.93249 2.62868 5.49301 0.25
466 3.93769 1.24816 2.96514 0.25
467 3.88048 6.25733 1.74678 0.25
468 6.85649 5.35043 3.06705 0.5
469 7.5021 7.28713 6.66472 0.25
470 0.483234 1.64363 0.550503 0.25
471 1.92869 0.993038 6.28656 0.25
472 1.91921 7.40108 1.8837 0.25
473 7.38062 5.0924 5.24935 0.25
474 5.27052 5.88006 5.97823 0.25
475 1.41365 1.29024 2.74443 0.25
476 7.14454 0.814391 7.27818 0.25
477 3.15057 5.39289 3.96375 0.25
478 6.22405 3.31268 7.23483 0.25
479 3.39184 7.30851 7.53077 0.25
480 4.84573 0.147589 1.88037 0.25
481 7.92449 2.22637 4.2076 0.25
482 6.85699 4.96049 4.62199 0.25
483 8.0675 5.53303 5.00232 0.25
484 2.89397 0.773033 0.00639035 0.25
485 7.98734 7.53963 6.66476 0.25
486 2.47502 6.1932 5.9433 0.25
487 8.12018 7.75532 4.30329 0.25
488 4.46948 4.29467 5.99119 0.25
489 0.753371 8.13378 0.265817 0.25
490 8.0209 8.01845 1.99274 0.25
491 4.48803 2.94729 1.59873 0.25
492 2.55734 1.73435 4.31705 0.25
493 6.45983 4.4704 6.90147 0.25
494 4.79122 7.45892 2.51346 0.25
495 1.2028 6.01658 6.03122 0.25
496 3.03353 7.76908 4.99716 0.25
497 6.33542 4.40335 7.74743 0.25
498 3.34934 2.93727 4.08534 0.25
499 0.677032 5.16152 7.57264 0.25
500 4.04721 3.04934 6.23034 0.25
501 5.81156 3.63446 3.71318 0.25
502 1.65761 8.08137 7.57809 0.25
503 5.9823 4.99776 2.50132 0.5
504 7.70255 7.73244 2.16372 0.25
505 5.94607 1.70193 2.55385 0.25
506 7.00472 6.32326 4.67058 0.25
507 1.34238 0.487827 3.17492 0.25
508 0.725331 8.36082 5.25926 0.25
509 8.02432 4.77741 5.14673 0.5
510 5.07391 1.42226 5.63959 0.25
511 0.646607 0.362327 5.48627 0.25
512 1.08487 0.91609 3.33659 0.25
513 3.78741 1.09244 5.68671 0.25
514 1.88324 5.64431 6.18058 0.25
515 0.603855 8.20014 7.0384 0.25
516 7.42033 1.85749 6.04129 0.25
517 7.22279 5.29063 4.42389 0.25
518 0.875182 3.61273 4.65805 0.25
519 6.55641 1.96361 1.38034 0.25
520 6.92394 2.43228 6.45893 0.25
521 7.71207 1.58281 0.0853233 0.25
522 6.83105 1.01372 7.57999 0.25
523 5.24191 6.84843 5.69115 0.25
524 2.69685 0.530519 7.61946 0.25
525 6.38856 4.1686 7.30911 0.25
526 7.15114 5.15921 6.82643 0.25
527 7.32924 8.02749 4.01706 0.25
528 7.46067 1.55561 6.44717 0.25
529 6.71836 1.22863 2.75298 0.25
530 2.11369 1.89535 6.33618 0.25
531 7.82572 7.95591 3.86857 0.25
532 1.53315 0.916664 3.04608 0.25
533 7.30623 1.07425 7.67025 0.25
534 8.2453 5.84515 1.70743 0.25
535 0.337805 3.21918 5.50992 0.5
536 6.80867 2.71318 5.9543 0.25
537 4.12471 0.883328 6.02095 0.25
538 6.41287 5.20009 4.62816 0.25
539 2.23364 1.37849 6.28894 0.25
540 8.07769 6.43986 2.16851 0.5
541 7.61306 3.95767 1.81205 0.25
542 2.07264 2.12245 7.85372 0.25
543 3.2691 7.38176 7.04972 0.25
544 7.82661 6.49107 6.61772 0.25
545 1.15972 6.1603 4.10754 0.25
546 4.91581 5.93314 6.353 0.25
547 5.07655 2.86432 7.92785 0.25
548 6.25776 7.28247 6.7918 0.25
549 0.231811 7.94676 7.10508 0.25
550 6.0953 6.92858 8.31761 0.25
551 4.31014 1.28488 2.62426 0.25
552 3.60935 5.4453 4.05672 0.25
553 6.75686 7.89526 3.64186 0.5
554 4.23953 6.42588 3.0734 0.25
555 4.74402 6.643 3.53377 0.5
556 7.37102 0.586292 0.772151 0.25
557 7.16479 4.81215 3.92579 0.5
558 6.27751 0.0945183 3.39928 0.25
559 1.35835 0.46915 5.47797 0.5
560 5.10734 3.33194 2.21354 0.25
561 2.85024 3.13298 4.02067 0.25
562 5.10461 0.129688 5.33305 0.25
563 2.21037 6.52448 1.59474 0.25
564 6.28209 6.81614 0.689734 0.5
565 6.73777 1.97666 6.56048 0.25
566 1.23185 1.58669 2.43316 0.25
567 4.41825 5.93846 6.09105 0.25
568 5.79717 1.34164 2.85843 0.25
569 2.44058 8.36571 7.97403 0.25
570 1.87499 6.47758 4.73501 0.25
571 3.23411 4.01926 7.46112 0.25
572 8.25439 2.77281 3.79641 0.5
573 3.88325 1.56232 2.55492 0.25
574 1.58523 5.98477 6.32854 0.25
575 2.19547 1.7636 8.14392 0.25
576 4.16981 5.69482 7.63375 0.25
577 5.29871 0.378987 4.94151 0.25
578 1.98567 7.40915 3.86523 0.25
579 7.37177 5.37939 7.75666 0.25
580 7.1126 0.0818015 4.58468 0.5
581 4.308 4.75253 6.16489 0.25
582 5.85048 2.93127 4.36934 0.25
583 5.72773 3.6072 4.57062 0.5
584 4.82676 6.62 5.83562 0.25
585 4.79683 3.1848 1.22904 0.25
586 1.92379 0.300619 2.69671 0.5
587 4.80112 6.95936 2.53122 0.25
588 5.73258 5.10704 3.19434 0.25
589 0.193433 2.60841 7.56919 0.25
590 3.53028 6.49635 1.91151 0.25
591 6.87938 1.276 1.01175 0.25
592 7.3864 7.15171 1.68657 0.5
593 6.77368 6.71618 1.41982 0.25
594 1.51423 4.9012 0.237755 0.5
595 0.652373 3.85086 8.03456 0.25
596 2.16178 0.856009 0.656945 0.25
597 0.0296857 0.246607 5.08829 0.5
598 2.46484 6.24525 1.28773 0.25
599 1.98559 8.34237 7.85269 0.25
600 7.81858 0.641019 5.30875 0.25
601 0.563312 0.78195 5.25875 0.25
602 4.01436 0.154444 2.16802 0.25
603 4.16747 5.62921 8.17447 0.25
604 7.58892 5.08363 6.99221 0.25
605 8.00317 2.10835 3.64442 0.25
606 2.14768 8.18063 2.17518 0.25
607 4.4678 5.42786 7.90528 0.25
608 3.55341 7.75237 7.34741 0.25
609 6.53758 4.73172 4.33659 0.25
610 1.77059 1.56224 5.61602 0.25
611 3.10185 0.664849 7.93586 0.25
612 0.599088 7.33587 0.144013 0.25
613 7.00869 1.11947 8.04611 0.25
614 4.0139 1.24652 5.2618 0.25
615 4.80049 2.62003 3.5925 0.25
616 1.07573 5.6593 3.30712 0.25
617 1.65769 8.34676 2.11442 0.25
618 7.49797 7.2818 4.09094 0.5
619 7.70512 7.99842 4.38577 0.25
620 8.11997 7.40722 2.53791 0.5
621 4.12643 6.57463 3.98325 0.25
622 6.25273 6.59797 6.28559 0.25
623 5.83405 6.01842 0.319468 0.25
624 1.17086 3.28815 5.54679 0.25
625 1.3469 5.36896 8.04688 0.25
626 3.42827 0.326194 1.65738 0.25
627 4.91913 4.65036 1.94111 0.25
628 0.0294923 3.36408 2.49282 0.5
629 6.91968 3.48339 0.115205 0.25
630 1.49001 8.33576 3.19246 0.25
631 1.7851 1.6358 7.91558 0.25
632 7.58363 7.88777 1.72739 0.25
633 6.19458 7.64726 0.551647 0.25
634 2.86997 7.91396 3.99624 0.25
635 0.790364 7.24578 0.856013 0.5
636 1.75396 1.59281 1.10207 0.25
637 5.41222 0.480886 5.40957 0.25
638 4.50009 1.21465 5.10044 0.25
639 4.63136 1.82609 0.0754482 0.25
640 5.13465 7.75603 0.413995 0.25
641 1.23478 6.65947 5.38748 0.25
642 3.59186 0.77272 6.00004 0.25
643 6.24992 6.89921 5.85719 0.25
644 5.7568 0.858422 2.6632 0.25
645 2.33775 2.14229 1.5327 0.25
646 8.28488 6.66442 6.50449 0.25
647 2.36022 3.03863 4.03493 0.25
648 5.22644 1.20058 0.0539857 0.25
649 0.517588 4.16095 2.09893 0.25
650 8.42767 3.85918 1.45661 0.25
651 3.21458 3.17926 3.69636 0.25
652 6.66717 0.919954 7.0632 0.25
653 1.20395 6.56844 0.905477 0.25
654 0.467449 2.52404 0.0908739 0.25
655 3.6 3.68546 6.39823 0.5
656 0.667436 3.57265 7.27433 0.25
657 1.41933 5.57269 6.0517 0.25
658 6.71224 0.289352 3.56224 0.25
659 2.56664 1.92805 7.88287 0.25
660 6.91574 5.92036 3.95974 0.5
661 8.34133 1.02488 0.0593109 0.25
662 4.02472 4.79865 4.37655 0.25
663 2.55255 3.64797 1.79935 0.25
664 6.51545 2.58856 4.77523 0.25
665 7.89041 3.89146 1.3375 0.25
666 6.04346 6.85802 6.65533 0.25
667 6.52847 3.37763 0.272098 0.25
668 7.033 6.46231 1.80464 0.25
669 6.09999 4.79381 6.8862 0.25
670 5.72795 8.01339 4.83924 0.25
671 3.59451 4.81518 4.6138 0.25
672 2.6942 3.22629 2.04568 0.25
673 0.68907 1.12333 3.1081 0.25
674 4.8817 7.36926 3.39095 0.25
675 5.30996 3.67918 5.19336 0.25
676 7.56143 8.18225 2.12251 0.25
677 6.47881 1.46989 1.27045 0.25
678 7.4335 6.1272 4.54708 0.25
679 1.14651 6.21641 1.2509 0.25
680 3.74019 6.72891 8.07456 0.25
681 7.62308 0.016925 4.07881 0.25
682 2.13817 6.07387 1.69417 0.25
683 1.67995 7.84432 7.1668 0.25
684 0.494683 3.86796 1.6408 0.25
685 2.92244 3.60949 6.62865 0.25
686 4.28306 2.84694 6.70378 0.25
687 1.70327 4.38025 0.79021 0.25
688 3.80721 0.792016 6.4249 0.25
689 5.97419 4.24204 8.02107 0.25
690 6.19773 1.19706 2.58347 0.25
691 6.93328 1.65319 1.40966 0.25
692 5.10114 5.12292 1.82439 0.25
693 7.22085 2.06485 6.42443 0.25
694 7.35065 4.95813 4.75485 0.25
695 8.30772 2.71699 5.90607 0.25
696 5.65004 5.91217 3.31618 0.5
697 4.29058 3.90382 6.34157 0.25
698 1.79031 1.02404 5.43417 0.25
699 1.51622 6.81769 4.9984 0.25
700 4.34396 6.01678 1.15456 0.25
701 4.84463 1.6669 8.0044 0.25
702 2.22142 4.31287 7.36953 0.25
703 3.34385 6.6497 7.43926 0.5
704 4.59921 5.48669 8.38994 0.25
705 4.91793 3.15821 1.69212 0.25
706 5.14362 0.185217 8.30245 0.25
707 4.63503 3.90442 1.0986 0.5
708 5.67345 7.55424 7.84306 0.25
709 2.57285 7.08431 1.99711 0.5
710 2.19853 4.29596 6.86342 0.25
711 5.05132 6.25163 3.01467 0.25
712 0.556116 5.21331 8.07751 0.25
713 2.85215 4.0084 1.76697 0.25
714 5.24484 4.14114 0.726361 0.25
715 4.66649 6.54621 2.80162 0.25
716 6.7017 0.594414 7.40741 0.25
717 7.45567 7.82053 3.5632 0.25
718 6.19109 3.50813 6.83857 0.25
719 5.8966 4.63821 7.71134 0.25
720 1.72417 7.61826 4.21962 0.25
721 7.13936 1.80179 2.47841 0.25
722 2.4129 7.65383 3.34688 0.5
723 2.49445 7.52982 2.59788 0.25
724 7.21468 6.43277 1.32362 0.25
725 7.71953 6.39446 7.10538 0.25
726 0.940162 1.09257 5.3688 0.25
727 4.1847 0.23759 1.2951 0.25
728 3.64797 6.20387 7.999 0.25
729 4.88484 5.88015 3.35008 0.25
730 2.89369 7.16561 7.29757 0.25
731 5.34084 3.0492 2.57639 0.25
732 4.16115 3.6389 6.83313 0.25
733 3.7053 5.55994 7.49462 0.25
734 3.91422 1.04815 2.46558 0.25
735 3.53634 2.98898 6.31166 0.25
736 7.9845 1.33356 8.16946 0.25
737 3.40495 0.639357 1.26115 0.25
738 0.417504 8.22156 0.638537 0.25
739 4.59942 6.08497 3.08121 0.25
740 5.29886 7.08626 3.25413 0.25
741 0.800016 7.96891 0.734947 0.25
742 3.79164 4.73922 6.08517 0.25
743 7.01781 0.828673 1.14166 0.25
744 4.40785 0.91403 2.30008 0.25
745 3.65706 4.27557 5.89942 0.25
746 1.22822 6.09287 4.91741 0.5
747 4.48769 0.425172 2.11381 0.25
748 2.6854 6.69572 7.13435 0.25
749 1.53051 1.27939 2.2143 0.25
750 0.145494 3.48057 1.72424 0.25
751 0.986678 0.809598 4.93538 0.25
752 6.30648 4.89747 7.73481 0.25
753 3.96838 0.780093 1.71434 0.5
754 4.3859 6.1112 1.60906 0.25
755 2.91171 2.56942 1.53927 0.5
756 7.80774 6.87965 7.36204 0.25
757 5.74575 6.91068 5.70217 0.25
758 6.84308 3.9517 7.48684 0.25
759 4.35152 8.12514 5.17268 0.25
760 0.431793 2.49739 3.24301 0.25
761 3.73299 7.27582 7.16187 0.25
762 0.742211 1.76188 3.4479 0.5
763 4.04604 8.08013 1.90727 0.25
764 1.38251 6.37937 0.504173 0.25
765 7.49016 4.87388 3.17027 0.25
766 0.807153 4.16493 2.82638 0.25
767 2.58747 6.99661 7.57357 0.25
768 2.16697 2.89652 4.9681 0.25
769 8.05654 3.68397 1.7807 0.25
770 4.93068 0.944444 8.13959 0.25
771 6.72319 1.2384 6.09106 0.25
772 4.89703 2.41396 8.01353 0.25
773 5.27284 1.06264 4.9259 0.5
774 3.4721 8.14996 5.17311 0.25
775 8.05657 4.41472 2.81364 0.5
776 6.99499 3.95527 0.727816 0.5
777 5.91935 6.50347 0.0865071 0.25
778 4.96541 8.15633 0.160348 0.25
779 8.08659 8.22431 4.22361 0.25
780 2.20094 1.70352 5.89591 0.25
781 2.67189 1.75245 8.36425 0.25
782 1.25766 7.75655 0.61796 0.25
783 6.90663 3.23128 0.535841 0.25
784 2.13362 7.68672 2.26276 0.25
785 2.57795 1.70283 6.25265 0.25
786 2.56246 7.85284 2.25105 0.25
787 7.88977 7.011 6.54463 0.25
788 0.150783 4.00859 2.3647 0.25
789 3.55284 0.0122142 4.77426 0.25
790 7.05967 0.801195 6.76342 0.25
791 0.550007 4.71537 3.26099 0.5
792 2.23284 0.378928 7.82768 0.25
793 8.12004 7.07404 1.82193 0.25
794 5.41502 6.52682 6.30569 0.5
795 2.45237 4.2073 3.20618 0.25
796 2.11031 5.84043 5.7668 0.25
797 6.80566 6.38948 1.04447 0.25
798 7.70927 4.33148 1.49679 0.25
799 4.24414 3.4595 6.04251 0.25
800 8.0522 2.09109 3.18594 0.25
801 3.15857 7.86364 7.04236 0.25
802 3.29536 5.25575 4.39014 0.25
803 3.1636 8.31408 7.67513 0.5
804 3.64307 6.97259 1.85683 0.25
805 1.78674 7.86207 2.00453 0.25
806 2.66024 1.85567 3.85497 0.25
807 4.7633 6.33632 5.44229 0.25
808 4.14097 2.05451 7.86056 0.25
809 1.69915 5.98993 5.86376 0.25
810 6.63568 7.45563 6.54075 0.25
811 1.52044 3.22288 4.77775 0.5
812 5.77894 7.4503 0.587816 0.25
813 4.19024 1.69327 2.93183 0.25
814 1.6009 7.601 7.63075 0.25
815 2.74841 8.1758 4.41033 0.25
816 0.946406 2.93696 5.22473 0.25
817 4.37033 1.62949 8.06622 0.25
818 3.73776 1.69304 3.06502 0.25
819 1.87392 5.28218 1.25351 0.25
820 3.51215 2.97447 6.7753 0.25
821 1.51686 2.09653 8.36601 0.5
822 5.90786 4.32492 3.28458 0.5
823 5.19233 0.541421 7.98577 0.25
824 0.729403 0.440919 4.95697 0.25
825 3.81375 6.05167 7.59398 0.25
826 3.31175 3.43377 1.7048 0.5
827 5.84834 7.31496 6.43941 0.25
828 0.15442 2.08256 7.65561 0.25
829 8.16676 8.07101 4.68124 0.25
830 0.989338 1.95766 2.7045 0.25
831 2.39144 4.28389 7.81768 0.25
832 5.80282 4.56099 1.88036 0.25
833 1.81456 1.46725 6.13808 0.25
834 4.13534 0.535329 2.43204 0.25
835 6.12667 1.78925 1.45567 0.25
836 3.32104 7.64597 7.8234 0.25
837 3.97533 5.27746 7.86452 0.25
838 7.57659 0.887445 1.16795 0.25
839 6.20245 7.5895 6.3341 0.25
840 6.99536 4.68916 7.3713 0.5
841 3.24753 6.91073 2.12965 0.25
842 0.208122 2.01865 2.68581 0.5
843 5.81839 3.80698 5.2963 0.25
844 4.69298 2.33807 0.0656156 0.25
845 7.34649 2.75412 5.22816 0.25
846 3.71653 3.40894 7.41325 0.5
847 2.0669 5.23378 0.779532 0.25
848 1.7412 5.87963 5.3756 0.25
849 5.14796 7.68681 2.68421 0.25
850 6.20639 2.72419 5.4107 0.5
851 5.6135 0.0196776 5.13636 0.25
852 6.96483 1.4716 7.80604 0.25
853 3.87324 8.07449 4.95583 0.25
854 4.3786 1.58783 5.86014 0.5
855 0.37275 3.96037 5.40457 0.25
856 0.625554 5.42903 3.34706 0.25
857 3.6947 6.68449 1.50462 0.25
858 2.73583 4.72291 3.80998 0.25
859 6.42957 4.51335 3.90144 0.25
860 7.70931 4.19336 0.990431 0.25
861 4.63713 2.81609 8.15741 0.25
862 6.57783 4.67773 3.42477 0.25
863 5.53639 6.49002 0.940145 0.25
864 7.54011 6.92414 2.40958 0.25
865 3.7472 5.72639 7.92786 0.25
866 5.14918 8.06805 3.05324 0.25
867 1.99043 4.02261 7.66816 0.25
868 2.29162 1.67383 0.541172 0.5
869 1.03328 3.22902 7.33421 0.25
870 6.12398 5.44501 3.17425 0.25
871 2.786 7.5163 6.99092 0.25
872 5.79071 3.01781 4.92322 0.25
873 0.290728 8.13225 0.12854 0.25
874 4.1121 1.1365 6.45103 0.25
875 2.2356 4.24106 1.35455 0.5
876 1.28737 5.75022 5.61088 0.25
877 0.0108117 5.27273 7.9629 0.25
878 5.83255 1.28125 2.36914 0.25
879 3.0849 8.25971 4.79814 0.25
880 6.42432 5.95003 3.0371 0.25
881 7.26534 1.19997 1.33534 0.25
882 7.88737 7.22852 7.0131 0.25
883 0.614939 3.86304 2.4859 0.25
884 7.32273 3.26208 0.871819 0.25
885 0.777266 4.21845 5.27199 0.25
886 7.75879 7.49587 3.27498 0.25
887 0.982274 6.67585 1.353 0.25
888 1.03346 4.79929 3.76746 0.25
889 1.3995 8.10436 2.77234 0.25
890 0.458471 4.37553 2.58945 0.25
891 0.962917 2.37014 7.84832 0.25
892 7.61708 3.69313 1.02545 0.25
893 1.15198 8.24164 0.53891 0.25
894 3.94057 5.84424 1.53192 0.25
895 3.89225 5.81621 1.05559 0.25
896 1.87319 1.41017 8.33619 0.25
897 8.11386 4.14653 1.70744 0.25
898 0.826241 4.37608 3.93095 0.25
899 0.900251 8.322 5.72836 0.25
900 5.20291 6.33076 5.69016 0.25
901 0.933191 1.48774 2.80939 0.25
902 7.40696 3.95196 1.33375 0.25
903 5.86514 3.56654 3.23711 0.25
904 6.79311 4.20143 7.87758 0.25
905 5.28655 0.928365 5.60271 0.25
906 2.05654 1.02706 0.205898 0.25