ITEM: TIMESTEP
710000
ITEM: NUMBER OF ATOMS
1000
ITEM: BOX BOUNDS xy xz yz pp pp pp
0.0000000000000000e+00 8.3788359999999997e+00 0.0000000000000000e+00
0.0000000000000000e+00 8.3788359999999997e+00 0.0000000000000000e+00
0.0000000000000000e+00 8.3788359999999997e+00 0.0000000000000000e+00
ITEM: ATOMS id x y z radius
1 2.55545 6.78123 4.94541 0.25
2 4.84196 5.22689 4.94376 0.25
3 6.9998 4.61116 3.1844 0.25
4 7.14882 1.03854 5.81396 0.5
5 1.07878 5.75806 6.35014 0.25
6 8.21339 1.72791 3.44784 0.25
7 4.28535 3.33467 6.52186 0.25
8 4.84772 7.79457 3.02104 0.25
9 0.80842 6.16321 3.78528 0.25
10 4.05318 1.50082 3.44183 0.25
11 5.42621 0.14953 7.96166 0.25
12 5.15575 3.49369 1.38289 0.25
13 0.601546 2.40089 7.38675 0.25
14 3.85616 2.92183 7.126 0.25
15 8.05266 3.03817 5.89564 0.25
16 7.36948 0.980945 6.56497 0.25
17 0.852137 5.28986 0.059652 0.25
18 6.16702 7.51147 8.07891 0.25
19 4.67641 1.86502 7.54352 0.25
20 7.8369 1.41098 0.641958 0.25
21 4.9012 4.22057 1.78301 0.25
22 4.26029 3.24857 1.16866 0.25
23 2.16582 3.28879 1.99396 0.25
24 2.96034 2.152 4.70613 0.25
25 2.76223 4.50096 3.01675 0.25
26 0.40527 0.04009 5.75366 0.25
27 3.8722 0.406413 5.79514 0.25
28 4.05453 2.08101 8.09339 0.25
29 5.1288 6.95267 3.01881 0.25
30 7.61171 7.29892 2.42249 0.25
31 2.78367 0.364867 8.15851 0.25
32 1.00847 2.72896 7.31861 0.25
33 7.535 0.0711304 5.23829 0.25
34 2.10577 5.63289 1.78444 0.25
35 7.94366 0.0485034 4.55852 0.25
36 6.71124 1.97832 5.89161 0.5
37 3.98922 1.54467 2.23613 0.25
38 2.06008 3.36788 4.24265 0.25
39 6.04087 2.64904 4.72249 0.25
40 5.31142 7.80613 3.12462 0.25
41 6.64581 2.13861 2.7777 0.25
42 5.71551 6.10098 5.73941 0.25
43 3.48472 7.71039 4.84755 0.25
44 3.67934 0.0657609 5.43364 0.25
45 5.55523 4.05812 3.95522 0.25
46 3.26853 6.07806 1.4663 0.5
47 4.90242 0.891074 5.51671 0.25
48 8.15812 6.23603 6.84807 0.25
49 7.28234 6.70705 4.78894 0.25
50 8.01276 1.26548 1.11916 0.25
51 2.54329 3.43471 4.40366 0.25
52 0.601348 1.62152 2.40236 0.25
53 6.55938 5.13734 6.90306 0.25
54 5.75433 3.31384 4.03575 0.25
55 1.60405 1.06616 5.78813 0.25
56 1.31118 7.28184 0.33891 0.25
57 4.62876 0.841551 1.94337 0.25
58 2.27956 2.0834 4.17041 0.25
59 4.66184 1.1035 6.38221 0.25
60 7.67051 5.45208 5.30906 0.25
61 5.08893 8.19041 8.02641 0.25
62 5.13627 2.10749 0.097031 0.5
63 7.46725 6.62388 1.07368 0.25
64 1.11221 6.18635 1.08696 0.25
65 4.21564 0.138048 1.83109 0.25
66 2.38357 4.92968 7.36826 0.25
67 8.23291 4.9596 7.61739 0.25
68 6.92955 0.654908 6.42692 0.25
69 0.437299 5.53405 7.78655 0.25
70 1.7075 4.87555 1.204 0.25
71 8.16676 1.38419 0.297876 0.25
72 6.36466 6.24658 3.42692 0.25
73 0.605707 7.59431 6.77183 0.25
74 7.46695 5.58101 6.82509 0.25
75 7.31113 8.37966 3.33488 0.25
76 7.48087 6.39115 4.38932 0.25
77 5.47547 2.73327 5.27734 0.25
78 5.3879 3.87047 1.07728 0.25
79 7.5382 5.04009 4.5843 0.25
80 5.65017 3.19241 5.36441 0.25
81 7.13378 1.43175 1.095 0.25
82 8.34105 2.67931 5.77138 0.25
83 4.48946 5.79764 5.60793 0.25
84 1.07583 1.08382 5.80014 0.25
85 1.30049 1.04719 5.03358 0.25
86 4.5334 0.0569578 5.42643 0.25
87 1.80623 2.42151 0.72665 0.25
88 3.23616 6.83843 1.67138 0.25
89 6.96993 7.36879 0.852729 0.25
90 5.53474 6.50853 5.48972 0.25
91 4.13154 4.25234 6.18293 0.25
92 6.20385 4.58192 7.4703 0.25
93 5.05424 6.55539 5.39422 0.25
94 6.78165 0.291621 3.93713 0.25
95 0.368404 4.50627 7.85092 0.5
96 5.29544 3.13559 3.36958 0.5
97 4.26766 5.01909 8.25653 0.25
98 8.30193 2.18467 3.45339 0.25
99 1.53569 6.33699 5.86893 0.25
100 7.00141 6.89 1.02852 0.25
101 0.953549 7.75873 8.15441 0.25
102 7.81273 4.67208 3.499 0.25
103 6.73702 1.11144 1.25845 0.25
104 1.07453 4.72022 7.60281 0.25
105 5.20721 5.8523 5.21566 0.5
106 5.24547 0.456287 4.51065 0.25
107 4.30012 3.23614 7.05678 0.25
108 4.73326 1.47923 8.29033 0.25
109 0.656967 0.836254 5.73291 0.25
110 2.3416 7.9891 8.27378 0.25
111 3.25904 4.06138 6.89427 0.25
112 4.52335 2.17629 7.92427 0.25
113 1.56468 1.96261 1.82973 0.5
114 1.85503 3.7619 7.26351 0.25
115 4.7067 6.27055 6.28989 0.25
116 2.56295 7.15119 7.05376 0.25
117 4.10925 2.20969 3.63868 0.5
118 6.75447 7.25958 1.26566 0.25
119 0.718073 6.29763 3.38862 0.25
120 0.1701 2.86521 2.49675 0.25
121 3.11248 4.05382 3.64623 0.25
122 6.49811 0.88185 6.34476 0.25
123 5.23067 0.484906 5.52937 0.25
124 8.14516 7.98739 2.52228 0.25
125 3.42886 2.07205 3.94108 0.25
126 3.62196 1.19027 5.83713 0.25
127 5.21817 3.93913 1.51774 0.25
128 6.6899 5.41168 7.32309 0.25
129 0.969717 6.42518 4.2556 0.25
130 5.96167 6.16442 0.53311 0.25
131 7.10741 1.46179 6.34382 0.25
132 6.07189 4.07187 7.59003 0.25
133 3.07215 1.71803 3.78422 0.25
134 4.2535 2.62082 8.03557 0.25
135 5.36926 3.85611 3.51786 0.25
136 2.81395 2.51271 3.74636 0.5
137 2.87565 4.00429 3.1463 0.25
138 7.56049 7.77445 2.9393 0.5
139 2.63846 7.34191 5.15005 0.25
140 5.23581 7.69656 7.9289 0.25
141 7.7027 5.92272 5.03123 0.25
142 1.12506 5.08469 3.16591 0.25
143 2.36596 2.15514 8.24956 0.25
144 5.031 1.19927 2.5732 0.5
145 7.51471 1.7771 3.90892 0.25
146 6.11645 7.42863 0.214012 0.25
147 6.44569 5.64502 4.53171 0.25
148 2.21689 3.08964 4.62749 0.25
149 4.50385 8.27688 2.51758 0.5
150 4.88283 2.84679 3.97731 0.25
151 3.52707 5.89851 7.29531 0.25
152 3.75932 4.65326 5.57229 0.25
153 6.8422 6.02266 2.32239 0.5
154 7.20662 2.15013 4.53842 0.5
155 3.06761 7.25106 7.76413 0.25
156 7.47502 3.47839 1.5227 0.25
157 7.74678 5.98364 1.48879 0.25
158 2.57472 3.71348 0.950411 0.25
159 7.01962 7.71094 4.39434 0.25
160 6.44464 1.77087 3.05893 0.25
161 0.799533 5.21986 2.81889 0.25
162 5.95299 4.30359 7.13311 0.25
163 3.29809 3.72879 4.31716 0.5
164 2.53165 3.81942 2.50741 0.5
165 5.49291 8.08771 7.70929 0.25
166 0.191408 3.76618 7.8533 0.25
167 6.65821 4.15034 8.25905 0.25
168 4.86975 6.02341 5.87181 0.25
169 4.19319 4.41262 5.6686 0.25
170 8.2599 2.72825 6.24946 0.25
171 7.76702 5.82499 0.99636 0.25
172 1.22942 2.98922 6.89278 0.25
173 4.41952 6.23503 5.86316 0.25
174 2.22081 2.29335 0.970177 0.25
175 7.60434 2.42555 5.92247 0.5
176 2.3213 5.75727 6.31866 0.25
177 5.34995 3.60253 3.97868 0.25
178 3.0562 6.56706 1.99264 0.25
179 3.33058 1.9366 3.41333 0.25
180 5.94248 6.58881 5.73326 0.25
181 6.78241 4.21666 6.88236 0.25
182 3.32403 5.19834 3.34078 0.25
183 8.0223 7.61491 1.74439 0.25
184 3.88144 5.36228 0.058599 0.25
185 5.81922 6.92809 6.10304 0.25
186 7.48758 5.91912 4.555 0.25
187 2.89812 5.17533 4.05981 0.25
188 0.660289 5.78274 3.40847 0.25
189 4.15118 6.59883 3.4288 0.25
190 3.96226 3.59475 1.32315 0.25
191 7.1387 1.72191 0.432008 0.5
192 1.00788 4.97893 8.04723 0.25
193 3.8153 5.54471 1.2116 0.25
194 2.62316 6.365 1.82143 0.25
195 6.27862 5.63476 2.65242 0.25
196 2.2569 8.02776 2.70394 0.25
197 1.15764 0.213851 2.33219 0.25
198 7.73951 4.91102 7.47284 0.25
199 1.12979 1.36514 3.20407 0.25
200 4.52573 5.28629 1.5171 0.5
201 6.66133 1.3192 3.07504 0.25
202 8.17309 3.7809 5.27457 0.25
203 3.60574 1.61679 3.68428 0.25
204 5.66038 8.03723 0.0492419 0.5
205 2.51859 7.25414 4.3772 0.5
206 0.256277 4.47257 5.25834 0.25
207 5.72089 2.80867 3.97916 0.25
208 6.80768 5.29863 4.35039 0.25
209 5.52495 7.07015 8.33276 0.5
210 1.84712 8.08099 3.05461 0.25
211 0.578714 3.80365 4.99334 0.25
212 1.58766 7.86496 0.00418498 0.5
213 0.255901 4.1597 2.73116 0.25
214 1.75505 8.05319 2.55944 0.25
215 2.82045 4.29039 4.00149 0.25
216 6.27914 1.83415 2.62409 0.25
217 4.85022 3.71878 1.81016 0.25
218 2.34365 3.47685 4.90337 0.25
219 4.31457 1.01884 2.82389 0.25
220 3.5316 3.54962 1.05613 0.25
221 4.13679 0.0363587 5.70613 0.25
222 7.25466 0.530581 5.18062 0.25
223 8.05244 2.75769 2.68077 0.25
224 7.19926 5.56685 7.31643 0.25
225 7.23984 2.12849 5.29395 0.25
226 5.01634 2.23091 7.75641 0.25
227 6.59214 3.76298 6.96563 0.25
228 5.3119 3.07585 4.14888 0.25
229 5.63368 5.09352 1.81893 0.25
230 0.457081 8.24097 6.40826 0.5
231 5.34173 4.64615 1.30822 0.5
232 1.89242 2.88208 4.33684 0.25
233 3.82046 5.23592 4.36912 0.25
234 6.49618 1.25453 6.77969 0.25
235 3.30228 7.27851 4.68467 0.25
236 0.93754 2.50198 7.75929 0.25
237 8.33227 3.12664 7.33962 0.25
238 3.26397 0.827812 1.283 0.25
239 0.235018 2.37205 3.8311 0.25
240 6.70499 6.3107 1.57516 0.25
241 3.46179 7.04168 8.0091 0.25
242 1.69831 7.40074 2.7274 0.5
243 2.97792 4.84397 3.31459 0.25
244 7.05809 3.4813 1.20893 0.25
245 2.11433 1.15902 5.73212 0.25
246 7.54644 8.09474 3.66155 0.25
247 3.42888 2.42928 3.49248 0.25
248 3.76986 3.1167 1.17819 0.25
249 0.270263 5.16304 7.47728 0.25
250 1.25514 3.73135 5.51703 0.25
251 5.31919 2.52281 4.55319 0.5
252 3.18907 2.39811 4.31275 0.25
253 8.09402 5.62314 7.33834 0.5
254 7.44104 5.97724 7.16693 0.25
255 4.61988 0.49749 6.01215 0.5
256 5.59353 6.30692 0.200213 0.25
257 1.13975 0.155684 2.81909 0.25
258 1.58518 1.76854 2.60657 0.25
259 4.42807 3.44541 1.57825 0.25
260 7.84835 6.33756 1.17618 0.25
261 4.05594 8.18529 1.50953 0.25
262 3.57106 2.53523 3.96508 0.25
263 2.15415 0.310608 0.237684 0.5
264 2.78884 4.37691 3.49438 0.25
265 1.20022 3.94733 7.53479 0.5
266 0.967403 7.7829 7.41839 0.5
267 5.17955 2.73156 7.89938 0.25
268 6.40448 7.82191 0.0724094 0.25
269 1.45769 5.324 1.03682 0.25
270 3.97996 3.445 0.828281 0.25
271 7.41944 7.79888 4.65847 0.25
272 1.69045 1.061 2.58069 0.25
273 1.51888 3.3776 7.15065 0.25
274 0.902931 5.47375 7.98093 0.25
275 4.59359 4.58668 1.58555 0.25
276 2.76311 3.24441 1.16994 0.25
277 6.58559 0.751406 6.82282 0.25
278 4.03888 6.33511 1.32996 0.25
279 4.07074 0.544909 5.10314 0.5
280 7.76366 8.11786 4.91317 0.25
281 0.975107 6.45411 0.696201 0.25
282 6.2057 7.22232 6.24226 0.25
283 1.20361 0.15972 6.15902 0.25
284 7.31282 4.33813 1.07733 0.25
285 1.86447 6.02619 1.17055 0.5
286 5.51089 6.80801 3.25795 0.25
287 1.42684 7.89453 3.66646 0.5
288 2.95551 7.05343 4.96407 0.25
289 2.21056 7.1174 5.1798 0.25
290 2.03777 3.74576 2.02233 0.25
291 8.26668 7.54115 7.13848 0.25
292 7.59851 2.39744 3.38404 0.25
293 7.38432 4.38652 3.2994 0.25
294 5.40689 3.84184 3.03772 0.25
295 8.09673 4.14914 1.13864 0.25
296 0.482218 4.35503 4.56774 0.5
297 3.89736 3.26976 6.76198 0.25
298 6.31412 4.9969 7.3244 0.25
299 5.88825 4.87902 7.61191 0.25
300 6.46234 3.41536 0.459574 0.25
301 1.23839 7.38286 7.90137 0.25
302 0.144344 4.12854 1.42258 0.25
303 3.7143 0.864151 1.05566 0.25
304 2.0357 2.64106 4.73202 0.25
305 0.788014 4.76569 0.0357387 0.25
306 2.39486 2.24161 4.64305 0.25
307 1.78112 4.75577 7.83913 0.5
308 3.64708 5.57256 3.16513 0.25
309 4.40474 1.00453 5.53926 0.25
310 0.504032 4.78845 3.88638 0.25
311 7.25605 0.127061 3.77978 0.25
312 0.921457 0.898956 2.55703 0.5
313 0.738828 3.74345 5.47146 0.25
314 5.16868 3.4389 2.70845 0.25
315 1.11799 4.52524 8.09279 0.25
316 1.85708 4.29019 7.22705 0.25
317 7.45041 2.22088 3.82845 0.25
318 2.31183 2.6026 4.34811 0.25
319 4.87103 7.32109 8.0219 0.25
320 2.017 6.16526 6.104 0.25
321 4.2494 0.75707 1.1671 0.25
322 7.07347 6.41091 5.15477 0.25
323 0.790135 5.93752 4.25587 0.25
324 4.17112 7.28439 7.84222 0.5
325 0.961925 1.9384 0.114602 0.25
326 4.15399 4.87903 4.98254 0.5
327 7.27726 7.295 3.47781 0.25
328 2.1871 7.89011 1.87139 0.25
329 1.10424 5.9222 3.48968 0.25
330 8.28012 7.1351 7.34713 0.25
331 1.03145 5.35785 3.89731 0.5
332 7.47915 6.5096 2.08846 0.25
333 0.989353 1.46535 2.08775 0.25
334 6.70267 1.60901 1.31787 0.25
335 3.2696 3.10595 1.06734 0.25
336 3.02646 7.09598 6.82824 0.25
337 4.36855 7.20184 2.96905 0.5
338 6.55572 7.36392 0.0182553 0.25
339 2.08652 7.86744 4.08233 0.25
340 4.792 0.565332 4.76389 0.25
341 6.39648 8.32712 3.24517 0.25
342 1.2354 5.20543 7.66594 0.25
343 2.75311 1.33179 0.361969 0.25
344 0.968817 5.66378 2.64311 0.25
345 0.380138 1.37334 2.78334 0.25
346 0.475523 2.40128 7.84561 0.25
347 3.42854 5.91915 7.77323 0.25
348 7.35185 7.68115 2.20377 0.25
349 0.79677 2.20648 8.17549 0.25
350 6.71535 1.60105 2.64915 0.25
351 1.44647 7.09925 0.845769 0.25
352 6.50437 3.54174 7.70076 0.5
353 2.49691 0.0294373 7.53419 0.25
354 1.93045 0.678806 5.6576 0.25
355 0.734431 0.386717 5.98423 0.25
356 1.721 1.85941 5.99008 0.25
357 2.92851 4.00179 6.56421 0.25
358 6.02552 3.40625 5.1498 0.25
359 4.15746 0.950375 6.40208 0.25
360 1.78966 2.16061 1.12054 0.25
361 0.961354 7.69652 0.263406 0.25
362 6.3176 4.17 6.79136 0.25
363 7.95621 4.05555 2.08836 0.25
364 6.10824 3.81928 7.09353 0.25
365 5.47973 6.2117 0.721391 0.25
366 5.48102 6.6692 0.93946 0.25
367 2.93907 4.38781 6.89188 0.25
368 6.94231 3.82728 8.23183 0.25
369 1.29851 6.75307 0.492471 0.25
370 5.57231 0.534243 8.34017 0.25
371 2.52968 7.81693 4.90322 0.25
372 2.07748 4.74905 0.848034 0.25
373 6.90078 2.65547 4.95007 0.25
374 3.73397 4.41977 4.48455 0.25
375 5.41009 0.987097 8.15356 0.25
376 2.63201 5.83046 1.09303 0.25
377 6.41377 1.39221 1.99679 0.5
378 0.480332 3.84043 7.50793 0.25
379 5.19177 1.43148 8.03126 0.25
380 2.26949 6.51802 4.66435 0.25
381 4.21765 5.37924 5.49591 0.25
382 1.97563 6.8555 4.80771 0.25
383 6.22372 5.23093 3.91154 0.5
384 2.04252 1.81107 1.22266 0.25
385 7.26073 1.5366 7.07651 0.5
386 1.33392 1.29963 5.44382 0.25
387 7.93652 0.930434 0.790933 0.25
388 0.550864 5.5874 2.9597 0.25
389 4.56986 2.60337 7.32824 0.5
390 3.90314 0.560541 6.25686 0.25
391 5.35655 4.77016 2.06106 0.25
392 8.08879 2.54873 3.18448 0.25
393 2.80131 6.65492 1.4946 0.25
394 0.997076 8.23251 8.02151 0.25
395 2.50184 1.92031 1.15337 0.25
396 4.73778 7.80676 8.07495 0.25
397 5.15669 0.749236 0.103396 0.25
398 7.5186 1.50213 8.16914 0.25
399 3.17368 4.34677 3.19176 0.25
400 4.8695 4.55968 0.720629 0.25
401 2.2032 7.10247 3.6881 0.25
402 8.21723 7.97699 6.84033 0.25
403 7.65661 6.25432 0.744543 0.25
404 8.07287 6.73178 7.02666 0.25
405 0.570361 7.61163 0.0793135 0.25
406 5.33729 0.0554867 4.28825 0.25
407 2.48781 1.06197 8.04321 0.5
408 5.48733 3.3391 2.26965 0.25
409 2.17983 4.97293 1.3494 0.25
410 7.5581 0.922119 0.186758 0.5
411 4.51308 5.56007 5.13654 0.25
412 8.25644 7.15476 6.84143 0.25
413 1.29075 1.54583 0.114582 0.25
414 0.55917 3.11262 7.77785 0.5
415 6.50416 4.61437 2.97929 0.25
416 3.05129 3.19772 6.4771 0.25
417 3.44808 4.71047 3.85257 0.5
418 7.05305 6.6596 4.2955 0.25
419 4.14521 3.89781 5.85885 0.25
420 0.806135 3.17523 4.7326 0.25
421 4.24106 4.90488 5.70375 0.25
422 2.2917 5.45442 1.30738 0.25
423 0.281237 0.480662 5.87449 0.25
424 0.460553 3.51478 4.60874 0.25
425 1.88 2.83502 1.39506 0.5
426 6.98548 5.65427 5.05205 0.5
427 2.72287 2.22697 4.34605 0.25
428 4.07949 5.13847 3.91741 0.25
429 4.63453 4.57191 5.60385 0.25
430 1.7641 7.26805 3.49022 0.25
431 1.07919 3.49082 6.89056 0.25
432 1.66334 6.76515 4.09904 0.5
433 2.41112 1.68971 7.56108 0.25
434 0.899161 6.5729 1.14907 0.25
435 5.62443 3.5016 2.77753 0.25
436 0.90094 5.98454 3.00021 0.25
437 0.274811 1.23122 0.346926 0.25
438 0.968337 3.48922 5.11999 0.25
439 3.73531 2.76558 6.62729 0.25
440 5.14458 1.75949 7.6645 0.25
441 7.86131 4.1898 5.27179 0.25
442 2.50363 5.89175 1.55302 0.25
443 0.475846 2.96416 6.84561 0.5
444 2.10486 3.54846 1.55856 0.25
445 5.53603 7.07272 0.661037 0.25
446 4.2733 5.84564 3.56642 0.5
447 1.38064 1.47682 5.90847 0.25
448 5.84209 7.40773 6.00326 0.25
449 0.955535 5.52066 5.9323 0.25
450 3.0525 3.61057 1.05681 0.25
451 2.6269 6.91045 5.41189 0.25
452 2.43332 0.998988 0.402768 0.25
453 4.61853 4.72697 1.1175 0.25
454 0.224741 3.52743 7.25033 0.25
455 7.89424 5.19459 7.90808 0.25
456 3.05512 1.90131 4.29657 0.25
457 2.58915 3.85517 7.20961 0.5
458 0.0971794 7.58104 6.69196 0.25
459 5.03965 7.64134 0.0255039 0.25
460 5.5633 0.172437 4.76932 0.25
461 2.60359 3.64816 1.40674 0.25
462 6.26469 4.98573 3.24908 0.25
463 5.08277 7.3803 2.85867 0.25
464 7.57329 6.79695 6.98606 0.25
465 7.01105 2.52319 5.44958 0.25
466 3.97049 1.3366 3.02728 0.25
467 3.97091 6.25028 1.82412 0.25
468 6.85036 5.31186 3.0336 0.5
469 7.50591 7.28554 6.81479 0.25
470 0.781547 1.42097 0.14497 0.25
471 1.95563 0.881546 6.11964 0.25
472 1.91379 7.48869 1.96475 0.25
473 7.48336 5.05052 5.5517 0.25
474 5.31129 5.8434 5.9525 0.25
475 1.36017 1.34935 2.80328 0.25
476 7.13163 0.901766 7.44647 0.25
477 3.26683 5.42642 3.78381 0.25
478 6.2565 3.37688 6.99759 0.25
479 3.49275 7.25549 7.52 0.25
480 4.71208 0.310956 1.90885 0.25
481 7.83433 2.04464 4.16619 0.25
482 7.04319 5.03894 4.67068 0.25
483 8.10524 5.60001 5.09971 0.25
484 2.78057 8.30643 0.0629631 0.25
485 7.96912 7.5356 6.70318 0.25
486 2.49837 6.11396 5.98226 0.25
487 8.19843 7.61683 4.36992 0.25
488 4.55951 4.18117 5.95404 0.25
489 0.808865 8.0785 0.10393 0.25
490 8.1107 8.00252 2.07058 0.25
491 4.46967 2.95403 1.58482 0.25
492 2.59567 1.80651 4.51255 0.25
493 6.37485 4.60157 6.99501 0.25
494 4.76148 7.57705 2.51051 0.25
495 1.1679 5.97714 5.8838 0.25
496 2.99851 7.60898 4.84038 0.25
497 6.46437 4.29418 7.80923 0.25
498 3.31165 2.94824 4.13211 0.25
499 0.748886 5.16598 7.67237 0.25
500 3.98558 3.03626 6.32772 0.25
501 5.77596 3.67067 3.68253 0.25
502 1.75766 8.02515 7.71044 0.25
503 5.91548 4.94349 2.56228 0.5
504 7.83507 7.6582 2.20925 0.25
505 5.85632 1.55141 2.4694 0.25
506 7.04522 6.31205 4.62547 0.25
507 1.30302 0.499187 3.12775 0.25
508 0.647389 8.32391 5.33308 0.25
509 8.07044 4.87872 5.14047 0.5
510 4.97933 1.67655 5.74276 0.25
511 0.601999 0.380024 5.50897 0.25
512 1.04597 0.889269 3.31378 0.25
513 3.94603 1.14068 5.42498 0.25
514 1.86502 5.66407 6.18721 0.25
515 1.04837 7.84324 6.59695 0.25
516 7.42031 1.72377 6.04594 0.25
517 7.30894 5.4495 4.43521 0.25
518 0.958291 3.7139 4.65956 0.25
519 6.21516 1.83565 1.3561 0.25
520 7.19228 1.96157 6.44396 0.25
521 7.82349 1.63005 0.174581 0.25
522 6.82934 1.25173 7.692 0.25
523 5.22078 6.80912 5.76698 0.25
524 2.78025 0.466155 7.63105 0.25
525 6.42381 4.1877 7.28274 0.25
526 7.03811 5.29861 6.94841 0.25
527 7.43354 7.84681 4.11337 0.25
528 7.59048 1.34866 6.36423 0.25
529 6.56547 1.08983 2.65328 0.25
530 2.06595 1.73124 6.35232 0.25
531 7.92226 7.82635 3.96535 0.25
532 1.47798 0.969662 3.04671 0.25
533 7.32044 1.16474 7.79872 0.25
534 8.17958 5.95986 1.22371 0.25
535 0.251605 3.18872 5.33951 0.5
536 6.906 2.7308 5.94547 0.25
537 4.01153 0.870369 5.88451 0.25
538 6.49906 5.14959 4.66083 0.25
539 2.29117 1.27231 6.2178 0.25
540 8.18266 6.44216 1.82596 0.5
541 7.5634 3.9826 1.75619 0.25
542 2.31908 2.14536 7.79029 0.25
543 3.39866 7.38314 7.06925 0.25
544 7.79833 6.53598 6.66929 0.25
545 1.22867 6.06484 3.99569 0.25
546 4.95355 5.83016 6.31861 0.25
547 5.09353 2.89477 8.30211 0.25
548 6.16075 7.39796 6.69575 0.25
549 0.291269 7.84703 7.04335 0.25
550 6.27092 7.028 8.31434 0.25
551 4.28485 1.47041 2.62775 0.25
552 3.71267 5.48726 3.99848 0.25
553 6.80711 7.89934 3.71274 0.5
554 4.4446 6.40413 3.08923 0.25
555 4.87142 6.76294 3.61652 0.5
556 7.44847 0.664912 0.888195 0.25
557 7.19744 4.91061 3.86777 0.5
558 6.36428 0.174891 3.70003 0.25
559 1.28829 0.449246 5.46174 0.5
560 4.95011 3.44613 2.22513 0.25
561 2.85657 3.15607 4.12406 0.25
562 5.08454 0.0626759 5.42825 0.25
563 2.27319 6.63513 1.54804 0.25
564 6.27702 6.98725 0.714016 0.5
565 6.74565 1.65539 6.57139 0.25
566 1.15494 1.67871 2.48376 0.25
567 4.50096 5.81463 6.08891 0.25
568 5.73963 1.21299 2.81127 0.25
569 2.55975 8.31454 7.99747 0.25
570 1.82969 6.3069 4.66172 0.25
571 3.17271 4.26579 7.34169 0.25
572 7.97171 2.69276 3.89418 0.5
573 3.8712 1.7145 2.69899 0.25
574 1.55207 6.04015 6.25998 0.25
575 2.18305 1.7 8.06033 0.25
576 4.20314 5.60362 7.67042 0.25
577 5.15979 0.278899 5.01174 0.25
578 1.92814 7.44554 3.92293 0.25
579 7.49491 5.30158 7.65266 0.25
580 7.13514 0.0507663 4.5546 0.5
581 4.44643 4.61986 6.06353 0.25
582 5.78215 2.99532 4.42216 0.25
583 5.51731 3.61993 4.65494 0.5
584 4.81538 6.52761 5.85772 0.25
585 4.74818 3.2272 1.27075 0.25
586 1.83648 0.347273 2.66721 0.5
587 4.88992 7.05389 2.58117 0.25
588 5.80703 5.18415 3.32654 0.25
589 0.127198 2.61552 7.46759 0.25
590 3.57723 6.5137 1.98576 0.25
591 6.6919 1.3314 0.868033 0.25
592 7.42696 7.15817 1.68017 0.5
593 6.7583 6.78914 1.42715 0.25
594 1.44172 4.91416 0.389681 0.5
595 0.64814 3.84515 8.00656 0.25
596 2.0184 0.925847 0.695238 0.25
597 8.32968 0.202823 5.20476 0.5
598 2.5646 6.29459 1.34011 0.25
599 2.12713 8.32115 7.89754 0.25
600 7.67953 0.583078 5.34869 0.25
601 0.553666 0.743212 5.22567 0.25
602 3.93995 0.253072 2.17938 0.25
603 4.28967 5.55725 8.13336 0.25
604 7.49307 5.22662 7.14772 0.25
605 7.84323 2.01993 3.66769 0.25
606 2.10964 8.17691 2.20591 0.25
607 4.52087 5.2498 7.85347 0.25
608 3.67147 7.70271 7.39441 0.25
609 6.6936 4.81133 4.37016 0.25
610 1.76147 1.53347 5.62595 0.25
611 3.14585 0.683276 7.93657 0.25
612 1.01323 7.33459 8.36031 0.25
613 7.03421 1.33311 8.18579 0.25
614 4.6865 0.946063 5.06715 0.25
615 4.82508 2.59215 3.55435 0.25
616 1.01031 5.5337 3.16657 0.25
617 1.30804 8.17276 2.42985 0.25
618 7.57515 7.1789 4.24286 0.5
619 7.77937 7.95895 4.41907 0.25
620 8.37459 7.28121 2.29824 0.5
621 4.23728 6.44159 3.901 0.25
622 6.20687 6.6966 6.17035 0.25
623 5.89094 6.38915 0.97696 0.25
624 1.01643 3.30105 5.54897 0.25
625 1.3186 5.33867 8.1416 0.25
626 3.59343 0.442738 1.33014 0.25
627 4.94209 4.69717 1.95636 0.25
628 8.20077 3.52221 2.51519 0.5
629 7.21476 3.26063 0.338493 0.25
630 1.46958 0.0610008 3.20106 0.25
631 1.93405 1.45626 7.73468 0.25
632 7.62426 7.90674 1.83205 0.25
633 6.20266 7.7478 0.569265 0.25
634 2.95133 7.73598 4.01637 0.25
635 0.714524 7.15031 0.699188 0.5
636 1.63402 1.66211 1.08694 0.25
637 5.55538 0.204909 5.31099 0.25
638 4.81493 1.32928 5.41508 0.25
639 4.43011 1.84876 8.32035 0.25
640 5.26319 7.52251 0.487861 0.25
641 1.37836 6.54751 5.35665 0.25
642 3.62501 0.815167 5.58674 0.25
643 6.16581 7.04269 5.78865 0.25
644 5.68767 0.727383 2.5709 0.25
645 2.17036 2.20812 1.44914 0.25
646 8.23976 6.71722 6.57294 0.25
647 2.3744 3.01519 4.16788 0.25
648 5.15136 1.26788 0.0994947 0.25
649 0.452559 4.06093 1.89248 0.25
650 8.25032 3.69445 1.40224 0.25
651 3.15668 3.20504 3.72613 0.25
652 6.75956 1.05745 7.1918 0.25
653 1.36165 6.61092 0.962004 0.25
654 0.377389 2.53425 8.28184 0.25
655 3.60966 3.69874 6.33576 0.5
656 0.677474 3.56419 7.14752 0.25
657 1.42198 5.55613 6.04053 0.25
658 6.76759 0.151358 3.44305 0.25
659 2.69127 1.83961 7.95392 0.25
660 6.93852 5.92405 3.96806 0.5
661 8.34081 1.01608 8.33856 0.25
662 3.99668 4.78665 4.26064 0.25
663 2.48568 3.6089 1.8482 0.25
664 6.50763 2.50114 4.80078 0.25
665 7.78957 3.83298 1.3426 0.25
666 6.03837 6.86265 6.5667 0.25
667 6.7844 3.37845 0.051517 0.25
668 7.05247 6.53243 1.7909 0.25
669 5.88629 4.80658 7.13785 0.25
670 5.45303 8.0522 4.60485 0.25
671 3.55743 4.86808 4.53635 0.25
672 2.63834 3.16096 2.02278 0.25
673 0.660216 1.22521 3.17609 0.25
674 4.98602 7.42232 3.33192 0.25
675 5.2817 3.558 5.35026 0.25
676 7.68626 8.13012 2.27496 0.25
677 6.30627 1.38819 1.24346 0.25
678 7.47637 6.28711 4.86771 0.25
679 1.30809 6.48793 1.43456 0.25
680 3.79478 6.69279 8.11416 0.25
681 7.6695 8.28268 4.09651 0.25
682 2.20982 6.16711 1.75655 0.25
683 1.75639 7.77053 7.28432 0.25
684 0.378918 3.68854 1.57522 0.25
685 2.77041 3.5697 6.40607 0.25
686 4.19183 2.86819 6.74466 0.25
687 1.65074 4.45786 0.923796 0.25
688 3.48794 0.733425 6.00361 0.25
689 6.11853 3.993 8.15308 0.25
690 6.08908 1.02182 2.47334 0.25
691 7.05153 1.35582 1.55723 0.25
692 5.13089 5.16874 1.87946 0.25
693 7.65783 1.86218 6.46663 0.25
694 7.40446 5.10097 5.04579 0.25
695 0.132482 3.06695 6.0944 0.25
696 5.64035 6.04178 3.43322 0.5
697 4.35013 3.8339 6.30744 0.25
698 1.76965 1.06786 5.30959 0.25
699 1.53458 6.62724 4.86975 0.25
700 4.25899 5.8445 1.11633 0.25
701 4.86247 1.80908 7.99426 0.25
702 2.33084 4.43371 7.43866 0.25
703 3.42564 6.58781 7.40371 0.5
704 4.63409 5.31786 0.00802102 0.25
705 4.86544 3.21914 1.77127 0.25
706 5.134 0.209339 8.35061 0.25
707 4.5963 3.95442 1.11505 0.5
708 5.7499 7.64237 7.85413 0.25
709 2.62059 7.19412 2.0083 0.5
710 2.52041 4.62482 6.96904 0.25
711 5.24632 6.4665 3.00895 0.25
712 0.539214 5.14289 8.10848 0.25
713 2.76847 3.95865 1.80682 0.25
714 5.18839 4.20192 0.732875 0.25
715 4.79852 6.59813 2.8327 0.25
716 6.65579 0.864314 7.59104 0.25
717 7.57371 7.62927 3.66595 0.25
718 6.23927 3.68356 6.57822 0.25
719 6.02087 4.48696 7.93209 0.25
720 1.7307 7.50718 4.31789 0.25
721 6.66517 1.99225 2.32646 0.25
722 2.40325 7.74927 3.42023 0.5
723 2.47188 7.59651 2.7134 0.25
724 7.09876 6.47057 1.34043 0.25
725 7.77151 6.35119 7.1395 0.25
726 0.8896 1.10788 5.33928 0.25
727 4.05289 0.283749 1.36836 0.25
728 3.72693 6.19836 8.05283 0.25
729 4.99607 6.04806 3.70048 0.25
730 3.0169 7.15965 7.27787 0.25
731 5.47815 3.01208 2.62897 0.25
732 4.20218 3.71629 6.80929 0.25
733 3.72734 5.54091 7.63192 0.25
734 3.87334 1.19288 2.5435 0.25
735 3.46977 2.99449 6.29707 0.25
736 8.01134 1.35921 8.20194 0.25
737 3.38533 0.548355 0.912023 0.25
738 0.261606 8.03884 0.103268 0.25
739 4.8985 6.21088 3.19778 0.25
740 5.44805 7.27388 3.20055 0.25
741 0.598375 7.9601 0.51662 0.25
742 3.9134 4.68665 6.01671 0.25
743 7.23485 0.942545 1.28996 0.25
744 4.28969 1.04234 2.31551 0.25
745 3.76882 4.2236 5.8206 0.25
746 1.27022 5.91701 4.8033 0.5
747 4.31805 0.529465 2.13355 0.25
748 2.7873 6.74777 7.09272 0.25
749 1.45046 1.39493 2.28943 0.25
750 8.33137 3.37687 1.76835 0.25
751 0.942695 0.762425 4.89335 0.25
752 6.39013 4.84043 7.83492 0.25
753 3.80351 0.896649 1.81087 0.5
754 4.38674 6.01495 1.57378 0.25
755 2.83726 2.55608 1.45673 0.5
756 7.85143 6.81851 7.42668 0.25
757 5.64757 7.0371 5.70152 0.25
758 6.90097 4.02011 7.29878 0.25
759 4.09354 8.224 5.1989 0.25
760 0.219802 2.56504 3.33187 0.25
761 3.85686 7.28132 7.15966 0.25
762 0.616104 1.88112 3.42007 0.5
763 3.95496 8.13751 2.02196 0.25
764 1.3932 6.26426 0.638756 0.25
765 7.47038 4.86201 3.19196 0.25
766 0.567463 4.33527 2.34179 0.25
767 2.71132 6.92646 7.5207 0.25
768 2.22169 3.01966 5.10761 0.25
769 7.90198 3.64076 1.76456 0.25
770 4.92159 1.03296 8.08491 0.25
771 6.6195 1.3454 6.24042 0.25
772 4.76519 2.52598 8.05117 0.25
773 5.43816 0.921821 5.01042 0.5
774 3.6305 8.19068 4.99131 0.25
775 7.94514 4.3934 2.81106 0.5
776 7.00082 3.90196 0.574154 0.5
777 6.06419 6.53975 0.180446 0.25
778 4.86923 8.14653 0.101864 0.25
779 8.20327 8.11943 4.24715 0.25
780 2.17958 1.63196 5.87912 0.25
781 2.58326 1.68694 0.0219537 0.25
782 1.26031 7.62621 0.673038 0.25
783 6.81465 3.10687 0.486464 0.25
784 2.14502 7.73016 2.33966 0.25
785 2.54652 1.67586 6.27656 0.25
786 2.55775 7.929 2.29457 0.25
787 7.82424 6.98946 6.64033 0.25
788 0.0822227 4.20316 2.22274 0.25
789 3.58038 8.08097 4.47131 0.25
790 7.10013 0.787009 6.91154 0.25
791 0.667424 4.5794 3.14721 0.5
792 2.35671 0.37146 7.87596 0.25
793 8.19961 7.15323 1.53379 0.25
794 5.41853 6.47031 6.31314 0.5
795 2.39394 4.26984 3.18085 0.25
796 2.1914 5.77756 5.79824 0.25
797 6.71429 6.4829 1.03621 0.25
798 7.64963 4.28335 1.38467 0.25
799 4.22087 3.40667 6.02828 0.25
800 7.89724 2.02933 3.17537 0.25
801 3.27463 7.87111 7.09086 0.25
802 3.35311 5.25097 4.28329 0.25
803 3.25508 8.2507 7.78178 0.5
804 3.73275 6.9479 1.85517 0.25
805 1.6888 7.90124 2.11354 0.25
806 2.63318 1.83039 4.00798 0.25
807 4.68019 6.26408 5.47202 0.25
808 4.15556 1.97975 7.59537 0.25
809 1.70215 5.91672 5.83855 0.25
810 6.43471 7.6435 6.33049 0.25
811 1.56323 3.29737 4.88663 0.5
812 5.78242 7.52401 0.56796 0.25
813 4.19849 1.82443 3.01714 0.25
814 1.65758 7.54938 7.67437 0.25
815 2.77059 7.88989 4.4978 0.25
816 0.990346 2.98662 5.20917 0.25
817 4.37699 1.70982 7.90068 0.25
818 3.68522 1.69303 3.1908 0.25
819 1.80584 5.30959 1.42924 0.25
820 3.41903 3.10674 6.82263 0.25
821 1.57708 2.08484 8.00139 0.5
822 5.91446 4.3737 3.42672 0.5
823 5.22115 0.56812 7.99191 0.25
824 0.701957 0.349647 4.9967 0.25
825 3.86818 6.0307 7.62991 0.25
826 3.26601 3.43115 1.70973 0.5
827 5.73261 7.25063 6.46731 0.25
828 0.219431 2.05735 7.55011 0.25
829 8.21829 7.98484 4.72864 0.25
830 0.882933 1.99489 2.67438 0.25
831 2.39841 4.204 7.89294 0.25
832 5.81114 4.6063 1.94818 0.25
833 1.83515 1.36825 6.08582 0.25
834 4.02704 0.673899 2.50616 0.25
835 6.44448 1.74949 0.891854 0.25
836 3.4978 7.54756 7.83838 0.25
837 3.99959 5.27165 7.96197 0.25
838 7.75565 0.875543 1.26143 0.25
839 5.93037 7.71299 6.36551 0.25
840 6.985 4.73018 7.41041 0.5
841 3.26553 6.93379 2.12447 0.25
842 0.113494 2.13201 2.73285 0.5
843 5.75583 3.69931 5.39722 0.25
844 4.41853 2.35134 0.0020611 0.25
845 7.38078 2.5729 5.12872 0.25
846 3.67146 3.64544 7.29829 0.5
847 1.97783 5.23764 0.927104 0.25
848 1.83597 5.69431 5.3894 0.25
849 5.17376 7.84084 2.67519 0.25
850 6.286 2.72812 5.40356 0.5
851 5.37239 8.19711 5.06324 0.25
852 7.14093 1.66008 7.8597 0.25
853 4.00831 8.26264 4.69327 0.25
854 4.24172 1.56526 5.94943 0.5
855 0.273116 3.95955 5.32818 0.25
856 0.632338 5.25678 3.32232 0.25
857 3.74059 6.62917 1.5223 0.25
858 2.73252 4.7533 3.77177 0.25
859 6.53335 4.54881 3.93234 0.25
860 7.67301 4.04924 0.907675 0.25
861 4.69984 2.98256 7.96111 0.25
862 6.58591 4.72166 3.48736 0.25
863 5.25937 6.61626 0.477493 0.25
864 7.76863 6.83748 2.3689 0.25
865 3.85395 5.71276 8.04873 0.25
866 5.12984 8.2317 3.00204 0.25
867 1.99746 4.02706 7.63877 0.25
868 2.03804 1.71068 0.462951 0.5
869 1.05418 3.23309 7.2807 0.25
870 6.14107 5.50271 3.11425 0.25
871 2.86049 7.52478 7.00631 0.25
872 5.76508 2.97698 4.95484 0.25
873 0.558404 7.96814 8.05369 0.25
874 3.74749 1.10268 6.23652 0.25
875 2.17918 4.23074 1.43 0.5
876 1.34887 5.62856 5.55003 0.25
877 0.0361087 5.20152 7.96371 0.25
878 5.69775 1.15642 2.24643 0.25
879 3.17474 8.10862 4.72536 0.25
880 6.33828 5.93499 3.00516 0.25
881 7.54788 1.33371 1.37617 0.25
882 7.85117 7.22617 7.13973 0.25
883 0.37983 3.85676 2.3008 0.25
884 7.20761 3.18095 0.842343 0.25
885 0.669933 4.20276 5.24586 0.25
886 7.78908 7.24225 3.5152 0.25
887 1.19559 6.99087 1.28044 0.25
888 1.24815 4.73875 3.56256 0.25
889 1.3863 8.09428 2.95134 0.25
890 0.216839 4.62834 2.52609 0.25
891 1.12992 2.22853 7.38656 0.25
892 7.53217 3.53712 1.04276 0.25
893 1.08898 8.10152 0.552761 0.25
894 3.96088 5.87695 1.50001 0.25
895 3.83211 6.02214 0.992492 0.25
896 1.80963 1.41258 8.27986 0.25
897 8.05121 4.09529 1.63936 0.25
898 0.92569 4.59493 3.90072 0.25
899 0.875257 8.35688 5.77029 0.25
900 5.20356 6.31087 5.7259 0.25
901 0.852424 1.52846 2.85286 0.25
902 7.30846 3.9185 1.29238 0.25
903 5.80346 3.65011 3.20805 0.25
904 6.95354 4.11019 7.79702 0.25
905 5.26072 0.880061 5.84058 0.25
906 1.95232 1.05978 0.205665 0.25