ITEM: TIMESTEP
550000
ITEM: NUMBER OF ATOMS
1000
ITEM: BOX BOUNDS xy xz yz pp pp pp
0.0000000000000000e+00 8.3788359999999997e+00 0.0000000000000000e+00
0.0000000000000000e+00 8.3788359999999997e+00 0.0000000000000000e+00
0.0000000000000000e+00 8.3788359999999997e+00 0.0000000000000000e+00
ITEM: ATOMS id x y z radius
1 2.62994 7.01819 5.06774 0.25
2 4.62142 4.8719 5.44823 0.25
3 7.05339 4.55508 3.18559 0.25
4 7.30685 1.0585 5.82896 0.5
5 1.05942 5.73115 6.26405 0.25
6 8.34472 1.83145 3.50624 0.25
7 4.18407 3.32729 6.64375 0.25
8 4.76955 7.73556 2.88221 0.25
9 0.970194 6.08298 3.66392 0.25
10 4.14674 1.5931 3.50708 0.25
11 5.29611 0.0655581 7.8734 0.25
12 5.37794 3.49887 1.45316 0.25
13 0.549834 2.50345 7.57552 0.25
14 3.62321 2.54992 7.08471 0.25
15 0.0900872 2.74478 6.04983 0.25
16 7.32311 0.961288 6.59064 0.25
17 0.888082 5.52021 8.05936 0.25
18 5.84108 7.37258 8.10092 0.25
19 4.37918 1.83523 7.71381 0.25
20 7.55519 1.266 0.60528 0.25
21 5.12945 4.28201 1.89854 0.25
22 4.17659 3.27193 1.06259 0.25
23 2.25784 3.38477 1.98079 0.25
24 2.69192 1.88062 4.63822 0.25
25 2.77606 4.39183 2.99336 0.25
26 0.257596 0.145968 5.70098 0.25
27 3.91124 0.369535 5.8021 0.25
28 4.22039 2.13217 0.14228 0.25
29 5.15895 6.97454 2.97775 0.25
30 7.51922 7.41508 2.37971 0.25
31 2.68708 0.376647 8.19091 0.25
32 0.938273 2.80316 7.5004 0.25
33 7.65499 0.611605 5.28389 0.25
34 2.14367 5.18634 1.33479 0.25
35 8.09627 0.158487 4.47215 0.25
36 6.78297 2.08077 5.8653 0.5
37 4.4476 1.35874 2.37647 0.25
38 2.14714 3.36782 4.35176 0.25
39 6.08462 2.76193 4.91455 0.25
40 5.19582 7.7894 3.13241 0.25
41 6.79532 2.26268 2.64721 0.25
42 5.50229 5.83594 5.88684 0.25
43 3.36442 7.75792 4.98099 0.25
44 3.69733 0.0248204 5.44463 0.25
45 5.28668 4.06944 4.06603 0.25
46 3.27557 6.00828 1.43248 0.5
47 5.04324 0.780315 5.48845 0.25
48 7.99705 6.39215 6.81443 0.25
49 7.40097 6.75705 4.63002 0.25
50 7.61819 0.990263 1.01899 0.25
51 2.68747 3.34076 4.44292 0.25
52 0.774276 1.68663 2.42144 0.25
53 6.50236 5.07687 6.89567 0.25
54 5.85414 3.32578 4.12194 0.25
55 1.37012 1.5105 5.98782 0.25
56 1.15156 7.23986 0.09346 0.25
57 4.62461 0.930265 2.10337 0.25
58 2.25799 1.90062 3.94827 0.25
59 4.86074 1.10778 6.36156 0.25
60 7.78041 5.51159 5.27012 0.25
61 4.94222 8.23533 8.22149 0.25
62 5.30429 2.09428 8.16559 0.5
63 7.5678 6.67448 1.01021 0.25
64 1.13272 6.03471 1.11558 0.25
65 4.21073 0.251257 1.78283 0.25
66 2.37571 4.83206 7.18982 0.25
67 7.94394 5.06834 7.05436 0.25
68 7.00292 0.626897 6.38118 0.25
69 0.250825 5.61329 7.52368 0.25
70 2.02418 4.71259 0.725992 0.25
71 7.98888 1.27535 0.308185 0.25
72 6.54921 6.24103 3.3421 0.25
73 0.473374 7.73286 6.79989 0.25
74 7.35272 5.67045 6.87069 0.25
75 7.28453 0.035608 3.48184 0.25
76 7.56493 6.47062 4.22963 0.25
77 5.54389 2.9911 5.4725 0.25
78 5.51639 3.87578 1.12758 0.25
79 7.59697 5.05608 4.51787 0.25
80 5.77338 3.45101 5.4515 0.25
81 7.05485 1.45567 1.32359 0.25
82 0.181468 3.13357 6.27536 0.25
83 4.37494 5.797 5.36039 0.25
84 1.06175 1.10907 5.99004 0.25
85 1.63315 0.914655 5.25732 0.25
86 4.59072 8.30705 5.40178 0.25
87 1.67726 1.64665 1.27857 0.25
88 3.31278 6.77734 1.63098 0.25
89 6.74235 7.0647 0.644787 0.25
90 5.6466 6.12428 5.53125 0.25
91 3.91394 4.1843 6.35801 0.25
92 6.15787 4.6091 7.53245 0.25
93 5.25812 6.2328 5.12246 0.25
94 6.94134 8.1687 4.20614 0.25
95 0.257467 4.60031 7.80448 0.5
96 5.425 3.11955 3.49953 0.5
97 4.1181 5.03807 8.06164 0.25
98 8.16244 2.31043 3.44126 0.25
99 1.55704 6.40983 5.9674 0.25
100 7.10159 6.98141 1.03809 0.25
101 0.734027 7.70152 8.19185 0.25
102 7.84447 4.71306 3.34893 0.25
103 6.62309 1.44953 1.51783 0.25
104 0.824005 4.79736 7.34862 0.25
105 5.14516 5.45802 5.35779 0.5
106 5.2836 0.218292 4.56121 0.25
107 4.42615 3.12555 7.00203 0.25
108 4.81455 1.46179 8.36561 0.25
109 0.635615 0.815766 5.98869 0.25
110 2.11149 7.94757 8.20519 0.25
111 3.20802 3.81613 7.23901 0.25
112 4.52277 2.15749 8.13864 0.25
113 1.78482 1.90838 1.99262 0.5
114 1.73756 3.65045 7.34365 0.25
115 4.48266 6.40059 5.90031 0.25
116 2.50084 7.21746 7.03089 0.25
117 4.19053 2.32257 3.80849 0.5
118 6.62276 7.16866 1.10422 0.25
119 1.12024 6.24997 3.18868 0.25
120 0.115067 2.69289 2.3757 0.25
121 3.24494 3.96206 3.54765 0.25
122 6.59374 0.846558 6.14281 0.25
123 5.38554 0.391451 5.5054 0.25
124 8.03515 8.12194 2.46125 0.25
125 3.47195 2.08988 3.86588 0.25
126 3.76637 1.23216 5.82199 0.25
127 5.47156 3.95755 1.65411 0.25
128 6.66297 5.41021 7.23386 0.25
129 1.07064 6.417 4.06427 0.25
130 5.42859 6.2703 0.836309 0.25
131 6.9398 1.58547 6.33577 0.25
132 5.97174 4.18428 7.71717 0.25
133 3.28577 1.88163 3.42809 0.25
134 4.25806 2.50491 8.16968 0.25
135 5.48444 3.89703 3.59562 0.25
136 2.81479 2.44018 3.77067 0.5
137 2.94443 3.91437 3.1435 0.25
138 7.42284 7.98289 2.85665 0.5
139 2.45568 8.15607 4.85855 0.25
140 5.10479 7.95441 7.87252 0.25
141 7.86813 5.90149 4.88798 0.25
142 1.20715 4.96327 3.29983 0.25
143 2.24482 2.04562 8.3349 0.25
144 5.0626 1.09385 2.71061 0.5
145 7.38497 2.00434 4.00126 0.25
146 5.927 7.43834 0.193221 0.25
147 6.5881 5.64335 4.4381 0.25
148 2.24849 3.00475 4.59362 0.25
149 4.51974 8.2173 2.35954 0.5
150 5.16302 2.84521 4.13482 0.25
151 3.52828 5.93337 7.1366 0.25
152 3.44657 4.57017 5.77366 0.25
153 6.77891 6.10853 2.19226 0.5
154 7.26187 2.5042 4.62045 0.5
155 2.96935 7.26496 7.67351 0.25
156 7.52266 3.69844 1.51363 0.25
157 7.68543 5.98368 1.48731 0.25
158 2.46648 3.39747 0.763911 0.25
159 7.1827 7.82668 4.40403 0.25
160 6.47208 2.0931 3.01447 0.25
161 1.17062 5.09095 2.82561 0.25
162 5.8522 4.33651 7.25725 0.25
163 3.38788 3.65046 4.28106 0.5
164 2.60321 3.77627 2.51483 0.5
165 5.48314 8.00088 7.59873 0.25
166 0.00668702 3.81819 8.00261 0.25
167 6.66225 4.16237 8.2281 0.25
168 4.70305 6.01985 5.70083 0.25
169 3.91784 4.35619 5.83971 0.25
170 8.20147 2.83278 6.4389 0.25
171 7.8161 5.90465 0.984095 0.25
172 1.09965 3.02389 7.01829 0.25
173 4.35123 6.29868 5.41286 0.25
174 2.34006 2.19828 1.06638 0.25
175 7.71542 2.46994 5.99649 0.5
176 2.3643 5.74548 6.10026 0.25
177 5.53264 3.66608 4.0089 0.25
178 3.15766 6.50871 1.96512 0.25
179 3.53013 2.30474 3.42176 0.25
180 5.89703 6.23172 5.96172 0.25
181 6.60743 4.16947 6.93113 0.25
182 3.26751 5.16243 3.30476 0.25
183 8.05611 7.59681 1.76556 0.25
184 3.75857 5.31761 8.1514 0.25
185 5.79218 6.75477 6.08267 0.25
186 7.60424 6.02381 4.42813 0.25
187 3.23709 5.18359 4.13038 0.25
188 0.892848 5.8129 3.19944 0.25
189 4.25022 6.5694 3.30184 0.25
190 4.30417 3.2847 1.5463 0.25
191 6.90669 1.59734 0.53403 0.5
192 0.873588 5.13979 7.70073 0.25
193 4.07066 5.39083 0.977913 0.25
194 2.68951 6.3209 2.00254 0.25
195 6.28984 5.71132 2.65796 0.25
196 2.38048 8.0196 2.6849 0.25
197 1.21791 8.2072 2.33286 0.25
198 7.64806 4.78493 7.28885 0.25
199 1.15065 1.0234 3.11708 0.25
200 4.5707 5.25387 1.52439 0.5
201 6.52353 1.64393 3.25711 0.25
202 8.2581 3.76819 5.39794 0.25
203 3.65953 1.67069 3.74733 0.25
204 5.7453 8.08152 8.31245 0.5
205 2.41716 7.44849 4.50321 0.5
206 0.319741 4.42506 5.21722 0.25
207 5.6849 2.79238 4.16477 0.25
208 6.94486 5.4063 4.2812 0.25
209 5.27782 7.06338 0.0577213 0.5
210 1.96605 7.94428 2.88651 0.25
211 0.652624 3.74894 5.04062 0.25
212 1.36167 7.98589 8.27568 0.5
213 0.261992 4.11217 2.69891 0.25
214 1.98585 7.95957 2.40422 0.25
215 2.97862 4.16938 3.89702 0.25
216 6.35275 2.01654 2.51241 0.25
217 5.12448 3.73749 1.87564 0.25
218 2.37685 3.38577 4.82498 0.25
219 4.29224 1.15871 2.85976 0.25
220 3.71719 3.47161 1.04316 0.25
221 4.14437 8.3097 5.6269 0.25
222 7.35007 0.958717 5.1082 0.25
223 8.14285 2.74216 2.68316 0.25
224 7.18212 5.50151 7.30897 0.25
225 7.32071 2.26144 5.38073 0.25
226 4.74935 2.18436 7.68161 0.25
227 6.39274 3.74119 7.12129 0.25
228 5.43503 3.19803 4.30196 0.25
229 5.71088 5.02246 1.81547 0.25
230 0.179435 8.33655 6.40322 0.5
231 5.34571 4.61134 1.28325 0.5
232 1.88836 2.86495 4.29633 0.25
233 4.13751 5.0305 4.12979 0.25
234 6.42424 1.23583 6.48637 0.25
235 3.03425 7.39957 4.91272 0.25
236 0.857605 2.5814 0.0293377 0.25
237 8.21153 3.06322 7.64047 0.25
238 3.59017 1.02889 1.24787 0.25
239 0.262202 2.21798 3.64003 0.25
240 6.72612 6.41828 1.47852 0.25
241 3.41903 7.10719 7.92219 0.25
242 1.91802 7.30351 2.65405 0.5
243 2.96821 4.77164 3.31604 0.25
244 7.16805 3.68765 1.22382 0.25
245 2.02663 1.14355 6.15973 0.25
246 7.63284 8.17826 3.63792 0.25
247 3.48034 2.64362 3.77722 0.25
248 3.8558 3.17274 1.44052 0.25
249 0.0127492 5.18862 7.41093 0.25
250 1.36418 3.76631 5.36728 0.25
251 5.34075 2.6461 4.80234 0.5
252 3.10247 2.03971 4.32196 0.25
253 7.92671 5.73227 7.33737 0.5
254 7.27032 6.00318 7.21555 0.25
255 4.68484 0.380218 5.98745 0.5
256 5.80012 6.17021 0.452074 0.25
257 1.09721 0.260887 2.57801 0.25
258 1.70758 1.60338 2.69043 0.25
259 4.69598 3.03938 1.59455 0.25
260 7.92643 6.3074 1.21646 0.25
261 4.00288 0.0891252 1.33353 0.25
262 3.44671 2.39445 4.20796 0.25
263 2.1 0.256604 0.21593 0.5
264 2.86891 4.28328 3.46898 0.25
265 1.08721 4.01004 7.53225 0.5
266 0.777726 7.75518 7.4263 0.5
267 5.05271 2.62552 7.6276 0.25
268 6.3824 7.75195 0.256164 0.25
269 2.05021 5.54814 0.549682 0.25
270 4.05814 3.65806 1.38428 0.25
271 7.61388 7.86246 4.66164 0.25
272 1.66455 0.90101 2.46051 0.25
273 1.346 3.47093 7.0958 0.25
274 0.761651 5.62758 7.5678 0.25
275 4.69304 4.47914 1.66296 0.25
276 2.45973 3.02624 1.04862 0.25
277 6.63048 0.799598 6.65909 0.25
278 3.94985 6.18045 1.14763 0.25
279 4.19029 0.420434 5.0568 0.5
280 7.96836 8.20016 4.86254 0.25
281 0.944107 6.28988 0.703897 0.25
282 6.13288 7.01236 6.34375 0.25
283 0.886592 8.29833 6.18982 0.25
284 7.45254 4.50022 0.956423 0.25
285 1.89409 5.90362 1.25785 0.5
286 5.52655 6.79457 3.27898 0.25
287 1.57199 7.93772 3.45188 0.5
288 2.61007 7.49409 5.18763 0.25
289 2.17797 7.18397 5.10039 0.25
290 2.21058 3.94499 1.9068 0.25
291 8.11565 7.62439 7.12763 0.25
292 7.70836 2.49171 3.38616 0.25
293 7.51567 4.39177 3.35823 0.25
294 5.7793 3.71671 3.23429 0.25
295 8.2467 4.17228 1.06877 0.25
296 0.458277 4.16812 4.53221 0.5
297 3.93235 2.96388 6.92734 0.25
298 6.28868 5.05994 7.37189 0.25
299 5.97571 5.03442 7.7864 0.25
300 6.47266 3.57669 0.59766 0.25
301 1.086 7.35656 7.98791 0.25
302 0.251516 4.17467 1.45229 0.25
303 4.07761 0.921206 1.22131 0.25
304 2.02507 2.62818 4.78335 0.25
305 0.703107 5.06618 8.1859 0.25
306 2.27827 2.1823 4.70722 0.25
307 1.58603 4.83039 7.44811 0.5
308 3.53537 5.54574 3.0822 0.25
309 4.5142 0.980319 5.5292 0.25
310 1.01076 4.6436 4.14971 0.25
311 7.34799 0.00330759 3.97143 0.25
312 0.928297 0.967445 2.3036 0.5
313 0.90911 3.81098 5.46592 0.25
314 5.32734 3.75517 3.07965 0.25
315 1.2366 5.15213 8.05172 0.25
316 1.79988 4.13667 7.14833 0.25
317 7.47026 2.51649 3.86528 0.25
318 2.25464 2.55609 4.36267 0.25
319 4.9057 7.49004 7.88863 0.25
320 2.05732 6.14235 6.05046 0.25
321 4.54205 0.976148 1.5715 0.25
322 7.19761 6.52335 5.03309 0.25
323 0.819179 6.0429 4.16752 0.25
324 4.05946 7.33387 7.80414 0.5
325 0.869788 1.76797 0.231741 0.25
326 3.85012 4.77606 5.16753 0.5
327 7.6049 7.35651 3.35678 0.25
328 2.47555 7.84042 1.80019 0.25
329 1.34321 5.87176 3.4654 0.25
330 8.13011 7.11668 7.25256 0.25
331 0.920926 5.34528 3.86512 0.5
332 7.43247 6.60469 2.14173 0.25
333 1.16261 1.59035 2.05115 0.25
334 6.86327 1.79332 1.73623 0.25
335 3.42974 3.07576 1.15477 0.25
336 2.92596 7.13926 6.74702 0.25
337 4.39026 7.14853 2.84305 0.5
338 6.3154 7.4842 8.21316 0.25
339 2.09987 7.88344 4.0348 0.25
340 4.92592 0.395085 4.8158 0.25
341 6.81767 8.26071 3.33451 0.25
342 1.01331 5.3021 7.24821 0.25
343 2.72992 1.21962 0.205632 0.25
344 1.49957 5.43012 2.69532 0.25
345 0.505537 1.48943 2.78669 0.25
346 0.420419 2.44088 8.05336 0.25
347 3.38194 5.94939 7.58236 0.25
348 7.33375 7.80115 2.08461 0.25
349 0.703716 2.14828 8.32304 0.25
350 6.71934 1.76339 2.73812 0.25
351 1.49352 7.04843 0.449832 0.25
352 6.3205 3.54752 7.83428 0.5
353 2.37666 0.0466283 7.52565 0.25
354 1.87042 0.655075 6.12656 0.25
355 0.61021 0.299287 5.97993 0.25
356 1.72239 1.8658 5.91441 0.25
357 2.77479 3.8004 6.56819 0.25
358 6.21869 3.56428 5.27139 0.25
359 4.37464 0.921323 6.29057 0.25
360 1.93675 2.08678 1.24612 0.25
361 0.881133 7.55045 0.266982 0.25
362 6.13521 4.11506 6.90519 0.25
363 8.10681 4.01381 2.06765 0.25
364 5.964 3.85008 7.28005 0.25
365 5.35955 6.00016 0.402979 0.25
366 5.08795 6.39452 0.446318 0.25
367 2.99029 4.13833 6.89024 0.25
368 6.85215 3.72452 8.25614 0.25
369 1.32781 6.56088 0.52729 0.25
370 5.53511 0.490635 8.08477 0.25
371 2.34725 8.22822 4.3855 0.25
372 2.44638 4.67848 0.568083 0.25
373 7.05543 2.90889 5.20913 0.25
374 3.55583 4.4328 4.53688 0.25
375 5.29772 0.946504 7.96791 0.25
376 2.62577 5.83129 1.10963 0.25
377 6.34616 1.33971 2.19348 0.5
378 0.385645 3.85474 7.66965 0.25
379 5.05771 1.38929 7.90984 0.25
380 2.25934 6.77629 4.80453 0.25
381 3.96784 5.49223 5.27914 0.25
382 1.83628 6.99608 4.84928 0.25
383 6.30885 5.3162 3.86869 0.5
384 1.24718 1.6388 1.55409 0.25
385 6.89967 1.40729 7.07738 0.5
386 1.38792 1.13707 5.64267 0.25
387 7.3009 0.849159 0.659162 0.25
388 1.01539 5.58112 2.76541 0.25
389 4.29287 2.63182 7.48647 0.5
390 3.96278 0.630115 6.24202 0.25
391 5.43101 4.70139 2.01909 0.25
392 8.19334 2.70069 3.17238 0.25
393 2.8407 6.50544 1.56807 0.25
394 0.632894 8.20163 8.06897 0.25
395 2.19515 1.73306 1.33954 0.25
396 4.64183 7.827 8.09422 0.25
397 5.22816 0.742702 8.3713 0.25
398 7.33855 1.66275 8.26775 0.25
399 3.24716 4.3188 3.18233 0.25
400 4.84987 4.3987 0.74981 0.25
401 2.26568 7.11677 3.73593 0.25
402 8.00783 8.01596 6.91154 0.25
403 7.74812 6.33103 0.705894 0.25
404 7.84259 6.84502 6.98663 0.25
405 0.41237 7.56025 0.163908 0.25
406 5.47383 8.16563 4.34759 0.25
407 2.29105 1.02729 8.03174 0.5
408 5.54441 3.27029 2.363 0.25
409 2.36742 4.9024 1.01993 0.25
410 7.41837 0.937121 8.31201 0.5
411 4.40222 5.30885 5.23451 0.25
412 8.1247 7.25313 6.76119 0.25
413 1.34451 1.59606 0.369639 0.25
414 0.537379 3.16855 7.97541 0.5
415 6.62159 4.6852 2.96286 0.25
416 3.18796 2.99866 6.24702 0.25
417 3.53929 4.6306 3.79316 0.5
418 7.14366 6.72245 4.22117 0.25
419 3.93805 3.83413 6.02622 0.25
420 0.896611 3.07165 4.84528 0.25
421 3.86919 4.84702 5.85494 0.25
422 2.37047 5.43631 0.96754 0.25
423 0.211726 0.564824 5.95315 0.25
424 0.500342 3.37737 4.80197 0.25
425 1.91525 2.78814 1.49551 0.5
426 7.1287 5.73702 4.96353 0.5
427 2.5378 2.1404 4.3147 0.25
428 4.19349 5.00133 3.57508 0.25
429 4.31563 4.63396 5.81169 0.25
430 1.85672 7.16586 3.38879 0.25
431 0.869235 3.47925 6.97786 0.25
432 1.70967 6.76153 4.14834 0.5
433 1.88288 1.62246 7.70091 0.25
434 0.814715 6.41726 1.17378 0.25
435 5.71883 3.41065 2.86917 0.25
436 1.35842 5.88702 2.96565 0.25
437 0.119182 1.12153 0.29114 0.25
438 0.94383 3.42988 5.12444 0.25
439 3.92414 2.48581 6.7223 0.25
440 4.87492 1.70117 7.62815 0.25
441 7.87781 4.0422 5.31663 0.25
442 2.52521 5.55181 1.45505 0.25
443 0.342045 2.9041 7.05717 0.5
444 2.04444 3.56172 1.56016 0.25
445 5.31006 7.31352 0.762104 0.25
446 4.31812 5.7752 3.25718 0.5
447 1.48243 1.61749 5.53249 0.25
448 5.99797 7.08146 5.83389 0.25
449 0.879886 5.62059 5.75971 0.25
450 2.98358 3.22974 0.932572 0.25
451 2.48076 7.12375 5.50825 0.25
452 2.37702 0.9412 0.388703 0.25
453 4.61338 4.57711 1.19399 0.25
454 0.0658409 3.49837 7.52747 0.25
455 7.96165 5.00466 7.58929 0.25
456 3.14858 1.73697 3.92963 0.25
457 2.4707 3.82755 7.33795 0.5
458 8.29509 7.71302 6.68704 0.25
459 5.09335 7.7808 8.32398 0.25
460 5.63966 0.00633653 4.81465 0.25
461 2.64718 3.44926 1.20762 0.25
462 6.34903 5.01801 3.14351 0.25
463 5.15932 7.41665 2.79899 0.25
464 7.34415 6.93522 7.04582 0.25
465 7.13409 2.66336 5.62558 0.25
466 4.04636 1.53194 3.03396 0.25
467 3.98764 6.19332 1.62719 0.25
468 6.89696 5.34869 2.95302 0.5
469 7.37252 7.42814 6.77523 0.25
470 1.21935 1.40101 8.34184 0.25
471 1.52972 1.03162 6.10299 0.25
472 2.0189 7.61678 1.95113 0.25
473 7.47562 5.17362 5.45234 0.25
474 5.0293 5.78303 5.9805 0.25
475 1.40025 1.1911 2.75873 0.25
476 7.28243 0.988018 7.56772 0.25
477 3.44385 5.37021 3.7476 0.25
478 6.07292 3.34579 7.11644 0.25
479 3.37653 7.30399 7.4574 0.25
480 4.85711 0.516093 2.25537 0.25
481 7.80417 2.24041 4.1792 0.25
482 7.16153 5.13537 4.57605 0.25
483 8.18852 5.53715 5.02077 0.25
484 2.76896 0.727538 0.128122 0.25
485 7.79226 7.61474 6.72982 0.25
486 2.50366 6.08876 5.72601 0.25
487 8.36153 7.81447 4.29076 0.25
488 4.31136 4.21509 6.117 0.25
489 0.671257 7.98746 0.17075 0.25
490 8.12491 8.0252 1.96795 0.25
491 4.63002 3.0766 1.1153 0.25
492 2.30553 1.69311 4.42787 0.25
493 6.26146 4.63975 7.05603 0.25
494 4.91373 7.55791 2.42179 0.25
495 1.18933 6.03821 5.88671 0.25
496 2.86198 7.87623 4.93471 0.25
497 6.44364 4.33359 7.82215 0.25
498 3.35192 2.88085 4.15642 0.25
499 0.557611 5.19813 7.39437 0.25
500 3.94628 2.94198 6.4091 0.25
501 5.77609 4.07576 3.99338 0.25
502 1.60302 8.02045 7.55599 0.25
503 6.01356 5.00209 2.4951 0.5
504 7.79615 7.76629 2.19215 0.25
505 5.7883 1.36794 2.78845 0.25
506 7.1937 6.3489 4.55185 0.25
507 1.32011 0.244851 3.07414 0.25
508 0.653794 0.164782 5.38745 0.25
509 8.05779 4.79166 5.05868 0.5
510 5.12725 1.55414 5.68274 0.25
511 0.519217 0.566715 5.56679 0.25
512 0.919469 0.55592 2.99976 0.25
513 4.03345 1.13963 5.40397 0.25
514 1.86983 5.65506 6.0297 0.25
515 0.858575 8.0051 6.63801 0.25
516 7.37787 1.75861 6.13001 0.25
517 7.42668 5.53825 4.34036 0.25
518 0.958073 3.53346 4.65269 0.25
519 6.46025 2.09172 1.99782 0.25
520 6.791 1.97945 6.623 0.25
521 7.65327 1.67094 0.301275 0.25
522 6.60091 1.5325 7.76964 0.25
523 5.36151 6.51251 5.49286 0.25
524 2.6583 0.544687 7.65562 0.25
525 6.32615 4.16514 7.34734 0.25
526 6.99116 5.30897 6.86482 0.25
527 7.54495 8.02748 4.15449 0.25
528 7.37401 1.43791 6.54313 0.25
529 6.56241 1.28556 2.93194 0.25
530 2.02044 1.92692 6.36543 0.25
531 7.981 7.93651 3.93309 0.25
532 1.35355 0.684017 2.84037 0.25
533 7.14416 1.45837 7.79677 0.25
534 8.16774 5.90476 1.41849 0.25
535 0.40271 3.22155 5.51144 0.5
536 6.96158 2.78215 6.04277 0.25
537 4.06498 0.856811 5.83658 0.25
538 6.60238 5.2287 4.64712 0.25
539 2.24129 1.45052 6.47218 0.25
540 8.1612 6.46879 1.91204 0.5
541 7.74004 4.14175 1.70307 0.25
542 2.05477 2.1195 7.88407 0.25
543 3.26678 7.44341 7.00682 0.25
544 7.52408 6.59314 6.70427 0.25
545 1.34375 6.00117 3.99511 0.25
546 4.57178 6.02454 6.20851 0.25
547 4.99314 2.80284 8.3614 0.25
548 5.8572 7.36904 6.56215 0.25
549 0.118679 7.94923 7.11603 0.25
550 6.06984 7.05844 8.36059 0.25
551 4.4372 1.64851 2.73813 0.25
552 3.92252 5.36394 3.81927 0.25
553 7.01177 7.74974 3.7055 0.5
554 4.53003 6.37886 2.95963 0.25
555 4.89506 6.68967 3.54702 0.5
556 6.81221 0.845961 0.901272 0.25
557 7.3455 5.00846 3.79315 0.5
558 6.40236 8.21235 3.58704 0.25
559 1.26295 0.418745 5.71405 0.5
560 5.14633 3.38723 2.2181 0.25
561 2.92327 3.08223 4.06121 0.25
562 5.13379 8.30336 5.50863 0.25
563 2.34077 6.46941 1.60463 0.25
564 5.97638 6.92192 0.765404 0.5
565 6.463 1.69575 6.43148 0.25
566 1.25055 1.6239 2.52103 0.25
567 4.23534 6.03759 5.79585 0.25
568 6.13722 1.24208 3.21155 0.25
569 2.46919 8.23562 8.04384 0.25
570 1.79385 6.4766 4.76758 0.25
571 3.04689 4.32038 7.33384 0.25
572 8.14797 2.84129 3.92631 0.5
573 4.01485 1.42382 2.5388 0.25
574 1.55743 5.9724 6.19842 0.25
575 1.97287 1.65313 8.18761 0.25
576 4.224 5.69833 7.60561 0.25
577 5.26899 0.117019 5.06738 0.25
578 1.99258 7.44415 3.84884 0.25
579 7.48544 5.20079 7.61022 0.25
580 7.39048 0.197695 4.67455 0.5
581 4.13395 4.62369 6.24204 0.25
582 5.87744 3.05533 4.57019 0.25
583 5.70395 3.76672 4.70276 0.5
584 4.82315 6.43975 5.50245 0.25
585 5.10768 3.08768 1.26029 0.25
586 1.83314 0.192804 2.52872 0.5
587 5.02475 7.00782 2.47954 0.25
588 5.87059 5.18552 3.24903 0.25
589 0.105326 2.63543 7.72612 0.25
590 3.66664 6.50527 1.89066 0.25
591 6.30651 1.61961 1.12856 0.25
592 7.48152 7.17671 1.64765 0.5
593 6.81479 6.91841 1.45477 0.25
594 1.88484 4.92116 0.0239859 0.5
595 0.497714 3.94136 8.13232 0.25
596 2.02339 0.827568 0.753301 0.25
597 8.33442 0.437806 5.12718 0.5
598 2.56841 6.27985 1.19735 0.25
599 1.99757 8.26286 7.88087 0.25
600 7.86072 1.02497 5.30121 0.25
601 0.832016 0.965812 5.5723 0.25
602 3.90984 0.2518 2.1431 0.25
603 4.21991 5.55776 8.05417 0.25
604 7.45931 5.2025 7.04998 0.25
605 7.77179 2.10593 3.73139 0.25
606 2.38451 8.23685 2.1775 0.25
607 4.46106 5.20359 7.75765 0.25
608 3.51662 7.75879 7.38963 0.25
609 6.77048 4.93579 4.33467 0.25
610 1.81423 1.38362 5.79598 0.25
611 2.99158 0.718761 7.97282 0.25
612 0.668554 7.2325 8.31928 0.25
613 6.89201 1.83459 8.14609 0.25
614 4.78684 0.815933 5.11193 0.25
615 4.94221 2.57802 3.75227 0.25
616 1.26158 5.45008 3.16774 0.25
617 1.61336 7.82926 2.20689 0.25
618 7.75675 7.31086 4.16388 0.5
619 7.96733 8.09663 4.36695 0.25
620 8.2948 7.425 2.41658 0.5
621 4.29818 6.39135 3.77862 0.25
622 5.97991 6.48791 6.41452 0.25
623 5.22094 6.7609 0.7748 0.25
624 1.19013 3.3543 5.56658 0.25
625 1.25946 5.4522 7.7072 0.25
626 3.74202 0.531087 1.31185 0.25
627 4.96016 4.73085 1.96057 0.25
628 8.32726 3.44576 2.42116 0.5
629 7.1216 3.36378 0.126358 0.25
630 1.18298 8.21409 2.8464 0.25
631 1.58173 1.43802 7.96799 0.25
632 7.68978 7.9259 1.74216 0.25
633 6.09974 7.67642 0.621085 0.25
634 2.94815 7.75878 4.05537 0.25
635 0.795375 7.05124 0.70081 0.5
636 1.46529 2.09558 1.38698 0.25
637 5.73253 0.134396 5.25117 0.25
638 4.92116 1.23829 5.40542 0.25
639 4.65626 1.93151 0.145757 0.25
640 5.17912 7.69717 0.436459 0.25
641 1.16652 6.63214 5.26167 0.25
642 3.62285 0.870654 5.51004 0.25
643 6.21762 6.63237 5.96536 0.25
644 5.74357 0.891933 2.99582 0.25
645 2.33586 2.13027 1.57097 0.25
646 7.97478 6.81992 6.53682 0.25
647 2.40154 2.98939 4.12422 0.25
648 5.32974 1.28798 8.33618 0.25
649 0.561975 4.08961 1.9064 0.25
650 0.021561 3.78291 1.38775 0.25
651 3.2573 3.11775 3.71061 0.25
652 7.07287 0.666376 6.87968 0.25
653 1.31795 6.45576 1.00556 0.25
654 0.392751 2.5475 0.126119 0.25
655 3.50727 3.58639 6.5667 0.5
656 0.497213 3.5794 7.32262 0.25
657 1.36088 5.57847 5.94673 0.25
658 6.85319 0.0889519 3.74425 0.25
659 2.32646 1.73186 7.89138 0.25
660 6.97504 6.04172 3.95602 0.5
661 8.16486 1.17557 8.23887 0.25
662 3.85218 4.7957 4.42215 0.25
663 2.56244 3.65726 1.6447 0.25
664 6.6213 2.83201 4.92308 0.25
665 7.90632 3.89022 1.26522 0.25
666 5.68142 6.84449 6.58428 0.25
667 6.65136 3.41491 0.152465 0.25
668 7.11327 6.57151 1.7282 0.25
669 5.78677 4.82757 7.36451 0.25
670 5.62469 7.90503 4.75153 0.25
671 3.38667 4.89949 4.51556 0.25
672 2.76908 3.30292 1.94207 0.25
673 0.647379 1.03976 3.00523 0.25
674 4.92542 7.38975 3.24283 0.25
675 5.38799 3.80133 5.41198 0.25
676 7.65402 8.20444 2.13218 0.25
677 6.33518 1.82546 1.58 0.25
678 7.62153 6.3531 4.79401 0.25
679 1.19968 6.33752 1.49053 0.25
680 3.65301 6.71323 8.01388 0.25
681 7.84261 0.0545496 4.04902 0.25
682 2.55213 6.04047 1.59469 0.25
683 1.59616 7.65739 7.20212 0.25
684 0.497817 3.75874 1.55397 0.25
685 2.82662 3.33662 6.45176 0.25
686 4.32661 2.7939 6.6657 0.25
687 2.08417 4.30324 0.442351 0.25
688 3.59434 0.752744 5.98224 0.25
689 6.15723 4.18088 8.22961 0.25
690 6.16173 1.09745 2.7513 0.25
691 7.0471 1.28981 1.7901 0.25
692 5.23513 5.13897 1.86427 0.25
693 7.27287 1.94518 6.56827 0.25
694 7.46527 5.2044 5.00593 0.25
695 8.15146 3.10619 5.99878 0.25
696 5.79759 6.06319 3.19096 0.5
697 4.28346 3.77087 6.35203 0.25
698 1.82287 0.889776 5.72719 0.25
699 1.40151 6.80297 4.86579 0.25
700 4.27674 5.82884 0.965512 0.25
701 4.73307 1.77377 8.05481 0.25
702 2.146 4.4633 7.36862 0.25
703 3.37461 6.67389 7.31637 0.5
704 4.59077 5.26661 8.208 0.25
705 5.06991 3.27355 1.73629 0.25
706 5.20915 0.258777 8.35654 0.25
707 4.76743 3.80915 1.29615 0.5
708 5.38326 7.55989 7.88823 0.25
709 2.71014 7.16223 1.95467 0.5
710 2.1843 4.41454 6.91535 0.25
711 5.29105 6.50853 2.91331 0.25
712 0.448379 5.34486 7.86323 0.25
713 2.70794 4.08986 1.82236 0.25
714 5.23566 4.05071 0.766585 0.25
715 4.87183 6.61239 2.70703 0.25
716 6.86284 1.09487 7.80213 0.25
717 7.77965 7.75372 3.49226 0.25
718 5.92003 3.69888 6.82322 0.25
719 6.00445 4.58211 8.03206 0.25
720 1.72372 7.56598 4.19698 0.25
721 6.78853 1.91686 2.23914 0.25
722 2.48807 7.66453 3.40082 0.5
723 2.67626 7.55578 2.60993 0.25
724 7.14542 6.60563 1.2532 0.25
725 7.58497 6.43586 7.17461 0.25
726 1.1205 1.02224 5.18626 0.25
727 4.23862 0.543962 1.40951 0.25
728 3.61662 6.2502 7.91345 0.25
729 5.04837 5.92218 3.46716 0.25
730 2.90995 7.24159 7.22186 0.25
731 5.2184 3.39267 2.78123 0.25
732 3.98766 3.35807 7.15698 0.25
733 3.74619 5.59455 7.37075 0.25
734 3.84653 0.945646 2.66309 0.25
735 3.4967 2.81282 6.66819 0.25
736 7.82769 1.52465 8.25612 0.25
737 3.77797 0.794173 0.877361 0.25
738 0.201998 7.96615 0.380078 0.25
739 4.96319 6.1734 3.03281 0.25
740 5.40239 7.30696 3.24197 0.25
741 0.559811 7.77054 0.584449 0.25
742 3.6253 4.56292 6.24924 0.25
743 6.90479 0.984887 1.41554 0.25
744 4.32554 0.921077 2.44967 0.25
745 3.49429 4.13978 6.059 0.25
746 1.17672 6.07883 4.73998 0.5
747 4.36675 0.528734 2.18139 0.25
748 2.6823 6.77743 6.94975 0.25
749 1.53142 1.33111 2.28484 0.25
750 0.138467 3.41408 1.68082 0.25
751 1.29989 0.611694 4.98396 0.25
752 6.38831 4.85765 7.87039 0.25
753 3.87108 0.932363 1.9424 0.5
754 4.38123 6.02421 1.40083 0.25
755 2.89079 2.68731 1.45743 0.5
756 7.72529 6.89692 7.42264 0.25
757 5.82406 6.59079 5.64974 0.25
758 6.80339 3.93759 7.34842 0.25
759 4.14239 8.05367 5.21913 0.25
760 0.204565 2.64125 3.38421 0.25
761 3.72543 7.35186 7.12093 0.25
762 0.687268 1.59294 3.49844 0.5
763 3.968 8.21518 1.82816 0.25
764 1.42267 6.05976 0.686215 0.25
765 7.4637 4.8164 3.06353 0.25
766 0.622542 4.32734 2.38214 0.25
767 2.65396 6.9196 7.47662 0.25
768 2.27157 2.9195 5.06135 0.25
769 8.07343 3.67202 1.71276 0.25
770 4.88289 1.00482 8.19082 0.25
771 6.61353 1.34132 6.06031 0.25
772 4.81259 2.54668 8.01328 0.25
773 5.52484 0.788988 4.93446 0.5
774 3.66015 8.19136 4.99026 0.25
775 7.98089 4.29 2.80788 0.5
776 7.09713 3.99976 0.554281 0.5
777 5.90032 6.60125 0.151837 0.25
778 5.15674 8.17152 0.296903 0.25
779 8.35374 8.26061 4.08957 0.25
780 2.19543 1.58312 6.01038 0.25
781 2.46273 1.5895 8.33797 0.25
782 1.31204 7.51336 0.493516 0.25
783 6.81687 3.24964 0.56541 0.25
784 2.35018 7.73871 2.24814 0.25
785 2.53946 1.78531 6.3375 0.25
786 2.78693 7.90489 2.19219 0.25
787 7.63211 7.10032 6.63642 0.25
788 0.175099 4.21285 2.22649 0.25
789 3.59095 7.87656 4.57659 0.25
790 6.70828 0.35338 6.68923 0.25
791 0.618702 4.5588 3.13178 0.5
792 2.31241 0.309803 7.91097 0.25
793 8.33288 7.17279 1.71919 0.25
794 5.20885 6.46919 6.18686 0.5
795 2.45311 4.06462 3.2105 0.25
796 2.09723 5.80802 5.63895 0.25
797 6.68066 6.69599 1.03838 0.25
798 7.84137 4.38922 1.26757 0.25
799 4.05126 3.32089 6.11784 0.25
800 7.90902 1.99589 3.28501 0.25
801 3.15659 7.96701 7.01387 0.25
802 3.68571 5.22674 4.21979 0.25
803 3.08711 8.34589 7.69657 0.5
804 3.81136 6.96219 1.75119 0.25
805 2.01574 8.06416 1.9488 0.25
806 2.71989 1.72845 4.11649 0.25
807 4.77742 6.07926 5.20307 0.25
808 4.0663 2.07232 8.02487 0.25
809 1.67307 5.96597 5.74762 0.25
810 6.33921 7.48867 6.52994 0.25
811 1.6336 3.25752 4.91627 0.5
812 5.6394 7.57581 0.540674 0.25
813 4.35977 1.95692 3.16254 0.25
814 1.49325 7.55593 7.70448 0.25
815 2.80765 8.10222 4.44192 0.25
816 1.05881 2.92947 5.30899 0.25
817 4.29849 1.68848 8.21557 0.25
818 3.80895 1.91149 3.31545 0.25
819 1.92672 5.19499 0.83937 0.25
820 3.02141 3.00421 6.72725 0.25
821 1.42682 2.05985 8.20114 0.5
822 6.08694 4.37972 3.39399 0.5
823 5.05431 0.50157 7.96525 0.25
824 0.782878 0.644287 5.14242 0.25
825 3.8607 6.08619 7.49159 0.25
826 3.26149 3.62698 1.55319 0.5
827 5.62781 7.14267 6.21293 0.25
828 0.200789 2.15326 7.66939 0.25
829 0.0251129 8.19312 4.56828 0.25
830 0.874102 1.87166 2.83721 0.25
831 2.19694 4.38596 7.87256 0.25
832 5.90038 4.53906 1.88953 0.25
833 1.74561 1.52899 6.27621 0.25
834 4.03816 0.487993 2.54772 0.25
835 6.73753 1.80699 1.23703 0.25
836 3.34317 7.62364 7.85405 0.25
837 3.95698 5.30852 7.70207 0.25
838 7.21652 0.729127 1.14089 0.25
839 6.04697 7.45302 6.16995 0.25
840 6.94115 4.70816 7.38652 0.5
841 3.43569 6.91915 2.06216 0.25
842 0.2137 2.1346 2.84841 0.5
843 5.88849 3.90289 5.43699 0.25
844 4.65953 2.46768 0.12343 0.25
845 7.53205 2.72782 5.31758 0.25
846 3.34349 3.08742 7.38712 0.5
847 2.31175 5.13712 0.587923 0.25
848 1.69037 5.85797 5.23996 0.25
849 5.22227 7.91142 2.67916 0.25
850 6.35188 2.90912 5.59571 0.5
851 5.49204 8.03425 5.21981 0.25
852 6.95803 1.89217 7.66082 0.25
853 4.065 8.02349 4.75945 0.25
854 4.42649 1.55471 5.9142 0.5
855 0.357602 3.94709 5.33655 0.25
856 0.818249 5.30477 3.16039 0.25
857 3.72451 6.54909 1.43129 0.25
858 2.78037 4.64433 3.78853 0.25
859 6.70792 4.66319 3.89974 0.25
860 7.76834 4.17012 0.849018 0.25
861 4.81325 3.00128 7.91414 0.25
862 6.69998 4.79145 3.43528 0.25
863 5.47747 6.30505 0.032221 0.25
864 7.76194 6.99664 2.32101 0.25
865 3.77278 5.73806 7.8553 0.25
866 4.95977 8.19961 2.98278 0.25
867 1.82428 4.13447 7.64463 0.25
868 2.09619 1.62684 0.623509 0.5
869 0.94202 3.3139 7.38866 0.25
870 6.19756 5.49756 3.11148 0.25
871 2.84285 7.60501 6.91285 0.25
872 5.83849 3.20062 5.08786 0.25
873 0.212982 7.92388 8.31044 0.25
874 3.8957 1.10302 6.27018 0.25
875 2.30268 4.13193 1.14 0.5
876 1.28426 5.74417 5.48635 0.25
877 8.31735 5.27967 7.86056 0.25
878 5.72351 0.979141 2.45819 0.25
879 3.20054 8.15799 4.69291 0.25
880 6.50712 5.95472 2.96388 0.25
881 7.3858 1.10401 1.47636 0.25
882 7.71673 7.29749 7.11076 0.25
883 0.575638 3.87507 2.36097 0.25
884 7.20756 3.31527 0.864394 0.25
885 0.801174 4.23203 5.21213 0.25
886 8.0361 7.56423 3.0876 0.25
887 1.16153 6.82872 1.32195 0.25
888 1.13096 4.6494 3.64434 0.25
889 1.50453 7.91631 2.68509 0.25
890 0.218518 4.59618 2.5376 0.25
891 0.920866 2.51594 7.95933 0.25
892 7.60675 3.70991 0.988474 0.25
893 1.00546 7.86823 0.563876 0.25
894 4.00513 5.71148 1.39741 0.25
895 3.75683 5.79641 0.912254 0.25
896 1.70336 1.3564 0.0876517 0.25
897 8.1743 4.18555 1.59873 0.25
898 0.617484 4.65086 3.85547 0.25
899 0.683117 8.23755 5.75446 0.25
900 5.15624 6.05586 5.59817 0.25
901 0.963108 1.39191 2.81205 0.25
902 7.42844 4.09802 1.28314 0.25
903 5.9382 3.66188 3.7273 0.25
904 6.86516 4.03632 7.79811 0.25
905 5.3814 0.754836 5.80496 0.25
906 1.91096 0.983635 0.341195 0.25