ITEM: TIMESTEP
280000
ITEM: NUMBER OF ATOMS
1000
ITEM: BOX BOUNDS xy xz yz pp pp pp
0.0000000000000000e+00 8.3788359999999997e+00 0.0000000000000000e+00
0.0000000000000000e+00 8.3788359999999997e+00 0.0000000000000000e+00
0.0000000000000000e+00 8.3788359999999997e+00 0.0000000000000000e+00
ITEM: ATOMS id x y z radius
1 2.91518 6.86566 4.76479 0.25
2 4.84404 4.99996 5.00549 0.25
3 7.10465 4.8063 3.17838 0.25
4 7.44286 0.82478 6.08502 0.5
5 1.2593 5.49081 6.01226 0.25
6 8.15136 1.9246 3.40824 0.25
7 4.06722 3.28189 6.44458 0.25
8 4.88213 7.64283 3.09894 0.25
9 0.982976 6.14235 3.64432 0.25
10 4.21423 1.73432 3.15187 0.25
11 5.50845 0.495113 8.30281 0.25
12 5.30057 3.49493 1.76288 0.25
13 0.503314 2.47142 7.49302 0.25
14 3.39923 2.71088 7.01167 0.25
15 8.10323 2.79479 6.27166 0.25
16 6.95069 0.828223 7.14194 0.25
17 0.727326 5.26474 8.30441 0.25
18 5.7647 7.71466 7.94085 0.25
19 3.93067 2.09805 7.9507 0.25
20 7.54153 1.40078 0.437701 0.25
21 5.02218 4.25502 2.01737 0.25
22 4.22097 3.34155 1.1186 0.25
23 2.16318 3.32544 1.93768 0.25
24 2.57365 1.40831 3.98833 0.25
25 2.5828 4.45284 3.07422 0.25
26 0.40831 8.24525 5.70316 0.25
27 3.99134 0.356831 5.94482 0.25
28 4.5158 2.52826 0.0275255 0.25
29 5.16636 6.88024 3.08582 0.25
30 7.54734 7.36415 2.33064 0.25
31 2.86248 0.21019 0.0397023 0.25
32 0.896639 2.71473 7.31039 0.25
33 7.86167 0.640835 5.41352 0.25
34 2.0738 4.95733 1.50877 0.25
35 8.25519 0.126085 4.49193 0.25
36 7.06626 1.54783 5.5252 0.5
37 4.48183 1.0569 2.4846 0.25
38 2.26459 3.3682 4.34548 0.25
39 6.06329 2.64173 4.8694 0.25
40 5.24581 7.65696 3.37746 0.25
41 7.0184 2.12639 2.52768 0.25
42 5.61692 5.9928 5.58698 0.25
43 3.5189 7.66321 4.65188 0.25
44 4.11117 8.25088 5.91169 0.25
45 5.81705 4.10608 4.06105 0.25
46 3.27234 5.95546 1.47021 0.5
47 4.89319 0.759502 5.30108 0.25
48 8.01157 6.34885 7.02296 0.25
49 7.41154 6.84776 4.73549 0.25
50 7.70238 1.03663 0.809909 0.25
51 2.73062 3.34977 4.40562 0.25
52 0.670879 1.75328 2.349 0.25
53 6.53184 5.23766 6.87337 0.25
54 5.84484 3.21377 4.14804 0.25
55 1.67146 1.53677 5.94396 0.25
56 0.948367 7.3194 0.127822 0.25
57 4.8018 0.795973 2.1668 0.25
58 2.25785 2.14818 4.18107 0.25
59 4.80634 1.63032 6.0616 0.25
60 7.84374 5.6823 5.26375 0.25
61 5.1591 0.151678 8.1411 0.25
62 4.99218 1.70365 7.81257 0.5
63 7.45134 6.68763 1.04197 0.25
64 1.18714 6.13846 1.04168 0.25
65 4.38137 0.0265055 1.92876 0.25
66 2.10596 4.79001 7.08399 0.25
67 7.95721 5.02683 7.00104 0.25
68 7.03756 0.52763 6.69601 0.25
69 0.0162452 5.60245 7.98677 0.25
70 1.93667 4.65198 0.711134 0.25
71 7.8998 1.49706 0.149372 0.25
72 6.33665 6.32288 3.47936 0.25
73 0.528536 7.5709 6.76351 0.25
74 7.47013 5.58483 6.81697 0.25
75 7.3569 0.0342543 3.46793 0.25
76 7.52744 6.54275 4.35795 0.25
77 5.54573 2.8285 5.48162 0.25
78 5.35938 3.78041 1.32812 0.25
79 7.64502 5.02336 4.54981 0.25
80 5.85132 3.31847 5.52075 0.25
81 7.04768 1.41883 1.1997 0.25
82 8.16962 2.87592 5.7977 0.25
83 4.4286 5.68221 5.53476 0.25
84 1.25765 1.2218 6.014 0.25
85 1.68935 1.63347 5.4205 0.25
86 4.89275 0.122949 5.78486 0.25
87 1.54202 1.68244 1.22754 0.25
88 3.27312 6.74406 1.69019 0.25
89 6.66334 7.03855 0.685039 0.25
90 5.46812 6.4247 5.43649 0.25
91 3.93874 4.15783 6.1579 0.25
92 6.14705 4.55817 7.36002 0.25
93 4.9649 6.49443 5.28161 0.25
94 7.11131 8.2454 4.23298 0.25
95 0.36827 4.55128 7.61271 0.5
96 5.37864 3.19461 3.52844 0.5
97 4.20034 4.80479 7.81002 0.25
98 0.0837068 2.30446 3.57269 0.25
99 1.47908 6.30457 5.86155 0.25
100 6.97727 6.9868 1.05563 0.25
101 0.460298 8.09898 0.38898 0.25
102 7.97226 4.86289 3.33359 0.25
103 6.61845 1.22751 1.39041 0.25
104 0.69999 5.14063 7.3235 0.25
105 5.13596 5.74627 5.11249 0.5
106 5.08164 0.087266 4.56053 0.25
107 4.17873 3.24032 6.92946 0.25
108 4.80866 1.56826 0.142794 0.25
109 0.662455 0.525809 6.24581 0.25
110 2.17074 7.98705 8.12002 0.25
111 3.02311 3.94716 7.01976 0.25
112 4.45341 2.2413 8.00305 0.25
113 1.73778 1.89984 1.87941 0.5
114 1.73228 4.07594 6.797 0.25
115 4.64179 6.12566 6.2203 0.25
116 2.64544 7.10917 7.03702 0.25
117 4.12251 2.33739 3.72132 0.5
118 6.53083 7.1785 1.12759 0.25
119 0.851943 5.99106 2.43791 0.25
120 0.0706955 2.89405 2.45398 0.25
121 3.15568 4.03912 3.48481 0.25
122 6.76439 0.635983 6.31853 0.25
123 5.36711 0.584152 5.53149 0.25
124 8.11805 8.06413 2.44624 0.25
125 3.42098 2.05686 3.75195 0.25
126 3.70372 1.08946 5.8591 0.25
127 5.34238 3.94395 1.75668 0.25
128 6.79394 5.44307 7.22758 0.25
129 1.23642 6.46253 3.93585 0.25
130 5.44249 6.21524 0.661559 0.25
131 7.00239 1.35245 6.29681 0.25
132 5.92146 4.15403 7.61822 0.25
133 3.16304 1.87087 3.4023 0.25
134 4.56927 2.72376 7.90043 0.25
135 5.60241 3.91431 3.69506 0.25
136 2.76537 2.40396 3.66886 0.5
137 2.75728 3.97987 3.11052 0.25
138 7.60494 7.93254 2.897 0.5
139 2.64183 7.74931 5.03639 0.25
140 4.99211 8.08274 8.02285 0.25
141 8.25717 5.86629 5.05974 0.25
142 1.03681 5.03014 3.20376 0.25
143 2.24263 2.0654 8.32999 0.25
144 5.08331 1.00691 2.87948 0.5
145 7.36712 1.85352 3.92957 0.25
146 5.96556 7.44631 0.340982 0.25
147 6.53071 5.70266 4.55947 0.25
148 2.19946 2.89981 4.49489 0.25
149 4.69108 8.12561 2.52885 0.5
150 5.04302 2.92463 4.1533 0.25
151 3.64797 5.92424 7.19469 0.25
152 3.58583 4.59406 5.53181 0.25
153 6.68168 6.02448 2.22722 0.5
154 7.26935 2.26512 4.64421 0.5
155 3.01979 7.16922 7.85908 0.25
156 7.54619 3.642 1.52599 0.25
157 7.58615 5.99354 1.52325 0.25
158 2.5089 3.64076 0.756884 0.25
159 7.25116 7.86869 4.52617 0.25
160 6.66706 2.02598 2.83913 0.25
161 0.876961 5.20927 2.7555 0.25
162 5.85911 4.14787 7.11913 0.25
163 3.4152 3.64233 4.103 0.5
164 2.40074 3.82246 2.5077 0.5
165 5.42924 8.15495 7.86023 0.25
166 0.193285 3.8618 7.84781 0.25
167 6.38212 4.04807 0.290355 0.25
168 4.79166 5.88384 5.81537 0.25
169 3.96965 4.31003 5.66244 0.25
170 0.198035 2.77667 6.04276 0.25
171 7.70944 5.94252 1.02051 0.25
172 1.01894 2.84205 6.84491 0.25
173 4.3494 6.13291 5.83429 0.25
174 2.23229 2.14914 0.954851 0.25
175 7.62868 2.2977 5.98038 0.5
176 2.19762 6.66498 6.21571 0.25
177 5.51812 3.64103 4.09388 0.25
178 2.99169 6.41299 1.9265 0.25
179 3.47472 2.29176 3.27948 0.25
180 5.88659 6.38872 5.76524 0.25
181 6.63162 3.9981 6.89889 0.25
182 3.08097 5.1601 3.36959 0.25
183 8.06826 7.57469 1.77429 0.25
184 4.24263 5.00466 8.27731 0.25
185 5.80319 6.80537 6.07594 0.25
186 7.51463 6.05381 4.50753 0.25
187 3.30668 5.14933 4.13143 0.25
188 0.804047 5.81593 3.26916 0.25
189 4.13274 6.55057 3.31672 0.25
190 4.14487 3.24369 1.57805 0.25
191 6.81981 1.54529 0.380668 0.5
192 0.742442 5.15245 7.83627 0.25
193 3.90197 5.64272 1.7175 0.25
194 2.5233 6.28296 1.69698 0.25
195 6.12561 5.6468 2.67524 0.25
196 2.40868 7.86495 2.66728 0.25
197 1.18757 0.022491 2.50165 0.25
198 7.67259 4.61084 7.06946 0.25
199 1.03352 1.22986 3.15436 0.25
200 4.53012 5.27112 1.48372 0.5
201 6.70015 1.59107 3.14896 0.25
202 8.24745 3.99985 5.33439 0.25
203 3.70077 1.86853 3.34289 0.25
204 5.62086 8.13476 0.219205 0.5
205 2.4699 7.41359 4.40239 0.5
206 0.43773 4.58876 5.25651 0.25
207 5.56587 2.80038 4.15282 0.25
208 6.93571 5.40299 4.41981 0.25
209 5.4174 7.13011 8.37053 0.5
210 2.00966 8.07369 2.9509 0.25
211 0.665639 3.84126 5.0515 0.25
212 1.47368 7.67667 8.0524 0.5
213 0.08235 4.19583 2.76263 0.25
214 2.0089 8.05868 2.49377 0.25
215 2.91546 4.12544 3.90776 0.25
216 6.55421 1.91691 2.37685 0.25
217 4.98304 3.74938 2.11217 0.25
218 2.44523 3.17741 4.79511 0.25
219 4.41068 1.3388 2.83698 0.25
220 3.76612 3.5557 0.946589 0.25
221 4.46522 0.227795 6.00554 0.25
222 7.46945 0.877158 5.27881 0.25
223 7.93536 2.8453 2.50811 0.25
224 7.22631 5.35443 7.24345 0.25
225 7.04764 2.30533 5.46424 0.25
226 4.29562 1.95259 7.63179 0.25
227 6.42763 3.59742 7.16821 0.25
228 5.38765 3.188 4.29094 0.25
229 5.46903 5.0315 1.98681 0.25
230 0.283627 8.18203 6.43913 0.5
231 5.34033 4.56815 1.3998 0.5
232 1.91161 3.10436 4.08583 0.25
233 4.12103 5.08588 3.87237 0.25
234 6.55985 1.07162 6.39192 0.25
235 3.16012 7.2706 4.63384 0.25
236 0.882037 2.52137 7.79394 0.25
237 8.30303 3.0681 7.47634 0.25
238 3.41102 0.253953 1.91656 0.25
239 0.24265 2.26275 4.03519 0.25
240 6.61631 6.38421 1.48162 0.25
241 3.45197 7.07869 8.11821 0.25
242 1.74724 7.41032 2.65363 0.5
243 2.82233 4.72374 3.46334 0.25
244 7.17782 3.60278 1.19017 0.25
245 2.27215 0.990852 5.92554 0.25
246 7.72171 8.12185 3.68381 0.25
247 3.45553 2.57654 3.69569 0.25
248 3.76939 3.16085 1.25172 0.25
249 0.0200994 5.14448 7.24917 0.25
250 1.0745 3.27393 5.44938 0.25
251 5.29197 2.64871 4.78967 0.5
252 3.16109 1.98653 4.1641 0.25
253 7.91652 5.65207 7.38504 0.5
254 7.15856 5.83407 7.15932 0.25
255 4.84137 0.880175 6.04046 0.5
256 5.79935 6.189 0.291073 0.25
257 1.06863 0.443949 2.78099 0.25
258 1.61608 1.65605 2.62352 0.25
259 4.60475 3.14863 1.48689 0.25
260 7.80374 6.37301 1.24023 0.25
261 3.09847 0.339794 1.53562 0.25
262 3.4388 2.34306 4.12004 0.25
263 2.06514 0.290131 0.0474423 0.5
264 2.76738 4.27447 3.49136 0.25
265 1.19117 3.87822 7.30628 0.5
266 1.0776 7.88411 7.06763 0.5
267 5.16389 2.41024 7.62337 0.25
268 6.28899 7.77878 0.253042 0.25
269 1.80551 5.11595 0.714222 0.25
270 3.89644 3.64556 1.40018 0.25
271 7.72782 7.86609 4.72308 0.25
272 1.5964 1.01742 2.53941 0.25
273 1.35184 3.25767 6.91746 0.25
274 0.53044 5.57617 8.00443 0.25
275 4.64201 4.59378 1.2509 0.25
276 2.41437 3.21898 1.08081 0.25
277 6.58266 0.716324 6.75769 0.25
278 3.93875 6.3228 1.33014 0.25
279 4.25429 0.245346 5.29468 0.5
280 8.12994 8.15843 4.93862 0.25
281 1.06152 6.47596 0.658465 0.25
282 6.20553 7.01819 6.23029 0.25
283 0.878406 0.203501 6.61205 0.25
284 7.4424 4.36166 0.766167 0.25
285 1.90235 6.02664 1.26074 0.5
286 5.53183 6.70226 3.4213 0.25
287 1.53087 8.09684 3.58328 0.5
288 2.85058 7.25789 5.01876 0.25
289 2.38931 7.27543 5.18522 0.25
290 2.02803 3.82799 1.82118 0.25
291 8.27938 7.5827 7.29701 0.25
292 7.60115 2.56044 3.41531 0.25
293 7.58316 4.59368 3.28244 0.25
294 5.98369 3.63796 3.41513 0.25
295 8.21513 4.14694 1.01063 0.25
296 0.612937 4.35261 4.5951 0.5
297 3.70672 3.0859 6.76497 0.25
298 6.32248 5.22592 7.30507 0.25
299 5.89654 4.99849 7.42985 0.25
300 6.30314 3.905 0.746784 0.25
301 0.88772 8.04517 0.138953 0.25
302 0.256084 4.3059 1.52678 0.25
303 3.7178 1.14224 1.65738 0.25
304 2.09485 2.40858 4.6269 0.25
305 1.1801 5.0538 8.17399 0.25
306 2.36207 1.96235 4.68516 0.25
307 1.4089 5.0452 7.44932 0.5
308 3.59075 5.76457 3.06976 0.25
309 4.42643 0.902613 5.38335 0.25
310 1.05699 4.67395 4.04965 0.25
311 7.43949 0.0465673 3.95498 0.25
312 0.808206 0.995607 2.35814 0.5
313 0.966283 3.76547 5.40552 0.25
314 5.62934 3.89949 3.1829 0.25
315 1.51304 5.33352 8.1409 0.25
316 1.71989 4.45091 7.18332 0.25
317 7.44693 2.32826 3.87959 0.25
318 2.11453 2.63451 4.14341 0.25
319 4.8767 7.57916 7.9913 0.25
320 1.9611 6.19482 6.04495 0.25
321 3.81991 0.735476 1.44123 0.25
322 7.24574 6.50692 5.15302 0.25
323 0.956597 6.01257 4.10976 0.25
324 4.11485 7.33295 7.83586 0.5
325 1.01844 2.05866 0.173419 0.25
326 4.13084 4.67668 4.91968 0.5
327 7.58434 7.27501 3.23985 0.25
328 2.41996 7.76432 1.8283 0.25
329 1.31371 5.89921 3.38671 0.25
330 8.32943 7.0725 7.44297 0.25
331 0.982951 5.35295 3.85647 0.5
332 7.33607 6.54663 2.08584 0.25
333 1.08869 1.60197 2.01162 0.25
334 6.80614 1.6052 1.63564 0.25
335 3.38093 3.19379 0.944202 0.25
336 3.11254 6.99063 6.89193 0.25
337 4.44151 7.13107 2.89911 0.5
338 6.08127 7.50949 8.27679 0.25
339 2.18976 8.05623 3.95468 0.25
340 4.86601 0.412726 4.89318 0.25
341 6.93656 8.28942 3.27789 0.25
342 0.757798 5.54394 7.56814 0.25
343 2.68674 1.20615 0.292894 0.25
344 1.11572 5.57459 2.54152 0.25
345 0.379219 1.59375 2.7364 0.25
346 0.45466 2.62644 8.35585 0.25
347 3.51809 5.90294 7.66939 0.25
348 7.39692 7.85518 2.13327 0.25
349 0.763042 2.26716 8.17938 0.25
350 6.91292 1.63436 2.62715 0.25
351 1.46413 6.78682 0.593855 0.25
352 6.4097 3.67735 7.98294 0.5
353 2.44319 8.3362 7.80393 0.25
354 1.87946 0.785866 5.56452 0.25
355 0.797263 0.0958241 6.07557 0.25
356 2.12482 1.78096 5.73321 0.25
357 2.81419 4.22225 6.65375 0.25
358 6.26738 3.39414 5.25144 0.25
359 4.38158 1.46462 6.31438 0.25
360 1.81615 2.09178 1.13483 0.25
361 0.807678 7.99974 0.677172 0.25
362 6.18556 3.87877 6.84503 0.25
363 7.95854 4.16779 2.01795 0.25
364 6.02499 3.71716 7.34583 0.25
365 5.42196 6.01015 0.164105 0.25
366 5.00488 6.21252 0.384592 0.25
367 2.51365 4.57782 6.83429 0.25
368 6.5365 3.20585 0.237726 0.25
369 1.06833 6.83954 0.272364 0.25
370 5.05474 0.678327 8.19447 0.25
371 2.30449 8.08706 4.45257 0.25
372 2.40051 4.57684 0.562289 0.25
373 6.94445 2.64935 5.1839 0.25
374 3.76686 4.319 4.37853 0.25
375 4.52361 0.824158 8.23151 0.25
376 2.61114 5.69093 1.09619 0.25
377 6.46544 1.22599 2.11518 0.5
378 0.457177 3.8787 7.43255 0.25
379 4.46912 1.3356 8.16015 0.25
380 2.46448 6.88729 4.91217 0.25
381 4.09652 5.25722 5.46057 0.25
382 1.98692 7.1834 4.90208 0.25
383 6.32574 5.30669 3.92845 0.5
384 1.12893 1.78179 1.5403 0.25
385 6.65191 1.5039 6.95288 0.5
386 1.52011 1.16612 5.60475 0.25
387 7.36055 0.92266 0.468312 0.25
388 0.700551 5.66992 2.75423 0.25
389 4.07021 2.57869 7.30988 0.5
390 4.19431 0.601547 6.30193 0.25
391 5.35968 4.62255 2.19827 0.25
392 7.93684 2.91807 3.31013 0.25
393 2.85215 6.56553 1.45287 0.25
394 8.35313 8.05258 0.59294 0.25
395 2.07949 1.70664 1.21255 0.25
396 4.54648 7.94118 8.12288 0.25
397 4.82331 0.727984 0.250285 0.25
398 7.0833 1.78377 8.0378 0.25
399 3.07638 4.35964 3.13162 0.25
400 5.22478 4.49214 0.741207 0.25
401 2.14869 7.16204 3.70444 0.25
402 8.18632 7.99826 6.9813 0.25
403 7.58592 6.35564 0.722738 0.25
404 8.00114 6.80907 7.22254 0.25
405 0.350392 7.78017 0.756119 0.25
406 5.50231 0.202192 4.45177 0.25
407 2.35071 1.05416 7.9867 0.5
408 5.43112 3.22966 2.68798 0.25
409 2.20593 4.95013 1.05839 0.25
410 7.3717 1.07108 8.14633 0.5
411 4.47897 5.32905 5.15217 0.25
412 8.2363 7.18468 6.99268 0.25
413 1.26704 1.6278 0.170013 0.25
414 0.529738 3.165 7.82399 0.5
415 6.6166 4.71713 2.97284 0.25
416 2.83844 3.23425 6.6202 0.25
417 3.47268 4.63779 3.70718 0.5
418 7.11799 6.80152 4.3535 0.25
419 3.93122 3.83194 5.83306 0.25
420 0.887664 3.19723 4.55762 0.25
421 4.04887 4.79667 5.68188 0.25
422 2.16611 5.46214 0.894113 0.25
423 0.401271 0.275976 5.88771 0.25
424 0.499027 3.51371 4.75039 0.25
425 1.90428 2.79389 1.3724 0.5
426 7.10842 5.80474 5.0637 0.5
427 2.64461 1.86096 4.21762 0.25
428 3.96749 5.09666 3.42647 0.25
429 4.42075 4.45629 5.59513 0.25
430 1.78299 7.47152 3.47573 0.25
431 0.925237 3.35764 6.75254 0.25
432 1.53414 7.13743 4.18044 0.5
433 2.05753 1.66901 7.63797 0.25
434 0.892081 6.53918 1.14413 0.25
435 5.75144 3.47297 2.97484 0.25
436 1.084 5.98115 2.87845 0.25
437 8.37247 1.23373 0.267757 0.25
438 0.893245 3.44405 5.02176 0.25
439 3.64093 2.57046 6.59877 0.25
440 4.25184 1.46833 7.71754 0.25
441 7.9615 4.40429 5.2471 0.25
442 2.27143 5.37954 1.33719 0.25
443 0.286586 2.88575 6.85903 0.5
444 2.14039 3.49033 1.46748 0.25
445 5.22243 7.15325 0.692929 0.25
446 4.24533 5.79655 3.45581 0.5
447 1.70557 1.9933 5.8018 0.25
448 5.92334 7.21836 5.87469 0.25
449 1.24888 5.41634 5.5157 0.25
450 2.88609 3.38716 0.91765 0.25
451 2.77524 6.85472 5.2602 0.25
452 2.29663 0.909181 0.360242 0.25
453 4.81305 4.31831 0.860892 0.25
454 0.134571 3.52217 7.33699 0.25
455 8.04706 4.82996 7.43181 0.25
456 2.95246 1.72002 3.80567 0.25
457 2.29983 4.01699 7.24939 0.5
458 0.0347254 7.59325 6.81394 0.25
459 4.90364 7.75473 0.0347639 0.25
460 5.8165 0.128775 4.79844 0.25
461 2.55406 3.6057 1.25107 0.25
462 6.31096 4.98896 3.22942 0.25
463 5.24218 7.32874 3.0302 0.25
464 7.51716 6.93674 7.35627 0.25
465 7.10555 2.7109 5.69967 0.25
466 4.24876 1.79031 2.69351 0.25
467 3.88088 6.1789 1.79467 0.25
468 6.8558 5.41561 3.01217 0.5
469 7.46687 7.43042 7.17775 0.25
470 0.825674 1.66464 0.382498 0.25
471 1.79926 1.10516 6.04057 0.25
472 1.92842 7.91196 2.03521 0.25
473 7.6275 5.26133 5.4627 0.25
474 5.26669 5.70116 5.8383 0.25
475 1.31573 1.3319 2.77619 0.25
476 7.21081 1.16776 7.39365 0.25
477 3.23877 5.39628 3.71229 0.25
478 6.28057 3.2831 7.4104 0.25
479 3.43255 7.25807 7.59166 0.25
480 5.02441 0.402342 2.50638 0.25
481 7.7631 2.04077 4.14997 0.25
482 7.15172 5.08587 4.69751 0.25
483 8.30956 5.71358 5.53184 0.25
484 2.70449 0.675678 0.0960951 0.25
485 7.90813 7.57558 6.94622 0.25
486 1.72702 6.63844 6.17123 0.25
487 0.0127287 7.72829 4.32279 0.25
488 4.37066 4.05083 5.91578 0.25
489 0.399749 8.25813 0.823161 0.25
490 8.18594 7.99668 1.97116 0.25
491 4.64603 3.18973 1.00493 0.25
492 2.26559 1.65674 4.30822 0.25
493 6.27587 4.39969 6.91116 0.25
494 5.02093 7.44856 2.57444 0.25
495 1.3019 5.8569 5.6544 0.25
496 3.02603 7.69777 4.85147 0.25
497 6.32686 4.35058 7.76417 0.25
498 3.30507 2.80695 4.06279 0.25
499 0.306473 5.3647 7.5923 0.25
500 3.72848 2.95529 6.28844 0.25
501 6.28357 3.98349 4.13099 0.25
502 1.76897 7.9427 7.38374 0.25
503 5.90971 4.92953 2.68189 0.5
504 7.80719 7.76164 2.18685 0.25
505 5.97276 1.46401 2.80472 0.25
506 7.18885 6.43423 4.65004 0.25
507 1.22181 0.43183 3.26253 0.25
508 0.847142 0.13588 5.59718 0.25
509 8.28426 5.09344 5.05638 0.5
510 4.81909 1.73008 5.16957 0.25
511 0.731505 0.583467 5.78315 0.25
512 0.829124 0.743723 3.09078 0.25
513 3.91449 0.960815 5.3807 0.25
514 2.0773 5.7234 5.98341 0.25
515 0.8623 7.67325 6.40196 0.25
516 7.38484 1.56698 6.18646 0.25
517 7.43832 5.49058 4.50222 0.25
518 0.919643 3.71932 4.58442 0.25
519 6.5118 1.95345 1.86782 0.25
520 6.94337 1.85704 6.20875 0.25
521 7.51184 1.7463 0.0348358 0.25
522 6.43745 1.42862 7.70683 0.25
523 5.1067 6.72988 5.66658 0.25
524 2.62583 0.345327 8.00664 0.25
525 6.36706 4.08321 7.30936 0.25
526 7.00456 5.36565 6.8381 0.25
527 7.60038 8.04353 4.20074 0.25
528 7.29916 1.39003 6.67237 0.25
529 6.71763 1.16858 2.84221 0.25
530 2.58509 1.74084 6.04666 0.25
531 8.04275 7.90792 3.9727 0.25
532 1.28517 0.837648 2.90451 0.25
533 6.93344 1.4901 7.68945 0.25
534 8.03718 5.93089 1.41068 0.25
535 0.292606 3.3462 5.44852 0.5
536 6.87447 2.29426 5.91363 0.25
537 4.10829 0.813594 5.79729 0.25
538 6.63493 5.23058 4.74231 0.25
539 2.61961 1.24894 6.21595 0.25
540 8.07198 6.38006 1.99464 0.5
541 7.66245 4.10688 1.59192 0.25
542 2.17299 2.12398 7.83826 0.25
543 3.36729 7.35665 7.13704 0.25
544 7.56897 6.65129 6.96045 0.25
545 1.41273 5.99927 3.87662 0.25
546 4.93002 5.68849 6.26882 0.25
547 5.38985 2.37552 8.0315 0.25
548 6.05683 7.27661 6.66774 0.25
549 0.284106 7.8574 7.15495 0.25
550 6.06906 7.02752 8.37452 0.25
551 4.62401 1.51473 2.4216 0.25
552 3.68255 5.33643 3.81141 0.25
553 7.10676 7.73993 3.69644 0.5
554 4.48011 6.40293 3.00825 0.25
555 4.84794 6.57167 3.6575 0.5
556 6.91071 0.814795 0.700408 0.25
557 7.32294 5.08659 3.87275 0.5
558 6.56074 8.26178 3.60777 0.25
559 1.38932 0.45155 6.05074 0.5
560 5.03143 3.50831 2.55746 0.25
561 2.93961 3.08508 4.01995 0.25
562 5.39482 0.0728677 5.48954 0.25
563 2.3671 6.58083 1.34087 0.25
564 5.92161 6.83643 0.744641 0.5
565 6.57352 1.5461 6.17597 0.25
566 1.14143 1.68853 2.48501 0.25
567 4.44784 5.72343 6.091 0.25
568 6.31587 1.28822 3.17101 0.25
569 2.61318 8.20267 8.19532 0.25
570 2.07679 6.75336 4.64642 0.25
571 2.91578 4.41476 7.12528 0.25
572 8.01649 2.73529 4.02495 0.5
573 4.17744 1.3964 2.36628 0.25
574 1.57418 5.89973 6.09399 0.25
575 2.02049 1.68255 8.15929 0.25
576 4.30938 5.62421 7.73558 0.25
577 5.36725 0.145272 4.98654 0.25
578 1.96474 7.60959 3.87203 0.25
579 7.5715 4.96537 7.38448 0.25
580 7.58526 0.228503 4.7163 0.5
581 4.24692 4.52005 6.06266 0.25
582 5.88075 3.00034 4.56982 0.25
583 5.8164 3.6729 4.76073 0.5
584 4.75442 6.40327 5.77091 0.25
585 5.08438 3.26859 1.36613 0.25
586 1.81422 0.373386 2.69204 0.5
587 5.15681 6.97462 2.63372 0.25
588 5.84155 5.0912 3.36761 0.25
589 0.0694328 2.62934 7.52759 0.25
590 3.49279 6.45589 2.04052 0.25
591 6.29467 1.40817 0.986947 0.25
592 7.47509 7.12785 1.63564 0.5
593 6.74913 6.89965 1.48918 0.25
594 1.97165 4.81192 8.32039 0.5
595 0.729302 3.8303 7.85358 0.25
596 1.86997 0.808515 0.610918 0.25
597 0.218493 0.362127 5.15282 0.5
598 2.61055 6.19009 1.21262 0.25
599 1.95016 8.24132 7.77774 0.25
600 7.71182 1.12526 5.49874 0.25
601 0.896785 0.903009 6.08585 0.25
602 4.05332 0.00407892 2.36222 0.25
603 4.33416 5.51401 8.20584 0.25
604 7.47157 5.09325 6.94715 0.25
605 7.77947 2.13404 3.67401 0.25
606 2.3967 8.09965 2.17695 0.25
607 4.53497 5.19809 7.86458 0.25
608 3.5793 7.72538 7.44452 0.25
609 6.78012 4.92677 4.36623 0.25
610 1.99308 1.28527 5.65026 0.25
611 3.01132 0.596505 8.1041 0.25
612 0.605217 7.66528 0.324969 0.25
613 6.27825 1.51914 8.19408 0.25
614 4.56959 0.823695 4.91697 0.25
615 4.83854 2.67644 3.71321 0.25
616 1.0834 5.51879 3.09347 0.25
617 1.55355 8.12353 2.27675 0.25
618 7.75215 7.30801 4.26177 0.5
619 8.04968 8.02313 4.4308 0.25
620 8.28145 7.31654 2.41178 0.5
621 4.09158 6.39872 3.79934 0.25
622 6.12715 6.52082 6.22386 0.25
623 5.19794 6.66195 0.591505 0.25
624 0.946203 2.96685 5.0716 0.25
625 1.03518 5.53406 7.9935 0.25
626 3.4056 0.707849 1.69217 0.25
627 4.69627 4.51962 1.69175 0.25
628 8.12219 3.57913 2.48713 0.5
629 6.88369 3.10323 0.566789 0.25
630 1.14425 8.34923 2.9667 0.25
631 1.72148 1.3968 7.78138 0.25
632 7.68922 7.92467 1.7557 0.25
633 5.98058 7.71351 0.703282 0.25
634 3.11562 7.77357 3.9484 0.25
635 0.873636 7.22409 0.898665 0.5
636 1.35068 2.17727 1.31044 0.25
637 5.74271 0.317931 5.24236 0.25
638 4.81431 1.22663 5.24082 0.25
639 4.66254 2.0362 0.0373724 0.25
640 5.06668 7.58548 0.478233 0.25
641 1.29753 6.64014 5.15949 0.25
642 3.68198 0.664959 5.66084 0.25
643 6.17913 6.79986 5.79223 0.25
644 5.83583 1.12164 3.0497 0.25
645 2.26453 2.13732 1.43595 0.25
646 8.01044 6.75663 6.70916 0.25
647 2.44857 3.00303 4.10423 0.25
648 4.90583 1.16707 8.32996 0.25
649 0.409148 4.23508 2.00806 0.25
650 0.0461678 3.85429 1.39065 0.25
651 3.24767 3.02291 3.61302 0.25
652 6.76772 0.348104 7.08245 0.25
653 1.37691 6.60057 1.0563 0.25
654 0.99696 2.64108 8.25084 0.25
655 3.39897 3.6939 6.42494 0.5
656 0.583527 3.46452 7.13282 0.25
657 1.66381 5.52115 5.73537 0.25
658 6.97937 0.11467 3.7689 0.25
659 2.46972 1.79535 7.92828 0.25
660 6.96167 6.04977 4.02232 0.5
661 8.1533 1.18425 8.23102 0.25
662 4.01251 4.72141 4.16001 0.25
663 2.46993 3.67049 1.75569 0.25
664 6.57497 2.56765 4.86772 0.25
665 7.95085 3.83661 1.27082 0.25
666 5.87949 6.82789 6.55224 0.25
667 6.47719 3.37937 0.718717 0.25
668 6.9827 6.57273 1.79721 0.25
669 6.16441 4.87036 6.9829 0.25
670 5.48025 8.15188 4.68766 0.25
671 3.54401 4.7327 4.43751 0.25
672 2.67189 3.32475 2.01211 0.25
673 0.55171 1.15439 2.97489 0.25
674 4.92544 7.28171 3.41547 0.25
675 5.51614 3.70009 5.46899 0.25
676 7.72424 8.22881 2.12948 0.25
677 6.31095 1.66433 1.50261 0.25
678 7.64195 6.42696 4.85651 0.25
679 1.249 6.33568 1.44499 0.25
680 3.761 6.68188 8.15263 0.25
681 7.94502 -0.000416593 4.10503 0.25
682 2.52403 5.77883 1.54859 0.25
683 1.91287 7.7379 6.99019 0.25
684 0.476005 3.82003 1.65861 0.25
685 2.68489 3.71914 6.72594 0.25
686 4.07464 2.81737 6.62207 0.25
687 2.59062 4.11784 0.618347 0.25
688 3.73529 0.679426 6.12122 0.25
689 5.95625 4.27474 8.11886 0.25
690 6.24844 1.04786 2.76684 0.25
691 7.04928 1.18833 1.64846 0.25
692 4.98548 4.82672 1.90982 0.25
693 7.19312 1.86133 6.58675 0.25
694 7.59114 5.29998 4.94733 0.25
695 8.3407 3.21828 6.11334 0.25
696 5.67296 5.90503 3.37297 0.5
697 4.15628 3.73253 6.26776 0.25
698 1.77502 1.13433 5.21944 0.25
699 1.5873 6.90732 4.85389 0.25
700 3.84886 5.51158 1.26821 0.25
701 4.29145 1.78575 8.10454 0.25
702 2.0112 4.60337 7.54465 0.25
703 3.44205 6.59563 7.46229 0.5
704 4.59801 4.70429 7.9974 0.25
705 4.90282 3.30488 1.8709 0.25
706 5.10189 0.335165 0.200394 0.25
707 4.65824 3.84814 1.44289 0.5
708 5.31571 7.75939 8.10072 0.25
709 2.51962 7.01054 1.97744 0.5
710 1.9965 4.45032 6.73055 0.25
711 5.28525 6.42802 3.07629 0.25
712 0.298033 5.15754 8.07202 0.25
713 2.74414 4.04175 1.91949 0.25
714 5.15619 4.03889 0.934123 0.25
715 4.91472 6.56885 2.84623 0.25
716 6.74683 1.03503 7.58066 0.25
717 7.85995 7.60691 3.57522 0.25
718 6.03305 3.36494 6.97387 0.25
719 5.93137 4.64121 7.77168 0.25
720 1.84471 7.84957 4.28821 0.25
721 6.93315 1.81026 2.12978 0.25
722 2.50129 7.72414 3.39975 0.5
723 2.53482 7.42291 2.60678 0.25
724 7.02619 6.55144 1.29477 0.25
725 7.65485 6.47301 7.41164 0.25
726 1.04891 0.988031 5.62822 0.25
727 3.64011 0.291696 1.51828 0.25
728 3.73682 6.16664 8.07172 0.25
729 4.99203 5.8065 3.47406 0.25
730 2.98995 7.18052 7.32875 0.25
731 5.28464 3.63169 2.96848 0.25
732 4.06882 3.68833 6.74521 0.25
733 3.86611 5.53792 7.52929 0.25
734 4.33931 0.787866 2.82124 0.25
735 3.2691 2.92256 6.50107 0.25
736 7.85465 1.64724 8.07987 0.25
737 3.37463 1.04307 1.34219 0.25
738 8.29702 0.0700303 0.897174 0.25
739 4.87756 6.11439 3.12417 0.25
740 5.39975 7.16733 3.44822 0.25
741 0.709741 7.92706 1.14082 0.25
742 3.74976 4.58736 6.01513 0.25
743 7.00156 0.878303 1.21516 0.25
744 4.57594 0.535667 2.51783 0.25
745 3.52994 4.19557 5.85648 0.25
746 1.55025 6.19033 4.60195 0.5
747 4.729 0.336292 2.05726 0.25
748 2.82893 6.69108 7.13483 0.25
749 1.43664 1.34037 2.26619 0.25
750 0.0770781 3.49773 1.73326 0.25
751 1.434 0.783435 5.35434 0.25
752 6.3408 4.86023 7.70504 0.25
753 4.03115 0.677275 2.1135 0.5
754 4.19743 5.66421 0.946141 0.25
755 2.83084 2.64465 1.23015 0.5
756 7.88587 6.88684 7.67526 0.25
757 5.66525 6.82879 5.59232 0.25
758 6.83585 3.88209 7.36861 0.25
759 4.55521 8.12864 5.79899 0.25
760 0.0460231 2.75423 3.32638 0.25
761 3.7997 7.27369 7.20747 0.25
762 0.596655 1.78787 3.48998 0.5
763 4.17777 7.97184 2.04166 0.25
764 1.49381 6.26117 0.709053 0.25
765 7.56123 5.05219 3.13335 0.25
766 0.477414 4.10039 2.47725 0.25
767 2.65096 6.91312 7.55717 0.25
768 2.20597 2.75499 4.95415 0.25
769 7.99057 3.75053 1.73758 0.25
770 4.53662 1.18088 0.207959 0.25
771 6.71541 1.09187 6.00762 0.25
772 4.66842 2.30483 7.65497 0.25
773 5.42934 0.814369 4.80756 0.5
774 4.19038 7.88282 5.52237 0.25
775 7.88718 4.61939 2.60711 0.5
776 7.06809 3.80094 0.507249 0.5
777 5.94988 6.60272 0.022024 0.25
778 4.86805 8.24844 0.0750523 0.25
779 0.0335315 8.19507 4.07997 0.25
780 2.47779 1.39874 5.72734 0.25
781 2.48009 1.65401 0.0427357 0.25
782 1.38892 7.24418 0.339218 0.25
783 6.79429 3.30361 1.0443 0.25
784 2.21435 7.61279 2.26835 0.25
785 2.45551 1.56465 6.52476 0.25
786 2.69179 7.7285 2.26823 0.25
787 7.73817 7.11786 6.90031 0.25
788 0.00152031 4.17387 2.24073 0.25
789 3.49661 7.93458 4.24784 0.25
790 6.59925 0.238915 6.6257 0.25
791 0.396206 4.66744 3.14482 0.5
792 2.19952 0.339349 7.70551 0.25
793 8.24726 7.11195 1.70145 0.25
794 5.3661 6.3328 6.2209 0.5
795 2.31276 4.10211 3.26614 0.25
796 2.26863 6.03875 5.66591 0.25
797 6.60998 6.67529 1.05551 0.25
798 7.82413 4.32575 1.12776 0.25
799 3.92134 3.36988 5.99213 0.25
800 8.037 2.40713 3.32935 0.25
801 3.14935 7.88695 7.14284 0.25
802 3.76369 5.14608 4.26274 0.25
803 3.22063 8.30023 7.77102 0.5
804 3.64589 6.93033 1.97169 0.25
805 1.97708 8.3721 2.08365 0.25
806 2.42087 1.78725 3.79291 0.25
807 4.59094 6.14603 5.39004 0.25
808 4.09445 2.52749 8.09578 0.25
809 1.80046 5.95286 5.64618 0.25
810 6.53089 7.31126 6.42809 0.25
811 1.60795 3.31216 4.80423 0.5
812 5.56709 7.49197 0.589989 0.25
813 4.4311 2.11611 3.06459 0.25
814 1.68987 7.45934 7.35692 0.25
815 2.77548 8.07954 4.60756 0.25
816 0.563414 3.06047 4.85641 0.25
817 4.17863 2.16159 0.0211163 0.25
818 3.9323 2.14627 3.02182 0.25
819 1.81119 5.27099 1.19138 0.25
820 3.23221 3.1306 6.93513 0.25
821 1.48074 2.08682 7.98161 0.5
822 6.18189 4.34751 3.51449 0.5
823 4.71782 0.341111 8.32103 0.25
824 0.934357 0.582506 5.34159 0.25
825 3.97097 6.02796 7.6347 0.25
826 3.19417 3.59134 1.5413 0.5
827 5.73794 7.24876 6.32512 0.25
828 0.346523 2.46024 7.93843 0.25
829 0.1317 8.11225 4.62989 0.25
830 0.780486 1.99303 2.74977 0.25
831 2.12476 4.25437 7.9156 0.25
832 5.80418 4.61069 1.96728 0.25
833 2.14494 1.46412 6.13179 0.25
834 4.15859 0.32063 2.76127 0.25
835 6.64286 1.71123 1.16156 0.25
836 3.38253 7.55599 7.92371 0.25
837 4.02389 5.22961 7.91844 0.25
838 7.40109 0.662311 0.93093 0.25
839 6.13505 7.53763 6.20583 0.25
840 6.85953 4.68088 7.21904 0.5
841 3.18527 6.81986 2.17915 0.25
842 0.0498502 2.21715 2.79031 0.5
843 6.02252 3.80222 5.46704 0.25
844 4.91442 2.37518 8.07528 0.25
845 7.37557 2.60495 5.26642 0.25
846 3.60671 3.49879 7.35407 0.5
847 2.23538 5.05317 0.591733 0.25
848 1.99344 6.03254 5.22838 0.25
849 5.31486 7.79449 2.85113 0.25
850 6.35266 2.71513 5.56541 0.5
851 5.69334 8.19536 5.19921 0.25
852 6.63445 1.80251 8.01199 0.25
853 4.54371 7.62439 5.73232 0.25
854 4.26726 1.56348 5.62747 0.5
855 0.35289 4.0927 5.34169 0.25
856 0.634868 5.36698 3.15246 0.25
857 3.7111 6.63331 1.61034 0.25
858 2.69045 4.59247 3.90177 0.25
859 6.71695 4.59351 3.9549 0.25
860 7.791 3.93315 0.765722 0.25
861 4.81567 2.7317 7.42502 0.25
862 6.728 4.82819 3.49795 0.25
863 5.65365 6.34276 8.20723 0.25
864 7.66363 6.85336 2.35621 0.25
865 3.86321 5.69707 7.98088 0.25
866 5.04736 8.07883 3.17607 0.25
867 1.67801 4.37063 7.73249 0.25
868 1.96496 1.58509 0.520133 0.5
869 0.946401 3.19832 7.19146 0.25
870 6.16631 5.44498 3.13319 0.25
871 2.94494 7.49767 6.98858 0.25
872 5.85531 3.04652 5.12272 0.25
873 0.136426 0.0990243 0.466104 0.25
874 4.06942 1.07116 6.18682 0.25
875 2.28371 4.26265 1.29985 0.5
876 1.61331 5.73639 5.24543 0.25
877 8.27129 5.14107 7.77906 0.25
878 5.80432 1.05677 2.53633 0.25
879 3.285 8.11854 4.67961 0.25
880 6.33977 5.95862 2.99225 0.25
881 7.41895 1.0504 1.29917 0.25
882 7.86555 7.27719 7.3733 0.25
883 0.331675 3.76495 2.11133 0.25
884 7.26187 3.17949 0.883844 0.25
885 0.851584 4.28009 5.2834 0.25
886 8.05007 7.39497 3.10828 0.25
887 1.15771 6.81491 1.47059 0.25
888 1.01615 4.65105 3.58113 0.25
889 1.52094 8.09186 2.75537 0.25
890 0.295229 4.53042 2.43258 0.25
891 0.926074 2.15742 7.41233 0.25
892 7.60202 3.53685 0.984432 0.25
893 1.13308 7.66306 0.418109 0.25
894 4.10707 5.92771 1.38134 0.25
895 3.80045 5.90851 0.94207 0.25
896 1.64321 1.39185 8.27877 0.25
897 8.11701 4.24654 1.53163 0.25
898 0.620171 4.70288 3.85384 0.25
899 1.04291 8.16176 6.39944 0.25
900 5.12426 6.15422 5.60784 0.25
901 0.831273 1.5286 2.81722 0.25
902 7.45658 3.99529 1.14072 0.25
903 5.95028 3.66202 3.92462 0.25
904 6.76473 4.17454 7.69599 0.25
905 5.26436 1.06889 5.42846 0.25