ITEM: TIMESTEP
580000
ITEM: NUMBER OF ATOMS
1000
ITEM: BOX BOUNDS xy xz yz pp pp pp
0.0000000000000000e+00 8.3788359999999997e+00 0.0000000000000000e+00
0.0000000000000000e+00 8.3788359999999997e+00 0.0000000000000000e+00
0.0000000000000000e+00 8.3788359999999997e+00 0.0000000000000000e+00
ITEM: ATOMS id x y z radius
1 2.92717 6.88018 4.70921 0.25
2 4.66996 4.87482 5.40353 0.25
3 7.0259 4.6022 3.18185 0.25
4 7.35175 1.06463 5.96083 0.5
5 1.01028 5.79207 6.26804 0.25
6 8.30826 1.7627 3.46449 0.25
7 4.23892 3.29006 6.59398 0.25
8 4.85474 7.7175 2.90639 0.25
9 0.850166 6.09006 3.73145 0.25
10 4.17889 1.66426 3.31916 0.25
11 5.38592 0.0613591 7.87479 0.25
12 5.29076 3.40511 1.54817 0.25
13 0.55553 2.41748 7.43647 0.25
14 3.58848 2.80411 7.19056 0.25
15 0.251567 2.73744 6.0391 0.25
16 7.27492 1.13642 6.67382 0.25
17 0.693327 5.37477 8.20309 0.25
18 6.02518 7.38271 8.09375 0.25
19 4.52127 1.79702 7.62014 0.25
20 7.80009 1.36184 0.680347 0.25
21 5.03643 4.15683 1.9612 0.25
22 4.11601 3.27837 1.03022 0.25
23 2.25683 3.39918 2.00025 0.25
24 2.7665 1.96161 4.7442 0.25
25 2.78368 4.52328 3.00328 0.25
26 0.345407 0.0353002 5.71794 0.25
27 3.87427 0.446453 5.84204 0.25
28 4.09749 1.99855 8.35152 0.25
29 5.17058 6.94089 2.9634 0.25
30 7.61594 7.27111 2.48606 0.25
31 2.69719 0.404857 8.1295 0.25
32 0.915178 2.77915 7.32231 0.25
33 7.73361 0.234686 5.31303 0.25
34 2.07294 5.27383 1.34456 0.25
35 8.0952 0.0755145 4.59089 0.25
36 6.77557 1.94236 5.79455 0.5
37 4.4961 1.28688 2.15489 0.25
38 2.24686 3.44337 4.25075 0.25
39 6.15261 2.71547 4.84947 0.25
40 5.27537 7.75397 3.07422 0.25
41 6.76136 2.21247 2.73129 0.25
42 5.49491 6.03456 5.89008 0.25
43 3.51813 7.73759 4.81934 0.25
44 3.71228 0.0403876 5.50341 0.25
45 5.6328 4.05755 4.01221 0.25
46 3.23523 5.97822 1.40629 0.5
47 5.00343 0.938938 5.4313 0.25
48 7.94001 6.31653 6.80869 0.25
49 7.18716 6.68402 4.85156 0.25
50 7.93839 1.25035 1.13146 0.25
51 2.78145 3.33166 4.29616 0.25
52 0.819536 1.74952 2.38821 0.25
53 6.28473 5.19728 7.005 0.25
54 5.87257 3.30096 4.06619 0.25
55 1.26488 1.42516 5.89536 0.25
56 1.24077 7.20218 0.334043 0.25
57 4.61186 0.823702 1.92036 0.25
58 2.21675 2.11018 4.12493 0.25
59 4.7923 1.1407 6.33201 0.25
60 7.73715 5.40413 5.20613 0.25
61 5.04723 8.13929 8.09799 0.25
62 5.24168 2.04544 0.0230123 0.5
63 7.62874 6.6718 1.09597 0.25
64 1.20036 6.09948 1.04377 0.25
65 4.06722 0.128102 1.87317 0.25
66 2.29048 4.94589 7.22151 0.25
67 8.10415 4.99333 7.25034 0.25
68 6.97658 0.735781 6.57679 0.25
69 0.125296 5.60568 7.62725 0.25
70 1.89637 4.80626 0.688809 0.25
71 8.09014 1.24843 0.269531 0.25
72 6.55969 6.20183 3.36592 0.25
73 0.517426 7.73527 6.81287 0.25
74 7.16667 5.68183 6.84758 0.25
75 7.34211 8.35634 3.40919 0.25
76 7.47199 6.45171 4.47964 0.25
77 5.65472 2.86625 5.46514 0.25
78 5.41345 3.78235 1.21521 0.25
79 7.61741 5.01805 4.48906 0.25
80 5.77766 3.35599 5.4755 0.25
81 7.07345 1.31142 1.17296 0.25
82 0.196891 3.18948 6.11436 0.25
83 4.46373 5.76585 5.42424 0.25
84 1.0306 1.05297 5.69167 0.25
85 1.64897 0.804172 5.13873 0.25
86 4.53281 0.0881452 5.33816 0.25
87 1.69662 1.68152 1.34274 0.25
88 3.3578 6.73606 1.55853 0.25
89 6.79698 7.08828 0.738378 0.25
90 5.54461 6.36169 5.52195 0.25
91 3.91672 4.15185 6.26612 0.25
92 6.07396 4.63183 7.50714 0.25
93 5.13923 6.37853 5.18915 0.25
94 6.83791 8.30579 4.1173 0.25
95 0.089614 4.52246 7.69375 0.5
96 5.36053 3.06858 3.57323 0.5
97 4.10531 5.04513 8.10837 0.25
98 8.31782 2.2357 3.48862 0.25
99 1.50584 6.38473 5.95835 0.25
100 7.16477 7.01948 1.07407 0.25
101 0.75427 7.64829 8.12882 0.25
102 7.8582 4.76604 3.48261 0.25
103 6.72432 1.08816 1.36175 0.25
104 0.780383 4.79259 7.38961 0.25
105 5.18918 5.53927 5.37898 0.5
106 5.11387 0.472701 4.48385 0.25
107 4.33844 3.19255 7.06997 0.25
108 4.75855 1.38078 8.34187 0.25
109 0.709861 0.78201 5.91355 0.25
110 2.18441 7.9553 8.29244 0.25
111 3.22938 3.98958 7.11606 0.25
112 4.47517 2.07036 8.04558 0.25
113 1.86092 1.94741 2.03979 0.5
114 1.7007 3.75212 7.25313 0.25
115 4.4335 6.38877 5.92384 0.25
116 2.47888 7.19861 6.99386 0.25
117 4.13618 2.28753 3.7731 0.5
118 6.70993 7.20842 1.19135 0.25
119 1.14716 6.38444 3.521 0.25
120 0.251878 2.81794 2.47693 0.25
121 3.28103 4.06571 3.51363 0.25
122 6.57933 0.819174 6.24727 0.25
123 5.27113 0.501615 5.48001 0.25
124 8.08068 8.06078 2.52947 0.25
125 3.40133 2.00673 3.86204 0.25
126 3.67205 1.27967 5.89976 0.25
127 5.39 3.84143 1.71579 0.25
128 6.52576 5.48611 7.41827 0.25
129 1.25111 6.20631 3.9633 0.25
130 5.46318 6.37712 0.815088 0.25
131 7.08168 1.55292 6.3706 0.25
132 5.90011 4.13851 7.60572 0.25
133 3.18653 1.73022 3.54148 0.25
134 4.10711 2.39815 8.10891 0.25
135 5.36085 3.86842 3.63604 0.25
136 2.78972 2.41036 3.7277 0.5
137 2.95607 4.07696 3.09935 0.25
138 7.56313 7.84985 2.96279 0.5
139 2.5737 7.61498 5.10007 0.25
140 5.10058 7.6823 8.02632 0.25
141 7.79962 5.86473 5.00203 0.25
142 1.10373 5.07268 3.16387 0.25
143 2.29548 2.07908 0.0475512 0.25
144 5.11313 1.10964 2.55627 0.5
145 7.46751 1.91541 3.99239 0.25
146 6.073 7.36776 0.215437 0.25
147 6.45766 5.68344 4.42349 0.25
148 2.36862 3.0984 4.52828 0.25
149 4.49919 8.16833 2.40189 0.5
150 5.04125 2.84442 4.19328 0.25
151 3.6038 5.92035 7.07659 0.25
152 3.5552 4.57242 5.6789 0.25
153 6.78407 5.97879 2.22848 0.5
154 7.28453 2.38945 4.53052 0.5
155 2.9729 7.22977 7.72929 0.25
156 7.51542 3.49582 1.48375 0.25
157 7.67859 5.9444 1.46628 0.25
158 2.36472 3.54681 0.8026 0.25
159 7.03914 7.89789 4.39062 0.25
160 6.57307 1.93086 3.045 0.25
161 1.09564 5.30669 2.71396 0.25
162 5.8165 4.39866 7.12039 0.25
163 3.47846 3.60748 4.09958 0.5
164 2.60118 3.86719 2.52422 0.5
165 5.35152 7.95723 7.71395 0.25
166 8.34725 3.74083 7.77678 0.25
167 6.46989 4.2064 8.31153 0.25
168 4.68923 6.02103 5.73362 0.25
169 3.95602 4.31267 5.79852 0.25
170 8.18691 2.9424 6.21156 0.25
171 7.8446 5.8706 0.928976 0.25
172 1.08595 3.01318 6.84712 0.25
173 4.34063 6.19541 5.46611 0.25
174 2.31401 2.29345 1.05487 0.25
175 7.65675 2.44263 5.94057 0.5
176 2.31959 5.83872 6.23206 0.25
177 5.49709 3.57032 4.06596 0.25
178 3.19274 6.53255 1.96936 0.25
179 3.45314 2.15113 3.39448 0.25
180 5.7925 6.47188 6.0106 0.25
181 6.61293 4.3351 6.8954 0.25
182 3.31034 5.24509 3.33465 0.25
183 8.07567 7.52075 1.85301 0.25
184 3.7053 5.39039 8.21438 0.25
185 5.64502 7.01005 6.05827 0.25
186 7.49954 5.90795 4.61155 0.25
187 3.1221 5.15152 4.22453 0.25
188 0.905074 5.92534 3.26212 0.25
189 4.26905 6.62212 3.42246 0.25
190 4.1425 3.13707 1.49246 0.25
191 7.07281 1.71512 0.58641 0.5
192 0.737115 5.06277 7.81933 0.25
193 4.0535 5.20403 1.10996 0.25
194 2.7131 6.3703 1.94814 0.25
195 6.25033 5.61565 2.60182 0.25
196 2.35186 7.95246 2.66785 0.25
197 1.10813 8.26815 2.40483 0.25
198 7.57831 4.9433 7.16621 0.25
199 1.06899 1.1802 3.14113 0.25
200 4.67004 5.18094 1.54342 0.5
201 6.66155 1.40875 3.11884 0.25
202 8.38303 3.75595 5.35495 0.25
203 3.70148 1.74327 3.51425 0.25
204 5.71236 8.03693 0.0038793 0.5
205 2.50537 7.42841 4.35946 0.5
206 0.402224 4.49509 5.12343 0.25
207 5.61002 2.78522 4.1827 0.25
208 6.86377 5.3619 4.32044 0.25
209 5.36557 7.12464 0.101856 0.5
210 1.96201 7.96128 2.96128 0.25
211 0.760417 3.78133 5.02248 0.25
212 1.40656 7.88102 8.36034 0.5
213 0.243164 4.19049 2.65616 0.25
214 1.88892 7.95148 2.46506 0.25
215 2.94181 4.20067 3.89523 0.25
216 6.39809 1.95296 2.54677 0.25
217 5.05395 3.62477 1.99345 0.25
218 2.53929 3.51202 4.67672 0.25
219 4.38008 1.29773 2.67022 0.25
220 3.65501 3.50896 0.967818 0.25
221 4.14726 0.055942 5.65089 0.25
222 7.37166 0.595502 5.33236 0.25
223 8.17617 2.7215 2.68708 0.25
224 7.01478 5.59711 7.33433 0.25
225 7.35086 2.18424 5.36657 0.25
226 4.87124 2.16078 7.70677 0.25
227 6.44344 3.88101 7.01371 0.25
228 5.43988 3.15232 4.34001 0.25
229 5.72157 4.89602 1.83418 0.25
230 0.269675 8.25404 6.45247 0.5
231 5.36912 4.4812 1.37063 0.5
232 1.98348 2.96836 4.2817 0.25
233 4.10742 5.19253 3.99505 0.25
234 6.30838 1.19853 6.51139 0.25
235 3.20091 7.33498 4.66014 0.25
236 0.820082 2.62462 8.23698 0.25
237 8.18619 2.99633 7.3544 0.25
238 3.51988 0.852531 1.18946 0.25
239 0.367823 2.36381 3.8121 0.25
240 6.72228 6.3887 1.50855 0.25
241 3.37431 7.20492 7.96969 0.25
242 1.81761 7.32899 2.64735 0.5
243 2.95536 4.86312 3.3562 0.25
244 7.08734 3.48453 1.20982 0.25
245 2.02153 1.1506 6.05631 0.25
246 7.67877 8.065 3.71151 0.25
247 3.47346 2.52794 3.70372 0.25
248 3.66964 3.13787 1.29882 0.25
249 0.0846761 5.29929 7.1932 0.25
250 1.47981 3.88686 5.42286 0.25
251 5.39485 2.57282 4.81366 0.5
252 3.05315 2.09247 4.31778 0.25
253 7.83024 5.71834 7.27142 0.5
254 7.1882 6.06033 7.17319 0.25
255 4.67078 0.53198 5.92969 0.5
256 5.9153 6.2508 0.56073 0.25
257 1.05832 0.334798 2.71606 0.25
258 1.73629 1.63679 2.79331 0.25
259 4.56179 2.9709 1.70944 0.25
260 7.97568 6.28262 1.25513 0.25
261 3.85553 8.28527 1.5027 0.25
262 3.47307 2.39739 4.18467 0.25
263 2.16957 0.227438 0.248451 0.5
264 2.8457 4.34642 3.45609 0.25
265 1.01707 3.988 7.3482 0.5
266 0.875565 7.83 7.41044 0.5
267 5.09035 2.59244 7.89422 0.25
268 6.42436 7.70313 -0.00529703 0.25
269 2.04973 5.59112 0.50156 0.25
270 3.93551 3.57389 1.38057 0.25
271 7.4291 7.92853 4.77491 0.25
272 1.70134 0.92522 2.60892 0.25
273 1.32034 3.4514 6.99429 0.25
274 0.608399 5.55252 7.73379 0.25
275 4.67517 4.40934 1.67784 0.25
276 2.35569 3.08826 0.962773 0.25
277 6.51239 0.847218 6.77011 0.25
278 3.99906 6.06347 1.14519 0.25
279 4.04237 0.567048 5.11642 0.5
280 7.84474 8.22992 4.97478 0.25
281 0.941058 6.34074 0.68106 0.25
282 6.0515 7.21929 6.24988 0.25
283 0.989228 8.35453 6.24878 0.25
284 7.30254 4.37017 0.938409 0.25
285 1.9146 6.04803 1.14593 0.5
286 5.60856 6.72667 3.18069 0.25
287 1.4466 7.89361 3.511 0.5
288 2.86448 7.2709 5.00919 0.25
289 2.3983 7.12286 5.06273 0.25
290 2.14201 3.89215 1.93871 0.25
291 8.1301 7.64324 7.16188 0.25
292 7.8047 2.43111 3.40771 0.25
293 7.49007 4.43984 3.42566 0.25
294 5.54092 3.69793 3.17763 0.25
295 8.15399 4.20096 1.10874 0.25
296 0.597523 4.22247 4.46519 0.5
297 3.87706 3.07258 6.90511 0.25
298 6.13507 5.16624 7.49947 0.25
299 5.70583 4.95472 7.64548 0.25
300 6.36069 3.3086 0.580356 0.25
301 1.09165 7.33853 7.91089 0.25
302 0.21876 4.12832 1.38212 0.25
303 3.97758 0.653665 1.11926 0.25
304 2.13355 2.7668 4.79395 0.25
305 0.627573 4.83066 8.26272 0.25
306 2.3926 2.34643 4.83292 0.25
307 1.46526 4.87097 7.54764 0.5
308 3.76014 5.75368 2.96071 0.25
309 4.49158 1.1041 5.52976 0.25
310 0.995597 4.69969 4.04852 0.25
311 7.3675 0.000938432 3.93959 0.25
312 0.992751 0.959375 2.33817 0.5
313 0.962124 3.92606 5.44043 0.25
314 5.27809 3.31998 2.82553 0.25
315 1.09085 5.07225 8.19868 0.25
316 1.76872 4.20535 7.07484 0.25
317 7.54777 2.34473 3.8216 0.25
318 2.28146 2.60677 4.38505 0.25
319 4.68321 7.38632 8.18306 0.25
320 1.94485 6.20665 6.15376 0.25
321 4.39185 0.730015 1.48357 0.25
322 6.94532 6.37355 5.1159 0.25
323 0.844643 6.00491 4.20501 0.25
324 4.06567 7.31941 7.7831 0.5
325 0.935375 1.78522 0.148084 0.25
326 3.98247 4.85912 5.13274 0.5
327 7.53199 7.23887 3.38907 0.25
328 2.40662 7.80459 1.85872 0.25
329 1.2334 5.84555 3.614 0.25
330 8.1738 7.13431 7.33161 0.25
331 0.717493 5.32032 3.73839 0.5
332 7.44907 6.43136 2.22903 0.25
333 1.20685 1.61202 2.06932 0.25
334 6.7722 1.59997 1.34361 0.25
335 3.33241 3.14265 0.906924 0.25
336 2.95704 7.21079 6.77558 0.25
337 4.41773 7.14213 2.89945 0.5
338 6.46499 7.19671 8.34481 0.25
339 2.04611 7.93603 3.90406 0.25
340 4.79535 0.644264 4.76803 0.25
341 6.90196 8.3062 3.25338 0.25
342 0.829159 5.2701 7.36603 0.25
343 2.70008 1.26072 0.317985 0.25
344 1.48698 5.66638 2.75599 0.25
345 0.480194 1.42831 2.52082 0.25
346 0.425328 2.39638 7.89761 0.25
347 3.38053 5.90281 7.62363 0.25
348 7.3392 7.6485 2.18933 0.25
349 0.74981 2.17669 8.23302 0.25
350 6.80999 1.71216 2.69896 0.25
351 1.37729 7.02907 0.86131 0.25
352 6.31038 3.58373 7.76265 0.5
353 2.33915 8.38658 7.54459 0.25
354 1.9591 0.68793 6.00107 0.25
355 0.67647 0.282171 6.06102 0.25
356 1.6212 1.77696 5.94039 0.25
357 2.84937 3.8114 6.79476 0.25
358 6.16913 3.49707 5.23711 0.25
359 4.30816 1.03261 6.39343 0.25
360 1.92706 2.06829 1.31263 0.25
361 0.815675 7.58088 0.292803 0.25
362 6.12015 4.23941 6.77764 0.25
363 8.00697 3.97928 2.04398 0.25
364 5.95045 3.90724 7.12411 0.25
365 5.45947 6.12317 0.341698 0.25
366 5.11868 6.47505 0.468749 0.25
367 2.96092 4.2577 6.76769 0.25
368 6.82904 3.79117 8.24196 0.25
369 1.23896 6.70547 0.480291 0.25
370 5.57635 0.424473 8.18428 0.25
371 2.72119 8.09464 4.85422 0.25
372 2.34265 4.65151 0.569984 0.25
373 7.0263 2.86972 5.14859 0.25
374 3.68117 4.57299 4.57646 0.25
375 5.4073 0.888448 7.99022 0.25
376 2.64644 5.87192 1.07125 0.25
377 6.46539 1.40477 2.04791 0.5
378 0.301077 3.82201 7.4713 0.25
379 5.19414 1.37749 8.00645 0.25
380 2.43582 6.7123 4.77378 0.25
381 4.06425 5.45627 5.50602 0.25
382 1.97899 7.01565 4.79547 0.25
383 6.26458 5.27336 3.84148 0.5
384 1.26547 1.81509 1.61036 0.25
385 6.99513 1.63246 7.12398 0.5
386 1.47754 1.13718 5.4734 0.25
387 7.87054 0.865861 0.834508 0.25
388 1.007 5.84443 2.78798 0.25
389 4.26804 2.61027 7.44718 0.5
390 3.98291 0.673298 6.26332 0.25
391 5.42326 4.553 2.08004 0.25
392 8.17277 2.57921 3.16684 0.25
393 2.86452 6.58557 1.54064 0.25
394 0.824491 8.1485 8.09751 0.25
395 2.21086 1.72373 1.4245 0.25
396 4.64661 7.85522 8.01195 0.25
397 5.19097 0.686044 0.0437178 0.25
398 7.37091 1.55046 8.25792 0.25
399 3.23488 4.46634 3.18414 0.25
400 4.83275 4.32612 0.834597 0.25
401 2.19494 7.00972 3.71651 0.25
402 8.09505 8.04357 6.82288 0.25
403 7.83755 6.33846 0.794298 0.25
404 7.88719 6.81204 7.00968 0.25
405 0.378454 7.54668 0.0952072 0.25
406 5.35886 0.0878765 4.2092 0.25
407 2.29302 1.03964 8.10144 0.5
408 5.57306 3.16279 2.46602 0.25
409 2.27231 4.95774 0.97271 0.25
410 7.39133 0.915758 0.20555 0.5
411 4.54975 5.31634 5.22813 0.25
412 8.16454 7.22378 6.85659 0.25
413 1.39602 1.64493 0.36742 0.25
414 0.474505 3.13742 7.8088 0.5
415 6.53008 4.5551 2.9588 0.25
416 3.05337 3.01539 6.5529 0.25
417 3.51885 4.69304 3.82343 0.5
418 7.01125 6.68023 4.34369 0.25
419 3.91358 3.82941 5.91738 0.25
420 1.03338 3.17325 4.90282 0.25
421 3.96227 4.83447 5.8702 0.25
422 2.37397 5.45487 0.971466 0.25
423 0.239285 0.49744 5.916 0.25
424 0.639839 3.40068 4.69951 0.25
425 1.95148 2.82286 1.49072 0.5
426 7.0552 5.61552 5.04813 0.5
427 2.56673 2.24558 4.39453 0.25
428 4.10511 5.07306 3.52956 0.25
429 4.38808 4.52529 5.70957 0.25
430 1.8462 7.19652 3.37578 0.25
431 0.81748 3.44403 6.7922 0.25
432 1.5716 6.9015 4.10616 0.5
433 2.04437 1.71969 7.76964 0.25
434 0.856243 6.44857 1.20987 0.25
435 5.78333 3.28889 2.93432 0.25
436 1.34735 6.06768 3.09339 0.25
437 0.167364 1.09032 0.281567 0.25
438 1.1751 3.55788 5.1697 0.25
439 3.85519 2.54707 6.77052 0.25
440 5.07733 1.72855 7.69664 0.25
441 7.98869 4.07944 5.26042 0.25
442 2.50557 5.61568 1.43176 0.25
443 0.331463 2.86056 6.81852 0.5
444 2.10686 3.58047 1.53393 0.25
445 5.41499 7.36727 0.814917 0.25
446 4.2887 5.83724 3.51245 0.5
447 1.48045 1.62371 5.4651 0.25
448 5.90232 7.26186 5.7382 0.25
449 0.947572 5.65236 5.74801 0.25
450 2.82844 3.34687 0.927027 0.25
451 2.75481 6.80396 5.17623 0.25
452 2.40063 0.904272 0.502057 0.25
453 4.63456 4.50731 1.23089 0.25
454 0.00757729 3.46464 7.30105 0.25
455 7.80503 5.03784 7.61725 0.25
456 2.97449 1.68791 3.9664 0.25
457 2.42427 3.92467 7.27541 0.5
458 8.37712 7.62681 6.73681 0.25
459 4.97442 7.76073 0.0673363 0.25
460 5.52587 0.262616 4.65127 0.25
461 2.47184 3.45386 1.24052 0.25
462 6.32639 4.96797 3.16968 0.25
463 5.17425 7.35109 2.77381 0.25
464 7.41521 6.94409 6.98918 0.25
465 7.10746 2.63693 5.60079 0.25
466 4.14615 1.70846 2.78427 0.25
467 3.96495 6.09461 1.63111 0.25
468 6.87373 5.25332 2.92709 0.5
469 7.36856 7.43655 6.85342 0.25
470 1.23526 1.43652 8.31796 0.25
471 1.55336 1.00153 5.91198 0.25
472 2.0996 7.39083 1.88531 0.25
473 7.43657 5.06798 5.42365 0.25
474 5.0459 5.83864 6.02257 0.25
475 1.44419 1.2759 2.83801 0.25
476 7.27337 0.731266 7.89686 0.25
477 3.25361 5.47308 3.81137 0.25
478 6.15014 3.4397 7.06308 0.25
479 3.37496 7.30693 7.47191 0.25
480 4.83692 0.471687 2.22678 0.25
481 7.87145 2.13315 4.13081 0.25
482 7.09793 5.06988 4.58853 0.25
483 8.15706 5.54072 4.9132 0.25
484 2.77079 0.78463 0.167209 0.25
485 7.84491 7.62082 6.77759 0.25
486 2.43129 6.25524 6.02025 0.25
487 8.18038 7.63848 4.51587 0.25
488 4.35225 4.15137 6.02153 0.25
489 0.64827 8.00074 0.151111 0.25
490 8.11838 7.95808 2.03511 0.25
491 4.4981 2.97322 1.20857 0.25
492 2.28874 1.92417 4.61201 0.25
493 6.23721 4.68248 6.99847 0.25
494 4.86346 7.50596 2.46143 0.25
495 1.17288 6.05682 5.86101 0.25
496 3.01143 7.71994 4.81238 0.25
497 6.25155 4.35202 7.83762 0.25
498 3.39682 2.85215 4.07066 0.25
499 0.394248 5.18933 7.50357 0.25
500 3.86634 2.954 6.40317 0.25
501 6.00399 3.80926 4.06397 0.25
502 1.61226 8.01012 7.65874 0.25
503 5.84958 4.931 2.61598 0.5
504 7.78188 7.66544 2.25052 0.25
505 5.8936 1.4071 2.61769 0.25
506 7.07864 6.26331 4.67519 0.25
507 1.24419 0.275011 3.17986 0.25
508 0.708003 0.00837909 5.30306 0.25
509 8.15263 4.83719 5.04127 0.5
510 4.98036 1.74568 5.7013 0.25
511 0.605453 0.39638 5.5876 0.25
512 0.921608 0.701534 3.03539 0.25
513 3.96746 1.2239 5.50766 0.25
514 1.87585 5.67935 6.13603 0.25
515 0.927272 8.04017 6.67503 0.25
516 7.46676 1.78181 6.10506 0.25
517 7.37499 5.43963 4.38076 0.25
518 1.04541 3.65275 4.70089 0.25
519 6.36417 1.84455 1.50913 0.25
520 6.78985 2.05294 6.53797 0.25
521 7.72864 1.58552 0.235207 0.25
522 6.71718 1.39408 7.75218 0.25
523 5.18574 6.74216 5.47143 0.25
524 2.58748 0.462494 7.56976 0.25
525 6.26835 4.26669 7.30318 0.25
526 6.7625 5.38511 6.97949 0.25
527 7.48174 7.96321 4.19739 0.25
528 7.50205 1.5581 6.57589 0.25
529 6.75225 1.18754 2.68231 0.25
530 1.86227 1.88275 6.34607 0.25
531 7.98524 7.82241 4.08493 0.25
532 1.35472 0.755293 2.95287 0.25
533 7.20881 1.26102 7.88997 0.25
534 8.10954 5.81527 1.3812 0.25
535 0.559592 3.24983 5.45751 0.5
536 6.93589 2.72154 6.06659 0.25
537 4.05552 0.949783 5.86994 0.25
538 6.54411 5.19976 4.63072 0.25
539 2.13179 1.40694 6.49341 0.25
540 8.17668 6.33367 2.03459 0.5
541 7.62512 3.97001 1.69988 0.25
542 2.21317 2.13794 7.94726 0.25
543 3.29698 7.45779 7.01634 0.25
544 7.61152 6.65023 6.65702 0.25
545 1.2707 5.6987 4.07849 0.25
546 4.61593 5.99288 6.18698 0.25
547 4.90815 2.72345 8.38706 0.25
548 5.83671 7.63903 6.49555 0.25
549 0.161932 7.96068 7.08194 0.25
550 6.06887 6.92644 8.33661 0.25
551 4.59113 1.65925 2.48856 0.25
552 3.70057 5.3868 3.70212 0.25
553 7.01566 7.7395 3.71816 0.5
554 4.51346 6.38004 3.09667 0.25
555 4.98737 6.67097 3.54852 0.5
556 7.36735 0.646467 0.91407 0.25
557 7.24709 5.03256 3.80127 0.5
558 6.54341 8.29259 3.62281 0.25
559 1.31991 0.380174 5.67052 0.5
560 5.13262 3.31318 2.3483 0.25
561 2.98556 3.04653 3.95231 0.25
562 5.02896 0.0796072 5.35769 0.25
563 2.37996 6.53543 1.58602 0.25
564 6.09228 6.93819 0.717025 0.5
565 6.59046 1.63184 6.49193 0.25
566 1.27928 1.69469 2.58486 0.25
567 4.23253 5.87768 5.85437 0.25
568 6.16042 1.23736 3.04362 0.25
569 2.47746 8.29723 8.047 0.25
570 1.9436 6.54923 4.67681 0.25
571 2.92609 4.43968 7.22052 0.25
572 8.1165 2.73875 3.98432 0.5
573 4.07793 1.45694 2.36647 0.25
574 1.46177 5.98779 6.26974 0.25
575 2.05269 1.73624 8.27297 0.25
576 4.12206 5.67509 7.59334 0.25
577 5.19706 0.381621 4.98908 0.25
578 1.92961 7.43816 3.83669 0.25
579 7.35993 5.237 7.54417 0.25
580 7.38218 0.230622 4.65082 0.5
581 4.20332 4.56216 6.19324 0.25
582 5.91991 3.05266 4.51194 0.25
583 5.69421 3.71988 4.7424 0.5
584 4.7531 6.48539 5.52404 0.25
585 4.9736 2.98598 1.37912 0.25
586 1.78447 0.194105 2.62977 0.5
587 4.94348 6.9702 2.51279 0.25
588 5.85106 5.17096 3.28692 0.25
589 0.0796684 2.58829 7.51105 0.25
590 3.66512 6.42951 1.828 0.25
591 6.5992 1.33365 0.926609 0.25
592 7.53808 7.07378 1.76899 0.5
593 6.90597 6.89045 1.50991 0.25
594 1.83939 4.98462 0.0335508 0.5
595 0.452639 3.87007 7.93668 0.25
596 2.0807 0.779032 0.789639 0.25
597 0.0841248 0.393187 5.10897 0.5
598 2.56878 6.418 1.11845 0.25
599 1.9912 8.25015 7.9757 0.25
600 7.84492 0.651835 5.54125 0.25
601 0.685417 0.86646 5.38348 0.25
602 3.87695 0.156636 2.29998 0.25
603 4.15961 5.55285 8.09211 0.25
604 7.27745 5.23455 7.05775 0.25
605 7.9159 1.98988 3.64367 0.25
606 2.3039 8.13178 2.20217 0.25
607 4.36036 5.21137 7.73287 0.25
608 3.54226 7.75577 7.33684 0.25
609 6.71527 4.8187 4.3191 0.25
610 1.79167 1.39744 5.72976 0.25
611 2.93114 0.692296 7.79986 0.25
612 0.831713 7.23139 8.38202 0.25
613 6.8761 1.42706 8.25325 0.25
614 4.69801 0.96978 5.05431 0.25
615 4.8583 2.53168 3.80214 0.25
616 1.26035 5.53941 3.18174 0.25
617 1.44143 7.93006 2.24973 0.25
618 7.51255 7.27137 4.43399 0.5
619 7.85901 8.0164 4.52638 0.25
620 8.33779 7.31292 2.5496 0.5
621 4.36311 6.43942 3.90099 0.25
622 5.87929 6.77543 6.43914 0.25
623 5.34083 6.87193 0.793851 0.25
624 1.26343 3.53624 5.6192 0.25
625 1.03602 5.44505 7.79676 0.25
626 3.66083 0.390245 1.35503 0.25
627 4.9236 4.65605 1.99675 0.25
628 8.32809 3.46743 2.46489 0.5
629 7.07383 3.38319 0.0365687 0.25
630 1.08198 8.26046 2.91731 0.25
631 1.70578 1.45692 7.96485 0.25
632 7.65703 7.86549 1.85046 0.25
633 6.25298 7.71786 0.50801 0.25
634 2.95751 7.94008 3.96518 0.25
635 0.653928 7.06592 0.769098 0.5
636 1.49569 2.21905 1.4786 0.25
637 5.64745 0.319607 5.14777 0.25
638 4.85005 1.39464 5.3734 0.25
639 4.50945 1.81099 0.0825098 0.25
640 5.24884 7.74408 0.541577 0.25
641 1.2883 6.69304 5.27565 0.25
642 3.66154 0.841145 5.62696 0.25
643 6.06601 6.82865 5.96369 0.25
644 5.83677 0.904505 2.78059 0.25
645 2.34922 2.22077 1.55235 0.25
646 8.06469 6.72978 6.57034 0.25
647 2.49045 2.99598 4.07219 0.25
648 5.25499 1.20652 0.065394 0.25
649 0.456933 4.08117 1.82667 0.25
650 8.28986 3.76456 1.29578 0.25
651 3.27928 3.01135 3.58347 0.25
652 6.94752 0.906025 7.01243 0.25
653 1.28622 6.54224 0.946188 0.25
654 0.370851 2.50318 8.35395 0.25
655 3.49568 3.62983 6.51585 0.5
656 0.471217 3.53814 7.14863 0.25
657 1.37899 5.6012 5.96609 0.25
658 6.94746 0.169729 3.67863 0.25
659 2.50555 1.75219 8.00047 0.25
660 7.03682 6.0154 3.99735 0.5
661 8.18514 0.989823 8.30098 0.25
662 3.93656 4.94135 4.37146 0.25
663 2.4869 3.72105 1.73431 0.25
664 6.67666 2.69457 4.89238 0.25
665 7.8297 3.79532 1.24397 0.25
666 5.61691 7.18491 6.46038 0.25
667 6.59624 3.40432 0.149458 0.25
668 7.14289 6.51313 1.80871 0.25
669 5.83075 4.91119 7.16041 0.25
670 5.44295 8.0835 4.49842 0.25
671 3.48176 5.00705 4.60646 0.25
672 2.77605 3.32234 1.99731 0.25
673 0.616963 1.16606 3.00111 0.25
674 4.99248 7.36525 3.23779 0.25
675 5.42564 3.69128 5.43566 0.25
676 7.64876 8.09803 2.24885 0.25
677 6.29117 1.37926 1.30138 0.25
678 7.46517 6.26899 4.95616 0.25
679 1.33726 6.3837 1.42676 0.25
680 3.59711 6.74792 8.01506 0.25
681 7.83664 8.29365 4.13654 0.25
682 2.56357 6.09628 1.52949 0.25
683 1.65948 7.75511 7.25932 0.25
684 0.372703 3.69884 1.40438 0.25
685 2.79293 3.35586 6.85893 0.25
686 4.23609 2.7886 6.70296 0.25
687 1.94735 4.37448 0.45691 0.25
688 3.59112 0.800091 6.09174 0.25
689 5.972 4.11619 8.15351 0.25
690 6.27889 1.05444 2.61159 0.25
691 7.06017 1.2635 1.66211 0.25
692 5.27522 5.01708 1.98514 0.25
693 7.25008 2.04521 6.44573 0.25
694 7.4726 5.06841 4.927 0.25
695 8.25929 2.96109 5.72908 0.25
696 5.77386 5.96553 3.20872 0.5
697 4.22024 3.74836 6.35145 0.25
698 1.89059 0.92141 5.56943 0.25
699 1.52478 6.78576 4.86793 0.25
700 4.29602 5.66762 1.0335 0.25
701 4.78734 1.73489 8.04367 0.25
702 2.0799 4.503 7.35194 0.25
703 3.35893 6.66373 7.36266 0.5
704 4.52033 5.30926 8.25951 0.25
705 5.05637 3.11503 1.87495 0.25
706 5.19124 0.164705 8.3379 0.25
707 4.67995 3.70129 1.35087 0.5
708 5.59591 7.51102 7.86371 0.25
709 2.76531 7.1171 2.00011 0.5
710 2.01862 4.63205 6.9351 0.25
711 5.30738 6.44269 2.91687 0.25
712 0.287004 5.20229 8.00047 0.25
713 2.61766 4.17363 1.79454 0.25
714 5.20183 3.97197 0.819767 0.25
715 4.89486 6.53735 2.76352 0.25
716 6.98949 0.986045 7.54628 0.25
717 7.78667 7.56003 3.6785 0.25
718 6.09311 3.73302 6.6532 0.25
719 5.76833 4.52234 7.94026 0.25
720 1.75675 7.69586 4.19558 0.25
721 6.78484 2.02134 2.26661 0.25
722 2.49284 7.65651 3.3899 0.5
723 2.62235 7.47874 2.68908 0.25
724 7.16072 6.57954 1.30539 0.25
725 7.55796 6.4598 7.13329 0.25
726 1.14202 0.897642 5.16539 0.25
727 4.15962 0.302927 1.42541 0.25
728 3.58746 6.20923 7.96168 0.25
729 5.04095 5.91677 3.539 0.25
730 2.9149 7.21974 7.2532 0.25
731 5.54914 2.90472 2.90925 0.25
732 4.12035 3.60809 6.90851 0.25
733 3.64874 5.55331 7.44255 0.25
734 3.97682 0.982876 2.59439 0.25
735 3.49616 2.82751 6.66231 0.25
736 7.90927 1.38755 8.21833 0.25
737 3.57879 0.494103 0.855357 0.25
738 0.129576 7.9788 0.142608 0.25
739 4.92544 6.10701 3.07674 0.25
740 5.51565 7.2794 3.18733 0.25
741 0.441977 7.76585 0.515079 0.25
742 3.66872 4.54504 6.16773 0.25
743 7.19316 0.88922 1.3085 0.25
744 4.45751 0.859842 2.41533 0.25
745 3.54365 4.09823 5.92091 0.25
746 1.36721 6.10394 4.73286 0.5
747 4.33667 0.434853 2.22599 0.25
748 2.76603 6.82964 6.97704 0.25
749 1.58516 1.37223 2.3705 0.25
750 0.0767177 3.39763 1.6378 0.25
751 1.3319 0.470841 4.94143 0.25
752 6.1937 4.8767 7.87874 0.25
753 3.84244 0.843466 1.93197 0.5
754 4.38267 5.88577 1.49436 0.25
755 2.89909 2.75433 1.42081 0.5
756 7.69585 6.91891 7.40555 0.25
757 5.70453 6.8244 5.61913 0.25
758 6.77282 4.06516 7.3703 0.25
759 4.11479 8.21439 5.19405 0.25
760 0.305193 2.56876 3.376 0.25
761 3.71434 7.35703 7.16126 0.25
762 0.639261 1.79073 3.48049 0.5
763 3.76655 8.11524 2.02179 0.25
764 1.4437 6.21715 0.617329 0.25
765 7.48794 4.80278 3.11525 0.25
766 0.518203 4.40768 2.22578 0.25
767 2.61748 6.96034 7.48254 0.25
768 2.42948 3.15682 5.03438 0.25
769 7.9912 3.62825 1.71514 0.25
770 4.94884 0.986625 8.11645 0.25
771 6.64747 1.31904 6.15149 0.25
772 4.63162 2.50298 8.03307 0.25
773 5.41586 1.02349 4.89668 0.5
774 3.6544 8.25561 4.98092 0.25
775 7.9747 4.30654 2.85671 0.5
776 6.86677 3.88365 0.604208 0.5
777 5.83103 6.44351 0.0786569 0.25
778 5.07483 8.12623 0.253502 0.25
779 8.32589 8.08369 4.3504 0.25
780 2.10146 1.6642 6.00408 0.25
781 2.5095 1.66337 0.0856939 0.25
782 1.21161 7.55397 0.615042 0.25
783 6.85711 3.13467 0.47728 0.25
784 2.26976 7.64985 2.2836 0.25
785 2.42411 1.80288 6.42027 0.25
786 2.72482 7.8201 2.33044 0.25
787 7.71479 7.14788 6.63276 0.25
788 0.0889096 4.14954 2.18913 0.25
789 3.70837 8.03133 4.47666 0.25
790 6.76206 0.43824 6.94402 0.25
791 0.562104 4.80735 2.93166 0.5
792 2.23276 0.339755 7.88567 0.25
793 8.30142 7.05881 1.8173 0.25
794 5.11476 6.59108 6.18747 0.5
795 2.43218 4.18758 3.1849 0.25
796 2.12301 5.88659 5.76702 0.25
797 6.73371 6.73454 1.07086 0.25
798 7.66776 4.31708 1.26531 0.25
799 4.00594 3.3422 6.11251 0.25
800 8.01244 2.05354 3.15815 0.25
801 3.15913 7.96716 7.0535 0.25
802 3.59639 5.32619 4.22975 0.25
803 3.09205 8.34389 7.66508 0.5
804 3.8804 6.8892 1.68118 0.25
805 1.8957 7.83804 2.02488 0.25
806 2.5899 1.79874 4.23327 0.25
807 4.77182 6.10246 5.27653 0.25
808 4.09229 1.98539 7.78369 0.25
809 1.62346 5.95343 5.80357 0.25
810 6.32521 7.50806 6.51316 0.25
811 1.77786 3.4397 4.86346 0.5
812 5.77029 7.60431 0.57633 0.25
813 4.35873 2.0872 3.08316 0.25
814 1.47105 7.56433 7.65938 0.25
815 2.86607 8.04988 4.41509 0.25
816 1.28599 3.08538 5.35715 0.25
817 4.33908 1.6069 8.05689 0.25
818 3.9021 1.98046 3.13597 0.25
819 1.90464 5.252 0.867613 0.25
820 3.28377 3.13385 7.01235 0.25
821 1.49883 2.12841 8.17795 0.5
822 5.9779 4.32931 3.44271 0.5
823 5.10318 0.493202 7.97909 0.25
824 0.831213 0.460362 5.09298 0.25
825 3.83601 6.0763 7.50621 0.25
826 3.16195 3.65773 1.51 0.5
827 5.63258 7.49584 6.05328 0.25
828 0.205646 2.0752 7.64919 0.25
829 8.3102 8.02792 4.83692 0.25
830 0.9703 1.98213 2.80753 0.25
831 2.14207 4.45646 7.80603 0.25
832 5.90308 4.47619 1.969 0.25
833 1.67118 1.41908 6.23194 0.25
834 4.08945 0.498947 2.60264 0.25
835 6.424 1.79806 0.993424 0.25
836 3.35786 7.65788 7.79853 0.25
837 3.88982 5.25718 7.74883 0.25
838 7.69143 0.821201 1.29089 0.25
839 6.05488 7.67271 6.07113 0.25
840 6.79994 4.77611 7.43349 0.5
841 3.57177 6.87819 2.03382 0.25
842 0.218589 2.11868 2.79626 0.5
843 5.88571 3.84715 5.44997 0.25
844 4.50382 2.33923 0.0644816 0.25
845 7.41819 2.62432 5.23395 0.25
846 3.73377 3.50042 7.50454 0.5
847 2.29525 5.15006 0.562853 0.25
848 1.73811 5.92077 5.32555 0.25
849 5.18912 7.81428 2.56359 0.25
850 6.4011 2.85888 5.54019 0.5
851 5.3852 8.28792 5.00533 0.25
852 7.06738 1.771 7.91138 0.25
853 4.02741 8.34126 4.68789 0.25
854 4.31324 1.63346 6.0013 0.5
855 0.430789 4.01382 5.24144 0.25
856 0.788877 5.45818 3.04155 0.25
857 3.83286 6.49198 1.39268 0.25
858 2.79545 4.68508 3.81243 0.25
859 6.58745 4.54792 3.8972 0.25
860 7.65068 4.04703 0.864462 0.25
861 4.76729 2.94693 7.92016 0.25
862 6.60965 4.6905 3.4485 0.25
863 5.30311 6.39916 0.0269291 0.25
864 7.78531 6.76356 2.47181 0.25
865 3.75516 5.74609 7.90483 0.25
866 5.07845 8.19631 2.87866 0.25
867 1.75776 4.13995 7.57695 0.25
868 2.12207 1.64919 0.67569 0.5
869 0.876689 3.28452 7.20261 0.25
870 6.18801 5.44594 3.05041 0.25
871 2.76361 7.61691 6.98378 0.25
872 5.89499 3.09045 5.04963 0.25
873 0.377268 7.91776 8.07476 0.25
874 3.85489 1.15813 6.34173 0.25
875 2.25267 4.19691 1.14469 0.5
876 1.32318 5.74243 5.46002 0.25
877 8.24736 5.22681 7.68097 0.25
878 5.88223 1.0495 2.28777 0.25
879 3.22024 8.15055 4.73795 0.25
880 6.44522 5.89664 2.95792 0.25
881 7.514 1.24802 1.41014 0.25
882 7.74839 7.29591 7.10661 0.25
883 0.513029 3.92038 2.32433 0.25
884 7.16488 3.19435 0.877666 0.25
885 0.827535 4.29225 5.11072 0.25
886 7.99361 7.36532 3.23349 0.25
887 1.11729 6.84589 1.29994 0.25
888 1.08605 4.67925 3.55419 0.25
889 1.46485 8.01004 2.7547 0.25
890 0.0972711 4.60382 2.37009 0.25
891 0.900963 2.47851 7.7743 0.25
892 7.45137 3.62382 0.962023 0.25
893 0.897235 7.963 0.575484 0.25
894 3.99785 5.61576 1.42531 0.25
895 3.76239 5.6367 1.00608 0.25
896 1.72055 1.41789 0.0805012 0.25
897 8.07354 4.14183 1.54639 0.25
898 0.651858 4.52309 3.67318 0.25
899 0.772349 8.24221 5.79819 0.25
900 5.10863 6.19429 5.60701 0.25
901 0.856678 1.53123 2.83513 0.25
902 7.34551 3.94637 1.24713 0.25
903 5.77717 3.67783 3.65886 0.25
904 6.73222 4.13425 7.87651 0.25
905 5.3256 0.934436 5.7275 0.25
906 1.9684 1.04327 0.366775 0.25