ITEM: TIMESTEP
460000
ITEM: NUMBER OF ATOMS
1000
ITEM: BOX BOUNDS xy xz yz pp pp pp
0.0000000000000000e+00 8.3788359999999997e+00 0.0000000000000000e+00
0.0000000000000000e+00 8.3788359999999997e+00 0.0000000000000000e+00
0.0000000000000000e+00 8.3788359999999997e+00 0.0000000000000000e+00
ITEM: ATOMS id x y z radius
1 2.7273 7.02322 4.97382 0.25
2 4.7234 4.94603 5.40073 0.25
3 7.28106 4.71449 3.18857 0.25
4 7.32546 1.02099 5.74303 0.5
5 1.08033 5.94007 6.26628 0.25
6 8.26547 1.85569 3.39479 0.25
7 4.20113 3.35416 6.60278 0.25
8 4.81632 7.75596 2.99437 0.25
9 1.03103 6.07096 3.71143 0.25
10 4.26716 1.7242 3.27898 0.25
11 5.44523 8.29262 7.81789 0.25
12 5.19528 3.49296 1.56722 0.25
13 0.441785 2.40074 7.50167 0.25
14 3.58329 2.76867 7.11703 0.25
15 8.15184 2.93763 6.29132 0.25
16 7.37467 0.86642 6.62106 0.25
17 0.841089 5.47111 8.00048 0.25
18 5.84467 7.41885 8.15485 0.25
19 4.24028 1.88903 7.70411 0.25
20 7.63893 1.27283 0.555114 0.25
21 4.93956 4.21719 1.9297 0.25
22 4.04459 3.39144 1.16966 0.25
23 2.19069 3.43904 2.00517 0.25
24 2.81657 1.45608 4.21451 0.25
25 2.59395 4.50986 3.09015 0.25
26 0.348521 8.16717 5.73728 0.25
27 3.97398 0.370019 5.85129 0.25
28 4.19254 2.11634 0.0997473 0.25
29 5.08275 6.96517 3.01833 0.25
30 7.56045 7.39962 2.39612 0.25
31 2.74778 0.428238 8.15944 0.25
32 0.834313 2.65253 7.32983 0.25
33 7.73043 0.472216 5.32081 0.25
34 2.02585 4.99489 1.46728 0.25
35 8.19867 0.0769908 4.60521 0.25
36 6.82393 1.93916 5.77008 0.5
37 4.51374 1.09863 2.3802 0.25
38 2.24148 3.35257 4.36037 0.25
39 6.10196 2.65675 4.84777 0.25
40 5.31398 7.7284 3.17233 0.25
41 6.83626 2.19634 2.55316 0.25
42 5.52478 5.93207 5.90542 0.25
43 3.45818 7.71806 4.98752 0.25
44 3.81811 8.31982 5.61758 0.25
45 5.62398 4.09568 4.05965 0.25
46 3.19364 6.02521 1.40355 0.5
47 4.98192 0.902085 5.45546 0.25
48 7.80973 6.32123 6.90174 0.25
49 7.38738 6.85504 4.74923 0.25
50 7.78788 1.0493 1.01306 0.25
51 2.72456 3.30515 4.42258 0.25
52 0.795365 1.74769 2.38748 0.25
53 6.38278 5.25396 7.16201 0.25
54 5.92951 3.2595 4.08342 0.25
55 1.43006 1.52707 5.90786 0.25
56 0.978942 7.17236 0.0797863 0.25
57 4.81673 0.837078 2.0698 0.25
58 2.2609 2.09316 4.22351 0.25
59 4.71508 1.23929 6.3226 0.25
60 7.77789 5.52966 5.25803 0.25
61 5.00527 8.30061 8.13272 0.25
62 5.2818 1.95563 8.1068 0.5
63 7.53333 6.69966 1.15471 0.25
64 1.14512 5.97828 0.654934 0.25
65 4.19551 0.111312 1.81543 0.25
66 2.31348 4.78119 7.15098 0.25
67 7.88491 4.96009 7.05869 0.25
68 7.14055 0.610452 6.33948 0.25
69 0.252088 5.49267 7.43346 0.25
70 2.02743 4.78721 0.602208 0.25
71 7.98183 1.23493 0.215575 0.25
72 6.47748 6.35552 3.4367 0.25
73 0.503672 7.49121 6.83919 0.25
74 7.26983 5.6224 6.89107 0.25
75 7.34994 0.0643657 3.471 0.25
76 7.54869 6.49584 4.40469 0.25
77 5.69556 2.87055 5.42708 0.25
78 5.31689 3.84077 1.18689 0.25
79 7.69195 5.12631 4.47666 0.25
80 5.89904 3.33126 5.42343 0.25
81 7.03241 1.44266 1.28123 0.25
82 8.26949 2.86509 5.83387 0.25
83 4.39743 5.75788 5.54445 0.25
84 1.15827 1.1528 6.06853 0.25
85 1.53364 1.56255 5.38426 0.25
86 4.71363 8.37047 5.53394 0.25
87 1.69131 1.76417 1.27036 0.25
88 3.21099 6.82962 1.63523 0.25
89 6.656 6.98526 0.705915 0.25
90 5.57252 6.26373 5.50294 0.25
91 3.92054 4.16477 6.25426 0.25
92 6.03142 4.44999 7.54814 0.25
93 5.15009 6.34574 5.23587 0.25
94 6.95675 8.30381 4.21192 0.25
95 0.317205 4.49934 7.64258 0.5
96 5.48715 3.11503 3.47268 0.5
97 4.28161 4.88833 7.8511 0.25
98 8.15322 2.34538 3.31004 0.25
99 1.65597 6.4602 5.90124 0.25
100 7.01003 6.94026 1.0843 0.25
101 0.619785 7.91505 0.0575894 0.25
102 8.12778 4.82408 3.24483 0.25
103 6.61556 1.25044 1.41189 0.25
104 0.905956 4.74436 7.30065 0.25
105 5.15261 5.53207 5.35229 0.5
106 5.33331 0.280488 4.62578 0.25
107 4.22898 3.33417 7.12706 0.25
108 4.95761 1.44495 -0.0500158 0.25
109 0.601656 0.478168 6.27887 0.25
110 2.19502 7.96734 8.31412 0.25
111 3.09134 3.83864 6.94791 0.25
112 4.47476 2.09769 8.06142 0.25
113 1.86789 2.01004 1.9591 0.5
114 1.68434 3.69157 7.02021 0.25
115 4.52301 6.38607 6.07097 0.25
116 2.49917 7.12411 7.11209 0.25
117 4.17087 2.40051 3.72293 0.5
118 6.59726 7.19946 1.15542 0.25
119 0.905562 6.17427 2.86295 0.25
120 0.117289 2.7801 2.36417 0.25
121 3.14973 4.09356 3.55346 0.25
122 6.70731 0.755391 6.23052 0.25
123 5.34402 0.547122 5.60063 0.25
124 8.09999 8.08678 2.41538 0.25
125 3.46278 2.05311 3.80628 0.25
126 3.6845 1.09844 5.8009 0.25
127 5.31836 3.94282 1.68966 0.25
128 6.72791 5.44473 7.49341 0.25
129 1.29988 6.29729 4.09941 0.25
130 5.50503 6.27341 0.93647 0.25
131 7.06088 1.56293 6.28014 0.25
132 5.8692 4.01007 7.66928 0.25
133 3.26492 1.78217 3.41094 0.25
134 4.2911 2.52743 8.23199 0.25
135 5.58365 3.86345 3.62348 0.25
136 2.80563 2.42285 3.71351 0.5
137 2.81626 4.05877 3.14197 0.25
138 7.57456 7.94941 2.88973 0.5
139 2.58965 8.24653 4.86257 0.25
140 5.11916 7.924 7.84812 0.25
141 7.8494 5.9647 5.01611 0.25
142 1.10247 4.98899 3.19387 0.25
143 2.16476 2.08331 8.33762 0.25
144 5.10165 0.991164 2.79874 0.5
145 7.49728 1.8996 3.89549 0.25
146 5.91917 7.41587 0.32942 0.25
147 6.54304 5.77029 4.54315 0.25
148 2.11524 2.89071 4.46862 0.25
149 4.51715 8.18867 2.45391 0.5
150 5.03183 3.03054 4.13987 0.25
151 3.55637 5.92518 7.25242 0.25
152 3.5926 4.5592 5.62177 0.25
153 6.70049 6.13617 2.25488 0.5
154 7.20701 2.2521 4.48251 0.5
155 3.018 7.27368 7.7703 0.25
156 7.49073 3.51449 1.43487 0.25
157 7.65009 5.96922 1.55395 0.25
158 2.3736 3.7165 0.733871 0.25
159 7.2212 7.88935 4.38717 0.25
160 6.45699 2.08402 2.8617 0.25
161 1.0081 5.18213 2.77333 0.25
162 5.75364 4.23752 7.21866 0.25
163 3.38767 3.64127 4.18427 0.5
164 2.41627 3.91919 2.51454 0.5
165 5.62967 7.84433 7.7748 0.25
166 0.0639194 3.78757 7.8155 0.25
167 6.5295 4.04609 8.21502 0.25
168 4.75731 5.99702 5.83828 0.25
169 3.98861 4.29901 5.76352 0.25
170 0.0347405 2.5359 6.2066 0.25
171 7.8168 5.87149 1.06035 0.25
172 1.00158 2.84713 6.88466 0.25
173 4.36526 6.29158 5.60076 0.25
174 2.33287 2.32238 0.978836 0.25
175 7.74249 2.41066 5.87565 0.5
176 2.31845 5.61175 6.16468 0.25
177 5.50383 3.59176 4.02631 0.25
178 2.98861 6.49602 1.95244 0.25
179 3.56931 2.22602 3.37006 0.25
180 5.91101 6.32293 5.90153 0.25
181 6.50609 4.07029 6.86442 0.25
182 3.06518 5.27154 3.37709 0.25
183 8.11866 7.64413 1.77433 0.25
184 4.22926 5.15999 8.27661 0.25
185 5.8193 6.79723 6.04086 0.25
186 7.58136 6.01544 4.53672 0.25
187 3.33314 5.29978 4.33362 0.25
188 0.910121 5.87239 3.25143 0.25
189 4.18333 6.70694 3.59587 0.25
190 4.05553 3.24 1.61117 0.25
191 6.89181 1.38138 0.437415 0.5
192 0.915573 5.04367 7.69547 0.25
193 3.86327 5.67197 1.71592 0.25
194 2.51058 6.37894 1.86191 0.25
195 6.28525 5.7329 2.72515 0.25
196 2.38835 8.01117 2.72597 0.25
197 1.24355 8.33655 2.34938 0.25
198 7.50435 4.66091 6.99799 0.25
199 1.08036 1.1396 3.06532 0.25
200 4.47656 5.28877 1.60545 0.5
201 6.60007 1.57958 3.10418 0.25
202 8.30611 3.80118 5.30794 0.25
203 3.7822 1.7738 3.46819 0.25
204 5.66864 8.06785 0.109459 0.5
205 2.48219 7.54681 4.48115 0.5
206 0.288263 4.50378 5.19827 0.25
207 5.71494 2.72867 4.11063 0.25
208 6.88731 5.46183 4.35904 0.25
209 5.25293 7.08824 0.18261 0.5
210 1.93282 8.08594 2.91208 0.25
211 0.652922 3.78783 4.96517 0.25
212 1.45554 7.83359 8.32285 0.5
213 0.209336 4.15618 2.50989 0.25
214 1.98741 7.97159 2.42842 0.25
215 2.90824 4.19473 3.94579 0.25
216 6.37209 1.97222 2.37318 0.25
217 5.01066 3.73423 1.9877 0.25
218 2.34336 3.13822 4.81785 0.25
219 4.36898 1.33879 2.89637 0.25
220 3.66449 3.68738 1.11163 0.25
221 4.29808 8.32298 5.78514 0.25
222 7.54438 0.871101 5.04872 0.25
223 8.07327 2.77785 2.62008 0.25
224 7.18258 5.3463 7.33821 0.25
225 7.33044 2.12894 5.23584 0.25
226 4.70903 2.07681 7.62899 0.25
227 6.32047 3.63905 7.04221 0.25
228 5.49767 3.18572 4.24809 0.25
229 5.64898 5.08146 1.89066 0.25
230 0.278359 8.136 6.50718 0.5
231 5.27638 4.60752 1.4212 0.5
232 1.96031 3.08092 4.01363 0.25
233 4.12803 5.17014 4.03606 0.25
234 6.58022 1.11012 6.55957 0.25
235 3.09177 7.38083 4.8093 0.25
236 0.804536 2.42238 7.82856 0.25
237 8.15193 2.99636 7.46312 0.25
238 3.35458 0.874231 1.65549 0.25
239 0.201407 2.29119 3.49529 0.25
240 6.71174 6.35966 1.51422 0.25
241 3.39692 7.20239 8.01806 0.25
242 1.8357 7.35556 2.76381 0.5
243 2.79311 4.82328 3.38179 0.25
244 7.05483 3.48106 1.165 0.25
245 2.13167 1.01704 5.94858 0.25
246 7.75647 8.15086 3.6771 0.25
247 3.47756 2.59954 3.72015 0.25
248 3.60281 3.2449 1.36002 0.25
249 -0.0103244 5.08097 7.21252 0.25
250 1.34492 3.78316 5.32645 0.25
251 5.33825 2.69232 4.76465 0.5
252 3.17508 1.95227 4.26023 0.25
253 7.86666 5.63177 7.35319 0.5
254 7.08785 5.7838 7.27988 0.25
255 4.73688 0.55201 5.99768 0.5
256 5.835 6.18625 0.610002 0.25
257 1.1052 0.379476 2.63648 0.25
258 1.75131 1.7275 2.65971 0.25
259 4.47581 3.10191 1.76659 0.25
260 7.87801 6.31402 1.25767 0.25
261 3.37419 0.148472 1.35367 0.25
262 3.4825 2.36594 4.17066 0.25
263 2.21067 0.291596 0.208783 0.5
264 2.70627 4.32822 3.53864 0.25
265 1.01318 3.95897 7.28651 0.5
266 1.08038 8.01021 7.06987 0.5
267 5.04298 2.47399 7.6101 0.25
268 6.29051 7.76554 0.418817 0.25
269 1.92251 5.30892 0.730989 0.25
270 3.87339 3.68644 1.55325 0.25
271 7.61366 7.86887 4.71677 0.25
272 1.63526 0.997534 2.48346 0.25
273 1.28157 3.318 6.94692 0.25
274 0.775226 5.48312 7.48798 0.25
275 4.56455 4.50304 1.76728 0.25
276 2.38034 3.2177 0.856961 0.25
277 6.86349 0.724401 6.71302 0.25
278 3.83177 6.303 1.19135 0.25
279 4.16677 0.401607 5.14819 0.5
280 7.95388 8.14415 4.95397 0.25
281 0.873489 6.30962 0.391186 0.25
282 6.20681 7.05677 6.16802 0.25
283 0.867074 0.137856 6.55718 0.25
284 7.35352 4.325 0.901281 0.25
285 1.82441 6.13498 1.0104 0.5
286 5.49835 6.71231 3.28651 0.25
287 1.52254 8.0465 3.49566 0.5
288 2.74833 7.5033 5.19909 0.25
289 2.34142 7.19593 5.164 0.25
290 1.98494 3.93676 1.87509 0.25
291 8.21277 7.51526 7.32663 0.25
292 7.69515 2.48694 3.36887 0.25
293 7.69838 4.65121 3.4392 0.25
294 5.94374 3.6707 3.35311 0.25
295 8.1484 4.17085 0.974393 0.25
296 0.50278 4.22636 4.49413 0.5
297 3.85359 3.11818 6.88139 0.25
298 6.33247 5.12411 7.69493 0.25
299 5.85422 4.87634 7.71545 0.25
300 6.3396 3.39058 0.468251 0.25
301 0.827238 7.54609 8.19802 0.25
302 0.117131 4.19665 1.32491 0.25
303 3.67773 0.941763 1.23986 0.25
304 2.08947 2.40555 4.56328 0.25
305 0.679413 4.98212 8.11932 0.25
306 2.33681 1.97791 4.67986 0.25
307 1.60786 4.71056 7.58745 0.5
308 3.67526 5.75433 3.14827 0.25
309 4.49215 0.99436 5.51745 0.25
310 0.997474 4.59381 4.09614 0.25
311 7.43297 0.0258114 3.96134 0.25
312 0.928847 1.01415 2.24679 0.5
313 0.875622 3.81262 5.37413 0.25
314 5.4868 3.85043 3.15159 0.25
315 1.18667 5.08096 8.11412 0.25
316 1.77889 4.17746 7.05967 0.25
317 7.58072 2.37012 3.8451 0.25
318 2.21175 2.55386 4.10238 0.25
319 4.86069 7.52512 7.97065 0.25
320 2.05335 6.14466 6.06789 0.25
321 4.07182 0.637987 1.20936 0.25
322 7.16134 6.56317 5.16121 0.25
323 0.933865 5.949 4.1797 0.25
324 4.10895 7.37857 7.80202 0.5
325 0.865316 1.74382 0.16814 0.25
326 4.10917 4.72736 5.06829 0.5
327 7.66088 7.2889 3.4061 0.25
328 2.47926 7.84177 1.90027 0.25
329 1.37528 5.77184 3.48039 0.25
330 8.20412 7.03654 7.48969 0.25
331 0.912033 5.3297 3.7706 0.5
332 7.41261 6.57264 2.14561 0.25
333 1.13407 1.71473 2.04797 0.25
334 6.75544 1.71203 1.59678 0.25
335 3.30938 3.38317 0.95297 0.25
336 3.009 7.02113 6.90926 0.25
337 4.34629 7.21023 2.99848 0.5
338 6.24945 7.52499 8.36054 0.25
339 2.13822 8.04802 4.02917 0.25
340 4.89486 0.428188 4.81997 0.25
341 6.96144 0.0388294 3.17763 0.25
342 1.11319 5.18872 7.27123 0.25
343 2.71436 1.34051 0.147639 0.25
344 1.28643 5.58417 2.58839 0.25
345 0.520412 1.55477 2.70923 0.25
346 0.369009 2.43736 8.02589 0.25
347 3.4231 5.91628 7.74392 0.25
348 7.34759 7.76963 2.15485 0.25
349 0.68929 2.1715 8.31667 0.25
350 6.72391 1.71332 2.6141 0.25
351 1.42842 6.78659 0.671286 0.25
352 6.32128 3.43774 7.79159 0.5
353 2.36345 8.36738 7.524 0.25
354 1.81429 0.807236 5.57584 0.25
355 0.739048 0.0245959 6.04298 0.25
356 1.87372 1.80603 5.81221 0.25
357 2.82428 3.81542 6.52551 0.25
358 6.28888 3.47324 5.19723 0.25
359 4.30863 1.06256 6.36146 0.25
360 1.89911 2.2077 1.19052 0.25
361 0.926751 7.5593 0.339848 0.25
362 6.00386 4.01183 6.83067 0.25
363 7.87552 4.04293 1.97557 0.25
364 5.86933 3.70493 7.19822 0.25
365 5.41071 5.95427 0.519375 0.25
366 5.11843 6.31807 0.58011 0.25
367 2.80349 4.21626 6.87401 0.25
368 6.83259 3.66671 8.18274 0.25
369 1.12994 6.73016 0.275697 0.25
370 5.37463 0.319688 8.10325 0.25
371 2.44967 8.3536 4.39175 0.25
372 2.46604 4.66625 0.691935 0.25
373 7.03628 2.80349 4.99725 0.25
374 3.66553 4.32445 4.4475 0.25
375 5.14795 0.796244 7.90893 0.25
376 2.58623 5.99595 0.956029 0.25
377 6.32829 1.28047 2.08789 0.5
378 0.336556 3.73126 7.43151 0.25
379 4.99565 1.28807 7.87048 0.25
380 2.29283 6.86563 4.79797 0.25
381 4.00199 5.35046 5.59711 0.25
382 1.88398 6.9547 5.04338 0.25
383 6.31761 5.31581 3.91176 0.5
384 1.29634 1.70445 1.58168 0.25
385 7.07846 1.44618 7.01594 0.5
386 1.35497 1.1232 5.60598 0.25
387 7.4723 0.825017 0.672726 0.25
388 0.89494 5.68521 2.80011 0.25
389 4.28334 2.67298 7.46388 0.5
390 4.09897 0.656522 6.34235 0.25
391 5.38465 4.81508 2.22105 0.25
392 8.12783 2.7822 3.12927 0.25
393 2.7632 6.61197 1.50101 0.25
394 0.367651 8.17075 0.382425 0.25
395 2.22154 1.90182 1.25741 0.25
396 4.62529 7.94155 8.01228 0.25
397 5.29661 0.715551 8.37747 0.25
398 7.58811 1.50001 7.99669 0.25
399 3.08941 4.41605 3.20179 0.25
400 4.73303 4.44272 0.916406 0.25
401 2.25073 7.19312 3.85674 0.25
402 8.17278 7.93448 7.04668 0.25
403 7.69966 6.29333 0.828705 0.25
404 7.88308 6.7666 7.16188 0.25
405 0.529895 7.71775 0.520701 0.25
406 5.76027 0.378753 4.51764 0.25
407 2.35539 1.05885 7.96871 0.5
408 5.56447 3.33706 2.46712 0.25
409 2.22358 5.02217 0.989746 0.25
410 7.4904 0.83454 8.28718 0.5
411 4.44422 5.35264 5.31518 0.25
412 8.10752 7.14013 7.00004 0.25
413 1.34704 1.64861 0.326815 0.25
414 0.44801 3.12576 7.80397 0.5
415 6.5472 4.70742 2.96725 0.25
416 2.98068 2.97505 6.58249 0.25
417 3.42752 4.7252 3.82132 0.5
418 7.17502 6.80867 4.25771 0.25
419 3.9865 3.7927 5.90851 0.25
420 0.884231 3.10541 4.76278 0.25
421 3.98151 4.83011 5.78922 0.25
422 2.35156 5.55187 0.903499 0.25
423 0.313313 0.193598 5.92839 0.25
424 0.48059 3.41667 4.64987 0.25
425 1.95805 2.87765 1.36964 0.5
426 7.1004 5.81659 5.03213 0.5
427 2.70336 1.91763 4.3044 0.25
428 3.98248 5.14075 3.56791 0.25
429 4.43381 4.53792 5.7191 0.25
430 1.83757 7.29433 3.49687 0.25
431 0.828771 3.31452 6.77841 0.25
432 1.65838 6.97546 4.25926 0.5
433 1.96069 1.69198 7.63016 0.25
434 0.780024 6.26326 0.917966 0.25
435 5.766 3.54194 2.90666 0.25
436 1.3452 5.90871 2.99332 0.25
437 0.0271183 1.03634 0.47246 0.25
438 0.992534 3.47897 5.05272 0.25
439 3.95659 2.6336 6.78798 0.25
440 5.01952 1.68245 7.50622 0.25
441 7.90253 4.0927 5.31077 0.25
442 2.45106 5.64615 1.35303 0.25
443 0.232785 2.78275 6.90002 0.5
444 2.00401 3.60508 1.53552 0.25
445 5.25838 7.21339 0.914486 0.25
446 4.22613 5.87515 3.61667 0.5
447 1.4391 1.95396 5.66446 0.25
448 5.96317 7.18684 5.76136 0.25
449 0.874848 5.86448 5.79128 0.25
450 2.81936 3.5067 0.92203 0.25
451 2.68571 7.06595 5.45841 0.25
452 2.39155 1.02873 0.313299 0.25
453 4.54457 4.66383 1.27553 0.25
454 -0.0155345 3.41536 7.29082 0.25
455 7.9893 4.88923 7.49712 0.25
456 3.00435 1.75772 3.84331 0.25
457 2.42412 3.69717 7.13139 0.5
458 -0.0278575 7.53905 6.8529 0.25
459 4.96019 7.79156 8.34198 0.25
460 5.63497 0.0864945 4.90338 0.25
461 2.44614 3.55564 1.21048 0.25
462 6.29665 5.04767 3.22037 0.25
463 5.11985 7.40404 2.86355 0.25
464 7.39215 6.93195 7.26058 0.25
465 7.14051 2.57226 5.45326 0.25
466 4.18654 1.76255 2.78047 0.25
467 3.86984 6.23141 1.69881 0.25
468 6.91184 5.39399 3.02084 0.5
469 7.3717 7.44921 7.12606 0.25
470 1.12481 1.36658 8.36136 0.25
471 1.6256 1.03918 5.97633 0.25
472 1.96619 7.60287 2.04131 0.25
473 7.46683 5.23243 5.4581 0.25
474 5.09369 5.81345 6.09778 0.25
475 1.40778 1.35664 2.75904 0.25
476 6.94989 0.792751 7.76176 0.25
477 3.25459 5.43782 3.78381 0.25
478 5.9962 3.21314 7.13317 0.25
479 3.47058 7.32276 7.51069 0.25
480 4.99951 0.381188 2.3292 0.25
481 7.91506 2.07669 4.11979 0.25
482 7.13805 5.11164 4.61826 0.25
483 8.17337 5.54778 5.02267 0.25
484 2.80174 0.780205 0.117963 0.25
485 7.86449 7.58166 6.96195 0.25
486 2.55246 6.01878 5.98359 0.25
487 -0.0292123 7.69018 4.35394 0.25
488 4.34002 4.11005 6.02006 0.25
489 0.900651 8.04919 0.467978 0.25
490 8.08065 8.07107 1.93946 0.25
491 4.41092 3.06977 1.26508 0.25
492 2.35846 1.58108 4.36895 0.25
493 6.22441 4.4416 7.04712 0.25
494 4.83001 7.53177 2.52835 0.25
495 1.22874 6.19567 5.87719 0.25
496 2.95053 7.86039 4.93169 0.25
497 6.35285 4.17299 7.74642 0.25
498 3.30101 2.86099 4.116 0.25
499 0.557732 5.12496 7.29998 0.25
500 4.00917 2.9604 6.39492 0.25
501 6.09564 4.05597 4.15388 0.25
502 1.6766 8.09863 7.61648 0.25
503 5.93871 5.09069 2.61894 0.5
504 7.81988 7.72271 2.17065 0.25
505 5.81247 1.38547 2.76865 0.25
506 7.14092 6.41235 4.65835 0.25
507 1.33137 0.315933 3.07576 0.25
508 0.762638 0.0745163 5.56725 0.25
509 8.06924 4.85651 5.05782 0.5
510 4.9185 1.75573 5.54537 0.25
511 0.611513 0.475556 5.78145 0.25
512 0.939992 0.666504 3.00936 0.25
513 3.9852 1.07389 5.44461 0.25
514 1.82834 5.68528 6.1058 0.25
515 0.839687 7.61553 6.44229 0.25
516 7.47432 1.68001 5.99682 0.25
517 7.38319 5.51761 4.47558 0.25
518 0.925503 3.58506 4.58183 0.25
519 6.37729 1.96061 1.84657 0.25
520 6.89993 1.99878 6.53308 0.25
521 7.54218 1.5025 0.126319 0.25
522 6.76611 1.54984 7.80688 0.25
523 5.28 6.7005 5.54338 0.25
524 2.77567 0.630271 7.67152 0.25
525 6.24011 4.03349 7.27961 0.25
526 6.85995 5.3336 7.02418 0.25
527 7.60991 8.02285 4.17904 0.25
528 7.46157 1.35996 6.40636 0.25
529 6.64209 1.22685 2.83103 0.25
530 2.20059 1.8266 6.2433 0.25
531 8.08276 7.94051 4.00327 0.25
532 1.3693 0.794397 2.80757 0.25
533 7.16485 1.24624 7.76094 0.25
534 8.15697 5.83059 1.43893 0.25
535 0.390045 3.21658 5.36818 0.5
536 7.05433 2.68951 5.94506 0.25
537 4.10396 0.863018 5.88201 0.25
538 6.58136 5.26798 4.69681 0.25
539 2.31648 1.36012 6.30966 0.25
540 8.10942 6.41964 1.94125 0.5
541 7.57682 4.02668 1.58086 0.25
542 2.06013 2.1431 7.86817 0.25
543 3.28896 7.3787 7.06906 0.25
544 7.49713 6.65088 6.87721 0.25
545 1.38056 5.79961 4.00195 0.25
546 4.67896 5.97393 6.30776 0.25
547 5.18916 2.75095 8.00112 0.25
548 6.12286 7.34025 6.5963 0.25
549 0.277502 7.74207 7.20659 0.25
550 6.03709 7.0131 0.0592195 0.25
551 4.59238 1.55352 2.51488 0.25
552 3.70047 5.39947 3.9857 0.25
553 7.11991 7.76319 3.6933 0.5
554 4.36581 6.44244 3.15992 0.25
555 4.87072 6.73198 3.71223 0.5
556 6.99991 0.697866 0.901835 0.25
557 7.26838 5.07069 3.85871 0.5
558 6.6138 8.27106 3.47409 0.25
559 1.31837 0.396939 5.98907 0.5
560 5.0675 3.47129 2.39637 0.25
561 2.88812 3.05007 4.0382 0.25
562 5.22671 0.0548316 5.56386 0.25
563 2.2623 6.593 1.45151 0.25
564 5.91235 6.91336 0.868106 0.5
565 6.57003 1.57953 6.44152 0.25
566 1.27785 1.77888 2.50121 0.25
567 4.26763 5.96513 5.98011 0.25
568 6.18526 1.26564 3.11683 0.25
569 2.5594 8.26639 8.03121 0.25
570 1.88135 6.56933 4.79682 0.25
571 2.98767 4.12129 7.33537 0.25
572 8.13739 2.74221 3.93373 0.5
573 4.06682 1.3338 2.51835 0.25
574 1.57768 6.08876 6.27225 0.25
575 2.02642 1.6905 8.13064 0.25
576 4.26316 5.74469 7.74575 0.25
577 5.28534 0.255067 5.1343 0.25
578 1.91553 7.57871 3.9163 0.25
579 7.51342 4.92988 7.38837 0.25
580 7.44373 0.22382 4.67804 0.5
581 4.1621 4.59107 6.15174 0.25
582 5.90938 2.96719 4.52611 0.25
583 5.77904 3.66993 4.70096 0.5
584 4.80744 6.4598 5.63457 0.25
585 4.89169 3.10127 1.4387 0.25
586 1.85811 0.266298 2.59046 0.5
587 4.93166 7.07626 2.52007 0.25
588 5.8361 5.23185 3.36072 0.25
589 0.0127032 2.55963 7.64333 0.25
590 3.4619 6.46077 1.88793 0.25
591 6.27966 1.31138 1.037 0.25
592 7.50806 7.17449 1.70866 0.5
593 6.80582 6.88757 1.57756 0.25
594 2.39391 4.7372 8.30985 0.5
595 0.589288 3.85449 7.88484 0.25
596 2.14986 0.847354 0.673945 0.25
597 0.0952613 0.291141 5.22054 0.5
598 2.5546 6.45515 1.1086 0.25
599 2.06343 8.25276 7.91492 0.25
600 7.98742 0.879536 5.29812 0.25
601 0.721393 0.897062 6.03974 0.25
602 3.858 0.128803 2.24691 0.25
603 4.2247 5.63133 8.17743 0.25
604 7.37215 5.12387 6.93085 0.25
605 7.8809 2.07144 3.62201 0.25
606 2.43816 8.16667 2.24113 0.25
607 4.53994 5.34555 7.92638 0.25
608 3.58949 7.71951 7.35467 0.25
609 6.78099 4.92475 4.3998 0.25
610 1.86878 1.31027 5.63817 0.25
611 3.10086 0.760993 8.033 0.25
612 0.511537 7.39466 0.15484 0.25
613 7.17415 1.55916 8.14569 0.25
614 4.74204 0.882017 5.03869 0.25
615 4.87906 2.79619 3.73434 0.25
616 1.23387 5.47315 3.07691 0.25
617 1.59363 7.97828 2.18348 0.25
618 7.78208 7.30814 4.22982 0.5
619 7.99755 8.02381 4.48938 0.25
620 8.33024 7.35459 2.40272 0.5
621 4.18225 6.50929 4.05449 0.25
622 6.11833 6.52828 6.30152 0.25
623 5.22668 6.69633 0.849129 0.25
624 1.15169 3.39731 5.47622 0.25
625 1.25018 5.43276 7.70929 0.25
626 3.63362 0.532407 1.4674 0.25
627 4.93216 4.70408 2.07506 0.25
628 8.23949 3.48832 2.37531 0.5
629 7.1096 3.08148 0.312315 0.25
630 1.18488 8.3219 2.83349 0.25
631 1.67745 1.39934 7.88109 0.25
632 7.65326 7.89835 1.77785 0.25
633 5.93566 7.66868 0.767311 0.25
634 3.0223 7.84563 4.05569 0.25
635 0.777054 7.04889 0.811435 0.5
636 1.43569 2.20053 1.40606 0.25
637 5.71108 0.213999 5.41545 0.25
638 4.80438 1.32919 5.25954 0.25
639 4.58368 1.76793 0.0363877 0.25
640 5.07091 7.79565 0.464022 0.25
641 1.60749 6.82969 5.51297 0.25
642 3.67644 0.665931 5.6199 0.25
643 6.26538 6.69514 5.80948 0.25
644 5.83145 0.944872 3.00349 0.25
645 2.34522 2.29352 1.47399 0.25
646 7.88297 6.7435 6.66199 0.25
647 2.43807 2.97923 4.09215 0.25
648 5.3459 1.16761 8.15747 0.25
649 0.343571 4.30895 1.7253 0.25
650 8.30512 3.76861 1.29348 0.25
651 3.18425 3.07199 3.6904 0.25
652 7.2438 0.413017 6.75885 0.25
653 1.16988 6.43459 0.769916 0.25
654 0.80295 2.62741 8.24956 0.25
655 3.46291 3.51218 6.33485 0.5
656 0.451508 3.43817 7.04951 0.25
657 1.3702 5.7137 5.98652 0.25
658 6.93246 0.0910789 3.71586 0.25
659 2.44459 1.80345 7.80464 0.25
660 7.0245 6.06644 4.02237 0.5
661 8.22648 0.895725 0.00891706 0.25
662 3.97972 4.70944 4.34023 0.25
663 2.4314 3.79115 1.68426 0.25
664 6.59955 2.64115 4.77733 0.25
665 7.82756 3.80852 1.16004 0.25
666 5.89553 6.86827 6.55884 0.25
667 6.68986 3.27798 0.0176195 0.25
668 7.11192 6.55178 1.79575 0.25
669 6.09087 4.8829 7.31766 0.25
670 5.60116 8.27477 4.44681 0.25
671 3.5645 4.8485 4.59093 0.25
672 2.73142 3.40803 1.94933 0.25
673 0.609913 1.09796 2.97005 0.25
674 4.95548 7.42782 3.36935 0.25
675 5.5587 3.66836 5.42461 0.25
676 7.64574 8.16955 2.2048 0.25
677 6.28887 1.60228 1.47447 0.25
678 7.58553 6.37913 4.90545 0.25
679 1.07574 6.02812 1.14175 0.25
680 3.71601 6.79357 8.09652 0.25
681 7.92573 0.0258249 4.1414 0.25
682 2.48562 6.12787 1.43785 0.25
683 1.76806 7.85912 7.19361 0.25
684 0.353039 3.81299 1.51015 0.25
685 2.721 3.34235 6.41487 0.25
686 4.35516 2.92611 6.78564 0.25
687 2.50778 4.20495 0.536254 0.25
688 3.67229 0.683337 6.1154 0.25
689 6.04412 3.95407 8.15619 0.25
690 6.19078 1.126 2.72685 0.25
691 7.04631 1.29146 1.71353 0.25
692 5.16396 5.13601 1.93561 0.25
693 7.35837 1.90735 6.3988 0.25
694 7.47122 5.22148 4.93557 0.25
695 0.294333 2.93733 6.14521 0.25
696 5.76564 6.03811 3.29774 0.5
697 4.17488 3.77311 6.38493 0.25
698 1.65506 1.14344 5.22009 0.25
699 1.48498 6.68718 5.03295 0.25
700 3.7991 5.49809 1.23689 0.25
701 4.65664 1.66876 7.91434 0.25
702 2.13965 4.38131 7.348 0.25
703 3.40723 6.66605 7.42504 0.5
704 4.71997 4.95448 8.15124 0.25
705 4.9359 3.27699 1.89513 0.25
706 5.17034 0.250717 0.135979 0.25
707 4.59663 3.82372 1.3738 0.5
708 5.34467 7.54553 8.03717 0.25
709 2.59498 7.10415 2.024 0.5
710 2.24102 4.34945 6.881 0.25
711 5.16299 6.41111 3.06805 0.25
712 0.443674 5.23284 7.78368 0.25
713 2.43531 4.26003 1.83595 0.25
714 5.09265 4.12886 0.873777 0.25
715 4.73653 6.62816 2.86475 0.25
716 6.70687 1.14287 7.60606 0.25
717 7.88104 7.71048 3.56516 0.25
718 5.95567 3.48053 6.75155 0.25
719 5.95053 4.42014 7.99547 0.25
720 1.76919 7.84061 4.27977 0.25
721 6.78204 1.87647 2.11844 0.25
722 2.46263 7.72529 3.44245 0.5
723 2.54749 7.53496 2.67827 0.25
724 7.09724 6.54976 1.32602 0.25
725 7.58686 6.42929 7.34129 0.25
726 0.940553 0.914458 5.64585 0.25
727 3.92652 0.1953 1.36646 0.25
728 3.65773 6.26395 8.01874 0.25
729 5.04619 6.07588 3.4516 0.25
730 2.93596 7.21522 7.34116 0.25
731 5.30007 3.47273 2.82208 0.25
732 3.97026 3.66222 6.85543 0.25
733 3.79176 5.65085 7.52448 0.25
734 4.28473 0.876836 2.72216 0.25
735 3.54534 2.81414 6.57583 0.25
736 8.03694 1.23147 8.08836 0.25
737 3.25546 0.640921 1.23695 0.25
738 0.525434 8.06936 0.838686 0.25
739 4.73131 6.17794 3.1305 0.25
740 5.40678 7.23454 3.2794 0.25
741 0.899908 7.76818 0.869092 0.25
742 3.67157 4.57712 6.08304 0.25
743 7.05041 0.925295 1.358 0.25
744 4.56972 0.575285 2.41063 0.25
745 3.57094 4.12191 5.90391 0.25
746 1.47021 6.00142 4.69383 0.5
747 4.64666 0.347341 1.95461 0.25
748 2.75328 6.72241 7.16181 0.25
749 1.58633 1.45571 2.28773 0.25
750 8.44959 3.43305 1.62826 0.25
751 1.31631 0.723901 5.32221 0.25
752 6.29525 4.70914 7.88782 0.25
753 4.02003 0.790063 1.96904 0.5
754 4.21238 5.59117 1.00635 0.25
755 2.83623 2.87846 1.32638 0.5
756 7.79816 6.82122 7.63156 0.25
757 5.77298 6.70023 5.60517 0.25
758 6.64563 3.94576 7.30895 0.25
759 4.27133 8.06201 5.35116 0.25
760 0.174029 2.6917 3.26676 0.25
761 3.77769 7.28769 7.10643 0.25
762 0.679265 1.69198 3.42012 0.5
763 3.91494 8.07991 1.98913 0.25
764 1.39498 6.33898 0.420235 0.25
765 7.6386 5.05532 3.13713 0.25
766 0.465688 4.4468 2.20494 0.25
767 2.66022 6.92121 7.57427 0.25
768 2.12852 2.76993 4.95469 0.25
769 7.94939 3.6467 1.61465 0.25
770 4.87071 0.968027 8.26229 0.25
771 6.6561 1.26063 6.07333 0.25
772 4.772 2.42992 8.00704 0.25
773 5.48487 0.891434 4.98889 0.5
774 3.74532 8.14828 5.15977 0.25
775 7.85786 4.43147 2.68849 0.5
776 6.96939 3.80503 0.526616 0.5
777 5.7963 6.51637 0.150023 0.25
778 4.9191 8.21297 0.226964 0.25
779 0.0466707 8.18977 4.27163 0.25
780 2.26201 1.51944 5.8865 0.25
781 2.50615 1.74375 8.29323 0.25
782 1.30937 7.2102 0.434613 0.25
783 6.70462 3.0307 0.537786 0.25
784 2.29416 7.68822 2.30825 0.25
785 2.68867 1.76852 6.12564 0.25
786 2.76582 7.8039 2.33213 0.25
787 7.6361 7.11338 6.86739 0.25
788 8.3498 4.23096 2.12956 0.25
789 3.67477 7.95885 4.61875 0.25
790 6.81608 0.268401 6.50784 0.25
791 0.471796 4.68935 3.0157 0.5
792 2.42107 0.300678 7.82616 0.25
793 8.23324 7.16558 1.68661 0.25
794 5.24546 6.53411 6.22834 0.5
795 2.28998 4.16699 3.21762 0.25
796 2.13895 5.78445 5.71786 0.25
797 6.58535 6.73788 1.14617 0.25
798 7.72433 4.30972 1.17213 0.25
799 4.16117 3.38609 6.14364 0.25
800 7.89552 1.99294 3.16582 0.25
801 3.20193 7.89504 7.083 0.25
802 3.83274 5.18568 4.39027 0.25
803 3.17612 8.36496 7.6411 0.5
804 3.70187 6.86658 1.92183 0.25
805 2.06246 8.13626 1.97784 0.25
806 2.48621 1.69363 3.89972 0.25
807 4.74673 6.08993 5.31473 0.25
808 4.02014 2.16299 8.00566 0.25
809 1.67961 6.02571 5.78595 0.25
810 6.5291 7.40303 6.33858 0.25
811 1.58922 3.37224 4.7519 0.5
812 5.51873 7.57769 0.62811 0.25
813 4.465 2.14841 3.09051 0.25
814 1.51638 7.63335 7.60325 0.25
815 2.90486 8.15355 4.46352 0.25
816 1.08516 2.98159 5.19479 0.25
817 4.19856 1.7 8.15144 0.25
818 3.98335 2.07101 3.09388 0.25
819 1.94924 5.3788 1.24209 0.25
820 3.29588 3.08069 6.94417 0.25
821 1.38101 2.04223 8.09885 0.5
822 5.98338 4.38909 3.46495 0.5
823 4.91419 0.431597 8.09283 0.25
824 0.863976 0.527049 5.36639 0.25
825 3.88359 6.1211 7.61809 0.25
826 3.10345 3.87202 1.53799 0.5
827 5.74528 7.21778 6.23694 0.25
828 0.140608 2.10018 7.7512 0.25
829 0.0210859 8.02369 4.74887 0.25
830 0.869502 1.95298 2.79148 0.25
831 2.12574 4.2294 7.78678 0.25
832 5.80692 4.6367 1.99027 0.25
833 1.87858 1.43152 6.16041 0.25
834 4.15599 0.404429 2.59404 0.25
835 6.634 1.66228 1.09938 0.25
836 3.37812 7.67357 7.84057 0.25
837 4.0222 5.33727 7.8607 0.25
838 7.46143 0.72534 1.18523 0.25
839 6.10341 7.55547 6.12422 0.25
840 6.80367 4.6314 7.30824 0.5
841 3.27661 6.91666 2.11392 0.25
842 0.164502 2.18862 2.7455 0.5
843 6.07149 3.84584 5.32453 0.25
844 4.65082 2.26856 0.0674471 0.25
845 7.50044 2.57322 5.11025 0.25
846 3.54754 3.53039 7.40634 0.5
847 2.33885 5.1404 0.548651 0.25
848 1.7714 5.93564 5.32781 0.25
849 5.17907 7.88299 2.70135 0.25
850 6.46768 2.8615 5.52647 0.5
851 5.57593 8.16024 5.29396 0.25
852 7.23709 1.73892 7.68322 0.25
853 4.12553 8.07493 4.87726 0.25
854 4.25605 1.61011 5.85457 0.5
855 0.382844 4.00396 5.25309 0.25
856 0.727916 5.36192 3.11918 0.25
857 3.66642 6.65076 1.45678 0.25
858 2.65299 4.65965 3.86755 0.25
859 6.59242 4.65816 3.94931 0.25
860 7.72074 3.9633 0.777311 0.25
861 4.68634 2.83699 8.18579 0.25
862 6.64581 4.79435 3.45566 0.25
863 5.34515 6.25095 0.129948 0.25
864 7.70109 6.94586 2.41506 0.25
865 3.84901 5.80889 7.98241 0.25
866 5.02812 8.16748 3.08204 0.25
867 1.80809 3.94908 7.47228 0.25
868 2.07582 1.64361 0.573635 0.5
869 0.868478 3.17651 7.24576 0.25
870 6.22739 5.54739 3.18039 0.25
871 2.82814 7.5393 6.98531 0.25
872 5.91004 3.09442 5.05801 0.25
873 0.65569 0.0998034 0.600939 0.25
874 3.87488 1.11881 6.25421 0.25
875 2.10185 4.28453 1.21241 0.5
876 1.31597 5.90555 5.49892 0.25
877 8.34658 5.18712 7.69594 0.25
878 5.74966 0.989292 2.50262 0.25
879 3.30513 8.19113 4.7759 0.25
880 6.44427 6.02253 3.03961 0.25
881 7.45448 1.16747 1.43623 0.25
882 7.78529 7.25747 7.3448 0.25
883 0.382363 3.96366 2.03551 0.25
884 7.08914 3.122 0.83025 0.25
885 0.801872 4.27696 5.18172 0.25
886 8.08717 7.4395 3.16825 0.25
887 1.15391 6.49093 1.22802 0.25
888 1.00849 4.63271 3.53711 0.25
889 1.52258 8.00402 2.67344 0.25
890 0.0953761 4.64297 2.37491 0.25
891 0.97324 2.2129 7.41778 0.25
892 7.46515 3.49716 0.957509 0.25
893 1.2415 7.70274 0.636675 0.25
894 4.01952 5.89065 1.36394 0.25
895 3.76716 5.86876 0.945289 0.25
896 1.65992 1.33769 -0.00043723 0.25
897 8.04879 4.14447 1.49659 0.25
898 0.569723 4.59776 3.8057 0.25
899 1.03059 8.09833 6.29861 0.25
900 5.14667 6.16133 5.68847 0.25
901 0.978296 1.47353 2.79148 0.25
902 7.34849 3.92623 1.16671 0.25
903 5.94278 3.71559 3.87715 0.25
904 6.84057 3.9924 7.8113 0.25
905 5.32077 0.990437 5.78959 0.25