ITEM: TIMESTEP
160000
ITEM: NUMBER OF ATOMS
1000
ITEM: BOX BOUNDS xy xz yz pp pp pp
0.0000000000000000e+00 8.3788359999999997e+00 0.0000000000000000e+00
0.0000000000000000e+00 8.3788359999999997e+00 0.0000000000000000e+00
0.0000000000000000e+00 8.3788359999999997e+00 0.0000000000000000e+00
ITEM: ATOMS id x y z radius
1 3.00879 7.09818 4.6987 0.25
2 4.5162 5.27916 5.08404 0.25
3 7.10908 4.66386 3.50517 0.25
4 7.48649 0.772983 6.05252 0.5
5 0.923885 5.86029 5.83757 0.25
6 8.11958 1.98075 3.17138 0.25
7 4.0319 3.30436 6.3267 0.25
8 4.92121 7.76793 3.13984 0.25
9 0.924789 6.07964 3.52448 0.25
10 4.36246 1.81167 3.19 0.25
11 5.53663 0.298625 8.21233 0.25
12 5.05334 3.36854 1.79381 0.25
13 0.307459 2.46934 7.37437 0.25
14 3.41596 2.98532 7.08938 0.25
15 8.11778 2.76801 6.2652 0.25
16 6.96616 0.710708 7.05715 0.25
17 0.713712 4.95245 8.27852 0.25
18 5.65819 7.75043 8.02765 0.25
19 3.97741 2.06302 7.63771 0.25
20 7.48889 1.38 0.455654 0.25
21 4.97889 4.17715 1.97225 0.25
22 4.15902 3.30128 1.01622 0.25
23 2.19292 3.29582 1.97128 0.25
24 2.79518 1.38638 3.89101 0.25
25 2.22522 4.40899 2.79534 0.25
26 0.352841 0.165332 5.80518 0.25
27 4.02353 1.16458 6.00625 0.25
28 4.32489 2.35481 8.37365 0.25
29 5.19012 6.88942 3.0636 0.25
30 7.23977 7.24355 2.65006 0.25
31 2.58764 0.403079 7.8267 0.25
32 0.794517 2.60918 7.26495 0.25
33 7.72149 0.519759 5.35866 0.25
34 1.80882 4.92695 1.29186 0.25
35 8.27465 0.104387 4.48325 0.25
36 7.36685 1.53808 5.36281 0.5
37 4.57752 1.14083 2.13936 0.25
38 2.16464 3.31912 4.35278 0.25
39 6.2621 2.73102 4.89179 0.25
40 5.39728 7.86373 3.21304 0.25
41 6.91939 2.09518 2.49517 0.25
42 5.47656 6.02229 5.54685 0.25
43 3.23991 8.00529 4.57447 0.25
44 3.82758 0.75239 6.1271 0.25
45 5.7044 4.00517 4.32631 0.25
46 3.59452 5.86052 1.38584 0.5
47 4.83133 0.600693 5.16612 0.25
48 8.13621 6.38495 7.0338 0.25
49 7.38114 6.92055 4.8967 0.25
50 7.62351 0.992943 0.70823 0.25
51 2.66935 3.24334 4.44211 0.25
52 0.686682 1.77093 2.50939 0.25
53 6.59268 5.30153 6.74221 0.25
54 5.81936 3.3473 4.36128 0.25
55 1.76135 1.51416 5.98246 0.25
56 0.726121 7.4041 0.313221 0.25
57 4.81642 0.796452 1.92045 0.25
58 2.29475 2.06323 4.06492 0.25
59 5.48067 1.42905 5.4453 0.25
60 0.247492 5.71256 5.21427 0.25
61 5.16788 0.108886 7.96706 0.25
62 5.0969 1.89507 7.76186 0.5
63 7.82415 6.0641 1.55553 0.25
64 1.45889 6.30958 0.883393 0.25
65 4.13308 0.145702 1.90593 0.25
66 1.91914 5.01152 7.26328 0.25
67 7.60741 5.0061 7.41587 0.25
68 7.16792 0.414681 6.68111 0.25
69 0.0399083 5.60994 8.08125 0.25
70 1.8071 4.36974 0.672075 0.25
71 7.79806 1.50299 0.0844689 0.25
72 6.29333 6.26345 3.74641 0.25
73 0.735787 7.56978 6.82857 0.25
74 7.30599 5.83536 7.02405 0.25
75 7.44141 0.21516 3.37918 0.25
76 7.54316 6.67435 4.47027 0.25
77 5.85101 2.84188 5.66756 0.25
78 5.32386 3.63451 1.43524 0.25
79 8.13599 5.66057 5.19378 0.25
80 5.94933 3.3073 5.6548 0.25
81 6.75474 1.44841 0.929146 0.25
82 8.10251 2.91159 5.78118 0.25
83 4.25382 5.83408 5.66195 0.25
84 1.34148 1.21897 5.92566 0.25
85 1.89247 1.56522 5.50767 0.25
86 4.39387 0.320018 5.99687 0.25
87 1.66724 1.59155 1.21448 0.25
88 3.59028 6.65383 1.57414 0.25
89 6.83149 7.21446 0.504577 0.25
90 5.37195 6.49369 5.48932 0.25
91 3.76907 4.27061 6.11679 0.25
92 6.11095 4.53409 7.03735 0.25
93 4.87747 6.62203 5.52997 0.25
94 6.81365 0.146327 4.36971 0.25
95 0.386181 4.58009 7.62533 0.5
96 5.34774 3.15138 3.79839 0.5
97 4.51189 4.69221 8.11212 0.25
98 8.36373 2.42773 3.23513 0.25
99 1.47998 6.48868 5.55767 0.25
100 7.26555 7.10549 1.16244 0.25
101 0.290814 8.12372 0.438522 0.25
102 7.95771 4.83434 3.61261 0.25
103 6.55274 1.33347 1.33824 0.25
104 0.656602 5.32684 7.41657 0.25
105 4.81774 5.90243 5.12087 0.5
106 4.52678 8.13287 4.78384 0.25
107 4.21112 3.27514 6.86891 0.25
108 4.7528 1.48974 8.30981 0.25
109 0.638556 0.411172 6.19508 0.25
110 2.17203 7.74281 8.19826 0.25
111 3.22999 4.22728 7.02219 0.25
112 4.40597 2.21562 7.86957 0.25
113 1.88434 1.87548 1.84256 0.5
114 1.69337 4.2345 6.82455 0.25
115 4.72644 6.1313 6.39571 0.25
116 2.69707 6.3899 7.15332 0.25
117 4.21479 2.39147 3.71697 0.5
118 6.81307 7.30605 1.01362 0.25
119 0.834257 5.74724 2.29652 0.25
120 0.312479 2.62406 2.04382 0.25
121 3.11133 3.99258 3.60331 0.25
122 6.78762 0.476806 6.29861 0.25
123 5.10279 0.219049 5.26741 0.25
124 8.0887 7.68512 2.63723 0.25
125 3.48086 2.0284 3.68189 0.25
126 4.24834 1.72742 5.49926 0.25
127 5.30882 3.82501 1.8493 0.25
128 6.86991 5.51707 7.1338 0.25
129 1.23307 6.42888 3.76303 0.25
130 5.66514 6.28459 0.90573 0.25
131 7.00355 1.40157 6.01865 0.25
132 5.93888 4.13527 7.29107 0.25
133 3.26574 1.95327 3.23499 0.25
134 4.3931 2.72008 8.0066 0.25
135 5.43578 3.9031 3.87547 0.25
136 2.8431 2.4325 3.6289 0.5
137 2.82524 3.9154 3.12677 0.25
138 7.50305 7.93606 2.98238 0.5
139 2.33483 7.63132 4.76071 0.25
140 5.1711 7.92249 7.97173 0.25
141 0.516262 5.51537 5.58203 0.25
142 0.958369 4.91027 3.22538 0.25
143 2.20875 1.99895 8.31811 0.25
144 5.17381 1.07863 2.6284 0.5
145 7.63447 2.00521 3.79484 0.25
146 5.86975 7.3547 0.323008 0.25
147 6.58437 5.80066 4.8272 0.25
148 2.15014 2.80309 4.39447 0.25
149 4.57203 8.24166 2.49825 0.5
150 5.08611 2.86533 4.46114 0.25
151 3.70346 5.66046 7.31607 0.25
152 3.40038 4.72291 5.5903 0.25
153 6.65052 6.22337 2.58733 0.5
154 7.28883 2.29641 4.46518 0.5
155 3.02072 7.41346 7.87408 0.25
156 7.52632 3.59423 1.45096 0.25
157 7.41208 5.87535 1.62397 0.25
158 2.37415 3.73428 0.828186 0.25
159 7.15716 8.13617 4.4771 0.25
160 6.62106 1.96693 2.89583 0.25
161 0.757994 5.02763 2.82013 0.25
162 6.10616 3.68356 7.29229 0.25
163 3.36342 3.62589 4.16174 0.5
164 2.57531 3.91737 2.3533 0.5
165 5.58896 8.23513 7.94548 0.25
166 0.142618 3.77196 7.6108 0.25
167 6.40992 4.24782 0.105092 0.25
168 4.64428 5.94076 5.94248 0.25
169 3.78771 4.44311 5.6762 0.25
170 0.107484 2.69192 5.98736 0.25
171 7.69192 5.74249 1.21995 0.25
172 1.13099 2.74363 6.88381 0.25
173 4.31279 6.20582 6.12397 0.25
174 2.42653 1.96959 0.850296 0.25
175 7.85448 2.15889 5.85607 0.5
176 2.20309 6.69686 5.95525 0.25
177 5.407 3.64093 4.32236 0.25
178 3.43245 6.32852 1.92676 0.25
179 3.63722 2.34875 3.25657 0.25
180 5.80918 6.42295 5.64864 0.25
181 6.56382 4.27706 6.82126 0.25
182 3.10928 5.16662 3.22915 0.25
183 8.04645 7.37884 1.68605 0.25
184 4.5252 5.069 0.0571392 0.25
185 5.84629 6.74541 6.10876 0.25
186 7.55887 6.19442 4.61353 0.25
187 3.23448 5.33361 4.17951 0.25
188 0.675642 5.74874 3.18195 0.25
189 4.15382 6.59732 3.67798 0.25
190 4.26116 3.13274 1.43605 0.25
191 6.67867 1.5941 0.273948 0.5
192 0.677711 5.18514 7.86387 0.25
193 4.04036 5.31424 1.74592 0.25
194 2.95169 6.14669 1.75769 0.25
195 6.24893 5.62584 2.94983 0.25
196 2.05544 7.56132 2.3579 0.25
197 0.932575 0.181838 2.38633 0.25
198 7.36915 4.77503 7.72466 0.25
199 1.22389 1.16758 2.96949 0.25
200 4.70055 4.88009 1.6413 0.5
201 6.75268 1.50943 3.07952 0.25
202 8.30837 3.85238 5.51401 0.25
203 3.8585 1.89591 3.33385 0.25
204 5.49628 8.01279 0.260333 0.5
205 2.53688 7.33664 4.08645 0.5
206 0.593012 4.4255 5.42213 0.25
207 5.65028 2.88271 4.37957 0.25
208 6.98894 5.47805 4.68792 0.25
209 5.18077 7.12208 0.382967 0.5
210 1.84335 7.86826 2.67048 0.25
211 0.716714 3.69434 5.11326 0.25
212 1.46189 7.68706 0.111114 0.5
213 8.14975 4.20636 2.90111 0.25
214 1.72929 7.92377 2.19629 0.25
215 2.80355 4.22951 3.91286 0.25
216 6.42514 1.92994 2.39545 0.25
217 4.91503 3.69 2.17721 0.25
218 2.34247 3.02441 4.76406 0.25
219 4.45209 1.41269 2.85641 0.25
220 3.68395 3.5445 0.991513 0.25
221 4.34481 0.79919 6.11046 0.25
222 7.39193 0.846688 5.30888 0.25
223 8.18274 2.82689 2.1047 0.25
224 7.16615 5.70336 7.43952 0.25
225 6.95848 2.15151 5.14263 0.25
226 4.48356 2.08525 7.45086 0.25
227 6.56004 3.80557 7.05584 0.25
228 5.39328 3.17758 4.6 0.25
229 5.87963 4.95402 2.18092 0.25
230 0.409926 8.11079 6.4222 0.5
231 5.62806 4.412 1.6447 0.5
232 1.91169 3.05447 4.03713 0.25
233 4.0505 5.13101 4.04293 0.25
234 6.4861 0.882699 6.49256 0.25
235 3.11693 7.568 4.49341 0.25
236 0.742828 2.40192 7.72333 0.25
237 8.21762 3.37324 7.54404 0.25
238 3.43516 0.890385 1.53285 0.25
239 0.320051 2.56951 3.58005 0.25
240 6.74914 6.52487 1.13214 0.25
241 3.41185 6.97562 8.00418 0.25
242 1.57065 7.17667 2.58068 0.5
243 2.77235 4.76928 3.272 0.25
244 7.06808 3.62402 1.22347 0.25
245 2.31408 0.937887 6.08393 0.25
246 7.72797 8.30748 3.65723 0.25
247 3.5352 2.61223 3.63643 0.25
248 3.73142 3.11718 1.17735 0.25
249 8.12626 5.03391 7.55657 0.25
250 1.10503 3.03169 5.33104 0.25
251 5.54731 2.53142 4.98772 0.5
252 3.24667 1.97287 4.12729 0.25
253 7.90208 5.7413 7.51452 0.5
254 7.39217 6.22076 7.37384 0.25
255 4.98477 0.904089 5.7289 0.5
256 5.94377 6.41015 0.433003 0.25
257 1.0014 0.441584 2.80239 0.25
258 1.55026 1.86248 2.47537 0.25
259 4.52999 2.66957 1.42361 0.25
260 8.17236 5.74537 1.40831 0.25
261 3.34556 0.616586 1.08829 0.25
262 3.46771 2.3713 4.05083 0.25
263 2.06445 0.136355 8.22714 0.5
264 2.73212 4.28418 3.43344 0.25
265 1.26808 3.86054 7.31513 0.5
266 1.29235 8.1037 6.93794 0.5
267 5.13022 2.76625 7.6317 0.25
268 6.09826 7.65426 8.38457 0.25
269 2.28488 5.03354 0.641663 0.25
270 3.91847 3.52618 1.40829 0.25
271 7.57316 8.02973 4.64814 0.25
272 1.63139 1.05107 2.60315 0.25
273 1.46728 3.11705 7.01091 0.25
274 0.494776 5.62769 7.81346 0.25
275 5.31821 4.86462 1.15361 0.25
276 2.31068 3.22355 0.837331 0.25
277 6.65153 0.465716 6.78381 0.25
278 4.26191 6.13665 1.58889 0.25
279 4.06599 0.633367 5.4301 0.5
280 8.02004 8.25646 4.87796 0.25
281 1.35025 6.77142 0.778221 0.25
282 6.30427 6.91845 6.14597 0.25
283 0.987169 0.147856 6.36839 0.25
284 7.40761 4.35045 0.860048 0.25
285 2.08391 6.03907 1.09966 0.5
286 5.51899 6.65252 3.31676 0.25
287 1.61041 8.03121 3.35292 0.5
288 2.74071 7.46222 4.82199 0.25
289 2.33687 7.28886 5.12142 0.25
290 2.02975 3.76222 1.91402 0.25
291 0.045779 7.65882 7.30036 0.25
292 7.47278 2.66564 3.24597 0.25
293 7.55563 4.51269 3.68907 0.25
294 5.79519 3.72333 3.52503 0.25
295 8.21181 4.14863 0.970315 0.25
296 0.659243 4.28611 4.68729 0.5
297 3.71985 3.19517 6.7316 0.25
298 6.36785 5.40055 7.16536 0.25
299 5.71345 4.89371 6.93653 0.25
300 6.11352 4.19118 0.527223 0.25
301 0.730815 7.88552 0.308769 0.25
302 0.23006 4.11472 1.32053 0.25
303 3.72008 0.939356 1.09465 0.25
304 2.04984 2.29818 4.45935 0.25
305 1.34313 5.58209 8.12031 0.25
306 2.3478 1.88682 4.50958 0.25
307 1.31732 4.89583 7.76969 0.5
308 3.70628 5.71517 3.12443 0.25
309 4.56794 1.0764 5.12682 0.25
310 0.999462 4.80084 4.17731 0.25
311 7.52605 0.354175 3.88771 0.25
312 0.912731 0.981729 2.36831 0.5
313 1.09096 3.50744 5.39633 0.25
314 5.35661 3.77015 3.35568 0.25
315 1.8223 5.36066 8.12934 0.25
316 1.67018 4.49055 7.24837 0.25
317 7.47684 2.49151 3.72646 0.25
318 2.16863 2.54237 3.9923 0.25
319 4.54356 7.40193 0.052841 0.25
320 1.86858 6.31946 5.8879 0.25
321 4.18125 0.701179 1.10029 0.25
322 7.21665 6.59498 5.27794 0.25
323 0.908103 6.1448 4.0301 0.25
324 4.08734 7.1787 7.80466 0.5
325 0.82613 1.97129 0.225144 0.25
326 3.83529 4.9264 5.01394 0.5
327 7.19988 7.55384 3.56276 0.25
328 2.54371 7.51634 1.73516 0.25
329 1.2069 5.84154 3.21773 0.25
330 0.0501522 7.20973 7.50504 0.25
331 0.898105 5.41786 3.83675 0.5
332 7.12628 6.46456 2.07761 0.25
333 1.16101 1.48531 1.87702 0.25
334 6.79523 1.6666 1.60925 0.25
335 3.30702 3.1777 0.892263 0.25
336 2.99001 6.73924 6.86413 0.25
337 4.51574 7.24883 3.33901 0.5
338 5.7058 7.31393 8.25152 0.25
339 2.28741 7.93327 3.76926 0.25
340 4.58104 0.211536 5.07184 0.25
341 7.09573 0.152443 3.06058 0.25
342 0.994298 5.56424 7.72672 0.25
343 2.55164 1.14518 0.110117 0.25
344 1.04378 5.38626 2.53228 0.25
345 0.381767 1.4717 2.70464 0.25
346 0.453365 2.63265 8.34776 0.25
347 3.53402 5.6714 7.77759 0.25
348 7.3133 7.85965 2.25213 0.25
349 0.675969 2.21918 8.23762 0.25
350 6.77425 1.57957 2.56201 0.25
351 1.59045 7.06081 0.520808 0.25
352 6.5141 3.89899 7.86709 0.5
353 2.32561 7.96889 7.77832 0.25
354 2.03235 0.778405 5.70621 0.25
355 0.804003 0.0671588 5.88657 0.25
356 2.18182 1.71195 5.94911 0.25
357 2.87853 4.10494 6.69349 0.25
358 6.33747 3.51814 5.40676 0.25
359 5.11903 1.67348 5.72789 0.25
360 1.92091 2.06156 1.05391 0.25
361 0.647742 8.07859 0.783336 0.25
362 6.22123 3.55047 6.81874 0.25
363 7.71451 4.01967 2.70133 0.25
364 6.07552 3.35259 7.60632 0.25
365 5.46012 6.15715 0.441417 0.25
366 5.15733 6.41159 0.765193 0.25
367 2.27816 5.02164 6.91751 0.25
368 6.61646 3.41861 0.116672 0.25
369 0.641833 7.22261 0.761468 0.25
370 5.17016 0.589215 8.00608 0.25
371 2.23227 7.97575 4.33878 0.25
372 2.22398 4.13757 0.597319 0.25
373 7.07644 2.64659 5.1128 0.25
374 3.59014 4.38179 4.43861 0.25
375 4.72977 0.790356 7.8568 0.25
376 2.5753 5.60536 1.4667 0.25
377 6.34088 1.23083 2.02448 0.5
378 0.520917 3.7983 7.3258 0.25
379 4.63616 1.25524 7.83467 0.25
380 2.4749 7.05452 4.72415 0.25
381 3.88943 5.41279 5.60794 0.25
382 2.04361 7.21296 4.65107 0.25
383 6.34535 5.33951 4.28246 0.5
384 1.21453 1.75588 1.42434 0.25
385 6.92789 1.45871 6.73188 0.5
386 1.73425 1.17398 5.61807 0.25
387 7.22842 0.961449 0.392915 0.25
388 0.643696 5.48388 2.74121 0.25
389 4.05715 2.69597 7.33763 0.5
390 4.50644 1.2822 6.12661 0.25
391 5.56005 4.6543 2.35413 0.25
392 7.71124 2.97767 2.94762 0.25
393 3.14737 6.45631 1.46165 0.25
394 8.3201 7.80203 0.523838 0.25
395 2.18274 1.67604 1.15539 0.25
396 4.7779 7.21456 8.0592 0.25
397 4.9065 0.749238 8.36806 0.25
398 7.22451 1.90499 8.11329 0.25
399 2.66945 4.37968 2.96674 0.25
400 5.83776 4.05323 0.96532 0.25
401 2.12801 7.10326 3.50249 0.25
402 0.0414804 8.06665 7.0246 0.25
403 8.01686 6.12229 1.10539 0.25
404 8.15613 6.86338 7.22777 0.25
405 0.194211 7.94422 0.941539 0.25
406 4.75321 7.84292 4.48267 0.25
407 2.2331 1.07915 7.83343 0.5
408 5.45406 3.32575 2.66541 0.25
409 2.29032 4.89409 1.11086 0.25
410 7.33214 1.18422 8.02088 0.5
411 4.1554 5.60496 5.24684 0.25
412 8.38833 7.21548 6.99366 0.25
413 1.17439 1.53587 0.141449 0.25
414 0.498664 3.1177 7.75262 0.5
415 6.61333 4.73988 3.38727 0.25
416 2.7288 3.17197 6.51393 0.25
417 3.37949 4.69834 3.7414 0.5
418 7.0841 6.85484 4.46847 0.25
419 3.69634 3.91517 5.78222 0.25
420 0.771263 3.07402 4.52811 0.25
421 3.82396 4.93548 5.76217 0.25
422 2.41968 5.37594 1.01816 0.25
423 0.62099 0.557631 5.74687 0.25
424 0.429259 3.44947 4.7204 0.25
425 1.97782 2.77587 1.37409 0.5
426 7.34751 5.88026 5.25074 0.5
427 2.72593 1.8338 4.10329 0.25
428 3.94979 5.10238 3.55819 0.25
429 4.23514 4.58267 5.59423 0.25
430 1.78333 7.32943 3.30264 0.25
431 1.02841 3.26573 6.81743 0.25
432 1.58823 7.10075 4.03468 0.5
433 1.95372 1.76906 7.55674 0.25
434 1.10446 6.58613 1.15674 0.25
435 5.63519 3.43312 3.15112 0.25
436 0.971363 5.8007 2.78162 0.25
437 8.10772 1.19538 8.37695 0.25
438 0.821714 3.27134 4.94967 0.25
439 3.57111 2.75023 6.67459 0.25
440 4.55102 1.53804 7.4431 0.25
441 8.08717 4.27166 5.48426 0.25
442 2.12754 5.32088 1.40097 0.25
443 0.384035 2.87688 6.70412 0.5
444 2.04268 3.48302 1.51632 0.25
445 5.49132 7.21409 1.07253 0.25
446 4.25078 5.81413 3.54101 0.5
447 1.83953 1.96978 5.79119 0.25
448 5.94196 7.24939 5.95995 0.25
449 0.994538 5.63327 5.41365 0.25
450 2.83671 3.44509 0.916577 0.25
451 2.7762 7.0514 5.13344 0.25
452 2.21874 0.783766 0.19467 0.25
453 5.10685 4.42397 1.12162 0.25
454 0.171517 3.42863 7.17813 0.25
455 7.73568 5.11109 7.89419 0.25
456 3.04497 1.75066 3.70726 0.25
457 2.39819 4.29064 7.11307 0.5
458 0.229558 7.59626 6.8134 0.25
459 4.92197 7.68838 8.36198 0.25
460 5.04003 7.93678 4.84168 0.25
461 2.4507 3.42706 1.23268 0.25
462 6.37621 5.06768 3.63191 0.25
463 5.23942 7.39909 3.02829 0.25
464 7.63509 6.9965 7.27506 0.25
465 7.30114 2.62131 5.59046 0.25
466 4.28219 1.85147 2.67933 0.25
467 4.06024 5.78044 1.90616 0.25
468 6.88479 5.4405 3.37613 0.5
469 7.62841 7.51184 7.09129 0.25
470 0.676975 1.52044 0.33542 0.25
471 1.81404 1.02116 6.05877 0.25
472 1.76365 7.42913 1.94754 0.25
473 7.89884 5.49078 5.67284 0.25
474 5.09536 5.77292 5.8156 0.25
475 1.39708 1.50662 2.68715 0.25
476 7.2692 1.08486 7.2703 0.25
477 3.16918 5.41517 3.66736 0.25
478 6.44034 3.35402 7.28689 0.25
479 3.41306 7.26625 7.57938 0.25
480 4.95391 0.440902 2.29489 0.25
481 7.86521 2.42155 3.98342 0.25
482 7.8424 5.39038 4.81329 0.25
483 0.66983 5.9968 5.42134 0.25
484 2.63228 0.681377 8.30253 0.25
485 8.10379 7.62699 6.92191 0.25
486 1.72977 6.76938 5.9367 0.25
487 8.22055 7.69577 4.31411 0.25
488 4.1731 4.14587 5.85008 0.25
489 8.20186 8.23657 0.654441 0.25
490 8.00242 7.45093 2.16036 0.25
491 4.58766 3.07392 1.12975 0.25
492 2.32497 1.53119 4.11891 0.25
493 6.10328 4.02058 6.90848 0.25
494 4.80428 7.60373 2.7326 0.25
495 1.22275 6.09432 5.47404 0.25
496 2.74671 7.87284 4.51912 0.25
497 6.16007 4.53196 7.54589 0.25
498 3.34196 2.86228 4.04094 0.25
499 0.186931 5.30191 7.67918 0.25
500 3.61528 3.00256 6.28175 0.25
501 6.12413 3.81842 4.34663 0.25
502 1.805 7.89385 7.85223 0.25
503 6.01907 4.89612 2.96844 0.5
504 7.62424 7.54856 2.40833 0.25
505 5.99778 1.22229 2.67341 0.25
506 7.13812 6.48245 4.79599 0.25
507 1.3096 0.341522 3.20673 0.25
508 0.762644 0.192542 5.41661 0.25
509 0.0223897 4.96683 5.26972 0.5
510 5.46736 1.90921 5.3998 0.25
511 0.850873 0.691537 5.32959 0.25
512 0.996429 0.803076 3.15358 0.25
513 4.15858 1.36704 5.14723 0.25
514 2.15773 5.93673 5.60671 0.25
515 0.992318 7.68779 6.32485 0.25
516 7.4451 1.50425 6.14619 0.25
517 7.44463 5.66158 4.58229 0.25
518 0.894295 3.60088 4.6332 0.25
519 6.44429 2.00115 1.89451 0.25
520 7.2118 1.90894 6.08582 0.25
521 7.37437 1.74417 0.182789 0.25
522 6.56761 1.5304 7.47461 0.25
523 5.15735 6.75591 5.88181 0.25
524 2.68287 8.33563 7.70785 0.25
525 6.39657 4.18955 7.25335 0.25
526 7.09859 5.37827 6.78077 0.25
527 7.54553 8.16786 4.11689 0.25
528 7.34033 0.885656 6.7779 0.25
529 6.67288 1.14941 2.7643 0.25
530 2.54497 1.65569 6.30035 0.25
531 7.98651 7.92979 3.93471 0.25
532 1.39397 0.731458 2.91496 0.25
533 7.04838 1.52566 7.46045 0.25
534 7.77939 5.55395 1.71549 0.25
535 0.362349 3.20363 5.49452 0.5
536 7.12526 2.17471 5.64592 0.25
537 4.32579 1.26099 5.61015 0.25
538 7.34446 5.21168 4.8858 0.25
539 2.61664 1.1829 6.36637 0.25
540 7.73094 6.15724 2.24406 0.5
541 7.6287 4.04618 1.5933 0.25
542 2.05166 2.13938 7.87045 0.25
543 3.1821 7.01519 7.23497 0.25
544 7.76358 6.736 6.91929 0.25
545 1.33079 5.94807 3.73784 0.25
546 4.90041 5.70685 6.28707 0.25
547 5.2449 2.5168 8.05469 0.25
548 6.35547 7.02609 6.61081 0.25
549 0.568844 7.87718 7.13445 0.25
550 6.15135 7.12101 8.35325 0.25
551 4.61233 1.59755 2.39989 0.25
552 3.64255 5.39608 3.87213 0.25
553 6.9539 8.25357 3.76913 0.5
554 4.31201 6.5554 3.20511 0.25
555 4.91923 6.56455 3.70241 0.5
556 6.80907 0.994364 0.652038 0.25
557 7.41766 5.01954 4.2013 0.5
558 6.59309 0.244198 3.1682 0.25
559 1.35631 0.4698 5.85428 0.5
560 4.96889 3.44077 2.58767 0.25
561 2.89666 3.06287 4.05033 0.25
562 5.03612 8.17093 5.61895 0.25
563 2.65942 6.44678 1.44791 0.25
564 6.21941 6.93655 0.772282 0.5
565 6.49069 1.33139 6.138 0.25
566 1.12079 1.71845 2.2842 0.25
567 4.40424 5.72618 6.29726 0.25
568 6.30287 1.20164 3.08615 0.25
569 2.77512 7.81118 7.73016 0.25
570 2.08925 6.76841 4.47259 0.25
571 2.18064 4.74348 6.53407 0.25
572 8.09155 2.99805 3.57977 0.5
573 4.18709 1.38826 2.42834 0.25
574 1.39769 6.11838 5.91422 0.25
575 1.98479 1.67678 8.08087 0.25
576 4.31799 5.57444 7.81755 0.25
577 4.79709 8.19261 5.18785 0.25
578 2.00983 7.52884 3.67453 0.25
579 7.31825 5.29014 7.68568 0.25
580 7.5586 0.371018 4.62469 0.5
581 4.06017 4.64331 6.00969 0.25
582 5.93269 3.0805 4.74874 0.25
583 5.78188 3.71697 5.03032 0.5
584 4.72758 6.46755 6.03054 0.25
585 5.08185 3.25602 1.27529 0.25
586 1.70186 0.223446 2.5088 0.5
587 4.91421 7.11964 2.73256 0.25
588 5.85369 5.14023 3.66128 0.25
589 8.38966 2.92243 7.35251 0.25
590 3.95173 6.3338 1.86173 0.25
591 6.063 1.2856 1.30633 0.25
592 7.39143 7.09628 1.86264 0.5
593 6.83583 6.95957 1.34331 0.25
594 1.99952 4.67419 0.0192127 0.5
595 0.583922 3.85393 7.83213 0.25
596 1.87189 0.625936 0.505663 0.25
597 0.08453 0.459191 5.18239 0.5
598 2.85638 5.99369 1.27888 0.25
599 1.74342 8.31273 7.52774 0.25
600 7.91455 0.968099 5.48389 0.25
601 0.884057 1.05032 5.68456 0.25
602 3.92032 0.170923 2.33586 0.25
603 4.32504 5.51932 8.27746 0.25
604 7.37499 5.33788 7.1677 0.25
605 7.87526 2.29472 3.45757 0.25
606 2.17706 7.74696 1.91306 0.25
607 4.60263 5.2233 7.95675 0.25
608 3.67738 7.64598 7.30648 0.25
609 6.87438 5.02415 4.75379 0.25
610 2.14506 1.26477 5.79194 0.25
611 3.00019 0.752278 7.90778 0.25
612 0.422383 7.65907 0.646718 0.25
613 6.3145 1.63566 7.96371 0.25
614 4.56667 0.672736 4.80994 0.25
615 4.89199 2.59375 4.07695 0.25
616 1.03713 5.41034 3.05773 0.25
617 1.72043 7.86521 1.71558 0.25
618 7.50751 7.43487 4.27292 0.5
619 7.97424 8.0597 4.39393 0.25
620 7.92298 7.03689 2.83795 0.5
621 4.26309 6.38841 4.0807 0.25
622 6.15824 6.45092 5.96794 0.25
623 5.46764 6.69679 1.02527 0.25
624 0.864741 2.79186 4.96097 0.25
625 0.798041 5.43106 8.19876 0.25
626 3.74414 0.512165 1.29984 0.25
627 5.09853 4.5642 2.20527 0.25
628 8.15757 3.51717 2.43425 0.5
629 6.78283 3.2298 0.524311 0.25
630 1.1508 8.37156 2.84778 0.25
631 1.62429 1.49076 7.73566 0.25
632 7.70952 7.69272 1.8994 0.25
633 6.1178 7.7066 0.518318 0.25
634 3.09153 0.373215 4.14839 0.25
635 1.39861 7.33182 1.19835 0.5
636 1.5118 2.1601 1.31897 0.25
637 5.30734 8.12124 5.18639 0.25
638 5.01002 0.924946 4.86931 0.25
639 4.54832 1.9265 8.24996 0.25
640 5.2425 7.63435 0.909954 0.25
641 1.38503 6.67618 5.0741 0.25
642 3.8488 1.39331 5.57596 0.25
643 6.05088 6.87279 5.6669 0.25
644 5.85331 0.867756 3.00075 0.25
645 2.33546 2.11781 1.33307 0.25
646 8.2824 6.82153 6.74645 0.25
647 2.41862 2.95167 4.06105 0.25
648 5.04717 1.10663 8.09157 0.25
649 0.571276 4.017 1.7228 0.25
650 8.33243 3.72782 1.28202 0.25
651 3.25457 3.10409 3.65874 0.25
652 6.9262 0.200534 7.07751 0.25
653 1.59853 6.6203 1.22853 0.25
654 0.894015 2.64563 8.13942 0.25
655 3.31178 3.70383 6.41318 0.5
656 0.688725 3.41795 7.06457 0.25
657 1.39546 5.67532 5.68979 0.25
658 7.07538 0.513602 4.09636 0.25
659 2.41544 1.79593 7.86863 0.25
660 6.91021 6.1045 4.22179 0.5
661 8.00022 1.50614 7.99236 0.25
662 3.88751 4.73476 4.3147 0.25
663 2.466 3.64115 1.69273 0.25
664 6.74946 2.88616 4.79569 0.25
665 7.86731 3.82661 1.18864 0.25
666 6.08301 6.60258 6.46841 0.25
667 6.32721 3.34055 0.534456 0.25
668 6.89763 6.55534 1.62827 0.25
669 6.23366 4.98923 6.83682 0.25
670 4.63175 7.69761 4.9813 0.25
671 3.36358 4.84706 4.42484 0.25
672 2.67666 3.26836 2.03687 0.25
673 0.644011 1.14416 3.04194 0.25
674 5.19891 7.54308 3.52104 0.25
675 5.53923 3.62977 5.70622 0.25
676 7.81014 7.95745 2.29332 0.25
677 6.2863 1.72784 1.50546 0.25
678 7.61956 6.51261 4.96891 0.25
679 1.35333 6.2367 1.34736 0.25
680 3.73644 6.62547 8.16688 0.25
681 7.94809 0.0765486 4.07275 0.25
682 2.51811 6.03499 1.6829 0.25
683 2.01255 8.34064 7.13236 0.25
684 0.429391 3.63791 1.45366 0.25
685 2.66714 3.64931 6.75634 0.25
686 4.02209 2.86847 6.57801 0.25
687 2.65612 4.21524 0.86618 0.25
688 4.13146 1.61321 5.96617 0.25
689 5.775 4.26083 7.7374 0.25
690 6.31308 0.816737 2.79219 0.25
691 7.08265 1.38712 1.3048 0.25
692 5.3181 4.96841 2.02456 0.25
693 7.47118 1.88769 6.48448 0.25
694 7.71911 5.27047 5.21947 0.25
695 0.0453468 3.15323 6.13689 0.25
696 5.67135 5.87708 3.5412 0.5
697 3.98509 3.77737 6.18388 0.25
698 2.1494 1.14054 5.29494 0.25
699 1.63506 6.91209 4.72728 0.25
700 4.14684 5.35967 1.24113 0.25
701 4.34121 1.73021 7.81302 0.25
702 1.98465 4.66402 7.60376 0.25
703 3.42954 6.41284 7.4685 0.5
704 4.93143 4.88837 8.19468 0.25
705 4.74951 3.03634 1.58692 0.25
706 5.13105 0.277243 0.0590015 0.25
707 4.63345 3.81471 1.38464 0.5
708 5.24103 7.4141 8.1232 0.25
709 2.92104 6.91298 1.99231 0.5
710 1.8136 4.73327 6.84719 0.25
711 5.17668 6.38101 3.0875 0.25
712 0.309831 5.22584 8.14868 0.25
713 2.79331 4.02992 1.67103 0.25
714 5.33307 4.01237 1.07412 0.25
715 4.76893 6.66063 2.92235 0.25
716 6.82342 1.07776 7.43191 0.25
717 7.55997 7.88239 3.68745 0.25
718 5.9984 3.18153 7.11317 0.25
719 5.72646 4.57333 7.30643 0.25
720 1.89155 7.82372 4.03098 0.25
721 6.80114 1.74376 2.10692 0.25
722 2.44947 7.58098 3.05004 0.5
723 2.32014 7.13517 2.47091 0.25
724 7.20417 6.58893 1.26598 0.25
725 7.80953 6.49803 7.388 0.25
726 1.29567 1.0218 5.389 0.25
727 3.37585 0.42734 1.59842 0.25
728 3.71409 6.0855 8.05541 0.25
729 4.98022 5.93887 3.23511 0.25
730 2.75233 6.86956 7.27042 0.25
731 5.15312 3.40816 3.08167 0.25
732 3.95963 3.70059 6.66866 0.25
733 3.90993 5.33725 7.64052 0.25
734 4.41108 0.977259 2.58998 0.25
735 3.21123 3.06408 6.62073 0.25
736 7.73092 1.85682 8.21316 0.25
737 3.75904 0.483055 0.824094 0.25
738 8.27242 8.29034 1.13769 0.25
739 4.62387 6.2044 3.05743 0.25
740 5.33793 7.11933 3.45118 0.25
741 0.281275 0.0569669 0.799459 0.25
742 3.52074 4.6832 6.07541 0.25
743 6.85936 0.990595 1.12692 0.25
744 4.55245 0.64881 2.25064 0.25
745 3.3099 4.27756 5.8725 0.25
746 1.56275 6.16107 4.45375 0.5
747 4.63269 0.300686 1.88982 0.25
748 2.65054 6.54671 7.63491 0.25
749 1.51626 1.4316 2.22011 0.25
750 0.0486587 3.38995 1.67201 0.25
751 1.78542 0.825814 5.25539 0.25
752 6.03382 4.97587 7.29749 0.25
753 4.01058 0.832607 1.88207 0.5
754 4.58303 5.41742 1.15499 0.25
755 2.71148 2.65896 1.03445 0.5
756 7.97166 6.95741 7.64016 0.25
757 5.60449 6.89496 5.73178 0.25
758 6.90728 4.16134 7.21527 0.25
759 4.24223 -0.0319816 6.33302 0.25
760 8.27229 2.84731 2.92373 0.25
761 3.66206 7.13721 7.15304 0.25
762 0.564443 1.91783 3.25415 0.5
763 3.86159 8.13919 1.98784 0.25
764 1.79252 6.70829 0.833792 0.25
765 7.506 5.00877 3.50835 0.25
766 0.150079 4.16766 2.58692 0.25
767 2.98216 6.96739 7.68946 0.25
768 2.12026 2.56867 4.85139 0.25
769 8.01032 3.75374 1.69822 0.25
770 4.5436 1.04982 8.23895 0.25
771 6.8066 0.959981 6.14055 0.25
772 4.71295 2.51752 7.69485 0.25
773 5.07967 0.200167 4.54573 0.5
774 3.91211 0.216324 6.05678 0.25
775 7.63191 4.73391 2.92177 0.5
776 6.92986 3.93521 0.531992 0.5
777 5.78913 6.88149 0.204282 0.25
778 4.85168 8.24286 8.26282 0.25
779 0.0326603 8.13908 4.13206 0.25
780 2.55816 1.36291 5.88453 0.25
781 2.45982 1.59951 8.32744 0.25
782 1.09176 7.15732 0.549388 0.25
783 6.58529 3.43641 0.97438 0.25
784 2.23214 7.23874 2.00706 0.25
785 2.39563 1.4907 6.71747 0.25
786 2.54376 7.5786 2.25567 0.25
787 7.91166 7.15334 6.898 0.25
788 8.05385 4.25726 2.42035 0.25
789 3.38961 8.32552 4.22226 0.25
790 6.79606 0.0325162 6.60174 0.25
791 0.262719 4.63575 3.28655 0.5
792 2.26914 8.37784 7.54645 0.25
793 0.0274216 6.52077 2.53858 0.25
794 5.4457 6.22972 6.26229 0.5
795 2.36445 4.06149 3.13433 0.25
796 2.37218 6.23872 5.88861 0.25
797 7.00218 6.83014 0.838876 0.25
798 7.74185 4.30171 1.16225 0.25
799 3.78399 3.40401 5.89841 0.25
800 7.92187 2.51186 3.02014 0.25
801 3.28638 7.47195 7.07654 0.25
802 3.66053 5.17942 4.30059 0.25
803 2.70293 8.00331 7.05225 0.5
804 4.12362 6.78202 1.79748 0.25
805 1.99261 8.24527 1.93737 0.25
806 2.51862 1.77222 3.69088 0.25
807 4.49577 6.31486 5.64827 0.25
808 3.94704 2.43629 8.01083 0.25
809 1.6896 6.05494 5.50397 0.25
810 6.13071 7.4085 6.79416 0.25
811 1.53238 3.13869 4.77926 0.5
812 5.75109 7.50907 0.767861 0.25
813 4.5319 2.22464 2.96068 0.25
814 1.9956 7.95939 7.39229 0.25
815 2.64431 8.1042 4.0784 0.25
816 0.427092 2.94806 4.80587 0.25
817 4.05999 1.96488 8.14658 0.25
818 4.05368 2.18387 2.99884 0.25
819 1.93699 5.31126 0.930469 0.25
820 3.02493 3.33725 6.97947 0.25
821 1.36155 2.05916 8.08736 0.5
822 6.08371 4.39033 3.83656 0.5
823 4.75914 0.351368 8.09873 0.25
824 1.30218 0.603185 5.10079 0.25
825 3.96012 5.89227 7.67091 0.25
826 3.18867 3.45366 1.5573 0.5
827 5.92546 7.0944 6.44106 0.25
828 0.271351 2.36024 7.91117 0.25
829 8.40319 8.02262 4.64032 0.25
830 1.1221 1.96395 2.71874 0.25
831 2.26215 4.26485 7.82263 0.25
832 5.99205 4.45626 2.3807 0.25
833 2.15442 1.37766 6.28421 0.25
834 4.18678 0.535945 2.56932 0.25
835 6.2655 1.62749 1.00196 0.25
836 3.22195 7.75764 7.50798 0.25
837 4.15772 5.12134 8.08139 0.25
838 7.20845 0.737553 0.81914 0.25
839 6.29848 7.40451 6.2943 0.25
840 6.82433 4.82127 7.2686 0.5
841 3.69829 6.73304 2.03979 0.25
842 8.3427 2.13956 2.52331 0.5
843 5.96419 3.76752 5.74545 0.25
844 4.76431 2.41369 8.17276 0.25
845 7.4402 2.2686 5.23111 0.25
846 3.6852 3.62105 7.34757 0.5
847 2.26303 4.56954 0.730797 0.25
848 1.97251 5.85798 5.1142 0.25
849 5.19205 7.87479 2.73843 0.25
850 6.56522 2.76433 5.54646 0.5
851 4.91855 7.7963 5.39049 0.25
852 6.7923 1.73276 7.86222 0.25
853 4.08864 0.484111 6.40515 0.25
854 4.82018 1.72026 5.04684 0.5
855 0.476645 3.96755 5.42817 0.25
856 0.591658 5.23309 3.17962 0.25
857 4.05736 6.54701 1.36777 0.25
858 2.61077 4.67676 3.74461 0.25
859 6.67663 4.72913 4.38092 0.25
860 7.69839 3.96438 0.773151 0.25
861 4.68015 3.02595 7.6294 0.25
862 6.77167 4.82454 3.85828 0.25
863 5.51729 6.44799 0.0888297 0.25
864 7.26956 6.74297 2.49587 0.25
865 3.92867 5.59027 8.07472 0.25
866 5.10376 8.2346 3.02864 0.25
867 1.76237 4.26258 7.67073 0.25
868 1.91337 1.46328 0.46076 0.5
869 0.999217 3.0967 7.2769 0.25
870 6.16949 5.46416 3.41933 0.25
871 2.83629 7.22771 6.92704 0.25
872 6.03037 3.0446 5.24752 0.25
873 8.22975 8.13291 0.159381 0.25
874 4.60775 1.60447 5.80739 0.25
875 2.10519 4.21993 1.33073 0.5
876 1.46826 5.77175 5.18538 0.25
877 8.23225 5.12464 7.9837 0.25
878 5.86476 0.784233 2.52417 0.25
879 2.91037 8.34312 4.42407 0.25
880 6.37292 5.9678 3.29842 0.25
881 7.38346 1.0069 1.21887 0.25
882 8.00933 7.32792 7.31383 0.25
883 0.397944 3.65037 1.98151 0.25
884 7.01103 3.25439 0.916159 0.25
885 0.956459 4.0477 5.37665 0.25
886 7.65634 7.39604 3.50903 0.25
887 1.30633 6.70432 1.63621 0.25
888 0.920703 4.67753 3.67761 0.25
889 1.36652 7.94315 2.59638 0.25
890 8.29726 4.63971 2.62212 0.25
891 1.14558 2.69481 7.61663 0.25
892 7.46934 3.53647 0.953711 0.25
893 0.944518 7.6615 0.643587 0.25
894 4.37431 5.61115 1.53888 0.25
895 4.33354 5.86747 1.15112 0.25
896 1.58003 1.37533 8.22246 0.25
897 8.13702 4.15701 1.45075 0.25
898 0.564045 4.70561 3.99836 0.25
899 1.1719 8.11011 6.12419 0.25
900 4.99722 6.25032 5.7402 0.25
901 0.898187 1.52012 2.7832 0.25
902 7.37267 3.98154 1.17259 0.25
903 5.8377 3.65554 4.01177 0.25
904 7.13618 4.29755 7.64048 0.25
905 5.3609 0.687544 5.13496 0.25