ITEM: TIMESTEP
900000
ITEM: NUMBER OF ATOMS
1000
ITEM: BOX BOUNDS xy xz yz pp pp pp
0.0000000000000000e+00 8.3788359999999997e+00 0.0000000000000000e+00
0.0000000000000000e+00 8.3788359999999997e+00 0.0000000000000000e+00
0.0000000000000000e+00 8.3788359999999997e+00 0.0000000000000000e+00
ITEM: ATOMS id x y z radius
1 2.60547 6.95784 4.94961 0.25
2 4.65513 5.18681 5.02109 0.25
3 6.91044 4.50629 3.24966 0.25
4 7.442 1.08276 5.78851 0.5
5 0.995122 5.85984 6.1621 0.25
6 8.20084 1.74301 3.39192 0.25
7 4.26499 3.25798 6.47762 0.25
8 4.78175 7.75925 3.03925 0.25
9 0.714902 6.17293 3.73905 0.25
10 4.07963 1.46472 3.34421 0.25
11 5.29815 0.0428049 7.90243 0.25
12 5.08082 3.36839 1.53954 0.25
13 0.527713 2.665 7.34049 0.25
14 3.99484 2.78469 7.12407 0.25
15 8.38059 3.01718 6.07132 0.25
16 7.5624 1.02398 6.55623 0.25
17 0.83665 5.42507 8.31601 0.25
18 6.11542 7.43738 8.08808 0.25
19 4.61789 1.76663 7.62142 0.25
20 7.63598 1.42948 0.556307 0.25
21 4.81228 4.14321 1.89468 0.25
22 4.18339 3.20162 1.30227 0.25
23 2.07657 3.4098 2.09278 0.25
24 2.82053 1.88808 4.63282 0.25
25 2.82333 4.50361 2.94598 0.25
26 0.511623 8.29524 5.74494 0.25
27 3.84039 0.368167 5.89181 0.25
28 4.29981 2.027 8.41529 0.25
29 5.07254 6.88276 2.93784 0.25
30 7.24163 7.35419 2.4909 0.25
31 2.81722 0.255068 7.884 0.25
32 0.915117 2.84083 7.14946 0.25
33 7.76215 0.141861 5.18699 0.25
34 2.05658 5.60299 1.75418 0.25
35 7.98349 0.0721527 4.54466 0.25
36 6.84918 1.98315 5.76115 0.5
37 4.06086 1.42509 2.16917 0.25
38 2.11711 3.35583 4.2113 0.25
39 6.10152 2.62062 4.81948 0.25
40 5.2265 7.71231 3.20868 0.25
41 6.64119 2.16433 2.5806 0.25
42 5.62676 6.10005 5.61069 0.25
43 3.70713 8.01069 4.41154 0.25
44 4.24353 7.99595 5.05618 0.25
45 5.40977 3.97849 4.07709 0.25
46 3.21614 6.14181 1.40397 0.5
47 4.68279 0.810193 5.17942 0.25
48 8.13403 6.2136 6.82814 0.25
49 7.50183 6.59906 4.63569 0.25
50 7.68433 1.37939 1.05123 0.25
51 2.62639 3.33195 4.41985 0.25
52 0.620927 1.58676 2.33688 0.25
53 6.66252 4.88968 6.75598 0.25
54 5.72119 3.1814 4.09105 0.25
55 1.65869 1.12927 5.96206 0.25
56 1.3584 7.66041 0.62361 0.25
57 4.67975 0.825627 1.95047 0.25
58 2.24526 2.06288 4.12919 0.25
59 4.84154 0.943372 6.18673 0.25
60 7.81829 5.56497 5.24582 0.25
61 5.05026 8.01416 8.04585 0.25
62 5.39365 1.92874 0.0162314 0.5
63 7.43322 6.57323 1.15559 0.25
64 1.19132 6.35297 0.806313 0.25
65 4.29565 0.107744 1.73056 0.25
66 2.22795 4.82138 7.06459 0.25
67 8.27705 4.96061 7.3961 0.25
68 7.31783 0.619261 6.4033 0.25
69 0.33327 5.59624 7.66207 0.25
70 1.65534 4.92158 1.01767 0.25
71 8.03249 1.53041 0.276311 0.25
72 6.4005 6.14973 3.44061 0.25
73 0.619881 7.66771 6.87689 0.25
74 7.45378 5.56182 6.77014 0.25
75 7.24106 0.176113 3.41016 0.25
76 7.23501 6.48934 4.23059 0.25
77 5.56041 2.81841 5.47734 0.25
78 5.2813 3.68822 1.19305 0.25
79 7.73011 5.12916 4.38653 0.25
80 5.73625 3.27408 5.38454 0.25
81 7.26427 1.60943 0.944077 0.25
82 8.37343 2.54904 6.23998 0.25
83 4.46467 5.78944 5.62468 0.25
84 1.09678 1.15614 5.94892 0.25
85 1.43662 1.12479 5.15462 0.25
86 4.69334 8.18424 5.28959 0.25
87 1.96049 2.30368 0.516786 0.25
88 3.26934 6.82464 1.72216 0.25
89 6.8368 7.32197 0.791099 0.25
90 5.46228 6.57174 5.49554 0.25
91 4.07929 4.22234 6.27046 0.25
92 6.20788 4.59752 7.41075 0.25
93 4.97282 6.6169 5.41199 0.25
94 6.71584 0.270316 4.02835 0.25
95 0.360382 4.56779 7.81534 0.5
96 5.36085 3.03628 3.4922 0.5
97 4.22848 4.95953 8.20273 0.25
98 8.36051 2.19092 3.42681 0.25
99 1.52588 6.49759 5.93173 0.25
100 6.99595 6.86226 1.07068 0.25
101 0.695148 7.7123 8.34002 0.25
102 7.76527 4.53173 3.52359 0.25
103 6.79468 1.10723 1.44091 0.25
104 1.0513 4.80124 7.58931 0.25
105 5.06492 5.89225 5.15905 0.5
106 5.58067 0.592712 4.70507 0.25
107 4.41091 3.11793 6.99214 0.25
108 4.7832 1.3442 8.32613 0.25
109 0.720445 0.80553 5.76042 0.25
110 2.14233 8.01252 8.20002 0.25
111 3.22849 3.80672 7.16621 0.25
112 4.66839 2.06875 8.06469 0.25
113 1.50737 2.02669 1.68778 0.5
114 1.92707 4.05008 7.20319 0.25
115 4.68541 6.1953 6.33992 0.25
116 2.41933 7.01559 7.0703 0.25
117 4.10118 2.1308 3.64021 0.5
118 6.67151 7.24551 1.22682 0.25
119 1.01748 6.55615 3.65718 0.25
120 0.0380814 2.91125 3.02733 0.25
121 3.1337 4.09845 3.58681 0.25
122 6.85508 0.783893 6.26817 0.25
123 5.02753 0.601117 5.42716 0.25
124 7.80636 8.11638 2.45493 0.25
125 3.40733 1.94984 3.9303 0.25
126 3.67079 1.17439 5.91142 0.25
127 5.1953 3.83047 1.68974 0.25
128 6.73465 5.3106 7.08836 0.25
129 0.903081 6.5182 4.12892 0.25
130 5.57141 6.24371 0.0539948 0.25
131 7.08878 1.57027 6.27609 0.25
132 5.99308 4.19583 7.5817 0.25
133 3.04777 1.72739 3.61659 0.25
134 4.43661 2.44645 8.17072 0.25
135 5.35453 3.77598 3.66435 0.25
136 2.84509 2.47927 3.71002 0.5
137 2.82221 4.08151 3.14231 0.25
138 7.2847 7.96728 2.90524 0.5
139 2.72891 7.45036 5.06983 0.25
140 5.19462 7.58479 7.93019 0.25
141 7.68448 5.83692 4.88636 0.25
142 1.1286 5.11973 3.25828 0.25
143 2.33653 2.04268 8.23451 0.25
144 5.03937 1.2113 2.47645 0.5
145 7.49338 1.88691 3.91438 0.25
146 6.09332 7.34428 0.178933 0.25
147 6.42579 5.61359 4.51961 0.25
148 2.24923 2.99153 4.5747 0.25
149 4.58912 8.26259 2.42825 0.5
150 5.01959 2.73898 4.1201 0.25
151 3.55488 5.84017 7.17396 0.25
152 3.65053 4.71125 5.78626 0.25
153 6.68691 6.01927 2.40501 0.5
154 7.34229 2.41138 4.4952 0.5
155 2.98468 7.1534 7.79207 0.25
156 7.50139 3.57337 1.44413 0.25
157 7.61826 5.95346 1.62866 0.25
158 2.55897 3.7887 0.867356 0.25
159 7.14152 7.75656 4.40952 0.25
160 6.45815 1.99661 2.99069 0.25
161 0.911612 5.30052 2.84648 0.25
162 5.91162 4.36451 7.12891 0.25
163 3.28051 3.72867 4.25322 0.5
164 2.50813 3.91427 2.49682 0.5
165 5.4703 7.9383 7.69638 0.25
166 0.215213 3.82288 8.02305 0.25
167 6.62371 4.17228 8.22464 0.25
168 4.84503 6.04944 5.89848 0.25
169 4.00483 4.38724 5.78062 0.25
170 0.406973 2.71615 6.02027 0.25
171 7.84591 5.90612 1.19159 0.25
172 1.11026 3.1029 6.75113 0.25
173 4.37039 6.19493 5.94363 0.25
174 2.2491 2.19936 0.955398 0.25
175 7.66629 2.49935 5.91754 0.5
176 2.33382 5.84385 6.14122 0.25
177 5.2866 3.49093 4.04631 0.25
178 3.04649 6.53251 1.99159 0.25
179 3.4178 2.04357 3.39589 0.25
180 5.95393 6.55113 5.68191 0.25
181 6.70454 4.12586 6.89223 0.25
182 3.19285 5.2908 3.35293 0.25
183 7.91289 7.57891 1.86197 0.25
184 3.80666 5.23488 8.31553 0.25
185 5.87295 6.85057 6.11437 0.25
186 7.5774 5.65564 4.41449 0.25
187 2.76095 5.1701 4.0921 0.25
188 0.681859 5.86732 3.36534 0.25
189 4.09655 6.61165 3.56255 0.25
190 3.84278 3.57984 1.32714 0.25
191 6.91882 1.51302 0.250673 0.5
192 1.01716 5.11917 7.93272 0.25
193 4.05722 5.4988 1.03722 0.25
194 2.65384 6.32511 1.864 0.25
195 6.20051 5.5936 2.76159 0.25
196 2.13436 8.09211 2.61026 0.25
197 1.14897 0.215772 2.27036 0.25
198 7.75365 4.86161 7.40401 0.25
199 1.2021 1.42896 3.09869 0.25
200 4.64869 5.29741 1.45672 0.5
201 6.60005 1.47131 3.12122 0.25
202 8.34995 3.84534 5.45638 0.25
203 3.59082 1.59918 3.58337 0.25
204 5.60468 7.97305 0.0714753 0.5
205 2.52003 7.46048 4.37425 0.5
206 0.431777 4.49928 5.14112 0.25
207 5.53618 2.71034 4.09537 0.25
208 6.75448 5.27812 4.40371 0.25
209 5.46689 6.98485 8.28585 0.5
210 1.74673 8.12991 2.99146 0.25
211 0.676366 3.7429 5.04494 0.25
212 1.42555 7.90166 8.35014 0.5
213 0.111884 4.06934 2.81253 0.25
214 1.65606 8.08457 2.46728 0.25
215 2.80968 4.26327 3.95679 0.25
216 6.19804 1.95719 2.53802 0.25
217 4.84641 3.60055 1.91105 0.25
218 2.48293 3.29531 4.9552 0.25
219 4.30611 0.917134 2.73199 0.25
220 3.50736 3.5828 0.964596 0.25
221 4.26617 8.05072 5.53621 0.25
222 7.43779 0.523745 5.22694 0.25
223 8.22953 2.6535 2.66584 0.25
224 7.19973 5.45259 7.21819 0.25
225 7.39978 2.23754 5.25661 0.25
226 5.06396 2.0542 7.75272 0.25
227 6.47075 3.69773 6.97022 0.25
228 5.31702 3.05175 4.32273 0.25
229 5.74276 5.00656 1.83651 0.25
230 0.448567 8.23926 6.42442 0.5
231 5.33669 4.46552 1.41527 0.5
232 1.95814 2.89208 4.26138 0.25
233 3.67574 5.19918 4.49437 0.25
234 6.59087 1.59983 6.46324 0.25
235 3.18784 7.25214 4.46795 0.25
236 1.0664 2.55902 8.03772 0.25
237 0.0777798 2.97665 7.37425 0.25
238 3.10658 0.716111 1.52531 0.25
239 0.316436 2.38191 3.80128 0.25
240 6.64573 6.21629 1.55162 0.25
241 3.38867 7.0251 8.05649 0.25
242 1.65309 7.3884 2.75323 0.5
243 2.97203 4.8383 3.29152 0.25
244 7.05392 3.56828 1.11524 0.25
245 2.15888 1.19816 5.84906 0.25
246 7.56098 8.27169 3.64199 0.25
247 3.44225 2.55779 3.32893 0.25
248 3.68354 3.15758 1.11251 0.25
249 0.278753 5.23154 7.36631 0.25
250 1.45093 3.76334 5.28005 0.25
251 5.26893 2.49595 4.75599 0.5
252 3.14985 2.08949 4.35345 0.25
253 7.982 5.64177 7.31377 0.5
254 7.3759 5.92437 7.08878 0.25
255 4.62984 0.3371 5.90422 0.5
256 5.23467 6.46508 0.449568 0.25
257 1.12482 0.233936 2.79743 0.25
258 1.60477 1.83688 2.43876 0.25
259 4.15013 3.43694 1.7222 0.25
260 7.80315 6.30649 1.40186 0.25
261 4.04631 8.16117 1.39398 0.25
262 3.45665 2.41436 4.11468 0.25
263 2.43095 0.198683 0.159542 0.5
264 2.80131 4.39682 3.48754 0.25
265 1.1761 4.08434 7.39542 0.5
266 0.912578 7.71859 7.58589 0.5
267 5.37978 2.47138 7.75665 0.25
268 6.31135 7.77959 0.0531326 0.25
269 1.4324 5.41524 1.01402 0.25
270 3.97952 3.47167 0.883857 0.25
271 7.53884 7.74615 4.70831 0.25
272 1.7064 1.10602 2.44398 0.25
273 1.41645 3.47646 6.92221 0.25
274 0.855849 5.58436 7.81863 0.25
275 4.59119 4.53958 1.62398 0.25
276 2.67728 3.31523 1.08145 0.25
277 6.68895 1.06141 6.62375 0.25
278 3.98498 6.22509 1.36729 0.25
279 4.11466 0.32785 5.20129 0.5
280 7.88872 8.08349 4.86502 0.25
281 1.15387 6.81287 0.616648 0.25
282 6.29601 7.1267 6.23086 0.25
283 1.17498 0.0948567 6.17122 0.25
284 7.2912 4.4618 1.00562 0.25
285 1.79219 6.04728 1.18626 0.5
286 5.46323 6.69016 3.23934 0.25
287 1.42634 7.87257 3.62133 0.5
288 3.08799 7.186 5.00471 0.25
289 2.26471 7.28735 5.10356 0.25
290 1.96529 3.89177 1.93339 0.25
291 8.24646 7.51619 7.15761 0.25
292 7.71118 2.49654 3.3061 0.25
293 7.35083 4.27667 3.32652 0.25
294 5.37613 3.73372 3.11087 0.25
295 8.11401 4.24327 1.15834 0.25
296 0.495628 4.10832 4.49467 0.5
297 3.91162 3.12189 6.78948 0.25
298 6.41524 5.00456 7.23324 0.25
299 6.03297 5.05704 7.58013 0.25
300 6.3802 3.48339 0.500321 0.25
301 0.951778 7.35085 8.23864 0.25
302 0.059784 4.34362 1.57978 0.25
303 3.94274 0.57799 0.960072 0.25
304 2.0738 2.57371 4.68074 0.25
305 0.773697 4.90596 8.28864 0.25
306 2.33652 2.13705 4.62254 0.25
307 1.785 4.98562 7.73308 0.5
308 3.54187 4.91078 3.29018 0.25
309 4.36586 0.931867 5.51088 0.25
310 0.683187 4.74585 3.95747 0.25
311 7.20545 0.153833 3.92964 0.25
312 1.0081 0.911881 2.45703 0.5
313 0.97309 3.84411 5.40557 0.25
314 5.15404 3.39195 2.80623 0.25
315 1.14152 4.6525 8.04237 0.25
316 1.83145 4.55713 7.14239 0.25
317 7.51066 2.37846 3.78241 0.25
318 2.34271 2.52671 4.26032 0.25
319 4.79472 7.24609 8.01766 0.25
320 1.96014 6.17881 6.01445 0.25
321 4.35539 0.762865 1.16592 0.25
322 7.43261 6.28693 5.01449 0.25
323 0.774424 6.06366 4.21308 0.25
324 4.04978 7.20945 7.81047 0.5
325 0.655365 2.31699 0.363657 0.25
326 4.01253 4.81742 5.13365 0.5
327 7.26869 7.38657 3.36309 0.25
328 2.16664 7.70777 1.88173 0.25
329 1.11402 6.07156 3.50659 0.25
330 8.29583 7.04667 7.32185 0.25
331 0.930065 5.45127 3.89546 0.5
332 7.25529 6.53756 2.18733 0.25
333 0.956785 1.49184 1.92796 0.25
334 6.77612 1.73336 0.922261 0.25
335 3.21455 3.16976 0.962729 0.25
336 2.90478 6.89549 6.87548 0.25
337 4.28252 7.14188 3.06997 0.5
338 6.51833 7.30262 8.33846 0.25
339 2.03944 7.94486 4.08459 0.25
340 5.0663 0.582736 4.8601 0.25
341 6.7738 0.066878 3.22933 0.25
342 1.20219 5.34506 7.56736 0.25
343 2.87186 1.30258 0.269104 0.25
344 1.20347 5.69337 2.69668 0.25
345 0.487895 1.36968 2.75494 0.25
346 0.605466 2.46953 7.88365 0.25
347 3.42604 5.81435 7.65005 0.25
348 7.07257 7.76488 2.16345 0.25
349 0.84773 2.15084 8.2954 0.25
350 6.64598 1.70549 2.69371 0.25
351 1.41563 7.16242 0.799193 0.25
352 6.31421 3.56867 7.78147 0.5
353 2.48557 0.0458292 7.49969 0.25
354 2.00226 0.743858 5.88957 0.25
355 0.845297 0.366646 5.97122 0.25
356 1.83082 1.90579 5.96947 0.25
357 2.99205 4.06558 6.79941 0.25
358 6.10753 3.42318 5.12411 0.25
359 4.3649 0.876717 6.34725 0.25
360 1.80313 2.12976 0.977111 0.25
361 0.895704 7.77062 0.405702 0.25
362 6.22304 4.09776 6.82035 0.25
363 7.93741 4.02156 2.10154 0.25
364 6.00467 3.83895 7.15836 0.25
365 5.52709 6.08263 0.550283 0.25
366 5.92175 6.21844 0.817339 0.25
367 3.11533 4.27659 7.21572 0.25
368 6.89722 3.72035 8.22883 0.25
369 1.07541 7.28331 0.367393 0.25
370 5.50334 0.383478 8.20446 0.25
371 2.81148 7.95881 4.9423 0.25
372 2.02455 4.83059 0.717019 0.25
373 7.0329 2.86364 5.03861 0.25
374 3.62151 4.41343 4.61264 0.25
375 5.41355 0.880051 8.07926 0.25
376 2.56119 5.86404 1.08327 0.25
377 6.45968 1.59475 1.99918 0.5
378 0.463705 3.84805 7.57608 0.25
379 5.20469 1.29926 8.012 0.25
380 2.17262 6.92624 4.74502 0.25
381 4.14068 5.3926 5.63856 0.25
382 1.84887 7.30611 4.74033 0.25
383 6.17644 5.19854 3.9857 0.5
384 2.03975 1.75627 1.223 0.25
385 7.14302 1.52359 7.05502 0.5
386 1.39709 1.32433 5.612 0.25
387 7.88313 1.01932 0.754525 0.25
388 0.694136 5.70878 2.86192 0.25
389 4.6368 2.57344 7.48305 0.5
390 4.04484 0.476155 6.34881 0.25
391 5.4796 4.71661 2.06427 0.25
392 8.16981 2.46857 3.11878 0.25
393 2.78343 6.6481 1.57344 0.25
394 0.738843 8.19876 8.19758 0.25
395 2.50127 1.9101 1.21022 0.25
396 4.66766 7.73076 8.0296 0.25
397 5.1514 0.656298 0.0502689 0.25
398 7.44413 1.43165 8.02775 0.25
399 3.24961 4.45268 3.27931 0.25
400 4.90457 4.37624 0.831894 0.25
401 2.28113 7.1659 3.72067 0.25
402 8.21488 7.97725 6.88229 0.25
403 7.72475 6.28403 0.889502 0.25
404 8.06845 6.71031 6.96571 0.25
405 0.40874 7.75117 0.409467 0.25
406 5.98344 0.23101 4.6266 0.25
407 2.59942 1.00293 8.00565 0.5
408 5.42853 3.24923 2.401 0.25
409 2.09976 4.98702 1.18876 0.25
410 7.6343 0.888619 0.052137 0.5
411 4.4107 5.50738 5.21495 0.25
412 8.34522 7.12866 6.82909 0.25
413 1.09136 2.49804 0.187211 0.25
414 0.661703 3.20089 7.81047 0.5
415 6.43477 4.52205 3.092 0.25
416 3.12074 3.11254 6.71941 0.25
417 3.31378 4.75463 3.95201 0.5
418 7.13494 6.86592 4.61977 0.25
419 3.92271 3.89936 5.95083 0.25
420 0.902178 3.08328 4.93008 0.25
421 4.12485 4.89194 5.82714 0.25
422 2.29029 5.46176 1.26676 0.25
423 0.358206 0.361549 5.80642 0.25
424 0.495983 3.40622 4.79028 0.25
425 1.86462 2.86883 1.12082 0.5
426 7.04587 5.61431 4.98717 0.5
427 2.68882 2.10087 4.23576 0.25
428 3.8871 5.17829 4.05408 0.25
429 4.50694 4.52561 5.64665 0.25
430 1.85972 7.2755 3.47629 0.25
431 0.937379 3.6175 6.77174 0.25
432 1.61801 6.88547 4.13465 0.5
433 2.27134 1.49566 7.58441 0.25
434 0.829486 6.66044 0.925552 0.25
435 5.65458 3.38214 2.86351 0.25
436 0.960799 6.09351 3.0154 0.25
437 0.10008 1.56991 0.461287 0.25
438 1.07889 3.47392 5.14072 0.25
439 3.77584 2.58205 6.71312 0.25
440 5.1232 1.59277 7.64005 0.25
441 8.02042 4.23314 5.45909 0.25
442 2.50265 5.85098 1.5767 0.25
443 0.415222 3.09812 6.7051 0.5
444 1.96893 3.50281 1.62085 0.25
445 5.42839 6.94052 0.639451 0.25
446 4.1522 5.8435 3.62833 0.5
447 1.45868 1.57301 6.01207 0.25
448 5.90055 7.31642 5.95619 0.25
449 0.893096 5.67962 5.73125 0.25
450 3.01203 3.61203 0.932171 0.25
451 2.72298 7.11304 5.36402 0.25
452 2.60645 0.871956 0.398675 0.25
453 4.62988 4.6024 1.10998 0.25
454 0.1252 3.50309 7.28784 0.25
455 7.96668 5.04969 7.79613 0.25
456 2.9606 1.78354 4.1081 0.25
457 2.57864 3.85014 7.43144 0.5
458 0.117371 7.61487 6.75123 0.25
459 4.98376 7.59852 -0.0258317 0.25
460 5.89671 0.400059 5.00605 0.25
461 2.61464 3.73442 1.35016 0.25
462 6.17089 4.90249 3.27903 0.25
463 4.99441 7.3497 2.93716 0.25
464 7.57458 6.79569 6.95515 0.25
465 7.06122 2.62073 5.50048 0.25
466 3.98654 1.27802 2.92575 0.25
467 3.86045 6.18143 1.7939 0.25
468 6.81074 5.22812 3.09566 0.5
469 7.50456 7.34099 6.7438 0.25
470 0.589741 1.80275 0.333893 0.25
471 2.10907 1.02383 6.27967 0.25
472 1.87976 7.36819 1.99487 0.25
473 7.52549 5.13998 5.20768 0.25
474 5.28123 5.83538 5.87271 0.25
475 1.3744 1.41311 2.63742 0.25
476 7.21685 0.77202 7.31766 0.25
477 3.15175 5.41898 3.83254 0.25
478 6.09093 3.34277 7.08312 0.25
479 3.36684 7.19314 7.54243 0.25
480 4.77955 0.258915 1.80703 0.25
481 7.87227 2.0943 4.10609 0.25
482 6.95225 4.95583 4.7236 0.25
483 8.14161 5.60897 4.89715 0.25
484 3.14578 0.426334 8.17935 0.25
485 7.99754 7.51189 6.74274 0.25
486 2.47128 6.2242 5.86069 0.25
487 8.20554 7.74287 4.18528 0.25
488 4.41279 4.07749 5.94294 0.25
489 0.68971 8.17316 0.296741 0.25
490 7.88672 8.01955 1.99622 0.25
491 4.23474 2.96285 1.77749 0.25
492 2.51358 1.66352 4.3654 0.25
493 6.33825 4.55771 6.91072 0.25
494 4.69624 7.54823 2.59015 0.25
495 1.18736 6.10923 5.77996 0.25
496 3.12609 7.65525 4.80078 0.25
497 6.45027 4.33496 7.77069 0.25
498 3.35412 2.93078 4.19729 0.25
499 0.711201 5.22412 7.57554 0.25
500 3.94013 2.97789 6.32198 0.25
501 5.73034 3.63312 3.87568 0.25
502 1.60377 8.02206 7.68356 0.25
503 5.95206 4.89612 2.6099 0.5
504 7.56033 7.70322 2.23879 0.25
505 5.80631 1.59539 2.48059 0.25
506 7.07287 6.3636 4.6574 0.25
507 1.37863 0.59788 3.08133 0.25
508 0.853584 8.26977 5.27503 0.25
509 8.14621 4.82031 4.97797 0.5
510 5.10999 1.36206 5.95396 0.25
511 0.734956 0.343925 5.53663 0.25
512 1.20261 0.996114 3.23757 0.25
513 3.91091 1.07895 5.44462 0.25
514 1.86083 5.69485 6.03798 0.25
515 0.67394 8.16849 7.12107 0.25
516 7.49112 1.8216 6.01221 0.25
517 7.28561 5.26794 4.44778 0.25
518 0.96271 3.52706 4.68201 0.25
519 6.60016 1.9429 1.3294 0.25
520 7.01226 2.42626 6.35493 0.25
521 7.55121 1.63507 0.0729056 0.25
522 6.8904 1.04881 7.57323 0.25
523 5.15183 6.87503 5.78039 0.25
524 2.76952 0.449286 7.47173 0.25
525 6.35536 4.16776 7.24151 0.25
526 7.08182 5.18677 6.78663 0.25
527 7.45461 8.04341 4.05471 0.25
528 7.49927 1.50459 6.41991 0.25
529 6.60864 1.23711 2.65447 0.25
530 2.20848 1.85584 6.38444 0.25
531 7.85724 7.94607 3.88535 0.25
532 1.55805 1.05623 2.95298 0.25
533 7.36011 1.11978 7.70243 0.25
534 8.14336 5.98345 1.60003 0.25
535 0.48422 3.29654 5.54683 0.5
536 6.92566 2.72576 5.93302 0.25
537 4.03445 0.802478 5.92179 0.25
538 6.43522 5.14775 4.72273 0.25
539 2.41778 1.40817 6.20106 0.25
540 7.99045 6.44475 2.14732 0.5
541 7.57042 3.95766 1.68251 0.25
542 2.08382 1.90572 7.76276 0.25
543 3.22516 7.25635 7.04867 0.25
544 7.76928 6.5145 6.62497 0.25
545 1.19072 6.16216 3.97132 0.25
546 5.00955 5.77388 6.29683 0.25
547 5.31529 2.73746 8.21864 0.25
548 6.21688 7.24697 6.738 0.25
549 0.247903 7.87386 7.12415 0.25
550 6.2016 6.96078 8.26317 0.25
551 4.29506 1.39067 2.55505 0.25
552 3.60073 5.52325 4.0366 0.25
553 6.8158 7.94842 3.74659 0.5
554 4.28486 6.38163 3.16182 0.25
555 4.87424 6.62222 3.60961 0.5
556 7.522 0.667396 0.804356 0.25
557 7.17983 4.74756 3.97862 0.5
558 6.43208 0.195669 3.58775 0.25
559 1.39133 0.505896 5.52372 0.5
560 4.99296 3.39223 2.32244 0.25
561 2.92689 3.14786 4.0923 0.25
562 5.1606 0.118581 5.44177 0.25
563 2.21904 6.57328 1.66802 0.25
564 6.23837 6.85491 0.684543 0.5
565 6.83101 1.98153 6.49158 0.25
566 1.12388 1.72072 2.33638 0.25
567 4.51384 5.75616 6.15971 0.25
568 5.74164 1.19987 2.73836 0.25
569 2.55176 8.24949 7.94276 0.25
570 1.98584 6.4653 4.66826 0.25
571 3.30562 3.96609 7.61615 0.25
572 8.12058 2.77965 3.8053 0.5
573 3.80111 1.55177 2.57707 0.25
574 1.49733 5.99821 6.20588 0.25
575 2.22598 1.62552 8.12543 0.25
576 4.20729 5.56446 7.65338 0.25
577 5.38645 0.413739 5.14875 0.25
578 1.96165 7.48969 3.91773 0.25
579 7.45248 5.16206 7.60714 0.25
580 7.22927 0.0803885 4.64909 0.5
581 4.42166 4.63408 6.0989 0.25
582 5.818 2.89402 4.5281 0.25
583 5.56736 3.57559 4.6922 0.5
584 4.7913 6.53066 5.91713 0.25
585 4.61984 3.24516 1.58791 0.25
586 1.82732 0.395869 2.61247 0.5
587 4.81486 7.07766 2.57362 0.25
588 5.70318 5.12907 3.33905 0.25
589 0.187206 2.55276 7.66872 0.25
590 3.54164 6.54696 2.01484 0.25
591 6.90487 1.2641 0.978885 0.25
592 7.28313 7.095 1.75666 0.5
593 6.58541 6.73305 1.35965 0.25
594 1.38029 5.07573 0.332699 0.5
595 0.743238 3.92006 8.00496 0.25
596 2.20717 0.796092 0.659259 0.25
597 0.145671 0.185525 5.08244 0.5
598 2.50824 6.28907 1.35846 0.25
599 2.07023 8.3077 7.8697 0.25
600 7.90401 0.638541 5.32356 0.25
601 0.639842 0.752061 5.27242 0.25
602 4.02197 0.14962 2.10333 0.25
603 4.23353 5.43924 8.15619 0.25
604 7.52006 5.13087 7.06501 0.25
605 7.83055 2.05171 3.6064 0.25
606 2.02992 8.16524 2.13431 0.25
607 4.44961 5.17143 7.78888 0.25
608 3.51882 7.58754 7.34687 0.25
609 6.60734 4.8023 4.38102 0.25
610 1.85181 1.51381 5.70601 0.25
611 3.16992 0.597926 7.73572 0.25
612 0.625518 7.33097 0.237764 0.25
613 6.99571 1.08433 8.08376 0.25
614 4.22964 1.0411 5.07944 0.25
615 4.79025 2.53273 3.71784 0.25
616 1.09691 5.64884 3.16624 0.25
617 1.52116 8.28324 2.09905 0.25
618 7.5782 7.2953 4.12747 0.5
619 7.81673 8.02208 4.3855 0.25
620 8.05779 7.38372 2.56756 0.5
621 4.2831 6.52362 4.02312 0.25
622 6.26436 6.62047 6.14505 0.25
623 6.01973 6.14601 0.378161 0.25
624 1.24425 3.46562 5.59082 0.25
625 1.28866 5.49097 8.04129 0.25
626 3.34397 0.29671 1.49636 0.25
627 4.93897 4.64118 1.95737 0.25
628 8.24119 3.4099 2.4556 0.5
629 7.11417 3.34556 0.208828 0.25
630 1.43639 0.0835369 3.18757 0.25
631 1.87464 1.43705 7.82875 0.25
632 7.45764 7.79016 1.78474 0.25
633 6.10899 7.66112 0.500961 0.25
634 2.97633 7.94119 3.95408 0.25
635 0.765247 7.36469 1.02 0.5
636 1.56087 1.63386 1.04244 0.25
637 5.46297 0.441031 5.6612 0.25
638 4.65204 1.29214 5.23088 0.25
639 4.65913 1.74002 0.0759035 0.25
640 5.1851 7.43808 0.443405 0.25
641 1.31038 6.7448 5.22286 0.25
642 3.63809 0.73009 5.62682 0.25
643 6.19809 6.96367 5.75749 0.25
644 5.75942 0.806135 2.52899 0.25
645 2.10215 2.17011 1.40457 0.25
646 8.26079 6.63912 6.5452 0.25
647 2.45441 2.97516 4.12598 0.25
648 5.24629 1.15259 0.133983 0.25
649 0.325145 4.31899 2.07912 0.25
650 8.31711 3.89799 1.42118 0.25
651 3.25406 3.1532 3.75137 0.25
652 6.78937 0.880642 7.13851 0.25
653 1.26812 6.75465 1.10604 0.25
654 0.575489 2.60035 8.33261 0.25
655 3.57813 3.63713 6.52894 0.5
656 0.605305 3.64535 7.15612 0.25
657 1.36611 5.66426 5.90883 0.25
658 6.84172 0.360753 3.5699 0.25
659 2.62222 1.7515 7.86611 0.25
660 6.95998 5.86301 4.01073 0.5
661 8.32622 1.2959 0.0144922 0.25
662 3.85923 4.79941 4.38028 0.25
663 2.39916 3.66316 1.81031 0.25
664 6.61611 2.72051 4.78852 0.25
665 7.83535 3.84526 1.27793 0.25
666 6.10649 6.79534 6.58282 0.25
667 6.63104 3.37947 0.0797541 0.25
668 6.93878 6.41503 1.8558 0.25
669 5.97289 4.86189 7.06734 0.25
670 6.02415 8.2389 5.00674 0.25
671 3.45241 4.91893 4.68024 0.25
672 2.51548 3.25023 2.004 0.25
673 0.786693 1.18587 3.10199 0.25
674 4.90767 7.39546 3.41163 0.25
675 5.33897 3.58772 5.40472 0.25
676 7.39594 8.15493 2.1667 0.25
677 6.4961 1.45005 1.20931 0.25
678 7.48669 6.09337 4.52556 0.25
679 1.07377 6.34574 1.2552 0.25
680 3.64467 6.58723 8.06844 0.25
681 7.75146 0.0243876 4.09176 0.25
682 2.23036 6.10007 1.80838 0.25
683 1.6002 7.80913 7.22872 0.25
684 0.391976 3.99941 1.66789 0.25
685 2.89577 3.58322 6.83595 0.25
686 4.26035 2.77786 6.66959 0.25
687 1.64248 4.50268 0.757216 0.25
688 3.58092 0.69751 6.14228 0.25
689 6.11206 4.13905 8.11246 0.25
690 6.09873 1.13556 2.44478 0.25
691 6.94418 1.62676 1.35562 0.25
692 5.23215 5.11602 1.89251 0.25
693 7.3469 2.00785 6.40883 0.25
694 7.45689 4.91936 4.7525 0.25
695 8.40118 2.66147 5.71904 0.25
696 5.67524 5.90425 3.30473 0.5
697 4.2545 3.742 6.28728 0.25
698 1.86612 1.03938 5.50179 0.25
699 1.69427 6.86398 4.87206 0.25
700 4.29093 5.93344 1.16303 0.25
701 4.8695 1.69836 8.01988 0.25
702 2.28064 4.48771 7.40257 0.25
703 3.31387 6.50877 7.46405 0.5
704 4.72892 5.17508 8.23981 0.25
705 4.96389 3.09959 1.93413 0.25
706 5.05213 0.156936 8.29746 0.25
707 4.57425 3.86679 1.23644 0.5
708 5.68404 7.51975 7.83523 0.25
709 2.61354 7.1427 2.09328 0.5
710 2.23513 4.35297 6.92941 0.25
711 5.14969 6.37102 2.99149 0.25
712 0.479816 5.28865 8.03395 0.25
713 2.73141 4.03239 1.71939 0.25
714 5.19727 3.98885 0.831932 0.25
715 4.71914 6.56979 2.85051 0.25
716 6.74133 0.582085 7.5149 0.25
717 7.51253 7.77631 3.57215 0.25
718 6.05459 3.61499 6.70557 0.25
719 6.04387 4.62686 7.91384 0.25
720 1.70121 7.58189 4.28691 0.25
721 7.02819 1.92682 2.4086 0.25
722 2.35649 7.8081 3.40779 0.5
723 2.37696 7.64978 2.62681 0.25
724 7.04748 6.4515 1.38505 0.25
725 7.70536 6.31825 7.09847 0.25
726 1.00705 1.05697 5.43156 0.25
727 4.22094 0.268295 1.26263 0.25
728 3.67993 6.13631 7.99747 0.25
729 4.89539 5.88086 3.49316 0.25
730 2.87638 7.05177 7.31198 0.25
731 5.32838 2.9407 2.78466 0.25
732 4.19749 3.58106 6.81129 0.25
733 3.774 5.49728 7.46708 0.25
734 3.9035 1.08298 2.46658 0.25
735 3.49199 2.92599 6.49597 0.25
736 7.96834 1.53214 8.16852 0.25
737 3.44105 0.590554 1.11869 0.25
738 0.213515 8.18723 0.492397 0.25
739 4.71048 6.12409 3.12054 0.25
740 5.36153 7.20405 3.26015 0.25
741 0.144483 7.77218 0.811879 0.25
742 3.92531 4.64658 6.20057 0.25
743 7.09301 0.784434 1.11671 0.25
744 4.35295 0.989975 2.24606 0.25
745 3.63186 4.25786 6.06129 0.25
746 1.3181 6.15213 4.72462 0.5
747 4.39823 0.45786 2.07683 0.25
748 2.63701 6.6104 7.20219 0.25
749 1.42797 1.42685 2.12697 0.25
750 0.194414 3.5451 1.72684 0.25
751 1.00726 0.845632 4.93276 0.25
752 6.50686 4.86132 7.74664 0.25
753 3.87789 0.775818 1.72117 0.5
754 4.31382 5.99345 1.65883 0.25
755 2.73648 2.6252 1.42171 0.5
756 7.8493 6.78899 7.40783 0.25
757 5.65856 6.96443 5.67585 0.25
758 6.80724 3.90971 7.32248 0.25
759 4.56932 8.32358 4.81489 0.25
760 0.245007 2.54814 3.30831 0.25
761 3.65332 7.16383 7.13267 0.25
762 0.63003 1.8645 3.38685 0.5
763 4.1121 8.06659 1.8835 0.25
764 1.58914 6.67748 0.754119 0.25
765 7.37412 4.73265 3.29084 0.25
766 0.604729 4.586 2.37257 0.25
767 2.56358 6.90384 7.57894 0.25
768 2.26735 2.85939 5.05599 0.25
769 7.97347 3.67501 1.6957 0.25
770 4.9432 0.954571 8.12239 0.25
771 6.81553 1.2736 6.12984 0.25
772 4.96334 2.4283 8.12513 0.25
773 5.46186 1.10471 5.23888 0.5
774 3.78657 8.10803 4.91769 0.25
775 7.8453 4.38019 2.78716 0.5
776 6.99126 3.96406 0.508728 0.5
777 6.00459 6.53659 0.0439615 0.25
778 4.78235 8.0489 0.0720267 0.25
779 8.20215 8.2308 4.12111 0.25
780 2.27077 1.7445 5.88671 0.25
781 2.68785 1.65327 8.315 0.25
782 1.06942 8.05626 0.67537 0.25
783 6.78023 3.18559 0.514064 0.25
784 2.01547 7.72715 2.31248 0.25
785 2.68505 1.85197 6.18899 0.25
786 2.49694 7.90434 2.20414 0.25
787 7.89206 7.01126 6.62187 0.25
788 8.36185 4.055 2.35567 0.25
789 3.63655 0.0963026 4.63096 0.25
790 7.13495 0.856347 6.79068 0.25
791 0.589803 4.58544 3.14704 0.5
792 2.34736 0.37591 7.7729 0.25
793 8.06979 7.18987 1.89531 0.25
794 5.45573 6.42018 6.27495 0.5
795 2.36414 4.29262 3.18463 0.25
796 2.13782 5.89288 5.6541 0.25
797 6.62191 6.36958 1.04106 0.25
798 7.63007 4.35321 1.34045 0.25
799 4.05033 3.34319 6.02295 0.25
800 7.91913 2.04427 3.12866 0.25
801 3.08749 7.7887 7.03664 0.25
802 3.22892 5.30614 4.32602 0.25
803 3.23757 8.22284 7.59233 0.5
804 3.73018 6.9768 1.89367 0.25
805 1.68199 7.8258 2.02839 0.25
806 2.54805 1.80247 3.81668 0.25
807 4.59666 6.27694 5.49083 0.25
808 4.22574 2.0353 7.85567 0.25
809 1.65602 6.02769 5.71589 0.25
810 6.56905 7.43533 6.50379 0.25
811 1.65374 3.23445 4.86727 0.5
812 5.67484 7.35772 0.475392 0.25
813 4.19072 1.72301 2.94337 0.25
814 1.63814 7.55672 7.67053 0.25
815 2.88338 8.06727 4.44974 0.25
816 1.12841 2.99411 5.35769 0.25
817 4.38213 1.60268 8.03193 0.25
818 3.73655 1.70901 3.09854 0.25
819 1.78683 5.32494 1.37139 0.25
820 3.52775 2.95105 7.02305 0.25
821 1.6007 1.99662 8.25252 0.5
822 5.82464 4.34074 3.50065 0.5
823 5.12231 0.513408 7.94408 0.25
824 0.908835 0.351155 5.03852 0.25
825 3.90788 5.97563 7.55515 0.25
826 3.15344 3.44587 1.63397 0.5
827 5.84042 7.22428 6.42652 0.25
828 0.528812 2.16754 7.51041 0.25
829 8.32394 8.02318 4.57701 0.25
830 0.824147 2.01716 2.58652 0.25
831 2.36231 4.577 7.8502 0.25
832 5.85871 4.48454 2.01537 0.25
833 1.93189 1.4653 6.20443 0.25
834 4.09948 0.560637 2.47604 0.25
835 6.15441 1.8116 1.28417 0.25
836 3.3774 7.51644 7.86278 0.25
837 3.93894 5.17844 7.82714 0.25
838 7.62587 0.902958 1.19709 0.25
839 6.07897 7.57664 6.35193 0.25
840 7.01298 4.64844 7.31239 0.5
841 3.35576 6.8939 2.23951 0.25
842 0.142346 1.97352 2.70553 0.5
843 5.81059 3.77957 5.37968 0.25
844 4.73883 2.21556 0.149849 0.25
845 7.52009 2.69659 5.15137 0.25
846 3.81106 3.41692 7.46972 0.5
847 1.91223 5.32579 0.910665 0.25
848 1.76866 5.95044 5.2775 0.25
849 5.15626 7.74501 2.67968 0.25
850 6.3366 2.75902 5.46594 0.5
851 5.69033 0.0558955 5.39574 0.25
852 6.95086 1.49603 7.79984 0.25
853 4.12311 8.2443 4.59929 0.25
854 4.3267 1.49239 5.9401 0.5
855 0.467575 4.01136 5.34133 0.25
856 0.628925 5.37097 3.24107 0.25
857 3.7433 6.61108 1.61067 0.25
858 2.65911 4.751 3.78784 0.25
859 6.4317 4.4877 4.01519 0.25
860 7.66153 4.16022 0.867784 0.25
861 4.79902 2.86877 8.20017 0.25
862 6.52485 4.69393 3.55802 0.25
863 5.50092 6.51489 0.870055 0.25
864 7.47315 6.91157 2.46993 0.25
865 3.79932 5.64135 7.93731 0.25
866 5.10154 8.15934 2.98894 0.25
867 1.91806 4.29931 7.60998 0.25
868 2.19513 1.56187 0.520958 0.5
869 1.0426 3.34855 7.18697 0.25
870 6.13171 5.39799 3.19303 0.25
871 2.74783 7.42253 6.96538 0.25
872 5.78466 2.96664 5.02501 0.25
873 0.272896 8.01883 8.38129 0.25
874 3.88399 0.987406 6.35619 0.25
875 2.12061 4.25894 1.29462 0.5
876 1.28845 5.79676 5.42018 0.25
877 0.0243711 5.26615 7.7745 0.25
878 5.70769 1.24337 2.18215 0.25
879 3.31745 8.06535 4.74723 0.25
880 6.36466 5.84561 3.0717 0.25
881 7.2476 1.25471 1.29638 0.25
882 7.84656 7.17868 7.0915 0.25
883 0.429916 4.09009 2.50216 0.25
884 7.19541 3.28675 0.731822 0.25
885 0.872449 4.24917 5.18143 0.25
886 7.7434 7.39792 3.25672 0.25
887 0.881252 6.81613 1.44807 0.25
888 1.09102 4.74432 3.66658 0.25
889 1.30591 8.12034 2.84202 0.25
890 0.176042 4.4943 2.545 0.25
891 0.932947 2.49145 7.56884 0.25
892 7.533 3.61403 0.917695 0.25
893 0.599666 8.01978 0.747381 0.25
894 3.96842 5.72386 1.50352 0.25
895 3.81027 5.92213 1.01527 0.25
896 1.9686 1.24818 8.25244 0.25
897 8.0171 4.18011 1.66486 0.25
898 0.901813 4.34427 3.83632 0.25
899 0.988833 8.33731 5.74148 0.25
900 5.15268 6.32567 5.70829 0.25
901 0.898872 1.53508 2.72894 0.25
902 7.33704 3.9844 1.19313 0.25
903 5.74602 3.60564 3.37026 0.25
904 6.85279 4.06309 7.79943 0.25
905 5.19463 0.835422 5.85329 0.25