ITEM: TIMESTEP
660000
ITEM: NUMBER OF ATOMS
1000
ITEM: BOX BOUNDS xy xz yz pp pp pp
0.0000000000000000e+00 8.3788359999999997e+00 0.0000000000000000e+00
0.0000000000000000e+00 8.3788359999999997e+00 0.0000000000000000e+00
0.0000000000000000e+00 8.3788359999999997e+00 0.0000000000000000e+00
ITEM: ATOMS id x y z radius
1 2.85426 6.98102 4.85908 0.25
2 4.75203 5.17735 5.11687 0.25
3 7.00722 4.54825 3.15646 0.25
4 7.24776 0.991529 5.82236 0.5
5 1.14759 5.69532 6.31038 0.25
6 8.17197 1.81979 3.3922 0.25
7 4.24365 3.28413 6.52253 0.25
8 4.83364 7.73412 2.93367 0.25
9 0.796553 6.08877 3.83806 0.25
10 4.21889 1.51809 3.42038 0.25
11 5.22309 0.22244 7.98365 0.25
12 5.39944 3.5307 1.51683 0.25
13 0.54352 2.36617 7.40851 0.25
14 3.54496 2.73192 7.10494 0.25
15 -0.0381642 2.58322 5.74028 0.25
16 7.46853 0.915655 6.61099 0.25
17 0.875975 5.2549 8.30397 0.25
18 6.05543 7.6349 8.05204 0.25
19 4.37572 1.89206 7.71867 0.25
20 7.82607 1.35594 0.687021 0.25
21 5.08605 4.32431 1.86426 0.25
22 4.2154 3.34821 1.11897 0.25
23 2.19494 3.3898 1.97084 0.25
24 2.88893 1.99811 4.5874 0.25
25 2.84505 4.51977 2.92175 0.25
26 0.371836 0.0374109 5.72536 0.25
27 3.90305 0.3519 5.72288 0.25
28 4.06948 2.44632 8.31692 0.25
29 5.17506 6.90534 2.93719 0.25
30 7.51328 7.25143 2.43715 0.25
31 2.73335 0.373514 8.05416 0.25
32 0.92313 2.69101 7.28572 0.25
33 7.64921 0.0918585 5.1948 0.25
34 2.03805 5.47034 1.46489 0.25
35 8.01151 0.0130353 4.52321 0.25
36 6.78407 1.92851 5.85898 0.5
37 4.48489 1.35625 1.90384 0.25
38 2.10961 3.41999 4.26648 0.25
39 6.13244 2.61667 4.8336 0.25
40 5.35223 7.68517 3.03891 0.25
41 6.88946 2.17509 2.68536 0.25
42 5.58458 6.05287 5.69936 0.25
43 3.48639 7.77647 4.8944 0.25
44 3.76104 8.32626 5.42286 0.25
45 5.58666 4.04843 4.08161 0.25
46 3.19087 6.08448 1.38598 0.5
47 5.03956 0.879803 5.53175 0.25
48 7.99854 6.27374 6.70959 0.25
49 7.35995 6.65322 4.70032 0.25
50 7.97428 1.10565 1.16449 0.25
51 2.61177 3.45071 4.35961 0.25
52 0.604261 1.61395 2.33658 0.25
53 6.41744 5.02904 7.02526 0.25
54 5.84931 3.19349 4.09709 0.25
55 1.68437 1.0439 5.84921 0.25
56 1.12599 7.21925 0.127442 0.25
57 4.66137 0.878749 1.82744 0.25
58 2.27628 2.11919 4.03725 0.25
59 4.72765 1.01272 6.43028 0.25
60 7.7229 5.38125 5.20495 0.25
61 4.91111 8.17924 8.15253 0.25
62 5.26918 2.1195 8.22442 0.5
63 7.54742 6.58509 1.06229 0.25
64 1.0591 6.35418 1.41575 0.25
65 4.15229 0.215617 1.82292 0.25
66 2.24895 4.80515 7.2796 0.25
67 8.2557 4.92707 7.21203 0.25
68 7.11261 0.549135 6.4782 0.25
69 0.403348 5.55121 7.56951 0.25
70 1.81845 4.89705 0.940934 0.25
71 8.07684 1.2868 0.298349 0.25
72 6.52214 6.17529 3.39633 0.25
73 0.556618 7.55096 6.82062 0.25
74 7.28967 5.65523 6.77243 0.25
75 7.26895 8.35056 3.34894 0.25
76 7.55311 6.33257 4.36803 0.25
77 5.61715 2.75185 5.43289 0.25
78 5.42478 3.90435 1.1579 0.25
79 7.60702 4.92976 4.49745 0.25
80 5.7757 3.28533 5.47945 0.25
81 7.14011 1.44272 1.23894 0.25
82 0.408837 2.67211 6.05997 0.25
83 4.34571 5.84731 5.64259 0.25
84 1.13059 1.05325 5.96171 0.25
85 1.3159 1.10133 5.12698 0.25
86 4.67815 8.35818 5.3502 0.25
87 1.57167 2.08589 0.684946 0.25
88 3.29336 6.78783 1.70771 0.25
89 6.75603 7.41433 0.897028 0.25
90 5.50937 6.43977 5.499 0.25
91 3.95164 4.17953 6.17898 0.25
92 6.20261 4.55829 7.50411 0.25
93 4.98292 6.59457 5.37267 0.25
94 6.76617 0.150802 4.05783 0.25
95 0.276276 4.49101 7.66014 0.5
96 5.35048 3.11739 3.53241 0.5
97 4.34418 5.09431 8.14171 0.25
98 8.35748 2.2633 3.50938 0.25
99 1.51635 6.35777 5.97244 0.25
100 6.91271 6.99606 1.11812 0.25
101 0.813423 7.73025 8.15994 0.25
102 7.79946 4.65141 3.47666 0.25
103 6.73628 1.24161 1.36596 0.25
104 0.944768 4.74082 7.40968 0.25
105 5.05678 5.80447 5.22664 0.5
106 5.36664 0.34888 4.57976 0.25
107 4.23121 3.28608 7.07403 0.25
108 4.71749 1.52044 8.36626 0.25
109 0.688869 0.810501 5.8538 0.25
110 2.16767 7.93008 8.34281 0.25
111 3.12963 3.89588 6.86438 0.25
112 4.44268 2.19689 8.09023 0.25
113 1.57438 1.93401 1.77959 0.5
114 1.68868 3.75785 7.06742 0.25
115 4.65701 6.27981 6.31977 0.25
116 2.44979 7.22287 7.09265 0.25
117 4.17436 2.16963 3.83707 0.5
118 6.4535 7.13069 1.22316 0.25
119 0.950769 6.27149 3.3932 0.25
120 0.12246 2.76974 2.38514 0.25
121 3.25908 4.10786 3.53066 0.25
122 6.69588 0.698483 6.30932 0.25
123 5.32759 0.448019 5.55444 0.25
124 8.15969 7.85868 2.48115 0.25
125 3.4359 2.12538 3.89456 0.25
126 3.64994 1.15807 5.85406 0.25
127 5.45441 4.00598 1.69301 0.25
128 6.65256 5.38374 7.3032 0.25
129 0.98612 6.43548 4.24792 0.25
130 5.99296 6.38336 0.758509 0.25
131 7.01162 1.51922 6.36504 0.25
132 6.03013 4.11464 7.62985 0.25
133 3.10879 1.8476 3.55392 0.25
134 4.38915 2.88395 8.2064 0.25
135 5.45117 3.84882 3.6503 0.25
136 2.89863 2.56693 3.68302 0.5
137 3.00675 4.07764 3.08705 0.25
138 7.59753 7.71238 2.93482 0.5
139 2.56173 7.64192 5.13396 0.25
140 5.07739 7.75096 7.91063 0.25
141 7.82636 5.82676 4.94529 0.25
142 1.23115 5.08259 3.29714 0.25
143 2.25388 2.16531 8.1755 0.25
144 5.0714 1.31308 2.42639 0.5
145 7.40339 1.91575 3.93934 0.25
146 6.00096 7.54983 0.158378 0.25
147 6.50358 5.64191 4.50016 0.25
148 2.27079 3.04982 4.50473 0.25
149 4.60508 8.28723 2.39092 0.5
150 5.06649 2.80306 4.11813 0.25
151 3.48047 5.88684 7.2428 0.25
152 3.60085 4.58488 5.59289 0.25
153 6.73978 5.99578 2.25372 0.5
154 7.34368 2.40875 4.57115 0.5
155 2.95242 7.26087 7.78613 0.25
156 7.58143 3.62927 1.50925 0.25
157 7.62081 5.87475 1.51629 0.25
158 2.60585 3.86948 0.90999 0.25
159 7.09497 7.7334 4.44365 0.25
160 6.6365 1.94655 3.01855 0.25
161 1.04568 5.19138 2.85429 0.25
162 5.91828 4.35985 7.16568 0.25
163 3.34968 3.75657 4.17506 0.5
164 2.53269 3.97373 2.46299 0.5
165 5.2725 8.14924 7.79035 0.25
166 0.065348 3.77966 7.92544 0.25
167 6.62137 4.06395 8.28742 0.25
168 4.78305 6.03996 5.90505 0.25
169 4.02316 4.36487 5.71502 0.25
170 8.38338 2.36316 6.22615 0.25
171 7.77552 5.77436 1.04904 0.25
172 1.13089 2.9177 6.86377 0.25
173 4.37805 6.29368 5.91469 0.25
174 2.43837 2.2311 1.07866 0.25
175 7.64241 2.40107 6.00586 0.5
176 2.41277 5.78476 6.1317 0.25
177 5.42951 3.55166 4.093 0.25
178 3.05489 6.5219 1.9914 0.25
179 3.50624 2.16789 3.40853 0.25
180 5.96623 6.38056 5.78272 0.25
181 6.65858 4.21952 6.90905 0.25
182 3.36862 5.36848 3.28891 0.25
183 8.02359 7.4235 1.7771 0.25
184 3.9077 5.3407 8.29229 0.25
185 5.91663 6.78582 6.13583 0.25
186 7.47415 5.83907 4.5365 0.25
187 2.92827 5.17619 4.05067 0.25
188 0.776329 5.81808 3.38179 0.25
189 4.29726 6.55848 3.47368 0.25
190 4.12569 3.38689 1.57207 0.25
191 7.21371 1.82558 0.5458 0.5
192 0.856408 4.94869 7.88756 0.25
193 3.9235 5.46949 0.965131 0.25
194 2.58586 6.48853 2.03086 0.25
195 6.16637 5.58889 2.68242 0.25
196 2.22695 8.03206 2.7366 0.25
197 1.23916 0.31331 2.27941 0.25
198 7.72798 4.837 7.25325 0.25
199 1.11874 1.36403 3.1703 0.25
200 4.4788 5.24604 1.4164 0.5
201 6.78306 1.44657 3.11015 0.25
202 8.32901 3.72727 5.42905 0.25
203 3.62364 1.72032 3.63885 0.25
204 5.58532 8.12937 0.0751799 0.5
205 2.43841 7.42339 4.44718 0.5
206 0.366649 4.44558 5.17386 0.25
207 5.60622 2.73609 4.13152 0.25
208 6.85345 5.31178 4.37625 0.25
209 5.40342 7.20346 8.27911 0.5
210 1.82503 8.08673 3.06125 0.25
211 0.671839 3.6482 5.00317 0.25
212 1.42826 7.93223 -0.00311757 0.5
213 0.326929 4.16271 2.74451 0.25
214 1.797 8.0993 2.56277 0.25
215 2.94519 4.29938 3.86355 0.25
216 6.45229 1.97705 2.57732 0.25
217 5.11649 3.79831 1.88326 0.25
218 2.35286 3.4179 4.78646 0.25
219 4.4308 1.07607 2.75556 0.25
220 3.5478 3.55001 0.974277 0.25
221 4.20555 8.32132 5.57285 0.25
222 7.27703 0.426505 5.29357 0.25
223 8.07206 2.83625 2.70616 0.25
224 7.1611 5.49847 7.2417 0.25
225 7.30708 2.13422 5.31556 0.25
226 4.76907 2.18973 7.69001 0.25
227 6.48153 3.72386 7.04708 0.25
228 5.39073 3.09952 4.34451 0.25
229 5.74206 4.95722 1.8777 0.25
230 0.46417 8.19526 6.51113 0.5
231 5.33663 4.70067 1.2622 0.5
232 1.95951 2.93033 4.24089 0.25
233 3.82389 5.22427 4.40298 0.25
234 6.52283 1.06983 6.64015 0.25
235 3.18766 7.35616 4.74024 0.25
236 0.835888 2.52014 7.79075 0.25
237 8.21113 2.91704 7.29453 0.25
238 3.16432 0.997901 1.55916 0.25
239 0.449329 2.54396 3.77925 0.25
240 6.69811 6.35103 1.56314 0.25
241 3.38303 7.13735 8 0.25
242 1.70851 7.40633 2.70254 0.5
243 3.10057 4.87293 3.22173 0.25
244 7.19131 3.48869 1.18391 0.25
245 2.15139 1.16357 5.68854 0.25
246 7.62687 8.06865 3.642 0.25
247 3.60112 2.60979 3.70995 0.25
248 3.74861 3.20987 1.25156 0.25
249 0.313665 5.19993 7.20375 0.25
250 1.34965 3.74421 5.3619 0.25
251 5.34513 2.51471 4.78651 0.5
252 3.18991 2.23298 4.318 0.25
253 7.96513 5.63633 7.20256 0.5
254 7.34998 5.9763 7.10138 0.25
255 4.68746 0.427842 5.96927 0.5
256 6.00343 6.30303 0.252123 0.25
257 1.15633 0.1393 2.73387 0.25
258 1.49563 1.86093 2.51281 0.25
259 4.57724 3.21139 1.56246 0.25
260 7.88224 6.22036 1.20254 0.25
261 3.81208 8.3196 1.51668 0.25
262 3.50622 2.55551 4.17914 0.25
263 2.15869 0.30587 0.235606 0.5
264 2.86252 4.40912 3.4042 0.25
265 1.07723 3.95256 7.31696 0.5
266 0.901118 7.79478 7.45305 0.5
267 5.03332 2.63398 7.63413 0.25
268 6.28452 7.96377 0.118729 0.25
269 1.82947 5.70257 0.711144 0.25
270 3.91039 3.70001 1.28332 0.25
271 7.47683 7.76587 4.69408 0.25
272 1.55191 1.02247 2.51825 0.25
273 1.34511 3.36854 6.93069 0.25
274 0.838509 5.47902 7.79986 0.25
275 4.65428 4.52534 1.6115 0.25
276 2.72417 3.23357 1.1713 0.25
277 6.75879 0.672005 6.81828 0.25
278 3.89047 6.22634 1.1934 0.25
279 4.19828 0.506285 5.07604 0.5
280 7.83331 8.10349 4.90634 0.25
281 0.723437 6.42177 1.03785 0.25
282 6.30032 7.03615 6.26671 0.25
283 1.05862 0.116435 6.16119 0.25
284 7.352 4.45327 0.923979 0.25
285 1.7734 6.16183 1.36323 0.5
286 5.59422 6.71435 3.17588 0.25
287 1.41427 7.73697 3.56207 0.5
288 2.89333 7.32837 5.14 0.25
289 2.4187 7.13033 5.10055 0.25
290 2.04663 3.88516 1.92235 0.25
291 8.20182 7.54716 7.15386 0.25
292 7.67479 2.54588 3.41904 0.25
293 7.41919 4.32515 3.36076 0.25
294 5.47113 3.76483 3.14346 0.25
295 8.22803 4.29855 1.08827 0.25
296 0.490964 4.11614 4.51472 0.5
297 3.84851 3.06965 6.85112 0.25
298 6.24612 5.09044 7.48017 0.25
299 5.85931 4.82275 7.67196 0.25
300 6.39271 3.38092 0.583486 0.25
301 1.13456 7.30647 8.02478 0.25
302 0.1959 4.34565 1.47087 0.25
303 3.48277 0.759891 1.32667 0.25
304 2.09732 2.64238 4.66635 0.25
305 0.643039 4.80078 8.29491 0.25
306 2.37955 2.20485 4.55223 0.25
307 1.64303 4.66539 7.75031 0.5
308 3.77064 5.72632 3.18169 0.25
309 4.52533 0.991798 5.58651 0.25
310 0.496329 4.68448 3.88623 0.25
311 7.29848 0.0318116 3.82449 0.25
312 0.864741 0.884022 2.50051 0.5
313 0.881117 3.73259 5.41743 0.25
314 5.23461 3.44455 2.8107 0.25
315 1.13113 4.8122 8.24772 0.25
316 1.80446 4.2498 7.14121 0.25
317 7.45195 2.37887 3.83928 0.25
318 2.3499 2.60232 4.20692 0.25
319 4.73149 7.40401 8.03598 0.25
320 2.02682 6.14115 6.08136 0.25
321 3.96318 0.861741 1.27808 0.25
322 7.19605 6.40425 5.16221 0.25
323 0.812083 5.99287 4.32861 0.25
324 4.08626 7.3113 7.76308 0.5
325 0.914029 1.82013 0.154501 0.25
326 4.08204 4.82511 5.03093 0.5
327 7.36574 7.18564 3.48827 0.25
328 2.247 7.87802 1.88429 0.25
329 1.20614 5.97147 3.5781 0.25
330 8.22235 7.03889 7.28132 0.25
331 0.977709 5.33855 3.93866 0.5
332 7.38858 6.47538 2.06288 0.25
333 0.96142 1.54106 1.99982 0.25
334 6.85167 1.69714 1.51182 0.25
335 3.23553 3.16704 1.03484 0.25
336 2.87539 7.07818 6.825 0.25
337 4.37682 7.11411 3.01624 0.5
338 6.47408 7.52741 8.35221 0.25
339 2.03024 7.90707 4.08022 0.25
340 4.9226 0.538198 4.77174 0.25
341 6.72568 0.0316578 3.17327 0.25
342 1.15126 5.23214 7.50828 0.25
343 2.76059 1.4188 0.128085 0.25
344 1.24993 5.61127 2.72084 0.25
345 0.429112 1.49699 2.74081 0.25
346 0.36791 2.39227 7.90892 0.25
347 3.37192 5.94341 7.75181 0.25
348 7.35221 7.66912 2.21389 0.25
349 0.745837 2.18261 8.21906 0.25
350 6.83612 1.70605 2.65731 0.25
351 1.28643 6.93471 0.605342 0.25
352 6.42039 3.50761 7.7695 0.5
353 2.33411 0.0376454 7.58956 0.25
354 1.996 0.704928 5.6296 0.25
355 0.652672 0.351289 5.99641 0.25
356 1.84898 1.82558 5.97285 0.25
357 2.82461 3.86443 6.51029 0.25
358 6.18868 3.39172 5.20061 0.25
359 4.23912 0.841463 6.42503 0.25
360 1.95589 2.19557 1.09683 0.25
361 0.847861 7.58317 0.266627 0.25
362 6.17279 4.08787 6.83957 0.25
363 8.05754 4.10173 2.0783 0.25
364 5.99215 3.82516 7.1912 0.25
365 5.58488 6.20155 0.544238 0.25
366 5.2263 6.58446 0.438441 0.25
367 2.73935 4.26017 6.83364 0.25
368 7.00208 3.72516 8.23551 0.25
369 0.999696 6.47734 0.621239 0.25
370 5.3998 0.542366 8.34847 0.25
371 2.5349 8.08798 4.88504 0.25
372 2.19154 4.81033 0.690856 0.25
373 6.98007 2.82443 5.14676 0.25
374 3.66968 4.41448 4.52218 0.25
375 5.30291 0.980652 8.07451 0.25
376 2.50059 6.11404 1.1709 0.25
377 6.42484 1.44231 2.02867 0.5
378 0.322445 3.74599 7.48876 0.25
379 5.06954 1.45005 7.98703 0.25
380 2.45468 6.66876 4.87841 0.25
381 4.05027 5.38086 5.59051 0.25
382 2.01595 6.94848 4.82099 0.25
383 6.24889 5.21062 3.9182 0.5
384 1.66062 1.82973 1.07473 0.25
385 7.02275 1.44712 7.13963 0.5
386 1.40779 1.25298 5.54289 0.25
387 7.75935 0.800447 0.79529 0.25
388 0.76871 5.60519 2.92633 0.25
389 4.20994 2.61382 7.52232 0.5
390 3.94116 0.452978 6.20718 0.25
391 5.36187 4.67929 2.08711 0.25
392 8.20356 2.65245 3.17292 0.25
393 2.8139 6.65691 1.58268 0.25
394 0.849494 8.24651 8.09549 0.25
395 2.18248 1.78339 1.27811 0.25
396 4.54161 7.86985 7.97788 0.25
397 5.01055 0.818821 0.114228 0.25
398 7.37468 1.57706 8.157 0.25
399 3.32224 4.43203 3.16979 0.25
400 4.85813 4.40724 0.723012 0.25
401 2.3344 7.06365 3.79252 0.25
402 8.20913 7.99998 7.011 0.25
403 7.66944 6.20377 0.748673 0.25
404 8.0015 6.74034 6.93175 0.25
405 0.384177 7.61018 0.0444697 0.25
406 5.53082 8.34796 4.32538 0.25
407 2.34668 1.08427 8.01397 0.5
408 5.59585 3.35069 2.43642 0.25
409 2.22888 5.13169 1.12592 0.25
410 7.33921 0.966967 0.171289 0.5
411 4.42277 5.43667 5.31527 0.25
412 8.23737 7.15974 6.78406 0.25
413 1.40179 1.74847 0.334777 0.25
414 0.452569 3.11509 7.74268 0.5
415 6.48535 4.59395 2.94316 0.25
416 3.00596 3.00146 6.49732 0.25
417 3.50701 4.77271 3.81891 0.5
418 7.11435 6.59403 4.27925 0.25
419 3.95203 3.85856 5.81402 0.25
420 0.914762 3.00552 4.88053 0.25
421 4.02419 4.8776 5.77135 0.25
422 2.21956 5.6479 1.03572 0.25
423 0.247608 0.56382 5.70554 0.25
424 0.458332 3.30314 4.7418 0.25
425 2.0178 2.84563 1.38235 0.5
426 7.02178 5.61743 5.06571 0.5
427 2.69071 2.23108 4.22193 0.25
428 4.08149 5.20647 3.97273 0.25
429 4.45735 4.50156 5.61851 0.25
430 1.91622 7.15204 3.45792 0.25
431 0.927119 3.3901 6.75154 0.25
432 1.62704 6.83 4.12982 0.5
433 1.97684 1.71629 7.68228 0.25
434 0.832075 6.8219 1.31225 0.25
435 5.72336 3.43301 2.89884 0.25
436 1.09103 6.00682 3.0537 0.25
437 0.154454 1.02844 0.33532 0.25
438 1.02134 3.39158 5.11637 0.25
439 3.91796 2.60306 6.80416 0.25
440 4.86921 1.72675 7.56811 0.25
441 8.01218 4.08718 5.33894 0.25
442 2.43781 5.77568 1.50917 0.25
443 0.41481 2.78664 6.7932 0.5
444 2.14605 3.59091 1.49055 0.25
445 5.48617 7.03922 0.62423 0.25
446 4.31409 5.84612 3.5935 0.5
447 1.4853 1.45489 5.9784 0.25
448 5.96744 7.28271 5.98432 0.25
449 0.985405 5.52235 5.91205 0.25
450 3.02517 3.64927 1.02028 0.25
451 2.71353 6.82925 5.26433 0.25
452 2.47775 1.027 0.349084 0.25
453 4.57842 4.55069 1.113 0.25
454 0.103286 3.36684 7.19777 0.25
455 8.01095 4.97547 7.62324 0.25
456 3.00066 1.87594 4.08222 0.25
457 2.42254 3.72588 7.14759 0.5
458 0.0640873 7.62524 6.71073 0.25
459 4.88372 7.75655 8.3668 0.25
460 5.70055 0.122703 4.815 0.25
461 2.62782 3.71689 1.36049 0.25
462 6.22556 4.97589 3.21042 0.25
463 5.13965 7.37328 2.80543 0.25
464 7.50388 6.86766 6.96968 0.25
465 7.03967 2.56227 5.60435 0.25
466 4.13225 1.51137 2.93038 0.25
467 3.89291 6.13142 1.71817 0.25
468 6.8798 5.26621 2.96005 0.5
469 7.43371 7.33958 6.86078 0.25
470 1.25497 1.45601 8.28378 0.25
471 2.09574 0.893078 6.06774 0.25
472 1.98218 7.42602 1.97432 0.25
473 7.47366 5.04954 5.37926 0.25
474 5.20039 5.7895 5.90883 0.25
475 1.39005 1.40303 2.73311 0.25
476 7.09548 0.757657 7.8541 0.25
477 3.30227 5.43433 3.76326 0.25
478 6.12835 3.31756 7.11722 0.25
479 3.3675 7.27254 7.53722 0.25
480 4.69489 0.333438 1.76753 0.25
481 7.7957 2.1202 4.10526 0.25
482 7.05797 4.94208 4.61772 0.25
483 8.16274 5.52461 5.01399 0.25
484 2.81113 8.37611 0.0174908 0.25
485 7.92135 7.57635 6.75586 0.25
486 2.45572 6.20287 5.88967 0.25
487 8.19021 7.60322 4.31329 0.25
488 4.37577 4.07374 5.92729 0.25
489 0.674554 8.02129 0.151026 0.25
490 8.17795 7.85391 1.97765 0.25
491 4.61795 3.12644 1.0814 0.25
492 2.52709 1.767 4.26926 0.25
493 6.29259 4.53667 7.00709 0.25
494 4.80995 7.54798 2.49204 0.25
495 1.2317 5.95966 5.90954 0.25
496 2.95293 7.81485 4.85436 0.25
497 6.43192 4.29406 7.87024 0.25
498 3.38286 3.00055 3.99055 0.25
499 0.623476 5.1112 7.51437 0.25
500 3.95035 2.87722 6.359 0.25
501 5.81898 3.66321 3.88165 0.25
502 1.64842 8.04381 7.61536 0.25
503 5.84362 4.90159 2.59148 0.5
504 7.81559 7.61562 2.21694 0.25
505 5.8299 1.47989 2.58676 0.25
506 7.16412 6.22685 4.66646 0.25
507 1.20343 0.456792 3.07203 0.25
508 0.689099 -0.00929819 5.30371 0.25
509 8.11326 4.78323 5.02674 0.5
510 5.05527 1.55722 5.90893 0.25
511 0.646979 0.386144 5.51161 0.25
512 0.97321 0.874933 3.25547 0.25
513 4.01983 1.15359 5.49671 0.25
514 1.96027 5.64566 6.12922 0.25
515 1.0319 7.76652 6.71222 0.25
516 7.43921 1.65599 6.09946 0.25
517 7.31312 5.35191 4.47376 0.25
518 0.933533 3.50016 4.63447 0.25
519 6.43196 2.00634 1.58834 0.25
520 6.86323 1.97589 6.60666 0.25
521 7.75406 1.58317 0.195194 0.25
522 6.67333 1.50518 7.81554 0.25
523 5.24747 6.77795 5.73323 0.25
524 2.60887 0.482013 7.6315 0.25
525 6.38118 4.1432 7.32085 0.25
526 6.93442 5.21522 6.85347 0.25
527 7.46399 7.93985 4.1177 0.25
528 7.45468 1.35296 6.47062 0.25
529 6.73335 1.20055 2.66635 0.25
530 2.31361 1.70276 6.25794 0.25
531 7.88394 7.79166 3.91921 0.25
532 1.38387 0.949676 3.00382 0.25
533 7.069 1.27792 7.88982 0.25
534 8.10621 5.76595 1.39619 0.25
535 0.436556 3.15166 5.50661 0.5
536 6.85092 2.60441 6.05644 0.25
537 4.08424 0.796115 5.85448 0.25
538 6.49941 5.14742 4.65226 0.25
539 2.44514 1.26146 6.08828 0.25
540 8.11041 6.33517 1.92001 0.5
541 7.70148 4.10859 1.62917 0.25
542 2.10642 2.2113 7.72002 0.25
543 3.25797 7.35155 7.05494 0.25
544 7.65351 6.57078 6.58911 0.25
545 1.27868 6.06726 4.06656 0.25
546 4.88492 5.83325 6.31801 0.25
547 5.20228 2.8407 8.03484 0.25
548 6.19275 7.1552 6.73731 0.25
549 0.252396 7.82587 7.13949 0.25
550 6.1307 7.17724 8.19058 0.25
551 4.48512 1.72915 2.66634 0.25
552 3.7247 5.53185 4.04305 0.25
553 6.82917 7.86059 3.73248 0.5
554 4.51822 6.36458 3.10554 0.25
555 4.98033 6.65567 3.59379 0.5
556 7.24375 0.725775 0.905319 0.25
557 7.22145 4.86873 3.8638 0.5
558 6.44349 0.146449 3.60606 0.25
559 1.29771 0.50419 5.51733 0.5
560 5.18098 3.42673 2.26675 0.25
561 2.89044 3.26709 4.03593 0.25
562 5.15348 0.0288636 5.47439 0.25
563 2.29681 6.72224 1.69609 0.25
564 6.27872 6.99214 0.533598 0.5
565 6.56468 1.5897 6.53851 0.25
566 1.09576 1.71094 2.43636 0.25
567 4.38653 5.86767 6.16506 0.25
568 5.79446 0.970034 2.79643 0.25
569 2.49515 8.29267 8.04089 0.25
570 1.9947 6.4453 4.73115 0.25
571 3.03737 4.1888 7.26319 0.25
572 8.10695 2.77733 3.89424 0.5
573 4.33339 1.38416 2.40953 0.25
574 1.58616 5.97407 6.27661 0.25
575 2.09082 1.68565 8.1826 0.25
576 4.20094 5.7473 7.62336 0.25
577 5.30535 0.245514 5.04244 0.25
578 1.95219 7.40719 3.90007 0.25
579 7.53417 5.17594 7.52074 0.25
580 7.27757 0.0963934 4.58009 0.5
581 4.29104 4.5799 6.0917 0.25
582 5.84945 2.96543 4.54763 0.25
583 5.68951 3.61959 4.73493 0.5
584 4.81526 6.56935 5.88747 0.25
585 5.07242 3.15543 1.33214 0.25
586 1.85929 0.377306 2.73786 0.5
587 4.90615 7.02499 2.52979 0.25
588 5.80859 5.12298 3.35578 0.25
589 0.0860159 2.47308 7.45474 0.25
590 3.54385 6.4403 1.93201 0.25
591 6.71833 1.52421 1.01395 0.25
592 7.475 7.08653 1.64712 0.5
593 6.74993 6.82907 1.55346 0.25
594 1.50541 5.13594 0.342713 0.5
595 0.586889 3.87206 7.90417 0.25
596 2.27246 0.910394 0.740033 0.25
597 8.35707 0.261837 5.11715 0.5
598 2.48473 6.5428 1.27474 0.25
599 1.997 8.27313 7.96213 0.25
600 7.76994 0.494931 5.52465 0.25
601 0.5535 0.801727 5.35804 0.25
602 3.99775 0.293927 2.24912 0.25
603 4.29723 5.64155 8.0829 0.25
604 7.40591 5.18156 6.97563 0.25
605 7.86714 2.14786 3.6569 0.25
606 2.18152 8.22547 2.26614 0.25
607 4.50382 5.34027 7.77652 0.25
608 3.55123 7.66997 7.3245 0.25
609 6.69311 4.81221 4.33377 0.25
610 1.83758 1.49617 5.61806 0.25
611 2.9881 0.74487 7.76725 0.25
612 0.701953 7.22235 8.31771 0.25
613 6.89606 1.51294 8.29858 0.25
614 4.81949 0.93981 5.07855 0.25
615 4.80939 2.54844 3.76725 0.25
616 1.18564 5.57998 3.23497 0.25
617 1.40025 8.17869 2.37346 0.25
618 7.57492 7.18274 4.24029 0.5
619 7.8148 7.91688 4.4167 0.25
620 8.30159 7.18775 2.41853 0.5
621 4.2825 6.51616 3.93894 0.25
622 6.2715 6.50832 6.19418 0.25
623 5.56227 6.61636 0.807705 0.25
624 1.21659 3.30907 5.58939 0.25
625 1.2473 5.25102 8.02265 0.25
626 3.2686 0.523603 1.78366 0.25
627 4.91448 4.79204 1.91076 0.25
628 0.0208608 3.5068 2.39042 0.5
629 7.18182 3.38655 0.173593 0.25
630 1.41485 8.40215 3.21312 0.25
631 1.67729 1.43405 7.96874 0.25
632 7.66091 7.80578 1.78822 0.25
633 6.07705 7.744 0.522176 0.25
634 2.87142 7.9229 4.02646 0.25
635 0.574806 7.08425 0.691339 0.5
636 1.48943 2.32166 1.14767 0.25
637 5.64826 0.154671 5.37702 0.25
638 4.8704 1.32041 5.46003 0.25
639 4.63399 1.98196 0.139731 0.25
640 5.12591 7.72107 0.442485 0.25
641 1.28346 6.57076 5.27312 0.25
642 3.69006 0.770516 5.50829 0.25
643 6.21216 6.84554 5.78793 0.25
644 6.02693 0.653769 2.48524 0.25
645 2.27359 2.18783 1.51107 0.25
646 8.08956 6.72174 6.47989 0.25
647 2.44031 3.08231 4.08297 0.25
648 5.14989 1.31756 0.0542503 0.25
649 0.463439 4.28341 1.92924 0.25
650 0.0123002 3.85198 1.33753 0.25
651 3.1808 3.24412 3.5915 0.25
652 6.90818 0.691332 7.34503 0.25
653 1.1854 6.65849 1.00231 0.25
654 0.953857 2.69401 8.26603 0.25
655 3.4763 3.52303 6.2871 0.5
656 0.589669 3.5097 7.07724 0.25
657 1.48099 5.49926 6.01636 0.25
658 6.89894 0.268452 3.57637 0.25
659 2.41244 1.83311 7.8241 0.25
660 6.98281 5.93286 3.99085 0.5
661 8.192 0.956453 8.32876 0.25
662 3.9823 4.77317 4.34926 0.25
663 2.51729 3.70246 1.80682 0.25
664 6.62517 2.66355 4.88098 0.25
665 7.91698 3.88134 1.21713 0.25
666 6.08377 6.70215 6.58486 0.25
667 6.67092 3.44927 0.121629 0.25
668 7.05109 6.4618 1.80926 0.25
669 5.94222 4.87313 7.16845 0.25
670 5.60902 8.03147 4.63847 0.25
671 3.50092 4.85573 4.56185 0.25
672 2.75191 3.28822 2.05459 0.25
673 0.640734 1.21369 3.0975 0.25
674 5.01965 7.34458 3.27183 0.25
675 5.46819 3.61995 5.39485 0.25
676 7.72261 8.06222 2.21934 0.25
677 6.39519 1.59502 1.32138 0.25
678 7.58579 6.18855 4.87517 0.25
679 1.31539 6.77301 1.46208 0.25
680 3.67847 6.72971 8.08895 0.25
681 7.77299 8.2869 4.07977 0.25
682 2.46135 6.23616 1.64662 0.25
683 1.63894 7.61565 7.26514 0.25
684 0.442319 3.94486 1.50491 0.25
685 2.68575 3.3925 6.40196 0.25
686 4.28522 2.87359 6.80113 0.25
687 1.82936 4.46512 0.720947 0.25
688 3.56841 0.695471 5.98463 0.25
689 6.15174 4.03185 8.21174 0.25
690 6.15315 1.11186 2.58998 0.25
691 7.08764 1.30707 1.71304 0.25
692 5.25692 5.1242 1.84373 0.25
693 7.31003 1.92243 6.47701 0.25
694 7.44365 5.06529 4.91267 0.25
695 8.3537 2.87696 6.12351 0.25
696 5.73568 5.92707 3.26125 0.5
697 4.18267 3.74195 6.30251 0.25
698 1.77602 1.05817 5.37452 0.25
699 1.60998 6.68022 4.85357 0.25
700 4.23366 5.86656 1.02564 0.25
701 4.7274 1.81352 8.02837 0.25
702 2.21608 4.32298 7.41451 0.25
703 3.24891 6.61251 7.39466 0.5
704 4.73493 5.38691 8.20744 0.25
705 5.02517 3.3546 1.80038 0.25
706 4.96175 0.267632 0.0123315 0.25
707 4.77011 3.85288 1.28317 0.5
708 5.58284 7.74788 7.86847 0.25
709 2.69687 7.19412 2.0734 0.5
710 2.26468 4.39096 6.9379 0.25
711 5.2802 6.39847 2.97211 0.25
712 0.467769 5.21035 7.93586 0.25
713 2.81633 4.06313 1.76563 0.25
714 5.20671 4.09828 0.74587 0.25
715 4.83466 6.61425 2.84645 0.25
716 6.69603 0.989832 7.63752 0.25
717 7.43599 7.65703 3.68295 0.25
718 6.15231 3.62083 6.70859 0.25
719 6.00388 4.48744 7.98946 0.25
720 1.67151 7.58661 4.23669 0.25
721 6.82078 2.03077 2.25152 0.25
722 2.40214 7.77213 3.4354 0.5
723 2.46071 7.62279 2.67645 0.25
724 7.10105 6.55238 1.31624 0.25
725 7.65126 6.38985 7.08308 0.25
726 0.942435 1.12713 5.46897 0.25
727 3.87859 0.42034 1.47232 0.25
728 3.62528 6.25585 8.00043 0.25
729 5.08055 5.91518 3.56839 0.25
730 2.86644 7.18656 7.31951 0.25
731 5.43384 2.9928 2.79901 0.25
732 4.03116 3.60767 6.80856 0.25
733 3.71464 5.56742 7.57216 0.25
734 3.93168 1.1108 2.66234 0.25
735 3.51305 2.77372 6.59934 0.25
736 7.87769 1.326 8.17909 0.25
737 3.00034 0.556624 1.36641 0.25
738 0.112059 7.98025 0.161742 0.25
739 4.9349 6.09736 3.12561 0.25
740 5.45206 7.21224 3.18189 0.25
741 0.445148 7.7582 0.535407 0.25
742 3.77399 4.56621 6.08058 0.25
743 7.14575 0.9626 1.33014 0.25
744 4.47918 0.956319 2.23779 0.25
745 3.55874 4.18658 5.85692 0.25
746 1.36947 5.99095 4.745 0.5
747 4.4095 0.512426 2.11176 0.25
748 2.59943 6.77924 7.0797 0.25
749 1.39768 1.4067 2.27088 0.25
750 0.186038 3.51694 1.63244 0.25
751 0.912633 0.848442 5.02266 0.25
752 6.33712 4.83175 7.91512 0.25
753 3.86039 0.946302 1.95864 0.5
754 4.24749 5.95608 1.5022 0.25
755 2.90622 2.6349 1.57292 0.5
756 7.78774 6.78479 7.40071 0.25
757 5.73875 6.85808 5.72939 0.25
758 6.83759 3.97422 7.31083 0.25
759 4.17904 8.14501 5.08964 0.25
760 0.255955 2.56019 3.3288 0.25
761 3.698 7.19237 7.15619 0.25
762 0.566585 1.88413 3.43422 0.5
763 3.90626 8.22308 1.99185 0.25
764 1.14051 6.1101 1.01207 0.25
765 7.49469 4.78666 3.11968 0.25
766 0.587218 4.41294 2.42984 0.25
767 2.53475 7.00001 7.53405 0.25
768 2.31113 2.95643 5.00637 0.25
769 8.05462 3.70999 1.68633 0.25
770 4.81486 1.10163 8.14775 0.25
771 6.66464 1.22322 6.17245 0.25
772 4.77188 2.54847 8.06546 0.25
773 5.55883 0.913271 5.05092 0.5
774 3.68253 8.26869 4.94328 0.25
775 8.03245 4.27071 2.84477 0.5
776 6.95108 3.93749 0.59918 0.5
777 5.95752 6.69103 8.28688 0.25
778 4.8607 8.1874 0.249246 0.25
779 8.25235 8.06736 4.18985 0.25
780 2.27176 1.63553 5.83882 0.25
781 2.55341 1.77695 8.28791 0.25
782 1.19707 7.45759 0.583262 0.25
783 6.8608 3.18073 0.512228 0.25
784 2.16919 7.73183 2.32182 0.25
785 2.76093 1.66706 6.0104 0.25
786 2.59603 7.92422 2.29144 0.25
787 7.7481 7.07983 6.63063 0.25
788 0.142423 4.19331 2.27274 0.25
789 3.61866 8.03749 4.49357 0.25
790 7.16953 0.796826 6.91939 0.25
791 0.644276 4.61969 3.2003 0.5
792 2.253 0.339209 7.91475 0.25
793 8.27052 7.0308 1.64887 0.25
794 5.40656 6.39258 6.33047 0.5
795 2.50869 4.28777 3.14499 0.25
796 2.18737 5.82766 5.71486 0.25
797 6.59353 6.60088 1.1343 0.25
798 7.76784 4.34786 1.20703 0.25
799 4.14883 3.28331 6.02394 0.25
800 7.99406 2.26921 3.22954 0.25
801 3.20532 7.88293 7.02662 0.25
802 3.33478 5.27782 4.26407 0.25
803 3.13084 8.3116 7.66354 0.5
804 3.78955 6.89321 1.92767 0.25
805 1.74016 7.90485 2.09293 0.25
806 2.61123 1.89376 3.80014 0.25
807 4.6021 6.27168 5.5375 0.25
808 3.98501 2.05536 7.99571 0.25
809 1.74569 5.91143 5.78694 0.25
810 6.55014 7.38111 6.51834 0.25
811 1.64938 3.27197 4.87058 0.5
812 5.64175 7.51956 0.511916 0.25
813 4.36183 1.86467 3.15529 0.25
814 1.48794 7.54741 7.76901 0.25
815 2.80638 8.12115 4.45503 0.25
816 1.13085 2.93183 5.3102 0.25
817 4.29914 1.75049 8.21521 0.25
818 3.84872 1.86094 3.21332 0.25
819 1.78896 5.39792 1.05782 0.25
820 3.28322 3.05998 6.89085 0.25
821 1.45296 2.14866 8.1019 0.5
822 5.88441 4.36601 3.42282 0.5
823 4.98535 0.643874 8.06159 0.25
824 0.645696 0.421248 5.00153 0.25
825 3.79662 6.0464 7.57762 0.25
826 3.27838 3.54388 1.68214 0.5
827 5.80353 7.09717 6.44609 0.25
828 0.196328 2.01035 7.58232 0.25
829 8.26553 7.99791 4.66169 0.25
830 0.737301 1.91958 2.68711 0.25
831 2.22166 4.20725 7.85957 0.25
832 5.66689 4.41837 1.87172 0.25
833 1.96318 1.35601 6.10901 0.25
834 4.2461 0.653915 2.53193 0.25
835 6.6539 2.01662 1.15316 0.25
836 3.3566 7.61585 7.79856 0.25
837 4.01423 5.30856 7.83257 0.25
838 7.58909 0.748333 1.25117 0.25
839 6.0857 7.51306 6.39988 0.25
840 6.92646 4.72297 7.42863 0.5
841 3.36231 6.82475 2.19189 0.25
842 0.00950357 2.11751 2.68809 0.5
843 5.89913 3.73721 5.44149 0.25
844 4.56295 2.48035 0.0833343 0.25
845 7.37064 2.58184 5.28726 0.25
846 3.49829 3.50992 7.36766 0.5
847 2.12435 5.30649 0.695523 0.25
848 1.86295 5.82184 5.32038 0.25
849 5.16572 7.87347 2.60282 0.25
850 6.34606 2.80025 5.58554 0.5
851 5.46816 8.13478 5.1389 0.25
852 7.07559 1.77936 7.85317 0.25
853 4.10124 8.28922 4.63088 0.25
854 4.32559 1.51153 6.07437 0.5
855 0.437759 3.93885 5.29321 0.25
856 0.755738 5.29302 3.2701 0.25
857 3.77434 6.58919 1.5419 0.25
858 2.80545 4.79505 3.69728 0.25
859 6.52766 4.5194 3.89343 0.25
860 7.6926 4.05525 0.838851 0.25
861 4.78104 3.01314 7.90056 0.25
862 6.59034 4.71779 3.42256 0.25
863 5.54132 6.38821 0.0377711 0.25
864 7.66959 6.82526 2.33566 0.25
865 3.78386 5.7739 8.00462 0.25
866 5.10948 8.17811 2.96106 0.25
867 1.85139 3.9547 7.53307 0.25
868 2.18857 1.72682 0.533108 0.5
869 0.931349 3.21356 7.2288 0.25
870 6.19469 5.43786 3.13536 0.25
871 2.79207 7.53592 6.98259 0.25
872 5.85269 2.98674 5.07177 0.25
873 0.408839 8.04046 8.04703 0.25
874 3.80832 0.968759 6.29065 0.25
875 2.21165 4.32699 1.35087 0.5
876 1.40169 5.66157 5.52497 0.25
877 0.0844516 5.18817 7.6266 0.25
878 5.78932 1.06618 2.29885 0.25
879 3.24936 8.23439 4.70655 0.25
880 6.41319 5.90175 2.97521 0.25
881 7.55457 1.22143 1.43928 0.25
882 7.84013 7.22435 7.08713 0.25
883 0.602258 3.95443 2.36386 0.25
884 7.24194 3.29317 0.721919 0.25
885 0.822134 4.15756 5.13577 0.25
886 7.85694 7.43275 3.54557 0.25
887 1.22717 7.14969 1.05605 0.25
888 1.22594 4.66231 3.58222 0.25
889 1.38347 8.07321 2.85605 0.25
890 0.187804 4.59199 2.5568 0.25
891 0.986284 2.19471 7.40796 0.25
892 7.60155 3.58946 0.964492 0.25
893 0.896464 7.87155 0.631995 0.25
894 3.8606 5.75482 1.33057 0.25
895 3.68737 5.88027 0.875867 0.25
896 1.73437 1.45402 0.0720329 0.25
897 8.10739 4.22067 1.529 0.25
898 0.938648 4.50666 3.93894 0.25
899 0.845518 8.36605 5.79132 0.25
900 5.14161 6.25064 5.70162 0.25
901 0.902122 1.50624 2.79374 0.25
902 7.40878 3.98074 1.21224 0.25
903 5.87717 3.62114 3.37386 0.25
904 6.90818 4.0539 7.85281 0.25
905 5.39052 0.81752 5.87053 0.25