ITEM: TIMESTEP
500000
ITEM: NUMBER OF ATOMS
1000
ITEM: BOX BOUNDS xy xz yz pp pp pp
0.0000000000000000e+00 8.3788359999999997e+00 0.0000000000000000e+00
0.0000000000000000e+00 8.3788359999999997e+00 0.0000000000000000e+00
0.0000000000000000e+00 8.3788359999999997e+00 0.0000000000000000e+00
ITEM: ATOMS id x y z radius
1 2.53344 6.88856 4.99802 0.25
2 4.61456 4.99479 5.46534 0.25
3 6.93329 4.73645 3.16523 0.25
4 7.31521 1.1108 5.76256 0.5
5 0.973575 5.68984 6.09181 0.25
6 8.23272 1.81328 3.57217 0.25
7 4.1776 3.37346 6.59712 0.25
8 4.89096 7.73655 2.94071 0.25
9 0.968352 6.12469 3.62676 0.25
10 4.20127 1.73192 3.26264 0.25
11 5.34012 8.36729 7.91608 0.25
12 5.40564 3.56251 1.5599 0.25
13 0.410521 2.41622 7.5319 0.25
14 3.62503 2.71707 7.15699 0.25
15 8.243 2.80477 5.85055 0.25
16 7.35257 0.888852 6.44558 0.25
17 0.863187 5.37366 8.01429 0.25
18 5.76227 7.29502 8.08797 0.25
19 4.35141 1.90808 7.59417 0.25
20 7.64304 1.21547 0.582877 0.25
21 5.11652 4.31364 1.93884 0.25
22 4.14784 3.38535 1.02813 0.25
23 2.28794 3.34852 1.95286 0.25
24 2.97489 1.66262 4.36548 0.25
25 2.76064 4.49213 2.96344 0.25
26 0.345016 8.14154 5.69684 0.25
27 3.86538 0.418955 5.81354 0.25
28 4.14223 1.96838 8.38017 0.25
29 5.16506 7.0157 3.05614 0.25
30 7.51328 7.36866 2.35729 0.25
31 2.71882 0.383373 8.0724 0.25
32 0.809539 2.70045 7.4198 0.25
33 7.67324 0.622596 5.24345 0.25
34 2.2652 4.87875 1.55848 0.25
35 8.12379 0.10557 4.53446 0.25
36 6.77527 2.05451 5.88206 0.5
37 4.61344 1.26504 2.22138 0.25
38 2.16961 3.41434 4.27078 0.25
39 6.10365 2.76639 4.88603 0.25
40 5.33892 7.82348 3.12817 0.25
41 6.72418 2.25961 2.55198 0.25
42 5.48974 5.94504 5.91764 0.25
43 3.43156 7.74007 4.95056 0.25
44 3.75455 8.33867 5.51085 0.25
45 5.53892 4.12903 4.0392 0.25
46 3.23403 6.02011 1.53849 0.5
47 4.96398 0.936959 5.45339 0.25
48 7.84738 6.41605 6.84525 0.25
49 7.44095 6.74711 4.76061 0.25
50 7.7777 0.944949 0.970406 0.25
51 2.66902 3.39018 4.32365 0.25
52 0.795584 1.78682 2.43235 0.25
53 6.37454 5.08403 6.97489 0.25
54 5.8292 3.32606 4.16288 0.25
55 1.43228 1.39232 6.17949 0.25
56 1.07743 7.16498 0.094713 0.25
57 4.74357 0.772793 2.04524 0.25
58 2.24363 2.09246 4.04984 0.25
59 4.75405 1.17415 6.32705 0.25
60 7.84156 5.49491 5.22419 0.25
61 4.95296 8.2442 8.19624 0.25
62 5.24528 1.97922 8.24356 0.5
63 7.65307 6.57226 1.18592 0.25
64 1.23336 5.99109 0.697966 0.25
65 4.23702 0.130881 1.79647 0.25
66 2.24343 4.76499 7.26021 0.25
67 7.99723 4.92214 7.37934 0.25
68 7.04546 0.547308 6.23668 0.25
69 0.365953 5.55557 7.32596 0.25
70 2.00207 4.7726 0.743363 0.25
71 7.93755 1.2296 0.205517 0.25
72 6.52515 6.28612 3.54821 0.25
73 0.483211 7.53843 6.78268 0.25
74 7.18831 5.73751 6.89025 0.25
75 7.33399 0.0644605 3.35829 0.25
76 7.67036 6.49761 4.40747 0.25
77 5.61116 2.99788 5.46883 0.25
78 5.51816 3.93771 1.25143 0.25
79 7.7892 5.11351 4.44322 0.25
80 5.83077 3.47561 5.47547 0.25
81 7.06781 1.40677 1.27351 0.25
82 8.39363 2.50456 6.24134 0.25
83 4.34216 5.81756 5.53666 0.25
84 1.23963 0.906238 6.27353 0.25
85 1.23797 1.2985 5.37245 0.25
86 4.59331 0.0486727 5.45402 0.25
87 1.6454 1.76274 1.2623 0.25
88 3.27393 6.78916 1.57997 0.25
89 6.71708 6.97326 0.631101 0.25
90 5.53787 6.20829 5.51758 0.25
91 3.7956 4.19821 6.27357 0.25
92 6.18416 4.59504 7.49925 0.25
93 5.12439 6.31824 5.23101 0.25
94 6.97617 8.35949 4.07513 0.25
95 0.210236 4.51752 7.67069 0.5
96 5.44752 3.14404 3.56703 0.5
97 4.21356 4.87022 7.89875 0.25
98 8.13822 2.27394 3.44074 0.25
99 1.46778 6.33985 5.89739 0.25
100 7.10744 6.92701 1.04516 0.25
101 0.726053 7.82655 0.105061 0.25
102 7.79002 4.63149 3.34335 0.25
103 6.65558 1.23598 1.44043 0.25
104 0.859712 4.6649 7.37542 0.25
105 5.11678 5.53692 5.39752 0.5
106 5.23573 0.356743 4.57305 0.25
107 4.21267 3.32059 7.05904 0.25
108 4.9183 1.35465 -0.0122198 0.25
109 0.550864 0.430824 6.20034 0.25
110 2.25807 7.99543 8.20346 0.25
111 3.12473 3.84548 7.0303 0.25
112 4.46709 2.08032 7.98796 0.25
113 1.84835 1.94193 2.01213 0.5
114 1.63538 3.60798 7.12934 0.25
115 4.49419 6.48774 6.0655 0.25
116 2.52897 7.13829 6.96754 0.25
117 4.2024 2.35831 3.75522 0.5
118 6.67949 7.12487 1.07149 0.25
119 1.10688 6.28731 3.16784 0.25
120 0.210279 2.75705 2.45422 0.25
121 3.23973 4.09097 3.49597 0.25
122 6.63606 0.829376 6.01945 0.25
123 5.27106 0.543688 5.50317 0.25
124 8.16996 7.97651 2.402 0.25
125 3.47457 2.11738 3.81682 0.25
126 3.67424 1.20344 5.79642 0.25
127 5.44452 4.02496 1.72681 0.25
128 6.64772 5.38425 7.32295 0.25
129 1.20055 6.41796 3.98556 0.25
130 5.49222 6.29836 0.934278 0.25
131 7.00147 1.53147 6.32893 0.25
132 5.98351 4.1662 7.68674 0.25
133 3.25391 1.85 3.37569 0.25
134 4.31201 2.47529 8.19993 0.25
135 5.47531 3.88795 3.63867 0.25
136 2.84288 2.45002 3.65455 0.5
137 2.92021 4.04276 3.08826 0.25
138 7.58687 7.96226 2.83087 0.5
139 2.75782 8.27817 4.75309 0.25
140 5.063 7.93943 7.83423 0.25
141 7.8468 5.91984 5.07332 0.25
142 1.12022 5.02992 3.15658 0.25
143 2.22206 2.11158 8.33415 0.25
144 5.0797 0.992728 2.73413 0.5
145 7.35183 1.88101 3.95639 0.25
146 5.92256 7.34827 0.193699 0.25
147 6.6551 5.70619 4.57377 0.25
148 2.30971 3.03355 4.536 0.25
149 4.4471 8.12808 2.44955 0.5
150 4.92339 3.00724 4.20261 0.25
151 3.54449 5.90466 7.16211 0.25
152 3.38101 4.56212 5.64579 0.25
153 6.5951 6.14729 2.22331 0.5
154 7.22593 2.46328 4.55106 0.5
155 2.99901 7.20752 7.69398 0.25
156 7.4905 3.53411 1.50023 0.25
157 7.61948 5.92647 1.60813 0.25
158 2.49719 3.54091 0.769202 0.25
159 7.08008 7.93032 4.37122 0.25
160 6.3629 2.11253 2.86847 0.25
161 0.991975 5.21111 2.71062 0.25
162 5.85333 4.36747 7.1752 0.25
163 3.38226 3.64953 4.14 0.5
164 2.65666 3.84229 2.4873 0.5
165 5.551 7.97699 7.68967 0.25
166 0.0219394 3.72448 7.8704 0.25
167 6.63176 4.00064 8.21642 0.25
168 4.66557 6.06866 5.80633 0.25
169 3.84685 4.37552 5.79216 0.25
170 8.13154 2.90167 6.32929 0.25
171 7.75497 5.7758 1.13626 0.25
172 0.956918 2.86179 6.95262 0.25
173 4.29948 6.35654 5.63793 0.25
174 2.42798 2.02053 1.05608 0.25
175 7.66229 2.39547 5.99537 0.5
176 2.2371 5.86517 6.22097 0.25
177 5.41957 3.65226 4.11473 0.25
178 3.13439 6.56422 2.00919 0.25
179 3.51689 2.27474 3.34188 0.25
180 5.83134 6.27567 5.9878 0.25
181 6.60208 4.19812 6.86418 0.25
182 3.23001 5.21919 3.36361 0.25
183 8.14963 7.51086 1.76332 0.25
184 4.23022 5.15135 8.31562 0.25
185 5.79469 6.81118 6.06208 0.25
186 7.63022 5.98866 4.61101 0.25
187 3.33886 5.26374 4.27969 0.25
188 0.877089 5.84428 3.22941 0.25
189 4.24985 6.58949 3.62703 0.25
190 4.27652 3.37478 1.51402 0.25
191 6.91737 1.42457 0.41807 0.5
192 0.859585 5.00886 7.6858 0.25
193 3.88993 5.60507 1.36001 0.25
194 2.67284 6.40229 1.95536 0.25
195 6.10212 5.78866 2.77534 0.25
196 2.43773 8.00528 2.70757 0.25
197 1.21959 8.24932 2.46755 0.25
198 7.62124 4.86444 7.06892 0.25
199 1.13862 1.10368 3.08324 0.25
200 4.44647 5.22252 1.54884 0.5
201 6.42073 1.76743 3.149 0.25
202 8.31349 3.84004 5.39884 0.25
203 3.74066 1.88507 3.4332 0.25
204 5.72828 7.98586 8.37768 0.5
205 2.42501 7.53672 4.4973 0.5
206 0.506298 4.45735 5.17432 0.25
207 5.72434 2.77754 4.19373 0.25
208 7.0052 5.37636 4.37051 0.25
209 5.2673 7.00722 0.127368 0.5
210 2.00078 7.9235 2.97037 0.25
211 0.687662 3.7436 4.96174 0.25
212 1.5037 7.85367 8.27988 0.5
213 0.209825 4.13288 2.61407 0.25
214 1.99014 7.94642 2.49802 0.25
215 2.9291 4.24311 3.84179 0.25
216 6.34077 1.99584 2.32338 0.25
217 5.09038 3.79937 1.9932 0.25
218 2.3986 3.40054 4.78162 0.25
219 4.43315 1.23391 2.70222 0.25
220 3.67923 3.46535 0.968861 0.25
221 4.18162 0.0493384 5.70247 0.25
222 7.42797 0.922331 5.04107 0.25
223 8.11787 2.66193 2.64717 0.25
224 7.15191 5.47668 7.36691 0.25
225 7.29037 2.23564 5.33847 0.25
226 4.81703 2.12947 7.67522 0.25
227 6.44452 3.74882 7.00732 0.25
228 5.40281 3.1849 4.28797 0.25
229 5.60642 5.14259 1.94787 0.25
230 0.334908 8.17832 6.53031 0.5
231 5.36845 4.6906 1.39123 0.5
232 1.9852 2.90831 4.22404 0.25
233 4.18825 5.09452 4.07192 0.25
234 6.4031 1.07947 6.38937 0.25
235 3.12455 7.36155 4.85532 0.25
236 0.774924 2.6191 0.0298277 0.25
237 8.17334 3.0316 7.47696 0.25
238 3.35329 0.833307 1.36301 0.25
239 0.170411 2.20297 3.59934 0.25
240 6.72892 6.35927 1.4925 0.25
241 3.41128 7.16211 7.99626 0.25
242 1.96839 7.29088 2.73886 0.5
243 2.92813 4.84377 3.35493 0.25
244 7.04958 3.60314 1.21341 0.25
245 2.07304 1.12944 5.78857 0.25
246 7.66351 8.16394 3.66065 0.25
247 3.61198 2.60853 3.7068 0.25
248 3.82427 3.21687 1.33105 0.25
249 0.0357423 5.18185 7.41379 0.25
250 1.28992 3.7671 5.21952 0.25
251 5.30193 2.71037 4.80705 0.5
252 3.20994 2.08374 4.22093 0.25
253 7.88914 5.70629 7.20838 0.5
254 7.24688 6.0024 7.3388 0.25
255 4.66797 0.54621 5.98262 0.5
256 5.87139 6.17063 0.607121 0.25
257 1.14197 0.344436 2.72324 0.25
258 1.73362 1.67214 2.69351 0.25
259 4.73212 3.13554 1.54403 0.25
260 7.94168 6.19299 1.37063 0.25
261 3.67554 0.124983 1.19686 0.25
262 3.52958 2.43215 4.18468 0.25
263 2.1702 0.227166 0.189367 0.5
264 2.82645 4.36283 3.41817 0.25
265 0.98073 3.92936 7.31174 0.5
266 0.976531 7.65038 7.3461 0.5
267 5.03879 2.59199 7.77473 0.25
268 6.37158 7.65621 0.238068 0.25
269 1.89134 5.25298 0.949521 0.25
270 3.99473 3.73853 1.31544 0.25
271 7.47065 7.9135 4.65916 0.25
272 1.63633 0.913249 2.38155 0.25
273 1.25711 3.29707 6.97837 0.25
274 0.793533 5.4795 7.52791 0.25
275 4.69822 4.47364 1.65827 0.25
276 2.3962 3.15702 1.0874 0.25
277 6.6329 0.672721 6.5007 0.25
278 3.90563 6.12197 1.22787 0.25
279 4.14024 0.521513 5.13186 0.5
280 7.85762 8.19675 4.89507 0.25
281 1.04406 6.37185 0.479035 0.25
282 6.15955 7.09879 6.24525 0.25
283 0.94754 0.160455 6.42134 0.25
284 7.42928 4.43938 0.917934 0.25
285 1.92481 6.0724 1.10545 0.5
286 5.59339 6.81377 3.24718 0.25
287 1.56936 7.9658 3.49472 0.5
288 2.70202 7.37941 5.13523 0.25
289 2.23758 7.23388 5.13263 0.25
290 2.15677 3.85506 1.87076 0.25
291 8.21325 7.57008 7.33749 0.25
292 7.64999 2.40876 3.37425 0.25
293 7.34345 4.44509 3.23869 0.25
294 5.90925 3.70104 3.45221 0.25
295 8.19597 4.1856 1.11459 0.25
296 0.512597 4.1779 4.49491 0.5
297 3.8799 3.043 6.8886 0.25
298 6.32079 5.08589 7.49517 0.25
299 5.85267 4.92101 7.66808 0.25
300 6.35874 3.43984 0.492188 0.25
301 0.840722 7.51249 8.21893 0.25
302 0.185329 4.18686 1.46824 0.25
303 3.81161 0.930465 1.07984 0.25
304 2.05465 2.65265 4.645 0.25
305 0.666606 4.93698 8.15553 0.25
306 2.33245 2.21904 4.59176 0.25
307 1.57004 4.71596 7.50676 0.5
308 3.64734 5.90346 3.25093 0.25
309 4.50598 1.06725 5.51577 0.25
310 1.03619 4.63445 4.09403 0.25
311 7.37045 0.137796 3.87506 0.25
312 0.894914 1.01216 2.30312 0.5
313 0.836912 3.70068 5.40766 0.25
314 5.47883 3.89258 3.16681 0.25
315 1.18914 4.97029 8.11543 0.25
316 1.76364 4.12542 7.05712 0.25
317 7.41901 2.30312 3.81034 0.25
318 2.34798 2.56049 4.256 0.25
319 4.86246 7.42447 7.96264 0.25
320 1.9138 6.14206 6.06443 0.25
321 4.26307 0.751127 1.21277 0.25
322 7.22062 6.46389 5.12435 0.25
323 0.858863 6.05579 4.11896 0.25
324 4.08077 7.34128 7.69997 0.5
325 0.811335 1.76023 0.246519 0.25
326 3.89911 4.86668 5.14489 0.5
327 7.5991 7.31373 3.33323 0.25
328 2.43587 7.8704 1.84436 0.25
329 1.33147 5.84963 3.38793 0.25
330 8.25199 7.07648 7.42957 0.25
331 0.886361 5.34703 3.78075 0.5
332 7.36642 6.5293 2.14303 0.25
333 1.17118 1.67368 2.07407 0.25
334 6.84829 1.65926 1.66974 0.25
335 3.40139 3.08783 1.02594 0.25
336 2.99117 7.09112 6.76945 0.25
337 4.40378 7.21392 3.03943 0.5
338 6.25029 7.33096 8.18313 0.25
339 2.17373 8.07799 3.99258 0.25
340 4.84544 0.49893 4.77427 0.25
341 6.90138 0.0214635 3.07681 0.25
342 1.03533 5.16208 7.25884 0.25
343 2.76055 1.26767 0.105708 0.25
344 1.32708 5.54309 2.57998 0.25
345 0.538147 1.50318 2.74875 0.25
346 0.2785 2.37969 8.0286 0.25
347 3.41545 5.92181 7.65576 0.25
348 7.40804 7.82545 2.05075 0.25
349 0.645508 2.17195 8.3345 0.25
350 6.65149 1.77295 2.6729 0.25
351 1.6575 6.68586 0.720813 0.25
352 6.30338 3.57323 7.72907 0.5
353 2.41234 0.0147949 7.48254 0.25
354 1.92424 0.640365 5.71344 0.25
355 0.728687 0.0375436 5.98516 0.25
356 1.65013 1.80378 6.01096 0.25
357 2.83463 3.74727 6.66099 0.25
358 6.18103 3.57382 5.18931 0.25
359 4.24833 1.02667 6.37551 0.25
360 1.95169 2.12254 1.20963 0.25
361 1.04639 7.53862 0.37768 0.25
362 6.12981 4.15492 6.83521 0.25
363 7.98334 4.00161 2.02456 0.25
364 5.92708 3.85078 7.17907 0.25
365 5.42863 5.96804 0.603196 0.25
366 5.0855 6.33596 0.570768 0.25
367 2.75782 4.18295 6.86432 0.25
368 6.97633 3.6404 8.06806 0.25
369 1.32661 6.74801 0.396322 0.25
370 5.60042 0.345171 8.11576 0.25
371 2.44987 8.31388 4.41055 0.25
372 2.45602 4.73505 0.662386 0.25
373 7.0299 2.9107 5.1605 0.25
374 3.60878 4.37052 4.48203 0.25
375 5.37415 0.830008 7.94368 0.25
376 2.65104 5.92368 1.00503 0.25
377 6.44488 1.24644 2.14748 0.5
378 0.289883 3.83633 7.48732 0.25
379 5.08084 1.32854 7.92615 0.25
380 2.09302 6.92283 4.78458 0.25
381 3.90116 5.58315 5.50586 0.25
382 1.75328 7.21187 4.91118 0.25
383 6.33436 5.31538 4.0074 0.5
384 1.25613 1.84949 1.61948 0.25
385 6.88542 1.28965 6.99113 0.5
386 1.20972 1.07239 5.7949 0.25
387 7.42585 0.772751 0.629442 0.25
388 0.870424 5.74333 2.74755 0.25
389 4.32638 2.65642 7.47001 0.5
390 3.96217 0.663911 6.24149 0.25
391 5.32868 4.7757 2.1791 0.25
392 8.08712 2.6688 3.18416 0.25
393 2.82654 6.55897 1.51315 0.25
394 0.545359 8.22317 0.377334 0.25
395 2.14988 1.6889 1.33888 0.25
396 4.60325 7.88253 8.06796 0.25
397 5.28406 0.645632 0.0757383 0.25
398 7.31174 1.54937 8.16555 0.25
399 3.24019 4.42482 3.15982 0.25
400 4.89461 4.43557 0.87328 0.25
401 2.30486 7.16062 3.84483 0.25
402 8.18741 8.04234 7.15023 0.25
403 7.83322 6.19993 0.86912 0.25
404 7.89447 6.84605 7.11196 0.25
405 0.593965 7.69749 0.588111 0.25
406 5.67679 0.440336 4.37505 0.25
407 2.29401 1.04941 7.9713 0.5
408 5.60464 3.35809 2.48722 0.25
409 2.28982 4.96952 1.08648 0.25
410 7.47621 0.836241 8.25134 0.5
411 4.37677 5.42382 5.32264 0.25
412 8.12498 7.27785 6.97189 0.25
413 1.34424 1.66072 0.398743 0.25
414 0.433843 3.11608 7.89453 0.5
415 6.45593 4.77112 3.00993 0.25
416 3.04882 2.9425 6.59868 0.25
417 3.48304 4.72939 3.8223 0.5
418 7.24167 6.68729 4.29659 0.25
419 3.90358 3.85594 5.89645 0.25
420 0.791268 3.04655 4.72259 0.25
421 3.79551 4.90115 5.81702 0.25
422 2.39167 5.48422 0.925597 0.25
423 0.267889 0.152299 5.87046 0.25
424 0.503415 3.42418 4.6965 0.25
425 1.92767 2.82311 1.51765 0.5
426 7.19886 5.68119 5.06009 0.5
427 2.71051 2.07867 4.28178 0.25
428 4.03853 5.16752 3.61572 0.25
429 4.24698 4.68345 5.74659 0.25
430 1.87441 7.26964 3.51707 0.25
431 0.828169 3.33513 6.83576 0.25
432 1.60637 7.04545 4.19369 0.5
433 1.97136 1.69902 7.68964 0.25
434 0.892119 6.29444 0.967713 0.25
435 5.7406 3.52322 2.94929 0.25
436 1.24939 5.95344 2.87267 0.25
437 8.24974 0.910955 0.194936 0.25
438 0.980431 3.39902 4.98412 0.25
439 3.95778 2.61333 6.81576 0.25
440 5.22476 1.74089 7.55848 0.25
441 8.00657 4.20301 5.2997 0.25
442 2.49816 5.63395 1.38979 0.25
443 0.237699 2.86899 6.91595 0.5
444 2.15175 3.50997 1.49711 0.25
445 5.36865 7.21853 0.916358 0.25
446 4.31491 5.8165 3.66452 0.5
447 1.18465 1.56731 5.77406 0.25
448 6.01643 7.13124 5.7885 0.25
449 1.02382 5.42135 5.64778 0.25
450 2.87765 3.25343 1.02029 0.25
451 2.62637 7.04224 5.45344 0.25
452 2.48676 0.940864 0.335579 0.25
453 4.57157 4.55016 1.18677 0.25
454 0.00409145 3.44902 7.40912 0.25
455 8.05419 5.1772 7.76356 0.25
456 3.15752 1.76315 3.87772 0.25
457 2.38391 3.65439 7.24079 0.5
458 8.35359 7.64778 6.87382 0.25
459 5.02483 7.73696 8.3067 0.25
460 5.6237 0.153551 4.82745 0.25
461 2.53627 3.5639 1.24969 0.25
462 6.22841 5.08634 3.29666 0.25
463 5.20657 7.42778 2.85453 0.25
464 7.4307 6.94885 7.26172 0.25
465 7.08535 2.64993 5.54857 0.25
466 4.2165 1.7511 2.79263 0.25
467 3.92834 6.24701 1.72467 0.25
468 6.82438 5.42635 3.00666 0.5
469 7.36535 7.50261 7.21094 0.25
470 1.10763 1.39752 0.0497455 0.25
471 1.67618 0.966386 5.97913 0.25
472 1.96356 7.65494 2.04538 0.25
473 7.63727 5.06775 5.42353 0.25
474 4.96926 5.85035 6.08687 0.25
475 1.48783 1.2499 2.75848 0.25
476 7.38939 1.03117 7.48661 0.25
477 3.3131 5.44365 3.78379 0.25
478 6.08812 3.37291 7.04238 0.25
479 3.38856 7.28133 7.46109 0.25
480 4.87704 0.432304 2.33681 0.25
481 7.75028 2.1372 4.15873 0.25
482 7.29889 5.03152 4.59899 0.25
483 8.29088 5.67176 5.01722 0.25
484 2.81202 0.741865 0.0024112 0.25
485 7.82187 7.66582 7.05223 0.25
486 2.39551 6.29099 5.94482 0.25
487 8.28239 7.68629 4.38648 0.25
488 4.24303 4.19631 5.99665 0.25
489 0.976405 8.02888 0.504226 0.25
490 8.18008 7.97581 1.90092 0.25
491 4.64094 3.21574 1.09971 0.25
492 2.40535 1.74965 4.4174 0.25
493 6.27135 4.58168 6.96851 0.25
494 4.90977 7.51782 2.50302 0.25
495 1.17726 5.9169 5.73331 0.25
496 2.92194 7.8004 4.86792 0.25
497 6.45121 4.26015 7.81126 0.25
498 3.40561 2.89523 4.07881 0.25
499 0.531729 5.08498 7.29565 0.25
500 3.99503 2.91832 6.41265 0.25
501 6.01948 4.16416 4.20416 0.25
502 1.67444 7.93977 7.54087 0.25
503 5.83677 5.10895 2.69594 0.5
504 7.81389 7.67772 2.13253 0.25
505 5.79517 1.39672 2.68783 0.25
506 7.24865 6.34269 4.66824 0.25
507 1.36064 0.336611 3.1927 0.25
508 0.634748 0.0896142 5.51909 0.25
509 8.29646 4.90121 5.03512 0.5
510 5.00054 1.7313 5.6471 0.25
511 0.569734 0.521977 5.70061 0.25
512 0.917839 0.662162 3.01723 0.25
513 3.98848 1.16843 5.41646 0.25
514 1.88079 5.6051 6.07969 0.25
515 0.924254 7.68734 6.61073 0.25
516 7.45175 1.74091 6.14495 0.25
517 7.48947 5.49578 4.4293 0.25
518 0.945751 3.53283 4.55416 0.25
519 6.42109 1.96101 1.80431 0.25
520 6.75651 1.93734 6.59588 0.25
521 7.6045 1.54157 0.215393 0.25
522 6.62793 1.34089 7.68836 0.25
523 5.23808 6.67641 5.55052 0.25
524 2.64233 0.444493 7.60878 0.25
525 6.2943 4.14123 7.26933 0.25
526 6.88425 5.30844 6.91139 0.25
527 7.47719 8.07377 4.13894 0.25
528 7.46805 1.45074 6.50755 0.25
529 6.65706 1.35374 2.92542 0.25
530 2.10959 1.84123 6.12673 0.25
531 7.99985 7.9003 3.99218 0.25
532 1.38044 0.749985 2.82155 0.25
533 7.09537 1.43834 7.73224 0.25
534 8.12162 5.76339 1.50773 0.25
535 0.386174 3.17454 5.41678 0.5
536 6.96423 2.78723 6.03493 0.25
537 4.05333 0.895855 5.84799 0.25
538 6.64425 5.27585 4.72108 0.25
539 2.38473 1.47734 6.02861 0.25
540 8.11033 6.32421 2.07707 0.5
541 7.5869 3.98057 1.69106 0.25
542 2.0455 2.12959 7.89206 0.25
543 3.28935 7.38952 7.01285 0.25
544 7.46226 6.7191 6.84051 0.25
545 1.30057 5.94705 3.92975 0.25
546 4.58131 6.0481 6.31962 0.25
547 4.74811 2.64442 0.10818 0.25
548 5.93025 7.4988 6.47681 0.25
549 0.313041 7.82516 7.18475 0.25
550 6.02632 6.89569 0.00655306 0.25
551 4.61597 1.63542 2.50566 0.25
552 3.76172 5.37433 3.95177 0.25
553 7.07795 7.8324 3.5402 0.5
554 4.46203 6.46241 3.1926 0.25
555 4.98832 6.79042 3.671 0.5
556 6.98443 0.713906 0.867642 0.25
557 7.29576 4.9695 3.82389 0.5
558 6.53112 8.37381 3.45282 0.25
559 1.27285 0.36159 5.79169 0.5
560 5.15686 3.44708 2.32562 0.25
561 2.9507 3.07969 3.97831 0.25
562 5.13565 0.0401862 5.49427 0.25
563 2.35117 6.58952 1.56709 0.25
564 6.0173 6.86812 0.821341 0.5
565 6.50332 1.58523 6.40572 0.25
566 1.27438 1.69899 2.55373 0.25
567 4.18136 6.06168 6.00262 0.25
568 6.12131 1.37379 3.11123 0.25
569 2.57123 8.29415 7.93475 0.25
570 1.94953 6.45075 4.67731 0.25
571 2.97918 4.0977 7.34372 0.25
572 7.94683 2.81276 3.90966 0.5
573 4.13261 1.46999 2.3618 0.25
574 1.4633 5.90764 6.15492 0.25
575 2.00574 1.67307 8.16427 0.25
576 4.23233 5.6655 7.67104 0.25
577 5.22521 0.212925 5.07822 0.25
578 2.03827 7.5943 3.86813 0.25
579 7.57663 5.11899 7.51891 0.25
580 7.41978 0.300929 4.58177 0.5
581 4.03837 4.66436 6.20346 0.25
582 5.85518 3.067 4.5805 0.25
583 5.67096 3.7451 4.74413 0.5
584 4.80401 6.5036 5.6186 0.25
585 5.14407 3.19718 1.32102 0.25
586 1.87283 0.229546 2.62127 0.5
587 4.98406 7.01987 2.64485 0.25
588 5.82536 5.27146 3.46178 0.25
589 8.37437 2.59298 7.63047 0.25
590 3.64271 6.59124 1.88436 0.25
591 6.33697 1.32617 1.03798 0.25
592 7.51075 7.10603 1.65959 0.5
593 6.82841 6.85376 1.44529 0.25
594 1.93736 4.86014 8.37381 0.5
595 0.493714 3.85784 7.95878 0.25
596 2.10435 0.825618 0.702194 0.25
597 8.35315 0.350875 5.18921 0.5
598 2.57396 6.39502 1.14187 0.25
599 2.06121 8.26851 7.81488 0.25
600 7.92291 1.03154 5.27921 0.25
601 0.808991 0.847958 6.02336 0.25
602 3.93159 0.219558 2.18817 0.25
603 4.26259 5.57346 8.13248 0.25
604 7.36581 5.26827 7.00652 0.25
605 7.76389 2.00602 3.66291 0.25
606 2.4067 8.20348 2.23491 0.25
607 4.4902 5.23274 7.84151 0.25
608 3.58038 7.71188 7.30654 0.25
609 6.84148 4.87565 4.3985 0.25
610 1.62005 1.36354 5.72513 0.25
611 2.96886 0.744591 7.8389 0.25
612 0.610552 7.336 0.214544 0.25
613 6.81638 1.70542 8.02107 0.25
614 4.70737 0.917117 5.05714 0.25
615 4.83581 2.73246 3.78713 0.25
616 1.18652 5.51617 3.0482 0.25
617 1.59643 7.92771 2.27049 0.25
618 7.59576 7.32223 4.19608 0.5
619 7.86983 8.045 4.44098 0.25
620 8.25612 7.26564 2.42511 0.5
621 4.39529 6.44604 4.02615 0.25
622 6.01648 6.61239 6.40116 0.25
623 5.30227 6.73738 0.82479 0.25
624 1.16437 3.32386 5.42368 0.25
625 1.23735 5.32773 7.70776 0.25
626 3.73926 0.552121 1.36975 0.25
627 4.88666 4.7374 1.99973 0.25
628 8.30674 3.42926 2.40144 0.5
629 7.09634 3.31832 0.0479327 0.25
630 1.20168 8.31164 2.95633 0.25
631 1.65234 1.3849 7.9228 0.25
632 7.74572 7.85199 1.67155 0.25
633 6.07342 7.58984 0.553782 0.25
634 3.03625 7.73618 4.05886 0.25
635 0.891671 7.0344 0.84182 0.5
636 1.49952 2.22398 1.43442 0.25
637 5.58972 0.166285 5.36027 0.25
638 4.8227 1.38156 5.29748 0.25
639 4.58851 1.71801 8.31044 0.25
640 5.17209 7.63925 0.419052 0.25
641 1.31003 6.60674 5.12331 0.25
642 3.63292 0.809697 5.54265 0.25
643 6.2145 6.68234 5.93631 0.25
644 5.82723 0.936581 2.926 0.25
645 2.34284 2.19104 1.54557 0.25
646 7.89519 6.88938 6.6431 0.25
647 2.46707 3.03263 4.05312 0.25
648 5.32396 1.1513 8.33907 0.25
649 0.520918 4.10674 1.80725 0.25
650 -0.00875548 3.74456 1.37287 0.25
651 3.31965 3.05189 3.59556 0.25
652 7.0936 0.584472 6.70428 0.25
653 1.30724 6.42998 0.870321 0.25
654 0.268255 2.52206 0.0990759 0.25
655 3.4653 3.50547 6.41203 0.5
656 0.45291 3.49877 7.16005 0.25
657 1.43846 5.51336 5.88041 0.25
658 6.90898 0.225714 3.62858 0.25
659 2.417 1.82502 7.87762 0.25
660 7.05076 6.01512 4.02594 0.5
661 8.1397 1.08403 8.10796 0.25
662 3.92251 4.72175 4.38659 0.25
663 2.57209 3.65618 1.6885 0.25
664 6.6292 2.83232 4.91317 0.25
665 7.84517 3.79867 1.28765 0.25
666 5.75978 7.03705 6.57428 0.25
667 6.61567 3.46091 0.00456978 0.25
668 7.03095 6.50965 1.78694 0.25
669 5.94083 4.86495 7.17813 0.25
670 5.44322 8.31204 4.34953 0.25
671 3.47622 4.84196 4.51395 0.25
672 2.77404 3.2717 1.97355 0.25
673 0.635934 1.11427 3.02742 0.25
674 5.03755 7.44128 3.29733 0.25
675 5.45117 3.84798 5.47061 0.25
676 7.74459 8.1703 2.08298 0.25
677 6.32327 1.59415 1.50479 0.25
678 7.67262 6.31692 4.95242 0.25
679 1.21329 6.01415 1.21257 0.25
680 3.68276 6.71943 8.02418 0.25
681 7.87555 8.33944 4.07886 0.25
682 2.55002 6.13837 1.52082 0.25
683 1.6521 7.59594 7.14739 0.25
684 0.476754 3.76422 1.48954 0.25
685 2.75496 3.2964 6.52095 0.25
686 4.36916 2.93786 6.76849 0.25
687 2.1361 4.36177 0.461645 0.25
688 3.5338 0.797461 6.04378 0.25
689 6.15547 4.15264 8.20163 0.25
690 6.21126 1.17921 2.72731 0.25
691 7.1119 1.20087 1.73004 0.25
692 5.10856 5.17699 1.91979 0.25
693 7.25751 1.92928 6.56954 0.25
694 7.62739 5.18489 4.88361 0.25
695 0.235136 2.90956 6.16058 0.25
696 5.73697 6.07788 3.43199 0.5
697 4.15422 3.83156 6.35782 0.25
698 1.61778 0.927437 5.51941 0.25
699 1.61658 6.76264 4.80589 0.25
700 4.21885 5.78138 1.01774 0.25
701 4.72478 1.67933 7.80185 0.25
702 2.134 4.28583 7.40299 0.25
703 3.40171 6.62863 7.34347 0.5
704 4.6099 4.87373 8.15665 0.25
705 5.08464 3.33685 1.84131 0.25
706 5.26058 0.134273 0.0310492 0.25
707 4.76567 3.87232 1.33184 0.5
708 5.34904 7.55194 7.93628 0.25
709 2.63628 7.16123 1.95378 0.5
710 2.22132 4.35564 6.91972 0.25
711 5.27613 6.49777 3.03509 0.25
712 0.409912 5.26865 7.7869 0.25
713 2.64277 4.13842 1.80802 0.25
714 5.31721 4.16304 0.891111 0.25
715 4.80988 6.62905 2.91859 0.25
716 6.94572 0.945187 7.67905 0.25
717 7.8358 7.69798 3.54229 0.25
718 6.00474 3.68258 6.6617 0.25
719 5.96426 4.53711 7.95686 0.25
720 1.77457 7.7878 4.25174 0.25
721 6.81027 1.90743 2.15464 0.25
722 2.58391 7.69215 3.40415 0.5
723 2.66126 7.55278 2.61466 0.25
724 7.1562 6.50788 1.30067 0.25
725 7.57389 6.45515 7.27763 0.25
726 0.801203 0.950574 5.54099 0.25
727 4.126 0.31874 1.37073 0.25
728 3.70623 6.24254 7.93482 0.25
729 5.04459 6.0752 3.66418 0.25
730 2.95877 7.16401 7.21959 0.25
731 5.27857 3.49401 2.84151 0.25
732 4.00842 3.74489 6.88845 0.25
733 3.76162 5.56628 7.47914 0.25
734 4.02017 1.04559 2.56322 0.25
735 3.54511 2.8026 6.61581 0.25
736 7.82673 1.44557 8.14401 0.25
737 3.44779 0.517829 0.957932 0.25
738 0.62692 8.1106 0.840185 0.25
739 4.90057 6.19738 3.24205 0.25
740 5.49888 7.2989 3.26008 0.25
741 0.940833 7.76543 0.906036 0.25
742 3.5488 4.61975 6.13374 0.25
743 7.01682 0.897939 1.34614 0.25
744 4.43535 0.819157 2.38648 0.25
745 3.42132 4.13907 5.90562 0.25
746 1.40593 5.99332 4.63206 0.5
747 4.41048 0.376621 2.1642 0.25
748 2.76132 6.72683 7.05073 0.25
749 1.52704 1.35736 2.26582 0.25
750 0.152795 3.39169 1.68058 0.25
751 1.17242 0.852471 5.27686 0.25
752 6.3575 4.81913 7.91958 0.25
753 3.93483 0.904725 1.87459 0.5
754 4.24744 5.92995 1.51947 0.25
755 2.93146 2.64865 1.40671 0.5
756 7.84354 6.81019 7.5958 0.25
757 5.73987 6.63411 5.67078 0.25
758 6.71033 4.00476 7.3283 0.25
759 4.20564 8.17168 5.22359 0.25
760 0.117238 2.64953 3.42716 0.25
761 3.73311 7.24622 7.07907 0.25
762 0.633882 1.59448 3.49424 0.5
763 3.88975 8.16079 1.94487 0.25
764 1.53479 6.28135 0.482749 0.25
765 7.39462 4.91266 3.06118 0.25
766 0.552649 4.40756 2.29938 0.25
767 2.63529 6.90075 7.49832 0.25
768 2.25231 2.96953 4.98123 0.25
769 8.00139 3.62186 1.68718 0.25
770 4.88487 0.885043 8.16217 0.25
771 6.62566 1.34289 6.01421 0.25
772 4.7603 2.40286 8.06972 0.25
773 5.46979 0.926335 4.96093 0.5
774 3.6959 8.22073 5.01883 0.25
775 7.89395 4.44696 2.67012 0.5
776 7.03662 3.90672 0.492158 0.5
777 5.84768 6.41229 0.125986 0.25
778 5.05066 8.10971 0.307929 0.25
779 8.28423 8.15145 4.25542 0.25
780 2.03821 1.62675 5.68948 0.25
781 2.46851 1.64504 8.32822 0.25
782 1.45299 7.24186 0.40416 0.25
783 6.80889 3.20061 0.440621 0.25
784 2.34121 7.72292 2.30049 0.25
785 2.42529 1.94968 5.752 0.25
786 2.79297 7.87287 2.23908 0.25
787 7.62988 7.17739 6.88955 0.25
788 0.0497225 4.22229 2.12527 0.25
789 3.69481 7.92034 4.55941 0.25
790 6.79886 0.251806 6.58196 0.25
791 0.611349 4.62744 3.01194 0.5
792 2.2346 0.317775 7.87567 0.25
793 8.27593 6.99124 1.70697 0.25
794 5.20673 6.54025 6.25371 0.5
795 2.42614 4.16129 3.19405 0.25
796 2.15417 5.95015 5.66624 0.25
797 6.72219 6.61776 1.0258 0.25
798 7.75481 4.29778 1.27298 0.25
799 4.06564 3.38911 6.08184 0.25
800 7.90688 1.93791 3.19098 0.25
801 3.22205 7.90197 7.02193 0.25
802 3.7807 5.16171 4.39864 0.25
803 3.16325 8.34135 7.56589 0.5
804 3.71046 7.03646 1.62488 0.25
805 2.01953 8.10098 1.99517 0.25
806 2.6612 1.74747 3.94784 0.25
807 4.65498 6.12375 5.32139 0.25
808 3.96836 2.12257 7.92638 0.25
809 1.67424 5.9454 5.73868 0.25
810 6.43747 7.49776 6.32777 0.25
811 1.59131 3.22892 4.76286 0.5
812 5.5984 7.48926 0.538968 0.25
813 4.44895 2.08988 3.10133 0.25
814 1.66768 7.44057 7.6229 0.25
815 2.93005 8.04714 4.42174 0.25
816 1.03056 2.91626 5.16669 0.25
817 4.22557 1.63912 7.98103 0.25
818 3.91682 2.13102 3.05672 0.25
819 2.08031 5.34557 1.32457 0.25
820 3.35534 3.04321 6.98594 0.25
821 1.35813 2.01978 8.15551 0.5
822 5.96491 4.44414 3.4824 0.5
823 5.12381 0.410182 8.03564 0.25
824 0.780338 0.532357 5.258 0.25
825 3.8701 6.04331 7.55126 0.25
826 3.25858 3.67151 1.54034 0.5
827 5.66551 7.26814 6.11954 0.25
828 0.00544651 2.08593 7.76206 0.25
829 8.30952 8.07778 4.72831 0.25
830 0.959019 1.89449 2.89469 0.25
831 2.07787 4.23004 7.88 0.25
832 5.83557 4.68271 2.02056 0.25
833 1.90133 1.401 6.13612 0.25
834 4.09647 0.523911 2.51905 0.25
835 6.67159 1.64166 1.13558 0.25
836 3.35359 7.63056 7.79634 0.25
837 3.94721 5.28823 7.88053 0.25
838 7.43841 0.647396 1.1228 0.25
839 6.07808 7.53741 6.01035 0.25
840 6.90418 4.70549 7.35976 0.5
841 3.37651 6.96486 2.01324 0.25
842 0.200769 2.14595 2.87895 0.5
843 5.92754 3.95394 5.44196 0.25
844 4.60608 2.17541 0.119991 0.25
845 7.51269 2.69245 5.31981 0.25
846 3.58551 3.46796 7.47616 0.5
847 2.23186 5.16834 0.607573 0.25
848 1.79753 5.91525 5.28645 0.25
849 5.19232 7.96597 2.6589 0.25
850 6.37426 2.92105 5.58879 0.5
851 5.4346 8.12827 5.13324 0.25
852 6.75645 1.76389 7.48718 0.25
853 4.04939 8.261 4.68589 0.25
854 4.29063 1.6087 5.90465 0.5
855 0.420678 3.96367 5.29983 0.25
856 0.717683 5.37653 3.09821 0.25
857 3.6921 6.56489 1.41332 0.25
858 2.71509 4.69041 3.78344 0.25
859 6.61868 4.64368 3.97836 0.25
860 7.75285 4.03482 0.864704 0.25
861 5.14692 2.73476 8.22215 0.25
862 6.60906 4.84255 3.49344 0.25
863 5.36712 6.21107 0.138373 0.25
864 7.62441 6.87326 2.43921 0.25
865 3.8081 5.73701 7.9839 0.25
866 5.01135 8.19154 3.05558 0.25
867 1.76069 3.94898 7.5289 0.25
868 2.07499 1.59509 0.554246 0.5
869 0.854753 3.1851 7.27522 0.25
870 6.17789 5.56612 3.24461 0.25
871 2.85802 7.55688 6.94284 0.25
872 5.86722 3.13539 5.08194 0.25
873 0.893154 0.108654 0.671626 0.25
874 3.78068 1.13903 6.26693 0.25
875 2.28107 4.17535 1.18784 0.5
876 1.37888 5.67191 5.39532 0.25
877 0.0293879 5.57518 7.76832 0.25
878 5.79309 0.967029 2.43924 0.25
879 3.30914 8.17121 4.72351 0.25
880 6.39414 6.05611 3.06834 0.25
881 7.49128 1.0939 1.40468 0.25
882 7.79729 7.29137 7.35111 0.25
883 0.428335 3.8973 2.23999 0.25
884 7.12864 3.27287 0.827839 0.25
885 0.943498 4.13062 5.21392 0.25
886 8.04871 7.43741 3.14913 0.25
887 1.21961 6.49049 1.3418 0.25
888 1.10382 4.69464 3.57485 0.25
889 1.54301 7.9407 2.74809 0.25
890 0.155785 4.6086 2.48722 0.25
891 0.765067 2.46456 7.89571 0.25
892 7.50188 3.56553 1.00007 0.25
893 1.36677 7.68809 0.660334 0.25
894 3.91824 5.74757 1.84199 0.25
895 3.71078 5.74542 0.953031 0.25
896 1.64445 1.3343 0.0237031 0.25
897 8.08478 4.10047 1.58492 0.25
898 0.673717 4.64683 3.76561 0.25
899 0.98852 8.08635 6.23082 0.25
900 5.12557 6.1893 5.6798 0.25
901 0.973535 1.46169 2.78293 0.25
902 7.38636 3.98446 1.23386 0.25
903 5.82963 3.77762 3.94734 0.25
904 6.90466 4.0529 7.77407 0.25