ITEM: TIMESTEP
800000
ITEM: NUMBER OF ATOMS
1000
ITEM: BOX BOUNDS xy xz yz pp pp pp
0.0000000000000000e+00 8.3788359999999997e+00 0.0000000000000000e+00
0.0000000000000000e+00 8.3788359999999997e+00 0.0000000000000000e+00
0.0000000000000000e+00 8.3788359999999997e+00 0.0000000000000000e+00
ITEM: ATOMS id x y z radius
1 2.47094 7.01382 5.09308 0.25
2 4.84814 5.18396 5.18867 0.25
3 6.90064 4.57835 3.14326 0.25
4 7.26205 1.0254 5.73543 0.5
5 1.25387 5.50164 6.22237 0.25
6 8.20152 1.75475 3.41386 0.25
7 4.36522 3.26181 6.52243 0.25
8 4.71238 7.74502 3.01587 0.25
9 0.789441 6.19377 3.74859 0.25
10 4.114 1.46589 3.48165 0.25
11 5.40671 0.0317976 7.9411 0.25
12 5.07766 3.49758 1.42079 0.25
13 0.664818 2.44915 7.46177 0.25
14 3.9994 2.85827 7.16594 0.25
15 0.14166 3.20567 6.18158 0.25
16 7.44955 0.97089 6.54932 0.25
17 1.01925 5.43053 0.0203481 0.25
18 6.15613 7.38073 8.06956 0.25
19 4.53643 1.84152 7.69215 0.25
20 7.70345 1.42611 0.526158 0.25
21 4.78179 4.20061 1.81962 0.25
22 4.17515 3.22291 1.21323 0.25
23 2.12197 3.2953 2.07549 0.25
24 2.89677 2.06236 4.75265 0.25
25 2.80623 4.48813 3.0128 0.25
26 0.300062 0.0495697 5.66523 0.25
27 4.01617 0.328235 6.02813 0.25
28 4.37193 2.15075 0.0892107 0.25
29 5.00283 6.90883 3.03899 0.25
30 7.43204 7.42561 2.39319 0.25
31 2.74653 0.38796 7.88684 0.25
32 1.03232 2.78474 7.26852 0.25
33 7.54203 0.0922862 5.13575 0.25
34 2.06582 5.6337 1.71636 0.25
35 7.73976 0.0576025 4.65074 0.25
36 6.7351 1.94227 5.77882 0.5
37 4.44102 1.32275 2.087 0.25
38 2.0835 3.36078 4.17354 0.25
39 6.06441 2.60652 4.73721 0.25
40 5.21952 7.7065 3.19298 0.25
41 6.50025 2.21405 2.82893 0.25
42 5.71304 6.08578 5.77041 0.25
43 3.51576 7.81305 4.7454 0.25
44 3.85962 8.10637 5.51846 0.25
45 5.4469 3.97332 3.91787 0.25
46 3.26269 6.05675 1.55359 0.5
47 4.97738 0.830611 5.36596 0.25
48 8.33794 6.17498 6.85799 0.25
49 7.49306 6.6739 4.58663 0.25
50 7.76525 1.2923 1.02624 0.25
51 2.5311 3.42656 4.43707 0.25
52 0.632624 1.59162 2.38467 0.25
53 6.76456 4.9631 6.82313 0.25
54 5.8127 3.12771 3.97773 0.25
55 1.64726 1.02884 5.84596 0.25
56 1.29701 7.3379 0.247581 0.25
57 4.70366 0.848588 1.98993 0.25
58 2.30469 2.08594 4.20384 0.25
59 4.96918 1.13792 6.2462 0.25
60 7.75531 5.55839 5.13162 0.25
61 5.12951 8.04339 8.03153 0.25
62 5.42999 1.88112 8.26312 0.5
63 7.69213 6.60121 1.24063 0.25
64 1.15663 6.20164 0.941625 0.25
65 4.34125 0.135419 1.73524 0.25
66 2.54724 4.84865 7.40137 0.25
67 8.29131 4.8833 7.60896 0.25
68 7.19965 0.588974 6.35789 0.25
69 0.521508 5.57956 7.70665 0.25
70 1.6657 4.8787 1.09473 0.25
71 8.11371 1.34035 0.224555 0.25
72 6.39495 6.26208 3.32803 0.25
73 0.658623 7.64516 6.78987 0.25
74 7.62178 5.48663 6.85655 0.25
75 7.19247 0.130629 3.35164 0.25
76 7.21777 6.61992 4.17426 0.25
77 5.51079 2.75792 5.29576 0.25
78 5.26104 3.83644 1.10993 0.25
79 7.6475 5.20282 4.31233 0.25
80 5.69837 3.23802 5.33236 0.25
81 7.34327 1.61129 0.898391 0.25
82 8.2187 2.92219 5.92032 0.25
83 4.5224 5.76764 5.75542 0.25
84 1.06256 1.08132 5.94699 0.25
85 1.30871 1.25051 5.15223 0.25
86 4.63196 8.2894 5.41615 0.25
87 1.81326 2.34801 0.69458 0.25
88 3.2633 6.84669 1.71836 0.25
89 6.88616 7.38944 0.852336 0.25
90 5.57965 6.53041 5.59739 0.25
91 4.02876 4.08853 6.20255 0.25
92 6.27065 4.6086 7.39438 0.25
93 5.09352 6.57219 5.482 0.25
94 6.59443 0.176595 3.95939 0.25
95 0.464587 4.52691 7.85936 0.5
96 5.33649 2.99683 3.36332 0.5
97 4.29094 4.99479 8.16584 0.25
98 8.3038 2.21432 3.4253 0.25
99 1.55476 6.25456 5.99922 0.25
100 7.06555 6.95382 1.02626 0.25
101 0.860382 7.75821 8.19021 0.25
102 7.6944 4.72831 3.40769 0.25
103 6.8427 1.10504 1.35216 0.25
104 1.14147 4.7508 7.659 0.25
105 5.21312 5.82254 5.28106 0.5
106 5.10347 0.231501 4.40196 0.25
107 4.33269 3.21215 7.05566 0.25
108 4.82316 1.42937 8.37736 0.25
109 0.627171 0.90974 5.74456 0.25
110 2.27019 8.07399 8.25031 0.25
111 3.20535 3.81105 6.93166 0.25
112 4.67986 2.14865 8.06194 0.25
113 1.52408 1.91355 1.76893 0.5
114 1.87844 3.72255 7.16368 0.25
115 4.78982 6.26242 6.37529 0.25
116 2.53261 7.12004 7.13218 0.25
117 4.15347 2.17208 3.70639 0.5
118 6.70711 7.24029 1.31613 0.25
119 1.08223 6.48496 3.6566 0.25
120 8.31545 2.86747 3.05381 0.25
121 3.17001 4.07892 3.65023 0.25
122 6.71932 0.75751 6.29831 0.25
123 5.31652 0.464762 5.38868 0.25
124 8.00165 8.02894 2.48486 0.25
125 3.45654 2.04064 3.93799 0.25
126 3.78903 1.14442 5.96529 0.25
127 5.17196 3.93517 1.57688 0.25
128 6.88977 5.26049 7.21119 0.25
129 0.952426 6.5713 4.12843 0.25
130 6.07381 6.14833 0.464046 0.25
131 6.96536 1.56988 6.30876 0.25
132 6.00018 4.18298 7.56257 0.25
133 3.09859 1.78146 3.8146 0.25
134 4.51048 2.59438 8.20118 0.25
135 5.37376 3.71301 3.49078 0.25
136 2.86666 2.51004 3.76964 0.5
137 2.93791 4.02694 3.20024 0.25
138 7.37187 7.99173 2.8501 0.5
139 2.65882 7.43337 5.21861 0.25
140 5.25237 7.5688 7.95023 0.25
141 7.66084 5.92749 4.77563 0.25
142 1.14038 5.14478 3.30683 0.25
143 2.23434 2.16334 8.25514 0.25
144 5.08203 1.197 2.56593 0.5
145 7.48651 1.91362 3.93525 0.25
146 6.11856 7.32463 0.187046 0.25
147 6.44425 5.65504 4.47896 0.25
148 2.18395 3.05826 4.60877 0.25
149 4.63375 8.23927 2.43378 0.5
150 4.91598 2.84063 4.02597 0.25
151 3.44598 5.90923 7.34036 0.25
152 3.73982 4.64276 5.68026 0.25
153 6.70764 5.9735 2.19343 0.5
154 7.32924 2.50229 4.55773 0.5
155 3.02111 7.25588 7.88064 0.25
156 7.4936 3.56957 1.47771 0.25
157 7.69243 5.93633 1.60575 0.25
158 2.53839 3.71351 0.932462 0.25
159 7.03127 7.70535 4.30478 0.25
160 6.37213 1.79859 3.06337 0.25
161 0.942995 5.30343 2.89994 0.25
162 6.02308 4.31471 7.09198 0.25
163 3.30242 3.72818 4.32418 0.5
164 2.62337 3.82627 2.53368 0.5
165 5.51728 7.97408 7.71393 0.25
166 0.302421 3.78066 8.07524 0.25
167 6.60169 4.19325 8.20699 0.25
168 4.9456 6.00077 5.97585 0.25
169 4.11174 4.35495 5.745 0.25
170 8.29301 2.70496 6.30791 0.25
171 7.96589 5.86126 1.15797 0.25
172 1.16869 3.06665 6.89921 0.25
173 4.45064 6.21746 5.98296 0.25
174 2.22823 2.26887 1.01965 0.25
175 7.63929 2.44864 5.90541 0.5
176 2.44808 5.78526 6.09506 0.25
177 5.31521 3.45775 3.91831 0.25
178 3.01817 6.56255 2.0441 0.25
179 3.40227 1.98565 3.47217 0.25
180 6.02132 6.51274 5.85033 0.25
181 6.8212 4.13103 6.90879 0.25
182 3.21871 5.30158 3.43886 0.25
183 8.13186 7.55562 1.80227 0.25
184 3.88675 5.24624 8.35911 0.25
185 5.97752 6.88087 6.20888 0.25
186 7.48581 5.72282 4.3739 0.25
187 2.83104 5.18366 4.20328 0.25
188 0.77766 5.91082 3.33799 0.25
189 4.14331 6.57036 3.54047 0.25
190 3.85616 3.59381 1.3739 0.25
191 6.97926 1.55342 0.251412 0.5
192 1.08363 5.02384 8.04273 0.25
193 3.70795 5.48895 1.27889 0.25
194 2.63614 6.35393 1.82758 0.25
195 6.10699 5.68846 2.64294 0.25
196 2.25933 8.06181 2.67242 0.25
197 1.37464 8.36523 2.37227 0.25
198 7.83506 4.80673 7.51012 0.25
199 1.14959 1.37147 3.14458 0.25
200 4.39534 5.29347 1.43919 0.5
201 6.69898 1.43276 2.99037 0.25
202 8.24792 3.93767 5.50324 0.25
203 3.60712 1.59573 3.74386 0.25
204 5.63456 7.93281 0.0845204 0.5
205 2.45453 7.43716 4.47435 0.5
206 0.358868 4.53397 5.23223 0.25
207 5.72218 2.61134 3.97863 0.25
208 6.73313 5.28344 4.29596 0.25
209 5.50338 6.97533 8.29995 0.5
210 1.85147 8.12463 3.01897 0.25
211 0.586683 3.81958 5.05796 0.25
212 1.53141 8.03524 8.31835 0.5
213 0.218317 4.04373 2.83746 0.25
214 1.78362 8.09769 2.45241 0.25
215 2.81463 4.2791 3.98653 0.25
216 6.194 1.90297 2.51112 0.25
217 4.80645 3.67863 1.80215 0.25
218 2.31701 3.41808 4.93023 0.25
219 4.33962 0.93668 2.83612 0.25
220 3.47123 3.55664 1.02372 0.25
221 4.28637 8.26246 5.78108 0.25
222 7.19284 0.508581 5.15434 0.25
223 8.03408 2.66869 2.70911 0.25
224 7.31397 5.44036 7.28141 0.25
225 7.30429 2.16046 5.27797 0.25
226 4.98509 2.09395 7.67614 0.25
227 6.55458 3.69821 6.99733 0.25
228 5.37834 2.99773 4.1074 0.25
229 5.59992 5.0686 1.82699 0.25
230 0.461898 8.28903 6.4652 0.5
231 5.23385 4.57781 1.32461 0.5
232 1.87161 2.89968 4.30689 0.25
233 3.81222 5.20587 4.46533 0.25
234 6.50665 1.5867 6.46424 0.25
235 3.21434 7.36469 4.57957 0.25
236 0.849286 2.4672 7.99626 0.25
237 8.36758 3.01489 7.34565 0.25
238 3.20265 0.874117 1.56925 0.25
239 0.281761 2.34131 3.75616 0.25
240 6.75363 6.26143 1.44308 0.25
241 3.42388 7.15959 8.09876 0.25
242 1.73482 7.45776 2.74298 0.5
243 2.94947 4.86374 3.38807 0.25
244 7.04221 3.65035 1.20355 0.25
245 2.14115 1.15553 5.79128 0.25
246 7.54153 8.28949 3.61665 0.25
247 3.51439 2.42184 3.64859 0.25
248 3.6512 3.16409 1.22206 0.25
249 0.354807 5.16492 7.52673 0.25
250 1.31129 3.80741 5.37986 0.25
251 5.24969 2.54544 4.60875 0.5
252 3.23706 2.28573 4.38915 0.25
253 8.14813 5.5958 7.37903 0.5
254 7.50413 5.89457 7.06806 0.25
255 4.81125 0.426643 5.9797 0.5
256 5.66177 6.16437 0.190874 0.25
257 1.18715 0.241709 2.73061 0.25
258 1.51072 1.9213 2.54968 0.25
259 4.37168 3.44328 1.65306 0.25
260 8.00433 6.30415 1.43135 0.25
261 4.03814 8.25981 1.38054 0.25
262 3.56527 2.49282 4.11585 0.25
263 2.37565 0.350454 0.173555 0.5
264 2.80987 4.38468 3.52005 0.25
265 1.25987 4.01928 7.47235 0.5
266 0.917623 7.78941 7.44047 0.5
267 5.35181 2.44399 7.70818 0.25
268 6.32804 7.74192 0.0775776 0.25
269 1.47028 5.31567 1.10512 0.25
270 3.94612 3.50189 0.896835 0.25
271 7.41345 7.68033 4.66055 0.25
272 1.73123 1.13643 2.60989 0.25
273 1.47548 3.4142 7.04528 0.25
274 0.996166 5.51814 7.91535 0.25
275 4.49846 4.54308 1.50743 0.25
276 2.62565 3.2318 1.16615 0.25
277 6.56238 1.09102 6.6414 0.25
278 3.94338 6.24973 1.40306 0.25
279 4.13948 0.33805 5.25313 0.5
280 7.70985 8.04173 4.921 0.25
281 0.96016 6.57992 0.620686 0.25
282 6.34754 7.16551 6.37009 0.25
283 1.10295 0.156063 6.03908 0.25
284 7.30456 4.43384 1.04583 0.25
285 1.87584 6.02324 1.12383 0.5
286 5.49508 6.73958 3.20039 0.25
287 1.41527 7.86428 3.55818 0.5
288 2.9488 7.13196 4.9116 0.25
289 2.1571 7.34105 5.26625 0.25
290 1.98022 3.82157 2.04633 0.25
291 8.26004 7.5044 7.01469 0.25
292 7.60895 2.46502 3.35412 0.25
293 7.35492 4.36733 3.25471 0.25
294 5.39557 3.75332 3.03238 0.25
295 8.15257 4.18548 1.16591 0.25
296 0.495314 4.20302 4.54707 0.5
297 3.96112 3.12183 6.7611 0.25
298 6.44428 5.01089 7.18881 0.25
299 6.01545 5.02485 7.48673 0.25
300 6.37946 3.57711 0.585826 0.25
301 1.21769 7.42914 8.05642 0.25
302 0.145739 4.17212 1.58943 0.25
303 3.48116 0.758111 1.15138 0.25
304 2.05283 2.6179 4.76693 0.25
305 0.816644 4.91834 8.39662 0.25
306 2.38088 2.24617 4.68846 0.25
307 1.87206 4.72585 7.84272 0.5
308 3.47655 4.93547 3.28407 0.25
309 4.50853 0.912709 5.53674 0.25
310 0.918661 4.81297 4.19387 0.25
311 7.1178 0.107149 3.93735 0.25
312 0.983783 0.907252 2.51638 0.5
313 0.822721 3.89199 5.50776 0.25
314 5.12282 3.39525 2.69759 0.25
315 1.16181 4.52354 8.12239 0.25
316 1.99878 4.25259 7.21138 0.25
317 7.53379 2.37755 3.84666 0.25
318 2.24869 2.56095 4.33756 0.25
319 4.8564 7.27876 8.08063 0.25
320 2.03402 6.08696 6.06864 0.25
321 3.99981 0.721674 1.07351 0.25
322 7.38878 6.31656 4.9325 0.25
323 0.73426 6.15213 4.23132 0.25
324 4.09567 7.23404 7.90609 0.5
325 0.553021 2.19987 0.320903 0.25
326 4.13563 4.9465 5.11788 0.5
327 7.37074 7.4165 3.34249 0.25
328 2.20856 7.7838 1.85229 0.25
329 1.23292 6.01692 3.53795 0.25
330 8.30232 7.06306 7.25386 0.25
331 0.929039 5.45988 3.94504 0.5
332 7.2878 6.54455 2.13776 0.25
333 1.01571 1.44048 2.00871 0.25
334 6.88265 1.82468 0.917953 0.25
335 3.12212 3.14301 1.00945 0.25
336 3.02069 6.97487 6.91339 0.25
337 4.26089 7.14286 3.07546 0.5
338 6.58956 7.25718 0.00624114 0.25
339 1.98753 7.97391 4.11935 0.25
340 4.71593 0.398974 4.74164 0.25
341 6.73358 0.0551568 3.12878 0.25
342 1.31858 5.28178 7.6591 0.25
343 2.8018 1.37984 0.280837 0.25
344 1.25995 5.71091 2.77083 0.25
345 0.41063 1.40969 2.79415 0.25
346 0.40876 2.38472 7.86843 0.25
347 3.35316 5.85384 7.81139 0.25
348 7.31424 7.8019 2.08526 0.25
349 0.747337 2.1304 8.21923 0.25
350 6.67319 1.77453 2.62594 0.25
351 1.33852 6.87135 0.508066 0.25
352 6.35585 3.59835 7.79877 0.5
353 2.4978 0.0714156 7.52327 0.25
354 1.93054 0.666047 5.64627 0.25
355 0.614436 0.407519 5.96228 0.25
356 1.78015 1.7792 6.18004 0.25
357 2.96305 3.99395 6.5682 0.25
358 6.08571 3.38334 5.06118 0.25
359 4.51841 0.980238 6.38458 0.25
360 1.78112 2.12956 1.11827 0.25
361 0.971465 7.72515 0.290653 0.25
362 6.31447 4.09306 6.78179 0.25
363 7.92996 4.04748 2.13532 0.25
364 6.11397 3.84305 7.19747 0.25
365 5.57179 6.07702 0.650599 0.25
366 5.57913 6.50884 0.941479 0.25
367 3.00507 4.30568 6.93997 0.25
368 6.87788 3.77332 8.30481 0.25
369 0.95087 6.91029 0.198273 0.25
370 5.54093 0.359428 8.31027 0.25
371 2.7225 7.9059 4.94752 0.25
372 2.04616 4.75496 0.858413 0.25
373 6.96173 2.90431 5.08894 0.25
374 3.67103 4.40016 4.62806 0.25
375 5.37929 0.856525 8.11041 0.25
376 2.67162 5.77538 1.18172 0.25
377 6.44722 1.48009 1.90427 0.5
378 0.498922 3.78094 7.63534 0.25
379 5.13476 1.28283 7.96801 0.25
380 2.27737 6.77729 4.68693 0.25
381 4.19448 5.36874 5.71314 0.25
382 1.94204 7.03522 4.89756 0.25
383 6.14504 5.28574 3.87419 0.5
384 2.07144 1.78824 1.23534 0.25
385 7.03832 1.4686 7.03554 0.5
386 1.3044 1.3552 5.62574 0.25
387 7.87152 0.887452 0.7212 0.25
388 0.817794 5.80889 2.88745 0.25
389 4.59768 2.70116 7.51173 0.5
390 4.18682 0.630623 6.40322 0.25
391 5.28926 4.76976 2.03127 0.25
392 8.05456 2.48099 3.19186 0.25
393 2.81694 6.67941 1.52439 0.25
394 0.913737 8.22467 8.06964 0.25
395 2.54298 1.89517 1.15304 0.25
396 4.72025 7.77302 8.10715 0.25
397 5.11412 0.625443 0.0167231 0.25
398 7.44427 1.40299 7.99744 0.25
399 3.22818 4.44268 3.3065 0.25
400 4.78016 4.5422 0.68678 0.25
401 2.30179 7.15458 3.74548 0.25
402 8.25976 7.88121 6.70417 0.25
403 7.93967 6.29156 0.93111 0.25
404 8.17779 6.64146 6.94249 0.25
405 0.486046 7.66054 0.164588 0.25
406 5.32854 8.21691 4.14669 0.25
407 2.59778 1.11176 8.04358 0.5
408 5.42931 3.36369 2.30267 0.25
409 2.14154 4.95513 1.28438 0.25
410 7.53216 0.845452 0.0706677 0.5
411 4.51298 5.50792 5.33335 0.25
412 0.060123 7.07739 6.79702 0.25
413 0.9842 2.40535 0.134705 0.25
414 0.54925 3.12602 7.78114 0.5
415 6.44291 4.6247 2.94224 0.25
416 3.12569 3.01845 6.57939 0.25
417 3.37957 4.72485 3.97839 0.5
418 7.09958 6.94225 4.58979 0.25
419 4.06618 3.81057 5.80974 0.25
420 0.765693 3.09378 4.9518 0.25
421 4.20435 4.8449 5.85896 0.25
422 2.31809 5.47314 1.28277 0.25
423 0.200837 0.597907 5.73078 0.25
424 0.357351 3.38548 4.81799 0.25
425 1.87102 2.82138 1.35693 0.5
426 6.99928 5.67079 4.9148 0.5
427 2.69755 2.27302 4.35787 0.25
428 4.04628 5.14464 4.02872 0.25
429 4.56015 4.51432 5.64109 0.25
430 1.9251 7.26725 3.47865 0.25
431 1.01752 3.56255 6.91391 0.25
432 1.65069 6.87257 4.13989 0.5
433 2.35237 1.65202 7.56317 0.25
434 0.898163 6.55179 1.14988 0.25
435 5.64716 3.51433 2.71245 0.25
436 1.20703 6.08152 3.05914 0.25
437 0.193191 1.27035 0.396777 0.25
438 0.898363 3.48122 5.19996 0.25
439 3.87935 2.61447 6.71096 0.25
440 4.94322 1.61541 7.57596 0.25
441 7.86708 4.23501 5.30116 0.25
442 2.51312 5.82445 1.61855 0.25
443 0.484812 2.93512 6.84066 0.5
444 1.95934 3.50095 1.65826 0.25
445 5.52542 6.89809 0.699422 0.25
446 4.20621 5.82205 3.61934 0.5
447 1.42128 1.42535 6.10866 0.25
448 6.00427 7.33147 6.09419 0.25
449 1.07035 5.4282 5.72257 0.25
450 3.00766 3.61089 1.00869 0.25
451 2.50431 7.15587 5.60638 0.25
452 2.47247 1.05699 0.432988 0.25
453 4.54357 4.66562 1.04237 0.25
454 0.204257 3.53544 7.26611 0.25
455 8.00176 5.11291 7.92628 0.25
456 3.06353 1.88013 4.31822 0.25
457 2.61905 3.72715 7.25365 0.5
458 0.197053 7.54127 6.61238 0.25
459 5.05944 7.59507 -0.00549878 0.25
460 5.48266 0.0606652 4.62448 0.25
461 2.56178 3.6276 1.38658 0.25
462 6.14276 4.97284 3.20846 0.25
463 5.00556 7.37271 2.89942 0.25
464 7.72034 6.71514 6.87428 0.25
465 7.04168 2.56562 5.51742 0.25
466 3.98725 1.25536 3.00523 0.25
467 3.93854 6.24521 1.91202 0.25
468 6.75246 5.29574 3.00259 0.5
469 7.66094 7.15027 6.57053 0.25
470 0.446597 1.74229 0.522362 0.25
471 2.02351 0.824422 6.12297 0.25
472 1.84762 7.42084 1.98509 0.25
473 7.48243 5.16065 5.13577 0.25
474 5.39185 5.7589 6.00673 0.25
475 1.38622 1.46003 2.75797 0.25
476 7.11546 0.744424 7.32734 0.25
477 3.22801 5.44961 3.93854 0.25
478 6.17672 3.32158 7.12099 0.25
479 3.43628 7.25758 7.56082 0.25
480 4.80581 0.316099 1.84829 0.25
481 7.86856 2.17265 4.09877 0.25
482 6.88763 5.02105 4.63445 0.25
483 7.95746 5.59658 4.60838 0.25
484 3.09056 0.528861 8.20431 0.25
485 8.10185 7.39357 6.56423 0.25
486 2.50693 6.24141 5.91062 0.25
487 8.18602 7.82923 4.25071 0.25
488 4.46317 4.10388 5.9819 0.25
489 0.763773 8.12235 0.143812 0.25
490 8.13021 8.02649 2.02857 0.25
491 4.37905 2.93177 1.61907 0.25
492 2.57119 1.81483 4.48662 0.25
493 6.48217 4.53671 6.92427 0.25
494 4.70111 7.53744 2.55003 0.25
495 1.29482 5.82971 5.85468 0.25
496 3.11353 7.64948 4.97505 0.25
497 6.46496 4.34211 7.7306 0.25
498 3.33631 2.95976 4.15985 0.25
499 0.831761 5.17052 7.62286 0.25
500 4.0237 2.88087 6.33155 0.25
501 5.76756 3.60035 3.76308 0.25
502 1.6665 8.06553 7.60395 0.25
503 5.7999 5.02378 2.54535 0.5
504 7.78419 7.69695 2.17111 0.25
505 5.87378 1.49205 2.38811 0.25
506 7.02523 6.43496 4.59183 0.25
507 1.36009 0.561493 3.11344 0.25
508 0.623178 0.0592061 5.21971 0.25
509 8.04723 4.88637 4.94481 0.5
510 4.98382 1.66312 5.50052 0.25
511 0.550061 0.418114 5.49981 0.25
512 1.12983 0.910107 3.31361 0.25
513 3.98996 1.0344 5.51234 0.25
514 2.05887 5.56508 5.99406 0.25
515 0.368356 8.30055 7.23638 0.25
516 7.34959 1.73445 5.98144 0.25
517 7.19947 5.30812 4.34448 0.25
518 0.858303 3.56014 4.68831 0.25
519 6.61089 1.94226 1.29407 0.25
520 7.00978 2.3953 6.34387 0.25
521 7.72173 1.58537 0.0577655 0.25
522 6.78189 0.988428 7.61723 0.25
523 5.28764 6.81398 5.8372 0.25
524 2.72633 0.54091 7.4781 0.25
525 6.47633 4.166 7.23983 0.25
526 7.23974 5.14503 6.84651 0.25
527 7.36883 8.00956 4.02502 0.25
528 7.44076 1.4369 6.36434 0.25
529 6.66807 1.25505 2.50968 0.25
530 2.07555 1.52688 6.51708 0.25
531 7.83127 8.00268 3.94638 0.25
532 1.49911 1.0189 3.01875 0.25
533 7.27581 1.05188 7.68205 0.25
534 8.19799 5.8112 1.58948 0.25
535 0.311818 3.3539 5.51769 0.5
536 6.8527 2.64047 5.93867 0.25
537 4.16805 0.826915 5.95844 0.25
538 6.41232 5.20037 4.64121 0.25
539 2.3717 1.19268 6.28158 0.25
540 8.06729 6.39003 2.14841 0.5
541 7.58079 4.03568 1.71883 0.25
542 2.08569 2.01931 7.76806 0.25
543 3.32789 7.30904 7.09625 0.25
544 8.00106 6.38734 6.5743 0.25
545 1.22008 6.20251 4.03184 0.25
546 5.08921 5.79809 6.4129 0.25
547 5.23121 2.86131 7.88622 0.25
548 6.28929 7.29446 6.8697 0.25
549 0.252535 7.85785 7.05441 0.25
550 6.27844 6.94716 8.31385 0.25
551 4.31555 1.39735 2.6168 0.25
552 3.69272 5.47809 4.05338 0.25
553 6.8059 7.9162 3.61247 0.5
554 4.34311 6.34339 3.14033 0.25
555 4.85399 6.68172 3.62893 0.5
556 7.44781 0.601983 0.748681 0.25
557 7.08609 4.83519 3.87442 0.5
558 6.36878 0.185398 3.49597 0.25
559 1.18781 0.561174 5.43547 0.5
560 4.94989 3.4169 2.18804 0.25
561 2.85793 3.15669 4.14926 0.25
562 5.12724 8.39182 5.39915 0.25
563 2.29525 6.5862 1.51817 0.25
564 6.30085 6.88449 0.760323 0.5
565 6.81643 1.94992 6.5394 0.25
566 1.13179 1.6997 2.43569 0.25
567 4.57304 5.8127 6.24111 0.25
568 5.82863 1.23004 2.77819 0.25
569 2.58505 8.29008 7.9742 0.25
570 1.8759 6.52962 4.73862 0.25
571 3.25706 4.11927 7.32904 0.25
572 8.11687 2.78838 3.77572 0.5
573 3.86339 1.55805 2.68734 0.25
574 1.61441 5.80985 6.21111 0.25
575 2.1937 1.69292 8.13094 0.25
576 4.12681 5.6473 7.68986 0.25
577 5.20281 0.25322 4.94148 0.25
578 1.9731 7.50986 3.92255 0.25
579 7.56633 5.22245 7.66384 0.25
580 7.03682 8.37398 4.63801 0.5
581 4.39213 4.51403 6.13187 0.25
582 5.84283 2.88961 4.40391 0.25
583 5.59242 3.57126 4.59084 0.5
584 4.8957 6.52409 5.94337 0.25
585 4.67817 3.19799 1.29106 0.25
586 1.94401 0.391398 2.66727 0.5
587 4.76279 7.04098 2.59436 0.25
588 5.69574 5.14784 3.26737 0.25
589 0.178234 2.52871 7.44153 0.25
590 3.51767 6.55163 2.09262 0.25
591 6.94587 1.27601 0.900456 0.25
592 7.47431 7.14664 1.69502 0.5
593 6.80154 6.75915 1.40382 0.25
594 1.47854 4.96433 0.365664 0.5
595 0.781658 3.84083 7.96776 0.25
596 2.09279 0.897553 0.680057 0.25
597 8.28713 0.276863 5.0517 0.5
598 2.56696 6.22259 1.35591 0.25
599 2.08274 8.34318 7.88206 0.25
600 7.63672 0.553535 5.29746 0.25
601 0.473981 0.86163 5.32531 0.25
602 4.00277 0.180094 2.14223 0.25
603 4.25345 5.49544 8.13819 0.25
604 7.65408 5.11205 7.12931 0.25
605 7.88187 2.1289 3.61772 0.25
606 2.19717 8.22342 2.17593 0.25
607 4.38584 5.21435 7.71968 0.25
608 3.61193 7.65067 7.38553 0.25
609 6.51387 4.82494 4.33669 0.25
610 1.7582 1.53509 5.75563 0.25
611 3.1183 0.727251 7.71728 0.25
612 0.811499 7.34375 0.0190255 0.25
613 7.00179 1.0673 8.10236 0.25
614 4.65116 0.848928 5.018 0.25
615 4.81563 2.59851 3.62196 0.25
616 1.14505 5.63218 3.23152 0.25
617 1.74181 0.0230118 2.01642 0.25
618 7.58129 7.29793 4.06543 0.5
619 7.72237 7.98768 4.40019 0.25
620 8.16746 7.32623 2.53877 0.5
621 4.2434 6.48581 4.02105 0.25
622 6.32664 6.63101 6.31963 0.25
623 5.95223 6.24054 0.90142 0.25
624 1.15205 3.4454 5.60541 0.25
625 1.4747 5.38362 8.1233 0.25
626 3.37314 0.399373 1.52071 0.25
627 4.80391 4.72372 1.90681 0.25
628 8.17273 3.41348 2.51674 0.5
629 7.0883 3.40425 0.217456 0.25
630 1.45246 0.119665 3.15611 0.25
631 1.95258 1.48022 7.76308 0.25
632 7.69971 7.90707 1.75384 0.25
633 6.1096 7.62462 0.606321 0.25
634 2.88665 8.00711 4.10183 0.25
635 0.851629 7.30049 0.868238 0.5
636 1.64574 1.66724 1.01611 0.25
637 5.62112 0.180835 5.12766 0.25
638 4.7722 1.28014 5.25202 0.25
639 4.764 1.89729 0.121068 0.25
640 5.27193 7.34581 0.433431 0.25
641 1.34054 6.57626 5.30092 0.25
642 3.73892 0.710195 5.76305 0.25
643 6.33587 6.93819 5.91378 0.25
644 5.75853 0.823542 2.52852 0.25
645 2.18363 2.17132 1.45998 0.25
646 0.084538 6.58315 6.53986 0.25
647 2.39205 3.00487 4.13815 0.25
648 5.1942 1.1304 0.137211 0.25
649 0.415621 4.03941 2.00662 0.25
650 8.30369 3.7519 1.42881 0.25
651 3.21916 3.21459 3.75791 0.25
652 6.65446 0.813793 7.11946 0.25
653 1.3578 6.64261 0.99919 0.25
654 0.489962 2.52662 8.34001 0.25
655 3.59872 3.544 6.3561 0.5
656 0.639302 3.60797 7.21579 0.25
657 1.58324 5.42645 5.8866 0.25
658 6.83489 0.349674 3.54632 0.25
659 2.58584 1.94041 7.89942 0.25
660 6.87014 5.94044 3.9574 0.5
661 8.28062 1.02871 8.31409 0.25
662 3.95932 4.7471 4.39718 0.25
663 2.41514 3.66996 1.85777 0.25
664 6.58472 2.62077 4.79518 0.25
665 7.81199 3.86186 1.31177 0.25
666 6.15912 6.81945 6.71725 0.25
667 6.56956 3.45149 0.0950738 0.25
668 7.07002 6.52561 1.75834 0.25
669 6.043 4.80617 7.02615 0.25
670 5.52982 7.97772 4.52732 0.25
671 3.55866 4.86489 4.72722 0.25
672 2.59499 3.21421 2.0555 0.25
673 0.712298 1.16033 3.14469 0.25
674 4.86177 7.35151 3.35047 0.25
675 5.32611 3.5307 5.34898 0.25
676 7.65592 8.20975 2.18198 0.25
677 6.52395 1.48174 1.13578 0.25
678 7.40447 6.18781 4.4554 0.25
679 1.25693 6.42625 1.45899 0.25
680 3.70679 6.6859 8.19694 0.25
681 7.60901 0.0562326 4.10788 0.25
682 2.18189 6.16003 1.74708 0.25
683 1.6617 7.71713 7.29929 0.25
684 0.35856 3.69079 1.61132 0.25
685 2.92387 3.50127 6.58622 0.25
686 4.31416 2.76219 6.77299 0.25
687 1.60013 4.41798 0.801396 0.25
688 3.72037 0.730078 6.24666 0.25
689 6.12007 4.2013 8.10432 0.25
690 6.14909 1.07319 2.39858 0.25
691 6.99735 1.57224 1.31096 0.25
692 5.07353 5.16657 1.78607 0.25
693 7.28409 1.95724 6.42779 0.25
694 7.34756 4.9669 4.67848 0.25
695 0.317194 2.81758 6.0332 0.25
696 5.60805 5.95218 3.21251 0.5
697 4.31486 3.6912 6.24855 0.25
698 1.75456 1.11008 5.42367 0.25
699 1.50055 6.79943 4.90686 0.25
700 4.35744 5.99746 1.20827 0.25
701 4.85232 1.7078 7.99319 0.25
702 2.38729 4.37728 7.4603 0.25
703 3.35168 6.61959 7.57553 0.5
704 4.67121 5.30096 8.34034 0.25
705 4.81239 3.19586 1.74692 0.25
706 5.1134 0.123435 8.34694 0.25
707 4.53636 3.92716 1.1116 0.5
708 5.73733 7.53139 7.88192 0.25
709 2.5761 7.14713 1.9947 0.5
710 2.09438 4.70218 7.12507 0.25
711 5.15308 6.47305 2.96326 0.25
712 0.640035 5.2551 8.09084 0.25
713 2.72161 3.98098 1.68223 0.25
714 5.12716 4.09544 0.707151 0.25
715 4.70699 6.56469 2.88151 0.25
716 6.66425 0.504081 7.48174 0.25
717 7.52568 7.81525 3.5452 0.25
718 6.14752 3.59601 6.68808 0.25
719 6.01626 4.58718 7.81664 0.25
720 1.65682 7.65542 4.25982 0.25
721 6.57601 2.15796 2.32743 0.25
722 2.33011 7.90486 3.42286 0.5
723 2.47608 7.63775 2.68094 0.25
724 7.20734 6.49511 1.30531 0.25
725 7.89497 6.27661 7.09974 0.25
726 0.842072 1.26528 5.48482 0.25
727 4.24133 0.328254 1.29776 0.25
728 3.63197 6.17006 8.1496 0.25
729 4.91896 5.9503 3.59759 0.25
730 2.94824 7.13533 7.37614 0.25
731 5.38066 2.98767 2.58159 0.25
732 4.18883 3.62888 6.76373 0.25
733 3.62741 5.51096 7.6036 0.25
734 3.95175 1.06428 2.54561 0.25
735 3.56423 2.85722 6.41947 0.25
736 7.95596 1.34808 8.10296 0.25
737 3.03662 0.633915 1.20569 0.25
738 0.217624 8.09133 0.247696 0.25
739 4.79032 6.16365 3.20141 0.25
740 5.29948 7.20583 3.31582 0.25
741 0.571834 7.94059 0.587344 0.25
742 3.91431 4.55349 6.17844 0.25
743 7.10096 0.825959 1.05495 0.25
744 4.35156 0.963113 2.34251 0.25
745 3.64833 4.19736 5.91774 0.25
746 1.29315 6.13109 4.74575 0.5
747 4.42919 0.509649 2.13239 0.25
748 2.74219 6.74115 7.21866 0.25
749 1.48749 1.39286 2.27619 0.25
750 -0.00199286 3.36653 1.79989 0.25
751 0.860909 1.02953 5.05117 0.25
752 6.40945 4.90536 7.7538 0.25
753 3.88507 0.827346 1.79598 0.5
754 4.3582 6.043 1.67803 0.25
755 2.79425 2.59663 1.44389 0.5
756 7.88818 6.73401 7.32845 0.25
757 5.79348 6.94512 5.80144 0.25
758 6.89047 3.93706 7.36207 0.25
759 4.29606 7.98904 5.32608 0.25
760 0.220486 2.49783 3.28038 0.25
761 3.82413 7.19623 7.24049 0.25
762 0.582901 1.85332 3.38891 0.5
763 4.07395 8.11864 1.86567 0.25
764 1.43667 6.37383 0.625744 0.25
765 7.3788 4.82562 3.1085 0.25
766 0.713779 4.04579 2.81251 0.25
767 2.64278 6.97817 7.6439 0.25
768 2.12728 2.98662 5.13405 0.25
769 7.92331 3.67783 1.7504 0.25
770 4.86095 0.921544 8.16104 0.25
771 6.61993 1.25336 6.14427 0.25
772 4.98019 2.4525 8.0183 0.25
773 5.34374 0.878169 4.75572 0.5
774 3.468 7.91726 5.21546 0.25
775 7.9774 4.4908 2.75679 0.5
776 6.96325 3.99537 0.567567 0.5
777 6.04795 6.50132 0.0581376 0.25
778 4.90483 8.04006 0.103074 0.25
779 8.06426 8.29991 4.30767 0.25
780 2.23248 1.5884 6.01381 0.25
781 2.65845 1.79173 8.33959 0.25
782 1.3841 7.70953 0.576466 0.25
783 6.74231 3.21683 0.51221 0.25
784 2.14043 7.73666 2.313 0.25
785 2.56669 1.63621 6.40935 0.25
786 2.57428 7.91554 2.2668 0.25
787 8.05707 6.86389 6.49828 0.25
788 0.0484426 4.01669 2.33614 0.25
789 3.61114 8.29136 4.81314 0.25
790 6.97304 0.765621 6.78201 0.25
791 0.543187 4.68138 3.11736 0.5
792 2.29907 0.425362 7.77451 0.25
793 8.21106 7.09841 1.8721 0.25
794 5.52639 6.42371 6.40038 0.5
795 2.46393 4.18865 3.223 0.25
796 2.26121 5.89827 5.66785 0.25
797 6.88879 6.46889 0.968768 0.25
798 7.69501 4.36607 1.33103 0.25
799 4.19723 3.29181 6.00584 0.25
800 7.84174 2.02025 3.17231 0.25
801 3.2404 7.85215 7.092 0.25
802 3.30118 5.2706 4.42293 0.25
803 3.27018 8.36298 7.65688 0.5
804 3.67552 7.00784 1.97277 0.25
805 1.75014 7.92859 2.04658 0.25
806 2.68447 1.86484 4.03623 0.25
807 4.73966 6.22255 5.6094 0.25
808 4.24977 2.16469 7.98716 0.25
809 1.75107 5.8704 5.76893 0.25
810 6.67663 7.46976 6.57563 0.25
811 1.51389 3.25636 4.88008 0.5
812 5.73398 7.33847 0.554384 0.25
813 4.19014 1.70091 3.02953 0.25
814 1.5831 7.5488 7.69549 0.25
815 2.76972 8.20052 4.53975 0.25
816 0.99413 2.99276 5.37537 0.25
817 4.40598 1.69199 8.20025 0.25
818 3.70927 1.6552 3.19279 0.25
819 1.81425 5.29713 1.43189 0.25
820 3.53967 2.98684 6.90039 0.25
821 1.48231 2.03479 8.11026 0.5
822 5.82084 4.30037 3.34881 0.5
823 5.12354 0.456751 7.95755 0.25
824 0.61308 0.51625 4.98185 0.25
825 3.77716 5.99346 7.66225 0.25
826 3.15577 3.43222 1.70148 0.5
827 5.8868 7.20452 6.55558 0.25
828 0.329446 2.0153 7.5246 0.25
829 8.13515 8.05112 4.67703 0.25
830 0.787617 2.01056 2.66227 0.25
831 2.41155 4.17429 7.86762 0.25
832 5.67983 4.59647 1.93441 0.25
833 1.88068 1.29492 6.17933 0.25
834 4.13685 0.533253 2.50231 0.25
835 6.45697 1.86782 0.739225 0.25
836 3.41822 7.61208 7.85592 0.25
837 3.90842 5.21339 7.87852 0.25
838 7.61992 0.79672 1.11042 0.25
839 6.17639 7.61335 6.50372 0.25
840 7.10213 4.6737 7.43079 0.5
841 3.25491 6.996 2.21038 0.25
842 0.014513 2.02746 2.66644 0.5
843 5.78523 3.73315 5.30388 0.25
844 4.80507 2.39646 0.0990009 0.25
845 7.37858 2.67279 5.24086 0.25
846 3.78652 3.5788 7.38115 0.5
847 1.97636 5.28753 0.948208 0.25
848 1.8419 5.90205 5.26981 0.25
849 5.10966 7.75847 2.71243 0.25
850 6.26986 2.75168 5.42737 0.5
851 5.37891 8.16286 5.00118 0.25
852 6.98071 1.47483 7.78335 0.25
853 3.95465 8.00252 5.01685 0.25
854 4.43138 1.54287 5.94051 0.5
855 0.337274 4.07172 5.36627 0.25
856 0.685443 5.42487 3.2484 0.25
857 3.73835 6.66888 1.63857 0.25
858 2.65606 4.77467 3.81516 0.25
859 6.38154 4.5503 3.91052 0.25
860 7.67915 4.13699 0.916055 0.25
861 4.85786 2.89324 8.22423 0.25
862 6.47318 4.69113 3.42347 0.25
863 5.31536 6.451 0.518023 0.25
864 7.55586 6.9114 2.44491 0.25
865 3.78219 5.67311 8.06958 0.25
866 5.00714 8.11594 3.11721 0.25
867 2.02997 3.97747 7.62389 0.25
868 2.16526 1.70348 0.511111 0.5
869 1.0195 3.30535 7.2964 0.25
870 6.10225 5.45238 3.12528 0.25
871 2.88631 7.47653 7.01438 0.25
872 5.76937 2.96873 4.90475 0.25
873 0.435618 7.9962 8.12213 0.25
874 4.00813 1.08849 6.38988 0.25
875 2.05977 4.18086 1.34109 0.5
876 1.44535 5.62734 5.43107 0.25
877 0.127226 5.23824 7.93717 0.25
878 5.75264 1.13038 2.0835 0.25
879 3.16586 8.15311 4.85127 0.25
880 6.3325 5.92158 2.96533 0.25
881 7.31217 1.22499 1.22912 0.25
882 7.94731 7.11654 6.95806 0.25
883 0.457574 3.78645 2.46903 0.25
884 7.12206 3.34823 0.766391 0.25
885 0.79992 4.25428 5.17251 0.25
886 7.83494 7.51745 3.22927 0.25
887 1.16813 6.87506 1.40778 0.25
888 1.0383 4.75477 3.66486 0.25
889 1.43722 8.18592 2.81881 0.25
890 0.428232 4.29065 2.4764 0.25
891 1.08807 2.4323 7.58826 0.25
892 7.50869 3.63799 0.969557 0.25
893 1.02931 8.0747 0.630026 0.25
894 3.97613 5.79701 1.57109 0.25
895 3.93429 5.87079 1.0835 0.25
896 1.8677 1.355 8.22942 0.25
897 8.04635 4.15956 1.65966 0.25
898 0.538946 4.70654 3.92345 0.25
899 0.774283 8.37503 5.72137 0.25
900 5.27639 6.26735 5.75889 0.25
901 0.878299 1.54422 2.81175 0.25
902 7.34772 4.03145 1.2792 0.25
903 5.79232 3.54699 3.22449 0.25
904 6.91209 4.09714 7.82632 0.25
905 5.3973 0.93294 5.58076 0.25