ITEM: TIMESTEP
870000
ITEM: NUMBER OF ATOMS
1000
ITEM: BOX BOUNDS xy xz yz pp pp pp
0.0000000000000000e+00 8.3788359999999997e+00 0.0000000000000000e+00
0.0000000000000000e+00 8.3788359999999997e+00 0.0000000000000000e+00
0.0000000000000000e+00 8.3788359999999997e+00 0.0000000000000000e+00
ITEM: ATOMS id x y z radius
1 2.52449 6.97047 4.97439 0.25
2 4.9015 5.09187 5.20652 0.25
3 6.92278 4.60902 3.26579 0.25
4 7.34709 1.03386 5.80343 0.5
5 1.14173 5.86237 6.42088 0.25
6 8.27599 1.74076 3.40311 0.25
7 4.3195 3.25767 6.61276 0.25
8 4.83069 7.77493 3.0739 0.25
9 0.781831 6.17443 3.80673 0.25
10 4.05644 1.56968 3.39792 0.25
11 5.30949 8.37534 7.8536 0.25
12 5.08384 3.52054 1.35275 0.25
13 0.702185 2.45765 7.44546 0.25
14 3.93785 2.78097 7.22104 0.25
15 8.1314 3.09823 5.945 0.25
16 7.51735 0.973503 6.55383 0.25
17 0.94208 5.37805 -0.0366184 0.25
18 6.15327 7.47276 8.08627 0.25
19 4.45689 1.84805 7.65037 0.25
20 7.57817 1.39468 0.592057 0.25
21 4.79469 4.24487 1.79936 0.25
22 4.24221 3.24844 1.14204 0.25
23 2.16458 3.41746 2.15468 0.25
24 2.86701 1.97805 4.6685 0.25
25 2.85327 4.53324 2.98097 0.25
26 0.38498 0.0982455 5.67335 0.25
27 3.85759 0.560535 6.05506 0.25
28 4.33234 2.07354 0.0884095 0.25
29 5.06624 6.9321 3.06481 0.25
30 7.54252 7.32676 2.37126 0.25
31 2.80804 0.396273 8.04384 0.25
32 1.04614 2.77689 7.33075 0.25
33 7.67859 0.209472 5.08743 0.25
34 2.01983 5.60298 1.65179 0.25
35 7.89407 0.137049 4.57546 0.25
36 6.79899 1.98496 5.79244 0.5
37 4.12662 1.37449 2.17733 0.25
38 2.10398 3.41966 4.17508 0.25
39 5.99037 2.59046 4.72447 0.25
40 5.26235 7.71591 3.30146 0.25
41 6.58063 2.09584 2.93032 0.25
42 5.62043 6.11942 5.68118 0.25
43 3.43891 7.95364 4.68154 0.25
44 3.85313 7.98459 5.33958 0.25
45 5.45218 3.94962 3.92315 0.25
46 3.20653 6.03322 1.46083 0.5
47 4.65547 0.698255 5.19094 0.25
48 8.1843 6.26093 6.97633 0.25
49 7.61629 6.67792 4.69978 0.25
50 7.68371 1.33403 1.05847 0.25
51 2.55456 3.44876 4.3439 0.25
52 0.692516 1.57662 2.33479 0.25
53 6.70515 4.94243 6.65242 0.25
54 5.77159 3.1893 3.90479 0.25
55 1.63063 1.13743 5.98083 0.25
56 1.16988 7.43313 0.377047 0.25
57 4.74751 0.716858 2.03871 0.25
58 2.2757 2.1336 4.08399 0.25
59 5.0031 1.07654 6.01227 0.25
60 7.69706 5.42619 5.23729 0.25
61 5.05821 7.96435 8.03207 0.25
62 5.4327 1.90559 8.23786 0.5
63 7.46987 6.49882 1.16554 0.25
64 1.11337 6.16522 0.808275 0.25
65 4.32643 0.0471099 1.85092 0.25
66 2.05975 4.73901 7.12273 0.25
67 8.16756 4.98645 7.60774 0.25
68 7.23203 0.551025 6.3789 0.25
69 0.377739 5.5839 7.77005 0.25
70 1.66716 4.84254 1.07754 0.25
71 8.00578 1.36685 0.29215 0.25
72 6.34067 6.2256 3.55981 0.25
73 0.638876 7.63279 6.85933 0.25
74 7.5473 5.59071 6.75139 0.25
75 7.41576 0.0979037 3.28643 0.25
76 7.37711 6.5816 4.20982 0.25
77 5.47511 2.76606 5.28592 0.25
78 5.30502 3.87451 1.11824 0.25
79 7.77289 5.11393 4.34149 0.25
80 5.64738 3.27259 5.31957 0.25
81 7.22903 1.61738 0.953739 0.25
82 8.25283 2.70085 6.35523 0.25
83 4.50409 5.78141 5.65467 0.25
84 1.13886 1.18298 5.9449 0.25
85 1.43442 1.16305 5.17812 0.25
86 4.67857 8.10853 5.53859 0.25
87 1.97302 2.32107 0.565279 0.25
88 3.12316 6.83127 1.60571 0.25
89 6.95298 7.28587 0.73288 0.25
90 5.50004 6.52683 5.45948 0.25
91 4.02901 4.17468 6.29485 0.25
92 6.23338 4.61714 7.2861 0.25
93 4.98514 6.59356 5.36379 0.25
94 6.77222 0.124153 3.82846 0.25
95 0.350268 4.53272 7.90123 0.5
96 5.37984 3.05941 3.25043 0.5
97 4.38818 5.01987 8.14628 0.25
98 8.40977 2.16948 3.37921 0.25
99 1.57259 6.39942 6.07229 0.25
100 7.01174 6.80082 1.05279 0.25
101 0.669678 7.84149 8.28897 0.25
102 7.77185 4.66859 3.55324 0.25
103 6.73087 1.16997 1.44706 0.25
104 1.01711 4.76087 7.66404 0.25
105 5.14525 5.82142 5.19858 0.5
106 5.25313 0.26192 4.53538 0.25
107 4.27408 3.20108 7.12866 0.25
108 4.77879 1.35727 8.29105 0.25
109 0.713852 0.918606 5.76963 0.25
110 2.16656 7.97715 8.17754 0.25
111 3.1504 3.72763 7.01825 0.25
112 4.63952 2.09371 8.08958 0.25
113 1.61408 1.96591 1.74575 0.5
114 1.7516 3.93512 7.11057 0.25
115 4.70439 6.27753 6.30596 0.25
116 2.52606 7.08113 6.99292 0.25
117 4.12205 2.24768 3.60224 0.5
118 6.75943 7.17663 1.17343 0.25
119 1.1419 6.54206 3.70455 0.25
120 0.0424979 2.82274 2.98476 0.25
121 3.22336 4.13269 3.63327 0.25
122 6.79219 0.776575 6.26156 0.25
123 5.03419 0.517039 5.36125 0.25
124 8.12375 7.95382 2.31351 0.25
125 3.44069 2.0879 3.9173 0.25
126 3.78862 1.36404 5.95087 0.25
127 5.18953 3.9588 1.60394 0.25
128 6.75883 5.36569 6.94557 0.25
129 0.969714 6.53916 4.16649 0.25
130 5.57724 6.29376 0.179925 0.25
131 7.07952 1.5682 6.28419 0.25
132 5.99208 4.18377 7.47949 0.25
133 3.09796 1.83486 3.66477 0.25
134 4.43242 2.51657 8.2654 0.25
135 5.39629 3.7929 3.45056 0.25
136 2.93261 2.57141 3.76085 0.5
137 3.03178 4.11257 3.1392 0.25
138 7.61386 7.97591 2.80106 0.5
139 2.5626 7.66404 5.24735 0.25
140 5.24889 7.52202 7.92045 0.25
141 7.73944 5.81967 4.845 0.25
142 1.02201 5.13878 3.38822 0.25
143 2.27951 2.04921 8.30387 0.25
144 5.07642 1.17383 2.62692 0.5
145 7.4731 1.91765 3.86765 0.25
146 6.14786 7.34916 0.211819 0.25
147 6.49288 5.65656 4.53162 0.25
148 2.27744 3.10107 4.53983 0.25
149 4.54881 8.21968 2.56379 0.5
150 4.8767 2.86744 3.84727 0.25
151 3.398 5.79146 7.27797 0.25
152 3.72783 4.66485 5.69959 0.25
153 6.69091 6.01814 2.32366 0.5
154 7.26837 2.34333 4.47198 0.5
155 2.98594 7.18749 7.79032 0.25
156 7.55561 3.52419 1.44728 0.25
157 7.60693 5.85099 1.68527 0.25
158 2.54564 3.78594 0.888255 0.25
159 7.0981 7.78953 4.27271 0.25
160 6.49378 1.64709 3.10189 0.25
161 0.905958 5.23908 2.93638 0.25
162 6.01931 4.28079 6.96631 0.25
163 3.28077 3.79649 4.33143 0.5
164 2.63934 3.90628 2.47801 0.5
165 5.46632 7.93786 7.70226 0.25
166 0.23655 3.73286 8.12897 0.25
167 6.47403 4.30758 8.15433 0.25
168 4.83334 6.04137 5.89932 0.25
169 4.10115 4.37664 5.80086 0.25
170 0.161663 3.06448 6.19998 0.25
171 7.73205 5.70255 1.22181 0.25
172 1.18577 3.09424 6.91427 0.25
173 4.41404 6.26052 5.94147 0.25
174 2.2829 2.20889 0.950106 0.25
175 7.61742 2.48871 5.88296 0.5
176 2.38848 5.75758 6.08609 0.25
177 5.32674 3.48009 3.86484 0.25
178 2.95938 6.53943 1.95892 0.25
179 3.43763 2.13341 3.40772 0.25
180 5.94546 6.46995 5.75266 0.25
181 6.81348 4.16241 6.87415 0.25
182 3.20668 5.37335 3.45118 0.25
183 8.07131 7.47587 1.66137 0.25
184 3.90345 5.18292 8.29031 0.25
185 5.87821 6.86873 6.05419 0.25
186 7.62554 5.65856 4.39421 0.25
187 2.82875 5.32408 4.21767 0.25
188 0.753495 5.95226 3.34385 0.25
189 4.02482 6.71836 3.45317 0.25
190 3.90697 3.55839 1.31069 0.25
191 6.93242 1.54535 0.247175 0.5
192 1.00138 5.03057 8.05817 0.25
193 3.72711 5.47084 1.48746 0.25
194 2.52992 6.31729 1.77275 0.25
195 6.10231 5.68869 2.75046 0.25
196 2.21846 7.94968 2.69578 0.25
197 1.34677 0.0770851 2.42812 0.25
198 7.74728 4.90586 7.38567 0.25
199 1.20864 1.3947 3.12197 0.25
200 4.47966 5.42295 1.34707 0.5
201 6.76713 1.27666 2.97287 0.25
202 8.32978 3.80202 5.43265 0.25
203 3.62255 1.73545 3.60243 0.25
204 5.68076 7.96244 0.0536658 0.5
205 2.43913 7.48932 4.47984 0.5
206 0.303247 4.50466 5.22826 0.25
207 5.69238 2.6688 3.91692 0.25
208 6.80732 5.29474 4.39124 0.25
209 5.51578 7.01451 8.34369 0.5
210 1.84838 8.09209 3.04044 0.25
211 0.681399 3.7196 5.01684 0.25
212 1.40266 8.10944 8.30749 0.5
213 0.213017 4.01523 2.91525 0.25
214 1.7525 8.09936 2.52931 0.25
215 2.80208 4.24422 3.95262 0.25
216 6.20316 1.8262 2.75091 0.25
217 4.83149 3.71485 1.7781 0.25
218 2.42506 3.4729 4.84495 0.25
219 4.34727 0.9811 2.77226 0.25
220 3.53763 3.54477 0.950856 0.25
221 4.21172 8.1867 5.64789 0.25
222 7.38883 0.598707 5.11845 0.25
223 8.11406 2.65884 2.62222 0.25
224 7.24682 5.4903 7.11425 0.25
225 7.31459 2.23001 5.22853 0.25
226 4.92509 2.09067 7.7051 0.25
227 6.60156 3.7504 7.04217 0.25
228 5.36132 2.99655 4.05034 0.25
229 5.54331 5.17546 1.92916 0.25
230 0.428704 8.22294 6.38598 0.5
231 5.23928 4.69401 1.35746 0.5
232 1.93828 2.95628 4.28813 0.25
233 3.81346 5.30072 4.47951 0.25
234 6.64601 1.54901 6.46464 0.25
235 3.19612 7.46585 4.67332 0.25
236 0.901193 2.44623 8.12833 0.25
237 8.3757 2.8967 7.43087 0.25
238 3.24524 0.681479 1.50442 0.25
239 0.370926 2.37362 3.73068 0.25
240 6.65026 6.22634 1.55683 0.25
241 3.36533 7.00608 8.01692 0.25
242 1.68484 7.40495 2.77164 0.5
243 2.97267 4.88749 3.37178 0.25
244 7.13507 3.51349 1.27209 0.25
245 2.13072 1.1824 6.01515 0.25
246 7.72743 8.23748 3.61051 0.25
247 3.58127 2.61926 3.34278 0.25
248 3.7151 3.13272 1.12186 0.25
249 0.203703 5.14657 7.47812 0.25
250 1.39136 3.86707 5.35637 0.25
251 5.20282 2.54614 4.5537 0.5
252 3.23245 2.20459 4.38507 0.25
253 8.03268 5.64377 7.29856 0.5
254 7.42929 5.98731 7.10921 0.25
255 4.66449 0.408538 5.93416 0.5
256 5.27494 6.56146 0.505932 0.25
257 1.15398 0.2076 2.8656 0.25
258 1.62481 1.83896 2.47405 0.25
259 4.40858 3.44775 1.58949 0.25
260 7.83207 6.17286 1.34788 0.25
261 4.08558 8.14873 1.52759 0.25
262 3.52198 2.51411 4.11562 0.25
263 2.2173 0.238529 0.160744 0.5
264 2.84871 4.40514 3.47534 0.25
265 1.11578 4.00909 7.54481 0.5
266 0.945101 7.68047 7.57653 0.5
267 5.23793 2.44262 7.70582 0.25
268 6.39826 7.74381 0.0259961 0.25
269 1.41088 5.3094 1.05032 0.25
270 4.01651 3.48595 0.779011 0.25
271 7.46441 7.81561 4.69382 0.25
272 1.79385 1.09535 2.57661 0.25
273 1.42807 3.52103 7.06019 0.25
274 0.86689 5.53617 7.93901 0.25
275 4.51483 4.62104 1.6011 0.25
276 2.66621 3.28506 1.03184 0.25
277 6.63755 1.08066 6.61242 0.25
278 3.81827 6.29031 1.17705 0.25
279 3.94944 0.386107 5.34958 0.5
280 7.7543 8.19929 4.93659 0.25
281 0.94983 6.59836 0.567491 0.25
282 6.29621 7.07162 6.27681 0.25
283 1.02498 0.236475 6.23348 0.25
284 7.28477 4.43017 1.13416 0.25
285 1.82456 6.04017 1.05729 0.5
286 5.43122 6.7005 3.33768 0.25
287 1.40516 7.72035 3.56266 0.5
288 2.88177 7.29518 5.03061 0.25
289 2.21611 7.29296 5.16855 0.25
290 2.042 3.84037 1.97086 0.25
291 8.27386 7.59442 7.17321 0.25
292 7.72559 2.4629 3.2966 0.25
293 7.36224 4.37628 3.43292 0.25
294 5.39849 3.8177 2.98235 0.25
295 8.08528 4.30437 1.21942 0.25
296 0.47397 4.14693 4.4674 0.5
297 3.90842 3.07939 6.8495 0.25
298 6.38388 5.02241 7.05552 0.25
299 5.9363 5.04766 7.32609 0.25
300 6.30426 3.45429 0.732047 0.25
301 1.03117 7.47704 8.31132 0.25
302 0.105779 4.31149 1.63135 0.25
303 4.05199 0.498187 1.0031 0.25
304 2.09144 2.70232 4.74294 0.25
305 0.76676 4.87329 0.0292181 0.25
306 2.37726 2.19078 4.61993 0.25
307 1.75908 4.7971 7.82308 0.5
308 3.43996 5.02288 3.23979 0.25
309 4.42494 0.957037 5.47583 0.25
310 0.577984 4.82146 4.01628 0.25
311 7.32819 0.123209 3.80437 0.25
312 1.07967 0.876664 2.55534 0.5
313 0.883464 3.85509 5.44297 0.25
314 5.09356 3.53487 2.64962 0.25
315 1.13319 4.58495 8.12272 0.25
316 1.69245 4.42471 7.20455 0.25
317 7.553 2.36228 3.76171 0.25
318 2.33387 2.6077 4.32151 0.25
319 4.82331 7.27423 8.0503 0.25
320 2.03312 6.1635 6.0865 0.25
321 4.48067 0.690723 1.22004 0.25
322 7.52583 6.27849 5.0034 0.25
323 0.722585 6.13297 4.32219 0.25
324 4.07421 7.16018 7.83875 0.5
325 0.418721 2.10149 0.349782 0.25
326 4.1753 4.79928 5.11449 0.5
327 7.60275 7.3904 3.3321 0.25
328 2.15316 7.79495 1.8604 0.25
329 1.16708 6.09924 3.54776 0.25
330 8.32806 7.06923 7.38209 0.25
331 0.886372 5.49703 3.95674 0.5
332 7.29437 6.52956 2.17584 0.25
333 1.08751 1.44077 1.98093 0.25
334 6.79867 1.8212 0.918154 0.25
335 3.21074 3.12983 0.951368 0.25
336 2.97735 6.91904 6.88426 0.25
337 4.31197 7.25609 2.96914 0.5
338 6.51106 7.25763 8.35061 0.25
339 1.96052 7.95451 4.01146 0.25
340 4.86825 0.370607 4.90139 0.25
341 7.00219 -0.0199649 3.01551 0.25
342 1.18394 5.28404 7.63474 0.25
343 2.87973 1.23767 0.284048 0.25
344 1.1753 5.57797 2.72835 0.25
345 0.491811 1.36051 2.74818 0.25
346 0.540892 2.31339 7.86566 0.25
347 3.365 5.74361 7.83466 0.25
348 7.34343 7.78684 2.05021 0.25
349 0.725404 2.02981 8.24552 0.25
350 6.69184 1.68404 2.6143 0.25
351 1.31111 6.94525 0.569777 0.25
352 6.39729 3.68683 7.8295 0.5
353 2.43435 0.0335791 7.44108 0.25
354 1.93615 0.729653 5.89011 0.25
355 0.640368 0.4175 6.00781 0.25
356 1.85886 1.94151 6.18495 0.25
357 2.86236 3.90825 6.6131 0.25
358 6.05179 3.33852 5.11828 0.25
359 4.5495 1.09174 6.28002 0.25
360 1.87065 2.0484 1.02555 0.25
361 0.909236 7.79881 0.369915 0.25
362 6.38055 4.03922 6.71036 0.25
363 7.95021 3.96921 2.1545 0.25
364 6.12144 3.8298 7.12904 0.25
365 5.55936 6.166 0.625545 0.25
366 5.90917 6.27837 0.906165 0.25
367 2.96563 4.2329 7.05884 0.25
368 6.92631 4.09002 8.29538 0.25
369 0.938147 7.05239 0.185669 0.25
370 5.51126 0.361258 8.15793 0.25
371 2.68304 8.07282 4.92229 0.25
372 2.04608 4.73074 0.807027 0.25
373 6.88623 2.81747 5.00913 0.25
374 3.72429 4.51202 4.48421 0.25
375 5.30333 0.814195 7.95173 0.25
376 2.57551 5.82782 1.05034 0.25
377 6.38729 1.57119 1.99345 0.5
378 0.393976 3.76621 7.6554 0.25
379 5.07726 1.29182 7.85319 0.25
380 2.28637 6.68561 4.63012 0.25
381 4.18439 5.36926 5.60572 0.25
382 1.99651 7.00987 4.83489 0.25
383 6.1532 5.22961 3.96508 0.5
384 2.21676 1.72518 1.24453 0.25
385 7.1456 1.49219 7.04534 0.5
386 1.39922 1.3733 5.60449 0.25
387 7.72009 0.937391 0.751697 0.25
388 0.748882 5.68837 2.85591 0.25
389 4.56998 2.69532 7.5917 0.5
390 4.16997 0.786288 6.39005 0.25
391 5.25804 4.89584 2.12998 0.25
392 8.18266 2.47495 3.10952 0.25
393 2.67615 6.67222 1.48011 0.25
394 0.697686 8.25991 8.13477 0.25
395 2.6052 1.9425 1.12278 0.25
396 4.63738 7.76391 8.09181 0.25
397 5.11473 0.609203 8.34623 0.25
398 7.40023 1.45116 8.019 0.25
399 3.29833 4.53165 3.28274 0.25
400 4.81326 4.54272 0.75161 0.25
401 2.32262 7.08855 3.78616 0.25
402 8.23567 7.95925 6.86725 0.25
403 7.71174 6.1094 0.885539 0.25
404 8.12791 6.7679 7.05127 0.25
405 0.430876 7.83303 0.429171 0.25
406 5.54815 8.26243 4.42355 0.25
407 2.52026 1.02988 8.0386 0.5
408 5.51842 3.37613 2.23814 0.25
409 2.11514 4.95834 1.23325 0.25
410 7.47836 0.864724 0.0895146 0.5
411 4.53614 5.42756 5.28238 0.25
412 0.0241602 7.16097 6.89969 0.25
413 0.83803 2.29801 0.226652 0.25
414 0.576754 3.07962 7.86701 0.5
415 6.44673 4.64807 3.06034 0.25
416 3.12988 2.92884 6.60318 0.25
417 3.33634 4.81784 3.97345 0.5
418 7.19759 6.91916 4.53518 0.25
419 4.03057 3.86147 5.98388 0.25
420 0.858553 3.17741 4.90092 0.25
421 4.15159 4.884 5.83734 0.25
422 2.29134 5.42922 1.24272 0.25
423 0.298266 0.675654 5.70911 0.25
424 0.467205 3.43321 4.74643 0.25
425 1.9353 2.80511 1.1931 0.5
426 7.04105 5.73833 5.00073 0.5
427 2.72173 2.21862 4.2891 0.25
428 3.99284 5.28726 3.98104 0.25
429 4.54419 4.55468 5.74688 0.25
430 1.95892 7.16204 3.47151 0.25
431 0.941688 3.5378 6.89465 0.25
432 1.70185 6.83074 4.1512 0.5
433 2.33249 1.53757 7.57341 0.25
434 0.776973 6.44688 1.04704 0.25
435 5.60438 3.44779 2.7124 0.25
436 1.11974 6.06181 3.01821 0.25
437 0.122875 1.28905 0.445739 0.25
438 1.06945 3.5208 5.17249 0.25
439 3.88782 2.56656 6.74463 0.25
440 4.8294 1.56932 7.46198 0.25
441 7.90677 4.13514 5.35194 0.25
442 2.43556 5.84615 1.52299 0.25
443 0.475749 2.93289 6.87892 0.5
444 2.07858 3.45779 1.61226 0.25
445 5.48727 7.02081 0.738531 0.25
446 4.20906 5.89041 3.50529 0.5
447 1.44328 1.59856 6.07926 0.25
448 5.96068 7.29136 5.94115 0.25
449 0.962783 5.63824 5.96621 0.25
450 3.02628 3.63313 0.910031 0.25
451 2.58811 7.16694 5.43361 0.25
452 2.49049 0.90138 0.387912 0.25
453 4.52851 4.71011 1.14671 0.25
454 0.130826 3.39072 7.39993 0.25
455 7.67154 5.0727 7.81665 0.25
456 3.01216 1.84677 4.1408 0.25
457 2.46888 3.70522 7.21497 0.5
458 0.125178 7.60545 6.71905 0.25
459 5.04778 7.56548 8.36855 0.25
460 5.61936 0.0750115 4.83978 0.25
461 2.6319 3.67276 1.35189 0.25
462 6.21763 4.98136 3.29192 0.25
463 5.08515 7.37861 2.95045 0.25
464 7.66649 6.81101 6.93334 0.25
465 7.02353 2.62489 5.47778 0.25
466 3.99879 1.28542 2.9867 0.25
467 3.89574 6.34148 1.70484 0.25
468 6.76333 5.33545 3.08618 0.5
469 7.60423 7.28058 6.7304 0.25
470 0.396585 1.69562 0.570755 0.25
471 1.91268 0.954165 6.37163 0.25
472 1.84502 7.42191 1.98656 0.25
473 7.36412 5.13011 5.00811 0.25
474 5.29371 5.8266 5.9435 0.25
475 1.48164 1.41967 2.6939 0.25
476 7.13553 0.810487 7.28631 0.25
477 3.16799 5.54063 3.96078 0.25
478 6.31843 3.36212 7.15627 0.25
479 3.38617 7.16739 7.54501 0.25
480 4.84746 0.218066 2.01436 0.25
481 7.89078 2.15602 4.08474 0.25
482 6.97726 4.95931 4.6744 0.25
483 8.13252 5.55491 5.03838 0.25
484 2.8992 0.712232 0.245072 0.25
485 8.05405 7.50429 6.69348 0.25
486 2.50485 6.21422 5.91964 0.25
487 8.24863 7.79673 4.35179 0.25
488 4.45703 4.10984 6.04049 0.25
489 0.699362 8.20655 0.269319 0.25
490 8.11927 7.93597 1.82844 0.25
491 4.43961 2.98429 1.50822 0.25
492 2.54724 1.75117 4.33201 0.25
493 6.41827 4.53244 6.81833 0.25
494 4.8696 7.57286 2.56965 0.25
495 1.20193 6.07854 6.00099 0.25
496 3.0492 7.77103 5.01975 0.25
497 6.37637 4.41979 7.69612 0.25
498 3.39097 3.01955 4.20587 0.25
499 0.741993 5.21397 7.68101 0.25
500 4.09806 2.89132 6.40613 0.25
501 5.78824 3.6104 3.69392 0.25
502 1.70631 7.97477 7.61636 0.25
503 5.81938 5.00162 2.66005 0.5
504 7.79548 7.63555 2.0525 0.25
505 5.8806 1.47237 2.59478 0.25
506 7.16933 6.43283 4.66792 0.25
507 1.38389 0.570255 3.18799 0.25
508 0.697311 0.0583845 5.28567 0.25
509 8.08258 4.79736 5.03889 0.5
510 5.29953 1.30662 5.6518 0.25
511 0.667161 0.440623 5.54518 0.25
512 1.11347 0.973468 3.32428 0.25
513 3.96491 1.1302 5.49861 0.25
514 1.90228 5.67376 6.10916 0.25
515 0.736493 8.12671 7.03958 0.25
516 7.48524 1.73831 5.95974 0.25
517 7.29075 5.30952 4.49532 0.25
518 0.923543 3.58512 4.64701 0.25
519 6.60148 2.00852 1.42717 0.25
520 7.10876 2.44665 6.35886 0.25
521 7.67866 1.63147 0.0946832 0.25
522 6.80791 1.02426 7.57517 0.25
523 5.22586 6.82802 5.73979 0.25
524 2.72869 0.446417 7.52778 0.25
525 6.46718 4.18938 7.22875 0.25
526 7.19519 5.15093 6.74196 0.25
527 7.52262 8.016 4.04944 0.25
528 7.51103 1.44878 6.39021 0.25
529 6.67691 1.17125 2.49159 0.25
530 2.16822 1.82334 6.50266 0.25
531 8.00345 7.97533 3.95095 0.25
532 1.55443 0.977301 3.04704 0.25
533 7.26916 1.14068 7.68469 0.25
534 8.10488 5.80043 1.55494 0.25
535 0.450874 3.23638 5.53394 0.5
536 6.91372 2.74053 5.97318 0.25
537 4.11336 0.962045 5.93203 0.25
538 6.49158 5.19086 4.72622 0.25
539 2.29443 1.32436 6.47286 0.25
540 8.03874 6.36638 2.07039 0.5
541 7.60074 3.92217 1.77213 0.25
542 2.09684 1.93418 7.85838 0.25
543 3.35058 7.23568 7.07037 0.25
544 7.92387 6.48887 6.64902 0.25
545 1.23744 6.17276 4.08496 0.25
546 4.93679 5.81707 6.37936 0.25
547 5.28348 2.7576 8.04705 0.25
548 6.18361 7.20509 6.70842 0.25
549 0.30449 7.84978 7.10659 0.25
550 6.21513 6.93703 8.29635 0.25
551 4.34273 1.41239 2.60943 0.25
552 3.65796 5.53982 4.05561 0.25
553 7.02409 7.8747 3.5367 0.5
554 4.31609 6.51451 3.04595 0.25
555 4.73152 6.64989 3.62798 0.5
556 7.27284 0.604987 0.796396 0.25
557 7.13812 4.88773 3.91761 0.5
558 6.54675 -0.0222846 3.38002 0.25
559 1.31968 0.55563 5.59604 0.5
560 5.00334 3.41321 2.18804 0.25
561 2.92191 3.22994 4.10344 0.25
562 5.1056 8.37506 5.46482 0.25
563 2.18506 6.60029 1.50902 0.25
564 6.28886 6.88499 0.691232 0.5
565 6.86227 1.98975 6.48674 0.25
566 1.19962 1.63589 2.39961 0.25
567 4.49457 5.82204 6.17771 0.25
568 5.85628 1.05741 2.79241 0.25
569 2.50613 8.26938 7.93208 0.25
570 1.86923 6.50795 4.79822 0.25
571 3.10585 3.98103 7.46319 0.25
572 8.16622 2.80934 3.77901 0.5
573 3.90645 1.59875 2.59775 0.25
574 1.58466 5.98844 6.29393 0.25
575 2.18919 1.62188 8.21023 0.25
576 4.10678 5.59229 7.59671 0.25
577 5.24799 0.191751 5.07555 0.25
578 1.97243 7.42854 3.88426 0.25
579 7.44906 5.31205 7.45884 0.25
580 7.17044 0.14591 4.48574 0.5
581 4.37404 4.60922 6.21212 0.25
582 5.84567 2.9047 4.35428 0.25
583 5.61071 3.54612 4.5294 0.5
584 4.83623 6.56552 5.86196 0.25
585 4.75057 3.22228 1.19652 0.25
586 1.96404 0.345388 2.77906 0.5
587 4.90378 7.05137 2.60353 0.25
588 5.73178 5.19165 3.34363 0.25
589 0.240881 2.49032 7.50501 0.25
590 3.45334 6.55539 1.89917 0.25
591 6.83977 1.30945 0.950041 0.25
592 7.40276 7.09435 1.68329 0.5
593 6.66872 6.71979 1.41124 0.25
594 1.45969 4.96752 0.336173 0.5
595 0.664146 3.81238 8.09011 0.25
596 2.04542 0.7983 0.659627 0.25
597 0.0606376 0.32099 5.04175 0.5
598 2.4479 6.2764 1.28065 0.25
599 2.07497 8.28855 7.80611 0.25
600 7.81109 0.555166 5.35121 0.25
601 0.589793 0.827483 5.25923 0.25
602 3.97009 0.155156 2.23061 0.25
603 4.28957 5.4866 8.04994 0.25
604 7.5792 5.15345 6.99052 0.25
605 7.88933 2.06304 3.57163 0.25
606 2.13008 8.17647 2.20096 0.25
607 4.47039 5.19605 7.7168 0.25
608 3.61236 7.56696 7.36051 0.25
609 6.60153 4.80346 4.3999 0.25
610 1.85939 1.57495 5.79476 0.25
611 3.13436 0.666358 7.73933 0.25
612 0.648635 7.4301 0.221357 0.25
613 6.97249 1.10915 8.06546 0.25
614 4.22069 1.09262 5.10772 0.25
615 4.85271 2.59049 3.42486 0.25
616 1.11875 5.62582 3.2074 0.25
617 1.71675 8.41116 2.12435 0.25
618 7.70579 7.3469 4.16521 0.5
619 7.81299 8.05472 4.4514 0.25
620 8.29559 7.25009 2.37073 0.5
621 3.98207 6.49657 3.87331 0.25
622 6.2167 6.5366 6.17159 0.25
623 6.0013 6.15435 0.430832 0.25
624 1.23651 3.44543 5.57264 0.25
625 1.37569 5.35049 8.07484 0.25
626 3.45899 0.255149 1.51311 0.25
627 4.86325 4.70693 1.98277 0.25
628 8.27899 3.38553 2.49323 0.5
629 6.8392 3.58197 0.0582845 0.25
630 1.4577 0.0713993 3.26687 0.25
631 1.89109 1.49539 7.84258 0.25
632 7.67912 7.84253 1.62713 0.25
633 6.20602 7.65817 0.545066 0.25
634 2.8559 7.93903 4.05738 0.25
635 0.688203 7.22875 0.882091 0.5
636 1.81511 1.56471 1.10208 0.25
637 5.44967 0.332827 5.49552 0.25
638 4.6818 1.19906 5.06865 0.25
639 4.73041 1.81328 0.107323 0.25
640 5.27505 7.46134 0.445348 0.25
641 1.27883 6.77005 5.37096 0.25
642 3.61805 0.926585 5.78017 0.25
643 6.24116 6.87331 5.78975 0.25
644 5.73512 0.722612 2.52659 0.25
645 2.21955 2.18187 1.42357 0.25
646 0.031073 6.67897 6.65034 0.25
647 2.42712 3.04631 4.0952 0.25
648 5.16673 1.15797 8.30615 0.25
649 0.403121 4.20624 2.08976 0.25
650 8.35495 3.91711 1.44816 0.25
651 3.28355 3.24238 3.74977 0.25
652 6.67778 0.894343 7.0803 0.25
653 1.25587 6.60491 0.966035 0.25
654 0.447307 2.4748 -0.0226331 0.25
655 3.56549 3.5588 6.45145 0.5
656 0.56842 3.53292 7.21934 0.25
657 1.43087 5.61731 6.0709 0.25
658 6.95095 0.260497 3.37586 0.25
659 2.57741 1.79102 7.92713 0.25
660 7.01676 5.8984 4.03214 0.5
661 8.26059 1.05846 0.00567195 0.25
662 4.00142 4.89864 4.35592 0.25
663 2.45392 3.67629 1.80966 0.25
664 6.52981 2.60647 4.71017 0.25
665 7.86277 3.92865 1.33201 0.25
666 6.02554 6.77903 6.53222 0.25
667 6.39705 3.52381 0.266398 0.25
668 6.96514 6.49903 1.80319 0.25
669 6.00614 4.76824 6.87715 0.25
670 5.75527 7.99262 4.82826 0.25
671 3.5359 4.95927 4.68404 0.25
672 2.59308 3.23015 2.00192 0.25
673 0.749709 1.18099 3.12087 0.25
674 4.88769 7.34316 3.41841 0.25
675 5.28018 3.65406 5.24109 0.25
676 7.70582 8.12058 2.06304 0.25
677 6.46606 1.53939 1.21793 0.25
678 7.51041 6.15171 4.53938 0.25
679 1.15029 6.20249 1.29467 0.25
680 3.65489 6.61869 8.1375 0.25
681 7.79994 0.0639743 4.04837 0.25
682 2.07828 6.15884 1.72753 0.25
683 1.60595 7.64501 7.25377 0.25
684 0.415726 3.93799 1.6714 0.25
685 2.90289 3.39793 6.62912 0.25
686 4.32018 2.78745 6.8632 0.25
687 1.64562 4.44277 0.812464 0.25
688 3.71189 0.977544 6.27847 0.25
689 5.98744 4.25146 7.93451 0.25
690 6.1889 1.00861 2.44698 0.25
691 6.93094 1.62739 1.39907 0.25
692 5.01246 5.20691 1.81581 0.25
693 7.35436 1.99031 6.35711 0.25
694 7.48683 4.87485 4.60071 0.25
695 0.00543624 2.69379 5.84416 0.25
696 5.68022 5.96255 3.42689 0.5
697 4.28604 3.76775 6.4445 0.25
698 1.81952 1.07894 5.55046 0.25
699 1.52819 6.85479 4.93246 0.25
700 4.22908 5.99459 1.04396 0.25
701 4.82765 1.68244 7.92459 0.25
702 2.2001 4.35023 7.33259 0.25
703 3.30519 6.50964 7.45844 0.5
704 4.77284 5.31553 8.06317 0.25
705 4.88719 3.1952 1.67909 0.25
706 5.1321 0.0836103 8.29662 0.25
707 4.5352 3.98995 1.13425 0.5
708 5.71308 7.54764 7.81862 0.25
709 2.49687 7.11931 2.04559 0.5
710 2.00479 4.2357 6.87327 0.25
711 5.14316 6.39543 3.09309 0.25
712 0.560599 5.24216 8.1156 0.25
713 2.77241 4.05239 1.72301 0.25
714 5.16417 4.19781 0.825866 0.25
715 4.74899 6.60253 2.81852 0.25
716 6.71242 0.561712 7.43917 0.25
717 7.85554 7.7473 3.48708 0.25
718 6.25902 3.53287 6.70536 0.25
719 5.92676 4.65636 7.69127 0.25
720 1.71123 7.58111 4.2629 0.25
721 6.80976 2.16 2.52997 0.25
722 2.40348 7.78902 3.41342 0.5
723 2.46561 7.56104 2.6388 0.25
724 7.06694 6.3994 1.33021 0.25
725 7.77384 6.38134 7.09159 0.25
726 0.951797 1.21603 5.4439 0.25
727 4.24602 0.23125 1.3983 0.25
728 3.61819 6.09591 8.02648 0.25
729 4.94942 5.96352 3.36777 0.25
730 2.93819 7.09264 7.32021 0.25
731 5.23445 3.11698 2.51677 0.25
732 4.12463 3.57441 6.89442 0.25
733 3.62766 5.45423 7.57611 0.25
734 3.95211 1.07594 2.49735 0.25
735 3.58746 2.83881 6.47234 0.25
736 7.92332 1.3609 8.11842 0.25
737 3.54488 0.530616 1.1086 0.25
738 0.314928 8.28935 0.557137 0.25
739 4.67879 6.1861 3.03576 0.25
740 5.33277 7.1949 3.39037 0.25
741 0.701992 7.99192 0.791876 0.25
742 3.90259 4.62283 6.17448 0.25
743 6.99141 0.844736 1.1014 0.25
744 4.35015 0.964216 2.26739 0.25
745 3.66669 4.21139 5.97057 0.25
746 1.23139 6.16969 4.87016 0.5
747 4.41113 0.417252 2.13197 0.25
748 2.68484 6.63912 7.15074 0.25
749 1.57267 1.36127 2.19054 0.25
750 0.165706 3.5037 1.69533 0.25
751 1.03237 0.910479 5.07 0.25
752 6.30794 4.94972 7.57887 0.25
753 3.94851 0.762634 1.72844 0.5
754 4.33072 6.24024 1.42884 0.25
755 2.78835 2.59971 1.44529 0.5
756 7.79823 6.8255 7.44858 0.25
757 5.69884 6.92702 5.65453 0.25
758 6.92133 3.97588 7.37214 0.25
759 4.32356 8.13394 5.12767 0.25
760 0.329275 2.56073 3.28132 0.25
761 3.76615 7.04195 7.22859 0.25
762 0.689768 1.83386 3.39107 0.5
763 4.09138 8.06075 2.0307 0.25
764 1.43303 6.42695 0.511871 0.25
765 7.40133 4.83169 3.19419 0.25
766 0.730499 4.19568 2.88029 0.25
767 2.6045 6.91218 7.52712 0.25
768 2.3078 3.0135 5.04816 0.25
769 8.01806 3.65315 1.72941 0.25
770 4.81304 0.906733 8.05233 0.25
771 6.70957 1.2296 6.09723 0.25
772 4.97476 2.43369 8.11942 0.25
773 5.38976 0.899883 4.92521 0.5
774 3.43171 8.14098 5.11795 0.25
775 7.95386 4.33622 2.88092 0.5
776 6.96128 3.92373 0.677739 0.5
777 6.02297 6.49702 0.115737 0.25
778 4.87894 8.05911 0.0467138 0.25
779 8.24006 8.30321 4.27842 0.25
780 2.25208 1.65177 6.09001 0.25
781 2.68856 1.62925 -0.018728 0.25
782 1.19502 7.80028 0.729689 0.25
783 6.73691 3.27557 0.522042 0.25
784 2.06163 7.68947 2.33734 0.25
785 2.62685 1.73785 6.43476 0.25
786 2.47802 7.83206 2.27077 0.25
787 7.99844 6.99582 6.61905 0.25
788 0.0643571 4.05084 2.3825 0.25
789 3.52705 0.0680945 4.73157 0.25
790 7.03165 0.79746 6.72995 0.25
791 0.410901 4.74137 3.265 0.5
792 2.36005 0.316529 7.82966 0.25
793 8.17195 6.98325 1.67024 0.25
794 5.40856 6.43547 6.30933 0.5
795 2.53001 4.20353 3.12926 0.25
796 2.12075 5.84848 5.71309 0.25
797 6.66789 6.36451 1.067 0.25
798 7.61789 4.32584 1.47763 0.25
799 4.16437 3.37055 6.12684 0.25
800 7.96159 2.03811 3.12458 0.25
801 3.30798 7.76245 7.01348 0.25
802 3.31858 5.39659 4.42124 0.25
803 3.16124 8.2373 7.63105 0.5
804 3.53777 7.02733 1.75881 0.25
805 1.72683 7.8842 2.06012 0.25
806 2.65182 1.85636 3.87558 0.25
807 4.64819 6.2675 5.50573 0.25
808 4.15764 2.12841 7.98934 0.25
809 1.67298 6.00573 5.84988 0.25
810 6.5851 7.45637 6.47516 0.25
811 1.64922 3.39338 4.82148 0.5
812 5.7816 7.44764 0.553769 0.25
813 4.25254 1.76393 2.94595 0.25
814 1.58628 7.55407 7.74795 0.25
815 2.72207 8.27158 4.44033 0.25
816 1.15713 3.03214 5.26686 0.25
817 4.39286 1.68559 8.15877 0.25
818 3.73062 1.753 3.10986 0.25
819 1.81163 5.29709 1.36867 0.25
820 3.51626 2.89523 6.96782 0.25
821 1.50868 2.01965 8.28004 0.5
822 5.85616 4.37551 3.4416 0.5
823 5.0329 0.417378 7.92844 0.25
824 0.832281 0.461169 5.07567 0.25
825 3.77156 5.94075 7.59937 0.25
826 3.21728 3.43489 1.64272 0.5
827 5.78986 7.19942 6.43882 0.25
828 0.462074 2.01822 7.48398 0.25
829 8.22929 8.09961 4.76534 0.25
830 0.869817 1.97426 2.60643 0.25
831 2.32649 4.28559 7.7846 0.25
832 5.64478 4.6563 1.99156 0.25
833 1.85883 1.46124 6.31912 0.25
834 4.11738 0.595549 2.51811 0.25
835 6.12486 1.85373 1.37311 0.25
836 3.38811 7.50897 7.84957 0.25
837 3.9844 5.12067 7.82637 0.25
838 7.4704 0.836115 1.18379 0.25
839 6.10493 7.54291 6.33418 0.25
840 6.9927 4.77775 7.32528 0.5
841 3.20769 6.94426 2.09856 0.25
842 0.154799 2.05026 2.67993 0.5
843 5.79405 3.72449 5.24757 0.25
844 4.82399 2.32539 0.136577 0.25
845 7.33708 2.66458 5.14754 0.25
846 3.67193 3.46009 7.47532 0.5
847 1.89204 5.25693 0.882608 0.25
848 1.70641 5.95198 5.38929 0.25
849 5.143 7.90912 2.82549 0.25
850 6.26708 2.73144 5.46376 0.5
851 5.57102 8.24261 5.26673 0.25
852 6.93851 1.51781 7.80307 0.25
853 3.86104 8.11985 4.85972 0.25
854 4.52218 1.57622 5.72897 0.5
855 0.378798 3.98193 5.28847 0.25
856 0.676904 5.4842 3.2884 0.25
857 3.58509 6.63588 1.41523 0.25
858 2.64957 4.734 3.79359 0.25
859 6.43502 4.51972 3.91129 0.25
860 7.63083 4.15754 0.962011 0.25
861 4.84697 2.81412 8.32743 0.25
862 6.50301 4.73812 3.50272 0.25
863 5.5607 6.61232 0.938389 0.25
864 7.65171 6.86148 2.42928 0.25
865 3.82616 5.61423 7.98193 0.25
866 4.99044 8.19466 3.19361 0.25
867 1.90005 4.10534 7.57095 0.25
868 2.23228 1.59124 0.552062 0.5
869 0.976721 3.31813 7.27 0.25
870 6.08438 5.44282 3.21423 0.25
871 2.89964 7.42172 6.95813 0.25
872 5.73168 2.96526 4.94877 0.25
873 0.303243 8.12111 0.0322929 0.25
874 4.10856 1.27234 6.30444 0.25
875 2.12778 4.22058 1.36646 0.5
876 1.29117 5.79799 5.60858 0.25
877 0.0712339 5.28597 7.91373 0.25
878 5.7897 1.18 2.27827 0.25
879 3.06895 8.22449 4.80767 0.25
880 6.36096 5.95656 3.08097 0.25
881 7.21206 1.25215 1.28114 0.25
882 7.91099 7.19206 7.10907 0.25
883 0.517055 3.87442 2.55831 0.25
884 7.16406 3.24906 0.808353 0.25
885 0.773937 4.25417 5.18888 0.25
886 8.05029 7.45199 3.11241 0.25
887 1.0051 6.70981 1.36018 0.25
888 0.992955 4.77672 3.73855 0.25
889 1.37372 8.16724 2.86467 0.25
890 0.348714 4.36343 2.576 0.25
891 1.0993 2.47702 7.75481 0.25
892 7.53467 3.61468 0.980522 0.25
893 1.04267 8.21525 0.585547 0.25
894 3.95048 5.95699 1.47358 0.25
895 3.78372 5.77438 1.08307 0.25
896 1.81059 1.29644 8.30674 0.25
897 8.02131 4.19137 1.72863 0.25
898 0.662662 4.37879 3.80946 0.25
899 0.840607 -0.010076 5.786 0.25
900 5.15108 6.29765 5.67099 0.25
901 0.93195 1.48204 2.74264 0.25
902 7.33681 3.944 1.36094 0.25
903 5.79977 3.68563 3.1373 0.25
904 6.82421 4.23098 7.78676 0.25