ITEM: TIMESTEP
110000
ITEM: NUMBER OF ATOMS
1000
ITEM: BOX BOUNDS xy xz yz pp pp pp
0.0000000000000000e+00 8.3788359999999997e+00 0.0000000000000000e+00
0.0000000000000000e+00 8.3788359999999997e+00 0.0000000000000000e+00
0.0000000000000000e+00 8.3788359999999997e+00 0.0000000000000000e+00
ITEM: ATOMS id x y z radius
1 2.89022 7.03316 4.61233 0.25
2 4.52806 5.31061 4.98029 0.25
3 7.16568 4.8024 3.54881 0.25
4 7.39154 0.836281 6.24501 0.5
5 0.978911 5.57377 5.877 0.25
6 8.20239 1.89917 3.16315 0.25
7 4.0805 3.27583 6.58538 0.25
8 4.64507 7.79193 2.9294 0.25
9 1.11109 6.32026 3.42303 0.25
10 4.3331 1.7312 3.20122 0.25
11 5.61212 0.451825 8.28048 0.25
12 4.91013 3.32606 1.80844 0.25
13 8.28592 2.59171 7.32942 0.25
14 3.38039 2.73283 7.1684 0.25
15 8.04953 2.81938 6.38608 0.25
16 7.09969 0.301938 6.65028 0.25
17 0.722537 5.04373 0.0450674 0.25
18 5.68088 7.75819 7.70146 0.25
19 4.21081 2.0404 7.55892 0.25
20 7.49069 1.39898 0.532716 0.25
21 4.91858 4.19584 2.02247 0.25
22 4.12558 3.43669 0.87194 0.25
23 2.30651 3.19067 2.01098 0.25
24 2.86053 1.36434 3.65909 0.25
25 2.14533 4.30172 2.89524 0.25
26 0.453774 0.100281 5.9042 0.25
27 4.15813 1.10432 6.10037 0.25
28 4.36632 2.3428 8.36155 0.25
29 5.07679 6.95244 3.13386 0.25
30 7.00913 7.44092 2.5763 0.25
31 2.93562 0.634867 7.86052 0.25
32 0.894202 2.61712 7.21332 0.25
33 7.88879 0.592328 5.62457 0.25
34 2.03156 4.85691 1.51537 0.25
35 8.25617 0.214092 4.534 0.25
36 7.21696 1.58163 5.63308 0.5
37 4.64056 1.21024 2.15566 0.25
38 2.12642 3.27377 4.25145 0.25
39 6.29705 2.76498 4.90771 0.25
40 5.07153 7.7402 3.23898 0.25
41 6.88456 2.26649 2.51989 0.25
42 5.43016 6.11641 5.39099 0.25
43 3.03564 7.92436 4.48285 0.25
44 3.98062 0.597299 6.15366 0.25
45 5.66243 4.12597 4.33659 0.25
46 3.80428 5.66062 1.32378 0.5
47 4.66238 0.57754 5.11898 0.25
48 8.28435 6.50972 7.00283 0.25
49 7.47084 6.97603 4.85421 0.25
50 7.53445 0.963651 0.747214 0.25
51 2.65432 3.24262 4.43223 0.25
52 0.758851 1.70008 2.59662 0.25
53 6.88267 5.30094 6.65734 0.25
54 5.79697 3.43034 4.35748 0.25
55 1.59226 1.52048 5.78802 0.25
56 0.82429 7.30939 0.300615 0.25
57 4.89142 0.909578 1.93742 0.25
58 2.40736 1.99747 3.9836 0.25
59 5.62966 1.39842 5.41831 0.25
60 0.582427 5.42133 5.18388 0.25
61 5.42315 0.287395 7.85101 0.25
62 5.27928 2.00979 7.8281 0.5
63 7.73952 6.34966 1.51715 0.25
64 1.35521 6.11502 1.02741 0.25
65 4.22937 0.156474 1.69247 0.25
66 1.78738 4.95247 7.31614 0.25
67 7.68533 5.00983 7.52783 0.25
68 6.94161 0.217923 6.16948 0.25
69 0.0927988 5.50303 8.10719 0.25
70 1.83619 4.39671 0.74991 0.25
71 7.82815 1.49617 0.22085 0.25
72 6.41721 6.38323 3.64188 0.25
73 0.852358 7.5758 6.90276 0.25
74 7.4934 5.82865 7.02512 0.25
75 7.2489 0.335137 3.38626 0.25
76 7.59658 6.76799 4.44334 0.25
77 5.82369 2.81133 5.63879 0.25
78 5.27277 3.54937 1.51364 0.25
79 8.10846 5.60296 5.16278 0.25
80 5.96461 3.24745 5.69399 0.25
81 6.80966 1.51405 1.0896 0.25
82 8.05604 2.94578 5.85505 0.25
83 4.30368 5.80321 5.69096 0.25
84 1.26655 1.18577 5.6785 0.25
85 1.80246 1.58512 5.37543 0.25
86 4.33104 0.225165 5.98716 0.25
87 1.8646 1.58119 1.09528 0.25
88 3.69165 6.46527 1.60954 0.25
89 6.67607 7.41179 0.768128 0.25
90 5.24475 6.56778 5.39607 0.25
91 3.99562 4.14332 6.14445 0.25
92 6.24623 4.68612 6.94093 0.25
93 4.70754 6.66307 5.41073 0.25
94 6.83481 7.90008 4.48664 0.25
95 0.37923 4.4309 7.98262 0.5
96 5.41583 3.18736 3.76159 0.5
97 4.30617 4.85728 7.94958 0.25
98 0.303671 2.38711 3.17824 0.25
99 1.51235 6.32669 5.73051 0.25
100 7.12503 7.27061 1.019 0.25
101 0.472506 8.03816 0.317381 0.25
102 7.99075 4.87876 3.65435 0.25
103 6.59256 1.39103 1.49702 0.25
104 0.450166 5.54689 7.77467 0.25
105 4.77249 5.95589 5.0618 0.5
106 4.33892 8.24489 4.70804 0.25
107 3.93667 3.45842 6.96546 0.25
108 4.61673 1.60223 8.14878 0.25
109 0.723477 0.360354 6.24677 0.25
110 2.23465 7.81919 8.33535 0.25
111 2.89398 3.83083 6.85999 0.25
112 4.55988 2.34832 7.88498 0.25
113 2.02836 1.7697 1.84881 0.5
114 1.57042 4.22416 6.89974 0.25
115 4.72954 6.10516 6.37947 0.25
116 2.53283 6.52948 7.19053 0.25
117 4.22837 2.34297 3.70921 0.5
118 6.80625 7.58235 1.20298 0.25
119 0.3567 5.74028 2.13823 0.25
120 0.215961 2.64979 2.01033 0.25
121 3.09435 3.99427 3.56283 0.25
122 6.69238 0.548726 6.45213 0.25
123 5.07536 0.261643 5.21869 0.25
124 7.85825 7.81865 2.48517 0.25
125 3.49505 2.10317 3.63856 0.25
126 4.32174 1.73093 5.62286 0.25
127 5.16753 3.74929 1.90653 0.25
128 7.07821 5.5712 7.01959 0.25
129 0.97828 6.18198 3.91214 0.25
130 5.60678 6.28805 0.599414 0.25
131 6.94775 1.41175 6.27859 0.25
132 5.86754 4.37841 7.15271 0.25
133 3.31891 1.94843 3.20629 0.25
134 4.41275 2.7785 8.03339 0.25
135 5.46307 4.00154 3.83291 0.25
136 2.87088 2.4572 3.62294 0.5
137 2.78396 3.93199 3.17287 0.25
138 7.28278 8.02759 3.01819 0.5
139 2.10601 7.63739 4.5151 0.25
140 5.22409 7.91601 7.61392 0.25
141 0.570295 5.33495 5.68393 0.25
142 0.852775 5.10164 2.93012 0.25
143 1.84599 1.94205 0.000512523 0.25
144 5.21404 1.04679 2.64579 0.5
145 7.57411 2.28508 3.8229 0.25
146 5.94109 7.43361 0.0591971 0.25
147 6.71925 5.94243 4.88621 0.25
148 1.95745 2.84204 4.17523 0.25
149 4.58388 8.28432 2.31599 0.5
150 5.13027 2.88979 4.39001 0.25
151 3.40219 5.74702 7.32476 0.25
152 3.50207 4.72514 5.81232 0.25
153 6.69417 6.15374 2.58723 0.5
154 7.44633 2.45431 4.55948 0.5
155 3.00036 7.55445 7.80911 0.25
156 7.39244 3.91188 1.51319 0.25
157 7.2921 6.07116 1.55037 0.25
158 2.44716 3.63511 0.756801 0.25
159 7.14553 8.3148 4.47477 0.25
160 6.71776 2.14586 3.0006 0.25
161 0.47973 5.11065 2.6119 0.25
162 6.06358 3.91119 7.20454 0.25
163 3.33115 3.64304 4.17919 0.5
164 2.46478 3.70083 2.60561 0.5
165 5.59811 8.25742 7.60187 0.25
166 0.197454 3.64821 8.10964 0.25
167 6.30435 4.3297 0.212938 0.25
168 4.75353 5.95885 5.89605 0.25
169 3.86122 4.37322 5.73135 0.25
170 0.0524991 2.72632 6.0896 0.25
171 7.65794 5.94475 1.26081 0.25
172 1.0809 2.88429 6.79959 0.25
173 4.34806 6.13306 6.06932 0.25
174 2.53928 2.05844 0.827479 0.25
175 7.77804 2.22847 6.10729 0.5
176 2.32462 6.37238 5.89697 0.25
177 5.41518 3.69323 4.29937 0.25
178 3.46016 6.13666 1.84662 0.25
179 3.61282 2.35664 3.26706 0.25
180 5.75196 6.54041 5.4352 0.25
181 6.61745 4.36638 6.97357 0.25
182 3.07666 5.16309 3.33656 0.25
183 7.96579 7.28895 1.74346 0.25
184 4.2991 5.0352 0.0102446 0.25
185 5.83016 6.79053 5.85533 0.25
186 7.67727 6.2988 4.59713 0.25
187 3.31955 5.34751 4.2581 0.25
188 0.403191 5.87888 2.99241 0.25
189 4.1536 6.49517 3.61721 0.25
190 4.00605 3.28739 1.3495 0.25
191 6.74168 1.77016 0.471931 0.5
192 0.669963 5.12886 7.94221 0.25
193 4.50381 5.01367 0.882069 0.25
194 3.09507 5.87811 1.60338 0.25
195 6.18313 5.68648 3.01173 0.25
196 2.17171 7.46967 2.22206 0.25
197 1.08227 0.172783 2.13881 0.25
198 7.32301 4.81655 7.87176 0.25
199 1.12882 0.851214 2.83514 0.25
200 4.85459 4.8382 1.53113 0.5
201 6.77739 1.67154 3.1234 0.25
202 8.32949 3.81455 5.55627 0.25
203 3.81031 1.85093 3.28905 0.25
204 5.60837 8.07896 8.34032 0.5
205 2.39788 7.21615 3.96287 0.5
206 0.510892 4.379 5.37482 0.25
207 5.7008 2.91827 4.39659 0.25
208 7.0028 5.57472 4.64861 0.25
209 5.16212 7.22922 0.169106 0.5
210 1.89174 7.78032 2.48812 0.25
211 0.690137 3.6885 5.10701 0.25
212 1.5763 7.39399 0.0666523 0.5
213 7.90246 3.95762 3.15472 0.25
214 1.88211 7.80584 2.02913 0.25
215 2.82701 4.14071 3.97776 0.25
216 6.42591 2.0795 2.51352 0.25
217 4.78462 3.70744 2.1592 0.25
218 2.23015 2.90776 4.59871 0.25
219 4.48103 1.37297 2.84017 0.25
220 3.67119 3.32107 0.949643 0.25
221 4.42121 0.741636 5.95171 0.25
222 7.47622 0.846724 5.4496 0.25
223 8.25802 2.76533 2.29842 0.25
224 7.25666 5.73212 7.44078 0.25
225 7.04458 2.18745 5.21715 0.25
226 4.67339 2.31383 7.47135 0.25
227 6.52469 3.94428 7.17833 0.25
228 5.45789 3.25937 4.58578 0.25
229 5.93837 4.85466 2.13421 0.25
230 0.502194 8.17265 6.59299 0.5
231 5.59818 4.31032 1.67312 0.5
232 2.18186 2.83426 3.69677 0.25
233 4.06959 4.9897 4.0452 0.25
234 6.4641 0.769119 6.84944 0.25
235 2.93762 7.47115 4.40308 0.25
236 0.605846 2.23891 7.88482 0.25
237 8.31487 3.49438 7.72758 0.25
238 3.63478 0.753327 1.22509 0.25
239 0.487744 2.34709 3.67857 0.25
240 6.66083 6.59595 1.06846 0.25
241 3.2837 7.0685 7.92217 0.25
242 1.55985 7.09496 2.27593 0.5
243 2.78307 4.76205 3.35133 0.25
244 6.93379 3.94284 1.32004 0.25
245 2.2403 1.07804 6.03664 0.25
246 7.55109 0.0986194 3.74882 0.25
247 3.59077 2.64966 3.69364 0.25
248 3.65236 2.96983 1.3158 0.25
249 8.09346 4.8956 7.69649 0.25
250 1.09652 3.02285 5.36687 0.25
251 5.55454 2.56372 4.9804 0.5
252 3.28668 1.96144 4.06883 0.25
253 8.04203 5.65858 7.60778 0.5
254 7.90019 6.21102 7.00734 0.25
255 5.075 0.86946 5.66365 0.5
256 5.9492 6.26376 0.233984 0.25
257 0.77941 0.191693 2.50283 0.25
258 1.71882 1.57719 2.66332 0.25
259 4.11677 2.78193 1.38506 0.25
260 8.12459 5.99471 1.42155 0.25
261 3.77708 0.497375 0.824133 0.25
262 3.4871 2.39965 4.08381 0.25
263 2.40972 0.156754 8.21564 0.5
264 2.71745 4.27289 3.50857 0.25
265 1.19215 3.84728 7.45986 0.5
266 1.46363 8.07227 6.97012 0.5
267 5.14115 3.1375 7.8 0.25
268 6.0793 7.66536 7.93642 0.25
269 1.91773 4.88572 0.718219 0.25
270 3.87474 3.74061 1.19865 0.25
271 7.17577 8.02023 4.85293 0.25
272 1.51137 0.798225 2.52479 0.25
273 1.37153 3.27571 6.93647 0.25
274 0.586279 5.52776 8.28137 0.25
275 5.40019 4.70359 1.09545 0.25
276 2.35436 3.12284 0.864194 0.25
277 6.62487 0.359494 6.92597 0.25
278 4.36102 5.93267 1.75521 0.25
279 3.99206 0.661994 5.4231 0.5
280 8.2464 8.22163 4.88393 0.25
281 1.20404 6.5789 0.861839 0.25
282 6.2512 6.98784 5.90278 0.25
283 1.10768 0.186867 6.47712 0.25
284 7.49009 4.53938 0.79446 0.25
285 2.08029 5.98169 1.22426 0.5
286 5.37879 6.58002 3.13115 0.25
287 1.5167 7.87644 3.13381 0.5
288 2.55349 7.40922 4.6847 0.25
289 2.14576 7.33419 4.97413 0.25
290 2.0437 3.65198 1.99836 0.25
291 8.37009 7.70574 7.39119 0.25
292 7.6452 2.72707 3.52628 0.25
293 7.56116 4.62654 3.74047 0.25
294 5.82095 3.75836 3.53534 0.25
295 8.16375 3.80936 0.908165 0.25
296 0.501699 4.23718 4.7178 0.5
297 3.66955 3.05253 6.81666 0.25
298 6.56872 5.4946 6.94512 0.25
299 5.95493 4.99126 6.67087 0.25
300 6.03455 4.22402 0.606532 0.25
301 0.87706 7.79619 0.270231 0.25
302 0.174676 3.76994 1.2657 0.25
303 4.11155 0.756989 1.09283 0.25
304 2.11933 2.10159 4.40269 0.25
305 1.40875 5.53392 7.9831 0.25
306 2.53292 1.75698 4.40075 0.25
307 1.30308 4.81017 7.86578 0.5
308 3.65365 5.78299 3.16922 0.25
309 4.53892 1.06859 5.16775 0.25
310 1.36154 5.03842 3.63868 0.25
311 7.38938 0.33251 4.27167 0.25
312 0.831798 0.939192 2.2063 0.5
313 1.09245 3.49448 5.37957 0.25
314 5.40968 3.85727 3.32516 0.25
315 1.77547 5.20996 8.20387 0.25
316 1.61529 4.46361 7.32593 0.25
317 7.85473 2.68166 3.97115 0.25
318 2.22302 2.45973 4.03757 0.25
319 4.56237 7.49633 8.27279 0.25
320 1.90604 6.13725 5.90007 0.25
321 4.3915 0.414901 1.36239 0.25
322 7.42479 6.70024 5.30666 0.25
323 0.845004 5.89294 4.26755 0.25
324 4.04483 7.14697 7.80887 0.5
325 0.826265 1.81137 0.344964 0.25
326 3.84626 4.89586 5.07146 0.5
327 7.0935 7.65772 3.70358 0.25
328 2.75358 7.40675 1.63166 0.25
329 0.855838 6.06201 2.99564 0.25
330 0.149511 7.24821 7.45666 0.25
331 0.880634 5.54215 3.53854 0.5
332 6.95184 6.66123 2.05387 0.25
333 1.31404 1.49074 1.90754 0.25
334 6.82442 1.54575 1.83291 0.25
335 3.68091 2.55796 1.05512 0.25
336 2.82563 6.80752 6.79847 0.25
337 4.31064 7.05557 3.09791 0.5
338 5.72026 7.33673 7.99257 0.25
339 2.17304 7.82231 3.61867 0.25
340 4.22114 0.330686 4.86193 0.25
341 6.75016 0.255523 3.16712 0.25
342 0.928647 5.57521 7.88269 0.25
343 2.82934 1.22688 0.126502 0.25
344 0.684656 5.45467 2.3269 0.25
345 0.393968 1.35958 2.72863 0.25
346 0.268938 2.34739 8.21523 0.25
347 3.29863 5.79565 7.83104 0.25
348 7.03181 7.86792 2.27614 0.25
349 0.651063 2.09661 -0.0196781 0.25
350 6.81481 1.82693 2.64849 0.25
351 1.62543 6.88638 0.569671 0.25
352 6.24733 4.1333 7.88535 0.5
353 2.71095 7.80655 8.14243 0.25
354 2.03654 0.857749 5.63353 0.25
355 0.882587 8.3758 6.01922 0.25
356 2.0104 1.81516 5.78883 0.25
357 2.70351 4.03257 6.465 0.25
358 6.29287 3.45959 5.4299 0.25
359 5.3072 1.58604 5.72589 0.25
360 2.08535 2.00676 1.06916 0.25
361 0.797011 8.00989 0.742506 0.25
362 6.31428 3.60987 6.9053 0.25
363 7.54563 3.85879 2.82852 0.25
364 5.84342 3.57626 7.57806 0.25
365 5.42839 6.17426 0.181476 0.25
366 5.10935 6.48853 0.432928 0.25
367 2.10108 5.10891 6.9439 0.25
368 6.65478 3.95873 0.0730667 0.25
369 0.751434 7.23145 0.866686 0.25
370 5.23375 0.719683 8.04555 0.25
371 2.08851 7.91842 4.13435 0.25
372 2.07482 3.99315 0.599339 0.25
373 7.1536 2.64466 5.16127 0.25
374 3.44325 4.40392 4.56024 0.25
375 4.88309 0.931121 7.65769 0.25
376 2.36644 5.58373 1.78242 0.25
377 6.2003 1.41296 2.23189 0.5
378 0.390222 3.70713 7.635 0.25
379 4.80235 1.44703 7.68345 0.25
380 2.3379 6.97877 4.6571 0.25
381 3.93531 5.41117 5.63554 0.25
382 1.89656 7.129 4.53282 0.25
383 6.3774 5.46319 4.27464 0.5
384 1.48749 1.48879 1.42404 0.25
385 6.9785 1.40526 7.03696 0.5
386 1.66523 1.09776 5.42758 0.25
387 7.12473 1.1045 0.416818 0.25
388 0.285615 5.55278 2.60446 0.25
389 4.11856 2.7529 7.29104 0.5
390 4.65739 1.2049 6.15312 0.25
391 5.52322 4.69364 2.37899 0.25
392 7.90552 2.74992 3.0822 0.25
393 3.32517 6.24278 1.3108 0.25
394 0.0778543 7.7741 0.463065 0.25
395 2.39408 1.60535 1.14039 0.25
396 4.79265 7.28192 7.91392 0.25
397 4.79113 0.721852 8.07285 0.25
398 7.24607 2.06391 0.0385059 0.25
399 2.58153 4.38487 3.05323 0.25
400 6.07 4.11921 1.07551 0.25
401 2.04147 6.91284 3.31746 0.25
402 0.28812 8.09028 7.31845 0.25
403 7.91492 6.35615 1.05484 0.25
404 8.16982 6.95531 7.2429 0.25
405 0.324318 7.99131 0.816357 0.25
406 4.46699 8.03164 4.27861 0.25
407 2.38693 1.15233 7.83612 0.5
408 5.40399 3.25422 2.71955 0.25
409 2.25742 4.83608 1.09694 0.25
410 7.31485 1.37354 8.12276 0.5
411 4.19832 5.55439 5.25298 0.25
412 8.32324 7.37287 7.01498 0.25
413 1.09974 1.41849 0.276809 0.25
414 0.475342 2.98053 7.75716 0.5
415 6.64278 4.6921 3.45144 0.25
416 2.66918 3.54976 6.3327 0.25
417 3.36677 4.66037 3.80393 0.5
418 7.12689 6.94004 4.4898 0.25
419 3.80961 3.85879 5.75417 0.25
420 0.773918 3.05185 4.5831 0.25
421 3.95522 4.91205 5.78055 0.25
422 2.3805 5.25157 1.36378 0.25
423 0.721294 0.45998 5.76112 0.25
424 0.459637 3.38837 4.83616 0.25
425 2.02388 2.7285 1.40149 0.5
426 7.42807 5.95925 5.20865 0.5
427 2.88003 1.75743 4.00598 0.25
428 3.9872 5.02178 3.53884 0.25
429 4.26733 4.53147 5.55047 0.25
430 1.63981 7.1402 3.08192 0.25
431 0.950708 3.38429 6.78273 0.25
432 1.49524 6.84078 3.89766 0.5
433 1.86794 1.74489 7.58416 0.25
434 1.06644 6.44712 1.31102 0.25
435 5.68562 3.52208 3.08504 0.25
436 0.654193 5.9464 2.47245 0.25
437 8.06632 1.11676 0.0780142 0.25
438 0.858349 3.26849 5.01593 0.25
439 3.53376 2.59847 6.69661 0.25
440 4.62074 1.78772 7.34954 0.25
441 8.11406 4.28295 5.5977 0.25
442 1.94801 5.33234 1.62999 0.25
443 0.341765 2.93859 6.79291 0.5
444 2.16486 3.38381 1.61382 0.25
445 5.50292 7.30287 0.789823 0.25
446 4.2828 5.68464 3.62925 0.5
447 1.54693 1.93327 5.57053 0.25
448 5.84661 7.27664 5.81795 0.25
449 1.0271 5.47783 5.41306 0.25
450 2.86867 3.34266 0.868253 0.25
451 2.58506 7.07698 5.04754 0.25
452 2.47145 0.871662 0.102571 0.25
453 5.11761 4.3038 1.0684 0.25
454 0.137272 3.46921 7.2622 0.25
455 7.69712 5.12104 7.99544 0.25
456 3.11273 1.78287 3.61054 0.25
457 2.31543 4.35654 7.06098 0.5
458 8.32252 7.8837 6.92553 0.25
459 4.94063 7.80079 8.02387 0.25
460 4.74783 7.93087 4.6333 0.25
461 2.52324 3.38112 1.23746 0.25
462 6.38656 5.06625 3.60176 0.25
463 4.93846 7.38683 2.9638 0.25
464 7.72432 6.91026 7.42234 0.25
465 7.20475 2.4436 5.60769 0.25
466 4.37815 1.85532 2.71214 0.25
467 4.23965 5.1017 1.3344 0.25
468 6.93661 5.47218 3.33344 0.5
469 7.52214 7.44025 7.2999 0.25
470 0.676212 1.40348 0.52797 0.25
471 1.71235 1.09749 5.93456 0.25
472 1.94948 7.39181 1.74028 0.25
473 8.03509 5.59118 5.56258 0.25
474 5.11817 5.77496 5.68132 0.25
475 1.39637 1.2322 2.73644 0.25
476 6.74148 1.22705 7.76495 0.25
477 3.18952 5.39663 3.73621 0.25
478 6.3151 3.49098 7.43082 0.25
479 3.34659 7.28671 7.51715 0.25
480 5.02855 0.451057 2.21042 0.25
481 8.04683 2.20982 3.96275 0.25
482 7.82974 5.37881 4.79801 0.25
483 0.656236 5.8075 5.54927 0.25
484 2.85605 0.755093 8.32984 0.25
485 7.93448 7.70637 7.15298 0.25
486 1.87899 6.61913 5.95723 0.25
487 8.21858 7.86904 4.13333 0.25
488 4.26326 4.06061 5.80542 0.25
489 0.0819626 8.27259 0.523074 0.25
490 7.82152 7.47411 2.12358 0.25
491 4.41453 3.13709 1.11944 0.25
492 2.48882 1.49603 4.02556 0.25
493 6.22878 4.14227 6.82525 0.25
494 4.69175 7.45897 2.56039 0.25
495 1.15189 5.94042 5.56478 0.25
496 2.55248 7.83291 4.36905 0.25
497 6.15049 4.73988 7.42468 0.25
498 3.35561 2.84637 4.07703 0.25
499 0.159742 5.14444 7.7588 0.25
500 3.49771 2.89105 6.32462 0.25
501 6.12352 3.84039 4.38682 0.25
502 1.90084 8.01529 8.01629 0.25
503 6.01717 4.95866 2.9279 0.5
504 7.43004 7.61901 2.413 0.25
505 5.9208 1.13928 2.85835 0.25
506 7.26605 6.5531 4.83752 0.25
507 1.02099 0.101947 2.97896 0.25
508 0.814287 0.0967493 5.54847 0.25
509 8.37817 4.88943 5.40238 0.5
510 5.55652 1.89012 5.38432 0.25
511 0.959026 0.455645 5.26563 0.25
512 0.745035 0.518709 2.87186 0.25
513 4.1632 1.40335 5.27109 0.25
514 2.19327 5.98485 5.54118 0.25
515 1.0322 7.62656 6.43422 0.25
516 7.42608 1.60538 6.39133 0.25
517 7.55771 5.80745 4.52177 0.25
518 0.82629 3.57702 4.60742 0.25
519 6.2361 2.11553 2.026 0.25
520 7.09553 1.92764 6.33499 0.25
521 7.55712 1.84076 0.333858 0.25
522 6.46524 1.96668 7.83289 0.25
523 5.04464 6.80152 5.78759 0.25
524 2.91803 0.176275 7.5911 0.25
525 6.34092 4.40644 7.28746 0.25
526 7.35826 5.32277 6.76329 0.25
527 7.53265 8.26406 4.21307 0.25
528 7.42198 0.630193 6.96886 0.25
529 6.67487 1.3735 2.7819 0.25
530 2.25081 1.85504 6.25433 0.25
531 7.88451 8.12356 3.90908 0.25
532 1.19063 0.419905 2.61078 0.25
533 6.87424 1.7124 7.72618 0.25
534 7.72982 5.85458 1.72388 0.25
535 0.422464 3.20116 5.60815 0.5
536 6.9785 2.22309 5.96908 0.25
537 4.46196 1.2672 5.67255 0.25
538 7.29673 5.27152 4.94562 0.25
539 2.40454 1.36164 6.373 0.25
540 7.55863 6.30912 2.23551 0.5
541 7.74628 4.28871 1.48782 0.25
542 1.89103 2.10418 7.96801 0.25
543 3.14315 7.07831 7.13551 0.25
544 7.80309 6.70094 6.99418 0.25
545 1.45175 6.09488 3.70961 0.25
546 4.98101 5.68074 6.18551 0.25
547 5.27991 2.72455 8.0672 0.25
548 6.42349 6.94805 6.39692 0.25
549 0.774916 7.93692 7.2531 0.25
550 6.1967 7.18075 8.08678 0.25
551 4.72866 1.60642 2.4879 0.25
552 3.67105 5.29881 3.88745 0.25
553 6.79504 0.0458007 3.85808 0.5
554 4.41944 6.32334 3.21132 0.25
555 4.93938 6.48858 3.6927 0.5
556 6.73828 1.1144 0.703244 0.25
557 7.4011 5.18167 4.19141 0.5
558 6.33441 0.428726 3.43973 0.25
559 1.43886 0.438456 5.87378 0.5
560 4.88935 3.48905 2.65556 0.25
561 2.9548 3.0292 4.13646 0.25
562 4.84265 8.26262 5.43651 0.25
563 2.83703 6.14167 1.29595 0.25
564 6.10566 6.9276 0.624631 0.5
565 6.48494 1.43746 6.46335 0.25
566 1.23031 1.5969 2.4008 0.25
567 4.4788 5.64041 6.23276 0.25
568 6.32597 1.35019 3.06722 0.25
569 2.87967 8.05061 7.68138 0.25
570 1.99299 6.63218 4.43616 0.25
571 2.05971 4.86146 6.47865 0.25
572 0.0442127 2.92903 3.63957 0.5
573 4.22912 1.4474 2.40768 0.25
574 1.41071 5.84613 5.96043 0.25
575 1.90058 1.60547 8.03752 0.25
576 4.09246 5.60979 7.77987 0.25
577 4.59405 0.0887841 5.06461 0.25
578 1.88212 7.38439 3.45436 0.25
579 7.36925 5.34232 7.75155 0.25
580 7.65841 0.256853 4.93861 0.5
581 4.27492 4.54708 6.03068 0.25
582 5.97224 3.10719 4.71513 0.25
583 5.74821 3.72474 5.04371 0.5
584 4.70251 6.46145 5.99004 0.25
585 4.92833 3.21483 1.31434 0.25
586 1.80993 0.0891778 2.36766 0.5
587 4.87582 6.9455 2.67001 0.25
588 5.89977 5.25259 3.68346 0.25
589 8.19602 3.10037 7.3811 0.25
590 3.93402 6.14604 1.89105 0.25
591 6.12753 1.5467 1.46404 0.25
592 7.17786 7.31367 1.78976 0.5
593 6.66761 7.06102 1.16995 0.25
594 2.05202 4.52224 0.0423459 0.5
595 0.71091 3.70684 8.05595 0.25
596 2.21093 0.68133 0.467475 0.25
597 0.207114 0.435886 5.23234 0.5
598 2.70039 5.64585 1.42925 0.25
599 1.97979 8.27448 7.56236 0.25
600 7.80763 1.12868 5.67071 0.25
601 0.893048 0.897011 5.51314 0.25
602 3.94793 0.213224 2.11988 0.25
603 4.21762 5.55472 8.34297 0.25
604 7.50946 5.36965 7.22469 0.25
605 7.97102 2.38883 3.53047 0.25
606 2.34754 7.65838 1.79744 0.25
607 4.447 5.31982 8.01264 0.25
608 3.72033 7.5938 7.35626 0.25
609 6.86925 5.06054 4.75016 0.25
610 2.06728 1.31179 5.65031 0.25
611 3.11555 1.06938 8.06167 0.25
612 0.529332 7.58371 0.602975 0.25
613 6.34925 1.93326 8.26733 0.25
614 4.44497 0.787414 4.76493 0.25
615 4.94058 2.57609 4.0076 0.25
616 0.776835 5.56893 2.81349 0.25
617 1.87295 7.81676 1.52874 0.25
618 7.53115 7.59169 4.35615 0.5
619 8.01249 8.19482 4.43184 0.25
620 7.71478 7.13015 2.81588 0.5
621 4.31272 6.31625 3.99516 0.25
622 6.14598 6.53619 5.73066 0.25
623 5.3974 6.77401 0.72751 0.25
624 0.860658 2.75054 5.06718 0.25
625 1.06508 5.30878 8.2934 0.25
626 3.95528 0.313205 1.25731 0.25
627 5.12616 4.63321 2.17178 0.25
628 8.16457 3.41383 2.67812 0.5
629 7.19209 3.7306 0.489958 0.25
630 1.17057 8.25512 2.5496 0.25
631 1.67579 1.2974 7.74164 0.25
632 7.83324 7.75927 1.70757 0.25
633 5.86694 7.58894 0.977554 0.25
634 3.11274 0.201335 4.11268 0.25
635 1.40111 7.17936 1.22443 0.5
636 1.6485 1.99755 1.32713 0.25
637 5.06103 8.16017 5.03285 0.25
638 4.926 0.911653 4.89351 0.25
639 4.74555 2.03515 8.3055 0.25
640 5.45002 7.80094 0.673551 0.25
641 1.23301 6.5048 4.92763 0.25
642 3.96884 1.42642 5.73516 0.25
643 5.98879 6.97294 5.45611 0.25
644 6.14897 0.901638 3.21814 0.25
645 2.47664 2.0873 1.3347 0.25
646 8.21385 6.94637 6.76034 0.25
647 2.42055 2.91685 4.11946 0.25
648 4.98362 1.23096 8.09374 0.25
649 0.474997 3.80549 1.66244 0.25
650 8.13383 3.61373 1.38619 0.25
651 3.29122 3.07699 3.6914 0.25
652 7.21873 8.2479 6.43803 0.25
653 1.52669 6.50409 1.28734 0.25
654 0.83529 2.51655 8.19618 0.25
655 3.40091 3.63642 6.40308 0.5
656 0.622887 3.46467 7.1895 0.25
657 1.43218 5.46445 5.62457 0.25
658 7.34655 0.566648 3.7842 0.25
659 2.2946 1.90957 7.705 0.25
660 6.99717 6.20466 4.20189 0.5
661 8.05234 1.51036 8.14068 0.25
662 3.8271 4.67599 4.35581 0.25
663 2.53555 3.59214 1.84398 0.25
664 6.82311 2.86923 4.89366 0.25
665 7.76645 3.86396 1.19265 0.25
666 6.11154 6.61777 6.21498 0.25
667 6.65901 3.60984 0.476424 0.25
668 6.77196 6.74996 1.57712 0.25
669 6.41635 5.07385 6.66785 0.25
670 4.29864 7.7529 4.76723 0.25
671 3.39309 4.88104 4.48744 0.25
672 2.79901 3.21189 2.1074 0.25
673 0.646596 1.01282 3.02686 0.25
674 4.61373 7.60452 3.43068 0.25
675 5.61556 3.56619 5.78126 0.25
676 7.56016 7.92742 2.0732 0.25
677 6.4638 1.83642 1.70445 0.25
678 7.75973 6.61429 4.9244 0.25
679 1.38121 6.102 1.52104 0.25
680 3.55272 6.64986 8.01105 0.25
681 7.85938 0.194732 4.17975 0.25
682 2.66182 6.00156 1.76948 0.25
683 2.19595 8.13675 7.15183 0.25
684 0.163356 3.44081 1.63668 0.25
685 2.47108 3.69718 6.78938 0.25
686 3.96843 2.77218 6.48601 0.25
687 2.55654 4.07772 0.531515 0.25
688 4.31214 1.58592 6.08523 0.25
689 5.69335 4.62376 7.58002 0.25
690 6.38038 0.964191 2.81818 0.25
691 7.10031 1.27959 1.41888 0.25
692 5.43511 4.99181 2.00059 0.25
693 7.37314 2.01895 6.76378 0.25
694 7.70718 5.2753 5.30446 0.25
695 8.27927 3.22429 6.21542 0.25
696 5.73083 5.98315 3.545 0.5
697 4.07761 3.6037 6.13475 0.25
698 2.0825 1.12925 5.17253 0.25
699 1.55783 6.75462 4.64708 0.25
700 4.50017 5.46406 1.05729 0.25
701 4.63898 1.93062 7.81506 0.25
702 1.99392 4.62875 7.66314 0.25
703 3.22389 6.48845 7.42525 0.5
704 4.74804 4.93589 8.19336 0.25
705 4.47534 3.07964 1.59279 0.25
706 5.09266 0.302044 8.20328 0.25
707 4.59674 3.83947 1.40307 0.5
708 5.26735 7.47565 7.8651 0.25
709 2.98551 6.71429 1.86345 0.5
710 1.74663 4.74204 6.8891 0.25
711 5.19922 6.14031 3.07134 0.25
712 0.287969 5.07529 8.24885 0.25
713 2.76156 3.98332 1.90672 0.25
714 5.33803 3.83364 1.12013 0.25
715 4.89379 6.52547 3.0162 0.25
716 6.41549 1.55262 7.59591 0.25
717 7.40207 7.9817 3.79779 0.25
718 5.89383 3.46134 7.12505 0.25
719 5.76566 4.91122 7.15751 0.25
720 1.73174 7.6397 3.8846 0.25
721 6.71067 1.92352 2.14217 0.25
722 2.36522 7.43971 2.92828 0.5
723 2.42733 7.01388 2.31637 0.25
724 7.10033 6.79221 1.19301 0.25
725 8.00162 6.47537 7.45864 0.25
726 1.33725 0.795804 5.27832 0.25
727 3.4008 0.604981 1.64753 0.25
728 3.58594 6.14832 8.07183 0.25
729 5.04196 5.76647 3.40497 0.25
730 2.64956 7.00369 7.21197 0.25
731 5.1769 3.48941 3.092 0.25
732 4.09981 3.75105 6.56449 0.25
733 3.62609 5.42661 7.69206 0.25
734 4.4161 0.966395 2.53938 0.25
735 3.19657 2.9704 6.76849 0.25
736 7.82068 1.94129 8.3015 0.25
737 4.25505 0.358114 0.8408 0.25
738 0.215895 0.103922 0.984156 0.25
739 4.77174 5.99156 3.04445 0.25
740 4.9308 7.24745 3.4789 0.25
741 0.555268 0.0393019 0.613602 0.25
742 3.81768 4.61856 6.18009 0.25
743 6.81873 1.01184 1.1967 0.25
744 4.63832 0.69662 2.23764 0.25
745 3.47995 4.22295 5.93736 0.25
746 1.51808 6.02248 4.44118 0.5
747 4.68296 0.449568 1.76559 0.25
748 2.5064 6.78315 7.62559 0.25
749 1.54594 1.26861 2.28159 0.25
750 8.14301 3.45835 1.88905 0.25
751 1.79596 0.661672 5.2322 0.25
752 6.20053 5.15061 7.0974 0.25
753 4.06512 0.879654 1.83304 0.5
754 4.87955 5.64805 1.3143 0.25
755 2.92881 2.66961 1.20317 0.5
756 8.19716 6.89655 7.68707 0.25
757 5.50817 6.93018 5.59177 0.25
758 6.83128 4.22704 7.3868 0.25
759 4.18653 8.15625 6.09743 0.25
760 0.0332384 2.73191 2.8688 0.25
761 3.63997 7.12783 7.16657 0.25
762 0.566107 1.69417 3.33352 0.5
763 3.96262 8.18276 1.83085 0.25
764 1.66863 6.47356 0.815772 0.25
765 7.54319 5.10056 3.49159 0.25
766 8.36689 4.08518 2.9349 0.25
767 2.90266 7.11172 7.63872 0.25
768 1.97535 2.52796 4.54802 0.25
769 7.86121 3.87913 1.70966 0.25
770 4.50453 1.15633 7.97844 0.25
771 6.75302 1.02184 6.50679 0.25
772 4.88521 2.68592 7.76967 0.25
773 4.94826 0.293125 4.43496 0.5
774 3.86147 0.141471 5.99229 0.25
775 7.70838 4.61747 3.02679 0.5
776 6.75498 4.29961 0.737379 0.5
777 5.81858 6.91264 8.30069 0.25
778 5.11849 8.29449 7.89307 0.25
779 8.34115 8.36757 4.07297 0.25
780 2.37863 1.56582 5.92379 0.25
781 2.3037 1.83811 8.17319 0.25
782 1.16603 7.07339 0.588904 0.25
783 6.39533 3.82356 1.30013 0.25
784 2.34898 7.16236 1.85207 0.25
785 2.04478 1.6213 6.68149 0.25
786 2.66153 7.45517 2.13041 0.25
787 7.84661 7.21237 7.00739 0.25
788 7.93371 4.10023 2.59279 0.25
789 3.26854 8.08932 4.06459 0.25
790 6.70897 0.017283 6.54378 0.25
791 0.286246 4.66927 3.27001 0.5
792 2.47726 8.30051 7.52816 0.25
793 8.15562 6.69332 2.3361 0.25
794 5.44003 6.31182 6.11894 0.5
795 2.30395 4.03739 3.28554 0.25
796 2.66586 6.28147 5.54857 0.25
797 6.8521 6.94636 0.74304 0.25
798 7.87348 4.29327 0.99483 0.25
799 3.88305 3.12437 6.16286 0.25
800 8.16336 2.37641 3.12579 0.25
801 3.31184 7.53929 7.04336 0.25
802 3.74564 5.12616 4.36382 0.25
803 2.87522 8.11932 6.92425 0.5
804 4.12137 6.59925 1.8349 0.25
805 2.16108 8.14989 1.84781 0.25
806 2.60484 1.76365 3.56571 0.25
807 4.44552 6.2657 5.59497 0.25
808 4.07149 2.37455 7.95026 0.25
809 1.7098 5.92877 5.5581 0.25
810 6.19184 7.31022 6.66338 0.25
811 1.51003 3.12425 4.75692 0.5
812 5.78957 7.59652 0.496684 0.25
813 4.51822 2.15182 3.05071 0.25
814 2.16077 7.80223 6.81538 0.25
815 2.46961 8.07108 3.92266 0.25
816 0.434233 2.94556 4.93199 0.25
817 4.28006 1.97517 8.07116 0.25
818 4.06973 2.17092 2.99965 0.25
819 1.93385 5.22945 1.14461 0.25
820 2.84391 3.32977 6.83891 0.25
821 1.15892 1.77839 8.01221 0.5
822 6.13183 4.45606 3.86391 0.5
823 4.98882 0.40957 7.73738 0.25
824 1.42167 0.312911 5.13745 0.25
825 3.73604 5.91978 7.64403 0.25
826 3.23165 3.56971 1.52289 0.5
827 5.93457 7.03853 6.28137 0.25
828 8.25269 2.04108 8.07696 0.25
829 0.129687 8.14155 4.4778 0.25
830 1.22533 1.65489 2.89915 0.25
831 2.3224 4.25068 7.76767 0.25
832 5.93973 4.43466 2.36393 0.25
833 1.98331 1.49031 6.15939 0.25
834 4.19884 0.485568 2.47463 0.25
835 6.43077 1.81116 1.16493 0.25
836 3.27235 7.81919 7.46175 0.25
837 3.94319 5.22313 8.07422 0.25
838 7.06119 0.760087 0.767657 0.25
839 6.24544 7.37351 6.21698 0.25
840 6.87276 4.99474 7.32317 0.5
841 3.71118 6.53653 2.10286 0.25
842 0.126275 2.07004 2.50404 0.5
843 6.06041 3.73347 5.74865 0.25
844 4.85845 2.51728 8.219 0.25
845 7.5602 2.23679 5.30682 0.25
846 3.31916 3.47831 7.37781 0.5
847 2.25739 4.44036 0.730723 0.25
848 1.91093 5.89286 5.11999 0.25
849 5.04056 7.76347 2.67218 0.25
850 6.55141 2.68938 5.58297 0.5
851 4.65305 8.00048 5.0971 0.25
852 6.83924 2.00328 8.15726 0.25
853 4.14378 0.193073 6.42972 0.25
854 4.86991 1.66402 5.11504 0.5
855 0.431464 3.91323 5.45997 0.25
856 0.438439 5.31998 3.05207 0.25
857 4.1597 6.30819 1.4388 0.25
858 2.6213 4.6382 3.82128 0.25
859 6.69714 4.81183 4.32909 0.25
860 7.54903 4.03719 0.739708 0.25
861 4.64479 3.1001 7.7453 0.25
862 6.78461 4.93768 3.8631 0.25
863 5.14111 6.52408 8.26998 0.25
864 7.0383 6.91637 2.4911 0.25
865 3.73826 5.66361 8.09459 0.25
866 5.28356 8.18195 2.49405 0.25
867 1.7981 4.23719 7.71824 0.25
868 2.21389 1.48761 0.423986 0.5
869 0.965594 3.15849 7.19866 0.25
870 6.24075 5.53161 3.45158 0.25
871 2.80449 7.3594 6.88448 0.25
872 6.0062 3.07349 5.25296 0.25
873 0.0305174 8.08471 0.0684265 0.25
874 4.75246 1.58292 5.85948 0.25
875 2.29028 4.10822 1.32653 0.5
876 1.46927 5.64875 5.18394 0.25
877 8.18049 5.08894 8.13362 0.25
878 5.97408 0.731557 2.6132 0.25
879 2.80105 8.263 4.24932 0.25
880 6.45267 6.01183 3.29089 0.25
881 7.36508 0.936123 1.19507 0.25
882 8.01368 7.37894 7.49058 0.25
883 0.189996 3.6228 2.09343 0.25
884 6.72978 3.6019 0.988986 0.25
885 0.939885 4.02693 5.31895 0.25
886 7.59272 7.55018 3.51138 0.25
887 1.38872 6.57457 1.74131 0.25
888 1.04442 4.82976 3.28902 0.25
889 1.44103 7.82252 2.34749 0.25
890 8.33674 4.44674 2.61768 0.25
891 1.04392 2.43102 7.66055 0.25
892 7.24807 3.74529 1.01457 0.25
893 1.046 7.56727 0.637049 0.25
894 4.48988 5.50203 1.52401 0.25
895 4.5163 5.95104 1.23219 0.25
896 1.73789 1.25317 8.26064 0.25
897 8.19494 4.08813 1.30638 0.25
898 0.931061 4.77123 3.7067 0.25
899 1.20735 8.07884 6.27202 0.25
900 4.98562 6.26694 5.61367 0.25
901 0.913224 1.33007 2.75864 0.25
902 7.344 4.25397 1.16868 0.25
903 5.82242 3.75986 4.02209 0.25
904 6.9267 4.43735 7.79114 0.25
905 5.35317 0.594807 5.00304 0.25
906 2.00154 0.816302 0.0108998 0.25