ITEM: TIMESTEP
560000
ITEM: NUMBER OF ATOMS
1000
ITEM: BOX BOUNDS xy xz yz pp pp pp
0.0000000000000000e+00 8.3788359999999997e+00 0.0000000000000000e+00
0.0000000000000000e+00 8.3788359999999997e+00 0.0000000000000000e+00
0.0000000000000000e+00 8.3788359999999997e+00 0.0000000000000000e+00
ITEM: ATOMS id x y z radius
1 2.81147 6.97617 5.05648 0.25
2 4.63293 4.99254 5.36753 0.25
3 7.30195 4.59289 3.16677 0.25
4 7.24164 1.05051 5.82261 0.5
5 1.10026 5.55922 6.17427 0.25
6 8.29841 1.89683 3.45747 0.25
7 4.22239 3.31757 6.67319 0.25
8 4.84866 7.74386 2.9515 0.25
9 0.758658 6.10222 3.81891 0.25
10 4.03628 1.60479 3.52523 0.25
11 5.44029 0.124207 7.91045 0.25
12 5.27617 3.49164 1.50919 0.25
13 0.653859 2.43272 7.3844 0.25
14 3.59749 2.52349 7.04001 0.25
15 0.122646 2.5851 6.18875 0.25
16 7.36007 0.912878 6.5598 0.25
17 0.754133 5.41615 8.09445 0.25
18 6.06201 7.36994 8.05534 0.25
19 4.39059 1.82236 7.75148 0.25
20 7.71103 1.28007 0.622299 0.25
21 5.14905 4.32982 1.86469 0.25
22 4.07004 3.38969 1.0738 0.25
23 2.14012 3.44398 2.12336 0.25
24 2.7793 1.99483 4.70973 0.25
25 2.72314 4.57834 3.00422 0.25
26 0.283155 8.35223 5.77892 0.25
27 3.85504 0.350096 5.7537 0.25
28 4.16797 2.09152 0.120201 0.25
29 5.15189 6.94374 2.98688 0.25
30 7.52867 7.36543 2.39461 0.25
31 2.63048 0.385341 8.14075 0.25
32 0.990502 2.77554 7.27802 0.25
33 7.60031 0.587553 5.32125 0.25
34 2.18138 5.30877 1.30973 0.25
35 8.06437 0.156461 4.51506 0.25
36 6.83564 2.07096 5.89954 0.5
37 4.38563 1.26727 2.34757 0.25
38 2.20385 3.47325 4.33691 0.25
39 6.05741 2.67121 4.80709 0.25
40 5.30335 7.74646 3.09091 0.25
41 6.81718 2.0571 2.51967 0.25
42 5.53105 6.00715 5.86386 0.25
43 3.46303 7.79841 5.03867 0.25
44 3.56393 0.200688 5.39785 0.25
45 5.43014 4.10505 4.06564 0.25
46 3.28537 5.97896 1.39199 0.5
47 4.92885 0.910185 5.52087 0.25
48 7.87725 6.28099 6.81514 0.25
49 7.25369 6.75224 4.69696 0.25
50 7.88729 1.08999 1.11374 0.25
51 2.69049 3.44134 4.40966 0.25
52 0.746046 1.66419 2.44952 0.25
53 6.30675 5.15457 7.01346 0.25
54 5.79712 3.32503 4.10125 0.25
55 1.37228 1.15858 6.01915 0.25
56 1.27079 7.21048 0.271157 0.25
57 4.60246 0.870197 2.20568 0.25
58 2.28032 2.11576 4.16192 0.25
59 4.67424 0.992759 6.41294 0.25
60 7.74731 5.54399 5.24999 0.25
61 5.11083 8.15808 8.06508 0.25
62 5.27503 2.06009 8.31949 0.5
63 7.60556 6.61621 1.09692 0.25
64 1.20034 6.1102 1.07424 0.25
65 4.23233 0.245516 1.78374 0.25
66 2.30967 4.99969 7.28849 0.25
67 8.12321 4.96976 7.16069 0.25
68 6.98039 0.593151 6.38694 0.25
69 0.204804 5.61727 7.6424 0.25
70 2.10614 4.69353 0.736893 0.25
71 8.02886 1.28904 0.249748 0.25
72 6.37622 6.32056 3.52421 0.25
73 0.476454 7.55876 6.83531 0.25
74 7.20417 5.59434 6.83902 0.25
75 7.31972 8.39154 3.37082 0.25
76 7.55527 6.47208 4.36253 0.25
77 5.6676 2.92735 5.43887 0.25
78 5.39739 3.84352 1.18932 0.25
79 7.61117 5.0684 4.52587 0.25
80 5.82784 3.41485 5.4349 0.25
81 7.12353 1.44259 1.33773 0.25
82 0.161002 3.10535 6.16054 0.25
83 4.38325 5.86874 5.39925 0.25
84 0.963906 1.0915 5.68481 0.25
85 1.54151 0.814381 5.13118 0.25
86 4.55639 8.36001 5.35977 0.25
87 1.68576 1.73642 1.30341 0.25
88 3.27176 6.74889 1.57667 0.25
89 6.78691 7.06843 0.774259 0.25
90 5.57117 6.31678 5.49298 0.25
91 4.02398 4.15676 6.34625 0.25
92 6.1525 4.65857 7.50984 0.25
93 5.16253 6.34099 5.16278 0.25
94 6.96664 8.2154 4.1031 0.25
95 0.227143 4.51698 7.65786 0.5
96 5.3678 3.10092 3.53347 0.5
97 4.21387 5.06691 7.96232 0.25
98 8.2375 2.33337 3.43225 0.25
99 1.46569 6.36291 5.94494 0.25
100 7.13977 6.94025 1.06998 0.25
101 0.74098 7.60654 8.19214 0.25
102 8.20972 4.77503 3.22022 0.25
103 6.66396 1.25359 1.39298 0.25
104 0.825279 4.78552 7.27571 0.25
105 5.17994 5.5985 5.32876 0.5
106 5.31765 0.484927 4.53086 0.25
107 4.37419 3.16484 7.09611 0.25
108 4.77269 1.42363 0.059062 0.25
109 0.625413 0.720821 5.90384 0.25
110 2.20981 7.89076 8.33005 0.25
111 3.11292 3.70869 7.12633 0.25
112 4.48881 2.12851 8.12726 0.25
113 1.75989 2.00093 2.01368 0.5
114 1.69747 3.77297 7.26546 0.25
115 4.48533 6.50957 5.96627 0.25
116 2.4884 7.18108 6.96465 0.25
117 4.11417 2.31136 3.79565 0.5
118 6.73813 7.14997 1.25046 0.25
119 0.955165 6.33667 3.32737 0.25
120 0.116493 2.79639 2.39139 0.25
121 3.23251 4.09684 3.51399 0.25
122 6.58659 0.803525 6.18433 0.25
123 5.27309 0.502315 5.53683 0.25
124 8.0519 8.06857 2.35441 0.25
125 3.42015 2.20322 3.83654 0.25
126 3.58706 1.15077 5.82586 0.25
127 5.48107 3.95625 1.72935 0.25
128 6.54907 5.4829 7.30946 0.25
129 0.973721 6.43365 4.13097 0.25
130 5.61622 6.27898 0.795791 0.25
131 6.92787 1.55822 6.39672 0.25
132 5.96087 4.13026 7.59666 0.25
133 3.18627 1.88411 3.41384 0.25
134 4.14787 2.5168 8.22874 0.25
135 5.41386 3.8444 3.62305 0.25
136 2.78021 2.50514 3.76193 0.5
137 2.87824 4.08929 3.14297 0.25
138 7.54939 7.95276 2.81216 0.5
139 2.43766 7.8657 4.97452 0.25
140 5.19532 7.67848 7.89719 0.25
141 7.78252 5.93961 4.99439 0.25
142 1.14406 5.1209 3.23803 0.25
143 2.25608 2.15372 8.34814 0.25
144 5.00989 1.00848 2.82292 0.5
145 7.48173 1.95044 3.91795 0.25
146 6.06176 7.41728 0.271819 0.25
147 6.50716 5.66938 4.43281 0.25
148 2.30413 3.07752 4.60492 0.25
149 4.51962 8.13423 2.38182 0.5
150 5.0336 2.8472 4.18557 0.25
151 3.60335 6.08329 7.02147 0.25
152 3.54295 4.5469 5.74297 0.25
153 6.76677 5.93199 2.14695 0.5
154 7.34716 2.31603 4.61099 0.5
155 2.97028 7.3076 7.76433 0.25
156 7.59461 3.47749 1.40078 0.25
157 7.73173 5.94477 1.51166 0.25
158 2.46108 3.4396 0.807155 0.25
159 7.12353 7.84893 4.39203 0.25
160 6.51931 2.00196 2.93587 0.25
161 0.944939 5.25819 2.81774 0.25
162 5.85918 4.34034 7.18489 0.25
163 3.3634 3.71445 4.18705 0.5
164 2.5379 3.93128 2.53844 0.5
165 5.47824 8.08615 7.71808 0.25
166 0.0518928 3.68822 7.72506 0.25
167 6.5943 4.09077 8.19992 0.25
168 4.68941 6.09263 5.74984 0.25
169 3.97898 4.35373 5.81166 0.25
170 8.148 2.84883 6.32302 0.25
171 7.90942 5.83896 1.06408 0.25
172 1.12083 2.96526 6.8465 0.25
173 4.34762 6.326 5.49133 0.25
174 2.37816 2.25368 1.1473 0.25
175 7.69295 2.39 5.97839 0.5
176 2.38376 5.83412 6.16276 0.25
177 5.33417 3.60521 4.06665 0.25
178 3.20312 6.44162 1.96978 0.25
179 3.43826 2.26245 3.37306 0.25
180 5.87161 6.41792 5.88223 0.25
181 6.61546 4.28974 6.86148 0.25
182 3.30885 5.31367 3.47177 0.25
183 8.07007 7.59174 1.68118 0.25
184 3.76011 5.32544 8.04127 0.25
185 5.77774 6.87822 6.0253 0.25
186 7.54582 5.97287 4.51227 0.25
187 3.10405 5.11399 4.27326 0.25
188 0.78051 5.85685 3.34255 0.25
189 4.27507 6.50841 3.45673 0.25
190 4.22175 3.38743 1.47586 0.25
191 7.10585 1.69486 0.558242 0.5
192 0.848499 5.06847 7.69705 0.25
193 3.93073 5.41926 1.0942 0.25
194 2.75469 6.23338 1.93448 0.25
195 6.22643 5.57411 2.6435 0.25
196 2.36155 7.95412 2.69216 0.25
197 1.0947 8.17604 2.57693 0.25
198 7.62864 4.91634 7.2477 0.25
199 1.15407 1.06095 3.11608 0.25
200 4.61421 5.25018 1.37502 0.5
201 6.5803 1.57903 3.1704 0.25
202 8.2354 3.78698 5.25303 0.25
203 3.54423 1.79918 3.67718 0.25
204 5.77913 8.03242 0.0168532 0.5
205 2.54446 7.35291 4.42691 0.5
206 0.266234 4.47294 5.20645 0.25
207 5.61404 2.81947 4.12077 0.25
208 6.91293 5.3689 4.32261 0.25
209 5.4702 7.08833 0.0188521 0.5
210 1.94886 7.92653 2.98216 0.25
211 0.669948 3.77525 4.97144 0.25
212 1.44165 7.90705 8.36285 0.5
213 0.263707 4.1752 2.63912 0.25
214 1.90693 7.86483 2.52263 0.25
215 2.93481 4.26667 3.93207 0.25
216 6.38753 1.88299 2.4616 0.25
217 5.05549 3.77319 1.94073 0.25
218 2.42906 3.47753 4.82741 0.25
219 4.27808 1.12204 2.81099 0.25
220 3.6101 3.49464 1.07024 0.25
221 4.03323 8.35169 5.52211 0.25
222 7.39956 0.942047 5.08828 0.25
223 8.06197 2.75013 2.62941 0.25
224 7.06325 5.53618 7.32155 0.25
225 7.32043 2.21078 5.3139 0.25
226 4.79082 2.14002 7.76176 0.25
227 6.50035 3.79971 6.95491 0.25
228 5.36582 3.16353 4.28986 0.25
229 5.76957 4.8979 1.80922 0.25
230 0.192835 8.17866 6.45564 0.5
231 5.35647 4.55881 1.29157 0.5
232 1.93689 3.00511 4.26611 0.25
233 4.09375 5.28717 4.04703 0.25
234 6.49761 1.21065 6.54842 0.25
235 3.14196 7.3926 4.95592 0.25
236 0.783467 2.5748 8.19027 0.25
237 8.22241 2.87436 7.35085 0.25
238 3.43147 0.876984 1.29978 0.25
239 0.280828 2.30915 3.61924 0.25
240 6.77031 6.29186 1.46192 0.25
241 3.43835 7.14958 7.95727 0.25
242 1.87989 7.2527 2.75322 0.5
243 2.95921 4.88186 3.3796 0.25
244 7.10927 3.51763 1.19418 0.25
245 2.18744 1.08556 5.88305 0.25
246 7.67261 8.19489 3.60897 0.25
247 3.48157 2.67133 3.71605 0.25
248 3.7681 3.21811 1.41312 0.25
249 0.0349463 5.20915 7.4034 0.25
250 1.35556 3.8664 5.34767 0.25
251 5.31942 2.64255 4.78044 0.5
252 3.15106 2.12164 4.33362 0.25
253 7.89911 5.66345 7.22938 0.5
254 7.14721 6.00155 7.14647 0.25
255 4.60785 0.384294 5.93498 0.5
256 5.97836 6.22479 0.391284 0.25
257 1.05264 0.304044 2.78067 0.25
258 1.694 1.63629 2.68352 0.25
259 4.60483 3.04866 1.52647 0.25
260 7.9893 6.30059 1.24647 0.25
261 4.00594 0.0654505 1.36796 0.25
262 3.5046 2.4596 4.2163 0.25
263 2.08893 0.239361 0.251172 0.5
264 2.81836 4.42361 3.4988 0.25
265 1.02591 4.02325 7.31994 0.5
266 0.822464 7.66866 7.48599 0.5
267 5.05627 2.54086 7.72253 0.25
268 6.34879 7.85679 0.332576 0.25
269 2.13226 5.59441 0.48699 0.25
270 3.8722 3.71671 1.42227 0.25
271 7.53759 7.89678 4.64674 0.25
272 1.6684 0.872347 2.40309 0.25
273 1.37832 3.43021 7.04114 0.25
274 0.66567 5.5743 7.62353 0.25
275 4.71534 4.51125 1.59066 0.25
276 2.40744 3.02222 1.05315 0.25
277 6.62796 0.764934 6.70509 0.25
278 4.00384 6.17602 1.12415 0.25
279 4.1701 0.536635 5.09624 0.5
280 7.9256 8.18621 4.91979 0.25
281 0.966191 6.39143 0.749943 0.25
282 6.10615 7.13444 6.2736 0.25
283 0.940033 8.28867 6.31066 0.25
284 7.33127 4.44946 1.00392 0.25
285 1.91984 5.98402 1.14191 0.5
286 5.55553 6.77166 3.25052 0.25
287 1.6596 8.01785 3.51571 0.5
288 2.71241 7.46899 5.1755 0.25
289 2.33647 7.14416 5.12626 0.25
290 2.06677 3.90615 1.88331 0.25
291 8.12558 7.4944 7.18842 0.25
292 7.73581 2.45417 3.38841 0.25
293 7.78748 4.54248 3.38841 0.25
294 5.69369 3.77193 3.20944 0.25
295 8.15174 4.24475 1.08059 0.25
296 0.492513 4.25419 4.50665 0.5
297 3.90937 2.98107 6.93137 0.25
298 6.19572 5.16287 7.47709 0.25
299 5.74618 4.87896 7.67729 0.25
300 6.42976 3.41183 0.4395 0.25
301 1.16802 7.28576 8.09136 0.25
302 0.205955 4.26178 1.47335 0.25
303 3.92462 0.850532 1.12176 0.25
304 2.13177 2.66662 4.90473 0.25
305 0.69086 4.89041 8.15469 0.25
306 2.3146 2.25443 4.71067 0.25
307 1.55725 4.85585 7.49456 0.5
308 3.86171 5.67998 2.96811 0.25
309 4.41658 1.00447 5.62039 0.25
310 1.07336 4.67178 4.11585 0.25
311 7.34196 0.0610465 3.87455 0.25
312 0.882786 0.916384 2.35472 0.5
313 0.867995 3.89201 5.42623 0.25
314 5.23612 3.70977 3.0954 0.25
315 1.15726 5.14768 8.1241 0.25
316 1.75525 4.27914 7.13095 0.25
317 7.52173 2.39443 3.86107 0.25
318 2.24766 2.62699 4.36576 0.25
319 4.80801 7.36269 8.14454 0.25
320 1.93041 6.11139 6.12091 0.25
321 4.38667 0.900951 1.35205 0.25
322 7.01744 6.47224 5.01666 0.25
323 0.849405 5.98932 4.24963 0.25
324 4.11453 7.3792 7.74845 0.5
325 0.917883 1.77506 0.191032 0.25
326 3.92225 4.82416 5.1571 0.5
327 7.73917 7.33922 3.22969 0.25
328 2.3384 7.71922 1.85907 0.25
329 1.20891 5.96999 3.52253 0.25
330 8.07782 7.00711 7.33458 0.25
331 0.963143 5.3659 3.91134 0.5
332 7.44342 6.51211 2.13039 0.25
333 1.1113 1.55083 2.01355 0.25
334 6.76436 1.63628 1.69673 0.25
335 3.3315 3.08684 1.22762 0.25
336 2.93589 7.15734 6.84261 0.25
337 4.39546 7.10898 2.95205 0.5
338 6.41552 7.55427 8.36268 0.25
339 2.16156 7.96391 4.11626 0.25
340 4.88253 0.613632 4.80381 0.25
341 6.83956 8.2022 3.19017 0.25
342 0.969141 5.32388 7.31173 0.25
343 2.68656 1.25148 0.282595 0.25
344 1.26041 5.62379 2.73361 0.25
345 0.537948 1.46847 2.79215 0.25
346 0.479625 2.38167 7.88472 0.25
347 3.45134 6.04524 7.50911 0.25
348 7.35037 7.80915 2.06336 0.25
349 0.699427 2.14555 8.30906 0.25
350 6.74974 1.60088 2.683 0.25
351 1.4408 7.08178 0.801082 0.25
352 6.43169 3.56002 7.69167 0.5
353 2.4154 8.36979 7.61495 0.25
354 2.07061 0.563379 5.80307 0.25
355 0.62918 0.246555 6.12694 0.25
356 1.58461 1.63086 6.07531 0.25
357 2.87769 3.74377 6.68029 0.25
358 6.22896 3.47552 5.15024 0.25
359 4.19685 0.847671 6.29948 0.25
360 1.90541 2.19886 1.24235 0.25
361 0.883453 7.57005 0.272326 0.25
362 6.12938 4.11654 6.78772 0.25
363 8.04591 3.96333 2.00642 0.25
364 6.01304 3.82352 7.1655 0.25
365 5.56589 6.00652 0.384089 0.25
366 5.26381 6.39295 0.420039 0.25
367 3.09085 4.18143 6.9224 0.25
368 6.996 3.828 8.1871 0.25
369 1.30929 6.72096 0.507635 0.25
370 5.63676 0.48074 8.22007 0.25
371 2.42226 8.08893 4.54561 0.25
372 2.53019 4.61452 0.527942 0.25
373 7.05937 2.84343 5.10022 0.25
374 3.68661 4.46814 4.53898 0.25
375 5.44272 0.964884 8.07211 0.25
376 2.61248 5.95445 1.02731 0.25
377 6.32507 1.24046 2.11923 0.5
378 0.31781 3.81235 7.35766 0.25
379 5.11119 1.36791 7.98869 0.25
380 2.42554 6.70263 4.86768 0.25
381 3.94761 5.59322 5.27924 0.25
382 2.02295 6.95006 4.80405 0.25
383 6.33376 5.2142 3.8647 0.5
384 1.25085 1.64068 1.52068 0.25
385 7.00073 1.41496 7.09128 0.5
386 1.41946 1.0486 5.5166 0.25
387 7.71793 0.831223 0.69918 0.25
388 0.791324 5.7127 2.84246 0.25
389 4.26204 2.49999 7.44449 0.5
390 3.83879 0.505131 6.20013 0.25
391 5.37621 4.72968 2.09784 0.25
392 8.10984 2.65983 3.12981 0.25
393 2.81328 6.51391 1.57996 0.25
394 0.778497 8.11896 8.06688 0.25
395 2.16574 1.81938 1.38641 0.25
396 4.70716 7.85088 7.96585 0.25
397 5.29327 0.708655 0.107149 0.25
398 7.35874 1.67855 8.2065 0.25
399 3.15904 4.49158 3.17515 0.25
400 4.81982 4.36081 0.73577 0.25
401 2.32551 7.06927 3.77055 0.25
402 8.0518 7.93282 6.95345 0.25
403 7.83225 6.23782 0.779183 0.25
404 7.81737 6.72542 6.97666 0.25
405 0.403956 7.53029 0.198634 0.25
406 5.55736 0.107702 4.32841 0.25
407 2.26223 1.08298 8.06864 0.5
408 5.51703 3.28834 2.38877 0.25
409 2.40024 4.96191 0.99491 0.25
410 7.42048 0.964729 8.36464 0.5
411 4.40829 5.4102 5.1951 0.25
412 8.12157 7.11698 6.8619 0.25
413 1.34823 1.59852 0.458474 0.25
414 0.487121 3.09638 7.79134 0.5
415 6.5717 4.54366 2.98376 0.25
416 3.17796 2.97069 6.2717 0.25
417 3.52998 4.70571 3.82606 0.5
418 7.12859 6.70874 4.21722 0.25
419 4.03276 3.81509 5.973 0.25
420 0.821464 3.23682 4.86969 0.25
421 3.89493 4.84755 5.86597 0.25
422 2.41232 5.48251 0.893958 0.25
423 0.185577 0.418974 5.96771 0.25
424 0.47515 3.45165 4.61572 0.25
425 1.89525 2.83765 1.55454 0.5
426 7.03129 5.74264 5.02126 0.5
427 2.61605 2.24711 4.36506 0.25
428 4.1003 5.09316 3.6325 0.25
429 4.37133 4.65429 5.69962 0.25
430 1.93003 7.27192 3.50719 0.25
431 0.934633 3.43908 6.84269 0.25
432 1.62958 6.88175 4.11897 0.5
433 1.94073 1.74965 7.7165 0.25
434 0.898811 6.53829 1.23136 0.25
435 5.62666 3.47214 2.87369 0.25
436 1.15575 6.05575 2.97887 0.25
437 0.109283 1.12086 0.29519 0.25
438 1.02517 3.55271 5.12779 0.25
439 3.95203 2.53534 6.73633 0.25
440 4.85857 1.66655 7.63783 0.25
441 7.92536 4.1438 5.40469 0.25
442 2.59091 5.61984 1.30911 0.25
443 0.380831 2.84826 6.82967 0.5
444 2.03682 3.56944 1.60545 0.25
445 5.32426 7.26293 0.732186 0.25
446 4.36517 5.80152 3.50887 0.5
447 1.29175 1.51322 5.6808 0.25
448 5.97798 7.22461 5.79053 0.25
449 0.998324 5.4778 5.64722 0.25
450 2.85354 3.22803 1.06227 0.25
451 2.59962 7.0919 5.52556 0.25
452 2.37085 0.948548 0.442738 0.25
453 4.5635 4.54817 1.10938 0.25
454 0.0524423 3.35853 7.28394 0.25
455 7.93697 5.00971 7.60988 0.25
456 3.09636 1.8304 3.91994 0.25
457 2.43584 3.93742 7.26972 0.5
458 8.33616 7.54889 6.71014 0.25
459 5.05206 7.74844 -0.0514852 0.25
460 5.662 0.262244 4.79407 0.25
461 2.48425 3.4622 1.32375 0.25
462 6.33981 4.94133 3.16648 0.25
463 5.16495 7.35583 2.81839 0.25
464 7.33018 6.88558 6.99899 0.25
465 7.13141 2.65014 5.54772 0.25
466 3.91692 1.50563 3.01262 0.25
467 4.02974 6.25236 1.59782 0.25
468 6.92792 5.23154 2.9325 0.5
469 7.34426 7.38533 6.84598 0.25
470 1.23147 1.46117 8.36369 0.25
471 1.75776 0.855567 5.94981 0.25
472 2.01983 7.31688 2.03425 0.25
473 7.4057 5.22654 5.48759 0.25
474 5.05476 5.86541 5.98818 0.25
475 1.46853 1.2249 2.78131 0.25
476 7.41272 1.04774 7.62675 0.25
477 3.32022 5.44404 3.94473 0.25
478 6.21048 3.36267 7.00363 0.25
479 3.38623 7.38248 7.52663 0.25
480 4.8542 0.469388 2.21448 0.25
481 7.89836 2.13461 4.14474 0.25
482 7.11838 5.04863 4.59733 0.25
483 8.19423 5.6554 5.02952 0.25
484 2.73814 0.704541 0.110925 0.25
485 7.83635 7.50111 6.73581 0.25
486 2.43477 6.28801 5.99087 0.25
487 8.25982 7.78623 4.34407 0.25
488 4.41666 4.16644 6.01 0.25
489 0.669926 7.95281 0.150833 0.25
490 8.1306 8.03721 1.89701 0.25
491 4.52029 3.23882 1.07359 0.25
492 2.38657 1.81233 4.55964 0.25
493 6.24012 4.62735 7.01635 0.25
494 4.80917 7.48275 2.49935 0.25
495 1.19264 5.92216 5.78673 0.25
496 2.96144 7.86083 4.92679 0.25
497 6.33703 4.38256 7.8046 0.25
498 3.35906 2.92447 4.09652 0.25
499 0.513493 5.15593 7.36389 0.25
500 3.96835 2.91373 6.41829 0.25
501 5.81039 3.82457 4.03914 0.25
502 1.61255 7.95748 7.66717 0.25
503 6.06081 4.82464 2.49684 0.5
504 7.80382 7.70337 2.09498 0.25
505 5.82762 1.294 2.79345 0.25
506 7.13476 6.30171 4.58374 0.25
507 1.36255 0.305991 3.19865 0.25
508 0.703018 8.32909 5.4001 0.25
509 8.03822 4.8681 5.06418 0.5
510 4.93502 1.59054 5.94883 0.25
511 0.571483 0.323458 5.62714 0.25
512 0.946574 0.581093 3.09949 0.25
513 3.92185 1.18707 5.47594 0.25
514 1.89889 5.62898 6.08717 0.25
515 0.874471 7.9304 6.72595 0.25
516 7.3927 1.69738 6.0807 0.25
517 7.36646 5.48243 4.47613 0.25
518 0.954722 3.6448 4.57582 0.25
519 6.3978 1.91106 1.90282 0.25
520 6.8 2.03489 6.65429 0.25
521 7.73254 1.66034 0.18584 0.25
522 6.69929 1.5811 7.79233 0.25
523 5.23966 6.71376 5.4497 0.25
524 2.59673 0.482456 7.63179 0.25
525 6.33304 4.21668 7.25894 0.25
526 6.80287 5.33107 6.92722 0.25
527 7.47778 8.02716 4.13095 0.25
528 7.35421 1.39237 6.50869 0.25
529 6.62743 1.17789 2.89117 0.25
530 1.91655 1.62446 6.48045 0.25
531 7.9418 7.92836 3.95213 0.25
532 1.40545 0.738445 2.84938 0.25
533 7.19179 1.45294 7.81671 0.25
534 8.24542 5.88858 1.45567 0.25
535 0.393545 3.3013 5.45203 0.5
536 6.98954 2.80203 5.97473 0.25
537 3.97434 0.846722 5.85017 0.25
538 6.57748 5.19908 4.62005 0.25
539 2.27906 1.27965 6.36107 0.25
540 8.20503 6.47284 1.99786 0.5
541 7.65562 3.9346 1.63722 0.25
542 2.1015 2.20143 7.90007 0.25
543 3.22567 7.49092 7.10357 0.25
544 7.5131 6.54504 6.60885 0.25
545 1.26811 6.07343 3.98897 0.25
546 4.59682 6.04994 6.23891 0.25
547 4.98476 2.71908 8.28658 0.25
548 5.9114 7.45888 6.62658 0.25
549 0.160962 7.75429 7.12066 0.25
550 6.24966 7.06348 0.0634946 0.25
551 4.2738 1.63708 2.71794 0.25
552 3.73475 5.42151 3.77283 0.25
553 7.13741 7.69699 3.64597 0.5
554 4.49389 6.38798 3.00567 0.25
555 4.97285 6.69702 3.61644 0.5
556 7.21947 0.897592 0.758738 0.25
557 7.28109 4.94405 3.80939 0.5
558 6.44919 8.20583 3.51025 0.25
559 1.2799 0.376232 5.72709 0.5
560 5.04889 3.40629 2.25953 0.25
561 2.9274 3.15306 4.08263 0.25
562 5.08915 0.039337 5.38805 0.25
563 2.3366 6.42453 1.71569 0.25
564 6.09252 6.91974 0.816806 0.5
565 6.48596 1.67552 6.49735 0.25
566 1.2352 1.63952 2.51114 0.25
567 4.19716 6.12959 5.82711 0.25
568 6.19012 1.19882 3.19994 0.25
569 2.4715 8.26953 8.0841 0.25
570 1.99895 6.48681 4.68096 0.25
571 2.97059 4.42484 7.32005 0.25
572 8.1441 2.80771 3.94512 0.5
573 3.95375 1.34019 2.48513 0.25
574 1.46815 5.90489 6.22473 0.25
575 2.0158 1.76338 8.21547 0.25
576 4.16268 5.70672 7.46695 0.25
577 5.26578 0.3605 5.02302 0.25
578 2.08368 7.51181 3.91601 0.25
579 7.41621 5.22433 7.5629 0.25
580 7.37928 0.211016 4.64651 0.5
581 4.23482 4.64176 6.18521 0.25
582 5.82227 3.03416 4.52508 0.25
583 5.67897 3.70159 4.74429 0.5
584 4.79692 6.57336 5.58715 0.25
585 5.01602 3.15414 1.25763 0.25
586 1.75418 0.139138 2.51904 0.5
587 4.95289 6.99517 2.51892 0.25
588 5.87713 5.15384 3.29988 0.25
589 0.122605 2.48262 7.5093 0.25
590 3.68436 6.52955 1.83204 0.25
591 6.44598 1.4673 0.963639 0.25
592 7.42615 7.15845 1.69108 0.5
593 6.85567 6.78658 1.53041 0.25
594 1.91828 4.8985 0.0727535 0.5
595 0.534499 3.85065 7.83009 0.25
596 2.05667 0.87687 0.788717 0.25
597 8.34348 0.365625 5.22771 0.5
598 2.53401 6.39902 1.23115 0.25
599 1.99289 8.19374 7.97844 0.25
600 7.86995 0.97884 5.36376 0.25
601 0.614455 0.751423 5.41984 0.25
602 3.93022 0.158181 2.18456 0.25
603 4.23747 5.5429 7.91221 0.25
604 7.29265 5.18705 7.08589 0.25
605 7.89816 2.11491 3.66506 0.25
606 2.24575 8.07643 2.18808 0.25
607 4.38533 5.26884 7.5309 0.25
608 3.4996 7.82895 7.39699 0.25
609 6.77757 4.83813 4.34885 0.25
610 1.74638 1.32864 5.69717 0.25
611 2.89713 0.706683 7.96176 0.25
612 0.761241 7.13259 8.4068 0.25
613 6.93614 1.90298 8.12769 0.25
614 4.70339 0.982048 5.1339 0.25
615 4.82853 2.63583 3.81934 0.25
616 1.13092 5.60282 3.20736 0.25
617 1.42467 7.85254 2.31496 0.25
618 7.62954 7.28522 4.31781 0.5
619 7.87031 8.07898 4.43544 0.25
620 8.34349 7.40065 2.33503 0.5
621 4.32698 6.42054 3.96672 0.25
622 6.06183 6.63137 6.31678 0.25
623 5.42864 6.75328 0.758367 0.25
624 1.19302 3.45318 5.54142 0.25
625 1.15573 5.49092 7.75771 0.25
626 3.70657 0.473123 1.31914 0.25
627 4.92397 4.805 1.8968 0.25
628 8.3653 3.48938 2.4156 0.5
629 6.9714 3.31705 8.2578 0.25
630 1.15293 8.23354 3.01856 0.25
631 1.62153 1.46456 8.01248 0.25
632 7.66852 7.93111 1.61635 0.25
633 6.18137 7.63784 0.671346 0.25
634 3.08018 7.75957 4.05882 0.25
635 0.705231 7.04822 0.736824 0.5
636 1.43922 2.15184 1.36918 0.25
637 5.73458 0.3643 5.2539 0.25
638 4.81284 1.3609 5.50333 0.25
639 4.62906 1.88588 0.189588 0.25
640 5.2239 7.71412 0.443211 0.25
641 1.30898 6.58015 5.24376 0.25
642 3.59587 0.761211 5.47557 0.25
643 6.25613 6.78264 5.84997 0.25
644 5.80469 0.865173 3.00127 0.25
645 2.30659 2.22052 1.63001 0.25
646 8.03148 6.71535 6.55611 0.25
647 2.41528 3.08183 4.14746 0.25
648 5.256 1.26217 0.0619161 0.25
649 0.517143 4.16258 1.88747 0.25
650 0.0302494 3.79366 1.28097 0.25
651 3.26128 3.12705 3.67617 0.25
652 7.04519 0.720376 6.87239 0.25
653 1.34113 6.59547 0.989012 0.25
654 0.292733 2.55184 8.29382 0.25
655 3.53093 3.53915 6.55464 0.5
656 0.52694 3.45862 7.16994 0.25
657 1.43565 5.50511 5.88263 0.25
658 6.89128 0.0417352 3.65247 0.25
659 2.43355 1.8121 7.96075 0.25
660 6.98516 6.00352 3.98185 0.5
661 8.16555 1.05261 8.27971 0.25
662 3.95632 4.92342 4.42998 0.25
663 2.44447 3.71396 1.77713 0.25
664 6.611 2.77381 4.7943 0.25
665 7.89761 3.83167 1.18284 0.25
666 5.71002 6.95706 6.57376 0.25
667 6.60421 3.59325 8.38645 0.25
668 7.14855 6.46795 1.77326 0.25
669 5.86099 4.89506 7.20287 0.25
670 5.6659 8.13975 4.68029 0.25
671 3.46974 4.90622 4.53196 0.25
672 2.6675 3.32933 2.16156 0.25
673 0.639686 1.03447 3.07641 0.25
674 5.00184 7.40335 3.25612 0.25
675 5.50077 3.70032 5.51622 0.25
676 7.67443 8.18488 2.02761 0.25
677 6.33033 1.677 1.48274 0.25
678 7.49484 6.34034 4.87192 0.25
679 1.34048 6.3838 1.42227 0.25
680 3.77753 6.74638 8.02909 0.25
681 7.82561 -0.0125658 4.05636 0.25
682 2.58281 6.07909 1.56144 0.25
683 1.57715 7.54277 7.34099 0.25
684 0.477353 3.82771 1.46388 0.25
685 2.7695 3.2567 6.44599 0.25
686 4.33486 2.80719 6.72577 0.25
687 2.12146 4.27112 0.448788 0.25
688 3.46177 0.677853 5.9166 0.25
689 6.08408 4.10027 8.131 0.25
690 6.17281 1.01978 2.75443 0.25
691 7.00447 1.15414 1.75343 0.25
692 5.29261 5.11196 1.78221 0.25
693 7.26101 1.91811 6.52799 0.25
694 7.42865 5.21768 4.9796 0.25
695 8.29936 2.81693 5.82453 0.25
696 5.77112 5.93315 3.28239 0.5
697 4.27005 3.74279 6.3931 0.25
698 1.88438 0.886332 5.44713 0.25
699 1.58712 6.79109 4.88874 0.25
700 4.3155 5.78914 0.981248 0.25
701 4.76079 1.74037 8.09516 0.25
702 2.14127 4.53997 7.4119 0.25
703 3.40915 6.76366 7.3297 0.5
704 4.68396 5.2973 7.95341 0.25
705 4.99368 3.25907 1.78699 0.25
706 5.20271 0.198199 -0.00592957 0.25
707 4.68718 3.856 1.34221 0.5
708 5.66661 7.59163 7.75369 0.25
709 2.73432 7.04985 2.02733 0.5
710 2.07748 4.65167 6.96394 0.25
711 5.31986 6.45639 2.99364 0.25
712 0.382258 5.23179 7.82665 0.25
713 2.53172 4.17018 1.82534 0.25
714 5.1323 4.03751 0.81982 0.25
715 4.91418 6.55638 2.84392 0.25
716 6.89805 1.13292 7.82637 0.25
717 7.89474 7.80815 3.40261 0.25
718 6.0856 3.63367 6.64692 0.25
719 5.90043 4.5239 7.93289 0.25
720 1.77316 7.63103 4.25132 0.25
721 6.79376 1.77577 2.15209 0.25
722 2.54626 7.70224 3.41488 0.5
723 2.65418 7.54863 2.64715 0.25
724 7.19391 6.50649 1.29359 0.25
725 7.51814 6.34853 7.11931 0.25
726 1.03995 0.878603 5.22971 0.25
727 4.21096 0.490725 1.38166 0.25
728 3.73994 6.29498 7.87498 0.25
729 5.11614 5.9663 3.60063 0.25
730 2.86865 7.2569 7.31645 0.25
731 5.21873 3.25507 2.75848 0.25
732 3.98389 3.44184 7.12676 0.25
733 3.62861 5.66994 7.32863 0.25
734 3.77914 0.854047 2.64002 0.25
735 3.50073 2.84353 6.68829 0.25
736 7.83306 1.4735 8.16863 0.25
737 3.58722 0.628196 0.861944 0.25
738 0.175878 7.97633 0.182341 0.25
739 4.97011 6.11717 3.12957 0.25
740 5.47102 7.26242 3.21751 0.25
741 0.472314 7.74191 0.589347 0.25
742 3.73446 4.5499 6.23831 0.25
743 7.07265 0.947514 1.27677 0.25
744 4.23631 0.802996 2.53006 0.25
745 3.63241 4.09922 6.04241 0.25
746 1.411 6.0594 4.71577 0.5
747 4.3639 0.434582 2.19378 0.25
748 2.74572 6.82804 7.11252 0.25
749 1.53876 1.32021 2.26295 0.25
750 0.140548 3.44113 1.6445 0.25
751 1.17493 0.514185 4.91556 0.25
752 6.26728 4.86864 7.92378 0.25
753 3.8581 0.86544 1.90251 0.5
754 4.42321 6.04989 1.36996 0.25
755 2.81874 2.73128 1.61489 0.5
756 7.62383 6.78301 7.41434 0.25
757 5.77732 6.74319 5.57166 0.25
758 6.81436 4.04257 7.22866 0.25
759 4.27317 8.14273 5.05665 0.25
760 0.211184 2.70087 3.33939 0.25
761 3.69005 7.4077 7.08819 0.25
762 0.662678 1.62837 3.51573 0.5
763 3.99331 8.19276 1.82203 0.25
764 1.39985 6.24952 0.647362 0.25
765 7.65507 4.97973 3.1282 0.25
766 0.513002 4.45764 2.29741 0.25
767 2.67933 6.91086 7.63206 0.25
768 2.32941 3.12572 5.12323 0.25
769 8.06837 3.63848 1.60384 0.25
770 4.9173 0.991122 8.23748 0.25
771 6.59229 1.33334 6.1298 0.25
772 4.64582 2.50577 8.01841 0.25
773 5.4364 1.06547 5.04449 0.5
774 3.76812 8.24139 5.03987 0.25
775 7.92893 4.39226 2.66635 0.5
776 7.01151 3.89422 0.547955 0.5
777 6.0453 6.59836 0.111491 0.25
778 5.14438 8.16263 0.231445 0.25
779 8.32224 8.21365 4.155 0.25
780 2.08885 1.57525 5.97897 0.25
781 2.49413 1.67324 0.0476625 0.25
782 1.26469 7.56326 0.628366 0.25
783 6.8633 3.2137 0.367513 0.25
784 2.32752 7.61232 2.30889 0.25
785 2.34749 1.79436 6.35899 0.25
786 2.69895 7.86598 2.26247 0.25
787 7.67039 7.03676 6.65278 0.25
788 0.133577 4.17457 2.20693 0.25
789 3.73664 7.88661 4.59199 0.25
790 6.75225 0.31789 6.86899 0.25
791 0.584738 4.68731 3.0816 0.5
792 2.20077 0.276331 7.92767 0.25
793 8.20651 7.09386 1.63889 0.25
794 5.21748 6.57775 6.21402 0.5
795 2.40321 4.28492 3.21991 0.25
796 2.17505 5.85682 5.73442 0.25
797 6.71982 6.64807 1.09321 0.25
798 7.70479 4.3128 1.29583 0.25
799 4.15138 3.34789 6.15788 0.25
800 7.9619 2.094 3.15745 0.25
801 3.16483 8.00152 7.04931 0.25
802 3.64751 5.23734 4.25107 0.25
803 3.15556 0.00764351 7.76068 0.5
804 3.78104 6.93283 1.67774 0.25
805 1.88498 7.82328 2.07175 0.25
806 2.73239 1.85345 4.20398 0.25
807 4.73659 6.19241 5.26672 0.25
808 4.0072 2.04274 8.04049 0.25
809 1.69479 5.94607 5.782 0.25
810 6.37307 7.49995 6.52484 0.25
811 1.62637 3.38828 4.82474 0.5
812 5.67447 7.55901 0.555397 0.25
813 4.19049 1.91221 3.1295 0.25
814 1.50046 7.47896 7.78011 0.25
815 2.9275 8.05803 4.48194 0.25
816 1.09938 3.10235 5.29385 0.25
817 4.31982 1.66054 8.26969 0.25
818 3.69318 1.88723 3.2427 0.25
819 2.00145 5.21559 0.83995 0.25
820 3.04458 2.94614 6.70439 0.25
821 1.42699 2.16565 8.28085 0.5
822 5.938 4.41112 3.50084 0.5
823 5.2163 0.56247 8.02012 0.25
824 0.771457 0.372133 5.174 0.25
825 3.91725 6.13349 7.43379 0.25
826 3.14071 3.66715 1.64963 0.5
827 5.61494 7.29594 6.2049 0.25
828 0.36057 2.05656 7.55187 0.25
829 8.30892 8.17278 4.66679 0.25
830 0.907287 1.83547 2.88954 0.25
831 2.18403 4.37872 7.82754 0.25
832 5.6709 4.40855 1.96398 0.25
833 1.84362 1.26036 6.22505 0.25
834 4.03773 0.417535 2.53099 0.25
835 6.76459 1.71536 1.21476 0.25
836 3.33992 7.65974 7.87651 0.25
837 3.86568 5.2863 7.60245 0.25
838 7.51951 0.739121 1.13097 0.25
839 6.0732 7.6148 6.12895 0.25
840 6.85792 4.79366 7.43078 0.5
841 3.4661 6.89431 2.04674 0.25
842 0.200727 2.17483 2.83137 0.5
843 5.99703 3.89508 5.3612 0.25
844 4.60024 2.40484 0.122518 0.25
845 7.51444 2.62223 5.20772 0.25
846 3.38452 3.09357 7.3632 0.5
847 2.36963 5.13111 0.541332 0.25
848 1.86887 5.87892 5.31257 0.25
849 5.1751 7.79209 2.57155 0.25
850 6.3663 2.84948 5.45156 0.5
851 5.52094 8.32171 5.13393 0.25
852 7.08649 1.87904 7.6577 0.25
853 4.09353 8.28172 4.60495 0.25
854 4.22218 1.53008 6.01581 0.5
855 0.333477 4.00364 5.26939 0.25
856 0.700559 5.40717 3.22113 0.25
857 3.72667 6.55722 1.31711 0.25
858 2.74614 4.7373 3.82501 0.25
859 6.64341 4.52045 3.96018 0.25
860 7.6805 4.09571 0.862129 0.25
861 4.81277 2.91987 7.86391 0.25
862 6.63597 4.71188 3.46873 0.25
863 5.58426 6.35186 0.0308006 0.25
864 7.71898 6.89624 2.33858 0.25
865 3.77849 5.78833 7.80542 0.25
866 5.09364 8.16095 2.89599 0.25
867 1.78845 4.16115 7.57214 0.25
868 2.10745 1.69149 0.625622 0.5
869 0.96985 3.22544 7.24101 0.25
870 6.22088 5.43539 3.11075 0.25
871 2.76524 7.64983 6.99167 0.25
872 5.81134 3.09078 5.01825 0.25
873 0.34906 7.81938 8.15548 0.25
874 3.72347 0.999118 6.30444 0.25
875 2.31156 4.16445 1.17499 0.5
876 1.41146 5.68849 5.41309 0.25
877 8.28098 5.26851 7.87943 0.25
878 5.70805 1.02338 2.48286 0.25
879 3.32588 8.17602 4.73865 0.25
880 6.46074 5.8757 2.91372 0.25
881 7.45914 1.06602 1.50416 0.25
882 7.68616 7.20276 7.12155 0.25
883 0.584732 3.96556 2.32595 0.25
884 7.17005 3.22516 0.757992 0.25
885 0.727111 4.28118 5.13248 0.25
886 8.12983 7.49852 3.05299 0.25
887 1.25046 6.91212 1.28516 0.25
888 1.07142 4.73914 3.61352 0.25
889 1.45773 7.91694 2.82599 0.25
890 0.179352 4.66784 2.43565 0.25
891 0.951284 2.54527 7.72669 0.25
892 7.52521 3.58445 0.919882 0.25
893 0.933705 7.90219 0.613965 0.25
894 4.04412 5.80815 1.40006 0.25
895 3.82376 5.82013 0.874083 0.25
896 1.72555 1.45775 0.0644037 0.25
897 8.07302 4.11348 1.5451 0.25
898 0.661715 4.56601 3.84181 0.25
899 0.757105 8.23227 5.87513 0.25
900 5.1248 6.22582 5.62454 0.25
901 0.980709 1.37754 2.83985 0.25
902 7.34589 3.93455 1.23796 0.25
903 5.88479 3.66015 3.64577 0.25
904 6.84805 4.12726 7.74826 0.25
905 5.25179 0.854491 5.84387 0.25