ITEM: TIMESTEP
420000
ITEM: NUMBER OF ATOMS
1000
ITEM: BOX BOUNDS xy xz yz pp pp pp
0.0000000000000000e+00 8.3788359999999997e+00 0.0000000000000000e+00
0.0000000000000000e+00 8.3788359999999997e+00 0.0000000000000000e+00
0.0000000000000000e+00 8.3788359999999997e+00 0.0000000000000000e+00
ITEM: ATOMS id x y z radius
1 2.90547 6.94401 4.93186 0.25
2 4.67323 5.14578 5.0172 0.25
3 7.0631 4.69012 3.13939 0.25
4 7.37897 0.902878 5.86453 0.5
5 1.04546 5.57548 6.10229 0.25
6 8.33115 1.84853 3.35592 0.25
7 4.19041 3.24095 6.42201 0.25
8 4.80315 7.70405 3.06212 0.25
9 1.02688 6.17987 3.66357 0.25
10 4.24565 1.7609 3.32204 0.25
11 5.33506 8.28195 7.75452 0.25
12 5.28464 3.32332 1.5213 0.25
13 0.505694 2.46417 7.47545 0.25
14 3.59224 2.86008 7.13662 0.25
15 8.1867 2.80263 6.28197 0.25
16 7.31589 0.9724 6.72056 0.25
17 0.758356 5.55964 8.09273 0.25
18 5.81988 7.34448 8.06161 0.25
19 4.29838 1.82778 7.72759 0.25
20 7.63525 1.28293 0.481152 0.25
21 4.99337 4.13767 1.97696 0.25
22 4.0146 3.3308 1.09119 0.25
23 2.10351 3.433 2.01168 0.25
24 2.81672 1.41483 4.06427 0.25
25 2.53499 4.51608 3.07913 0.25
26 0.427964 8.12919 5.81064 0.25
27 3.86248 0.457448 5.81823 0.25
28 4.28245 2.1937 0.0129382 0.25
29 5.1167 6.89881 3.03796 0.25
30 7.49815 7.37638 2.35542 0.25
31 2.84764 0.298444 8.2222 0.25
32 0.84402 2.82319 7.38229 0.25
33 7.83831 0.440322 5.38527 0.25
34 2.25267 4.89258 1.58941 0.25
35 8.27187 8.36317 4.52241 0.25
36 6.86602 1.86212 5.59869 0.5
37 4.50818 1.10548 2.4449 0.25
38 2.20251 3.40546 4.37649 0.25
39 6.13785 2.60222 4.74429 0.25
40 5.31188 7.70569 3.18905 0.25
41 6.7761 2.14545 2.50213 0.25
42 5.5455 6.09622 5.49963 0.25
43 3.49201 7.74143 5.00503 0.25
44 3.74689 0.0770703 5.50993 0.25
45 5.74266 4.11373 4.0706 0.25
46 3.30515 5.97979 1.44892 0.5
47 4.90133 0.760758 5.4242 0.25
48 7.80867 6.42585 6.99904 0.25
49 7.40236 6.73287 4.76642 0.25
50 7.77491 0.988324 0.868347 0.25
51 2.70363 3.39979 4.46886 0.25
52 0.788398 1.63697 2.29703 0.25
53 6.49139 5.32494 6.92511 0.25
54 5.88136 3.26652 4.0919 0.25
55 1.48063 1.53984 5.94139 0.25
56 0.960963 7.45166 0.150288 0.25
57 4.75848 0.772096 2.18325 0.25
58 2.33393 2.10967 4.13751 0.25
59 4.60412 1.25051 6.42062 0.25
60 7.79721 5.50492 5.24574 0.25
61 4.94603 8.25222 8.17536 0.25
62 5.30362 1.97143 8.19702 0.5
63 7.44045 6.65301 1.06246 0.25
64 1.2325 6.14736 0.761313 0.25
65 4.21053 0.0793988 1.84366 0.25
66 2.18085 4.64697 7.17344 0.25
67 7.93983 5.1107 7.23707 0.25
68 7.1055 0.578449 6.43815 0.25
69 0.18555 5.61627 7.63826 0.25
70 1.96024 4.79175 0.739609 0.25
71 7.91002 1.35261 0.0752013 0.25
72 6.37489 6.21309 3.49266 0.25
73 0.449277 7.49488 6.79405 0.25
74 7.41324 5.70131 6.85615 0.25
75 7.38533 8.35431 3.47203 0.25
76 7.57191 6.43593 4.35248 0.25
77 5.68661 2.89076 5.45085 0.25
78 5.39596 3.74118 1.28486 0.25
79 7.68907 5.01015 4.51058 0.25
80 5.91219 3.31239 5.42247 0.25
81 7.06284 1.37443 1.24997 0.25
82 8.2572 2.85953 5.84103 0.25
83 4.38546 5.78349 5.65926 0.25
84 1.11643 1.17115 6.00559 0.25
85 1.58039 1.63306 5.45166 0.25
86 4.58375 8.34114 5.55399 0.25
87 1.7627 1.72806 1.30707 0.25
88 3.36407 6.80856 1.58591 0.25
89 6.73395 7.02743 0.696409 0.25
90 5.36318 6.54985 5.35801 0.25
91 4.03308 4.08656 6.1261 0.25
92 6.05426 4.51253 7.38773 0.25
93 4.814 6.63572 5.33948 0.25
94 7.00903 8.21682 4.21811 0.25
95 0.206596 4.63156 7.89017 0.5
96 5.40273 3.19005 3.56557 0.5
97 4.20366 4.84294 7.86552 0.25
98 8.22086 2.32643 3.33072 0.25
99 1.42679 6.26912 5.96327 0.25
100 7.06134 6.99396 1.06008 0.25
101 0.465984 8.15897 0.237621 0.25
102 7.94766 4.74694 3.33683 0.25
103 6.65453 1.15055 1.37992 0.25
104 0.794808 4.82118 7.43758 0.25
105 4.96013 5.86217 5.05066 0.5
106 5.30417 0.4144 4.71444 0.25
107 4.37714 3.17896 6.93079 0.25
108 4.93718 1.44738 0.0707925 0.25
109 0.537813 0.456529 6.22732 0.25
110 2.23805 8.02266 8.28731 0.25
111 3.4143 4.04079 6.95947 0.25
112 4.56623 2.10116 8.03499 0.25
113 1.80369 2.00263 1.96435 0.5
114 1.60938 3.84602 7.09238 0.25
115 4.73441 6.1327 6.28291 0.25
116 2.43844 7.17804 7.10669 0.25
117 4.19164 2.38541 3.77201 0.5
118 6.5329 7.09899 1.14783 0.25
119 0.859535 6.24736 2.84679 0.25
120 0.148806 2.83549 2.33439 0.25
121 3.04811 4.10637 3.65035 0.25
122 6.69849 0.709537 6.28724 0.25
123 5.30417 0.529416 5.60203 0.25
124 8.1563 8.02625 2.40486 0.25
125 3.47925 2.1394 3.83061 0.25
126 3.61556 1.25221 5.68505 0.25
127 5.31008 3.82472 1.74908 0.25
128 6.71815 5.49126 7.31287 0.25
129 1.13171 6.49297 4.01414 0.25
130 5.48541 6.23711 0.78359 0.25
131 6.99188 1.51722 6.21596 0.25
132 5.91178 4.11121 7.65937 0.25
133 3.23818 1.92702 3.39591 0.25
134 4.38991 2.54406 8.13909 0.25
135 5.4962 3.84924 3.68763 0.25
136 2.85779 2.50616 3.76984 0.5
137 2.82177 4.06866 3.20458 0.25
138 7.56011 7.90642 2.85778 0.5
139 2.5425 8.07084 4.8645 0.25
140 5.05676 7.89241 7.84338 0.25
141 7.86949 5.92667 5.00334 0.25
142 1.03783 4.97939 3.21197 0.25
143 2.26653 2.18945 8.26441 0.25
144 5.08052 0.971017 2.8697 0.5
145 7.52737 1.92149 3.86827 0.25
146 5.97542 7.40949 0.212663 0.25
147 6.60195 5.62988 4.57265 0.25
148 2.13617 2.85978 4.46755 0.25
149 4.50022 8.17223 2.57648 0.5
150 5.13637 2.90015 4.17152 0.25
151 3.57231 5.86729 7.19879 0.25
152 3.59012 4.67134 5.69309 0.25
153 6.68166 6.10265 2.27145 0.5
154 7.39188 2.45618 4.49587 0.5
155 2.98069 7.29303 7.71795 0.25
156 7.44067 3.63957 1.41797 0.25
157 7.53896 5.93598 1.46008 0.25
158 2.36049 3.65812 0.810522 0.25
159 7.17473 7.85673 4.52563 0.25
160 6.46941 1.9766 2.82666 0.25
161 0.969008 5.19751 2.77714 0.25
162 5.79575 4.14047 7.16264 0.25
163 3.37967 3.74725 4.19555 0.5
164 2.43323 3.86897 2.58815 0.5
165 5.5238 7.86668 7.63673 0.25
166 0.0780262 3.89088 8.0595 0.25
167 6.52356 4.17555 8.37634 0.25
168 4.79627 5.96853 5.80128 0.25
169 3.99198 4.31336 5.71717 0.25
170 0.289887 2.74337 6.10968 0.25
171 7.67819 5.92015 0.930601 0.25
172 0.990354 3.04271 6.9346 0.25
173 4.29821 6.14491 5.96297 0.25
174 2.38339 2.3526 1.05902 0.25
175 7.69795 2.29906 5.8893 0.5
176 2.21086 5.83481 6.26117 0.25
177 5.48911 3.61926 4.15839 0.25
178 3.22118 6.50487 1.92084 0.25
179 3.55275 2.32046 3.35174 0.25
180 5.83775 6.46444 5.61528 0.25
181 6.54946 4.08379 6.81701 0.25
182 3.10789 5.20787 3.33693 0.25
183 8.11136 7.51807 1.7213 0.25
184 4.24741 5.17406 8.25626 0.25
185 5.83647 6.79865 6.0228 0.25
186 7.57429 5.93706 4.53219 0.25
187 3.3818 5.34913 4.22837 0.25
188 0.879285 5.92583 3.23956 0.25
189 4.17118 6.5393 3.62639 0.25
190 4.05824 3.19118 1.52078 0.25
191 6.9053 1.50277 0.416852 0.5
192 0.838245 5.1284 7.81039 0.25
193 3.96698 5.69435 1.69832 0.25
194 2.74296 6.39285 1.88517 0.25
195 6.25034 5.61599 2.7569 0.25
196 2.33138 7.94729 2.67179 0.25
197 1.15014 8.27071 2.56686 0.25
198 7.59849 4.77368 7.04856 0.25
199 1.12811 1.1669 3.07892 0.25
200 4.54159 5.1547 1.53039 0.5
201 6.54159 1.60008 3.14542 0.25
202 8.33129 3.86091 5.47039 0.25
203 3.74968 1.82212 3.50753 0.25
204 5.634 8.00176 8.31742 0.5
205 2.54733 7.43379 4.46781 0.5
206 0.426509 4.46718 5.14686 0.25
207 5.68739 2.81918 4.14072 0.25
208 6.95052 5.33204 4.43866 0.25
209 5.29754 7.00667 8.37936 0.5
210 1.94403 7.97472 3.04044 0.25
211 0.689571 3.75936 4.99881 0.25
212 1.45637 7.93264 8.22407 0.5
213 0.0869214 4.22297 2.57766 0.25
214 1.85371 7.9614 2.53579 0.25
215 2.79401 4.20676 4.05917 0.25
216 6.40556 1.85039 2.3483 0.25
217 4.94457 3.6723 2.1183 0.25
218 2.3623 3.14908 4.74877 0.25
219 4.42245 1.3063 2.98238 0.25
220 3.59302 3.60242 1.01011 0.25
221 4.13708 0.0140681 5.73169 0.25
222 7.64788 0.856118 5.11574 0.25
223 8.05924 2.7702 2.56028 0.25
224 7.23206 5.44463 7.31249 0.25
225 7.44372 2.03452 5.22031 0.25
226 4.79604 2.0101 7.62474 0.25
227 6.35785 3.65399 7.0382 0.25
228 5.49166 3.19634 4.38327 0.25
229 5.69176 4.97274 1.88195 0.25
230 0.288147 8.15154 6.55067 0.5
231 5.31821 4.51366 1.39699 0.5
232 1.96605 3.09298 4.06233 0.25
233 4.12619 5.03507 3.9693 0.25
234 6.52744 1.15184 6.4779 0.25
235 3.1831 7.34053 4.79081 0.25
236 0.739194 2.55794 7.89749 0.25
237 8.17612 3.02536 7.42356 0.25
238 3.37923 0.53848 1.67283 0.25
239 0.279682 2.23906 3.47692 0.25
240 6.65006 6.37326 1.46559 0.25
241 3.3967 7.17386 7.93949 0.25
242 1.8676 7.31275 2.73733 0.5
243 2.7503 4.814 3.41796 0.25
244 6.99504 3.63324 1.13064 0.25
245 2.12893 1.09476 6.02241 0.25
246 7.69303 8.00907 3.72 0.25
247 3.5545 2.64607 3.72519 0.25
248 3.59116 3.17291 1.31704 0.25
249 8.35423 5.23861 7.50612 0.25
250 1.22615 3.18562 5.34233 0.25
251 5.36468 2.62292 4.79851 0.5
252 3.23758 2.0858 4.26592 0.25
253 7.84293 5.7834 7.44774 0.5
254 7.04943 5.84726 7.16957 0.25
255 4.61239 0.623802 6.02745 0.5
256 5.88568 6.18611 0.506979 0.25
257 1.12758 0.350304 2.80608 0.25
258 1.7251 1.70076 2.62615 0.25
259 4.49948 2.9948 1.73294 0.25
260 7.75179 6.31803 1.21543 0.25
261 3.55549 0.16454 1.30493 0.25
262 3.5785 2.46437 4.18985 0.25
263 2.20401 0.359875 0.189245 0.5
264 2.67878 4.37305 3.55493 0.25
265 0.956659 4.05974 7.4041 0.5
266 1.06538 8.04463 7.1307 0.5
267 5.03759 2.704 8.21621 0.25
268 6.39378 7.68378 0.29658 0.25
269 1.94393 5.30364 0.939602 0.25
270 3.79338 3.60934 1.44802 0.25
271 7.65137 7.84833 4.74244 0.25
272 1.69969 0.950259 2.51465 0.25
273 1.25263 3.44924 7.04963 0.25
274 0.722565 5.60914 7.63265 0.25
275 4.65545 4.41056 1.68342 0.25
276 2.33901 3.15324 0.963786 0.25
277 6.81966 0.82828 6.76183 0.25
278 3.87421 6.21592 1.08351 0.25
279 4.23906 0.489936 5.10067 0.5
280 8.04194 8.12298 4.90253 0.25
281 1.15608 6.58201 0.527441 0.25
282 6.24517 7.03737 6.13898 0.25
283 0.862861 0.258546 6.57163 0.25
284 7.39146 4.33764 0.71016 0.25
285 1.94589 6.06399 1.11537 0.5
286 5.57601 6.73699 3.29974 0.25
287 1.54088 7.97332 3.63468 0.5
288 2.8881 7.39147 5.16674 0.25
289 2.48994 7.15869 5.17356 0.25
290 2.01434 3.97417 1.93463 0.25
291 8.23628 7.57112 7.36025 0.25
292 7.7331 2.45606 3.27085 0.25
293 7.52643 4.4891 3.3241 0.25
294 5.90349 3.68469 3.4328 0.25
295 8.17254 4.08025 0.94779 0.25
296 0.449213 4.17434 4.47012 0.5
297 3.91212 3.02201 6.8203 0.25
298 6.23975 5.25867 7.37217 0.25
299 5.84363 4.96234 7.50767 0.25
300 6.37314 4.07281 0.497781 0.25
301 0.751984 7.83617 8.2988 0.25
302 0.167504 4.20442 1.36227 0.25
303 3.8396 0.920933 1.09159 0.25
304 2.1356 2.34401 4.50735 0.25
305 0.702785 5.06491 8.29919 0.25
306 2.35407 1.93364 4.60258 0.25
307 1.52513 4.85303 7.63 0.5
308 3.60848 5.77733 3.18705 0.25
309 4.43382 1.10112 5.47767 0.25
310 0.815997 4.73333 4.15569 0.25
311 7.41795 8.35757 3.93094 0.25
312 1.01855 0.912882 2.31577 0.5
313 1.05683 3.66927 5.36401 0.25
314 5.48071 3.83861 3.19106 0.25
315 1.14191 5.23941 8.1702 0.25
316 1.7814 4.35922 7.16712 0.25
317 7.55553 2.39942 3.73587 0.25
318 2.22968 2.63143 4.06754 0.25
319 4.79385 7.43614 7.88519 0.25
320 1.87005 6.141 6.09112 0.25
321 4.24431 0.710696 1.19043 0.25
322 7.25591 6.48124 5.11034 0.25
323 0.862551 6.08649 4.12288 0.25
324 4.08328 7.27633 7.66941 0.5
325 0.898865 1.79383 0.243327 0.25
326 3.9325 4.85287 5.08717 0.5
327 7.58884 7.26468 3.35172 0.25
328 2.29804 7.85293 1.82954 0.25
329 1.32219 5.88649 3.44734 0.25
330 8.19709 7.07531 7.45449 0.25
331 0.873685 5.39615 3.84978 0.5
332 7.34558 6.50194 2.1123 0.25
333 1.21396 1.57427 1.98984 0.25
334 6.78499 1.53891 1.66421 0.25
335 3.23125 3.1544 0.996738 0.25
336 2.85518 7.02317 6.82442 0.25
337 4.37098 7.10673 3.10712 0.5
338 6.28514 7.51109 8.24696 0.25
339 2.17728 7.9767 4.04236 0.25
340 4.9707 0.543805 4.98564 0.25
341 6.93606 8.24042 3.21785 0.25
342 0.980034 5.27496 7.31094 0.25
343 2.83559 1.41476 0.131805 0.25
344 1.3397 5.55091 2.66519 0.25
345 0.503145 1.47914 2.64325 0.25
346 0.377785 2.60562 8.34299 0.25
347 3.41857 5.86447 7.64185 0.25
348 7.35265 7.79384 2.07737 0.25
349 0.718717 2.21789 8.26937 0.25
350 6.76455 1.64982 2.65622 0.25
351 1.48749 6.90373 0.569217 0.25
352 6.50846 3.58719 7.81369 0.5
353 2.36394 0.0924837 7.52001 0.25
354 1.80008 0.853315 5.62446 0.25
355 0.70531 0.0845367 6.06002 0.25
356 1.90645 1.80419 5.80948 0.25
357 2.93437 3.97459 6.74999 0.25
358 6.32427 3.3497 5.20227 0.25
359 4.13199 1.13121 6.50982 0.25
360 1.97588 2.1984 1.23835 0.25
361 0.890215 7.91637 0.374778 0.25
362 6.07087 3.94551 6.81829 0.25
363 7.94348 4.1035 1.91619 0.25
364 5.98649 3.71905 7.30591 0.25
365 5.47897 5.89711 0.428094 0.25
366 5.16997 6.23902 0.373653 0.25
367 2.64783 4.39519 6.83391 0.25
368 6.38335 3.34166 0.13862 0.25
369 1.1457 6.958 0.214041 0.25
370 5.26712 0.270726 8.06738 0.25
371 2.45293 8.20724 4.40749 0.25
372 2.37412 4.62656 0.668669 0.25
373 7.03107 2.76586 5.10083 0.25
374 3.57832 4.44003 4.4871 0.25
375 5.1216 0.765912 7.94476 0.25
376 2.68293 5.90883 1.01293 0.25
377 6.43063 1.12392 2.11992 0.5
378 0.216436 3.89677 7.59863 0.25
379 4.91313 1.27858 7.99252 0.25
380 2.43714 6.74026 4.86313 0.25
381 4.05744 5.34048 5.65341 0.25
382 2.04687 7.06498 4.90599 0.25
383 6.2816 5.23157 3.97043 0.5
384 1.32781 1.71929 1.48238 0.25
385 6.86531 1.58331 6.95169 0.5
386 1.40382 1.18598 5.60523 0.25
387 7.42857 0.828937 0.520391 0.25
388 0.855725 5.72049 2.78478 0.25
389 4.28248 2.55752 7.38675 0.5
390 3.93946 0.76099 6.23961 0.25
391 5.46427 4.70554 2.15589 0.25
392 8.11771 2.67722 3.04215 0.25
393 2.94049 6.57935 1.45074 0.25
394 0.210201 8.24974 0.641541 0.25
395 2.28708 1.84266 1.28984 0.25
396 4.55036 7.88334 7.99832 0.25
397 5.21232 0.65784 0.0360414 0.25
398 7.24956 1.66869 8.164 0.25
399 3.03633 4.44465 3.21919 0.25
400 4.80833 4.23253 0.836033 0.25
401 2.28386 7.0844 3.76256 0.25
402 8.17511 7.96284 7.14569 0.25
403 7.56902 6.34308 0.720663 0.25
404 7.84741 6.88773 7.20049 0.25
405 0.512853 7.88273 0.660016 0.25
406 5.82664 0.451666 4.57868 0.25
407 2.31556 1.1421 7.96204 0.5
408 5.52902 3.2959 2.50613 0.25
409 2.31875 4.9895 1.0854 0.25
410 7.50561 0.98287 8.12465 0.5
411 4.35614 5.49866 5.25322 0.25
412 8.03864 7.24105 6.99869 0.25
413 1.40307 1.76217 0.348774 0.25
414 0.366174 3.17606 7.85736 0.5
415 6.52812 4.68513 3.00812 0.25
416 2.97393 3.04799 6.60615 0.25
417 3.36266 4.73791 3.84322 0.5
418 7.14671 6.73839 4.30363 0.25
419 3.90886 3.75971 5.80988 0.25
420 0.89542 3.09336 4.53631 0.25
421 4.07192 4.79712 5.8179 0.25
422 2.41593 5.47555 0.92869 0.25
423 0.301309 0.18338 5.8843 0.25
424 0.499818 3.41104 4.76921 0.25
425 1.88763 2.86654 1.45538 0.5
426 7.15188 5.71573 5.06313 0.5
427 2.79417 1.85199 4.31911 0.25
428 3.92904 5.0946 3.49884 0.25
429 4.42095 4.46465 5.58523 0.25
430 1.88114 7.26554 3.53453 0.25
431 0.783131 3.51444 6.83893 0.25
432 1.63347 7.03043 4.22451 0.5
433 1.92606 1.77915 7.68873 0.25
434 0.841484 6.44558 0.920637 0.25
435 5.73381 3.49453 2.98921 0.25
436 1.27854 5.96033 2.9557 0.25
437 8.25565 1.07009 0.0779967 0.25
438 0.946253 3.34552 4.96506 0.25
439 3.79671 2.55345 6.78168 0.25
440 4.97697 1.57962 7.62048 0.25
441 8.02312 4.28106 5.39767 0.25
442 2.57066 5.64457 1.39699 0.25
443 0.259773 2.92967 6.86584 0.5
444 1.97937 3.58516 1.5698 0.25
445 5.22713 7.15555 0.711225 0.25
446 4.25238 5.74159 3.54259 0.5
447 1.40096 2.00765 5.73422 0.25
448 5.86313 7.27627 5.88566 0.25
449 1.04024 5.39301 5.63647 0.25
450 2.76441 3.35593 0.957056 0.25
451 2.64235 6.65545 5.30889 0.25
452 2.47049 1.08002 0.291331 0.25
453 4.60245 4.44379 1.19105 0.25
454 8.28319 3.4821 7.34534 0.25
455 7.94492 5.0421 7.762 0.25
456 3.156 1.74756 3.91836 0.25
457 2.35074 3.85795 7.21763 0.5
458 8.2986 7.56802 6.82457 0.25
459 4.95625 7.72164 8.26158 0.25
460 5.89333 0.269882 5.02508 0.25
461 2.4214 3.53063 1.28363 0.25
462 6.28734 4.99266 3.25267 0.25
463 5.09516 7.35326 2.92207 0.25
464 7.34976 7.02335 7.36502 0.25
465 7.06694 2.55637 5.5028 0.25
466 4.2415 1.79184 2.79485 0.25
467 3.98435 6.21062 1.55893 0.25
468 6.89259 5.39788 3.03277 0.5
469 7.33359 7.5697 7.26514 0.25
470 1.217 1.5138 8.32559 0.25
471 1.63026 1.07035 6.04423 0.25
472 2.09549 7.40273 1.91701 0.25
473 7.59197 5.15793 5.40721 0.25
474 5.20778 5.77788 5.71403 0.25
475 1.44116 1.2948 2.72199 0.25
476 7.12388 0.928513 7.18193 0.25
477 3.22374 5.44354 3.74491 0.25
478 6.16951 3.21824 7.24389 0.25
479 3.36482 7.29496 7.43916 0.25
480 4.91635 0.382617 2.4757 0.25
481 7.88862 2.13813 4.06882 0.25
482 7.13491 4.97395 4.6934 0.25
483 8.26242 5.60091 5.01582 0.25
484 2.83019 0.842853 0.025252 0.25
485 7.83996 7.63933 7.06135 0.25
486 2.37392 6.25321 5.97747 0.25
487 8.36095 7.63509 4.32681 0.25
488 4.39672 3.98888 5.8249 0.25
489 0.696058 8.3595 0.59206 0.25
490 8.17296 7.9458 1.89758 0.25
491 4.4268 3.05312 1.23317 0.25
492 2.34986 1.62302 4.22703 0.25
493 6.15445 4.44792 6.90836 0.25
494 4.7666 7.47113 2.59935 0.25
495 1.16516 5.89536 5.7796 0.25
496 3.00176 7.78501 4.89826 0.25
497 6.39015 4.33591 7.67776 0.25
498 3.38766 2.88447 4.18488 0.25
499 0.502654 5.232 7.40379 0.25
500 3.84029 2.92056 6.36236 0.25
501 6.29578 4.09797 4.09904 0.25
502 1.76483 8.05545 7.53355 0.25
503 5.91349 5.00533 2.62269 0.5
504 7.80657 7.72952 2.14674 0.25
505 5.82369 1.26998 2.74328 0.25
506 7.19143 6.30351 4.62396 0.25
507 1.355 0.365239 3.23716 0.25
508 0.736671 0.088765 5.5995 0.25
509 8.21553 4.88923 5.06786 0.5
510 4.98336 1.71407 5.68241 0.25
511 0.66533 0.517878 5.73107 0.25
512 0.97654 0.732729 3.06245 0.25
513 3.97103 1.19361 5.29711 0.25
514 1.88216 5.58806 6.05623 0.25
515 0.841694 7.71625 6.50176 0.25
516 7.4746 1.61642 5.99894 0.25
517 7.38626 5.42064 4.51695 0.25
518 0.930768 3.59119 4.56081 0.25
519 6.44221 1.79414 1.84218 0.25
520 6.76243 1.99734 6.28229 0.25
521 7.642 1.71882 0.164787 0.25
522 6.60741 1.54699 7.71581 0.25
523 5.09867 6.73854 5.71508 0.25
524 2.59985 0.456863 7.87036 0.25
525 6.2944 4.10338 7.26126 0.25
526 6.99925 5.42825 6.86347 0.25
527 7.51272 8.01965 4.22966 0.25
528 7.41344 1.39594 6.50615 0.25
529 6.61682 1.18281 2.91463 0.25
530 2.16927 1.92479 6.26407 0.25
531 8.11287 7.82661 3.92784 0.25
532 1.41101 0.795456 2.9468 0.25
533 7.10301 1.55884 7.72991 0.25
534 7.98945 5.85271 1.33696 0.25
535 0.455471 3.22686 5.54296 0.5
536 6.9498 2.45892 6.02119 0.25
537 3.99552 0.932054 5.75721 0.25
538 6.65395 5.16528 4.73957 0.25
539 2.28303 1.43353 6.45929 0.25
540 8.0608 6.31536 1.93226 0.5
541 7.62019 4.06023 1.53017 0.25
542 2.10045 2.20874 7.84238 0.25
543 3.22697 7.39519 6.97061 0.25
544 7.34833 6.7178 6.96148 0.25
545 1.322 6.0088 3.93975 0.25
546 5.00352 5.70171 6.19203 0.25
547 5.03134 2.59867 0.319005 0.25
548 6.18883 7.15765 6.60027 0.25
549 0.312966 7.75556 7.19501 0.25
550 6.11113 7.01847 8.36054 0.25
551 4.59817 1.56256 2.58122 0.25
552 3.73051 5.34116 3.88401 0.25
553 7.05924 7.70518 3.70737 0.5
554 4.43625 6.4062 3.18715 0.25
555 4.9276 6.64164 3.69392 0.5
556 6.98267 0.752715 0.724858 0.25
557 7.30198 4.98624 3.8711 0.5
558 6.53586 8.24535 3.55727 0.25
559 1.31094 0.439922 6.0096 0.5
560 5.05826 3.30691 2.45287 0.25
561 2.95626 3.11811 4.14963 0.25
562 5.36116 -0.00646032 5.5321 0.25
563 2.41735 6.62042 1.51249 0.25
564 5.95892 6.90237 0.71846 0.5
565 6.48544 1.60039 6.30044 0.25
566 1.24731 1.71113 2.44452 0.25
567 4.49973 5.71705 6.14534 0.25
568 6.16355 1.20958 3.15982 0.25
569 2.48334 8.36932 7.99153 0.25
570 1.98718 6.57144 4.75764 0.25
571 3.00169 4.26071 7.13946 0.25
572 8.21435 2.7596 3.81993 0.5
573 4.11228 1.35047 2.57112 0.25
574 1.44656 5.81135 6.19165 0.25
575 2.0495 1.79402 8.15399 0.25
576 4.22065 5.6825 7.63434 0.25
577 5.38904 0.295828 5.15159 0.25
578 2.04252 7.49866 3.92139 0.25
579 7.51741 5.03941 7.47213 0.25
580 7.54603 0.193963 4.65654 0.5
581 4.38575 4.4853 6.06047 0.25
582 5.9276 2.97856 4.5353 0.25
583 5.94687 3.68901 4.69904 0.5
584 4.71112 6.45406 5.87554 0.25
585 4.89278 2.9816 1.44885 0.25
586 1.82918 0.244881 2.71399 0.5
587 4.86961 6.96463 2.6605 0.25
588 5.8224 5.15632 3.36963 0.25
589 8.36012 2.53397 7.51874 0.25
590 3.6767 6.51631 1.82276 0.25
591 6.3064 1.28219 0.992776 0.25
592 7.46267 7.15318 1.69055 0.5
593 6.75857 6.88015 1.50676 0.25
594 2.15349 4.65108 0.00287625 0.5
595 0.587665 3.85949 8.0167 0.25
596 2.13572 0.996457 0.625834 0.25
597 0.156793 0.221569 5.17705 0.5
598 2.68248 6.38516 1.08781 0.25
599 2.02906 8.26154 7.89602 0.25
600 8.01182 0.910388 5.38604 0.25
601 0.732316 0.907566 6.05104 0.25
602 4.06545 0.229374 2.25816 0.25
603 4.25083 5.63155 8.12498 0.25
604 7.51613 5.24614 7.0264 0.25
605 7.88805 2.06725 3.5914 0.25
606 2.22481 8.15117 2.19387 0.25
607 4.47612 5.29574 7.82689 0.25
608 3.51836 7.70281 7.25172 0.25
609 6.74126 4.80734 4.40261 0.25
610 1.83254 1.32431 5.72457 0.25
611 2.97357 0.698773 7.94134 0.25
612 0.516732 7.59766 0.267051 0.25
613 6.47322 1.44221 8.22 0.25
614 4.78484 1.03491 5.08512 0.25
615 4.86989 2.69748 3.78418 0.25
616 1.17892 5.52911 3.1647 0.25
617 1.39138 7.83412 2.39324 0.25
618 7.65535 7.28253 4.233 0.5
619 7.99943 7.95246 4.40609 0.25
620 8.24382 7.25935 2.37289 0.5
621 4.26251 6.35025 4.11874 0.25
622 6.21669 6.53305 5.99916 0.25
623 5.22266 6.65722 0.644832 0.25
624 1.02995 2.85021 5.04941 0.25
625 1.1642 5.53058 7.77101 0.25
626 3.77605 0.584996 1.47077 0.25
627 4.98493 4.59057 2.04992 0.25
628 8.18145 3.50917 2.34804 0.5
629 6.67939 3.14821 0.514082 0.25
630 1.18843 8.28092 3.09152 0.25
631 1.63573 1.51141 7.93738 0.25
632 7.72745 7.90432 1.73005 0.25
633 6.04704 7.65206 0.582601 0.25
634 3.07539 7.80124 4.04317 0.25
635 0.866773 7.23646 0.829138 0.5
636 1.47047 2.18774 1.31559 0.25
637 5.74593 0.336187 5.48487 0.25
638 4.90059 1.22567 5.5868 0.25
639 4.61671 1.85075 0.106744 0.25
640 5.09971 7.58892 0.379247 0.25
641 1.21865 6.62693 5.25683 0.25
642 3.65251 0.794238 5.46743 0.25
643 6.16033 6.87929 5.67465 0.25
644 5.82462 0.807625 2.97029 0.25
645 2.44058 2.24003 1.53179 0.25
646 7.77372 6.85588 6.71191 0.25
647 2.4682 3.02634 4.18728 0.25
648 5.27682 1.13304 8.26662 0.25
649 0.37767 4.20954 1.8502 0.25
650 8.33185 3.74472 1.28397 0.25
651 3.2622 3.15342 3.76067 0.25
652 7.16412 0.44954 6.89779 0.25
653 1.36384 6.56193 0.963122 0.25
654 0.86594 2.7418 8.29239 0.25
655 3.50555 3.55381 6.39069 0.5
656 0.379848 3.5472 7.23866 0.25
657 1.49029 5.42944 5.86474 0.25
658 6.94518 0.0805835 3.70447 0.25
659 2.43116 1.86539 7.81684 0.25
660 6.97319 6.0308 4.00484 0.5
661 8.0974 1.28384 7.9562 0.25
662 3.88214 4.78354 4.35369 0.25
663 2.39327 3.75243 1.78691 0.25
664 6.66364 2.60444 4.80352 0.25
665 7.83375 3.78836 1.16621 0.25
666 6.07142 6.69154 6.44591 0.25
667 6.37958 3.61135 0.538801 0.25
668 7.0256 6.49965 1.77975 0.25
669 6.14993 4.8997 7.11152 0.25
670 5.62469 0.0296756 4.72773 0.25
671 3.46809 4.96143 4.53173 0.25
672 2.64482 3.38188 2.02492 0.25
673 0.676121 1.07327 2.89776 0.25
674 4.99022 7.35159 3.40106 0.25
675 5.60738 3.69714 5.38313 0.25
676 7.79264 8.18675 2.12934 0.25
677 6.31217 1.53437 1.4451 0.25
678 7.61106 6.29416 4.86066 0.25
679 1.20486 6.20811 1.22628 0.25
680 3.69637 6.71264 7.95805 0.25
681 7.96112 8.29657 4.10273 0.25
682 2.57581 6.1653 1.48422 0.25
683 1.7956 7.85412 7.11917 0.25
684 0.435214 3.80693 1.51215 0.25
685 2.84446 3.47978 6.79217 0.25
686 4.26767 2.76106 6.66865 0.25
687 2.46034 4.10966 0.552386 0.25
688 3.52681 0.802417 5.91703 0.25
689 6.12895 4.17456 8.0848 0.25
690 6.21299 0.986045 2.73585 0.25
691 7.0782 1.05923 1.6522 0.25
692 5.19701 5.08023 1.88353 0.25
693 7.27222 1.85207 6.29243 0.25
694 7.53379 5.16347 4.95696 0.25
695 0.0436431 3.1955 6.14645 0.25
696 5.68468 5.91427 3.29949 0.5
697 4.2829 3.67357 6.1576 0.25
698 1.7145 1.19639 5.26285 0.25
699 1.56165 6.77156 4.90278 0.25
700 3.84572 5.43248 1.27754 0.25
701 4.67452 1.66401 8.01337 0.25
702 2.11437 4.4068 7.56443 0.25
703 3.30433 6.60804 7.37587 0.5
704 4.63591 4.89853 8.08086 0.25
705 4.97398 3.21001 1.89027 0.25
706 5.10627 0.145892 0.179529 0.25
707 4.6203 3.69824 1.40579 0.5
708 5.31932 7.5029 7.89005 0.25
709 2.76584 7.14053 1.93311 0.5
710 2.11331 4.41443 6.71457 0.25
711 5.23092 6.41066 3.09588 0.25
712 0.371383 5.30742 7.90189 0.25
713 2.50976 4.1884 1.91795 0.25
714 5.1582 3.89823 0.830888 0.25
715 4.76965 6.50919 2.86736 0.25
716 6.91477 1.14117 7.59763 0.25
717 7.86089 7.60003 3.54554 0.25
718 5.91955 3.46619 6.86562 0.25
719 5.9394 4.5873 7.85092 0.25
720 1.82138 7.72284 4.33391 0.25
721 6.83415 1.77065 2.15209 0.25
722 2.53795 7.69675 3.38352 0.5
723 2.57823 7.52292 2.58269 0.25
724 7.02697 6.5368 1.31521 0.25
725 7.54486 6.5267 7.35668 0.25
726 0.982484 0.932103 5.61491 0.25
727 4.09672 0.285489 1.4203 0.25
728 3.70549 6.21367 7.9373 0.25
729 4.9818 5.8822 3.62836 0.25
730 2.90693 7.15768 7.3074 0.25
731 5.25878 3.44897 2.90071 0.25
732 4.18249 3.63948 6.68754 0.25
733 3.73454 5.56975 7.48902 0.25
734 4.29523 0.855202 2.7569 0.25
735 3.42759 2.86877 6.69424 0.25
736 7.77548 1.64839 8.06159 0.25
737 3.41315 0.63309 1.145 0.25
738 0.527972 8.16355 1.01452 0.25
739 4.86493 6.11278 3.18706 0.25
740 5.41333 7.18023 3.31157 0.25
741 0.960394 8.01109 0.830583 0.25
742 3.81582 4.56447 6.12294 0.25
743 7.02227 0.86041 1.2095 0.25
744 4.43486 0.570495 2.43493 0.25
745 3.58417 4.16863 5.92152 0.25
746 1.38213 6.06596 4.68818 0.5
747 4.57211 0.353974 2.058 0.25
748 2.65989 6.72415 7.19675 0.25
749 1.60107 1.34945 2.23603 0.25
750 0.0634296 3.49109 1.66791 0.25
751 1.36844 0.746868 5.2876 0.25
752 6.30649 4.84355 7.65306 0.25
753 4.03216 0.870238 1.97979 0.5
754 4.18252 5.46337 0.949274 0.25
755 2.86211 2.83212 1.48089 0.5
756 7.73705 6.90522 7.67545 0.25
757 5.63411 6.89807 5.61627 0.25
758 6.79797 3.97612 7.22907 0.25
759 4.21689 8.20344 5.31927 0.25
760 0.225858 2.64677 3.18411 0.25
761 3.67051 7.24764 7.03733 0.25
762 0.639946 1.6193 3.37377 0.5
763 3.85504 8.16454 2.05219 0.25
764 1.59687 6.40099 0.547214 0.25
765 7.51592 4.99821 3.1423 0.25
766 0.414405 4.54431 2.26369 0.25
767 2.60767 6.94766 7.58593 0.25
768 2.11309 2.795 4.92034 0.25
769 7.95369 3.66687 1.61037 0.25
770 4.8419 0.927717 8.32522 0.25
771 6.71343 1.1858 5.99081 0.25
772 4.84686 2.46628 7.88841 0.25
773 5.57559 0.989028 5.10387 0.5
774 3.77635 8.17399 5.03777 0.25
775 7.73904 4.50809 2.62582 0.5
776 7.04497 3.76849 0.35575 0.5
777 5.94316 6.52564 0.0921747 0.25
778 4.8877 8.04757 0.254001 0.25
779 0.0486923 8.08961 4.18062 0.25
780 2.30866 1.58377 5.9618 0.25
781 2.54574 1.79802 8.32097 0.25
782 1.38191 7.32515 0.339493 0.25
783 6.58001 3.42037 0.937022 0.25
784 2.27095 7.64847 2.28534 0.25
785 2.64848 1.73648 6.30534 0.25
786 2.65036 7.8827 2.20825 0.25
787 7.54101 7.22679 6.93883 0.25
788 8.33601 4.30501 2.15053 0.25
789 3.7521 7.92962 4.61916 0.25
790 6.70035 0.367773 6.71702 0.25
791 0.356217 4.74466 3.03397 0.5
792 2.10601 0.396132 7.84607 0.25
793 8.25997 7.03991 1.70791 0.25
794 5.39396 6.33882 6.14669 0.5
795 2.29848 4.16225 3.30633 0.25
796 2.10603 5.90414 5.76056 0.25
797 6.60718 6.65629 1.05109 0.25
798 7.73589 4.28953 1.10354 0.25
799 4.02879 3.24101 5.98464 0.25
800 7.92505 2.01727 3.08784 0.25
801 3.10951 7.91932 7.05336 0.25
802 3.82907 5.25251 4.35339 0.25
803 3.13137 8.34145 7.66586 0.5
804 3.79008 6.98991 1.66199 0.25
805 1.83533 7.81896 2.06583 0.25
806 2.64269 1.81678 3.85217 0.25
807 4.5067 6.24737 5.47976 0.25
808 4.03013 2.17648 7.94442 0.25
809 1.64975 5.87118 5.78765 0.25
810 6.51106 7.42955 6.33166 0.25
811 1.5948 3.31804 4.74685 0.5
812 5.58666 7.46665 0.539774 0.25
813 4.41642 2.18415 3.06345 0.25
814 1.56292 7.63819 7.47076 0.25
815 2.93387 8.06638 4.46292 0.25
816 0.617657 2.96272 4.90551 0.25
817 4.21286 1.76835 8.20567 0.25
818 3.94729 2.0857 3.10453 0.25
819 2.17872 5.36514 1.39018 0.25
820 3.21509 3.22335 7.00596 0.25
821 1.42888 2.17642 8.15277 0.5
822 6.00659 4.35102 3.46121 0.5
823 4.84228 0.415083 8.20795 0.25
824 0.893877 0.521133 5.33007 0.25
825 3.87966 6.03894 7.53733 0.25
826 3.07862 3.73718 1.55357 0.5
827 5.74437 7.05489 6.3826 0.25
828 0.280729 2.37216 7.91931 0.25
829 0.126235 7.94171 4.69355 0.25
830 0.863931 1.86741 2.72585 0.25
831 2.1332 4.04498 7.89162 0.25
832 5.83058 4.49568 1.97174 0.25
833 1.88981 1.49791 6.24418 0.25
834 4.01701 0.459678 2.67296 0.25
835 6.68254 1.62072 1.13143 0.25
836 3.43038 7.62509 7.75822 0.25
837 3.95484 5.28857 7.88902 0.25
838 7.42847 0.621162 0.998234 0.25
839 6.03854 7.499 6.29758 0.25
840 6.81344 4.73723 7.13649 0.5
841 3.48799 6.90879 2.06754 0.25
842 0.162289 2.15989 2.71701 0.5
843 6.12957 3.72598 5.41835 0.25
844 4.74586 2.37393 0.0156915 0.25
845 7.43193 2.48165 5.21689 0.25
846 3.82343 3.53124 7.32497 0.5
847 2.30316 5.14777 0.588379 0.25
848 1.80338 5.92349 5.29169 0.25
849 5.14031 7.80544 2.72715 0.25
850 6.36096 2.67596 5.49269 0.5
851 5.62657 8.29226 5.21423 0.25
852 6.79623 1.83048 8.08092 0.25
853 4.23696 8.13913 4.81406 0.25
854 4.26584 1.62136 5.88846 0.5
855 0.39194 4.0116 5.31001 0.25
856 0.717765 5.41491 3.14384 0.25
857 3.70559 6.62963 1.31365 0.25
858 2.60973 4.71472 3.90063 0.25
859 6.60938 4.52826 3.95366 0.25
860 7.72356 3.94645 0.745548 0.25
861 4.66574 2.91815 7.93858 0.25
862 6.64328 4.72891 3.49773 0.25
863 5.51661 6.19619 8.35158 0.25
864 7.62835 6.89966 2.38127 0.25
865 3.79898 5.75229 7.95538 0.25
866 5.09441 8.1196 3.12856 0.25
867 1.6941 4.08483 7.55478 0.25
868 2.14094 1.75152 0.551008 0.5
869 0.823905 3.30269 7.29838 0.25
870 6.1884 5.4461 3.19071 0.25
871 2.70808 7.53335 6.99241 0.25
872 5.91898 3.02313 5.05281 0.25
873 0.450136 0.260026 0.912939 0.25
874 3.71998 1.22653 6.16673 0.25
875 2.12198 4.22096 1.24786 0.5
876 1.39111 5.63834 5.42134 0.25
877 8.27979 5.3609 7.9685 0.25
878 5.77812 0.845083 2.4884 0.25
879 3.34125 8.14163 4.81108 0.25
880 6.36012 5.95609 3.05843 0.25
881 7.44895 1.02361 1.27924 0.25
882 7.75298 7.31058 7.41726 0.25
883 0.364238 4.00861 2.24756 0.25
884 7.03838 3.20482 0.851852 0.25
885 0.881271 4.17468 5.21881 0.25
886 8.03555 7.40986 3.11616 0.25
887 1.0468 6.66225 1.3408 0.25
888 0.913397 4.7035 3.60673 0.25
889 1.45303 7.95755 2.85766 0.25
890 0.0259789 4.74061 2.355 0.25
891 0.978495 2.35222 7.53394 0.25
892 7.45626 3.55235 0.926165 0.25
893 1.32079 7.77348 0.514268 0.25
894 4.15406 5.81865 1.2576 0.25
895 3.75907 5.77491 0.951408 0.25
896 1.69155 1.51455 0.0311099 0.25
897 8.08966 4.10759 1.43405 0.25
898 0.473786 4.69523 3.82728 0.25
899 1.04474 8.21503 6.39656 0.25
900 5.03426 6.27897 5.56172 0.25
901 0.933447 1.46146 2.73091 0.25
902 7.36734 3.96856 1.10167 0.25
903 5.92165 3.72486 3.90985 0.25
904 6.897 4.21154 7.63739 0.25
905 5.28005 0.966537 5.81726 0.25