ITEM: TIMESTEP
730000
ITEM: NUMBER OF ATOMS
1000
ITEM: BOX BOUNDS xy xz yz pp pp pp
0.0000000000000000e+00 8.3788359999999997e+00 0.0000000000000000e+00
0.0000000000000000e+00 8.3788359999999997e+00 0.0000000000000000e+00
0.0000000000000000e+00 8.3788359999999997e+00 0.0000000000000000e+00
ITEM: ATOMS id x y z radius
1 2.47182 6.99369 5.00213 0.25
2 4.83097 5.20446 4.95199 0.25
3 7.16641 4.62409 3.28251 0.25
4 7.41801 1.0923 5.879 0.5
5 1.09001 5.5359 6.2307 0.25
6 8.18142 1.73699 3.37521 0.25
7 4.28564 3.19659 6.52422 0.25
8 4.77143 7.64786 3.08149 0.25
9 0.85814 6.19791 3.75488 0.25
10 3.93125 1.48392 3.41362 0.25
11 5.46753 0.0825995 7.92241 0.25
12 5.16047 3.43023 1.3727 0.25
13 0.612487 2.3696 7.48487 0.25
14 3.85044 2.79047 7.0862 0.25
15 8.15634 3.01185 5.9223 0.25
16 7.52256 1.05315 6.73611 0.25
17 0.865537 5.35099 8.37524 0.25
18 6.14325 7.50768 8.2253 0.25
19 4.60308 1.83734 7.54884 0.25
20 7.73606 1.41991 0.630979 0.25
21 4.85434 4.16272 1.76089 0.25
22 4.20994 3.2338 1.20963 0.25
23 2.20075 3.35473 2.01663 0.25
24 2.9042 2.03564 4.64147 0.25
25 2.80137 4.51573 3.00624 0.25
26 0.394372 8.37561 5.64597 0.25
27 3.94248 0.379957 5.81639 0.25
28 4.22863 2.3611 8.14389 0.25
29 5.08761 6.87165 3.02829 0.25
30 7.5031 7.29575 2.35254 0.25
31 2.81893 0.432147 8.031 0.25
32 0.995186 2.71489 7.38861 0.25
33 7.71135 0.281034 5.18306 0.25
34 2.03448 5.60767 1.66518 0.25
35 7.98343 0.240223 4.44331 0.25
36 6.78186 1.91896 5.80512 0.5
37 4.0095 1.36985 2.19959 0.25
38 2.03378 3.39115 4.28097 0.25
39 6.09899 2.5652 4.73407 0.25
40 5.23186 7.65329 3.233 0.25
41 6.54399 2.18317 2.73261 0.25
42 5.59023 6.1872 5.56096 0.25
43 3.46682 7.80552 4.82287 0.25
44 3.79435 8.35408 5.50355 0.25
45 5.53493 3.99465 3.99586 0.25
46 3.19969 6.00527 1.45051 0.5
47 5.02529 0.945751 5.47937 0.25
48 8.15898 6.35734 6.83904 0.25
49 7.37125 6.81728 4.74343 0.25
50 7.875 1.35228 1.13577 0.25
51 2.49925 3.45027 4.42533 0.25
52 0.644359 1.61934 2.38014 0.25
53 6.50018 5.14622 6.99038 0.25
54 5.82106 3.19553 3.97973 0.25
55 1.68822 1.08469 6.00853 0.25
56 1.28625 7.2378 0.240047 0.25
57 4.62742 0.700078 2.02581 0.25
58 2.25886 2.15811 4.15809 0.25
59 4.76693 1.13921 6.46031 0.25
60 7.78161 5.54896 5.33778 0.25
61 5.09082 8.07372 7.95689 0.25
62 5.24357 1.9618 0.0745796 0.5
63 7.63959 6.54189 1.22282 0.25
64 1.11913 6.1462 0.980039 0.25
65 4.29105 0.00846934 1.85468 0.25
66 2.19337 4.90124 7.14836 0.25
67 8.32226 4.93558 7.32624 0.25
68 7.34539 0.724393 6.49321 0.25
69 0.388272 5.54307 7.65686 0.25
70 1.68517 4.8382 1.03841 0.25
71 8.11558 1.34362 0.288683 0.25
72 6.49117 6.16176 3.44408 0.25
73 0.592874 7.75241 6.81106 0.25
74 7.40793 5.6863 6.91265 0.25
75 7.09707 8.3351 3.29699 0.25
76 7.53176 6.48471 4.37847 0.25
77 5.53165 2.83849 5.33141 0.25
78 5.34417 3.80151 1.0376 0.25
79 7.76903 5.14757 4.55157 0.25
80 5.72933 3.28773 5.31946 0.25
81 7.01139 1.34136 1.0649 0.25
82 8.37142 2.60621 5.90527 0.25
83 4.45815 5.753 5.66858 0.25
84 1.1468 1.13139 5.98299 0.25
85 1.4857 1.1172 5.20169 0.25
86 4.64034 0.087539 5.37627 0.25
87 1.78063 2.39797 0.807373 0.25
88 3.19353 6.79749 1.63184 0.25
89 6.85939 7.32422 0.97763 0.25
90 5.37827 6.6231 5.51476 0.25
91 4.15981 4.19475 6.23884 0.25
92 6.2881 4.67892 7.48408 0.25
93 4.87577 6.64926 5.51841 0.25
94 6.7334 0.268945 3.9858 0.25
95 0.38001 4.51796 7.82093 0.5
96 5.42569 3.08164 3.38198 0.5
97 4.10807 5.0898 8.29396 0.25
98 8.31316 2.21859 3.40349 0.25
99 1.46216 6.33013 5.95318 0.25
100 6.9299 6.8681 1.04954 0.25
101 0.737979 7.71518 8.22311 0.25
102 7.94692 4.67499 3.4303 0.25
103 6.61054 1.08685 1.38529 0.25
104 1.01395 4.74794 7.59672 0.25
105 5.00312 5.98868 5.12918 0.5
106 5.29764 0.444086 4.506 0.25
107 4.28539 3.08959 7.01468 0.25
108 4.73373 1.36028 8.18581 0.25
109 0.734489 0.902015 5.74868 0.25
110 2.27471 8.02397 8.29589 0.25
111 3.1695 3.80829 6.93132 0.25
112 4.56984 2.07768 7.9848 0.25
113 1.64717 1.96286 1.83344 0.5
114 1.7922 3.73514 7.35469 0.25
115 4.8059 6.03566 6.39443 0.25
116 2.53527 7.21124 7.03844 0.25
117 4.15666 2.15763 3.58024 0.5
118 6.60896 7.14345 1.36075 0.25
119 1.02144 6.35579 3.29359 0.25
120 8.37567 2.87696 2.96566 0.25
121 3.10052 4.10844 3.67613 0.25
122 6.83997 0.746978 6.36896 0.25
123 5.32068 0.531231 5.52691 0.25
124 7.97946 8.04526 2.37435 0.25
125 3.39504 2.09891 3.83953 0.25
126 3.67331 1.20426 5.87653 0.25
127 5.24544 3.87861 1.51038 0.25
128 6.73538 5.53986 7.29815 0.25
129 1.09023 6.46417 4.19616 0.25
130 5.97145 6.11856 0.340856 0.25
131 7.03446 1.59043 6.34031 0.25
132 6.01984 4.23144 7.58476 0.25
133 3.03823 1.83767 3.63896 0.25
134 4.47987 2.7254 8.30036 0.25
135 5.37516 3.84925 3.4888 0.25
136 2.83427 2.57277 3.7023 0.5
137 2.87555 4.04636 3.23188 0.25
138 7.47697 7.76773 2.9032 0.5
139 2.52508 7.66986 5.1519 0.25
140 5.18693 7.59523 7.9553 0.25
141 7.79004 5.99412 5.14375 0.25
142 0.993444 5.05935 3.2555 0.25
143 2.25911 2.13934 8.27678 0.25
144 4.99969 1.13653 2.62277 0.5
145 7.47816 1.91736 3.92444 0.25
146 6.05578 7.41552 0.319387 0.25
147 6.51916 5.64575 4.55444 0.25
148 2.23102 3.06757 4.64426 0.25
149 4.52074 8.20513 2.58686 0.5
150 5.07956 2.77842 4.00238 0.25
151 3.32502 5.91211 7.28411 0.25
152 3.76891 4.64243 5.66442 0.25
153 6.72216 5.96996 2.25975 0.5
154 7.30137 2.43848 4.52547 0.5
155 3.03316 7.26698 7.7671 0.25
156 7.41611 3.54703 1.44142 0.25
157 7.65195 5.85758 1.59416 0.25
158 2.53261 3.74517 0.892694 0.25
159 7.09753 7.85247 4.41067 0.25
160 6.40039 1.79196 3.01225 0.25
161 0.885514 5.23983 2.8522 0.25
162 5.9629 4.47636 7.12155 0.25
163 3.28286 3.76101 4.32461 0.5
164 2.66031 3.88577 2.55192 0.5
165 5.49011 7.91487 7.74688 0.25
166 0.0830181 3.75916 7.75929 0.25
167 6.64183 4.04842 8.15062 0.25
168 4.86465 5.91095 5.9242 0.25
169 4.12087 4.32674 5.72607 0.25
170 8.25417 2.77502 6.34421 0.25
171 7.88892 5.71627 1.17735 0.25
172 1.23847 2.92049 6.96809 0.25
173 4.39548 6.06081 6.10697 0.25
174 2.24155 2.36192 0.986511 0.25
175 7.59425 2.48571 5.96846 0.5
176 2.32769 5.90679 6.28923 0.25
177 5.39409 3.55449 3.93831 0.25
178 2.96887 6.48901 1.94661 0.25
179 3.38738 2.08724 3.31784 0.25
180 5.8708 6.66496 5.66399 0.25
181 6.68831 4.27621 6.87412 0.25
182 3.23728 5.295 3.42734 0.25
183 7.91344 7.58348 1.66279 0.25
184 3.70971 5.3469 8.32415 0.25
185 5.80826 6.90122 6.10037 0.25
186 7.51472 6.02319 4.6242 0.25
187 2.93743 5.35641 4.18736 0.25
188 0.798846 5.89237 3.34441 0.25
189 4.06035 6.52456 3.39905 0.25
190 3.97524 3.62448 1.31428 0.25
191 7.01649 1.58951 0.374711 0.5
192 1.038 5.02369 7.98204 0.25
193 3.96251 5.42643 1.09063 0.25
194 2.58989 6.20575 1.77106 0.25
195 6.23388 5.58091 2.72472 0.25
196 2.21683 8.06734 2.63826 0.25
197 1.15987 0.255235 2.19264 0.25
198 7.81335 4.9559 7.34324 0.25
199 1.12696 1.3476 3.1437 0.25
200 4.56 5.29299 1.58558 0.5
201 6.63932 1.36642 3.02129 0.25
202 8.22187 3.86492 5.43263 0.25
203 3.50492 1.68994 3.55587 0.25
204 5.6182 7.99783 0.122426 0.5
205 2.46315 7.50156 4.44998 0.5
206 0.359382 4.44839 5.27584 0.25
207 5.61796 2.73775 3.98526 0.25
208 6.95269 5.38144 4.4229 0.25
209 5.48284 7.05668 8.37575 0.5
210 1.81112 8.13325 2.96518 0.25
211 0.600811 3.74682 5.0322 0.25
212 1.50457 7.98075 8.37569 0.5
213 0.112537 4.08234 2.82323 0.25
214 1.75912 8.08456 2.4671 0.25
215 2.77142 4.30382 3.96786 0.25
216 6.14791 1.89131 2.5986 0.25
217 4.89931 3.63193 1.72892 0.25
218 2.33734 3.45245 4.96378 0.25
219 4.18526 0.902367 2.80856 0.25
220 3.53468 3.59888 0.956503 0.25
221 4.24514 0.00317312 5.68534 0.25
222 7.48634 0.705427 5.18582 0.25
223 8.10815 2.67864 2.62467 0.25
224 7.27642 5.5545 7.38202 0.25
225 7.2942 2.19434 5.34192 0.25
226 5.02241 2.13803 7.69866 0.25
227 6.43193 3.85592 6.90681 0.25
228 5.4027 3.10111 4.16895 0.25
229 5.72841 5.00797 1.89285 0.25
230 0.322965 8.33786 6.447 0.5
231 5.38216 4.56388 1.34274 0.5
232 1.90382 2.90952 4.32872 0.25
233 3.89508 5.25327 4.37394 0.25
234 6.61292 1.47641 6.50982 0.25
235 3.20776 7.37278 4.70222 0.25
236 0.908226 2.47872 7.89016 0.25
237 8.34073 2.99523 7.4 0.25
238 3.48019 0.682963 1.18084 0.25
239 0.310932 2.41511 3.70247 0.25
240 6.68563 6.15398 1.48132 0.25
241 3.46596 7.12929 7.97747 0.25
242 1.66197 7.45248 2.72458 0.5
243 2.92871 4.88312 3.36272 0.25
244 7.02625 3.44239 1.12816 0.25
245 2.17933 1.13491 5.90101 0.25
246 7.5293 8.18597 3.59438 0.25
247 3.56175 2.46845 3.51688 0.25
248 3.74935 3.20918 1.09725 0.25
249 0.300665 5.19036 7.27047 0.25
250 1.3484 3.67889 5.37983 0.25
251 5.30632 2.54555 4.63166 0.5
252 3.20526 2.28587 4.30218 0.25
253 8.06227 5.70209 7.34694 0.5
254 7.45362 6.03856 7.23212 0.25
255 4.71966 0.4841 5.97442 0.5
256 5.54452 6.27514 0.086231 0.25
257 1.11031 0.13514 2.67729 0.25
258 1.60387 1.70578 2.5365 0.25
259 4.38999 3.44989 1.61294 0.25
260 7.96447 6.14898 1.34425 0.25
261 4.08827 8.08079 1.52245 0.25
262 3.54917 2.52423 4.01008 0.25
263 2.3251 0.325583 0.247724 0.5
264 2.7263 4.40198 3.51207 0.25
265 1.13778 3.97526 7.54502 0.5
266 0.964977 7.67093 7.50923 0.5
267 5.2252 2.59463 7.82648 0.25
268 6.35217 7.81765 0.277351 0.25
269 1.45291 5.27355 0.960667 0.25
270 4.02273 3.55385 0.782187 0.25
271 7.53259 7.95368 4.6486 0.25
272 1.72981 1.08932 2.56846 0.25
273 1.50505 3.38169 7.15195 0.25
274 0.859073 5.53773 7.87556 0.25
275 4.64425 4.5698 1.52373 0.25
276 2.67592 3.2715 1.14895 0.25
277 6.63865 1.03801 6.71056 0.25
278 3.9424 6.2162 1.301 0.25
279 4.16222 0.552692 5.13439 0.5
280 7.86438 8.31431 4.85562 0.25
281 0.915025 6.49326 0.63469 0.25
282 6.17308 7.18307 6.1934 0.25
283 0.99542 0.222726 6.25405 0.25
284 7.25538 4.38739 0.967906 0.25
285 1.84776 5.94028 1.01424 0.5
286 5.44643 6.62588 3.25286 0.25
287 1.45349 7.82927 3.53784 0.5
288 2.86473 7.28651 5.09268 0.25
289 2.13282 7.31697 5.1642 0.25
290 2.03271 3.84054 2.00431 0.25
291 8.2668 7.61468 7.19066 0.25
292 7.61766 2.4564 3.27995 0.25
293 7.58246 4.41111 3.43113 0.25
294 5.29167 3.69734 3.02375 0.25
295 8.12772 4.16649 1.15434 0.25
296 0.541357 4.20654 4.59125 0.5
297 3.87205 3.1137 6.72566 0.25
298 6.41401 5.20071 7.51447 0.25
299 6.01765 5.02064 7.70073 0.25
300 6.43857 3.34059 0.334983 0.25
301 1.08263 7.38091 8.16612 0.25
302 0.104023 4.10171 1.51093 0.25
303 3.8904 0.964796 1.07908 0.25
304 2.07692 2.6341 4.75874 0.25
305 0.759866 4.85595 8.34054 0.25
306 2.38458 2.21017 4.66537 0.25
307 1.7552 4.76055 7.74057 0.5
308 3.41989 4.88496 3.24238 0.25
309 4.49538 1.04538 5.5177 0.25
310 1.09675 4.70412 4.1706 0.25
311 7.19821 0.0835087 3.81826 0.25
312 0.916027 0.914325 2.46513 0.5
313 0.818985 3.72868 5.48529 0.25
314 5.16304 3.32173 2.64614 0.25
315 1.08033 4.53514 8.04675 0.25
316 1.82018 4.22151 7.19253 0.25
317 7.45758 2.38314 3.77487 0.25
318 2.33142 2.59821 4.33685 0.25
319 4.81862 7.26565 8.06245 0.25
320 1.90723 6.13796 6.1482 0.25
321 4.25328 0.670097 1.22464 0.25
322 7.19158 6.60733 5.17732 0.25
323 0.835023 6.04515 4.22205 0.25
324 4.1708 7.2622 7.66815 0.5
325 0.804565 1.93159 0.302223 0.25
326 4.14926 4.80404 5.03226 0.5
327 7.32172 7.37682 3.5258 0.25
328 2.17635 7.76812 1.84852 0.25
329 1.26072 5.98341 3.47722 0.25
330 8.34976 7.15125 7.36723 0.25
331 0.955118 5.41648 3.93533 0.5
332 7.39079 6.52549 2.1045 0.25
333 0.98153 1.48789 2.00617 0.25
334 6.61644 1.58679 1.26556 0.25
335 3.17851 3.16575 0.999827 0.25
336 2.95441 7.10929 6.85748 0.25
337 4.27255 7.12574 2.97601 0.5
338 6.55412 7.38385 0.134532 0.25
339 2.00829 7.94219 4.00984 0.25
340 4.87907 0.599336 4.74237 0.25
341 6.59824 8.3431 3.17845 0.25
342 1.16252 5.27047 7.61403 0.25
343 2.80516 1.44374 0.316101 0.25
344 1.23109 5.58124 2.74382 0.25
345 0.375387 1.40634 2.7855 0.25
346 0.443827 2.37664 7.94428 0.25
347 3.32031 5.99629 7.78436 0.25
348 7.22141 7.67466 2.13816 0.25
349 0.762516 2.23131 8.28396 0.25
350 6.60303 1.69201 2.59875 0.25
351 1.49655 7.06964 0.659994 0.25
352 6.39566 3.57211 7.61382 0.5
353 2.49054 0.0438602 7.54118 0.25
354 2.01505 0.702606 5.95947 0.25
355 0.653244 0.526006 6.08278 0.25
356 1.82525 1.86214 6.16534 0.25
357 2.99584 4.06453 6.54392 0.25
358 6.17122 3.33643 5.13311 0.25
359 4.31985 0.953777 6.3337 0.25
360 1.9574 2.10269 1.19549 0.25
361 0.978432 7.64037 0.303037 0.25
362 6.21403 4.25955 6.773 0.25
363 7.877 3.99763 2.08184 0.25
364 6.03685 3.97181 7.14302 0.25
365 5.5004 6.08843 0.573132 0.25
366 5.55284 6.49255 0.900347 0.25
367 2.97921 4.27367 7.03883 0.25
368 7.00353 3.73889 8.14624 0.25
369 1.23303 6.73291 0.378869 0.25
370 5.49331 0.378818 8.34693 0.25
371 2.67181 8.12161 4.89197 0.25
372 2.04553 4.73507 0.724204 0.25
373 6.96802 2.84798 5.05365 0.25
374 3.7161 4.44992 4.46682 0.25
375 5.43822 0.875323 8.1813 0.25
376 2.56677 5.783 1.07192 0.25
377 6.30392 1.51663 1.939 0.5
378 0.430889 3.88062 7.4352 0.25
379 5.19477 1.36891 7.9694 0.25
380 2.3613 6.71894 4.63308 0.25
381 4.16881 5.33189 5.60275 0.25
382 2.01235 7.03006 4.8043 0.25
383 6.32517 5.23627 3.99245 0.5
384 2.13122 1.68911 1.35599 0.25
385 7.06587 1.49221 7.15164 0.5
386 1.42046 1.30712 5.63592 0.25
387 7.89221 0.939465 0.827666 0.25
388 0.777749 5.74411 2.89085 0.25
389 4.50465 2.62671 7.48145 0.5
390 4.00479 0.612907 6.27841 0.25
391 5.41561 4.71848 2.12439 0.25
392 8.0969 2.48815 3.13214 0.25
393 2.73753 6.61255 1.47386 0.25
394 0.819967 8.21796 8.1191 0.25
395 2.51308 1.95586 1.14646 0.25
396 4.67333 7.77689 8.00859 0.25
397 5.0499 0.668549 0.0742278 0.25
398 7.46177 1.49642 8.1654 0.25
399 3.18961 4.43325 3.32214 0.25
400 4.97691 4.5977 0.685891 0.25
401 2.29241 7.19491 3.76216 0.25
402 8.19358 8.0391 6.95804 0.25
403 7.86284 6.15957 0.918034 0.25
404 8.09991 6.81482 7.08688 0.25
405 0.504984 7.66744 0.26477 0.25
406 5.47846 0.0183094 4.25462 0.25
407 2.54541 1.09415 8.09408 0.5
408 5.47869 3.26544 2.27974 0.25
409 2.13518 4.94193 1.20968 0.25
410 7.59367 0.820604 0.183123 0.5
411 4.49756 5.4841 5.2338 0.25
412 8.29116 7.21671 6.87581 0.25
413 1.14023 1.57486 0.342777 0.25
414 0.5031 3.15372 7.84379 0.5
415 6.50777 4.61165 3.06234 0.25
416 3.04197 3.02816 6.47647 0.25
417 3.38664 4.76276 3.95482 0.5
418 7.08363 6.73735 4.31046 0.25
419 4.11132 3.86757 5.89843 0.25
420 0.779504 3.07413 4.78958 0.25
421 4.17769 4.8726 5.7538 0.25
422 2.2868 5.40463 1.2687 0.25
423 0.200846 0.430165 5.83361 0.25
424 0.455479 3.38974 4.80395 0.25
425 1.85588 2.8206 1.39191 0.5
426 7.12352 5.76155 5.07952 0.5
427 2.67916 2.24707 4.30141 0.25
428 4.07876 5.13668 3.86699 0.25
429 4.54142 4.55511 5.57666 0.25
430 1.89516 7.2187 3.48276 0.25
431 1.0788 3.46861 6.91523 0.25
432 1.70715 6.80659 4.10371 0.5
433 2.36998 1.61937 7.69297 0.25
434 0.934218 6.61024 1.13966 0.25
435 5.63543 3.43822 2.75854 0.25
436 1.17446 6.00093 2.99874 0.25
437 0.237538 1.20697 0.426748 0.25
438 0.92467 3.38619 5.13716 0.25
439 3.73429 2.61059 6.65625 0.25
440 5.12655 1.61306 7.56133 0.25
441 7.95252 4.27073 5.37465 0.25
442 2.41164 5.7889 1.53494 0.25
443 0.456964 2.88623 6.9089 0.5
444 2.08315 3.58038 1.59402 0.25
445 5.43031 6.92618 0.696092 0.25
446 4.2176 5.75376 3.39237 0.5
447 1.45639 1.52813 6.06968 0.25
448 5.7582 7.39719 6.0454 0.25
449 1.00126 5.50631 5.74025 0.25
450 3.0197 3.65273 0.953996 0.25
451 2.49258 7.19142 5.43131 0.25
452 2.42787 1.0673 0.443149 0.25
453 4.65079 4.69479 1.03393 0.25
454 0.156582 3.45012 7.31745 0.25
455 8.08395 5.02372 7.74439 0.25
456 3.00709 1.90416 4.1101 0.25
457 2.46534 3.81323 7.07229 0.5
458 0.0876239 7.67314 6.7707 0.25
459 4.95231 7.61248 0.0386947 0.25
460 5.62167 0.19425 4.72106 0.25
461 2.55054 3.69095 1.38149 0.25
462 6.30189 4.93506 3.32134 0.25
463 5.08121 7.3055 2.9204 0.25
464 7.59011 6.91568 7.11828 0.25
465 7.00397 2.6163 5.51271 0.25
466 3.8796 1.27455 2.96707 0.25
467 3.86752 6.16948 1.77959 0.25
468 6.89787 5.27321 3.04517 0.5
469 7.45108 7.37361 6.90673 0.25
470 0.681018 1.40965 0.274712 0.25
471 2.06205 0.930602 6.37085 0.25
472 1.8348 7.41635 2.00973 0.25
473 7.5631 5.17668 5.50214 0.25
474 5.32879 5.83094 5.79277 0.25
475 1.37763 1.38139 2.75376 0.25
476 7.14759 0.774274 7.42976 0.25
477 3.28777 5.47624 3.87409 0.25
478 6.10356 3.50667 6.92112 0.25
479 3.43811 7.25174 7.50778 0.25
480 4.79919 0.209933 1.91302 0.25
481 7.86404 2.20063 4.09289 0.25
482 7.21903 5.06311 4.71318 0.25
483 8.2243 5.70536 5.11518 0.25
484 3.00837 0.0988229 8.35915 0.25
485 7.94328 7.59357 6.81369 0.25
486 2.40016 6.26203 5.99938 0.25
487 8.23213 7.80301 4.21452 0.25
488 4.53837 4.15298 5.91395 0.25
489 0.766289 8.07191 0.223445 0.25
490 7.96062 7.99573 1.88045 0.25
491 4.43655 2.94836 1.56838 0.25
492 2.54774 1.79677 4.39309 0.25
493 6.37846 4.64104 6.98784 0.25
494 4.79848 7.5042 2.58438 0.25
495 1.18464 5.93169 5.87484 0.25
496 2.98549 7.75416 4.88293 0.25
497 6.44469 4.32694 7.79214 0.25
498 3.32318 2.96866 4.12031 0.25
499 0.659806 5.14694 7.6133 0.25
500 3.98964 2.8837 6.27396 0.25
501 5.81143 3.62488 3.68017 0.25
502 1.76905 7.95941 7.64082 0.25
503 5.90709 4.92489 2.66745 0.5
504 7.68593 7.68697 2.11593 0.25
505 5.78003 1.54187 2.46651 0.25
506 7.14364 6.3882 4.69551 0.25
507 1.15576 0.489381 3.01259 0.25
508 0.803466 8.38386 5.36957 0.25
509 8.21031 4.92924 5.10371 0.5
510 4.96367 1.65089 5.7659 0.25
511 0.603326 0.424434 5.56548 0.25
512 0.986048 0.858104 3.2178 0.25
513 3.96395 1.14284 5.49978 0.25
514 1.93226 5.63095 6.13138 0.25
515 0.696073 8.16877 7.05508 0.25
516 7.42652 1.8075 6.15008 0.25
517 7.44251 5.47645 4.47801 0.25
518 0.912968 3.58471 4.68745 0.25
519 6.1912 1.86781 1.25304 0.25
520 6.97768 2.35593 6.34339 0.25
521 7.74356 1.65362 0.164751 0.25
522 6.82967 1.02595 7.71 0.25
523 5.09615 6.80953 5.90094 0.25
524 2.7447 0.508533 7.59632 0.25
525 6.41586 4.25206 7.25693 0.25
526 7.01803 5.35177 6.98876 0.25
527 7.42929 8.07838 4.12064 0.25
528 7.46996 1.47537 6.49254 0.25
529 6.577 1.1634 2.55335 0.25
530 2.32052 1.798 6.45052 0.25
531 7.88675 7.94774 3.89089 0.25
532 1.41495 0.940858 2.9865 0.25
533 7.3141 1.10041 7.8193 0.25
534 8.11258 5.77122 1.60912 0.25
535 0.302082 3.17434 5.45939 0.5
536 6.844 2.6206 5.94564 0.25
537 4.11135 0.87046 5.89499 0.25
538 6.70868 5.2049 4.7657 0.25
539 2.42413 1.31889 6.31363 0.25
540 8.07429 6.44107 1.90448 0.5
541 7.52774 4.01268 1.66377 0.25
542 2.10818 2.01249 7.81091 0.25
543 3.30435 7.38766 7.02813 0.25
544 7.74763 6.64097 6.74637 0.25
545 1.31395 6.08457 3.95287 0.25
546 5.12113 5.63354 6.25325 0.25
547 5.28408 2.68304 8.29541 0.25
548 6.13186 7.20779 6.70442 0.25
549 0.284876 7.93077 7.15781 0.25
550 6.23213 7.01416 0.0539131 0.25
551 4.24046 1.37093 2.59935 0.25
552 3.76713 5.49823 3.95359 0.25
553 6.76866 7.92515 3.7401 0.5
554 4.36056 6.39165 3.04321 0.25
555 4.81547 6.50216 3.59027 0.5
556 7.45537 0.666563 0.957456 0.25
557 7.37345 4.91075 3.92539 0.5
558 6.38765 0.161909 3.59083 0.25
559 1.3416 0.489466 5.66792 0.5
560 4.9976 3.30861 2.10533 0.25
561 2.87719 3.19544 4.16252 0.25
562 5.12855 0.0972057 5.38585 0.25
563 2.22087 6.57421 1.55689 0.25
564 6.24516 6.88177 0.754699 0.5
565 6.74483 1.964 6.59957 0.25
566 1.14493 1.70604 2.45461 0.25
567 4.5787 5.62136 6.16939 0.25
568 5.76213 1.15953 2.72486 0.25
569 2.58474 8.32146 8.05233 0.25
570 1.94091 6.50779 4.68964 0.25
571 3.1323 3.97585 7.41418 0.25
572 8.09791 2.78292 3.7632 0.5
573 3.77899 1.56927 2.58993 0.25
574 1.48867 5.86052 6.26094 0.25
575 2.19304 1.66174 8.19587 0.25
576 4.06925 5.58965 7.63177 0.25
577 5.26958 0.354421 4.98326 0.25
578 1.99002 7.50682 3.87405 0.25
579 7.55518 5.18764 7.63483 0.25
580 7.22108 0.230304 4.56063 0.5
581 4.42777 4.57098 6.03337 0.25
582 5.88126 2.89547 4.40287 0.25
583 5.82634 3.59455 4.54918 0.5
584 4.80073 6.43699 6.03895 0.25
585 4.6943 3.2378 1.25519 0.25
586 1.80042 0.368733 2.58865 0.5
587 4.88899 6.98672 2.60921 0.25
588 5.85706 5.09856 3.40295 0.25
589 0.129194 2.56204 7.55992 0.25
590 3.46776 6.46695 1.89684 0.25
591 6.56644 1.1985 0.907789 0.25
592 7.34601 7.0799 1.6325 0.5
593 6.67571 6.65762 1.44368 0.25
594 1.46046 4.89711 0.287345 0.5
595 0.462487 3.8472 7.96234 0.25
596 2.11113 0.969 0.75428 0.25
597 0.0990331 0.30697 5.06458 0.5
598 2.45305 6.22148 1.27725 0.25
599 2.11521 8.31664 7.92094 0.25
600 7.94586 0.770685 5.32904 0.25
601 0.675804 0.811097 5.24985 0.25
602 3.93163 0.109648 2.21478 0.25
603 4.11082 5.55564 8.11973 0.25
604 7.47999 5.2438 7.11143 0.25
605 7.81776 2.08849 3.6005 0.25
606 2.12269 8.21747 2.18237 0.25
607 4.35686 5.1891 7.85768 0.25
608 3.58377 7.67624 7.34853 0.25
609 6.84189 4.86638 4.43325 0.25
610 1.85282 1.51106 5.76497 0.25
611 3.16275 0.705089 7.82988 0.25
612 0.784106 7.24025 0.0710447 0.25
613 7.05554 1.11383 8.1776 0.25
614 4.75219 1.0091 5.05942 0.25
615 4.86165 2.54174 3.60309 0.25
616 1.1124 5.53789 3.21216 0.25
617 1.35042 8.19889 2.34198 0.25
618 7.62349 7.33614 4.2433 0.5
619 7.84427 8.14376 4.34892 0.25
620 8.27528 7.37447 2.2781 0.5
621 4.2036 6.26194 3.87188 0.25
622 6.1854 6.68848 6.00378 0.25
623 5.94521 6.18803 0.799731 0.25
624 1.09082 3.27286 5.53929 0.25
625 1.30514 5.4039 8.08472 0.25
626 3.5762 0.166488 1.31745 0.25
627 4.93721 4.65706 1.93285 0.25
628 8.09384 3.40885 2.48995 0.5
629 7.22482 3.37134 0.0490645 0.25
630 1.46381 0.103715 3.13583 0.25
631 1.91272 1.50103 7.85603 0.25
632 7.4796 7.86372 1.78243 0.25
633 6.05634 7.69434 0.686476 0.25
634 2.8945 7.94641 3.99433 0.25
635 0.794426 7.24777 0.841912 0.5
636 1.6944 1.67229 1.15546 0.25
637 5.66971 0.261495 5.2381 0.25
638 4.79764 1.3999 5.4155 0.25
639 4.56401 1.76834 0.0127152 0.25
640 5.15008 7.49106 0.482975 0.25
641 1.29031 6.62099 5.26782 0.25
642 3.66829 0.789979 5.60227 0.25
643 6.05118 7.13943 5.7339 0.25
644 5.68808 0.727631 2.48499 0.25
645 2.27619 2.16316 1.50373 0.25
646 8.21508 6.81285 6.62126 0.25
647 2.38905 3.0436 4.17928 0.25
648 5.14044 1.18631 0.0206663 0.25
649 0.384469 3.99183 2.00785 0.25
650 8.21044 3.71551 1.43151 0.25
651 3.14693 3.24658 3.7261 0.25
652 6.67587 0.841852 7.23317 0.25
653 1.37063 6.62121 0.880884 0.25
654 0.433524 2.6274 8.37535 0.25
655 3.58135 3.61326 6.37324 0.5
656 0.634006 3.52445 7.16829 0.25
657 1.475 5.50771 5.94766 0.25
658 6.84073 0.291946 3.4767 0.25
659 2.60422 1.91849 7.95633 0.25
660 6.96049 5.98487 4.07877 0.5
661 8.36364 1.08248 8.37362 0.25
662 4.03602 4.82635 4.25507 0.25
663 2.50716 3.6658 1.84668 0.25
664 6.6251 2.60346 4.83948 0.25
665 7.79227 3.83056 1.26789 0.25
666 6.06638 6.76215 6.49463 0.25
667 6.68616 3.3871 8.32477 0.25
668 7.04067 6.40597 1.77284 0.25
669 6.06647 5.03503 7.18396 0.25
670 5.60096 8.04975 4.6113 0.25
671 3.61088 4.94315 4.62852 0.25
672 2.67592 3.20833 2.06552 0.25
673 0.646207 1.17322 3.10289 0.25
674 4.90731 7.2553 3.35345 0.25
675 5.38902 3.66542 5.14506 0.25
676 7.49818 8.14639 2.18094 0.25
677 6.18581 1.35796 1.23185 0.25
678 7.58198 6.39182 4.91602 0.25
679 1.40809 6.411 1.28339 0.25
680 3.77775 6.75049 7.99608 0.25
681 7.75016 0.0602103 4.00534 0.25
682 2.10603 6.12898 1.73818 0.25
683 1.63744 7.58215 7.30612 0.25
684 0.326827 3.66665 1.61854 0.25
685 2.87193 3.57976 6.56063 0.25
686 4.20772 2.73355 6.71462 0.25
687 1.67721 4.39448 0.740956 0.25
688 3.64386 0.706449 6.05897 0.25
689 6.15906 4.08191 8.07521 0.25
690 6.08332 1.05099 2.46051 0.25
691 6.98618 1.37485 1.57831 0.25
692 5.20185 5.10955 1.91161 0.25
693 7.25594 1.96275 6.52369 0.25
694 7.56339 5.22731 5.00317 0.25
695 0.238583 2.99874 6.14121 0.25
696 5.76672 5.94398 3.23667 0.5
697 4.27303 3.67881 6.36925 0.25
698 1.83919 1.03948 5.55196 0.25
699 1.59775 6.77985 4.88078 0.25
700 4.27808 5.83058 1.1062 0.25
701 4.86796 1.74804 7.92951 0.25
702 2.23669 4.44541 7.31771 0.25
703 3.30316 6.63722 7.42322 0.5
704 4.54307 5.34853 8.25842 0.25
705 4.90165 3.16064 1.69147 0.25
706 5.06272 0.128297 8.28891 0.25
707 4.62357 3.93636 1.08029 0.5
708 5.71989 7.52124 7.91871 0.25
709 2.51946 7.14439 1.96121 0.5
710 2.15497 4.46816 6.87167 0.25
711 5.18761 6.32042 3.01801 0.25
712 0.522275 5.18854 8.03412 0.25
713 2.72985 4.06979 1.7289 0.25
714 5.21194 4.16684 0.724949 0.25
715 4.76639 6.52815 2.84607 0.25
716 6.74086 0.519068 7.59682 0.25
717 7.42475 7.78024 3.69379 0.25
718 5.93724 3.85747 6.67942 0.25
719 6.02408 4.56754 7.91378 0.25
720 1.71349 7.61266 4.23846 0.25
721 6.54702 2.11742 2.25294 0.25
722 2.38514 7.84643 3.36422 0.5
723 2.42032 7.61121 2.57927 0.25
724 7.1012 6.41487 1.32629 0.25
725 7.80008 6.43467 7.21014 0.25
726 1.03817 1.07554 5.45657 0.25
727 4.09944 0.163426 1.38356 0.25
728 3.6901 6.2565 7.99658 0.25
729 4.99873 5.90634 3.24253 0.25
730 2.97446 7.20015 7.28665 0.25
731 5.47444 2.9569 2.65984 0.25
732 4.17133 3.5585 6.8573 0.25
733 3.57351 5.56012 7.52965 0.25
734 3.82021 1.05282 2.51787 0.25
735 3.51751 2.8889 6.35679 0.25
736 7.94696 1.36459 8.21233 0.25
737 3.45823 0.279868 0.790456 0.25
738 0.294244 8.09781 0.389368 0.25
739 4.74583 6.08049 2.96695 0.25
740 5.36769 7.12377 3.37457 0.25
741 0.658639 7.92189 0.663015 0.25
742 3.92429 4.62942 6.12695 0.25
743 7.09613 0.927773 1.29757 0.25
744 4.30917 0.941893 2.3101 0.25
745 3.7147 4.24063 5.94474 0.25
746 1.383 6.02431 4.76621 0.5
747 4.37091 0.376812 2.15393 0.25
748 2.6687 6.77241 7.08659 0.25
749 1.43978 1.3648 2.2555 0.25
750 8.33066 3.35714 1.79113 0.25
751 1.1161 0.831182 5.00826 0.25
752 6.44317 4.84041 7.89048 0.25
753 3.82082 0.715154 1.79143 0.5
754 4.32317 6.04922 1.58191 0.25
755 2.79727 2.61042 1.50857 0.5
756 7.87352 6.87222 7.49772 0.25
757 5.56068 7.04217 5.78471 0.25
758 6.87226 3.96018 7.24244 0.25
759 4.16392 8.21072 5.19861 0.25
760 0.227576 2.54455 3.26117 0.25
761 3.71938 7.21038 7.15982 0.25
762 0.606796 1.83792 3.38689 0.5
763 4.0533 7.99213 2.01813 0.25
764 1.35065 6.25484 0.523796 0.25
765 7.56525 4.90558 3.19608 0.25
766 0.430169 4.27458 2.46387 0.25
767 2.60703 6.94376 7.53353 0.25
768 2.19698 2.97963 5.15171 0.25
769 7.84517 3.61057 1.7552 0.25
770 4.96646 0.922144 7.99581 0.25
771 6.70084 1.17955 6.19905 0.25
772 4.85904 2.44626 8.11224 0.25
773 5.46956 0.956229 5.01963 0.5
774 3.66232 8.26237 4.98964 0.25
775 7.8034 4.35272 2.74809 0.5
776 6.94344 3.86676 0.495443 0.5
777 6.02069 6.5648 0.0784835 0.25
778 4.81237 8.05464 0.0181899 0.25
779 8.21469 8.3247 4.05792 0.25
780 2.26313 1.6645 5.9703 0.25
781 2.59452 1.74788 0.0559182 0.25
782 1.39482 7.59328 0.605716 0.25
783 6.84236 3.14622 0.350825 0.25
784 2.08073 7.76413 2.30678 0.25
785 2.70041 1.73585 6.16995 0.25
786 2.50343 7.88267 2.2058 0.25
787 7.85478 7.11236 6.7498 0.25
788 8.36541 4.09928 2.3217 0.25
789 3.62845 8.07703 4.51048 0.25
790 7.03253 0.802492 6.87704 0.25
791 0.396578 4.66248 3.19318 0.5
792 2.35455 0.391253 7.86136 0.25
793 8.14526 7.14311 1.59443 0.25
794 5.48695 6.36846 6.27185 0.5
795 2.40894 4.21592 3.20384 0.25
796 2.16715 5.89267 5.78341 0.25
797 6.72894 6.38445 1.01023 0.25
798 7.6767 4.26671 1.26447 0.25
799 4.15976 3.3075 6.01394 0.25
800 7.88903 2.07111 3.11786 0.25
801 3.26847 7.88988 7.02129 0.25
802 3.43008 5.34426 4.35688 0.25
803 3.24443 8.32677 7.63952 0.5
804 3.62495 6.92196 1.87194 0.25
805 1.68837 7.90152 2.05417 0.25
806 2.58293 1.89085 3.88533 0.25
807 4.58034 6.27521 5.69085 0.25
808 4.15777 2.02247 7.74839 0.25
809 1.65702 5.90867 5.79825 0.25
810 6.50883 7.46422 6.47687 0.25
811 1.5531 3.2568 4.8401 0.5
812 5.65448 7.4061 0.635164 0.25
813 4.1099 1.71287 2.94074 0.25
814 1.64792 7.52073 7.80867 0.25
815 2.83091 8.18292 4.42959 0.25
816 0.991837 2.89064 5.21132 0.25
817 4.40638 1.61415 7.94529 0.25
818 3.63587 1.75118 3.07183 0.25
819 1.78715 5.26738 1.32981 0.25
820 3.41179 2.96108 6.8005 0.25
821 1.48938 2.03875 8.15129 0.5
822 6.04167 4.32431 3.60177 0.5
823 5.14035 0.465682 7.97582 0.25
824 0.811185 0.386305 5.10059 0.25
825 3.79247 6.05564 7.55215 0.25
826 3.22738 3.46483 1.66489 0.5
827 5.73272 7.13944 6.48112 0.25
828 0.272846 2.05025 7.6124 0.25
829 8.28376 8.23934 4.52323 0.25
830 0.8236 2.04706 2.64112 0.25
831 2.42033 4.29827 7.74071 0.25
832 5.84797 4.48311 2.03379 0.25
833 1.95847 1.40212 6.25266 0.25
834 4.05149 0.56528 2.48802 0.25
835 6.32498 1.66779 0.820021 0.25
836 3.44762 7.60501 7.81248 0.25
837 3.8476 5.19043 7.86885 0.25
838 7.65399 0.939945 1.32486 0.25
839 6.005 7.58995 6.41347 0.25
840 7.01703 4.75223 7.37259 0.5
841 3.21792 6.80493 2.16417 0.25
842 0.118129 2.07256 2.69369 0.5
843 5.87078 3.74755 5.30248 0.25
844 4.55826 2.26855 0.111381 0.25
845 7.3886 2.65707 5.23456 0.25
846 3.66549 3.41372 7.42997 0.5
847 1.92597 5.22982 0.860168 0.25
848 1.85931 5.87601 5.35216 0.25
849 5.15046 7.77486 2.73313 0.25
850 6.2728 2.69458 5.44933 0.5
851 5.48917 8.26993 5.04045 0.25
852 6.99023 1.4981 7.95763 0.25
853 4.05588 8.29358 4.70075 0.25
854 4.28242 1.60313 6.00979 0.5
855 0.339551 3.92962 5.38725 0.25
856 0.666349 5.41072 3.24356 0.25
857 3.63423 6.59491 1.50049 0.25
858 2.64342 4.77742 3.81632 0.25
859 6.70375 4.62841 3.99873 0.25
860 7.63886 4.06744 0.864486 0.25
861 4.92287 2.92191 8.09386 0.25
862 6.69259 4.75641 3.51613 0.25
863 5.30005 6.52132 0.412678 0.25
864 7.66945 6.87151 2.28018 0.25
865 3.70682 5.74057 7.95859 0.25
866 5.07402 8.10621 3.12168 0.25
867 2.00398 4.07714 7.63238 0.25
868 2.11764 1.71551 0.54459 0.5
869 1.05348 3.20484 7.33158 0.25
870 6.20998 5.42556 3.20441 0.25
871 2.87458 7.61916 6.95166 0.25
872 5.81313 2.97667 4.92565 0.25
873 0.363495 8.03599 8.29806 0.25
874 3.85819 1.076 6.34149 0.25
875 2.14018 4.22502 1.30671 0.5
876 1.41456 5.63597 5.44714 0.25
877 0.136641 5.16692 7.74635 0.25
878 5.6517 1.11171 2.20081 0.25
879 3.18002 8.19943 4.7414 0.25
880 6.47338 5.89185 3.0455 0.25
881 7.41825 1.34263 1.37013 0.25
882 7.90281 7.24847 7.19421 0.25
883 0.325979 3.81185 2.47991 0.25
884 7.16212 3.21113 0.722872 0.25
885 0.783487 4.19827 5.27867 0.25
886 7.80324 7.57213 3.53907 0.25
887 1.36221 6.91427 1.19891 0.25
888 1.03154 4.75618 3.65485 0.25
889 1.38012 8.10551 2.81542 0.25
890 0.0888113 4.57921 2.54939 0.25
891 1.06037 2.19746 7.52563 0.25
892 7.50139 3.59139 0.935853 0.25
893 1.08317 7.96087 0.668621 0.25
894 3.94594 5.75397 1.50589 0.25
895 3.7969 5.87869 1.00968 0.25
896 1.83577 1.40235 8.36422 0.25
897 8.00486 4.06916 1.64651 0.25
898 0.632176 4.63485 3.94089 0.25
899 0.792663 0.0589002 5.86718 0.25
900 5.11363 6.28781 5.7359 0.25
901 0.845853 1.59016 2.79641 0.25
902 7.28135 3.92192 1.19166 0.25
903 5.77929 3.73264 3.19359 0.25
904 6.90008 4.06836 7.73777 0.25
905 5.34836 0.906757 5.82579 0.25
906 2.01635 1.00724 0.241809 0.25