ITEM: TIMESTEP
70000
ITEM: NUMBER OF ATOMS
1000
ITEM: BOX BOUNDS xy xz yz pp pp pp
0.0000000000000000e+00 8.3788359999999997e+00 0.0000000000000000e+00
0.0000000000000000e+00 8.3788359999999997e+00 0.0000000000000000e+00
0.0000000000000000e+00 8.3788359999999997e+00 0.0000000000000000e+00
ITEM: ATOMS id x y z radius
1 2.76624 7.00738 4.36522 0.25
2 4.54524 5.34936 4.9871 0.25
3 7.16799 4.81343 3.66663 0.25
4 7.34026 0.683745 6.23286 0.5
5 1.34267 5.72415 6.13797 0.25
6 0.346432 1.6865 3.1646 0.25
7 4.07831 3.56575 6.75628 0.25
8 4.61754 7.80083 2.82644 0.25
9 0.775528 6.41767 3.8505 0.25
10 4.2539 1.80124 3.31814 0.25
11 5.49455 0.395117 0.210211 0.25
12 5.05982 3.29103 1.8995 0.25
13 8.20633 2.73043 7.18747 0.25
14 3.83178 3.01925 7.32751 0.25
15 8.15198 2.77322 6.11462 0.25
16 7.01397 0.209142 6.77481 0.25
17 0.733778 4.91606 8.252 0.25
18 5.96421 7.65876 8.00085 0.25
19 4.4375 1.96991 7.60833 0.25
20 7.34968 1.56733 0.662787 0.25
21 4.96888 4.19127 2.07901 0.25
22 4.15678 3.44447 1.0683 0.25
23 2.33075 3.1181 1.85189 0.25
24 2.76555 1.34055 3.9437 0.25
25 2.06171 4.37219 2.88908 0.25
26 0.281351 0.232137 5.92132 0.25
27 3.93733 1.20489 6.28051 0.25
28 4.40644 2.30553 0.0382445 0.25
29 5.20489 7.06717 3.16788 0.25
30 7.18198 7.39719 2.61913 0.25
31 2.84982 0.665978 7.47328 0.25
32 0.770973 2.68259 7.1668 0.25
33 7.74237 0.445777 5.58287 0.25
34 1.99002 4.79928 1.39049 0.25
35 8.18681 0.197417 4.52829 0.25
36 7.25013 1.43663 5.57849 0.5
37 4.64767 0.898951 2.03909 0.25
38 2.18074 3.34091 4.27516 0.25
39 6.37655 2.73736 4.91203 0.25
40 4.63947 8.32256 2.92068 0.25
41 6.68033 2.36456 2.66571 0.25
42 5.38507 6.15741 5.5579 0.25
43 3.144 7.91279 4.37354 0.25
44 3.72715 0.713393 6.32762 0.25
45 5.85844 4.06642 4.38821 0.25
46 3.86991 5.6943 1.42351 0.5
47 4.6764 0.66114 5.21028 0.25
48 8.04716 6.63802 6.83646 0.25
49 7.34372 7.15186 4.85982 0.25
50 7.58015 1.16033 0.890835 0.25
51 2.69696 3.32723 4.31489 0.25
52 1.00253 1.71718 2.48697 0.25
53 6.76721 5.21085 6.52514 0.25
54 6.07449 3.61482 4.47704 0.25
55 1.52173 1.54196 5.77795 0.25
56 0.739207 7.68844 0.282629 0.25
57 4.90231 0.471175 2.04029 0.25
58 2.32536 2.04981 4.12514 0.25
59 5.55674 1.42394 5.26678 0.25
60 0.737753 5.55434 5.54591 0.25
61 5.63741 0.20843 8.1139 0.25
62 5.39529 1.81203 8.11493 0.5
63 7.97279 6.31969 1.63415 0.25
64 1.5026 5.79803 0.871205 0.25
65 3.79385 8.27473 1.71767 0.25
66 2.22698 4.58332 7.06905 0.25
67 7.71974 4.97127 7.31437 0.25
68 7.1299 8.34434 6.35843 0.25
69 0.131638 5.6556 7.96345 0.25
70 1.91929 4.2829 0.526985 0.25
71 7.71906 1.72321 0.398671 0.25
72 6.44043 6.37647 3.73385 0.25
73 0.487958 7.48904 6.35014 0.25
74 7.44797 5.64978 6.77719 0.25
75 7.21551 0.363317 3.36291 0.25
76 7.44238 6.82023 4.46207 0.25
77 6.08068 2.57044 5.30574 0.25
78 5.41688 3.56206 1.61888 0.25
79 8.09066 5.67309 5.19862 0.25
80 6.03449 3.26342 5.70696 0.25
81 6.80722 1.54792 1.19675 0.25
82 8.12234 2.70222 5.63026 0.25
83 4.27026 5.89768 5.57961 0.25
84 1.07572 1.26475 5.7214 0.25
85 1.79828 1.62359 5.39163 0.25
86 3.9529 0.331931 6.27108 0.25
87 2.2887 1.40089 1.04731 0.25
88 3.76384 6.4003 1.58319 0.25
89 6.86734 7.36594 0.854506 0.25
90 5.25943 6.58978 5.46528 0.25
91 3.90482 4.17473 6.16342 0.25
92 6.17185 4.62414 6.93853 0.25
93 4.74174 6.70279 5.41407 0.25
94 6.69773 7.97101 4.35289 0.25
95 0.294679 4.50101 7.7838 0.5
96 5.27426 3.27455 3.82681 0.5
97 4.42757 4.77444 7.6618 0.25
98 0.490985 2.22439 3.2436 0.25
99 1.71084 6.50313 5.82193 0.25
100 7.34612 7.29552 1.08664 0.25
101 0.434758 0.0891537 0.383441 0.25
102 7.93115 5.16958 3.83668 0.25
103 6.68287 1.45017 1.67035 0.25
104 0.632917 5.19888 7.77611 0.25
105 4.78841 6.01595 5.10358 0.5
106 4.35775 8.22329 4.95457 0.25
107 3.73166 3.88397 7.01016 0.25
108 4.74183 1.45119 8.16201 0.25
109 0.604008 0.447659 6.24412 0.25
110 2.19243 7.95899 8.22524 0.25
111 2.7559 3.5254 6.51858 0.25
112 4.68126 2.24419 7.99841 0.25
113 2.30379 1.75372 1.66963 0.5
114 1.51048 4.29418 6.6802 0.25
115 4.52144 6.2207 6.32324 0.25
116 2.76069 6.38187 7.4597 0.25
117 4.14495 2.46759 3.65559 0.5
118 7.01752 7.59113 1.30035 0.25
119 0.860457 5.30588 2.13208 0.25
120 0.311906 2.83667 2.16326 0.25
121 3.08827 4.05033 3.55811 0.25
122 6.74363 0.321973 6.37239 0.25
123 5.05129 0.304362 5.26565 0.25
124 7.95966 7.99652 2.59919 0.25
125 3.48756 2.02586 3.73341 0.25
126 4.40491 1.894 5.63927 0.25
127 5.24317 3.74312 2.03999 0.25
128 7.01107 5.47465 6.81404 0.25
129 0.880373 6.54787 4.3001 0.25
130 5.71798 5.9313 0.713865 0.25
131 6.90693 1.30606 6.21458 0.25
132 5.9922 4.27771 7.2889 0.25
133 3.25658 1.90223 3.30752 0.25
134 4.60706 2.69997 8.06306 0.25
135 5.49624 4.01037 3.96625 0.25
136 2.86294 2.42975 3.63161 0.5
137 2.78743 4.00088 3.07304 0.25
138 7.33138 8.10385 3.0159 0.5
139 2.35181 7.62552 4.74976 0.25
140 5.55337 7.69534 7.81829 0.25
141 0.963113 5.4074 6.01808 0.25
142 0.748569 4.98773 3.27669 0.25
143 1.87583 1.99722 8.3057 0.25
144 4.95313 0.896178 2.72339 0.5
145 7.52399 2.29308 3.80519 0.25
146 6.00428 7.38951 0.0995538 0.25
147 6.19186 6.07691 4.63502 0.25
148 1.97209 3.01148 3.94753 0.25
149 4.20394 8.09091 2.33394 0.5
150 5.00609 2.93254 4.39686 0.25
151 3.60189 5.93141 7.44658 0.25
152 3.51664 4.54438 5.55637 0.25
153 6.74722 6.27494 2.59913 0.5
154 7.35349 2.32777 4.60894 0.5
155 3.06518 7.62131 7.89727 0.25
156 7.61051 3.89716 1.62757 0.25
157 7.53047 6.10142 1.65934 0.25
158 2.5211 3.5683 0.721879 0.25
159 7.01251 8.31793 4.44289 0.25
160 6.58672 2.266 3.15127 0.25
161 0.600803 4.93138 2.83029 0.25
162 6.13244 3.79599 7.32947 0.25
163 3.35506 3.67141 4.12702 0.5
164 2.51118 3.77643 2.45873 0.5
165 5.80031 8.14651 7.87615 0.25
166 0.184519 3.73852 7.96367 0.25
167 6.4217 4.36582 0.242018 0.25
168 4.63668 6.06902 5.82712 0.25
169 3.94149 4.36503 5.69026 0.25
170 0.172993 2.77135 5.83034 0.25
171 7.89434 5.93449 1.34276 0.25
172 0.945142 2.88327 6.68734 0.25
173 4.17977 6.25401 5.92094 0.25
174 2.75671 2.30478 0.786249 0.25
175 7.72403 2.07575 6.0757 0.5
176 2.48098 6.50782 6.26994 0.25
177 5.54024 3.71563 4.39146 0.25
178 3.4132 6.11471 1.89256 0.25
179 3.55076 2.30301 3.33434 0.25
180 5.72653 6.52353 5.60697 0.25
181 6.7374 4.1536 6.83658 0.25
182 3.10101 5.23667 3.33545 0.25
183 7.49572 7.7424 1.31361 0.25
184 4.37301 4.80815 8.16724 0.25
185 5.69731 6.84394 6.01909 0.25
186 7.54591 6.3538 4.64828 0.25
187 3.25752 5.18999 4.22485 0.25
188 0.643118 5.72578 2.88165 0.25
189 4.22321 6.66393 3.60202 0.25
190 4.24896 3.19547 1.49187 0.25
191 6.61847 1.56997 0.528512 0.5
192 0.974558 4.83623 7.89204 0.25
193 4.77673 5.22918 0.951692 0.25
194 3.08717 5.84646 1.59739 0.25
195 6.30787 5.70373 2.9971 0.25
196 1.95004 7.1985 2.1911 0.25
197 1.07959 0.405864 1.90402 0.25
198 7.41986 4.84389 7.73868 0.25
199 1.32448 0.802494 2.70294 0.25
200 4.92919 4.84433 1.60755 0.5
201 6.68237 1.78067 3.04314 0.25
202 0.413852 3.95916 5.44142 0.25
203 3.74519 1.82041 3.31379 0.25
204 5.54239 7.96888 0.159036 0.5
205 2.25251 7.4446 3.99716 0.5
206 0.724812 4.70524 5.26265 0.25
207 5.73256 3.29554 4.37259 0.25
208 6.95583 5.68109 4.72406 0.25
209 5.36664 7.00979 0.4066 0.5
210 1.68719 7.61251 2.44846 0.25
211 0.565616 3.8622 4.95748 0.25
212 1.45339 7.789 8.37227 0.5
213 8.0995 4.13607 3.29329 0.25
214 1.64828 7.50588 1.97333 0.25
215 2.7676 4.22565 3.89891 0.25
216 6.35965 1.99496 2.69937 0.25
217 4.8273 3.69151 2.2217 0.25
218 2.12748 2.84592 4.4075 0.25
219 4.24627 1.17856 2.80119 0.25
220 3.7739 3.3009 1.36144 0.25
221 4.23451 0.773394 6.36828 0.25
222 7.36208 0.712261 5.47776 0.25
223 8.16413 2.69009 2.28293 0.25
224 7.25019 5.67513 7.20737 0.25
225 6.97927 2.18266 5.32111 0.25
226 4.96205 2.1648 7.57801 0.25
227 6.58774 3.81206 7.13711 0.25
228 5.24718 3.36563 4.6143 0.25
229 6.05845 4.81664 2.15498 0.25
230 0.397417 8.17695 6.53974 0.5
231 5.71433 4.2499 1.74755 0.5
232 2.21079 2.81421 3.59243 0.25
233 4.06907 5.17461 3.97396 0.25
234 6.37316 0.488588 6.60127 0.25
235 2.94526 7.47706 4.16119 0.25
236 0.435092 2.24208 7.8879 0.25
237 8.25605 3.58945 7.58573 0.25
238 3.7008 0.709594 1.1252 0.25
239 0.4295 1.93309 3.59833 0.25
240 6.92431 6.59718 1.06335 0.25
241 3.27352 7.17562 8.14762 0.25
242 1.43744 6.90219 2.47763 0.5
243 2.72542 4.83111 3.27728 0.25
244 7.1278 3.98405 1.44415 0.25
245 2.07807 1.05184 6.13127 0.25
246 7.46517 0.132583 3.74646 0.25
247 3.49234 2.7509 3.62011 0.25
248 3.87759 2.79841 1.53896 0.25
249 8.13743 4.99265 7.55107 0.25
250 0.788593 2.91133 4.82168 0.25
251 5.507 2.71684 4.87643 0.5
252 3.23176 1.94942 4.1954 0.25
253 7.98283 5.69884 7.35632 0.5
254 7.70102 6.37965 7.09187 0.25
255 5.06311 1.00801 5.65729 0.5
256 6.1322 6.22203 0.512491 0.25
257 0.788695 0.156499 2.20722 0.25
258 1.76396 1.47288 2.17196 0.25
259 4.34311 2.67205 1.35597 0.25
260 8.33236 6.03819 1.50802 0.25
261 3.64695 0.521754 0.660562 0.25
262 3.48764 2.44375 4.05649 0.25
263 2.39723 0.229027 7.89536 0.5
264 2.6742 4.29838 3.46196 0.25
265 1.1265 3.91429 7.19376 0.5
266 1.44425 8.0071 6.81483 0.5
267 5.42271 2.97922 8.04059 0.25
268 6.12297 7.22178 7.95109 0.25
269 1.91734 4.78633 0.399424 0.25
270 4.00434 3.65307 1.53483 0.25
271 7.03116 7.99643 4.78339 0.25
272 1.40043 0.720294 2.14386 0.25
273 1.27986 3.20157 6.93308 0.25
274 0.868109 5.34079 8.19929 0.25
275 5.54048 4.73208 1.1518 0.25
276 2.54294 3.14418 0.97703 0.25
277 6.55799 0.130608 6.8693 0.25
278 4.19394 5.80771 2.03378 0.25
279 4.04154 0.830427 5.62965 0.5
280 8.19803 8.29319 4.89721 0.25
281 1.29603 6.00382 0.496283 0.25
282 6.14043 7.03092 6.13712 0.25
283 1.02136 0.188481 6.43123 0.25
284 7.62363 4.65523 1.01747 0.25
285 2.0835 5.93761 1.27131 0.5
286 5.48528 6.63293 3.0976 0.25
287 1.23706 7.83356 3.07089 0.5
288 2.79781 7.42143 4.62031 0.25
289 2.61025 7.39351 5.08531 0.25
290 2.05845 3.58057 1.8642 0.25
291 0.327825 7.59607 7.43259 0.25
292 7.82852 2.64769 3.52074 0.25
293 7.69294 4.75964 3.83426 0.25
294 5.79847 3.80734 3.5865 0.25
295 0.0784533 4.09305 1.07721 0.25
296 0.63846 4.44431 4.53177 0.5
297 3.72738 3.41851 7.0657 0.25
298 6.51767 5.44913 6.91138 0.25
299 5.79415 4.96166 6.83372 0.25
300 6.1841 4.22627 0.664647 0.25
301 0.822917 8.19417 0.202002 0.25
302 0.452707 3.9294 1.42915 0.25
303 4.00312 0.3803 0.977586 0.25
304 2.08271 2.30363 4.48543 0.25
305 1.56837 5.36737 8.09276 0.25
306 2.39505 1.8671 4.57096 0.25
307 1.67483 4.79343 7.58432 0.5
308 3.56056 5.84305 3.16987 0.25
309 4.45748 1.15304 5.18301 0.25
310 0.889097 5.03772 4.15233 0.25
311 7.28507 0.347099 4.20056 0.25
312 0.724864 1.00331 2.23582 0.5
313 0.90229 3.36627 5.0067 0.25
314 5.35806 3.90596 3.50466 0.25
315 1.72142 4.87863 8.30958 0.25
316 1.7531 4.3222 7.14115 0.25
317 7.75584 2.68778 4.00992 0.25
318 2.17876 2.49389 3.97927 0.25
319 4.58773 7.22136 0.294926 0.25
320 2.15188 6.30355 5.97489 0.25
321 3.97615 8.3393 1.21455 0.25
322 7.26762 6.82042 5.27172 0.25
323 0.79875 6.08978 4.24659 0.25
324 4.04024 7.05952 8.1879 0.5
325 0.574527 1.72635 0.0873682 0.25
326 3.93084 4.82818 4.99703 0.5
327 7.04868 7.71031 3.55967 0.25
328 2.48513 7.14312 1.63464 0.25
329 1.1443 5.76789 3.03442 0.25
330 0.335251 7.14442 7.21545 0.25
331 0.688296 5.61427 3.65706 0.5
332 7.13474 6.64706 2.11804 0.25
333 1.6171 1.61606 1.69443 0.25
334 6.34749 1.83765 1.89379 0.25
335 3.96879 2.41552 1.18699 0.25
336 3.10422 6.59306 7.13827 0.25
337 4.45865 7.20845 3.11859 0.5
338 5.68116 7.29924 8.12645 0.25
339 1.96109 7.86559 3.42104 0.25
340 4.30013 0.381789 5.12099 0.25
341 6.81341 0.289492 3.05174 0.25
342 1.11962 5.32545 7.76647 0.25
343 2.83168 1.17879 8.1424 0.25
344 0.940271 5.03838 2.5038 0.25
345 0.644931 1.43078 2.78789 0.25
346 0.225234 2.50676 8.206 0.25
347 3.40575 5.72419 7.8669 0.25
348 7.13118 7.8578 2.33561 0.25
349 0.514437 2.13885 8.3312 0.25
350 6.85452 1.95769 2.61487 0.25
351 1.35905 7.1254 8.19608 0.25
352 6.40019 4.10391 7.89908 0.5
353 2.69762 7.97 8.05971 0.25
354 1.91162 0.870925 5.61975 0.25
355 0.760974 0.0885961 5.99336 0.25
356 1.95516 1.81141 5.81968 0.25
357 2.76776 3.47451 6.00506 0.25
358 6.35067 3.49943 5.45246 0.25
359 5.40968 1.72383 5.61469 0.25
360 2.03826 1.81275 0.968023 0.25
361 0.856063 0.0594458 0.6782 0.25
362 6.26382 3.54673 6.96395 0.25
363 7.76319 3.78894 3.26843 0.25
364 5.99768 3.47782 7.76183 0.25
365 5.7956 5.97219 0.203365 0.25
366 5.37117 5.72515 0.370138 0.25
367 2.32276 4.57127 6.59337 0.25
368 6.82792 4.06621 0.100632 0.25
369 1.07596 7.44537 0.52188 0.25
370 5.37322 0.665868 8.19781 0.25
371 1.93801 8.09373 3.84531 0.25
372 2.06628 3.79525 0.544665 0.25
373 7.1539 2.6165 5.22281 0.25
374 3.68695 4.33508 4.36226 0.25
375 5.12142 0.838936 7.78678 0.25
376 2.35346 5.43268 1.78661 0.25
377 6.40089 1.3487 2.4071 0.5
378 0.3139 3.76358 7.4576 0.25
379 4.96172 1.34719 7.751 0.25
380 2.38036 7.13851 4.67469 0.25
381 3.58243 5.02292 5.63078 0.25
382 1.90853 7.29487 4.69646 0.25
383 6.3293 5.42176 4.24789 0.5
384 1.78105 1.51232 1.2429 0.25
385 6.85833 1.3514 6.95857 0.5
386 1.55298 1.15874 5.48238 0.25
387 7.15472 1.08553 0.590225 0.25
388 0.600643 5.37176 2.53012 0.25
389 4.52721 2.66412 7.34875 0.5
390 4.43111 1.17374 6.09912 0.25
391 5.67651 4.64214 2.36874 0.25
392 8.06025 2.39953 3.20398 0.25
393 3.28904 6.20497 1.38121 0.25
394 0.100205 8.19631 0.599519 0.25
395 2.49528 1.85166 0.863152 0.25
396 4.84003 7.14363 8.23698 0.25
397 4.87973 0.577182 8.09896 0.25
398 6.86238 2.09575 0.161182 0.25
399 2.60283 4.44485 2.96982 0.25
400 6.274 4.24762 1.192 0.25
401 1.88029 6.95675 3.57984 0.25
402 0.695523 7.8472 7.13104 0.25
403 8.13046 6.32834 1.14155 0.25
404 8.24123 6.94602 7.20283 0.25
405 0.407005 0.0260879 0.943253 0.25
406 4.40771 7.95338 4.55486 0.25
407 2.30179 1.23547 7.64223 0.5
408 5.29132 3.31672 2.94558 0.25
409 2.32499 4.88312 1.01218 0.25
410 7.28836 1.53719 8.25167 0.5
411 4.17926 5.56598 5.19533 0.25
412 8.29732 7.43688 7.12626 0.25
413 0.616781 1.34547 8.16949 0.25
414 0.379033 3.05332 7.6856 0.5
415 6.72787 4.72317 3.42856 0.25
416 2.80948 3.06685 6.31641 0.25
417 3.39764 4.71038 3.72986 0.5
418 7.03403 6.95629 4.53383 0.25
419 3.90542 3.88868 5.79202 0.25
420 0.718461 2.90921 4.31759 0.25
421 3.97588 4.85177 5.6924 0.25
422 2.34801 5.1919 1.37821 0.25
423 0.559511 0.53574 5.76145 0.25
424 0.306132 3.69544 4.58851 0.25
425 2.2548 2.54987 1.2515 0.5
426 7.4236 6.07072 5.31435 0.5
427 2.75779 1.80498 4.20168 0.25
428 3.95402 5.18145 3.51909 0.25
429 4.38518 4.54329 5.59348 0.25
430 1.45796 7.13968 3.22887 0.25
431 0.884441 3.37185 6.68568 0.25
432 1.38622 6.98326 4.01208 0.5
433 1.67825 1.84945 7.55482 0.25
434 1.01895 6.06303 0.899053 0.25
435 5.55858 3.5908 3.20429 0.25
436 1.04644 5.5571 2.56347 0.25
437 8.03949 1.41226 0.184104 0.25
438 0.639432 3.2946 4.57744 0.25
439 3.96639 3.05901 6.84724 0.25
440 4.84789 1.70034 7.43477 0.25
441 0.0275916 4.23494 5.48006 0.25
442 1.90992 5.3299 1.56108 0.25
443 0.224578 3.01788 6.61822 0.5
444 2.1934 3.29919 1.3903 0.25
445 5.66951 6.82229 1.04596 0.25
446 4.23191 5.86418 3.55497 0.5
447 1.57875 2.04646 5.66123 0.25
448 5.77638 7.31597 5.93794 0.25
449 1.20808 5.63143 5.58845 0.25
450 2.96074 3.42346 0.909415 0.25
451 2.7653 6.96235 4.87808 0.25
452 2.46936 0.841495 8.25156 0.25
453 5.29471 4.27684 1.13494 0.25
454 0.0339573 3.56682 7.13409 0.25
455 7.80056 5.19003 7.81594 0.25
456 3.08329 1.69194 3.76847 0.25
457 2.10915 3.83519 6.82316 0.5
458 0.125246 7.89755 7.15567 0.25
459 4.94533 7.50316 0.164333 0.25
460 4.75434 7.99158 4.85975 0.25
461 2.55441 3.5518 1.19033 0.25
462 6.3734 5.11924 3.57892 0.25
463 4.75912 7.88752 3.21543 0.25
464 8.03895 6.91422 7.65626 0.25
465 7.22785 2.4493 5.70716 0.25
466 4.06249 1.59917 2.90141 0.25
467 4.32223 5.10059 1.13002 0.25
468 6.96772 5.4655 3.28496 0.5
469 8.00892 7.44332 7.83938 0.25
470 0.100529 1.57977 8.30258 0.25
471 1.54764 1.13457 5.9668 0.25
472 1.60984 7.07098 1.79899 0.25
473 7.91346 5.57247 5.66511 0.25
474 5.06846 5.82504 5.77037 0.25
475 1.49091 1.11137 2.38815 0.25
476 6.87767 1.13783 7.70047 0.25
477 3.18688 5.44935 3.8015 0.25
478 6.40992 3.45299 7.47179 0.25
479 3.4615 7.31746 7.69549 0.25
480 4.65097 0.0687262 1.91905 0.25
481 7.91366 2.2355 4.09074 0.25
482 7.79411 5.57244 4.84826 0.25
483 0.873692 5.8936 5.89635 0.25
484 2.86781 0.78384 7.94035 0.25
485 8.19507 7.70814 7.53703 0.25
486 2.0967 6.78962 6.01157 0.25
487 8.1137 7.81058 4.2353 0.25
488 4.3485 4.09803 5.91422 0.25
489 0.0900637 0.299605 0.703053 0.25
490 7.97067 7.71528 2.21478 0.25
491 4.52488 3.08446 1.11068 0.25
492 2.35296 1.52196 4.20297 0.25
493 6.21684 4.04775 6.89477 0.25
494 4.83782 7.57661 2.46674 0.25
495 1.36355 6.068 5.78349 0.25
496 2.66601 7.85348 4.4355 0.25
497 6.24188 4.69447 7.44026 0.25
498 3.36293 2.91694 4.09327 0.25
499 0.194329 5.25359 7.65154 0.25
500 4.14735 3.24994 6.38037 0.25
501 6.32988 3.85082 4.1738 0.25
502 1.90488 8.0761 7.82968 0.25
503 6.06455 4.98325 2.92996 0.5
504 7.54496 7.71698 2.48116 0.25
505 5.60584 0.779006 3.07967 0.25
506 7.22812 6.62672 4.85923 0.25
507 1.32672 0.281685 2.85331 0.25
508 0.554212 0.109522 5.52884 0.25
509 0.0757957 5.06618 5.55196 0.5
510 5.50343 1.91163 5.18025 0.25
511 0.778248 0.515064 5.30542 0.25
512 0.894767 0.546403 2.81259 0.25
513 4.16175 1.5755 5.38391 0.25
514 2.32529 6.10968 5.54029 0.25
515 0.970511 7.76387 6.28319 0.25
516 7.40472 1.42984 6.38601 0.25
517 7.43734 5.83425 4.60177 0.25
518 0.820641 3.6987 4.57687 0.25
519 6.08926 2.03594 2.25566 0.25
520 7.06238 1.75661 6.272 0.25
521 7.29844 2.01282 0.366768 0.25
522 6.24176 1.61362 7.88458 0.25
523 4.99529 6.86974 5.77267 0.25
524 2.97426 0.167281 7.39869 0.25
525 6.42866 4.27447 7.21369 0.25
526 7.28012 5.21 6.53349 0.25
527 7.45952 8.2928 4.16429 0.25
528 7.21384 0.580992 6.95974 0.25
529 7.03446 1.57668 2.81234 0.25
530 2.13696 1.87354 6.28113 0.25
531 7.87693 8.19037 3.94239 0.25
532 1.13365 0.435746 2.40186 0.25
533 6.75224 1.61582 7.7285 0.25
534 8.02601 5.8616 1.82762 0.25
535 0.171373 3.26902 5.18478 0.5
536 6.97035 2.02153 5.81552 0.25
537 4.47823 1.40903 5.64664 0.25
538 7.31713 5.43459 4.94565 0.25
539 2.2754 1.40615 6.43753 0.25
540 7.78339 6.39958 2.33152 0.5
541 7.91447 4.28084 1.61902 0.25
542 1.9014 2.18782 7.87319 0.25
543 3.26854 7.04923 7.29863 0.25
544 7.77014 6.81699 7.24529 0.25
545 1.15471 6.22585 3.9204 0.25
546 4.81034 5.79323 6.18277 0.25
547 5.40289 2.57843 8.34879 0.25
548 6.1906 7.08242 6.62245 0.25
549 0.807131 7.55 6.70679 0.25
550 6.39923 7.01477 8.35034 0.25
551 4.53537 1.57394 2.61389 0.25
552 3.69262 5.38505 3.9025 0.25
553 6.73866 0.011934 3.75846 0.5
554 4.45075 6.49785 3.21231 0.25
555 4.99501 6.64153 3.72462 0.5
556 6.7977 1.02641 0.964242 0.25
557 7.33682 5.30529 4.17276 0.5
558 6.19662 0.515235 3.72611 0.25
559 1.29068 0.513615 5.82971 0.5
560 4.85016 3.54052 2.74239 0.25
561 2.94006 3.0658 3.99444 0.25
562 4.90153 8.31889 5.54047 0.25
563 2.77802 6.10363 1.29569 0.25
564 6.3154 6.94003 0.678449 0.5
565 6.4484 1.46265 6.37758 0.25
566 1.27077 1.50148 2.15592 0.25
567 4.32436 5.81018 6.08765 0.25
568 5.97254 1.16132 3.02779 0.25
569 2.9372 8.01903 7.61455 0.25
570 1.955 6.83655 4.52153 0.25
571 1.87193 4.43805 6.34901 0.25
572 0.150564 2.64709 3.79958 0.5
573 4.35763 1.1819 2.2907 0.25
574 1.71131 6.11019 6.1159 0.25
575 1.90457 1.70552 7.95656 0.25
576 4.22801 5.57207 7.81816 0.25
577 4.6686 0.0677305 5.16513 0.25
578 1.71654 7.40558 3.47089 0.25
579 7.4023 5.29397 7.5268 0.25
580 7.53731 0.177051 4.90095 0.5
581 4.21797 4.58681 6.06932 0.25
582 6.10458 3.121 4.64466 0.25
583 5.70886 3.6264 5.09757 0.5
584 4.62681 6.55045 5.93338 0.25
585 5.21201 3.16738 1.42778 0.25
586 1.50444 8.24373 2.19183 0.5
587 5.08678 7.5853 2.96254 0.25
588 5.91832 5.26859 3.64484 0.25
589 8.145 3.19144 7.30863 0.25
590 3.88018 6.22671 2.05923 0.25
591 6.20627 1.41147 1.64251 0.25
592 7.35946 7.31842 1.88573 0.5
593 6.91221 7.08565 1.26438 0.25
594 2.18479 4.30229 8.24297 0.5
595 0.68008 3.7762 7.8193 0.25
596 2.13895 0.585497 0.197517 0.25
597 0.0267598 0.525918 5.2852 0.5
598 2.68494 5.58609 1.37957 0.25
599 2.01064 8.13438 7.30883 0.25
600 7.79091 0.973826 5.67475 0.25
601 0.679672 0.945125 5.4857 0.25
602 3.64376 0.151191 2.16442 0.25
603 4.25396 5.28432 8.26575 0.25
604 7.42852 5.25421 7.04199 0.25
605 7.94287 2.13248 3.59952 0.25
606 2.07712 7.33847 1.74093 0.25
607 4.59468 5.17121 7.89188 0.25
608 3.90289 7.56 7.65439 0.25
609 6.86378 5.15379 4.77558 0.25
610 1.97083 1.32408 5.70503 0.25
611 3.07214 1.0958 7.66899 0.25
612 0.543061 8.03231 0.564566 0.25
613 6.13618 1.53535 8.30026 0.25
614 4.35865 0.791342 4.86819 0.25
615 4.7376 2.67975 4.0497 0.25
616 0.937474 5.31013 2.94981 0.25
617 1.69982 7.46468 1.49187 0.25
618 7.39094 7.59827 4.26168 0.5
619 7.91177 8.20843 4.41626 0.25
620 7.82141 7.21341 2.8685 0.5
621 4.41588 6.33446 3.98695 0.25
622 6.0143 6.56474 5.94955 0.25
623 5.73377 6.45838 0.74591 0.25
624 0.329729 2.83974 4.58424 0.25
625 1.26316 5.04335 8.20452 0.25
626 3.60982 0.212305 1.32048 0.25
627 5.24285 4.57689 2.1703 0.25
628 8.00612 3.11374 3.01138 0.5
629 7.31857 3.74832 0.664824 0.25
630 0.916053 0.053108 2.67055 0.25
631 1.57097 1.37987 7.68046 0.25
632 7.77171 7.90455 1.75646 0.25
633 5.71067 7.31949 0.985309 0.25
634 2.96226 0.32818 4.07669 0.25
635 1.26495 6.74257 0.444971 0.5
636 1.71929 2.01446 1.34185 0.25
637 5.10181 8.22832 5.07537 0.25
638 4.8428 1.02639 4.8802 0.25
639 4.73707 1.90281 0.0201243 0.25
640 5.24886 7.1478 1.08038 0.25
641 1.31194 6.74464 5.16311 0.25
642 4.09601 1.47574 5.87523 0.25
643 5.96886 6.95276 5.63905 0.25
644 6.00563 0.779883 3.3583 0.25
645 2.85882 2.08473 1.18335 0.25
646 7.89006 7.14228 6.91531 0.25
647 2.44784 2.9697 4.0479 0.25
648 5.07051 1.06997 8.17981 0.25
649 0.656268 3.67015 1.86613 0.25
650 8.38371 3.67616 1.34794 0.25
651 3.18744 3.15256 3.61426 0.25
652 7.44354 0.130612 6.76353 0.25
653 1.44301 6.26484 0.927206 0.25
654 0.723423 2.53659 8.1197 0.25
655 3.49009 3.56099 6.34955 0.5
656 0.517314 3.51856 7.05527 0.25
657 1.70635 5.70422 5.82798 0.25
658 7.13331 0.586114 3.79625 0.25
659 2.1897 1.95967 7.55321 0.25
660 6.86868 6.2561 4.33926 0.5
661 8.03819 1.86335 8.32568 0.25
662 3.89296 4.74334 4.21552 0.25
663 2.50865 3.60072 1.73476 0.25
664 6.86558 2.89272 4.93734 0.25
665 7.96772 3.95434 1.23026 0.25
666 5.97549 6.66557 6.44141 0.25
667 6.87368 3.73034 0.494546 0.25
668 6.95527 6.67738 1.63525 0.25
669 6.32877 5.06252 6.65277 0.25
670 4.27869 7.7933 4.99184 0.25
671 3.44124 4.79314 4.45419 0.25
672 2.79347 3.26128 1.94485 0.25
673 0.946096 1.0775 3.00447 0.25
674 4.27648 7.94773 3.12537 0.25
675 5.68803 3.61221 5.84542 0.25
676 7.59023 8.05195 2.17024 0.25
677 5.90136 1.64472 1.96143 0.25
678 7.66203 6.75319 4.95016 0.25
679 1.30067 6.01827 1.31873 0.25
680 3.71741 6.4447 0.1219 0.25
681 7.81481 0.23718 4.15843 0.25
682 2.6096 5.84733 1.76292 0.25
683 2.27394 7.92682 6.98377 0.25
684 0.393441 3.42906 1.52964 0.25
685 2.39174 3.32877 6.28682 0.25
686 4.19846 3.38242 7.20775 0.25
687 2.45623 4.09068 0.574382 0.25
688 4.54032 1.61334 6.02731 0.25
689 5.86216 4.47475 7.73593 0.25
690 6.09969 0.683382 2.88421 0.25
691 7.20861 1.53653 1.49692 0.25
692 5.61323 4.90952 1.97275 0.25
693 7.39101 1.82825 6.65431 0.25
694 7.68563 5.34087 5.27906 0.25
695 8.27658 3.14659 5.86678 0.25
696 5.78142 6.03244 3.49495 0.5
697 4.21756 3.76251 6.22929 0.25
698 1.98864 1.14591 5.23558 0.25
699 1.51608 6.93787 4.76256 0.25
700 4.61134 5.46883 1.36097 0.25
701 4.77481 1.83651 7.86129 0.25
702 2.15759 4.25183 7.45853 0.25
703 3.39902 6.53734 7.79856 0.5
704 4.83714 4.7367 7.94605 0.25
705 4.72784 2.99281 1.55629 0.25
706 5.1771 0.173102 8.2468 0.25
707 4.7338 3.78319 1.4699 0.5
708 5.21432 7.41444 8.11189 0.25
709 2.78974 6.53313 1.89074 0.5
710 1.79381 4.63477 6.77438 0.25
711 5.20522 6.30964 3.04588 0.25
712 0.35817 5.2386 8.14467 0.25
713 2.67404 4.11018 1.81426 0.25
714 5.47471 3.78362 1.17222 0.25
715 4.9169 6.70296 2.98279 0.25
716 6.43883 1.33611 7.57314 0.25
717 7.42564 8.04945 3.7339 0.25
718 5.94016 3.29934 7.31005 0.25
719 5.77971 4.74511 7.24611 0.25
720 1.60254 7.7543 3.76979 0.25
721 6.57421 2.09966 2.24649 0.25
722 2.15242 7.38403 2.90207 0.5
723 2.24096 6.82777 2.34167 0.25
724 7.31154 6.80848 1.25697 0.25
725 8.12637 6.48262 7.33028 0.25
726 1.10818 0.975007 5.28235 0.25
727 3.36786 0.618674 1.46014 0.25
728 3.64613 6.01026 8.24508 0.25
729 5.02105 5.97975 3.40332 0.25
730 2.76748 6.90217 7.30638 0.25
731 5.05991 3.62349 3.17826 0.25
732 4.00251 4.0274 6.61367 0.25
733 3.80313 5.49063 7.59564 0.25
734 4.25485 0.772139 2.49193 0.25
735 3.47627 3.04363 6.97414 0.25
736 7.72725 2.14987 0.175909 0.25
737 3.63204 0.0443825 0.847871 0.25
738 0.243774 0.432913 1.16165 0.25
739 4.7626 6.17238 3.05805 0.25
740 4.99907 7.45362 3.42932 0.25
741 0.565345 0.446656 0.690517 0.25
742 3.69574 4.63652 6.04319 0.25
743 6.97079 1.11211 1.42597 0.25
744 4.46627 0.439941 2.26568 0.25
745 3.50705 4.20407 5.90356 0.25
746 1.46257 6.23426 4.64678 0.5
747 4.29145 8.2304 1.62697 0.25
748 2.65134 6.78639 7.77539 0.25
749 1.41156 1.17211 1.86682 0.25
750 8.33925 3.31526 1.75342 0.25
751 1.64065 0.795239 5.18763 0.25
752 6.19464 5.08691 7.14209 0.25
753 4.08254 0.557722 1.72354 0.5
754 4.52102 5.44282 1.84657 0.25
755 3.25313 2.75901 1.17713 0.5
756 0.166298 6.7251 7.51267 0.25
757 5.47028 6.98099 5.66489 0.25
758 6.87785 4.11611 7.36143 0.25
759 3.59528 8.29008 6.32258 0.25
760 0.101952 2.50101 3.08429 0.25
761 3.79937 7.12046 7.44688 0.25
762 1.15415 1.81971 3.2269 0.5
763 3.449 8.1644 2.02316 0.25
764 1.78306 6.1414 0.590016 0.25
765 7.58863 5.10814 3.50645 0.25
766 8.1364 4.30816 2.81497 0.25
767 3.01251 7.12505 7.72367 0.25
768 1.72595 2.573 4.25121 0.25
769 8.1118 3.81685 1.69869 0.25
770 4.65864 1.01487 7.9181 0.25
771 6.61782 0.898671 6.38064 0.25
772 5.0804 2.54649 7.94187 0.25
773 4.78977 0.288602 4.53506 0.5
774 3.55691 0.349058 5.98982 0.25
775 7.48619 4.51492 3.07145 0.5
776 6.93772 4.35712 0.806318 0.5
777 5.96085 6.87325 8.29616 0.25
778 5.35014 8.22577 7.87378 0.25
779 8.28203 8.29557 4.09364 0.25
780 2.30139 1.56251 5.98522 0.25
781 2.34429 1.91726 8.01329 0.25
782 0.954788 7.30556 0.0374267 0.25
783 6.63805 3.91618 1.31875 0.25
784 2.07958 6.86096 1.84454 0.25
785 2.64389 1.70469 6.32951 0.25
786 2.42172 7.22268 2.11651 0.25
787 7.93052 7.29865 7.39176 0.25
788 7.92663 3.86903 2.85005 0.25
789 3.17284 8.27121 3.98592 0.25
790 6.69995 8.21461 6.49676 0.25
791 0.0131815 4.85044 3.35581 0.5
792 2.55436 8.25312 7.24929 0.25
793 8.29976 6.62187 2.93073 0.25
794 5.27076 6.40236 6.27373 0.5
795 2.35199 4.10456 3.15936 0.25
796 2.51067 6.56391 5.80796 0.25
797 7.09698 6.95222 0.800323 0.25
798 8.02905 4.4053 1.13299 0.25
799 4.12478 3.4225 5.94034 0.25
800 0.0646665 2.05273 3.297 0.25
801 3.5074 7.46839 7.21048 0.25
802 3.73323 5.17713 4.31012 0.25
803 3.08614 8.02556 6.86613 0.5
804 4.04024 6.69141 1.86981 0.25
805 1.97202 7.80192 1.68791 0.25
806 2.57346 1.76297 3.80108 0.25
807 4.41469 6.34347 5.52285 0.25
808 4.19488 2.3556 7.94641 0.25
809 1.8872 6.11826 5.62217 0.25
810 5.90993 7.39349 6.83485 0.25
811 1.42921 3.23335 4.48693 0.5
812 5.90692 7.46474 0.561183 0.25
813 4.37421 1.95837 2.86734 0.25
814 2.50332 7.52722 6.81565 0.25
815 2.36518 8.20596 4.13523 0.25
816 0.214967 3.21985 4.35297 0.25
817 4.38959 1.83926 8.08517 0.25
818 3.9933 2.15014 3.02046 0.25
819 1.92376 5.19814 1.10486 0.25
820 2.98413 3.15272 6.78221 0.25
821 1.16142 1.88906 8.03265 0.5
822 6.12138 4.47437 3.81021 0.5
823 5.23726 0.345099 7.81206 0.25
824 1.22169 0.609525 5.0414 0.25
825 3.88375 5.91724 7.82599 0.25
826 3.22873 3.73808 1.5138 0.5
827 5.70217 7.13968 6.40172 0.25
828 8.10454 2.35947 8.307 0.25
829 8.35846 8.07077 4.49241 0.25
830 1.51481 1.61041 2.59898 0.25
831 2.34886 3.82831 7.53298 0.25
832 6.03436 4.39197 2.42769 0.25
833 1.83446 1.47088 6.19486 0.25
834 3.96226 0.374098 2.45781 0.25
835 6.41809 1.76553 1.31511 0.25
836 3.42771 7.81219 7.56669 0.25
837 4.06963 5.13291 7.85682 0.25
838 7.18949 0.847345 1.07529 0.25
839 6.01825 7.49966 6.34518 0.25
840 6.90417 4.83602 7.14823 0.5
841 3.56505 6.60393 1.97799 0.25
842 0.316924 2.05636 2.52129 0.5
843 6.09537 3.77924 5.71944 0.25
844 4.91137 2.39145 0.0177444 0.25
845 7.4558 2.13034 5.34292 0.25
846 3.04613 3.63961 7.27323 0.5
847 2.345 4.5637 0.625005 0.25
848 1.92705 6.06767 5.16998 0.25
849 4.95772 8.01783 2.67511 0.25
850 6.63156 2.80962 5.64933 0.5
851 4.68658 7.96174 5.28715 0.25
852 6.56061 1.80042 8.20629 0.25
853 3.46376 0.322391 6.52371 0.25
854 4.84898 1.77957 5.04668 0.5
855 0.838869 4.18104 5.3066 0.25
856 0.416675 5.34099 3.05427 0.25
857 4.2306 6.27666 1.7415 0.25
858 2.5992 4.66784 3.73348 0.25
859 6.72685 4.84494 4.35099 0.25
860 7.68282 4.17313 0.834858 0.25
861 4.90408 2.99251 7.85593 0.25
862 6.72837 4.94763 3.85588 0.25
863 5.41661 6.28186 0.462848 0.25
864 7.23343 6.90871 2.53511 0.25
865 3.82215 5.53718 8.08023 0.25
866 4.88561 8.05777 2.16928 0.25
867 1.80343 3.97689 7.54918 0.25
868 2.24159 1.40826 0.254653 0.5
869 0.85313 3.17764 7.13646 0.25
870 6.28063 5.57342 3.48014 0.25
871 2.8293 7.29687 7.0867 0.25
872 6.08227 3.07522 5.19849 0.25
873 8.32848 0.141382 0.252367 0.25
874 4.90041 1.77416 5.76678 0.25
875 2.13438 4.08537 1.24416 0.5
876 1.61175 5.81687 5.33058 0.25
877 8.24983 5.2132 8.00432 0.25
878 5.74666 0.972547 2.6165 0.25
879 2.80662 8.29621 4.32054 0.25
880 6.46891 6.03503 3.29324 0.25
881 7.46165 1.10123 1.40434 0.25
882 0.0243089 7.22562 7.58182 0.25
883 0.353277 3.30846 2.01607 0.25
884 6.93212 3.71945 1.03804 0.25
885 0.788043 3.68016 5.35747 0.25
886 7.52644 7.60053 3.51646 0.25
887 1.10648 6.46803 1.16676 0.25
888 0.708174 4.85547 3.7632 0.25
889 1.21711 7.59084 2.29562 0.25
890 7.81147 4.20304 2.47441 0.25
891 0.757759 2.41117 7.62121 0.25
892 7.44845 3.79912 1.14261 0.25
893 1.03841 7.94669 0.573456 0.25
894 4.26984 5.13865 1.58163 0.25
895 4.57229 5.86481 1.63336 0.25
896 1.68433 1.2519 8.15778 0.25
897 0.0170683 4.14609 1.51749 0.25
898 0.408225 5.03379 4.07789 0.25
899 1.13157 8.19468 6.12258 0.25
900 4.93244 6.33139 5.68697 0.25
901 1.16282 1.32017 2.66653 0.25
902 7.56237 4.25026 1.29584 0.25
903 5.87423 3.69114 4.04051 0.25
904 7.11736 4.43323 7.72619 0.25
905 5.19535 0.70082 5.01241 0.25