ITEM: TIMESTEP
350000
ITEM: NUMBER OF ATOMS
1000
ITEM: BOX BOUNDS xy xz yz pp pp pp
0.0000000000000000e+00 8.3788359999999997e+00 0.0000000000000000e+00
0.0000000000000000e+00 8.3788359999999997e+00 0.0000000000000000e+00
0.0000000000000000e+00 8.3788359999999997e+00 0.0000000000000000e+00
ITEM: ATOMS id x y z radius
1 2.97927 6.9441 4.77118 0.25
2 4.77998 5.13126 5.13219 0.25
3 7.10249 4.65905 3.09179 0.25
4 7.3874 0.980093 5.88394 0.5
5 0.99069 5.68547 5.93495 0.25
6 8.32104 1.93512 3.45582 0.25
7 4.04031 3.31697 6.48622 0.25
8 4.78327 7.78747 2.99177 0.25
9 1.05625 6.05813 3.65398 0.25
10 4.25912 1.70544 3.38242 0.25
11 5.71649 0.355324 8.30048 0.25
12 5.31391 3.5262 1.53479 0.25
13 0.601221 2.37036 7.48295 0.25
14 3.49246 2.81819 7.17185 0.25
15 8.10826 2.84658 6.45341 0.25
16 7.33083 0.870321 6.84371 0.25
17 0.855893 5.38596 8.21223 0.25
18 5.74155 7.65473 8.0457 0.25
19 4.13025 1.98767 7.77699 0.25
20 7.68354 1.36293 0.577403 0.25
21 5.00537 4.28589 1.98341 0.25
22 4.09806 3.32871 1.05973 0.25
23 2.19001 3.38194 1.96918 0.25
24 2.75561 1.39689 4.11852 0.25
25 2.61802 4.44956 2.98195 0.25
26 0.388894 8.17028 5.63499 0.25
27 3.69863 0.555452 5.8045 0.25
28 4.39794 2.41189 0.0541079 0.25
29 5.03651 6.96951 2.93454 0.25
30 7.42727 7.35042 2.42487 0.25
31 2.58393 0.393074 7.8504 0.25
32 1.00008 2.59032 7.32748 0.25
33 7.71256 0.512028 5.35678 0.25
34 2.07544 4.87274 1.49675 0.25
35 8.09628 0.0499964 4.5572 0.25
36 6.75472 1.87499 5.85426 0.5
37 4.57923 1.17027 2.44578 0.25
38 2.17831 3.33464 4.24662 0.25
39 6.15756 2.65857 4.95952 0.25
40 5.26225 7.73986 3.15976 0.25
41 6.85703 2.14616 2.57418 0.25
42 5.55967 5.99652 5.82668 0.25
43 3.52021 7.67799 4.44509 0.25
44 3.72477 0.0600099 5.65641 0.25
45 5.78875 4.05323 4.0539 0.25
46 3.25833 5.98332 1.38326 0.5
47 4.88463 0.787655 5.42082 0.25
48 8.01599 6.32016 7.03071 0.25
49 7.39994 6.77216 4.70882 0.25
50 7.85319 1.08747 0.973948 0.25
51 2.65193 3.39656 4.38257 0.25
52 0.751455 1.68144 2.3923 0.25
53 6.48004 5.41962 6.90042 0.25
54 5.87383 3.27507 4.11423 0.25
55 1.57083 1.45758 5.95634 0.25
56 1.06054 7.32515 8.3537 0.25
57 4.82478 0.842518 2.10882 0.25
58 2.36904 2.10119 4.24421 0.25
59 4.94855 1.38395 6.37037 0.25
60 7.77297 5.54172 5.17926 0.25
61 5.30697 0.0930401 8.12511 0.25
62 5.18698 1.81582 7.90449 0.5
63 7.48361 6.57062 1.14102 0.25
64 1.16751 6.08017 0.698955 0.25
65 4.17605 0.161999 1.83809 0.25
66 2.0192 4.72982 7.12679 0.25
67 7.9457 4.98 7.00928 0.25
68 7.16494 0.569734 6.50175 0.25
69 0.163641 5.59034 7.92833 0.25
70 1.8299 4.76247 0.678709 0.25
71 7.97572 1.4191 0.219906 0.25
72 6.41549 6.26745 3.4203 0.25
73 0.533399 7.51435 6.76483 0.25
74 7.41029 5.68557 6.85708 0.25
75 7.21457 0.0197744 3.49412 0.25
76 7.56342 6.45413 4.34908 0.25
77 5.67236 3.04604 5.53592 0.25
78 5.36145 3.93728 1.26026 0.25
79 7.697 5.05379 4.5048 0.25
80 5.89365 3.46513 5.46333 0.25
81 7.18176 1.3897 1.32668 0.25
82 8.18703 2.84731 5.91689 0.25
83 4.43055 5.88478 5.43547 0.25
84 1.21842 1.13879 6.06847 0.25
85 1.55472 1.62336 5.45619 0.25
86 4.55206 0.0228836 5.76564 0.25
87 1.70817 1.66517 1.36753 0.25
88 3.25122 6.80877 1.46358 0.25
89 6.65435 6.97554 0.685309 0.25
90 5.56186 6.3794 5.52285 0.25
91 3.82387 4.21919 6.11452 0.25
92 6.15764 4.51873 7.29202 0.25
93 5.11826 6.56635 5.26582 0.25
94 6.9491 8.21991 4.27187 0.25
95 0.334133 4.50661 7.68423 0.5
96 5.43981 3.1332 3.55787 0.5
97 4.21264 4.84387 7.59437 0.25
98 8.21024 2.41781 3.41733 0.25
99 1.42435 6.40794 5.80962 0.25
100 7.01753 6.90945 1.07074 0.25
101 0.477286 8.13898 0.156615 0.25
102 7.91115 4.80889 3.34851 0.25
103 6.76408 1.22117 1.53906 0.25
104 0.606472 5.01326 7.30895 0.25
105 5.17598 5.79161 5.12559 0.5
106 5.13559 0.247053 4.66415 0.25
107 4.19426 3.25787 6.95507 0.25
108 4.89494 1.50707 0.1519 0.25
109 0.602398 0.433754 6.16085 0.25
110 2.16459 8.0328 8.16003 0.25
111 3.13651 4.08379 7.07015 0.25
112 4.51936 2.2046 7.98542 0.25
113 1.73004 2.05914 2.03984 0.5
114 1.70952 4.02151 6.87839 0.25
115 4.52371 6.33046 6.09242 0.25
116 2.62904 7.18617 7.00961 0.25
117 4.16945 2.37922 3.82519 0.5
118 6.55718 7.12711 1.15808 0.25
119 0.892531 6.15369 2.82931 0.25
120 0.312673 2.95569 2.4768 0.25
121 3.14935 4.01378 3.54711 0.25
122 6.72331 0.653212 6.35871 0.25
123 5.29706 0.459821 5.59266 0.25
124 8.07979 7.95508 2.54346 0.25
125 3.44343 2.07724 3.86223 0.25
126 3.79422 1.38449 5.82692 0.25
127 5.36213 3.9614 1.75021 0.25
128 6.74861 5.57856 7.31433 0.25
129 1.2206 6.31375 3.99505 0.25
130 5.49566 6.20022 0.869948 0.25
131 6.96034 1.45749 6.34997 0.25
132 6.02424 4.06751 7.53511 0.25
133 3.25904 1.95433 3.45462 0.25
134 4.53965 2.68195 8.0267 0.25
135 5.54866 3.86484 3.60947 0.25
136 2.8412 2.46136 3.72735 0.5
137 2.83219 3.97515 3.10116 0.25
138 7.4657 7.8685 2.95187 0.5
139 2.55819 7.78685 4.81751 0.25
140 5.0916 8.0111 8.1266 0.25
141 7.81953 5.96049 4.95264 0.25
142 0.974663 5.01184 3.16178 0.25
143 2.24115 2.14324 0.00586369 0.25
144 5.13125 1.03577 2.8351 0.5
145 7.45903 1.95621 3.92902 0.25
146 5.94834 7.32488 0.424699 0.25
147 6.5288 5.65458 4.48148 0.25
148 2.04759 2.88437 4.43683 0.25
149 4.52152 8.28478 2.49726 0.5
150 5.11043 2.94571 4.24666 0.25
151 3.47625 5.91289 7.21934 0.25
152 3.4759 4.59768 5.47954 0.25
153 6.68592 6.10625 2.30757 0.5
154 7.32423 2.36383 4.61489 0.5
155 3.02026 7.26079 7.78301 0.25
156 7.49877 3.52504 1.34154 0.25
157 7.48826 5.86846 1.57345 0.25
158 2.44577 3.62849 0.733021 0.25
159 7.14897 7.81156 4.48322 0.25
160 6.51909 1.97166 2.91834 0.25
161 0.872808 5.16447 2.71054 0.25
162 5.90653 4.13146 7.03567 0.25
163 3.38394 3.67686 4.24225 0.5
164 2.47839 3.87595 2.49334 0.5
165 5.51788 8.08202 7.89845 0.25
166 0.137794 3.71284 7.82844 0.25
167 6.42175 3.9858 0.0084989 0.25
168 4.72168 6.09388 5.74501 0.25
169 3.90279 4.38349 5.67382 0.25
170 0.0757083 2.61401 6.22792 0.25
171 7.68744 5.76017 1.09526 0.25
172 1.1082 2.80737 6.87808 0.25
173 4.31066 6.33454 5.63765 0.25
174 2.41106 2.15762 1.11711 0.25
175 7.67752 2.32018 6.07329 0.5
176 2.23162 6.1331 6.28429 0.25
177 5.55323 3.63987 4.09131 0.25
178 3.12057 6.52906 1.87081 0.25
179 3.59059 2.33886 3.37096 0.25
180 5.91685 6.37765 5.93215 0.25
181 6.67106 4.14577 6.7815 0.25
182 3.19936 5.15501 3.27432 0.25
183 8.02192 7.54615 1.81059 0.25
184 4.35587 5.08285 8.01902 0.25
185 5.81004 6.82573 6.1923 0.25
186 7.54167 5.95713 4.52798 0.25
187 3.32591 5.259 4.21531 0.25
188 0.87933 5.86386 3.20817 0.25
189 4.15838 6.67587 3.52922 0.25
190 4.18899 3.25611 1.51694 0.25
191 6.91825 1.443 0.506225 0.5
192 0.798437 5.14286 7.76469 0.25
193 3.90477 5.68775 1.66264 0.25
194 2.67344 6.29456 1.88421 0.25
195 6.12154 5.73886 2.70412 0.25
196 2.24748 7.93103 2.54673 0.25
197 1.04469 0.271389 2.13548 0.25
198 7.56209 4.78856 6.81867 0.25
199 1.07649 1.14794 3.10169 0.25
200 4.42599 5.21156 1.51062 0.5
201 6.6459 1.57626 3.13649 0.25
202 8.35153 3.90742 5.50032 0.25
203 3.75677 1.8349 3.52127 0.25
204 5.65053 8.02121 0.306471 0.5
205 2.51301 7.3098 4.26846 0.5
206 0.487989 4.56991 5.21104 0.25
207 5.63304 2.84058 4.2325 0.25
208 6.90839 5.34341 4.33033 0.25
209 5.37534 7.05109 0.0614034 0.5
210 1.89735 7.93059 2.90546 0.25
211 0.63147 3.76486 5.08229 0.25
212 1.48798 7.85094 8.118 0.5
213 8.35311 4.18117 2.71678 0.25
214 1.81146 7.86354 2.40102 0.25
215 2.87646 4.22085 3.99121 0.25
216 6.41167 1.92593 2.45346 0.25
217 5.05306 3.82024 2.10605 0.25
218 2.3415 3.11738 4.67559 0.25
219 4.42012 1.32851 2.95803 0.25
220 3.64898 3.57454 0.965155 0.25
221 4.11251 0.299442 5.92655 0.25
222 7.53567 0.883821 5.1332 0.25
223 8.23971 2.76526 2.65416 0.25
224 7.25615 5.38795 7.32157 0.25
225 7.29762 2.14775 5.39852 0.25
226 4.54264 2.00387 7.54887 0.25
227 6.56015 3.69332 6.93864 0.25
228 5.45039 3.25644 4.36078 0.25
229 5.40002 5.07166 1.96645 0.25
230 0.26322 8.15795 6.4659 0.5
231 5.28644 4.61256 1.34575 0.5
232 2.16169 2.97351 3.89569 0.25
233 4.11931 5.09782 3.90232 0.25
234 6.50536 1.06396 6.59211 0.25
235 3.25172 7.29384 4.55324 0.25
236 0.931775 2.39812 7.84834 0.25
237 8.32008 2.97331 7.49999 0.25
238 3.41784 0.473263 2.12622 0.25
239 0.268315 2.31318 3.64911 0.25
240 6.65064 6.34163 1.53673 0.25
241 3.41947 7.12509 7.98642 0.25
242 1.78053 7.2499 2.61476 0.5
243 2.81749 4.79814 3.34061 0.25
244 7.0881 3.46168 1.06443 0.25
245 2.17637 0.991552 5.80924 0.25
246 7.576 8.10844 3.72882 0.25
247 3.5523 2.63073 3.82059 0.25
248 3.67778 3.18796 1.29341 0.25
249 0.0597311 5.04387 7.24605 0.25
250 1.25961 3.29703 5.43135 0.25
251 5.3832 2.72505 4.86432 0.5
252 3.20137 1.99534 4.30101 0.25
253 7.95078 5.64358 7.40407 0.5
254 7.14917 5.86984 7.26651 0.25
255 4.69882 0.753338 6.09487 0.5
256 5.85484 6.0807 0.515879 0.25
257 1.00148 0.313692 2.65591 0.25
258 1.70682 1.74217 2.70535 0.25
259 4.63323 3.07618 1.70732 0.25
260 7.75826 6.19239 1.34587 0.25
261 3.53482 0.174953 1.32343 0.25
262 3.47935 2.41258 4.30343 0.25
263 2.18129 0.334397 0.123483 0.5
264 2.76953 4.31546 3.48403 0.25
265 1.22163 3.81721 7.43585 0.5
266 1.12015 7.90289 6.97538 0.5
267 5.26389 2.56765 7.93684 0.25
268 6.26132 7.64243 0.375356 0.25
269 1.83125 5.2497 0.83656 0.25
270 3.88367 3.60867 1.37384 0.25
271 7.62083 7.79986 4.69978 0.25
272 1.60435 0.940915 2.49335 0.25
273 1.44739 3.22699 7.05222 0.25
274 0.639639 5.6419 7.78336 0.25
275 4.544 4.55449 1.24208 0.25
276 2.40919 3.16087 0.872035 0.25
277 6.81164 0.713914 6.85849 0.25
278 3.8483 6.20625 0.986167 0.25
279 4.18936 0.50689 5.23724 0.5
280 7.96443 8.10937 4.93453 0.25
281 1.07754 6.54872 0.449674 0.25
282 6.17207 7.00055 6.47141 0.25
283 0.893156 0.133136 6.42111 0.25
284 7.30656 4.36689 0.829761 0.25
285 1.85776 6.01359 1.11849 0.5
286 5.4572 6.67372 3.06556 0.25
287 1.56118 8.03862 3.47567 0.5
288 2.84216 7.3458 4.90258 0.25
289 2.39045 7.30818 5.06165 0.25
290 2.09163 3.90011 1.8516 0.25
291 8.27343 7.58389 7.34562 0.25
292 7.75663 2.52307 3.41997 0.25
293 7.52937 4.48783 3.27433 0.25
294 5.91205 3.59366 3.33801 0.25
295 8.14164 4.22067 1.0027 0.25
296 0.459877 4.16689 4.53822 0.5
297 3.74962 3.09658 6.83964 0.25
298 6.30538 5.24544 7.35723 0.25
299 5.87766 4.93728 7.37313 0.25
300 6.30658 3.73502 0.475573 0.25
301 0.963402 8.18128 0.181052 0.25
302 0.0766852 4.32048 1.46854 0.25
303 3.74281 0.891992 1.37425 0.25
304 2.04593 2.34888 4.56302 0.25
305 0.850462 4.84891 8.1415 0.25
306 2.40693 1.95355 4.71091 0.25
307 1.37356 4.87722 7.49768 0.5
308 3.59008 5.85275 3.13313 0.25
309 4.50382 1.10661 5.44426 0.25
310 0.890255 4.65711 4.0674 0.25
311 7.29174 0.0412959 3.97787 0.25
312 0.942217 0.977642 2.32147 0.5
313 1.02875 3.71367 5.34663 0.25
314 5.51201 3.76356 3.13433 0.25
315 1.25817 5.14428 8.12571 0.25
316 1.74801 4.33994 7.20049 0.25
317 7.49196 2.38757 3.82357 0.25
318 2.25132 2.55817 4.14729 0.25
319 4.85234 7.47678 8.16132 0.25
320 1.87348 6.32823 6.05681 0.25
321 4.1917 0.844874 1.20423 0.25
322 7.20022 6.49121 5.1081 0.25
323 0.979045 5.93652 4.15404 0.25
324 4.13723 7.31144 7.92001 0.5
325 0.998785 1.73913 0.211551 0.25
326 4.06295 4.8164 4.99291 0.5
327 7.51828 7.23617 3.42199 0.25
328 2.25919 7.6296 1.73276 0.25
329 1.34075 5.7701 3.42758 0.25
330 8.2814 7.09519 7.43261 0.25
331 0.780579 5.38155 3.78491 0.5
332 7.35875 6.50659 2.14034 0.25
333 1.14134 1.58642 2.02923 0.25
334 6.89285 1.63464 1.71897 0.25
335 3.30712 3.1892 0.921603 0.25
336 3.09327 7.07516 6.82522 0.25
337 4.31817 7.26403 3.01252 0.5
338 6.09655 7.4146 8.36177 0.25
339 2.19649 7.93511 3.94571 0.25
340 4.8556 0.469731 5.01429 0.25
341 6.82531 8.20267 3.30853 0.25
342 0.849628 5.46034 7.37345 0.25
343 2.78243 1.41071 0.345934 0.25
344 1.35909 5.43239 2.69627 0.25
345 0.465984 1.52566 2.67932 0.25
346 0.498082 2.46191 0.104081 0.25
347 3.46062 5.90243 7.69124 0.25
348 7.33838 7.78472 2.21448 0.25
349 0.799032 2.14139 8.29131 0.25
350 6.77986 1.65256 2.68295 0.25
351 1.43267 6.84666 0.539308 0.25
352 6.6079 3.60661 7.75949 0.5
353 2.43272 0.0899537 7.48139 0.25
354 1.80628 0.837256 5.47059 0.25
355 0.72334 8.36416 5.97028 0.25
356 1.91589 1.76908 5.82887 0.25
357 2.85748 4.01783 6.70892 0.25
358 6.3391 3.48494 5.26771 0.25
359 4.46709 1.38709 6.54627 0.25
360 1.94732 2.0944 1.27646 0.25
361 0.72842 7.9289 0.53446 0.25
362 6.22619 3.97632 6.71106 0.25
363 7.93891 4.03128 1.94993 0.25
364 6.13337 3.68462 7.17754 0.25
365 5.45992 5.80693 0.509771 0.25
366 5.06706 6.10449 0.622652 0.25
367 2.40427 4.63036 6.80438 0.25
368 6.73062 3.23292 -0.0206599 0.25
369 1.21972 6.8788 0.125272 0.25
370 5.29195 0.621603 8.19683 0.25
371 2.27663 7.99953 4.44536 0.25
372 2.24325 4.57876 0.575325 0.25
373 7.09668 2.80328 5.22157 0.25
374 3.6968 4.37992 4.44867 0.25
375 4.82309 0.802785 8.08964 0.25
376 2.61327 5.90516 0.994221 0.25
377 6.4012 1.14227 2.15668 0.5
378 0.467713 3.74724 7.4839 0.25
379 4.68182 1.30348 8.09219 0.25
380 2.52684 6.89418 4.87936 0.25
381 4.05339 5.50037 5.35734 0.25
382 2.01159 7.09012 4.73433 0.25
383 6.2884 5.27339 3.89285 0.5
384 1.27423 1.73471 1.5844 0.25
385 6.88176 1.46655 7.12132 0.5
386 1.43151 1.09638 5.63153 0.25
387 7.48728 0.869056 0.655538 0.25
388 0.896917 5.6662 2.7207 0.25
389 4.23038 2.68314 7.37174 0.5
390 3.9429 0.684363 6.22997 0.25
391 5.31004 4.6449 2.10797 0.25
392 8.16497 2.83225 3.18857 0.25
393 2.80243 6.53591 1.48191 0.25
394 -0.00403646 8.00638 0.222979 0.25
395 2.2419 1.76242 1.43695 0.25
396 4.62111 7.88453 8.23704 0.25
397 4.91267 0.676582 0.225198 0.25
398 7.28409 1.72146 8.17731 0.25
399 3.09064 4.40765 3.17162 0.25
400 5.08842 4.58972 0.620953 0.25
401 2.16083 7.06655 3.62731 0.25
402 8.2338 7.99054 7.08848 0.25
403 7.65607 6.22014 0.847501 0.25
404 7.94995 6.7615 7.18442 0.25
405 0.341215 7.69946 0.377206 0.25
406 5.5901 0.188045 4.463 0.25
407 2.44506 1.10949 8.06378 0.5
408 5.66703 3.31955 2.40434 0.25
409 2.20693 4.96662 0.996942 0.25
410 7.48631 1.04163 8.2926 0.5
411 4.45239 5.49844 5.10388 0.25
412 8.24054 7.15536 6.97722 0.25
413 1.43651 1.60956 0.333602 0.25
414 0.589869 3.07893 7.88045 0.5
415 6.56386 4.69088 2.92904 0.25
416 2.92882 3.17041 6.65263 0.25
417 3.42595 4.70391 3.79165 0.5
418 7.12548 6.73143 4.26261 0.25
419 3.89455 3.8477 5.85414 0.25
420 0.894865 3.0741 4.69742 0.25
421 3.87204 4.85406 5.67645 0.25
422 2.30324 5.4861 0.923297 0.25
423 0.304126 0.22968 5.8672 0.25
424 0.453573 3.39167 4.81229 0.25
425 1.96008 2.79713 1.39024 0.5
426 7.06685 5.72709 5.00802 0.5
427 2.76606 1.85059 4.30872 0.25
428 4.00262 5.17682 3.4491 0.25
429 4.34982 4.63334 5.65505 0.25
430 1.78604 7.34083 3.35702 0.25
431 0.976201 3.33252 6.83436 0.25
432 1.59581 7.03738 4.08318 0.5
433 2.06536 1.67009 7.72019 0.25
434 0.856285 6.40659 0.869525 0.25
435 5.78333 3.4343 2.88579 0.25
436 1.31785 5.85355 2.9527 0.25
437 8.21492 1.05851 0.164404 0.25
438 0.877163 3.36592 5.06367 0.25
439 3.77621 2.60972 6.73496 0.25
440 4.60386 1.46671 7.58635 0.25
441 8.03536 4.31058 5.45752 0.25
442 2.46331 5.60285 1.37452 0.25
443 0.358138 2.81278 6.92327 0.5
444 2.04338 3.51375 1.51685 0.25
445 5.1448 7.06742 0.805267 0.25
446 4.26502 5.86615 3.50244 0.5
447 1.48162 1.92248 5.78864 0.25
448 6.02222 7.26592 6.00434 0.25
449 1.1436 5.4884 5.50547 0.25
450 2.85373 3.42063 0.895136 0.25
451 2.76843 7.03768 5.27105 0.25
452 2.47097 0.939992 0.414236 0.25
453 4.72374 4.31287 0.83619 0.25
454 0.151619 3.40268 7.39004 0.25
455 8.07331 4.89916 7.46278 0.25
456 3.0185 1.76363 3.90641 0.25
457 2.40192 4.01532 7.27067 0.5
458 0.0282943 7.58899 6.854 0.25
459 5.02756 7.73632 0.157483 0.25
460 5.78112 0.147797 4.94949 0.25
461 2.49116 3.51868 1.2474 0.25
462 6.30145 5.02813 3.18268 0.25
463 5.08911 7.41208 2.83296 0.25
464 7.47637 6.9178 7.28762 0.25
465 7.06353 2.54091 5.66542 0.25
466 4.28338 1.817 2.82683 0.25
467 3.95954 6.1864 1.51093 0.25
468 6.84633 5.38214 2.99611 0.5
469 7.45187 7.43792 7.11176 0.25
470 1.30804 1.38879 8.291 0.25
471 1.74195 0.981213 6.00355 0.25
472 1.95705 7.25244 1.86573 0.25
473 7.53518 5.2199 5.43892 0.25
474 5.07744 5.85209 5.89383 0.25
475 1.42241 1.29373 2.77667 0.25
476 7.09815 0.767064 7.28864 0.25
477 3.22819 5.38519 3.72057 0.25
478 6.48744 3.28691 7.1694 0.25
479 3.42864 7.29548 7.55524 0.25
480 5.00421 0.460941 2.3513 0.25
481 7.8562 2.1078 4.18517 0.25
482 7.13555 5.0843 4.60073 0.25
483 8.20614 5.72224 5.01062 0.25
484 2.90467 0.420475 8.2488 0.25
485 7.88056 7.55769 6.96126 0.25
486 2.33228 6.48689 5.98887 0.25
487 8.33237 7.70257 4.35937 0.25
488 4.27558 4.17645 5.93636 0.25
489 0.266015 8.17597 0.617915 0.25
490 8.12873 7.96351 2.04192 0.25
491 4.53612 3.08913 1.23059 0.25
492 2.32287 1.60721 4.33127 0.25
493 6.25121 4.41376 6.82821 0.25
494 4.72 7.60348 2.50775 0.25
495 1.2091 5.97414 5.6156 0.25
496 3.08854 7.7087 4.72367 0.25
497 6.40499 4.38058 7.6698 0.25
498 3.37565 2.91252 4.22347 0.25
499 0.356421 5.33306 7.56452 0.25
500 3.73249 2.98391 6.3553 0.25
501 6.10281 4.55075 4.13816 0.25
502 1.77414 8.07554 7.43917 0.25
503 5.88271 5.04455 2.59301 0.5
504 7.77022 7.69956 2.24536 0.25
505 5.86421 1.24921 2.74585 0.25
506 7.13173 6.34132 4.59383 0.25
507 1.22813 0.316823 3.09756 0.25
508 0.690087 0.164195 5.52198 0.25
509 8.18402 4.9613 5.10357 0.5
510 5.09999 1.7835 5.62256 0.25
511 0.574127 0.61111 5.70632 0.25
512 0.901634 0.686447 3.00597 0.25
513 4.04548 1.24755 5.40343 0.25
514 1.86843 5.78868 6.14135 0.25
515 0.874472 7.58308 6.36497 0.25
516 7.4181 1.62295 6.14449 0.25
517 7.4027 5.46529 4.38475 0.25
518 0.860653 3.55611 4.6274 0.25
519 6.49927 1.87635 1.9613 0.25
520 6.7631 1.93302 6.55558 0.25
521 7.59559 1.69534 0.219467 0.25
522 6.56589 1.36376 7.78816 0.25
523 5.26465 6.7835 5.66839 0.25
524 2.63048 0.580283 7.47032 0.25
525 6.44778 4.11976 7.20961 0.25
526 6.98242 5.44888 6.90974 0.25
527 7.49573 7.98501 4.21555 0.25
528 7.38604 1.29153 6.55968 0.25
529 6.70287 1.13914 2.9218 0.25
530 2.327 1.76011 6.12241 0.25
531 7.94642 7.90749 3.96049 0.25
532 1.30005 0.741645 2.87556 0.25
533 7.10058 1.41638 7.78843 0.25
534 7.97137 5.74411 1.48485 0.25
535 0.461132 3.29911 5.59205 0.5
536 6.94398 2.55513 6.13153 0.25
537 4.06407 0.979624 5.79763 0.25
538 6.56268 5.14571 4.64831 0.25
539 2.57585 1.32085 6.04797 0.25
540 8.03695 6.3158 2.01102 0.5
541 7.63007 3.96148 1.53668 0.25
542 2.16611 2.11875 7.88495 0.25
543 3.41756 7.37145 7.10303 0.25
544 7.58831 6.58041 6.88165 0.25
545 1.41765 5.84728 3.93651 0.25
546 4.7196 5.89182 6.21778 0.25
547 5.29528 2.45431 0.0165768 0.25
548 5.92944 7.22252 6.81913 0.25
549 0.347309 7.81691 7.20561 0.25
550 6.08237 6.89755 0.0950046 0.25
551 4.64149 1.6036 2.60096 0.25
552 3.69401 5.3876 3.81945 0.25
553 7.00817 7.69183 3.73851 0.5
554 4.39373 6.52798 3.15304 0.25
555 4.9119 6.66058 3.56797 0.5
556 7.11915 0.745063 0.901189 0.25
557 7.2959 4.97236 3.80631 0.5
558 6.42336 8.23579 3.57622 0.25
559 1.32203 0.399357 5.9122 0.5
560 5.14 3.43168 2.3382 0.25
561 2.96077 3.10233 4.16494 0.25
562 5.24656 8.32363 5.5858 0.25
563 2.33553 6.48181 1.54299 0.25
564 5.91294 6.77907 0.825143 0.5
565 6.47437 1.57096 6.48195 0.25
566 1.2581 1.7163 2.5181 0.25
567 4.25925 5.95235 5.89366 0.25
568 6.21578 1.18755 3.18243 0.25
569 2.50353 8.26803 7.93915 0.25
570 2.12051 6.66846 4.6269 0.25
571 2.86744 4.46577 6.98981 0.25
572 8.14094 2.7927 4.00631 0.5
573 4.16668 1.40199 2.58208 0.25
574 1.36201 6.04169 6.10217 0.25
575 2.08997 1.684 8.23412 0.25
576 4.20408 5.72423 7.56482 0.25
577 5.26719 0.200912 5.15835 0.25
578 2.01011 7.53342 3.78539 0.25
579 7.55809 4.958 7.31258 0.25
580 7.37338 0.122578 4.77099 0.5
581 4.06709 4.67 6.06308 0.25
582 5.93064 3.03969 4.59513 0.25
583 5.9039 3.70965 4.69457 0.5
584 4.81565 6.58491 5.71099 0.25
585 4.99654 3.18993 1.33818 0.25
586 1.69916 0.166186 2.4649 0.5
587 4.85155 7.09564 2.50066 0.25
588 5.80349 5.14754 3.33321 0.25
589 0.107777 2.55195 7.54749 0.25
590 3.5934 6.50472 1.74093 0.25
591 6.43143 1.32926 1.15868 0.25
592 7.40113 7.16438 1.70546 0.5
593 6.71836 6.83574 1.51866 0.25
594 1.93101 4.79767 8.29123 0.5
595 0.639554 3.87584 7.96758 0.25
596 2.14845 0.804848 0.762366 0.25
597 0.0774531 0.307989 5.12718 0.5
598 2.59601 6.37995 1.09846 0.25
599 2.02269 8.30809 7.78877 0.25
600 7.97534 0.953128 5.35007 0.25
601 0.78486 0.906104 6.05383 0.25
602 3.83403 0.215725 2.27853 0.25
603 4.35641 5.53203 8.00669 0.25
604 7.48022 5.22807 6.88224 0.25
605 7.88717 2.1269 3.66619 0.25
606 2.12631 8.04478 2.06923 0.25
607 4.50187 5.26959 7.58379 0.25
608 3.6209 7.71084 7.43517 0.25
609 6.75934 4.87255 4.30206 0.25
610 1.87597 1.33162 5.64601 0.25
611 3.04606 0.602721 7.78782 0.25
612 0.778453 7.73375 0.0585768 0.25
613 6.39277 1.42478 8.23587 0.25
614 4.74642 1.00277 5.00482 0.25
615 4.85411 2.77934 3.80822 0.25
616 1.10833 5.41762 3.12815 0.25
617 1.37373 7.80293 2.27632 0.25
618 7.70084 7.27106 4.24986 0.5
619 7.92906 7.99426 4.43274 0.25
620 8.247 7.23148 2.45519 0.5
621 4.32421 6.48583 3.96574 0.25
622 6.09915 6.48064 6.38569 0.25
623 5.18782 6.60922 0.663398 0.25
624 1.043 2.92836 5.20008 0.25
625 1.12265 5.50329 7.79644 0.25
626 3.49865 0.560216 1.61759 0.25
627 4.61478 4.47345 1.7214 0.25
628 8.2309 3.5116 2.44462 0.5
629 6.985 3.05149 0.368921 0.25
630 1.05723 8.25057 2.93993 0.25
631 1.75703 1.35309 7.98539 0.25
632 7.70579 7.8775 1.83628 0.25
633 5.97312 7.61125 0.843741 0.25
634 3.04535 7.80866 3.79259 0.25
635 0.834618 7.20562 0.688918 0.5
636 1.4602 2.1588 1.36643 0.25
637 5.67916 0.20728 5.43302 0.25
638 5.00417 1.25864 5.43596 0.25
639 4.65886 1.97037 0.0450441 0.25
640 5.1469 7.56547 0.636415 0.25
641 1.32371 6.67098 5.16618 0.25
642 3.63888 1 5.55963 0.25
643 6.20996 6.76057 5.95081 0.25
644 5.8365 0.842991 3.044 0.25
645 2.34942 2.24614 1.60556 0.25
646 8.02937 6.77267 6.74365 0.25
647 2.49786 2.98694 4.20947 0.25
648 5.13491 1.11369 8.33652 0.25
649 0.350002 4.30315 1.93274 0.25
650 0.0240346 3.81492 1.29684 0.25
651 3.28382 3.06329 3.76223 0.25
652 7.17625 0.406852 6.99375 0.25
653 1.29708 6.55601 0.870192 0.25
654 0.996664 2.56444 8.32881 0.25
655 3.44116 3.68122 6.42457 0.5
656 0.637423 3.42761 7.16494 0.25
657 1.49574 5.6061 5.86777 0.25
658 6.82373 0.0611734 3.82861 0.25
659 2.51263 1.82166 7.95683 0.25
660 6.96239 5.97309 3.9661 0.5
661 8.12249 1.31346 8.11746 0.25
662 3.98846 4.74758 4.2945 0.25
663 2.48707 3.70762 1.71485 0.25
664 6.6645 2.68191 4.9539 0.25
665 7.90007 3.85145 1.13659 0.25
666 5.77773 6.7683 6.70071 0.25
667 6.50794 3.25663 0.452918 0.25
668 6.9861 6.49768 1.83007 0.25
669 6.17699 4.93724 6.97398 0.25
670 5.34956 8.22441 4.78135 0.25
671 3.53931 4.84362 4.53478 0.25
672 2.72733 3.3461 2.0366 0.25
673 0.596687 1.13018 2.96495 0.25
674 4.96395 7.37009 3.26058 0.25
675 5.62714 3.85985 5.37477 0.25
676 7.71834 8.13946 2.28264 0.25
677 6.4192 1.59326 1.55486 0.25
678 7.5728 6.34886 4.83461 0.25
679 1.14443 6.20238 1.21926 0.25
680 3.63654 6.70631 8.08104 0.25
681 7.81877 0.010809 4.14026 0.25
682 2.54717 6.05198 1.45324 0.25
683 1.86861 7.8787 7.04332 0.25
684 0.439117 3.9443 1.57887 0.25
685 2.6648 3.56009 6.57804 0.25
686 4.14472 2.87155 6.62649 0.25
687 2.53111 4.12614 0.557176 0.25
688 3.63037 0.969982 6.03983 0.25
689 6.12563 4.12725 8.00996 0.25
690 6.25055 0.937711 2.79211 0.25
691 7.18416 1.22689 1.80454 0.25
692 4.90321 4.78843 1.9357 0.25
693 7.22608 1.83599 6.55103 0.25
694 7.50981 5.23532 4.88886 0.25
695 0.0949741 3.09793 6.23195 0.25
696 5.68565 5.98906 3.3127 0.5
697 4.13565 3.76701 6.25333 0.25
698 1.66689 1.24788 5.19153 0.25
699 1.64028 6.80137 4.78923 0.25
700 3.74749 5.44668 1.20174 0.25
701 4.49269 1.73968 8.00893 0.25
702 2.08612 4.56966 7.54153 0.25
703 3.38618 6.64463 7.42873 0.5
704 4.7618 4.83283 7.71811 0.25
705 5.01671 3.33903 1.84544 0.25
706 5.28246 0.291532 0.183678 0.25
707 4.6526 3.82092 1.40313 0.5
708 5.31648 7.6466 8.14507 0.25
709 2.64248 7.06126 2.01354 0.5
710 1.96945 4.42257 6.76074 0.25
711 5.1434 6.39594 2.95441 0.25
712 0.439304 5.17937 8.02948 0.25
713 2.56757 4.16312 1.80389 0.25
714 5.18126 4.1093 0.818379 0.25
715 4.74663 6.65425 2.80434 0.25
716 6.94733 0.965636 7.69928 0.25
717 7.7593 7.59179 3.60504 0.25
718 6.23507 3.47886 6.70805 0.25
719 5.88492 4.49917 7.75 0.25
720 1.8376 7.74456 4.21156 0.25
721 6.85238 1.75385 2.24769 0.25
722 2.457 7.68097 3.30325 0.5
723 2.52099 7.54119 2.54225 0.25
724 7.03593 6.48921 1.31821 0.25
725 7.69 6.43654 7.405 0.25
726 1.0033 0.979038 5.61785 0.25
727 3.92931 0.434225 1.43532 0.25
728 3.69081 6.21356 7.98541 0.25
729 4.99861 5.99118 3.22573 0.25
730 2.99325 7.22519 7.28214 0.25
731 5.29918 3.43383 2.80109 0.25
732 4.07249 3.7433 6.75655 0.25
733 3.76517 5.56316 7.42662 0.25
734 4.33607 0.945567 2.76093 0.25
735 3.373 2.87446 6.64348 0.25
736 7.84287 1.68772 8.18222 0.25
737 3.26803 0.620975 1.20767 0.25
738 8.29228 7.85305 0.713785 0.25
739 4.69338 6.17586 2.97165 0.25
740 5.38211 7.17546 3.22959 0.25
741 0.377557 7.77415 0.916197 0.25
742 3.57604 4.6338 5.96466 0.25
743 7.17079 0.904194 1.3645 0.25
744 4.56564 0.649844 2.44555 0.25
745 3.47153 4.14243 5.80054 0.25
746 1.56429 6.10617 4.63571 0.5
747 4.64714 0.428695 1.95656 0.25
748 2.80251 6.77061 7.13057 0.25
749 1.57302 1.39945 2.31033 0.25
750 0.228371 3.53561 1.71488 0.25
751 1.33342 0.819271 5.28357 0.25
752 6.23835 4.8549 7.65754 0.25
753 4.04543 0.840031 2.00985 0.5
754 4.16033 5.50082 0.866347 0.25
755 2.86352 2.79904 1.38059 0.5
756 7.90807 6.86733 7.63662 0.25
757 5.77013 6.80554 5.7124 0.25
758 6.93497 3.98092 7.17352 0.25
759 4.18716 8.20196 5.63432 0.25
760 0.245431 2.72433 3.395 0.25
761 3.86276 7.24995 7.29254 0.25
762 0.662116 1.59868 3.51595 0.5
763 3.93592 8.14496 2.05558 0.25
764 1.51974 6.34817 0.476454 0.25
765 7.49816 4.96594 3.08548 0.25
766 0.388304 4.16873 2.43663 0.25
767 2.60861 7.01181 7.50982 0.25
768 2.09619 2.75292 4.8996 0.25
769 8.02397 3.66454 1.60415 0.25
770 4.64227 1.07733 0.0937546 0.25
771 6.63851 1.11739 6.10252 0.25
772 4.82679 2.40217 7.73077 0.25
773 5.5035 0.819649 4.93416 0.5
774 3.92439 8.19975 5.18533 0.25
775 7.74294 4.46612 2.61651 0.5
776 7.0396 3.75958 0.386636 0.5
777 5.8365 6.44781 0.154864 0.25
778 4.9719 8.25578 0.115923 0.25
779 8.27748 8.17861 4.17166 0.25
780 2.32013 1.50223 5.67409 0.25
781 2.55953 1.7479 0.0512526 0.25
782 1.46957 7.28708 0.254746 0.25
783 6.77767 3.15316 0.784193 0.25
784 2.17647 7.55149 2.19702 0.25
785 2.45463 1.4285 6.48176 0.25
786 2.53799 7.81694 2.11245 0.25
787 7.70886 7.08004 6.86322 0.25
788 8.32972 4.13781 2.24151 0.25
789 3.47473 7.94104 4.00906 0.25
790 6.78247 0.266231 6.69079 0.25
791 0.290542 4.73928 3.05605 0.5
792 2.15217 0.4687 7.71507 0.25
793 8.14164 7.02392 1.79143 0.25
794 5.27228 6.50436 6.30186 0.5
795 2.36045 4.11181 3.23201 0.25
796 2.18378 6.02772 5.81856 0.25
797 6.62634 6.63228 1.05391 0.25
798 7.68623 4.3349 1.17029 0.25
799 3.96527 3.36552 6.00844 0.25
800 7.93441 2.07977 3.17759 0.25
801 3.35894 7.90952 7.027 0.25
802 3.81783 5.19894 4.30885 0.25
803 3.16571 8.3516 7.60764 0.5
804 3.6686 6.9941 1.55809 0.25
805 1.74992 7.71116 1.93485 0.25
806 2.48525 1.78091 3.85685 0.25
807 4.69732 6.26543 5.31582 0.25
808 4.08143 2.42321 8.01074 0.25
809 1.68387 6.03201 5.72167 0.25
810 6.41737 7.35651 6.78096 0.25
811 1.58298 3.32101 4.77105 0.5
812 5.54807 7.37996 0.70222 0.25
813 4.48595 2.0777 3.21016 0.25
814 1.64869 7.58048 7.40845 0.25
815 2.79977 8.01735 4.48588 0.25
816 0.582057 2.91374 4.99657 0.25
817 4.19048 1.96272 8.25964 0.25
818 3.98938 2.06529 3.13656 0.25
819 2.05698 5.30541 1.32532 0.25
820 3.24722 3.19226 6.9991 0.25
821 1.50399 2.05129 8.11306 0.5
822 6.02001 4.3538 3.42606 0.5
823 4.88665 0.316276 8.2087 0.25
824 0.862936 0.571512 5.30611 0.25
825 3.86438 6.06933 7.59683 0.25
826 3.14458 3.71713 1.5439 0.5
827 5.67091 7.20823 6.39363 0.25
828 0.409357 2.37234 7.99749 0.25
829 8.42644 8.05707 4.68576 0.25
830 0.839872 1.88619 2.82337 0.25
831 2.19583 4.24202 7.93618 0.25
832 5.75235 4.69934 1.92594 0.25
833 2.08099 1.34832 6.10353 0.25
834 4.12533 0.506172 2.63478 0.25
835 6.7713 1.62665 1.23041 0.25
836 3.37077 7.62018 7.86357 0.25
837 4.00528 5.29598 7.76762 0.25
838 7.56655 0.708898 1.13688 0.25
839 6.1046 7.47824 6.43915 0.25
840 6.86052 4.7755 7.16523 0.5
841 3.36978 6.92509 1.89415 0.25
842 0.278544 2.25304 2.87576 0.5
843 6.12792 3.9085 5.39869 0.25
844 4.90426 2.39794 8.23198 0.25
845 7.49584 2.53327 5.36949 0.25
846 3.69556 3.5911 7.34683 0.5
847 2.17591 5.11199 0.510083 0.25
848 1.97484 5.95823 5.33526 0.25
849 5.16219 7.85566 2.67147 0.25
850 6.40284 2.86175 5.62638 0.5
851 5.53792 8.20002 5.21254 0.25
852 6.82584 1.59656 8.16421 0.25
853 4.15409 7.74996 5.37608 0.25
854 4.45656 1.63676 5.87821 0.5
855 0.39652 4.07971 5.32361 0.25
856 0.606082 5.42318 3.0389 0.25
857 3.70389 6.59071 1.28104 0.25
858 2.69942 4.66883 3.77067 0.25
859 6.61156 4.57093 3.90443 0.25
860 7.67508 4.03249 0.763987 0.25
861 4.90748 2.9146 7.79646 0.25
862 6.67391 4.74352 3.39018 0.25
863 5.64671 5.98748 0.101224 0.25
864 7.58588 6.86072 2.43427 0.25
865 3.84777 5.71517 7.92801 0.25
866 5.04413 8.16432 3.04336 0.25
867 1.74546 4.26102 7.73571 0.25
868 2.11714 1.61466 0.678237 0.5
869 1.0666 3.11142 7.28515 0.25
870 6.19449 5.48064 3.12445 0.25
871 2.98056 7.61446 6.94545 0.25
872 5.91356 3.09839 5.11502 0.25
873 8.16138 8.31483 0.497491 0.25
874 4.05313 1.15705 6.27381 0.25
875 2.12794 4.2044 1.19452 0.5
876 1.55813 5.72022 5.34699 0.25
877 8.33478 5.17468 7.76401 0.25
878 5.81102 0.763204 2.57669 0.25
879 3.29797 8.13752 4.48547 0.25
880 6.40332 5.95067 3.00993 0.25
881 7.59975 1.09865 1.46853 0.25
882 7.86907 7.27515 7.30719 0.25
883 0.379788 3.81869 2.09976 0.25
884 7.3214 3.14158 0.767729 0.25
885 0.854375 4.20693 5.20925 0.25
886 7.96393 7.36872 3.18475 0.25
887 1.02417 6.68326 1.25491 0.25
888 0.87539 4.71403 3.56783 0.25
889 1.3631 7.89658 2.74995 0.25
890 0.0913672 4.57077 2.36676 0.25
891 0.994225 2.09271 7.4722 0.25
892 7.5341 3.60351 0.875411 0.25
893 1.17146 7.67134 0.38491 0.25
894 4.03215 5.81727 1.19589 0.25
895 3.69016 5.75807 0.802193 0.25
896 1.77196 1.40088 0.0810855 0.25
897 8.03269 4.1499 1.49752 0.25
898 0.437207 4.72619 3.84469 0.25
899 1.03251 8.06216 6.22001 0.25
900 5.15242 6.28992 5.63506 0.25
901 0.956166 1.4639 2.80734 0.25
902 7.34117 3.9441 1.08903 0.25
903 5.97858 3.68556 3.8488 0.25
904 6.84533 4.25642 7.55864 0.25
905 5.30184 0.940826 5.6523 0.25