ITEM: TIMESTEP
370000
ITEM: NUMBER OF ATOMS
1000
ITEM: BOX BOUNDS xy xz yz pp pp pp
0.0000000000000000e+00 8.3788359999999997e+00 0.0000000000000000e+00
0.0000000000000000e+00 8.3788359999999997e+00 0.0000000000000000e+00
0.0000000000000000e+00 8.3788359999999997e+00 0.0000000000000000e+00
ITEM: ATOMS id x y z radius
1 2.94469 6.95014 4.68199 0.25
2 4.66412 4.89728 5.38278 0.25
3 7.14285 4.71262 3.14908 0.25
4 7.29653 0.904417 5.86579 0.5
5 1.10862 5.76625 6.14198 0.25
6 8.355 1.90631 3.38419 0.25
7 4.09525 3.36234 6.63892 0.25
8 4.86232 7.75093 3.03432 0.25
9 0.97839 6.1274 3.76422 0.25
10 4.16235 1.72157 3.24216 0.25
11 5.63046 0.411714 8.28796 0.25
12 5.28437 3.36392 1.46844 0.25
13 0.418354 2.3754 7.5483 0.25
14 3.43308 2.70682 7.04476 0.25
15 8.11579 2.84474 6.28166 0.25
16 7.26933 0.826406 6.74434 0.25
17 0.608081 5.40856 8.29812 0.25
18 5.8588 7.52551 7.89214 0.25
19 4.00203 2.01548 7.89374 0.25
20 7.62535 1.13389 0.5295 0.25
21 4.9462 4.15602 1.7939 0.25
22 4.07211 3.30886 1.0253 0.25
23 2.15148 3.35236 2.03469 0.25
24 2.80025 1.47228 4.2383 0.25
25 2.68367 4.48789 3.01302 0.25
26 0.383485 8.13223 5.69287 0.25
27 3.74557 0.405322 6.00667 0.25
28 4.37263 2.32946 0.113856 0.25
29 5.16119 6.98552 3.0934 0.25
30 7.48534 7.45602 2.41168 0.25
31 2.67644 0.327687 8.10396 0.25
32 0.823584 2.65002 7.43827 0.25
33 7.72325 0.482703 5.28308 0.25
34 2.17722 4.9334 1.59344 0.25
35 8.15385 0.122828 4.54429 0.25
36 6.83409 1.89297 5.79022 0.5
37 4.50693 1.17923 2.34116 0.25
38 2.18058 3.43647 4.33544 0.25
39 6.19813 2.63366 4.76772 0.25
40 5.29889 7.81819 3.31124 0.25
41 6.90398 2.10111 2.54274 0.25
42 5.59302 5.90139 5.83441 0.25
43 3.53725 7.74486 4.65882 0.25
44 3.86414 8.29091 5.83904 0.25
45 5.67234 4.1483 4.11616 0.25
46 3.26118 5.955 1.399 0.5
47 4.76801 0.89141 5.45079 0.25
48 7.87209 6.33245 6.94325 0.25
49 7.23963 6.8801 4.65937 0.25
50 7.75343 0.862709 0.894244 0.25
51 2.67553 3.41297 4.43654 0.25
52 0.747474 1.68029 2.35121 0.25
53 6.47361 5.21924 6.89722 0.25
54 5.88877 3.29334 4.07753 0.25
55 1.50515 1.45857 5.91097 0.25
56 1.02404 7.34122 0.00799499 0.25
57 4.77445 0.823384 2.06316 0.25
58 2.33095 2.15388 4.27902 0.25
59 4.81326 1.52664 6.30823 0.25
60 7.82522 5.65788 5.21928 0.25
61 5.33777 0.220853 8.02731 0.25
62 5.09021 1.70943 7.96249 0.5
63 7.66307 6.70196 1.13896 0.25
64 1.22421 6.01283 0.71667 0.25
65 4.22898 0.095792 1.84381 0.25
66 1.99497 4.65771 7.2863 0.25
67 7.9125 5.06799 6.97815 0.25
68 7.10991 0.496607 6.43159 0.25
69 0.115358 5.60408 7.60363 0.25
70 1.90645 4.73617 0.81899 0.25
71 7.97608 1.21223 0.17866 0.25
72 6.5177 6.34755 3.33453 0.25
73 0.513847 7.51198 6.80678 0.25
74 7.32401 5.65793 6.87425 0.25
75 7.21537 0.143798 3.43158 0.25
76 7.5552 6.59003 4.41501 0.25
77 5.66322 2.91248 5.45016 0.25
78 5.34436 3.74232 1.16334 0.25
79 7.78643 5.20096 4.46568 0.25
80 5.91412 3.35196 5.45013 0.25
81 7.14563 1.34846 1.26884 0.25
82 8.33905 2.76027 5.82051 0.25
83 4.38861 5.70033 5.56617 0.25
84 1.17682 1.08263 6.02438 0.25
85 1.54507 1.62317 5.44209 0.25
86 4.69585 0.131124 5.81372 0.25
87 1.68151 1.69542 1.24838 0.25
88 3.25665 6.73619 1.54683 0.25
89 6.66259 7.02596 0.721699 0.25
90 5.52484 6.26419 5.47794 0.25
91 3.92905 4.20181 6.24042 0.25
92 6.10864 4.44365 7.32588 0.25
93 5.08305 6.35555 5.20024 0.25
94 6.83698 0.0137596 4.23879 0.25
95 0.332964 4.51536 7.57463 0.5
96 5.37205 3.2123 3.53715 0.5
97 4.36813 4.88408 7.83642 0.25
98 8.26454 2.40459 3.35511 0.25
99 1.57099 6.42548 5.83904 0.25
100 6.98663 7.0502 1.08001 0.25
101 0.462343 7.93324 0.212877 0.25
102 8.00628 4.9009 3.35622 0.25
103 6.7159 1.22135 1.44429 0.25
104 0.827833 4.96691 7.33264 0.25
105 5.13713 5.54306 5.25582 0.5
106 5.08339 0.340612 4.70975 0.25
107 4.09254 3.32865 7.11926 0.25
108 4.75659 1.4752 0.19617 0.25
109 0.561276 0.405958 6.17231 0.25
110 2.17035 7.92728 8.1779 0.25
111 3.07877 4.00394 7.01097 0.25
112 4.43026 2.16138 8.07169 0.25
113 1.78036 1.95959 1.94277 0.5
114 1.55149 4.05282 6.82374 0.25
115 4.53301 6.2485 6.09821 0.25
116 2.55162 7.17657 6.9211 0.25
117 4.1745 2.35963 3.70526 0.5
118 6.55413 7.16994 1.15188 0.25
119 0.984222 6.21572 2.84853 0.25
120 0.130662 2.90855 2.37335 0.25
121 3.13835 4.09144 3.56751 0.25
122 6.65054 0.665909 6.25647 0.25
123 5.23508 0.705598 5.57375 0.25
124 8.02895 8.16183 2.44276 0.25
125 3.47443 2.10407 3.8593 0.25
126 3.5547 1.23803 5.90559 0.25
127 5.27751 3.83306 1.64702 0.25
128 6.68279 5.44754 7.28385 0.25
129 1.17035 6.42794 4.11571 0.25
130 5.38577 6.42074 0.924378 0.25
131 7.01075 1.46567 6.32766 0.25
132 5.95791 4.00621 7.54677 0.25
133 3.22018 1.86596 3.47279 0.25
134 4.50377 2.6361 8.07707 0.25
135 5.4892 3.91907 3.62211 0.25
136 2.83728 2.49293 3.76233 0.5
137 2.88501 4.04123 3.14672 0.25
138 7.50105 8.03498 2.88334 0.5
139 2.60888 7.69076 5.13426 0.25
140 5.27577 8.15518 7.78718 0.25
141 7.79753 6.05313 4.92911 0.25
142 1.12371 5.0951 3.2664 0.25
143 2.1604 2.04399 8.19822 0.25
144 5.07102 1.07009 2.77486 0.5
145 7.48232 1.96308 3.87134 0.25
146 6.00573 7.39283 0.334781 0.25
147 6.64143 5.76473 4.52868 0.25
148 2.11883 2.93317 4.53158 0.25
149 4.54686 8.22126 2.51562 0.5
150 5.09876 2.94738 4.19013 0.25
151 3.61387 5.88598 7.11836 0.25
152 3.54559 4.63217 5.64894 0.25
153 6.73507 6.0687 2.20976 0.5
154 7.40032 2.3935 4.53679 0.5
155 2.98632 7.1916 7.74404 0.25
156 7.65796 3.57322 1.33133 0.25
157 7.64496 5.9493 1.58904 0.25
158 2.3433 3.66054 0.799073 0.25
159 7.14335 8.04018 4.32289 0.25
160 6.54738 2.09396 2.89654 0.25
161 0.970889 5.24013 2.83735 0.25
162 5.91075 4.07789 7.05669 0.25
163 3.42972 3.69309 4.17758 0.5
164 2.48361 3.83087 2.52132 0.5
165 5.66167 7.87669 7.58862 0.25
166 0.0932959 3.74865 7.78654 0.25
167 6.26322 4.02769 0.132707 0.25
168 4.7595 5.91782 5.83576 0.25
169 3.95051 4.31536 5.7594 0.25
170 0.0807152 2.47105 6.25812 0.25
171 7.82275 5.84611 1.11021 0.25
172 0.913751 2.73256 6.9496 0.25
173 4.35899 6.19815 5.62652 0.25
174 2.36573 2.23078 0.987156 0.25
175 7.7088 2.2951 5.94452 0.5
176 2.31491 5.82156 6.3274 0.25
177 5.49586 3.68467 4.0724 0.25
178 3.06919 6.4507 1.91535 0.25
179 3.48441 2.30725 3.35909 0.25
180 5.94281 6.27958 5.83867 0.25
181 6.67781 4.00747 6.86248 0.25
182 3.21758 5.25313 3.27982 0.25
183 8.0498 7.61219 1.79588 0.25
184 4.3474 5.12923 8.25363 0.25
185 5.81521 6.73698 5.99755 0.25
186 7.60078 6.08288 4.52283 0.25
187 3.38223 5.34254 4.21701 0.25
188 0.936932 5.96456 3.25676 0.25
189 4.2391 6.58078 3.44454 0.25
190 4.10223 3.14868 1.50612 0.25
191 6.91205 1.40405 0.446489 0.5
192 0.731175 5.10204 7.85666 0.25
193 3.88798 5.59854 1.70874 0.25
194 2.59081 6.2939 1.85051 0.25
195 6.25049 5.64339 2.70086 0.25
196 2.32045 7.8921 2.63043 0.25
197 1.05257 8.24438 2.59582 0.25
198 7.59461 4.70349 7.04459 0.25
199 1.16807 1.15611 3.07521 0.25
200 4.50876 5.16043 1.46456 0.5
201 6.59013 1.69851 3.16016 0.25
202 8.31854 3.97792 5.46538 0.25
203 3.71158 1.88622 3.46542 0.25
204 5.75103 8.0492 0.00923233 0.5
205 2.49387 7.51453 4.40041 0.5
206 0.416693 4.59979 5.21621 0.25
207 5.63096 2.82046 4.10392 0.25
208 6.99804 5.47003 4.38239 0.25
209 5.45453 7.11991 0.0146795 0.5
210 1.97162 7.999 2.98034 0.25
211 0.700787 3.8326 5.09088 0.25
212 1.43339 7.81576 8.04252 0.5
213 0.0484529 4.28087 2.67888 0.25
214 1.8509 7.93003 2.52665 0.25
215 2.88056 4.2719 3.9684 0.25
216 6.41639 1.9583 2.39937 0.25
217 4.96128 3.62748 1.95915 0.25
218 2.33321 3.27362 4.77652 0.25
219 4.34061 1.33166 2.87776 0.25
220 3.5821 3.49532 0.950277 0.25
221 4.22445 0.202611 6.06178 0.25
222 7.55542 0.90184 5.10432 0.25
223 8.09566 2.8529 2.67057 0.25
224 7.16818 5.36209 7.28081 0.25
225 7.38399 2.13465 5.32223 0.25
226 4.46504 1.9722 7.62236 0.25
227 6.55485 3.55214 7.14594 0.25
228 5.47138 3.21241 4.32659 0.25
229 5.76159 5.12329 1.87679 0.25
230 0.30808 8.10335 6.43178 0.5
231 5.44753 4.49389 1.38608 0.5
232 1.95878 3.0956 4.06335 0.25
233 4.15106 5.20592 3.96009 0.25
234 6.46809 1.02851 6.54891 0.25
235 3.21045 7.37475 4.57867 0.25
236 0.727801 2.43406 7.89701 0.25
237 8.17293 3.06295 7.45736 0.25
238 3.31379 0.424928 1.74449 0.25
239 0.315737 2.27951 3.52823 0.25
240 6.74696 6.39666 1.46473 0.25
241 3.38835 7.05195 8.00091 0.25
242 1.79208 7.28184 2.73321 0.5
243 2.86484 4.85851 3.30209 0.25
244 7.20529 3.44697 1.17002 0.25
245 2.20531 1.06422 5.79372 0.25
246 7.63328 8.27017 3.65123 0.25
247 3.52132 2.65701 3.72345 0.25
248 3.67291 3.12186 1.31131 0.25
249 8.41445 5.23659 7.24359 0.25
250 1.12027 3.23772 5.42379 0.25
251 5.39478 2.62233 4.79117 0.5
252 3.24557 2.07158 4.32846 0.25
253 7.8255 5.70823 7.38691 0.5
254 7.00723 5.81637 7.18145 0.25
255 4.70866 0.826229 6.09632 0.5
256 5.75662 6.17221 0.665697 0.25
257 1.1008 0.341364 2.72436 0.25
258 1.76532 1.59624 2.54361 0.25
259 4.57036 3.09279 1.68149 0.25
260 7.9436 6.26975 1.31052 0.25
261 3.49711 0.070677 1.39073 0.25
262 3.49908 2.46629 4.17292 0.25
263 2.15742 0.237663 0.186452 0.5
264 2.77386 4.37678 3.48059 0.25
265 1.11364 3.77883 7.38988 0.5
266 1.10333 7.97799 6.93673 0.5
267 5.2242 2.49195 7.70005 0.25
268 6.37682 7.7171 0.257509 0.25
269 1.93791 5.22053 0.922599 0.25
270 3.84547 3.5714 1.3533 0.25
271 7.52873 7.9374 4.6069 0.25
272 1.70249 0.958378 2.50637 0.25
273 1.29828 3.05975 7.00973 0.25
274 0.619642 5.61946 7.82986 0.25
275 4.70844 4.43955 1.53182 0.25
276 2.37347 3.16185 0.974013 0.25
277 6.76403 0.723368 6.80296 0.25
278 3.96662 6.24268 1.20118 0.25
279 4.1132 0.443516 5.35058 0.5
280 7.93556 8.18554 4.8779 0.25
281 1.08183 6.421 0.45313 0.25
282 6.19579 7.00925 6.20633 0.25
283 0.917953 0.107481 6.43294 0.25
284 7.29635 4.29389 0.826514 0.25
285 1.9801 6.02057 0.960995 0.5
286 5.59082 6.80591 3.28357 0.25
287 1.59689 8.07158 3.54789 0.5
288 2.93622 7.29852 5.00353 0.25
289 2.44264 7.22486 5.15508 0.25
290 2.01512 3.84641 1.9665 0.25
291 8.30736 7.53514 7.31178 0.25
292 7.82482 2.53662 3.38694 0.25
293 7.61416 4.54467 3.34131 0.25
294 5.84307 3.78284 3.31994 0.25
295 8.26857 4.24249 0.997672 0.25
296 0.561838 4.28543 4.55848 0.5
297 3.75247 3.06639 6.87537 0.25
298 6.27561 5.23473 7.4021 0.25
299 5.83194 4.87193 7.46918 0.25
300 6.29359 3.77796 0.58089 0.25
301 0.717387 7.67311 8.25376 0.25
302 0.156808 4.41913 1.42804 0.25
303 3.60096 0.885283 1.20861 0.25
304 2.15781 2.47353 4.67173 0.25
305 0.516676 4.87998 8.2555 0.25
306 2.3758 2.04327 4.74894 0.25
307 1.38482 4.75453 7.75738 0.5
308 3.69367 5.85001 3.13997 0.25
309 4.33809 1.12156 5.4618 0.25
310 0.961884 4.74704 4.12417 0.25
311 7.27874 0.0239 3.95725 0.25
312 0.950331 0.902842 2.32593 0.5
313 1.02872 3.71198 5.38165 0.25
314 5.36113 3.86887 3.09058 0.25
315 0.9883 5.07522 8.36215 0.25
316 1.66968 4.30988 7.28183 0.25
317 7.58056 2.42312 3.79956 0.25
318 2.20893 2.60384 4.14273 0.25
319 4.89362 7.43894 7.9333 0.25
320 2.03286 6.17182 6.08751 0.25
321 4.10375 0.693555 1.25047 0.25
322 7.01763 6.59373 5.02223 0.25
323 0.874494 5.99143 4.26159 0.25
324 4.10771 7.24198 7.80253 0.5
325 0.872637 1.7766 0.261665 0.25
326 3.98591 4.8189 5.05327 0.5
327 7.52626 7.39688 3.36583 0.25
328 2.23283 7.7224 1.82258 0.25
329 1.37903 5.88742 3.52923 0.25
330 8.25098 7.03488 7.39777 0.25
331 0.822442 5.41427 3.84088 0.5
332 7.35802 6.66716 2.20675 0.25
333 1.10212 1.53199 1.9433 0.25
334 6.87963 1.62543 1.6846 0.25
335 3.2646 3.11635 1.00253 0.25
336 3.07559 7.03893 6.81972 0.25
337 4.42913 7.16267 2.98888 0.5
338 6.19935 7.4088 8.27238 0.25
339 2.24518 8.02632 3.96398 0.25
340 4.75426 0.555455 5.03147 0.25
341 6.81516 0.00249513 3.2208 0.25
342 0.955572 5.3935 7.53294 0.25
343 2.71121 1.2499 0.0885407 0.25
344 1.41182 5.55433 2.74422 0.25
345 0.509053 1.55619 2.7911 0.25
346 0.391909 2.50099 0.0142588 0.25
347 3.48298 5.85174 7.60058 0.25
348 7.2875 7.86117 2.14316 0.25
349 0.680987 2.13647 8.32192 0.25
350 6.77127 1.7336 2.69431 0.25
351 1.49154 6.71359 0.379751 0.25
352 6.4925 3.59559 7.89109 0.5
353 2.3598 8.35946 7.49365 0.25
354 1.78021 0.846326 5.53867 0.25
355 0.776256 0.0159142 5.94439 0.25
356 1.82117 1.8379 5.84277 0.25
357 2.78856 3.97916 6.6152 0.25
358 6.34519 3.39009 5.19327 0.25
359 4.41602 1.32419 6.53872 0.25
360 1.92189 2.13793 1.20392 0.25
361 0.935634 7.76708 0.281601 0.25
362 6.23764 3.79264 6.83818 0.25
363 7.91163 4.10132 1.96907 0.25
364 6.07913 3.62239 7.23909 0.25
365 5.36922 5.99794 0.674653 0.25
366 4.97269 6.26414 0.608131 0.25
367 2.31479 4.57965 6.88102 0.25
368 6.62408 3.15457 0.142302 0.25
369 1.08753 6.83056 0.104761 0.25
370 5.19644 0.675791 8.2274 0.25
371 2.46478 8.2705 4.2863 0.25
372 2.369 4.5944 0.74697 0.25
373 7.0649 2.7422 5.09675 0.25
374 3.61118 4.45303 4.42531 0.25
375 4.66213 0.761225 8.15952 0.25
376 2.69104 5.8187 0.955756 0.25
377 6.48497 1.20284 2.191 0.5
378 0.434892 3.75376 7.4989 0.25
379 4.53873 1.24272 8.12616 0.25
380 2.4825 6.84462 4.80456 0.25
381 4.04727 5.3057 5.62768 0.25
382 2.06992 7.09943 4.88022 0.25
383 6.39631 5.3604 3.93923 0.5
384 1.21297 1.72261 1.47238 0.25
385 6.9439 1.3985 7.04456 0.5
386 1.38972 1.1619 5.58866 0.25
387 7.37891 0.66986 0.566399 0.25
388 0.999744 5.75825 2.79243 0.25
389 4.07844 2.63758 7.45892 0.5
390 4.03649 0.622313 6.33214 0.25
391 5.43769 4.76185 2.08743 0.25
392 8.16351 2.82195 3.17742 0.25
393 2.81029 6.51006 1.50013 0.25
394 0.287168 8.05892 0.74382 0.25
395 2.20364 1.7583 1.29565 0.25
396 4.87134 7.88215 7.84198 0.25
397 4.90676 0.68054 0.233258 0.25
398 7.24716 1.55602 8.21579 0.25
399 3.14981 4.4786 3.14867 0.25
400 5.19236 4.54816 0.656261 0.25
401 2.20668 7.17104 3.81954 0.25
402 8.26492 7.94413 7.08963 0.25
403 7.80501 6.2986 0.825407 0.25
404 7.91844 6.80996 7.15978 0.25
405 0.587187 7.68305 0.63271 0.25
406 5.5494 0.366487 4.5273 0.25
407 2.26487 1.01364 7.95786 0.5
408 5.60426 3.32037 2.41125 0.25
409 2.28971 4.92753 1.13473 0.25
410 7.42242 0.851994 8.21968 0.5
411 4.43511 5.28979 5.2734 0.25
412 8.16823 7.18569 6.96813 0.25
413 1.36835 1.6223 0.320761 0.25
414 0.419219 3.09123 7.91799 0.5
415 6.58528 4.68998 3.06337 0.25
416 2.94896 3.17661 6.53341 0.25
417 3.45168 4.77061 3.78173 0.5
418 7.10005 6.77328 4.2202 0.25
419 3.9394 3.82137 5.90827 0.25
420 0.874531 3.19792 4.60891 0.25
421 4.00977 4.80589 5.77007 0.25
422 2.40846 5.36544 1.00486 0.25
423 0.317333 0.195736 5.82818 0.25
424 0.481476 3.54634 4.76285 0.25
425 1.94848 2.81959 1.41136 0.5
426 7.12007 5.81541 5.03236 0.5
427 2.77152 1.95547 4.38791 0.25
428 4.04476 5.17581 3.48398 0.25
429 4.41511 4.49115 5.65778 0.25
430 1.8409 7.36243 3.49577 0.25
431 0.833189 3.24642 6.89371 0.25
432 1.59178 7.12215 4.27829 0.5
433 1.87747 1.64071 7.64431 0.25
434 0.894433 6.36937 0.9206 0.25
435 5.72107 3.53971 2.89751 0.25
436 1.40087 5.97384 3.01676 0.25
437 0.011 0.974184 0.233932 0.25
438 0.90487 3.40011 5.03317 0.25
439 3.79129 2.62196 6.72631 0.25
440 4.47416 1.45161 7.61984 0.25
441 7.99909 4.3441 5.34383 0.25
442 2.52398 5.61146 1.42998 0.25
443 0.216632 2.81758 6.9267 0.5
444 2.01346 3.54013 1.56388 0.25
445 5.19128 7.29065 0.689144 0.25
446 4.35018 5.80468 3.47347 0.5
447 1.35582 1.94282 5.79568 0.25
448 5.90889 7.15707 5.804 0.25
449 1.04249 5.53083 5.62327 0.25
450 2.80979 3.37451 0.887548 0.25
451 2.79045 6.84552 5.15853 0.25
452 2.40668 0.959304 0.313672 0.25
453 4.82727 4.47346 1.04356 0.25
454 0.0541483 3.42256 7.37955 0.25
455 8.00974 4.88989 7.39912 0.25
456 3.06043 1.78724 3.97423 0.25
457 2.26648 3.90312 7.14665 0.5
458 0.00938482 7.57866 6.84215 0.25
459 5.10052 7.82153 8.23612 0.25
460 5.6556 0.293903 5.0122 0.25
461 2.43594 3.50767 1.26471 0.25
462 6.3911 5.06477 3.2241 0.25
463 5.22173 7.43716 2.94752 0.25
464 7.41849 7.00937 7.26832 0.25
465 7.1386 2.54491 5.52929 0.25
466 4.09752 1.73512 2.79375 0.25
467 3.90883 6.12105 1.71256 0.25
468 6.91551 5.31091 2.92432 0.5
469 7.43142 7.46916 7.09817 0.25
470 1.18199 1.40697 8.29593 0.25
471 1.68617 1.03537 5.95125 0.25
472 1.87775 7.40207 1.93689 0.25
473 7.56028 5.32022 5.43757 0.25
474 5.18562 5.71802 5.98095 0.25
475 1.44986 1.27026 2.71852 0.25
476 7.01136 0.664433 7.25516 0.25
477 3.29166 5.52439 3.7608 0.25
478 6.32726 3.14971 7.35216 0.25
479 3.39354 7.23741 7.5117 0.25
480 5.00938 0.458719 2.34907 0.25
481 7.92815 2.06729 4.0982 0.25
482 7.27095 5.14508 4.63113 0.25
483 8.25171 5.78946 5.02629 0.25
484 2.76352 0.719382 0.0409959 0.25
485 7.90049 7.61924 6.96953 0.25
486 2.54264 6.22452 6.03418 0.25
487 8.27209 7.76018 4.307 0.25
488 4.34068 4.13357 5.99651 0.25
489 0.7603 8.17723 0.576071 0.25
490 8.06006 8.05628 1.96555 0.25
491 4.45665 3.00471 1.19489 0.25
492 2.36659 1.64618 4.41392 0.25
493 6.3063 4.34975 6.85429 0.25
494 4.98708 7.53317 2.5658 0.25
495 1.24876 5.9894 5.74673 0.25
496 3.07104 7.79343 4.84209 0.25
497 6.33375 4.29923 7.71426 0.25
498 3.39088 2.92139 4.11777 0.25
499 0.42883 5.25906 7.49547 0.25
500 3.84449 3.01129 6.3998 0.25
501 6.17779 4.05779 4.16114 0.25
502 1.69418 8.07595 7.37393 0.25
503 5.95524 4.99073 2.63042 0.5
504 7.75965 7.79254 2.18851 0.25
505 5.75627 1.45982 2.89665 0.25
506 7.13568 6.3655 4.6032 0.25
507 1.35983 0.37275 3.14622 0.25
508 0.735235 0.0749138 5.52836 0.25
509 8.23497 5.02321 5.03261 0.5
510 4.87665 1.87336 5.40331 0.25
511 0.649658 0.503344 5.65812 0.25
512 0.935542 0.685703 3.02201 0.25
513 3.85681 1.13221 5.51103 0.25
514 1.91563 5.64651 6.12716 0.25
515 0.814523 7.60008 6.35844 0.25
516 7.44308 1.58946 6.11509 0.25
517 7.47907 5.60583 4.40941 0.25
518 0.96334 3.67245 4.62936 0.25
519 6.50098 1.88551 1.89972 0.25
520 6.81392 1.84645 6.54508 0.25
521 7.61588 1.51649 0.236483 0.25
522 6.61174 1.32869 7.75996 0.25
523 5.25301 6.70431 5.48895 0.25
524 2.66433 0.438168 7.62844 0.25
525 6.33978 3.99307 7.26145 0.25
526 6.94064 5.37885 6.9018 0.25
527 7.54691 8.06648 4.09162 0.25
528 7.4204 1.25858 6.48256 0.25
529 6.62764 1.31008 2.9376 0.25
530 2.22019 1.87877 6.14299 0.25
531 8.00212 7.96755 3.92914 0.25
532 1.37938 0.753926 2.86038 0.25
533 7.08742 1.40913 7.78206 0.25
534 8.11223 5.82876 1.53618 0.25
535 0.345034 3.34509 5.49483 0.5
536 7.02213 2.59794 5.97337 0.25
537 4.00445 0.908724 5.88585 0.25
538 6.69831 5.29272 4.72364 0.25
539 2.47121 1.45159 6.1116 0.25
540 8.11756 6.43624 2.01839 0.5
541 7.62867 4.02337 1.48876 0.25
542 2.01141 2.12361 7.78919 0.25
543 3.29484 7.38728 7.06354 0.25
544 7.55082 6.66335 6.88454 0.25
545 1.3507 5.98661 4.03628 0.25
546 4.77424 5.83251 6.27195 0.25
547 5.34964 2.44469 8.23337 0.25
548 6.07144 7.26639 6.59378 0.25
549 0.363365 7.79057 7.18279 0.25
550 6.12141 6.90942 0.0437542 0.25
551 4.52532 1.65723 2.51684 0.25
552 3.75989 5.41884 3.87535 0.25
553 6.97147 7.82408 3.6589 0.5
554 4.5177 6.36398 3.06168 0.25
555 4.98464 6.62436 3.64261 0.5
556 6.98106 0.637447 0.83475 0.25
557 7.33055 5.08928 3.8524 0.5
558 6.39143 8.3764 3.52991 0.25
559 1.3259 0.386245 5.87151 0.5
560 5.09924 3.36411 2.33399 0.25
561 2.95134 3.1325 4.07943 0.25
562 5.16281 0.204031 5.6859 0.25
563 2.34124 6.53579 1.42063 0.25
564 5.92829 6.91126 0.81742 0.5
565 6.45471 1.50983 6.411 0.25
566 1.25553 1.62839 2.45474 0.25
567 4.31509 5.82578 6.04388 0.25
568 6.22132 1.33117 3.20502 0.25
569 2.4694 8.24883 7.94765 0.25
570 2.03745 6.60242 4.68279 0.25
571 2.75032 4.38633 6.95227 0.25
572 8.22205 2.756 3.9555 0.5
573 4.09191 1.37808 2.44963 0.25
574 1.49729 6.00717 6.17522 0.25
575 1.97054 1.63112 8.11986 0.25
576 4.27611 5.67448 7.61807 0.25
577 5.23375 0.33907 5.16126 0.25
578 2.02053 7.58965 3.84277 0.25
579 7.53642 5.03562 7.35694 0.25
580 7.4331 0.279473 4.64625 0.5
581 4.20602 4.57601 6.15428 0.25
582 5.95509 3.00154 4.48018 0.25
583 5.86969 3.68092 4.71626 0.5
584 4.80887 6.42747 5.64051 0.25
585 4.96545 3.02925 1.34892 0.25
586 1.76781 0.187577 2.56683 0.5
587 5.05301 7.06296 2.66404 0.25
588 5.92125 5.26211 3.33998 0.25
589 8.34647 2.58516 7.59073 0.25
590 3.58192 6.49342 1.86042 0.25
591 6.36464 1.21338 1.09172 0.25
592 7.50932 7.15228 1.70384 0.5
593 6.77687 6.89251 1.51649 0.25
594 2.07412 4.47862 0.0505732 0.5
595 0.566556 3.85629 7.96267 0.25
596 2.10038 0.818632 0.664593 0.25
597 0.106243 0.26016 5.1413 0.5
598 2.65507 6.3003 1.05496 0.25
599 2.00629 8.21507 7.8011 0.25
600 7.97758 0.908177 5.38584 0.25
601 0.747115 0.847556 6.0043 0.25
602 3.89882 0.128747 2.23917 0.25
603 4.2007 5.5743 8.15307 0.25
604 7.43088 5.17314 6.89997 0.25
605 7.91029 2.08008 3.60966 0.25
606 2.20935 8.08928 2.1485 0.25
607 4.55969 5.36903 7.8695 0.25
608 3.53812 7.69046 7.44527 0.25
609 6.81363 4.95273 4.36388 0.25
610 1.852 1.34488 5.62875 0.25
611 2.98106 0.713028 7.99537 0.25
612 0.545855 7.39015 0.251459 0.25
613 6.39116 1.31431 8.25026 0.25
614 4.58033 1.03596 5.02319 0.25
615 4.77397 2.79188 3.84062 0.25
616 1.21548 5.54645 3.18253 0.25
617 1.3679 7.90387 2.35863 0.25
618 7.61005 7.37602 4.15752 0.5
619 7.92594 8.07002 4.41248 0.25
620 8.24663 7.42524 2.49214 0.5
621 4.31505 6.42577 3.89163 0.25
622 6.08405 6.48989 6.2911 0.25
623 5.1642 6.78583 0.618599 0.25
624 0.946436 2.94521 5.06047 0.25
625 1.10253 5.40943 8.01424 0.25
626 3.6664 0.540774 1.47539 0.25
627 4.97302 4.64523 1.92603 0.25
628 8.2522 3.58215 2.41224 0.5
629 6.87209 3.00471 0.549385 0.25
630 1.15579 8.32654 3.06891 0.25
631 1.56453 1.3757 7.93947 0.25
632 7.64243 7.90837 1.72339 0.25
633 6.06055 7.78576 0.659055 0.25
634 3.17498 7.78564 3.90492 0.25
635 0.988003 7.10578 0.730257 0.5
636 1.44514 2.16415 1.29853 0.25
637 5.59208 0.395772 5.4834 0.25
638 4.79971 1.33281 5.44415 0.25
639 4.58065 1.86969 0.0696113 0.25
640 5.17795 7.69601 0.407215 0.25
641 1.38674 6.60411 5.32072 0.25
642 3.56327 0.764627 5.71224 0.25
643 6.24054 6.70977 5.7999 0.25
644 5.82863 0.967265 2.99751 0.25
645 2.37058 2.17866 1.47113 0.25
646 7.97866 6.77104 6.68545 0.25
647 2.42563 3.0219 4.14947 0.25
648 4.98475 1.09116 8.33366 0.25
649 0.353266 4.41855 1.94047 0.25
650 0.0572771 3.93662 1.30414 0.25
651 3.32526 3.13525 3.7075 0.25
652 7.16293 0.362472 6.89457 0.25
653 1.416 6.45975 0.83658 0.25
654 0.865194 2.61952 8.34983 0.25
655 3.43953 3.64338 6.43408 0.5
656 0.505555 3.41604 7.16355 0.25
657 1.45357 5.56026 5.89734 0.25
658 6.80735 0.172417 3.72242 0.25
659 2.36139 1.78106 7.81433 0.25
660 7.03814 6.03373 3.95349 0.5
661 8.14963 1.0856 8.13677 0.25
662 3.95765 4.78092 4.24902 0.25
663 2.4408 3.66871 1.76985 0.25
664 6.68 2.6343 4.80249 0.25
665 7.96958 3.86498 1.11106 0.25
666 5.90678 6.82107 6.55517 0.25
667 6.44906 3.25105 0.608632 0.25
668 7.09465 6.526 1.77916 0.25
669 6.19697 4.83675 7.08185 0.25
670 5.37203 8.32751 4.78646 0.25
671 3.49 4.93737 4.50744 0.25
672 2.68594 3.28239 2.03364 0.25
673 0.663313 1.11036 2.99551 0.25
674 4.96781 7.42127 3.37016 0.25
675 5.58747 3.752 5.39992 0.25
676 7.60281 8.26013 2.11989 0.25
677 6.34536 1.57884 1.50788 0.25
678 7.54146 6.48415 4.84746 0.25
679 1.2071 6.12333 1.19739 0.25
680 3.71365 6.66935 8.05552 0.25
681 7.87324 0.0659323 4.07776 0.25
682 2.53308 6.06206 1.42297 0.25
683 1.79682 7.81467 6.93987 0.25
684 0.446284 4.02092 1.55854 0.25
685 2.6396 3.53654 6.59236 0.25
686 4.17971 2.88018 6.77865 0.25
687 2.42596 4.09023 0.648194 0.25
688 3.61032 0.843036 6.16692 0.25
689 5.98838 4.09541 8.06487 0.25
690 6.15777 1.17117 2.80665 0.25
691 7.1535 1.17517 1.73071 0.25
692 5.22644 5.08485 1.77347 0.25
693 7.32753 1.81242 6.48997 0.25
694 7.6094 5.27228 4.91791 0.25
695 0.187073 3.02961 6.15285 0.25
696 5.78691 6.01389 3.23571 0.5
697 4.19742 3.80046 6.39171 0.25
698 1.69309 1.19057 5.17045 0.25
699 1.6512 6.85852 4.97111 0.25
700 3.822 5.4481 1.22335 0.25
701 4.32794 1.68805 8.05587 0.25
702 2.05174 4.37416 7.63221 0.25
703 3.37772 6.57831 7.3803 0.5
704 4.7466 4.93733 8.0682 0.25
705 5.01119 3.18045 1.81992 0.25
706 5.2063 0.279007 0.128277 0.25
707 4.64456 3.7216 1.30535 0.5
708 5.32703 7.65554 7.83978 0.25
709 2.57709 7.05003 1.95775 0.5
710 1.8249 4.47309 6.85641 0.25
711 5.34258 6.51897 2.96675 0.25
712 0.269748 5.24432 7.95825 0.25
713 2.65461 4.18406 1.88602 0.25
714 5.11408 4.0982 0.851074 0.25
715 4.86861 6.62097 2.88819 0.25
716 6.96206 0.953343 7.63326 0.25
717 7.71339 7.80262 3.55623 0.25
718 6.27126 3.29889 6.88401 0.25
719 5.89681 4.50907 7.78979 0.25
720 1.84092 7.86548 4.24226 0.25
721 6.87074 1.80308 2.1793 0.25
722 2.54954 7.7017 3.36081 0.5
723 2.52775 7.46044 2.59647 0.25
724 7.16264 6.58456 1.27081 0.25
725 7.55797 6.49049 7.34126 0.25
726 0.971117 0.907143 5.52477 0.25
727 3.98534 0.216847 1.4199 0.25
728 3.68126 6.14431 7.97685 0.25
729 5.08506 5.87912 3.52645 0.25
730 2.92712 7.14105 7.28792 0.25
731 5.28734 3.43867 2.79624 0.25
732 3.97644 3.74718 6.8621 0.25
733 3.88613 5.5942 7.38124 0.25
734 4.30426 0.895447 2.70236 0.25
735 3.38064 2.86414 6.55481 0.25
736 7.77385 1.49089 8.17879 0.25
737 3.26137 0.488501 1.26668 0.25
738 0.741002 7.90951 1.02096 0.25
739 4.96364 6.1868 3.06846 0.25
740 5.43297 7.29544 3.37201 0.25
741 1.10641 7.82609 0.731161 0.25
742 3.69033 4.5915 6.13484 0.25
743 7.05063 0.823172 1.336 0.25
744 4.53897 0.632172 2.44189 0.25
745 3.50677 4.16163 5.94597 0.25
746 1.49952 6.14672 4.73074 0.5
747 4.62405 0.378143 2.04012 0.25
748 2.738 6.73142 7.03156 0.25
749 1.51302 1.32146 2.20113 0.25
750 0.191182 3.6281 1.71404 0.25
751 1.3622 0.785361 5.22325 0.25
752 6.25334 4.78212 7.58464 0.25
753 3.99099 0.793388 1.99266 0.5
754 4.20653 5.52039 0.928945 0.25
755 2.85956 2.78414 1.39679 0.5
756 7.77012 6.93062 7.62914 0.25
757 5.78164 6.69981 5.56958 0.25
758 6.8688 3.93751 7.34705 0.25
759 4.32772 8.19964 5.69808 0.25
760 0.242887 2.76275 3.31052 0.25
761 3.75176 7.25482 7.18924 0.25
762 0.746334 1.6905 3.49826 0.5
763 3.97718 8.04657 1.99889 0.25
764 1.53893 6.23414 0.402425 0.25
765 7.5544 5.00494 3.16329 0.25
766 0.474341 4.30667 2.41418 0.25
767 2.63878 6.87906 7.53159 0.25
768 2.17922 2.79831 5.02703 0.25
769 8.06628 3.76797 1.60887 0.25
770 4.56135 1.01032 0.19887 0.25
771 6.63957 1.15765 6.08701 0.25
772 4.7723 2.34574 7.80381 0.25
773 5.31644 0.992786 4.97297 0.5
774 4.00138 8.08119 5.40192 0.25
775 7.77456 4.61528 2.60709 0.5
776 6.95098 3.74575 0.475114 0.5
777 5.84806 6.47902 0.216214 0.25
778 4.9725 8.29052 8.21814 0.25
779 8.33107 8.24816 4.17839 0.25
780 2.26021 1.58481 5.72142 0.25
781 2.47533 1.64108 8.27371 0.25
782 1.47354 7.13944 0.123379 0.25
783 6.81722 3.24526 0.955098 0.25
784 2.16896 7.59182 2.27024 0.25
785 2.29583 1.5303 6.52512 0.25
786 2.59597 7.80549 2.17733 0.25
787 7.6713 7.15714 6.8521 0.25
788 8.35895 4.23131 2.21165 0.25
789 3.59931 7.97153 4.19242 0.25
790 6.7555 0.260664 6.5916 0.25
791 0.403376 4.81235 3.0413 0.5
792 2.21576 0.295216 7.82785 0.25
793 8.26749 7.12064 1.84732 0.25
794 5.30306 6.42389 6.24878 0.5
795 2.42438 4.1524 3.24759 0.25
796 2.2243 5.83332 5.80286 0.25
797 6.66005 6.66671 1.05874 0.25
798 7.76413 4.28548 1.0599 0.25
799 4.07529 3.38159 6.15403 0.25
800 7.96595 2.04621 3.13174 0.25
801 3.24521 7.85998 7.08548 0.25
802 3.80626 5.23909 4.36784 0.25
803 3.1322 8.30063 7.70475 0.5
804 3.7248 6.98617 1.67042 0.25
805 1.77192 7.86549 2.06811 0.25
806 2.54617 1.7729 3.97539 0.25
807 4.70895 6.08349 5.34138 0.25
808 3.99003 2.44307 8.19482 0.25
809 1.74058 5.94904 5.74682 0.25
810 6.47088 7.38181 6.3087 0.25
811 1.55853 3.31522 4.82799 0.5
812 5.61024 7.59186 0.55356 0.25
813 4.37659 2.12259 3.02716 0.25
814 1.64194 7.56291 7.35679 0.25
815 2.89014 8.17867 4.49686 0.25
816 0.498236 3.08208 4.90416 0.25
817 4.09423 1.92294 -0.023743 0.25
818 3.87532 2.08605 3.06441 0.25
819 2.0751 5.34974 1.41363 0.25
820 3.26173 3.14258 6.94395 0.25
821 1.34507 2.11333 8.10434 0.5
822 6.09582 4.45865 3.56576 0.5
823 4.83255 0.33326 8.21973 0.25
824 0.926924 0.47423 5.24076 0.25
825 3.96119 6.01521 7.51304 0.25
826 3.117 3.7006 1.55044 0.5
827 5.69564 7.15226 6.24379 0.25
828 0.258308 2.31607 8.00135 0.25
829 8.35829 8.05621 4.68246 0.25
830 0.945539 1.90242 2.77523 0.25
831 2.2012 3.97888 7.89121 0.25
832 5.88221 4.60014 2.01195 0.25
833 1.96622 1.45401 6.12524 0.25
834 4.12492 0.413474 2.63124 0.25
835 6.7243 1.57156 1.12792 0.25
836 3.33732 7.59079 7.89308 0.25
837 4.06778 5.24861 7.76736 0.25
838 7.42906 0.543558 1.06544 0.25
839 6.03513 7.50578 6.11525 0.25
840 6.86313 4.69338 7.22218 0.5
841 3.35478 6.89464 2.02558 0.25
842 0.238716 2.25665 2.73081 0.5
843 6.10505 3.79284 5.4018 0.25
844 4.81495 2.31541 8.32345 0.25
845 7.52797 2.63014 5.23704 0.25
846 3.47568 3.50376 7.47992 0.5
847 2.27219 5.0337 0.615716 0.25
848 1.96392 5.86943 5.34095 0.25
849 5.23231 7.92259 2.79719 0.25
850 6.3827 2.72554 5.5048 0.5
851 5.44868 8.32901 5.34245 0.25
852 6.78898 1.69858 8.09274 0.25
853 4.31831 7.70784 5.57559 0.25
854 4.21851 1.72888 5.88784 0.5
855 0.388328 4.13098 5.36888 0.25
856 0.731481 5.53398 3.15023 0.25
857 3.72223 6.53735 1.43783 0.25
858 2.73483 4.71671 3.7796 0.25
859 6.7519 4.63468 3.97339 0.25
860 7.68111 3.98512 0.668949 0.25
861 4.81524 2.74322 7.58877 0.25
862 6.73651 4.83489 3.49854 0.25
863 5.60705 6.06123 0.221832 0.25
864 7.6861 6.99075 2.44309 0.25
865 3.84914 5.64566 7.91226 0.25
866 5.05726 8.25239 3.15323 0.25
867 1.71175 4.07685 7.77156 0.25
868 2.1125 1.61231 0.532209 0.5
869 0.870071 3.09426 7.30412 0.25
870 6.28638 5.51803 3.17443 0.25
871 2.90717 7.55327 6.98166 0.25
872 5.92593 3.01939 5.0206 0.25
873 0.575632 0.0369403 0.966022 0.25
874 3.97879 1.16574 6.30891 0.25
875 2.13319 4.19521 1.34472 0.5
876 1.48026 5.6758 5.40796 0.25
877 8.29532 5.12503 7.69182 0.25
878 5.78875 1.17898 2.49832 0.25
879 3.34592 8.16534 4.58005 0.25
880 6.48624 5.99302 2.93706 0.25
881 7.49896 1.00882 1.32393 0.25
882 7.83686 7.28919 7.32141 0.25
883 0.414924 3.95312 2.06677 0.25
884 7.29768 3.14249 0.77275 0.25
885 0.859153 4.22204 5.23775 0.25
886 7.97736 7.53234 3.1973 0.25
887 1.18912 6.60586 1.2516 0.25
888 0.966567 4.71349 3.58855 0.25
889 1.44906 7.95676 2.82065 0.25
890 0.152254 4.66056 2.36302 0.25
891 0.879164 2.15378 7.52944 0.25
892 7.59459 3.52027 0.832427 0.25
893 1.32668 7.57027 0.31634 0.25
894 4.12769 5.81494 1.34267 0.25
895 3.78633 5.8546 0.896251 0.25
896 1.66689 1.37759 0.00696174 0.25
897 8.04961 4.24665 1.48695 0.25
898 0.557576 4.68773 3.8591 0.25
899 1.03511 8.03178 6.19278 0.25
900 5.13949 6.10775 5.63884 0.25
901 0.984586 1.4283 2.7468 0.25
902 7.3992 3.88062 1.07046 0.25
903 5.89386 3.73835 3.86092 0.25
904 6.87943 4.26419 7.80568 0.25
905 5.17715 1.1881 5.65864 0.25