ITEM: TIMESTEP
50000
ITEM: NUMBER OF ATOMS
1000
ITEM: BOX BOUNDS xy xz yz pp pp pp
0.0000000000000000e+00 8.3788359999999997e+00 0.0000000000000000e+00
0.0000000000000000e+00 8.3788359999999997e+00 0.0000000000000000e+00
0.0000000000000000e+00 8.3788359999999997e+00 0.0000000000000000e+00
ITEM: ATOMS id x y z radius
1 2.96069 7.10756 4.34676 0.25
2 4.63727 5.07437 5.2961 0.25
3 7.30574 4.87248 3.61851 0.25
4 7.52532 0.608807 6.34157 0.5
5 1.26082 5.62847 5.99916 0.25
6 0.41267 1.75619 3.19336 0.25
7 4.08984 3.65242 6.75094 0.25
8 4.83051 7.89758 2.96906 0.25
9 0.889095 6.29296 3.63927 0.25
10 4.52447 1.87833 3.29088 0.25
11 5.28162 0.0949249 0.105183 0.25
12 5.16561 3.40698 2.07689 0.25
13 8.07066 2.55913 6.9404 0.25
14 3.85347 2.96369 7.22152 0.25
15 8.25072 2.53613 5.88174 0.25
16 7.21257 0.0461973 6.89291 0.25
17 0.657465 4.93442 7.98607 0.25
18 5.97509 7.39138 7.79871 0.25
19 4.35701 1.94557 7.67491 0.25
20 7.35807 1.59496 0.668273 0.25
21 5.01955 4.18611 2.27037 0.25
22 3.98256 3.55255 1.45463 0.25
23 2.2793 3.25802 1.87198 0.25
24 3.32718 1.61966 4.19947 0.25
25 2.12161 4.46112 2.81975 0.25
26 0.306601 0.0759999 5.88722 0.25
27 3.70964 1.20141 5.98141 0.25
28 4.62691 2.18317 0.0897638 0.25
29 5.24985 7.05379 3.19668 0.25
30 7.16948 7.3986 2.69085 0.25
31 2.87152 0.717376 7.70135 0.25
32 0.745769 2.56695 6.94563 0.25
33 7.77896 0.47145 5.59454 0.25
34 1.83946 4.76001 1.31553 0.25
35 8.21233 0.241673 4.55604 0.25
36 7.30757 1.45332 5.73073 0.5
37 4.63521 0.973721 1.98237 0.25
38 2.12903 3.40942 4.33008 0.25
39 6.54069 2.764 5.09262 0.25
40 4.75713 8.35904 3.11607 0.25
41 6.77991 2.52335 2.7953 0.25
42 5.34987 6.03241 5.80809 0.25
43 3.22775 8.03193 4.2539 0.25
44 3.58174 0.702899 6.03064 0.25
45 6.02191 4.1602 4.59366 0.25
46 3.73685 5.69845 1.29838 0.5
47 4.82056 0.639757 5.21962 0.25
48 7.95944 6.49154 6.85425 0.25
49 7.39323 7.12334 4.91167 0.25
50 7.52929 1.26127 0.938335 0.25
51 2.91631 3.42246 4.31119 0.25
52 0.99154 1.7872 2.53344 0.25
53 6.43724 4.87147 6.50352 0.25
54 6.16531 3.71064 4.78979 0.25
55 1.56556 1.5132 5.67905 0.25
56 0.591408 7.74034 0.184205 0.25
57 4.84018 0.556727 1.87488 0.25
58 2.61119 2.14921 4.14567 0.25
59 5.69336 1.47871 5.32812 0.25
60 0.654248 5.75935 5.47056 0.25
61 5.54624 0.199873 8.09108 0.25
62 5.41246 1.69453 7.83202 0.5
63 7.74993 6.3786 1.58982 0.25
64 0.920112 5.70499 0.76251 0.25
65 3.77967 8.33677 1.8923 0.25
66 2.20868 4.57002 7.13018 0.25
67 7.43275 4.74896 7.20194 0.25
68 7.35059 8.2508 6.49935 0.25
69 0.122778 5.27342 7.43206 0.25
70 1.92709 4.23854 0.504067 0.25
71 7.70603 1.70797 0.30484 0.25
72 6.33474 6.35929 3.81352 0.25
73 0.590841 7.29419 6.40238 0.25
74 7.18156 5.29322 6.55372 0.25
75 7.2539 0.268798 3.35882 0.25
76 7.46787 6.8068 4.55763 0.25
77 6.20382 2.53293 5.45523 0.25
78 5.43667 3.67648 1.6731 0.25
79 8.12629 5.75735 5.22457 0.25
80 6.2555 3.31397 5.83789 0.25
81 6.58826 1.57129 1.17798 0.25
82 8.12267 2.78365 5.46313 0.25
83 4.2322 5.88949 5.47174 0.25
84 1.16694 1.13351 5.67243 0.25
85 1.83735 1.49188 5.27178 0.25
86 3.89118 0.330216 6.16212 0.25
87 2.23143 1.54864 0.992253 0.25
88 3.49585 6.41791 1.56303 0.25
89 6.64023 7.4643 0.915371 0.25
90 5.31599 6.45995 5.47667 0.25
91 3.89988 4.19265 6.06798 0.25
92 5.8682 4.54423 7.25525 0.25
93 4.86599 6.56266 5.23307 0.25
94 6.75895 7.88421 4.46949 0.25
95 0.232215 4.38496 7.5144 0.5
96 5.53823 3.26996 4.01674 0.5
97 4.08745 4.78969 7.90662 0.25
98 0.559637 2.28941 3.27331 0.25
99 1.72384 6.41676 5.76049 0.25
100 7.12748 7.38837 1.14935 0.25
101 0.114509 0.207191 0.508025 0.25
102 8.04084 5.35079 3.84014 0.25
103 6.52539 1.59384 1.67118 0.25
104 0.578466 5.10216 7.54724 0.25
105 4.94278 5.78615 5.22228 0.5
106 4.42859 8.29141 4.892 0.25
107 3.72799 3.91305 6.99439 0.25
108 4.75129 1.32541 8.14477 0.25
109 0.640663 0.337149 6.25062 0.25
110 2.06423 7.9142 8.38455 0.25
111 2.82588 3.56987 6.57117 0.25
112 4.70845 2.14586 7.98856 0.25
113 2.33608 1.81941 1.72582 0.5
114 1.55862 4.18221 6.59788 0.25
115 4.28961 6.46615 6.098 0.25
116 2.62491 6.45359 7.32688 0.25
117 4.27702 2.36976 3.84502 0.5
118 6.7265 7.59517 1.41508 0.25
119 0.725228 5.34996 2.01445 0.25
120 0.334639 2.89844 2.21777 0.25
121 3.1806 4.00379 3.37683 0.25
122 6.90458 0.116263 6.47157 0.25
123 5.22206 0.284506 5.30693 0.25
124 7.87223 7.95401 2.52788 0.25
125 3.61282 1.99929 3.94055 0.25
126 4.41804 1.82208 5.61461 0.25
127 5.34457 3.81522 2.16038 0.25
128 6.70944 5.22448 6.70667 0.25
129 0.994162 6.48299 4.08666 0.25
130 5.30746 6.12448 0.78921 0.25
131 7.04957 1.20643 6.41877 0.25
132 5.68998 4.33698 7.70701 0.25
133 3.27416 1.7381 3.71367 0.25
134 4.34171 2.60531 0.0141543 0.25
135 5.71106 4.04385 4.14302 0.25
136 3.05577 2.43345 3.56118 0.5
137 2.85281 3.95492 3.01333 0.25
138 7.41772 8.0767 3.04382 0.5
139 2.35535 7.7019 4.65342 0.25
140 5.65742 8.07864 7.41321 0.25
141 0.789601 5.43067 5.80531 0.25
142 0.7515 4.91845 3.07891 0.25
143 1.69396 2.08972 8.31439 0.25
144 5.08202 0.981995 2.50182 0.5
145 7.57195 2.37958 3.83174 0.25
146 5.98444 7.26734 8.32293 0.25
147 6.18468 6.04598 4.66225 0.25
148 2.10687 3.09889 3.9449 0.25
149 4.28381 8.22925 2.50201 0.5
150 5.20599 2.87553 4.56227 0.25
151 3.40346 6.00643 7.45001 0.25
152 3.59209 4.47342 5.37446 0.25
153 6.63852 6.24936 2.58822 0.5
154 7.46173 2.43014 4.60763 0.5
155 2.89047 7.66312 7.90676 0.25
156 7.65176 3.88896 1.41832 0.25
157 7.40986 6.07274 1.60505 0.25
158 2.53586 3.71285 0.753886 0.25
159 7.08929 8.27409 4.49155 0.25
160 6.76648 2.05318 2.91204 0.25
161 0.453128 4.89528 2.70473 0.25
162 5.75521 3.86772 7.65196 0.25
163 3.50248 3.60667 3.93931 0.5
164 2.45336 3.91713 2.31608 0.5
165 5.90432 0.0220391 7.75412 0.25
166 0.139332 3.63064 7.77014 0.25
167 6.46775 4.64785 0.391808 0.25
168 4.51872 6.13436 5.80792 0.25
169 4.02493 4.3663 5.60861 0.25
170 0.286435 2.73924 5.68578 0.25
171 7.74375 5.98742 1.26186 0.25
172 0.965406 2.80213 6.5361 0.25
173 4.08169 6.35572 5.65317 0.25
174 2.80534 2.31672 0.770893 0.25
175 7.81048 2.07687 6.37851 0.5
176 2.66507 6.37812 6.15864 0.25
177 5.6741 3.76139 4.60368 0.25
178 3.20042 6.04592 1.69348 0.25
179 3.68483 2.05922 3.48807 0.25
180 5.72775 6.18646 6.18109 0.25
181 6.44554 3.88116 7.15082 0.25
182 3.05093 5.23202 3.24279 0.25
183 7.24588 7.84809 1.35065 0.25
184 4.02775 5.01433 8.35949 0.25
185 5.71156 6.68501 6.18114 0.25
186 7.58619 6.37274 4.73777 0.25
187 3.28907 5.25448 4.01246 0.25
188 0.824287 5.67085 2.76475 0.25
189 4.25706 6.74731 3.51886 0.25
190 4.23301 3.14959 1.38719 0.25
191 6.62554 1.70008 0.434753 0.5
192 0.90501 4.72953 7.65256 0.25
193 4.76015 5.08247 1.13522 0.25
194 2.70511 5.99233 1.41741 0.25
195 6.28729 5.73933 3.052 0.25
196 1.95655 7.35852 2.18897 0.25
197 1.11654 0.451425 1.99474 0.25
198 7.21802 4.66983 7.67165 0.25
199 1.33895 0.870921 2.74739 0.25
200 4.71155 4.8406 1.8314 0.5
201 6.96334 1.66616 3.12688 0.25
202 0.445984 4.05592 5.29061 0.25
203 4.13973 2.11018 3.18496 0.25
204 5.46562 7.85113 8.09556 0.5
205 2.35455 7.43401 4.00239 0.5
206 0.64434 4.78208 4.94327 0.25
207 5.93639 3.36422 4.63913 0.25
208 6.94325 5.68469 4.83546 0.25
209 5.26403 7.12243 0.24395 0.5
210 1.74481 7.68414 2.54197 0.25
211 0.654464 3.83648 4.84083 0.25
212 1.31876 7.59586 0.0900555 0.5
213 8.22592 4.34347 3.02402 0.25
214 1.66937 7.66027 2.0543 0.25
215 3.09947 4.21259 3.807 0.25
216 6.38133 2.24902 2.6424 0.25
217 4.95623 3.72996 2.45733 0.25
218 2.16869 2.92897 4.42005 0.25
219 4.44645 1.41092 2.60709 0.25
220 3.82318 3.06538 1.52343 0.25
221 3.9556 0.861357 6.24731 0.25
222 7.37965 0.667742 5.55369 0.25
223 8.23447 2.74255 2.37384 0.25
224 6.98252 5.41278 7.05256 0.25
225 6.96321 2.07727 5.59796 0.25
226 4.81318 2.06761 7.50035 0.25
227 6.22825 3.69487 7.6077 0.25
228 5.43669 3.31544 4.74158 0.25
229 5.90102 4.93176 2.27825 0.25
230 0.415184 8.03161 6.53436 0.5
231 5.58179 4.39582 1.84875 0.5
232 2.5248 3.01271 3.67513 0.25
233 4.07583 5.20559 3.79682 0.25
234 6.49545 0.664537 6.86277 0.25
235 3.03842 7.58184 4.24997 0.25
236 0.363539 2.17537 7.72398 0.25
237 8.22434 3.65975 7.35758 0.25
238 3.4716 0.562094 1.21191 0.25
239 0.470047 1.94014 3.61801 0.25
240 6.71826 6.63531 1.07454 0.25
241 3.24192 7.37618 8.12882 0.25
242 1.38926 7.00984 2.45692 0.5
243 2.76745 4.80664 3.252 0.25
244 7.2424 4.1852 1.4703 0.25
245 2.15074 1.07916 6.03943 0.25
246 7.55537 0.128904 3.75868 0.25
247 3.76599 2.52194 3.32905 0.25
248 4.00932 2.75531 1.16998 0.25
249 7.93443 4.66533 7.26444 0.25
250 0.629539 2.8798 4.53016 0.25
251 5.76339 2.72477 4.96538 0.5
252 3.52553 2.42152 4.23373 0.25
253 7.77502 5.47325 7.14277 0.5
254 7.59859 6.17607 6.99559 0.25
255 5.19254 0.981447 5.68643 0.5
256 5.78807 6.24492 0.749771 0.25
257 0.770694 0.203467 2.26496 0.25
258 1.78673 1.58292 2.2511 0.25
259 4.28699 3.07889 0.935202 0.25
260 8.20482 6.18856 1.46115 0.25
261 3.60288 0.361736 0.757336 0.25
262 3.62942 2.48379 3.80088 0.25
263 2.31933 0.242168 8.14679 0.5
264 2.81752 4.32548 3.32452 0.25
265 1.11933 3.78195 7.1572 0.5
266 1.42229 7.87641 6.91413 0.5
267 4.80054 2.60893 8.21887 0.25
268 6.07495 6.9372 7.93939 0.25
269 1.88125 4.70159 0.273075 0.25
270 4.02794 3.31539 1.87611 0.25
271 7.06267 7.97879 4.88061 0.25
272 1.43664 0.769337 2.23201 0.25
273 1.27259 3.15377 6.69783 0.25
274 0.979737 5.27391 8.16881 0.25
275 5.14232 4.83344 1.27959 0.25
276 2.62881 3.16364 0.752718 0.25
277 6.71849 8.35521 6.94991 0.25
278 4.10893 6.03525 1.93336 0.25
279 4.14545 0.736681 5.51775 0.5
280 8.23431 8.27114 4.89668 0.25
281 0.736816 6.07959 0.449423 0.25
282 6.0997 6.90511 6.38398 0.25
283 1.02137 0.0786709 6.44112 0.25
284 7.71391 4.78799 0.941331 0.25
285 1.62225 5.86651 0.975506 0.5
286 5.45598 6.59167 3.25557 0.25
287 1.45696 7.92557 3.12489 0.5
288 2.76993 7.42071 4.63771 0.25
289 2.4832 7.28888 5.00756 0.25
290 2.02756 3.65143 1.73918 0.25
291 0.342585 7.32166 7.40076 0.25
292 7.86151 2.71079 3.56598 0.25
293 7.80998 4.86991 3.79372 0.25
294 6.01906 3.80285 3.82908 0.25
295 0.0204087 2.69165 0.9505 0.25
296 0.631549 4.37525 4.26035 0.5
297 3.74729 3.44207 7.03884 0.25
298 6.22573 5.1539 6.85095 0.25
299 5.56973 4.82663 7.02432 0.25
300 6.27159 4.61122 0.840568 0.25
301 0.867733 8.17104 0.172486 0.25
302 0.328216 2.9452 1.21313 0.25
303 3.90624 0.279385 1.16152 0.25
304 2.22049 2.45111 4.46709 0.25
305 1.43287 5.25658 7.97503 0.25
306 2.43945 2.01088 4.61037 0.25
307 1.65297 4.70618 7.52884 0.5
308 3.64045 5.88717 3.03242 0.25
309 4.63784 1.14122 5.25841 0.25
310 1.11096 4.90354 3.90973 0.25
311 7.31466 0.333541 4.17911 0.25
312 0.739408 1.02873 2.29876 0.5
313 1.05793 3.54958 4.956 0.25
314 5.66027 3.97068 3.60673 0.25
315 1.64939 4.87065 8.26298 0.25
316 1.7576 4.20613 7.10891 0.25
317 7.89616 2.63429 4.05575 0.25
318 2.376 2.64518 4.0067 0.25
319 4.51839 7.18505 0.145915 0.25
320 2.17985 6.22662 5.91162 0.25
321 3.81828 8.27036 1.37726 0.25
322 7.31243 6.82835 5.35227 0.25
323 0.97401 5.97795 4.05284 0.25
324 3.99792 7.19643 8.0067 0.5
325 0.443495 1.75915 0.0222377 0.25
326 3.93814 4.93124 4.95472 0.5
327 7.16612 7.64224 3.59311 0.25
328 2.33655 7.2246 1.5116 0.25
329 1.31381 5.49366 2.78447 0.25
330 0.270758 6.875 7.15702 0.25
331 0.972776 5.51639 3.48343 0.5
332 6.94752 6.67735 2.04205 0.25
333 1.5776 1.73423 1.80285 0.25
334 6.15843 1.83372 1.90309 0.25
335 3.86756 2.95432 0.700658 0.25
336 3.09572 6.29186 7.14371 0.25
337 4.55572 7.23573 2.94276 0.5
338 5.60662 7.07573 7.96969 0.25
339 2.17339 7.83009 3.42092 0.25
340 4.50619 0.295142 5.13364 0.25
341 6.7658 0.218752 3.10632 0.25
342 1.0643 5.16013 7.72949 0.25
343 2.84306 1.23842 8.33347 0.25
344 0.874043 4.96368 2.33177 0.25
345 0.702477 1.45764 2.8589 0.25
346 0.0991289 2.4584 8.10406 0.25
347 3.23846 5.88965 7.93265 0.25
348 7.0501 7.83073 2.42609 0.25
349 0.474844 2.17218 8.23472 0.25
350 6.83108 2.19542 2.4431 0.25
351 1.37429 6.92406 8.25132 0.25
352 6.24023 4.22659 8.1782 0.5
353 2.58677 7.92812 8.20211 0.25
354 1.95073 0.7759 5.62949 0.25
355 0.759964 8.34694 6.00107 0.25
356 2.04821 1.75113 5.6553 0.25
357 2.91095 3.26252 6.09927 0.25
358 6.5305 3.43045 5.50524 0.25
359 5.38041 1.69205 5.6828 0.25
360 1.99601 1.97474 1.00808 0.25
361 0.66608 0.0894514 0.53439 0.25
362 5.86299 3.38741 7.57149 0.25
363 7.90675 3.96477 2.93663 0.25
364 5.56767 4.00468 8.04303 0.25
365 5.521 5.97135 0.390282 0.25
366 5.00176 5.89015 0.475195 0.25
367 2.29698 4.57197 6.62295 0.25
368 6.76777 4.23234 0.318089 0.25
369 0.751129 7.458 0.589479 0.25
370 5.21918 0.510118 8.28123 0.25
371 1.88428 7.97768 3.69893 0.25
372 2.13757 3.70748 0.460657 0.25
373 7.29607 2.43556 5.37329 0.25
374 3.46189 4.32803 4.23397 0.25
375 4.89231 0.764756 7.55973 0.25
376 2.24955 5.68015 1.38692 0.25
377 6.54317 1.50575 2.45468 0.5
378 0.332684 3.63282 7.29461 0.25
379 4.8454 1.24856 7.66567 0.25
380 2.5076 7.01885 4.5602 0.25
381 3.41592 4.91399 5.5301 0.25
382 2.09362 7.24082 4.68218 0.25
383 6.41298 5.42628 4.29827 0.5
384 1.7741 1.63789 1.31214 0.25
385 7.06911 1.13026 7.11181 0.5
386 1.58759 1.06705 5.48658 0.25
387 7.09641 1.1637 0.628241 0.25
388 0.570634 5.31915 2.47668 0.25
389 4.39353 2.70078 7.62167 0.5
390 4.23965 1.19045 6.10194 0.25
391 5.58607 4.70506 2.5008 0.25
392 8.14679 2.5118 3.24431 0.25
393 3.11603 6.2805 1.24236 0.25
394 8.27965 8.11524 0.590532 0.25
395 2.49904 1.95458 0.976717 0.25
396 4.71458 7.01473 8.16576 0.25
397 4.81482 0.499927 7.99205 0.25
398 7.05366 2.1611 8.31668 0.25
399 2.62214 4.42966 2.88163 0.25
400 6.31726 4.57944 1.39376 0.25
401 2.07963 7.02449 3.40756 0.25
402 0.621291 7.67543 7.15971 0.25
403 7.93872 6.41135 1.09415 0.25
404 8.17971 6.72066 7.20118 0.25
405 0.332302 8.21927 0.814396 0.25
406 4.52491 7.97212 4.58104 0.25
407 2.31646 1.23402 7.76636 0.5
408 5.54135 3.28725 3.0565 0.25
409 2.20876 4.87876 0.971269 0.25
410 7.26323 1.40116 8.23042 0.5
411 4.33302 5.46193 5.24391 0.25
412 8.30921 7.22315 7.17408 0.25
413 0.482922 1.35063 8.16968 0.25
414 0.258384 2.94303 7.44668 0.5
415 6.81926 4.72905 3.38483 0.25
416 2.65159 2.92452 6.33285 0.25
417 3.49516 4.72677 3.55282 0.5
418 7.0543 6.9963 4.64384 0.25
419 4.07067 3.83752 5.81159 0.25
420 0.698774 3.26956 4.19158 0.25
421 3.89802 4.81282 5.62639 0.25
422 2.22276 5.40868 0.936993 0.25
423 0.598138 0.450541 5.76859 0.25
424 0.4281 3.665 4.45472 0.25
425 2.29578 2.68263 1.26004 0.5
426 7.40385 6.10002 5.35431 0.5
427 2.89528 1.85309 4.44886 0.25
428 3.99331 5.21491 3.26636 0.25
429 4.4047 4.7013 5.53852 0.25
430 1.65452 7.16784 3.14001 0.25
431 0.858028 3.30092 6.54754 0.25
432 1.51743 6.88973 3.856 0.5
433 1.72924 1.7562 7.52389 0.25
434 0.53861 5.92665 0.887012 0.25
435 5.79994 3.59957 3.3347 0.25
436 1.05683 5.43965 2.37847 0.25
437 8.00228 1.36957 0.173193 0.25
438 0.746253 3.32874 4.67306 0.25
439 3.89159 3.10887 6.74997 0.25
440 4.68328 1.60749 7.41154 0.25
441 0.129517 4.40713 5.48729 0.25
442 1.98238 5.21039 1.31492 0.25
443 0.206816 2.83355 6.48304 0.5
444 2.22316 3.38912 1.36016 0.25
445 5.44836 7.09613 0.942405 0.25
446 4.23372 5.87962 3.44226 0.5
447 1.65676 1.9786 5.40234 0.25
448 6.06059 6.8318 5.86014 0.25
449 1.14124 5.6248 5.51181 0.25
450 2.99164 3.4841 0.84913 0.25
451 2.87835 6.91396 4.85345 0.25
452 2.4464 0.980259 0.0542951 0.25
453 5.00677 4.35393 1.34148 0.25
454 0.0270676 3.38766 6.93253 0.25
455 7.6803 4.90274 7.59938 0.25
456 3.18349 2.05342 4.15419 0.25
457 2.19928 3.86014 6.79972 0.5
458 0.0939658 7.69605 7.21635 0.25
459 4.73326 7.48707 8.10695 0.25
460 4.88436 7.9882 4.88164 0.25
461 2.6376 3.44456 1.17884 0.25
462 6.48501 5.06469 3.64978 0.25
463 4.81697 7.72497 3.43881 0.25
464 8.058 6.57752 7.65022 0.25
465 7.38758 2.18583 5.78455 0.25
466 4.45881 1.90251 2.84365 0.25
467 4.28821 5.0676 1.1832 0.25
468 7.01617 5.54671 3.38841 0.5
469 8.01103 7.03388 7.92112 0.25
470 0.0363148 1.53925 8.25553 0.25
471 1.65585 1.07449 5.95402 0.25
472 1.62959 7.28361 1.75127 0.25
473 7.97116 5.71701 5.6996 0.25
474 4.90827 5.87029 6.00707 0.25
475 1.53032 1.22925 2.462 0.25
476 6.77071 1.10864 7.82628 0.25
477 3.19033 5.4806 3.6047 0.25
478 5.91319 3.54367 8.00828 0.25
479 3.28198 7.43394 7.63871 0.25
480 4.63217 0.147974 1.95313 0.25
481 8.0383 2.20261 4.09458 0.25
482 7.77686 5.57844 4.86865 0.25
483 0.899261 5.92812 5.86668 0.25
484 2.82395 0.774864 8.19885 0.25
485 8.20475 7.41278 7.57477 0.25
486 2.42678 6.71145 5.86083 0.25
487 8.21475 7.85368 4.15655 0.25
488 4.38606 4.18476 5.95793 0.25
489 8.29914 0.0877795 0.952216 0.25
490 7.84316 7.66198 2.13182 0.25
491 4.30434 3.59083 1.08031 0.25
492 2.41237 1.69488 4.25232 0.25
493 5.93598 3.77336 7.21643 0.25
494 4.92384 7.78077 2.49243 0.25
495 1.3662 6.04108 5.66242 0.25
496 2.80696 7.89269 4.51146 0.25
497 6.0544 4.714 7.65707 0.25
498 3.37732 2.86174 4.04116 0.25
499 8.31851 4.95038 7.12097 0.25
500 4.25062 3.32481 6.48517 0.25
501 6.48245 4.04894 4.54112 0.25
502 1.71517 8.10387 8.09622 0.25
503 6.09798 4.97915 3.05589 0.5
504 7.49878 7.66032 2.47851 0.25
505 5.73799 0.908719 2.97204 0.25
506 7.18258 6.65103 4.91492 0.25
507 1.33654 0.308803 2.8419 0.25
508 0.688575 0.0460872 5.50432 0.25
509 0.178254 5.15796 5.39319 0.5
510 5.58944 1.98811 5.29775 0.25
511 0.816457 0.436692 5.25944 0.25
512 0.960286 0.594442 2.94062 0.25
513 4.26474 1.4664 5.28459 0.25
514 2.36007 5.96936 5.50156 0.25
515 0.956481 7.55959 6.31436 0.25
516 7.53281 1.36452 6.46996 0.25
517 7.39497 5.85289 4.68839 0.25
518 0.937621 3.70401 4.42752 0.25
519 6.00326 2.03911 2.36236 0.25
520 7.17016 1.69533 6.50413 0.25
521 7.28974 1.9843 0.323643 0.25
522 6.24983 1.76189 7.78558 0.25
523 5.03571 6.84629 5.58236 0.25
524 2.82793 0.192298 7.54872 0.25
525 6.12821 4.17275 7.4551 0.25
526 6.96192 4.85242 6.53591 0.25
527 7.50998 8.25741 4.19792 0.25
528 7.44521 0.457883 7.09414 0.25
529 7.12361 1.8607 2.64598 0.25
530 2.22575 1.88428 6.14957 0.25
531 7.89266 8.14047 3.91136 0.25
532 1.15682 0.465805 2.51039 0.25
533 6.77841 1.60199 7.68992 0.25
534 7.8755 5.91745 1.77611 0.25
535 0.298311 3.29363 5.15678 0.5
536 7.048 2.05203 6.10792 0.25
537 4.57225 1.38358 5.69263 0.25
538 7.35058 5.40695 5.01424 0.25
539 2.21353 1.43473 6.408 0.25
540 7.6185 6.33503 2.26833 0.5
541 8.12981 4.0993 1.29871 0.25
542 1.7741 2.1589 7.87215 0.25
543 3.08672 7.21207 7.23871 0.25
544 7.71377 6.58696 7.2327 0.25
545 1.33182 6.10821 3.84805 0.25
546 4.5182 6.00787 6.3318 0.25
547 5.57236 2.30634 7.98997 0.25
548 5.94946 7.36971 6.53342 0.25
549 0.830428 7.41328 6.78626 0.25
550 6.36154 6.94565 -0.0111624 0.25
551 4.79122 1.74218 2.53126 0.25
552 3.67708 5.42025 3.70268 0.25
553 6.82125 8.36608 3.84337 0.5
554 4.5 6.48571 3.13558 0.25
555 4.94639 6.51127 3.71706 0.5
556 6.70362 1.12789 0.970718 0.25
557 7.37027 5.30771 4.22596 0.5
558 6.26452 0.655551 3.78732 0.25
559 1.30849 0.392059 5.81452 0.5
560 5.06282 3.5068 2.92433 0.25
561 2.95219 3.09293 3.89945 0.25
562 5.09274 8.26224 5.58246 0.25
563 2.62621 6.34183 1.0839 0.25
564 6.15095 6.95685 0.702475 0.5
565 6.54068 1.09867 6.55729 0.25
566 1.27572 1.63168 2.21389 0.25
567 4.13982 6.01282 6.01349 0.25
568 6.13443 1.27983 3.05669 0.25
569 2.75428 8.09354 7.71093 0.25
570 2.06764 6.8165 4.33128 0.25
571 1.94828 4.39654 6.33074 0.25
572 0.227616 2.67214 3.83444 0.5
573 4.56886 1.41222 2.1371 0.25
574 1.67833 6.00321 6.04067 0.25
575 1.81899 1.69946 7.98258 0.25
576 4.00792 5.63503 7.82771 0.25
577 4.79602 8.29735 5.22611 0.25
578 1.83593 7.46168 3.48965 0.25
579 7.18936 5.07136 7.40084 0.25
580 7.55868 0.229648 4.87351 0.5
581 4.13964 4.63564 6.00095 0.25
582 6.28716 3.22306 5.02516 0.25
583 5.72 3.51174 5.36762 0.5
584 4.55421 6.61426 5.64077 0.25
585 5.16519 3.42064 1.29149 0.25
586 1.55806 0.00476882 2.24125 0.5
587 5.22633 7.56788 3.18245 0.25
588 5.99066 5.19682 3.71989 0.25
589 8.00491 3.04731 6.96214 0.25
590 3.65012 6.12217 1.88482 0.25
591 6.15858 1.33576 1.86066 0.25
592 7.24112 7.3205 1.89794 0.5
593 6.72011 7.13247 1.25179 0.25
594 2.1908 4.23643 8.18615 0.5
595 0.628118 3.54706 7.69025 0.25
596 2.12458 0.74433 0.370436 0.25
597 0.0671335 0.53776 5.30215 0.5
598 2.42378 5.90385 0.958208 0.25
599 1.85242 8.28269 7.53074 0.25
600 7.82236 0.940345 5.72144 0.25
601 0.781508 0.820042 5.53134 0.25
602 3.6647 0.286502 2.31852 0.25
603 4.0488 5.48079 8.34734 0.25
604 7.19395 5.03476 6.8961 0.25
605 8.002 2.28127 3.60702 0.25
606 2.02143 7.52495 1.75349 0.25
607 4.32907 5.25784 8.02717 0.25
608 3.69773 7.72237 7.47296 0.25
609 6.94321 5.1661 4.82079 0.25
610 1.99306 1.25874 5.65285 0.25
611 3.11071 1.10699 7.97553 0.25
612 0.341436 8.1586 0.342532 0.25
613 6.08652 1.77253 8.23298 0.25
614 4.54605 0.782547 4.87543 0.25
615 4.97922 2.65242 4.22833 0.25
616 0.906877 5.19297 2.74159 0.25
617 1.54153 7.76014 1.62528 0.25
618 7.49705 7.55909 4.31263 0.5
619 7.99582 8.21298 4.4149 0.25
620 7.86119 7.15267 2.824 0.5
621 4.24411 6.42754 3.96019 0.25
622 5.8034 6.54023 6.59386 0.25
623 5.44139 6.58469 0.750364 0.25
624 0.162568 2.766 4.67151 0.25
625 1.18403 4.8165 8.0644 0.25
626 3.48787 0.201603 1.52923 0.25
627 5.11756 4.66992 2.45154 0.25
628 8.02076 3.16578 2.99051 0.5
629 7.20494 4.03479 0.481755 0.25
630 0.94302 0.0489688 2.71883 0.25
631 1.54863 1.32663 7.72865 0.25
632 7.58861 7.93114 1.7483 0.25
633 5.65192 7.51084 0.807609 0.25
634 2.97733 0.429636 4.36654 0.25
635 1.07714 6.78503 0.568923 0.5
636 1.71926 2.14651 1.40885 0.25
637 5.24728 8.17143 5.1433 0.25
638 4.98081 0.982174 4.85895 0.25
639 4.94693 1.82097 8.30916 0.25
640 5.1048 7.47115 0.9109 0.25
641 1.4507 6.78682 5.07182 0.25
642 4.05283 1.47731 5.73975 0.25
643 6.11026 6.44148 6.19089 0.25
644 6.09382 0.748819 3.27062 0.25
645 2.87251 2.13237 1.23171 0.25
646 7.85963 7.0072 6.93978 0.25
647 2.53782 3.16762 4.12809 0.25
648 5.07049 0.907782 8.02629 0.25
649 0.529459 3.3118 1.48618 0.25
650 8.26151 2.8606 1.41225 0.25
651 3.73446 2.898 3.62506 0.25
652 7.6763 0.0543304 6.83961 0.25
653 0.968038 6.16702 0.837128 0.25
654 0.674511 2.51128 7.92298 0.25
655 3.55053 3.58506 6.30905 0.5
656 0.514139 3.33419 6.8922 0.25
657 1.61955 5.59114 5.70303 0.25
658 7.28716 0.580378 3.70755 0.25
659 2.19247 1.93857 7.60866 0.25
660 6.86706 6.33075 4.42808 0.5
661 7.98538 1.70683 8.20247 0.25
662 3.86456 4.64524 4.21989 0.25
663 2.51595 3.63208 1.68189 0.25
664 7.06229 2.80692 5.10735 0.25
665 7.81645 3.96486 0.992697 0.25
666 5.67324 6.97365 6.60879 0.25
667 6.80136 3.95089 0.757862 0.25
668 6.80769 6.68375 1.56601 0.25
669 6.00297 4.73846 6.77644 0.25
670 4.47415 7.84909 5.08184 0.25
671 3.44346 4.85156 4.36962 0.25
672 2.74173 3.29873 2.06409 0.25
673 1.04442 1.10597 3.06073 0.25
674 4.44461 7.94709 3.21197 0.25
675 5.88891 3.62655 6.08777 0.25
676 7.49199 8.03592 2.21145 0.25
677 5.84227 1.58469 2.24732 0.25
678 7.70164 6.73259 4.97933 0.25
679 0.877312 5.93218 1.24086 0.25
680 3.60647 6.63913 0.0245637 0.25
681 7.84484 0.233008 4.1807 0.25
682 2.23717 6.17405 1.33104 0.25
683 2.07199 8.1371 7.13176 0.25
684 0.335531 2.90782 1.69607 0.25
685 2.43308 3.37963 6.26927 0.25
686 4.25702 3.25856 7.03067 0.25
687 2.45764 4.12305 0.463321 0.25
688 4.41685 1.65415 6.09736 0.25
689 5.67156 4.67586 7.98998 0.25
690 6.18432 0.869653 2.79059 0.25
691 6.96517 1.71418 1.48292 0.25
692 5.41017 5.00478 2.19996 0.25
693 7.48624 1.68454 6.86878 0.25
694 7.8025 5.39907 5.33959 0.25
695 8.36825 3.0845 5.80994 0.25
696 5.76609 5.92705 3.6375 0.5
697 4.2397 3.84488 6.3111 0.25
698 2.03555 1.01957 5.20101 0.25
699 1.64941 6.92702 4.66067 0.25
700 4.49723 5.43825 1.40151 0.25
701 4.78464 1.71443 7.87574 0.25
702 2.16781 4.19447 7.43549 0.25
703 3.24875 6.65514 7.73475 0.5
704 4.4948 4.86321 8.27691 0.25
705 4.66555 3.30219 1.16323 0.25
706 5.06332 0.0858268 8.01468 0.25
707 4.65004 3.7747 1.75885 0.5
708 5.10991 7.21538 7.86232 0.25
709 2.69554 6.63532 1.79476 0.5
710 1.84558 4.5598 6.79145 0.25
711 5.30831 6.2036 3.06847 0.25
712 0.144628 5.07118 7.88136 0.25
713 1.82063 4.09944 1.86401 0.25
714 5.23782 3.88975 1.32777 0.25
715 5.02437 6.64292 3.01394 0.25
716 6.40252 1.33078 7.57373 0.25
717 7.46728 7.99329 3.755 0.25
718 5.42739 3.50323 7.90346 0.25
719 5.57086 4.80235 7.5056 0.25
720 1.58998 7.66579 3.90301 0.25
721 6.41923 2.19306 2.15992 0.25
722 2.31256 7.35359 2.84798 0.5
723 2.16422 6.89768 2.29258 0.25
724 7.15572 6.85805 1.24689 0.25
725 8.05196 6.24756 7.26691 0.25
726 1.18507 0.828329 5.24116 0.25
727 3.24071 0.62342 1.66355 0.25
728 3.55602 6.17273 8.23529 0.25
729 5.00186 5.83962 3.3409 0.25
730 2.90085 6.74615 7.04287 0.25
731 5.2785 3.63799 3.3646 0.25
732 3.95111 4.12122 6.6094 0.25
733 3.50885 5.57561 7.68701 0.25
734 4.31775 1.0134 2.34098 0.25
735 3.44654 3.11564 6.89686 0.25
736 7.62033 2.05737 8.29714 0.25
737 3.92315 8.28641 0.861693 0.25
738 0.246499 8.34071 1.31558 0.25
739 4.79799 6.19317 3.0564 0.25
740 4.9736 7.25246 3.5128 0.25
741 0.35236 0.306718 0.921402 0.25
742 3.59869 4.55366 5.84144 0.25
743 6.8388 1.21691 1.41708 0.25
744 4.55309 0.52712 2.28712 0.25
745 3.57497 4.04789 5.69517 0.25
746 1.50621 6.17694 4.58432 0.5
747 4.25205 8.26798 1.72238 0.25
748 2.59475 6.95925 7.34785 0.25
749 1.49447 1.22812 1.97562 0.25
750 8.29047 2.96727 1.90389 0.25
751 1.71062 0.686576 5.1855 0.25
752 5.98076 5.01913 7.24647 0.25
753 4.03485 0.609376 1.73444 0.5
754 4.31013 5.55251 1.84482 0.25
755 3.25757 2.84709 1.11742 0.5
756 0.107245 6.43779 7.41187 0.25
757 5.73655 6.38904 5.76494 0.25
758 6.62025 3.99264 7.60848 0.25
759 3.58811 8.28012 6.00648 0.25
760 0.186112 2.60456 3.0912 0.25
761 3.5946 7.2281 7.30084 0.25
762 1.1403 1.85567 3.26139 0.5
763 3.50739 8.2044 2.28567 0.25
764 1.16781 6.05875 0.42241 0.25
765 7.70954 5.23266 3.52964 0.25
766 8.34672 4.68681 2.68553 0.25
767 2.77932 7.23731 7.65384 0.25
768 1.91151 2.66215 4.14151 0.25
769 8.11583 3.63251 1.21757 0.25
770 4.57437 0.898972 7.886 0.25
771 6.83644 0.724572 6.47855 0.25
772 5.08538 2.42127 7.81749 0.25
773 5.01374 0.253325 4.57819 0.5
774 3.55309 0.294143 5.76239 0.25
775 7.59639 4.69098 3.01057 0.5
776 6.99541 4.65013 0.946567 0.5
777 5.9229 6.79995 8.36017 0.25
778 5.40414 0.0590722 7.64266 0.25
779 8.3159 8.37566 4.05039 0.25
780 2.3465 1.53128 5.94778 0.25
781 2.18413 1.99846 8.13824 0.25
782 0.688627 7.27324 0.159103 0.25
783 6.72172 4.30423 1.58716 0.25
784 2.02991 7.01615 1.84787 0.25
785 2.64425 1.73013 6.33858 0.25
786 2.39877 7.29652 2.04629 0.25
787 7.91447 7.00334 7.47484 0.25
788 8.08342 4.32985 2.55831 0.25
789 3.09651 0.0868053 3.99855 0.25
790 6.97135 8.04362 6.72367 0.25
791 0.0781296 4.94626 3.40138 0.5
792 2.37384 8.33128 7.4818 0.25
793 8.22389 6.52803 2.87726 0.25
794 5.05837 6.59157 6.2354 0.5
795 2.347 4.07313 3.04018 0.25
796 2.66263 6.32814 5.66621 0.25
797 6.92068 7.04151 0.841272 0.25
798 8.0569 4.38624 0.935365 0.25
799 4.20737 3.43803 5.99612 0.25
800 0.0793063 2.14715 3.29898 0.25
801 3.35494 7.62748 7.17182 0.25
802 3.74964 5.14865 4.17848 0.25
803 2.80167 8.09749 6.96173 0.5
804 3.8935 6.52116 1.9162 0.25
805 2.00158 8.00133 1.803 0.25
806 2.81041 1.74201 3.97268 0.25
807 4.4561 6.29367 5.28522 0.25
808 4.2402 2.19527 8.11227 0.25
809 1.88467 6.02215 5.60049 0.25
810 5.86992 7.647 6.15199 0.25
811 1.42192 3.16486 4.37834 0.5
812 5.85547 7.57916 0.326375 0.25
813 4.90305 2.0369 2.99106 0.25
814 2.19234 7.65266 6.92859 0.25
815 2.41446 8.15808 4.32357 0.25
816 0.286616 3.21121 4.41381 0.25
817 4.40666 1.74162 8.16541 0.25
818 4.53368 2.33752 3.10839 0.25
819 1.81511 5.13257 0.875903 0.25
820 3.05136 3.11843 6.59202 0.25
821 1.07189 1.81046 7.89977 0.5
822 6.24701 4.4613 3.90248 0.5
823 5.29389 0.535405 7.79175 0.25
824 1.27869 0.386998 5.11031 0.25
825 3.70726 6.02539 7.82553 0.25
826 3.28082 3.55372 1.60594 0.5
827 5.75063 7.13138 6.13764 0.25
828 8.00388 2.27674 8.09918 0.25
829 0.111989 8.15974 4.43311 0.25
830 1.47282 1.74831 2.64246 0.25
831 2.36392 3.80844 7.55425 0.25
832 6.00298 4.5167 2.45302 0.25
833 1.89142 1.51516 6.07255 0.25
834 4.0666 0.619248 2.46878 0.25
835 6.12786 1.64243 1.41056 0.25
836 3.24062 7.89231 7.5954 0.25
837 3.79624 5.21644 7.99894 0.25
838 7.14867 0.979537 1.10456 0.25
839 6.17909 7.22903 6.08911 0.25
840 6.63291 4.6398 7.19541 0.5
841 3.37534 6.46148 2.02866 0.25
842 0.351976 2.10636 2.54496 0.5
843 6.25979 3.80554 5.77321 0.25
844 5.11883 2.29092 8.27018 0.25
845 7.21507 1.93183 5.16634 0.25
846 3.0465 3.64753 7.20378 0.5
847 2.2695 4.584 0.504928 0.25
848 2.01268 5.99461 5.10954 0.25
849 4.9907 8.24482 2.60928 0.25
850 6.7851 2.74072 5.85121 0.5
851 4.91078 7.82283 5.34974 0.25
852 6.62664 1.93009 8.09524 0.25
853 3.40651 0.312689 6.2559 0.25
854 4.96629 1.7449 5.09071 0.5
855 0.746863 4.27522 4.97352 0.25
856 0.459296 5.35932 2.9375 0.25
857 3.98373 6.31449 1.53068 0.25
858 2.73813 4.60716 3.67431 0.25
859 6.79228 4.81702 4.42576 0.25
860 7.61394 4.30216 0.710601 0.25
861 4.47522 3.04696 8.28597 0.25
862 6.85938 4.92126 3.88879 0.25
863 5.14156 6.37916 0.424446 0.25
864 7.08433 6.88787 2.52071 0.25
865 3.61255 5.66626 8.18603 0.25
866 4.95703 8.14142 2.14934 0.25
867 1.84191 3.90815 7.51865 0.25
868 2.22425 1.56981 0.308797 0.5
869 0.862746 3.06816 6.97139 0.25
870 6.32305 5.53718 3.53028 0.25
871 2.6379 7.39579 7.12761 0.25
872 6.3244 3.03402 5.42616 0.25
873 7.99943 0.0555321 0.519588 0.25
874 4.88498 1.68615 5.84437 0.25
875 2.18069 4.09178 1.17406 0.5
876 1.55569 5.79309 5.24727 0.25
877 8.11832 4.97252 7.61254 0.25
878 5.86879 1.21223 2.59729 0.25
879 2.90358 8.3693 4.43216 0.25
880 6.48352 6.05842 3.39101 0.25
881 7.296 1.29488 1.42314 0.25
882 0.0169991 6.9684 7.5894 0.25
883 0.297057 3.33395 1.94488 0.25
884 6.88092 3.94575 1.20021 0.25
885 0.868286 3.8205 5.27173 0.25
886 7.63131 7.53865 3.48976 0.25
887 1.06799 6.39525 1.19852 0.25
888 0.763697 4.772 3.56365 0.25
889 1.25717 7.6702 2.40974 0.25
890 7.96517 4.81256 2.37796 0.25
891 0.756743 2.36425 7.4418 0.25
892 7.32098 3.98626 1.01079 0.25
893 0.74484 7.97132 0.582021 0.25
894 4.10305 5.14447 1.63539 0.25
895 4.34078 5.97552 1.53158 0.25
896 1.67494 1.33605 8.19536 0.25
897 8.33786 3.22304 1.01837 0.25
898 0.582905 5.08838 3.95189 0.25
899 1.11653 8.0328 6.20285 0.25
900 4.91544 6.30114 5.63926 0.25
901 1.1991 1.37535 2.70509 0.25
902 7.65844 4.34463 1.2184 0.25
903 6.06264 3.75592 4.32624 0.25
904 6.90603 4.33881 7.87705 0.25
905 5.36149 0.664505 5.01142 0.25