ITEM: TIMESTEP
700000
ITEM: NUMBER OF ATOMS
1000
ITEM: BOX BOUNDS xy xz yz pp pp pp
0.0000000000000000e+00 8.3788359999999997e+00 0.0000000000000000e+00
0.0000000000000000e+00 8.3788359999999997e+00 0.0000000000000000e+00
0.0000000000000000e+00 8.3788359999999997e+00 0.0000000000000000e+00
ITEM: ATOMS id x y z radius
1 2.51435 6.77196 5.01453 0.25
2 4.81885 5.14141 4.95126 0.25
3 6.93049 4.54684 3.21804 0.25
4 7.23247 1.07279 5.80554 0.5
5 1.09397 5.39214 6.12275 0.25
6 8.23222 1.73597 3.46386 0.25
7 4.30925 3.33197 6.53473 0.25
8 4.95205 7.77074 2.84634 0.25
9 0.767003 6.12821 3.77436 0.25
10 4.00696 1.58593 3.41904 0.25
11 5.43668 0.0959776 7.84333 0.25
12 5.06165 3.47178 1.45539 0.25
13 0.617856 2.43517 7.60399 0.25
14 3.94418 2.8821 7.22694 0.25
15 8.14251 2.98444 5.96324 0.25
16 7.40251 0.994521 6.57376 0.25
17 0.881621 5.41781 8.25403 0.25
18 6.11436 7.42759 8.11417 0.25
19 4.69805 1.83601 7.5871 0.25
20 7.83808 1.37457 0.723898 0.25
21 4.78984 4.20511 1.81964 0.25
22 4.17136 3.22162 1.27438 0.25
23 2.08644 3.38493 1.9823 0.25
24 2.85473 2.06681 4.69204 0.25
25 2.68125 4.56114 2.95472 0.25
26 0.345523 8.38341 5.88982 0.25
27 3.83843 0.446183 5.80434 0.25
28 4.22515 2.20182 8.17147 0.25
29 5.12099 6.95052 2.8878 0.25
30 7.55737 7.3263 2.39902 0.25
31 2.90833 0.429798 7.99 0.25
32 0.987531 2.72691 7.46299 0.25
33 7.53348 0.1055 5.24087 0.25
34 2.09141 5.38904 1.54328 0.25
35 7.88979 0.136877 4.51077 0.25
36 6.78403 1.99858 5.86824 0.5
37 3.98434 1.47304 2.19604 0.25
38 2.05426 3.40336 4.27615 0.25
39 6.07623 2.5822 4.81557 0.25
40 5.43394 7.73673 2.92247 0.25
41 6.5822 2.22068 2.76839 0.25
42 5.64769 6.09573 5.5671 0.25
43 3.39873 7.6832 4.93251 0.25
44 3.71016 8.36325 5.53379 0.25
45 5.51407 3.97191 4.03749 0.25
46 3.19764 6.04496 1.54585 0.5
47 4.97829 0.890556 5.43036 0.25
48 8.08996 6.32941 6.84211 0.25
49 7.38612 6.78485 4.64359 0.25
50 7.89872 1.19334 1.22555 0.25
51 2.54159 3.42833 4.4543 0.25
52 0.6511 1.55796 2.45143 0.25
53 6.5423 5.07035 6.924 0.25
54 5.847 3.19507 4.07758 0.25
55 1.58975 1.09277 5.89213 0.25
56 1.3094 7.20081 0.147303 0.25
57 4.6794 0.897625 2.03678 0.25
58 2.1783 2.1586 4.15604 0.25
59 4.72464 1.18276 6.21663 0.25
60 7.64195 5.45934 5.31207 0.25
61 5.07693 8.08055 7.95083 0.25
62 5.26531 1.93242 0.0646943 0.5
63 7.49517 6.64185 1.01769 0.25
64 1.17068 6.31192 1.29877 0.25
65 4.31071 0.210153 1.77985 0.25
66 2.35294 4.83404 7.33457 0.25
67 8.28628 4.87781 7.24843 0.25
68 7.0085 0.71922 6.50332 0.25
69 0.459322 5.5723 7.52898 0.25
70 1.59763 4.94524 0.993274 0.25
71 8.17442 1.229 0.365545 0.25
72 6.57778 6.22488 3.27787 0.25
73 0.575249 7.53693 6.92568 0.25
74 7.37392 5.65334 6.80417 0.25
75 7.08492 0.0185017 3.27555 0.25
76 7.54727 6.46183 4.3039 0.25
77 5.56308 2.8564 5.41367 0.25
78 5.33892 3.78957 1.19124 0.25
79 7.51903 5.04494 4.54037 0.25
80 5.73963 3.31592 5.36942 0.25
81 7.09492 1.39009 1.15066 0.25
82 0.0579147 2.56662 5.83754 0.25
83 4.49358 5.72578 5.52 0.25
84 1.07054 1.11278 5.92211 0.25
85 1.29043 1.02783 5.10262 0.25
86 4.57436 0.0316514 5.40262 0.25
87 1.78739 2.29173 0.883701 0.25
88 3.25349 6.79664 1.66342 0.25
89 6.92518 7.36624 0.767175 0.25
90 5.51696 6.48939 5.39804 0.25
91 4.00472 4.21308 6.22153 0.25
92 6.20814 4.58173 7.52049 0.25
93 5.01405 6.56661 5.25436 0.25
94 6.70612 0.214947 4.05457 0.25
95 0.336189 4.57851 7.80384 0.5
96 5.41736 3.06692 3.43307 0.5
97 4.29644 5.03432 8.07239 0.25
98 8.25183 2.1779 3.48325 0.25
99 1.44281 6.20036 6.00242 0.25
100 7.02468 6.86593 0.998552 0.25
101 0.954731 7.7361 8.16245 0.25
102 7.71182 4.70769 3.42671 0.25
103 6.66995 1.20366 1.26271 0.25
104 1.02146 4.71955 7.60588 0.25
105 5.11473 5.84671 5.05241 0.5
106 5.18884 0.281874 4.45136 0.25
107 4.29252 3.25205 7.07803 0.25
108 4.74832 1.36438 8.26568 0.25
109 0.686515 0.787747 5.83975 0.25
110 2.37496 8.01457 8.25949 0.25
111 3.13686 3.80753 7.00209 0.25
112 4.61568 2.13304 8.01749 0.25
113 1.63218 1.86487 1.89014 0.5
114 1.81008 3.7071 7.25132 0.25
115 4.68837 6.18618 6.18842 0.25
116 2.47478 7.08463 7.05207 0.25
117 4.10635 2.26213 3.65846 0.5
118 6.73254 7.24125 1.1914 0.25
119 0.794295 6.33175 3.30428 0.25
120 0.170165 2.65636 2.4057 0.25
121 3.10601 4.11171 3.58642 0.25
122 6.62243 0.968395 6.31366 0.25
123 5.28333 0.504771 5.47447 0.25
124 8.0802 8.00418 2.38887 0.25
125 3.39402 2.0791 3.92315 0.25
126 3.64113 1.2611 5.7346 0.25
127 5.1736 3.91946 1.64101 0.25
128 6.73994 5.41065 7.32167 0.25
129 0.984517 6.42777 4.14606 0.25
130 5.91964 6.22135 0.59322 0.25
131 7.21991 1.50124 6.41064 0.25
132 6.02869 4.15958 7.68337 0.25
133 3.00807 1.85409 3.68644 0.25
134 4.47311 2.60792 8.25492 0.25
135 5.46649 3.77567 3.59017 0.25
136 2.81752 2.53891 3.73215 0.5
137 2.79256 4.07075 3.15374 0.25
138 7.53045 7.88652 2.87212 0.5
139 2.49715 7.64704 5.24377 0.25
140 5.27637 7.60865 7.78954 0.25
141 7.66554 5.91048 5.01646 0.25
142 1.09094 5.09007 3.30366 0.25
143 2.39257 2.12875 8.30637 0.25
144 4.98901 1.21782 2.62114 0.5
145 7.42692 1.86138 3.96206 0.25
146 6.03591 7.40482 0.209685 0.25
147 6.46967 5.79543 4.42748 0.25
148 2.19027 3.08359 4.56508 0.25
149 4.61531 8.30761 2.44514 0.5
150 4.97835 2.95248 4.13299 0.25
151 3.50244 5.908 7.17013 0.25
152 3.68376 4.5871 5.5628 0.25
153 6.74672 5.9513 2.20329 0.5
154 7.26595 2.32431 4.5982 0.5
155 3.06948 7.27854 7.77991 0.25
156 7.56012 3.49859 1.53447 0.25
157 7.6447 5.89173 1.46619 0.25
158 2.56517 3.78453 0.904443 0.25
159 7.07386 7.72542 4.35275 0.25
160 6.40917 1.90274 3.08467 0.25
161 0.918053 5.2172 2.80641 0.25
162 5.88315 4.34589 7.19196 0.25
163 3.21267 3.7823 4.27512 0.5
164 2.52109 3.92832 2.46148 0.5
165 5.49291 8.00826 7.63742 0.25
166 0.0938795 3.76438 7.88421 0.25
167 6.68966 4.14724 8.21522 0.25
168 4.84109 5.96492 5.80001 0.25
169 4.06684 4.34901 5.68552 0.25
170 8.30754 2.70694 6.36549 0.25
171 7.76476 5.80084 0.965771 0.25
172 1.13883 2.94393 7.05656 0.25
173 4.34833 6.14395 5.76891 0.25
174 2.26341 2.19411 1.09965 0.25
175 7.66293 2.43975 6.00323 0.5
176 2.28964 5.75297 6.18854 0.25
177 5.45933 3.52707 4.09416 0.25
178 3.11651 6.56712 2.08878 0.25
179 3.36958 2.07017 3.39752 0.25
180 5.92822 6.47843 5.66855 0.25
181 6.60239 4.22678 6.92247 0.25
182 3.26339 5.20051 3.27289 0.25
183 8.05823 7.5652 1.65835 0.25
184 3.90079 5.26996 8.21398 0.25
185 5.78305 6.84984 6.05122 0.25
186 7.48993 5.94629 4.5413 0.25
187 2.98379 5.22992 4.07769 0.25
188 0.696668 5.85117 3.33473 0.25
189 4.22243 6.80401 3.57252 0.25
190 3.90485 3.57905 1.40041 0.25
191 7.16359 1.74485 0.508014 0.5
192 0.95845 5.05205 7.93333 0.25
193 3.94928 5.31495 1.13112 0.25
194 2.67911 6.40311 2.01609 0.25
195 6.20922 5.59845 2.62757 0.25
196 2.25858 8.01268 2.6997 0.25
197 1.30026 0.369307 2.24443 0.25
198 7.78333 4.88926 7.25607 0.25
199 1.18146 1.345 3.21979 0.25
200 4.63945 5.27371 1.38478 0.5
201 6.61418 1.45604 3.10816 0.25
202 8.21096 3.77772 5.39576 0.25
203 3.57487 1.70231 3.64353 0.25
204 5.67055 8.01493 -0.000878724 0.5
205 2.43218 7.39307 4.52759 0.5
206 0.242387 4.4777 5.29965 0.25
207 5.72896 2.68027 4.02466 0.25
208 6.81963 5.40541 4.3225 0.25
209 5.50694 7.01553 8.30583 0.5
210 1.85133 8.1028 3.01767 0.25
211 0.571525 3.80069 5.06056 0.25
212 1.64957 7.89618 8.36241 0.5
213 0.236533 4.02747 2.79692 0.25
214 1.77669 8.00822 2.55244 0.25
215 2.78848 4.3314 3.95838 0.25
216 6.20123 1.9174 2.59501 0.25
217 4.81521 3.69197 1.85809 0.25
218 2.39954 3.38373 4.93484 0.25
219 4.21691 0.945014 2.83509 0.25
220 3.50374 3.57006 1.05274 0.25
221 4.1568 0.0499809 5.66494 0.25
222 7.26553 0.521647 5.18245 0.25
223 8.08504 2.67933 2.66981 0.25
224 7.25932 5.48711 7.30706 0.25
225 7.27767 2.19355 5.37566 0.25
226 5.09622 2.19214 7.74373 0.25
227 6.45991 3.77491 7.01341 0.25
228 5.4389 3.02584 4.22248 0.25
229 5.64153 5.08209 1.89315 0.25
230 0.491174 8.17057 6.5418 0.5
231 5.2824 4.58743 1.35611 0.5
232 1.88466 2.9298 4.25357 0.25
233 3.9138 5.16988 4.26923 0.25
234 6.47441 1.29095 6.71736 0.25
235 3.15024 7.29802 4.78654 0.25
236 0.983531 2.50756 7.93575 0.25
237 8.31191 3.00357 7.62734 0.25
238 3.36264 0.854073 1.09723 0.25
239 0.260113 2.32725 3.79106 0.25
240 6.64156 6.27005 1.46347 0.25
241 3.53516 7.14549 7.94936 0.25
242 1.73035 7.38394 2.75638 0.5
243 2.91284 4.83865 3.31217 0.25
244 7.07319 3.49495 1.32208 0.25
245 2.01542 1.26227 5.76351 0.25
246 7.48155 8.20744 3.54258 0.25
247 3.50307 2.54421 3.41919 0.25
248 3.68356 3.13604 1.23369 0.25
249 0.343137 5.18694 7.21501 0.25
250 1.27727 3.74872 5.48234 0.25
251 5.3232 2.53984 4.69442 0.5
252 3.21362 2.31369 4.36481 0.25
253 8.09229 5.62859 7.16435 0.5
254 7.45962 5.96526 7.20047 0.25
255 4.66899 0.532268 5.90517 0.5
256 5.67965 6.18765 0.131406 0.25
257 1.202 0.106118 2.73853 0.25
258 1.61009 1.81457 2.628 0.25
259 4.32713 3.4485 1.69766 0.25
260 7.82704 6.22754 1.16866 0.25
261 4.0901 8.27405 1.38165 0.25
262 3.4917 2.51914 3.99338 0.25
263 2.39371 0.306056 0.214293 0.5
264 2.71142 4.43207 3.47431 0.25
265 1.12746 3.9654 7.51403 0.5
266 0.947347 7.8351 7.48009 0.5
267 5.27641 2.57104 7.94315 0.25
268 6.3151 7.75767 0.075997 0.25
269 1.4525 5.47664 0.824186 0.25
270 4.00601 3.44482 0.911994 0.25
271 7.51769 7.79472 4.72523 0.25
272 1.71476 1.06286 2.67606 0.25
273 1.43665 3.33361 7.07682 0.25
274 0.900959 5.52715 7.736 0.25
275 4.51165 4.53066 1.5344 0.25
276 2.70205 3.26352 1.16976 0.25
277 6.61802 0.820748 6.80464 0.25
278 3.88508 6.14957 1.22547 0.25
279 4.07158 0.482426 5.04878 0.5
280 7.80043 8.14719 4.88683 0.25
281 0.813914 6.44986 0.971417 0.25
282 6.1759 7.10008 6.23056 0.25
283 1.11434 0.112192 6.21772 0.25
284 7.2795 4.38296 1.0946 0.25
285 1.88397 6.07085 1.15324 0.5
286 5.51104 6.71775 3.11424 0.25
287 1.45722 7.74092 3.57643 0.5
288 2.76705 7.20068 5.13651 0.25
289 2.23668 7.18538 5.22085 0.25
290 1.9488 3.8849 1.92862 0.25
291 8.19369 7.54123 7.17022 0.25
292 7.71386 2.40813 3.40335 0.25
293 7.38585 4.33037 3.39548 0.25
294 5.44843 3.80915 3.08856 0.25
295 8.13445 4.25295 1.21468 0.25
296 0.448612 4.28337 4.61412 0.5
297 3.91852 3.16151 6.81492 0.25
298 6.34265 5.00585 7.36677 0.25
299 5.98067 4.97654 7.73022 0.25
300 6.4395 3.45678 0.497507 0.25
301 1.21777 7.43189 8.01606 0.25
302 0.158567 4.27761 1.58303 0.25
303 3.788 0.589811 1.00613 0.25
304 2.02983 2.65384 4.6977 0.25
305 0.705619 4.93061 8.2984 0.25
306 2.33904 2.22206 4.64721 0.25
307 1.70324 4.73268 7.78124 0.5
308 3.59903 5.63187 3.16866 0.25
309 4.46432 1.03311 5.43749 0.25
310 0.407873 4.67965 3.99615 0.25
311 7.14552 0.0655646 3.83387 0.25
312 0.940031 0.888212 2.57523 0.5
313 0.772926 3.77323 5.50078 0.25
314 5.22499 3.44364 2.72175 0.25
315 1.00495 4.56445 8.05752 0.25
316 1.91973 4.17792 7.17169 0.25
317 7.52823 2.31103 3.85986 0.25
318 2.29893 2.62371 4.29887 0.25
319 4.93975 7.21527 7.88492 0.25
320 1.93035 5.99719 6.10497 0.25
321 4.25321 0.792851 1.10295 0.25
322 7.14803 6.58384 5.02387 0.25
323 0.782809 6.01463 4.22805 0.25
324 4.18171 7.2475 7.63685 0.5
325 1.03076 1.84865 0.237759 0.25
326 4.11428 4.73708 5.00807 0.5
327 7.66783 7.25608 3.27428 0.25
328 2.20635 7.82087 1.88522 0.25
329 1.12077 5.95986 3.47179 0.25
330 8.18941 7.07829 7.36234 0.25
331 0.869481 5.37704 3.93694 0.5
332 7.31762 6.49761 2.12013 0.25
333 0.981875 1.45246 2.08075 0.25
334 6.75996 1.6692 1.34132 0.25
335 3.16391 3.1598 1.08121 0.25
336 2.88121 6.88975 6.95152 0.25
337 4.41541 7.30836 2.98415 0.5
338 6.53176 7.28598 -0.00105211 0.25
339 1.98407 7.84849 4.12901 0.25
340 4.8445 0.47216 4.74755 0.25
341 6.56417 0.0870707 3.209 0.25
342 1.16903 5.19659 7.48447 0.25
343 2.82189 1.38014 0.331904 0.25
344 1.18089 5.66372 2.67399 0.25
345 0.399772 1.37855 2.84996 0.25
346 0.499113 2.3827 8.11303 0.25
347 3.39196 5.87563 7.68244 0.25
348 7.33278 7.7373 2.12712 0.25
349 0.878605 2.16472 8.31812 0.25
350 6.66719 1.75876 2.69031 0.25
351 1.41805 6.93213 0.552151 0.25
352 6.50954 3.50856 7.75185 0.5
353 2.47783 0.0286081 7.55339 0.25
354 1.94313 0.788348 5.73619 0.25
355 0.682314 0.362465 6.08787 0.25
356 1.6287 1.91914 6.06059 0.25
357 2.87834 3.8707 6.5599 0.25
358 6.16983 3.37376 5.17813 0.25
359 4.28808 1.02674 6.25289 0.25
360 1.85904 2.06555 1.29923 0.25
361 1.00206 7.62388 0.2686 0.25
362 6.1399 4.14508 6.83797 0.25
363 7.99683 4.00056 2.14203 0.25
364 6.02614 3.82889 7.28494 0.25
365 5.41484 6.11601 0.573338 0.25
366 5.21158 6.61836 0.632126 0.25
367 2.86189 4.25648 6.90666 0.25
368 7.00444 3.79394 8.20043 0.25
369 1.0727 6.52237 0.523899 0.25
370 5.51999 0.393584 8.24452 0.25
371 2.64039 7.98472 4.95441 0.25
372 1.99796 4.79339 0.682584 0.25
373 6.98964 2.82832 5.13939 0.25
374 3.66978 4.41042 4.48022 0.25
375 5.38253 0.90369 8.06202 0.25
376 2.61369 5.90655 1.10245 0.25
377 6.39768 1.46226 1.9723 0.5
378 0.373581 3.86302 7.50927 0.25
379 5.18911 1.37352 8.01089 0.25
380 2.27667 6.61816 4.5644 0.25
381 4.16746 5.28351 5.51324 0.25
382 2.01497 6.89769 4.84746 0.25
383 6.25451 5.33242 3.86395 0.5
384 1.73437 1.55208 1.25984 0.25
385 7.4174 1.51393 7.09555 0.5
386 1.30688 1.30821 5.53351 0.25
387 7.82932 0.831852 0.854452 0.25
388 0.702074 5.69979 2.82958 0.25
389 4.57544 2.62661 7.52799 0.5
390 3.98157 0.647865 6.22421 0.25
391 5.33864 4.76054 2.15052 0.25
392 8.10514 2.57177 3.1557 0.25
393 2.81826 6.6189 1.62953 0.25
394 0.98371 8.22279 8.10083 0.25
395 2.19187 1.72325 1.31897 0.25
396 4.78229 7.69134 7.84377 0.25
397 5.09524 0.610274 8.34924 0.25
398 7.53778 1.5782 8.18476 0.25
399 3.11079 4.42192 3.18101 0.25
400 4.94282 4.45699 0.679876 0.25
401 2.3574 7.08688 3.88419 0.25
402 8.24045 7.96412 6.8723 0.25
403 7.74486 6.27277 0.677318 0.25
404 7.96271 6.78527 6.98998 0.25
405 0.535839 7.64907 0.0835575 0.25
406 5.42766 8.26562 4.33971 0.25
407 2.57292 1.12932 7.99635 0.5
408 5.51833 3.35757 2.31725 0.25
409 2.06618 5.00642 1.12587 0.25
410 7.51037 0.903017 0.185306 0.5
411 4.48708 5.44231 5.12612 0.25
412 8.24902 7.14929 6.86418 0.25
413 1.43618 1.48379 0.142079 0.25
414 0.593224 3.1532 7.95652 0.5
415 6.42977 4.55563 3.00408 0.25
416 3.13135 3.02397 6.63022 0.25
417 3.43034 4.70349 3.81677 0.5
418 7.1129 6.67956 4.18383 0.25
419 4.02254 3.86604 5.89073 0.25
420 0.803865 3.18355 4.8085 0.25
421 4.1047 4.8441 5.75407 0.25
422 2.33603 5.45115 1.09517 0.25
423 0.270495 0.54377 5.86938 0.25
424 0.406101 3.46111 4.71681 0.25
425 1.95888 2.83463 1.3953 0.5
426 6.99852 5.78986 5.02168 0.5
427 2.67193 2.26226 4.28636 0.25
428 4.09062 5.24126 3.80058 0.25
429 4.48671 4.51968 5.63729 0.25
430 1.95184 7.14033 3.49886 0.25
431 0.971988 3.39582 6.95811 0.25
432 1.69575 6.74672 4.13531 0.5
433 2.43877 1.70752 7.50111 0.25
434 1.03189 6.83423 1.30284 0.25
435 5.68347 3.47075 2.81168 0.25
436 1.03 6.04067 2.99297 0.25
437 0.172059 1.00874 0.406005 0.25
438 0.928897 3.47418 5.13529 0.25
439 3.91166 2.61928 6.81816 0.25
440 5.1787 1.7219 7.63537 0.25
441 7.80492 4.08384 5.32727 0.25
442 2.51295 5.63497 1.51445 0.25
443 0.392065 2.86485 7.00866 0.5
444 2.02774 3.5459 1.51632 0.25
445 5.5708 6.97758 0.712791 0.25
446 4.26372 5.95776 3.54055 0.5
447 1.3543 1.49468 6.02496 0.25
448 5.86124 7.29885 5.88202 0.25
449 1.07151 5.27841 5.57878 0.25
450 2.96991 3.65215 1.05299 0.25
451 2.5407 6.92936 5.5039 0.25
452 2.46305 1.0173 0.408828 0.25
453 4.5944 4.64163 1.03858 0.25
454 0.129656 3.43905 7.47578 0.25
455 8.04209 5.02058 7.66705 0.25
456 2.97768 1.90974 4.17911 0.25
457 2.52878 3.69075 7.31671 0.5
458 0.107272 7.54789 6.78872 0.25
459 5.07257 7.62092 8.24346 0.25
460 5.58945 0.11126 4.73632 0.25
461 2.56666 3.72205 1.36992 0.25
462 6.20189 4.98673 3.26322 0.25
463 5.16689 7.37643 2.69356 0.25
464 7.50617 6.88161 6.92063 0.25
465 7.03252 2.61141 5.58957 0.25
466 3.8855 1.34347 3.00698 0.25
467 3.99449 6.17408 1.67646 0.25
468 6.84786 5.25921 3.00862 0.5
469 7.4939 7.37821 6.71515 0.25
470 0.947197 1.32583 0.257849 0.25
471 1.99843 1.00164 6.17429 0.25
472 1.91263 7.41059 2.02335 0.25
473 7.31199 5.13594 5.39203 0.25
474 5.27576 5.77334 5.79055 0.25
475 1.41042 1.37576 2.8 0.25
476 7.05556 0.954094 7.50244 0.25
477 3.32441 5.40908 3.74714 0.25
478 6.22337 3.33822 7.1236 0.25
479 3.39921 7.26872 7.49845 0.25
480 4.75221 0.366674 1.83766 0.25
481 7.88483 2.06709 4.13774 0.25
482 6.99634 5.06719 4.61338 0.25
483 8.0632 5.58483 5.05484 0.25
484 3.07956 8.3588 8.25409 0.25
485 8.00191 7.527 6.70374 0.25
486 2.36861 6.17554 6.03148 0.25
487 8.17421 7.76452 4.2721 0.25
488 4.4347 4.1401 5.96996 0.25
489 0.866983 8.07063 0.178829 0.25
490 8.07189 7.96978 1.90269 0.25
491 4.35638 2.93871 1.67311 0.25
492 2.49982 1.83912 4.41343 0.25
493 6.3331 4.6092 7.00206 0.25
494 4.7835 7.61672 2.39108 0.25
495 1.20076 5.77556 5.75402 0.25
496 2.96635 7.66277 5.09605 0.25
497 6.51267 4.31597 7.78003 0.25
498 3.32522 2.95165 4.16276 0.25
499 0.669353 5.12888 7.52539 0.25
500 4.04581 2.97463 6.36306 0.25
501 5.84271 3.64753 3.81978 0.25
502 1.72505 8.08097 7.66004 0.25
503 5.85316 4.98031 2.63265 0.5
504 7.75234 7.67983 2.07795 0.25
505 5.861 1.59858 2.45156 0.25
506 7.14432 6.35288 4.59563 0.25
507 1.27377 0.476465 3.1438 0.25
508 0.631721 8.32073 5.42306 0.25
509 7.9729 4.82161 5.11945 0.5
510 4.95909 1.70959 5.51385 0.25
511 0.611736 0.320868 5.62759 0.25
512 1.06581 0.85284 3.34347 0.25
513 3.96103 1.11857 5.33094 0.25
514 1.94038 5.50682 5.97812 0.25
515 1.02526 7.59746 6.72882 0.25
516 7.44027 1.7233 6.07255 0.25
517 7.28693 5.45433 4.47826 0.25
518 0.899819 3.68523 4.68492 0.25
519 6.38754 1.97816 1.43346 0.25
520 7.2041 2.02674 6.48907 0.25
521 7.85249 1.6358 0.256072 0.25
522 6.91543 1.37751 7.69123 0.25
523 5.17278 6.79629 5.64089 0.25
524 2.70284 0.525972 7.53015 0.25
525 6.35047 4.17746 7.30963 0.25
526 7.01868 5.31804 6.88934 0.25
527 7.38969 7.95767 4.00117 0.25
528 7.6574 1.37433 6.41041 0.25
529 6.63515 1.22845 2.64274 0.25
530 2.10681 1.84366 6.35825 0.25
531 7.85555 7.94898 3.88916 0.25
532 1.49215 0.962599 3.12258 0.25
533 7.36281 1.21658 7.83619 0.25
534 8.15012 5.84189 1.31153 0.25
535 0.318698 3.18124 5.44621 0.5
536 6.90678 2.6797 6.04726 0.25
537 4.0268 0.927986 5.78851 0.25
538 6.50208 5.34198 4.62619 0.25
539 2.30282 1.40521 6.14606 0.25
540 8.05402 6.39159 1.8799 0.5
541 7.64004 3.95644 1.78489 0.25
542 2.21428 2.03806 7.79789 0.25
543 3.22767 7.27583 7.02252 0.25
544 7.72415 6.58244 6.60477 0.25
545 1.23298 6.02905 3.94476 0.25
546 4.95954 5.74381 6.19964 0.25
547 5.35424 2.72059 0.0328532 0.25
548 6.08604 7.24346 6.70968 0.25
549 0.237163 7.85205 7.15998 0.25
550 6.18277 6.972 8.34303 0.25
551 4.25441 1.40314 2.63524 0.25
552 3.75213 5.44469 3.93401 0.25
553 6.7225 7.91196 3.6855 0.5
554 4.35787 6.55928 3.15531 0.25
555 4.98574 6.69768 3.52799 0.5
556 7.3311 0.670666 0.853688 0.25
557 7.17284 4.94042 3.88097 0.5
558 6.35398 0.225688 3.6728 0.25
559 1.24873 0.495106 5.54088 0.5
560 4.97931 3.4235 2.24063 0.25
561 2.85516 3.17204 4.13278 0.25
562 5.05895 0.0744974 5.48202 0.25
563 2.34504 6.59591 1.59597 0.25
564 6.2535 6.92786 0.706825 0.5
565 6.80663 1.68938 6.6041 0.25
566 1.1545 1.67112 2.46288 0.25
567 4.45479 5.78249 6.08 0.25
568 5.73858 1.28063 2.77238 0.25
569 2.68018 8.33915 7.99032 0.25
570 1.93217 6.40636 4.80301 0.25
571 3.10453 4.14063 7.38275 0.25
572 8.07622 2.72098 3.91455 0.5
573 3.80546 1.60915 2.63623 0.25
574 1.50504 5.708 6.16418 0.25
575 2.25207 1.73397 8.20473 0.25
576 4.20412 5.69575 7.58575 0.25
577 5.23945 0.259535 5.03314 0.25
578 1.99317 7.40016 3.91965 0.25
579 7.56348 5.19371 7.53675 0.25
580 7.14772 0.018612 4.58649 0.5
581 4.33051 4.58716 6.11105 0.25
582 5.89362 2.90466 4.46366 0.25
583 5.75964 3.63486 4.6766 0.5
584 4.74741 6.49724 5.76983 0.25
585 4.65346 3.19267 1.33693 0.25
586 1.89326 0.34043 2.70646 0.5
587 4.83617 7.0823 2.48695 0.25
588 5.75253 5.21596 3.35205 0.25
589 0.174129 2.57177 7.69504 0.25
590 3.6146 6.54064 1.92023 0.25
591 6.66081 1.44685 0.883076 0.25
592 7.39118 7.12078 1.65776 0.5
593 6.77042 6.78957 1.38668 0.25
594 1.36817 4.99162 0.269911 0.5
595 0.543514 3.88911 8.02731 0.25
596 2.00088 0.859443 0.615217 0.25
597 8.31485 0.233614 5.20497 0.5
598 2.62458 6.44615 1.16622 0.25
599 2.1536 8.32011 7.96977 0.25
600 7.68386 0.580139 5.43203 0.25
601 0.476082 0.708104 5.39805 0.25
602 4.01467 0.258323 2.14583 0.25
603 4.29387 5.52217 8.05497 0.25
604 7.467 5.18159 6.98552 0.25
605 7.8149 1.96349 3.65804 0.25
606 2.11024 8.20368 2.20007 0.25
607 4.52448 5.27942 7.66904 0.25
608 3.5498 7.64757 7.26124 0.25
609 6.60816 4.94041 4.33068 0.25
610 1.69275 1.56005 5.68608 0.25
611 3.13303 0.72707 7.67347 0.25
612 0.775644 7.26801 8.38229 0.25
613 7.0786 1.39103 8.20385 0.25
614 4.71261 0.867596 5.0371 0.25
615 4.75229 2.77336 3.69213 0.25
616 1.10209 5.56381 3.17495 0.25
617 1.435 8.26108 2.28056 0.25
618 7.63452 7.24061 4.11844 0.5
619 7.76613 8.02831 4.3483 0.25
620 8.31104 7.29661 2.31342 0.5
621 4.41908 6.57124 3.97384 0.25
622 6.19406 6.59553 6.12272 0.25
623 5.6192 6.49616 0.894386 0.25
624 1.08667 3.33182 5.58739 0.25
625 1.30676 5.36269 7.93313 0.25
626 3.50093 0.477674 1.35956 0.25
627 4.88218 4.68819 1.90588 0.25
628 8.30895 3.36791 2.45402 0.5
629 7.25948 3.21523 0.371183 0.25
630 1.46696 0.0361233 3.2254 0.25
631 2.0329 1.57584 7.77585 0.25
632 7.60853 7.87251 1.69823 0.25
633 6.14594 7.68361 0.573293 0.25
634 2.89855 7.81633 4.1565 0.25
635 0.733341 7.13344 0.687939 0.5
636 1.47913 1.93773 1.08579 0.25
637 5.69928 0.308192 5.24466 0.25
638 4.78341 1.34198 5.25749 0.25
639 4.56023 1.82295 0.0182046 0.25
640 5.17719 7.58743 0.315751 0.25
641 1.18331 6.55995 5.36127 0.25
642 3.59924 0.792923 5.57208 0.25
643 6.19243 6.92212 5.73048 0.25
644 5.68215 0.795872 2.61157 0.25
645 2.24502 2.16218 1.56173 0.25
646 8.18358 6.73721 6.51293 0.25
647 2.38295 3.07434 4.12486 0.25
648 5.13685 1.12439 0.0699606 0.25
649 0.497225 4.1062 2.02201 0.25
650 8.34847 3.82012 1.40296 0.25
651 3.13125 3.21783 3.75137 0.25
652 6.75389 1.16257 7.17102 0.25
653 1.29054 6.59406 0.93689 0.25
654 0.953054 2.63535 0.0229305 0.25
655 3.52425 3.59117 6.43217 0.5
656 0.624894 3.48609 7.33941 0.25
657 1.49861 5.37668 5.81036 0.25
658 6.78728 0.332268 3.56129 0.25
659 2.66936 1.88549 7.93795 0.25
660 6.99061 5.9813 3.92029 0.5
661 8.24118 0.959071 -0.00416415 0.25
662 4.02991 4.66349 4.30669 0.25
663 2.41468 3.72102 1.79049 0.25
664 6.58792 2.63449 4.84836 0.25
665 7.83022 3.87264 1.36061 0.25
666 5.97417 6.78076 6.55098 0.25
667 6.83871 3.38814 0.0998571 0.25
668 7.03772 6.44601 1.7039 0.25
669 5.89656 4.82084 7.2122 0.25
670 5.58661 8.00345 4.68658 0.25
671 3.61856 4.92699 4.50416 0.25
672 2.5916 3.26078 2.03584 0.25
673 0.743625 1.22498 3.18349 0.25
674 5.10392 7.37889 3.17396 0.25
675 5.28977 3.64013 5.28414 0.25
676 7.67191 8.1673 2.15669 0.25
677 6.29286 1.54335 1.24087 0.25
678 7.56705 6.33589 4.81553 0.25
679 1.48568 6.72736 1.38737 0.25
680 3.77675 6.70751 8.05558 0.25
681 7.64991 0.0289236 4.00863 0.25
682 2.50581 6.1755 1.56625 0.25
683 1.70891 7.82277 7.26712 0.25
684 0.446155 3.87228 1.58175 0.25
685 2.84567 3.42999 6.68572 0.25
686 4.33113 2.85207 6.84126 0.25
687 1.61016 4.46938 0.801734 0.25
688 3.59505 0.816063 6.03295 0.25
689 6.20892 4.05447 8.15582 0.25
690 6.10245 1.1239 2.56172 0.25
691 6.98996 1.26713 1.61104 0.25
692 5.15419 5.12137 1.91064 0.25
693 7.67773 1.87928 6.47855 0.25
694 7.34447 5.17019 4.95116 0.25
695 0.303334 2.89622 6.1587 0.25
696 5.76363 6.00252 3.15519 0.5
697 4.23809 3.80565 6.32817 0.25
698 1.77429 1.09731 5.40951 0.25
699 1.54709 6.67289 4.93722 0.25
700 4.11028 5.73599 0.973718 0.25
701 4.88866 1.76173 8.00609 0.25
702 2.28021 4.34808 7.48362 0.25
703 3.36793 6.58921 7.42657 0.5
704 4.72758 5.32721 8.15913 0.25
705 4.79971 3.2585 1.80447 0.25
706 5.09065 0.106696 8.22102 0.25
707 4.58849 3.87747 1.18077 0.5
708 5.77157 7.59717 7.78004 0.25
709 2.64002 7.15951 2.09394 0.5
710 2.34219 4.38937 7.03067 0.25
711 5.13779 6.40072 2.86697 0.25
712 0.489386 5.28172 7.96298 0.25
713 2.71599 4.10061 1.73138 0.25
714 5.22847 4.08964 0.781087 0.25
715 4.71077 6.70324 2.78228 0.25
716 6.56317 1.05612 7.61806 0.25
717 7.46697 7.68455 3.58525 0.25
718 5.98974 3.64863 6.83091 0.25
719 6.09977 4.53728 8.01301 0.25
720 1.68298 7.47899 4.30438 0.25
721 6.60658 2.06259 2.32464 0.25
722 2.38432 7.76201 3.4623 0.5
723 2.48351 7.57777 2.70726 0.25
724 7.07527 6.42975 1.20635 0.25
725 7.65063 6.40741 7.06934 0.25
726 0.844354 1.06829 5.44652 0.25
727 4.08857 0.402114 1.34015 0.25
728 3.6772 6.18563 7.94486 0.25
729 4.99824 5.98525 3.21569 0.25
730 2.87282 7.13279 7.33353 0.25
731 5.56969 3.01212 2.67827 0.25
732 4.12404 3.6643 6.84821 0.25
733 3.72984 5.55037 7.42098 0.25
734 3.86176 1.10293 2.5191 0.25
735 3.59284 2.88131 6.46579 0.25
736 7.95906 1.37951 8.24845 0.25
737 3.36063 0.40371 0.93185 0.25
738 0.349982 8.15717 0.202202 0.25
739 4.64064 6.27039 2.99511 0.25
740 5.50024 7.21128 3.07674 0.25
741 0.617949 7.88631 0.515199 0.25
742 3.79831 4.60856 6.07506 0.25
743 7.09012 0.910778 1.26981 0.25
744 4.32901 1.0132 2.31557 0.25
745 3.6025 4.20402 5.89678 0.25
746 1.28917 6.03355 4.76761 0.5
747 4.41427 0.543955 2.13839 0.25
748 2.60985 6.67395 7.27188 0.25
749 1.46958 1.38617 2.331 0.25
750 0.150546 3.44353 1.67099 0.25
751 0.799669 0.823013 5.0075 0.25
752 6.44419 4.84444 7.84844 0.25
753 3.86371 0.916597 1.77731 0.5
754 4.34869 6.00163 1.34435 0.25
755 2.85569 2.62532 1.55187 0.5
756 7.70555 6.85292 7.39985 0.25
757 5.67127 6.94689 5.56874 0.25
758 6.77373 4.01763 7.37963 0.25
759 4.12883 8.16764 5.21696 0.25
760 0.169839 2.52695 3.32492 0.25
761 3.70138 7.18461 7.04833 0.25
762 0.612191 1.89389 3.44162 0.5
763 4.082 8.1566 1.95638 0.25
764 1.17901 6.12201 0.862178 0.25
765 7.3619 4.72374 3.11029 0.25
766 0.551967 4.30325 2.52168 0.25
767 2.73758 6.93207 7.76719 0.25
768 2.14462 2.92021 5.08088 0.25
769 8.00223 3.61542 1.75411 0.25
770 4.8819 0.970808 8.00514 0.25
771 6.73128 1.42894 6.25749 0.25
772 4.903 2.42985 8.17846 0.25
773 5.42081 0.919984 4.89047 0.5
774 3.58607 8.19542 5.02179 0.25
775 7.93254 4.17081 2.8994 0.5
776 7.02067 3.90752 0.591428 0.5
777 6.04656 6.50498 0.138086 0.25
778 4.97566 8.03215 0.067473 0.25
779 8.12196 8.2725 4.1163 0.25
780 2.08334 1.77679 5.89888 0.25
781 2.69083 1.77157 0.0826845 0.25
782 1.39425 7.44144 0.585722 0.25
783 6.81172 3.14709 0.551145 0.25
784 2.14734 7.69032 2.37207 0.25
785 2.5339 1.92575 6.08076 0.25
786 2.5305 7.92355 2.28039 0.25
787 7.78692 7.08413 6.59886 0.25
788 0.117787 4.11721 2.34523 0.25
789 3.57321 7.94619 4.59301 0.25
790 7.14215 0.834701 6.98919 0.25
791 0.589273 4.58784 3.25996 0.5
792 2.44123 0.385106 7.86892 0.25
793 8.1701 7.04714 1.66822 0.25
794 5.3813 6.39551 6.18339 0.5
795 2.36057 4.24828 3.13562 0.25
796 2.19313 5.8069 5.69382 0.25
797 6.65634 6.51174 1.01429 0.25
798 7.65815 4.33858 1.42715 0.25
799 4.10814 3.39291 6.05793 0.25
800 7.90799 2.04312 3.19958 0.25
801 3.17101 7.75251 6.92259 0.25
802 3.4272 5.31295 4.27887 0.25
803 3.20475 8.31527 7.50799 0.5
804 3.74943 6.97821 1.76641 0.25
805 1.72536 7.84988 2.06996 0.25
806 2.55007 1.87684 3.92893 0.25
807 4.66739 6.20004 5.41948 0.25
808 4.23357 2.00388 7.6947 0.25
809 1.6765 5.81068 5.71764 0.25
810 6.45689 7.42955 6.411 0.25
811 1.57899 3.36223 4.92562 0.5
812 5.65693 7.46015 0.551009 0.25
813 4.1829 1.75253 2.98702 0.25
814 1.60747 7.58008 7.70621 0.25
815 2.75673 8.13151 4.48985 0.25
816 0.993303 2.95474 5.22502 0.25
817 4.43502 1.65059 7.98517 0.25
818 3.6939 1.80343 3.10911 0.25
819 1.76183 5.35722 1.2041 0.25
820 3.48078 3.00979 6.94649 0.25
821 1.5872 2.15881 8.18529 0.5
822 5.85549 4.38367 3.46629 0.5
823 5.12168 0.488588 7.90236 0.25
824 0.645742 0.329264 5.09423 0.25
825 3.82098 6.02989 7.51536 0.25
826 3.20978 3.5695 1.72365 0.5
827 5.70431 7.18369 6.38306 0.25
828 0.32089 2.06195 7.79241 0.25
829 8.20474 8.11644 4.61471 0.25
830 0.834853 2.01034 2.68403 0.25
831 2.28339 4.23323 7.92662 0.25
832 5.77123 4.58268 1.94302 0.25
833 1.78829 1.47864 6.17219 0.25
834 4.05446 0.597888 2.53399 0.25
835 6.52962 1.91991 0.95334 0.25
836 3.444 7.64781 7.78132 0.25
837 3.99577 5.25152 7.72671 0.25
838 7.61819 0.787185 1.27029 0.25
839 6.0126 7.57171 6.27097 0.25
840 7.01588 4.72545 7.37364 0.5
841 3.39648 6.96306 2.13792 0.25
842 0.0662496 2.04018 2.70539 0.5
843 5.81411 3.78823 5.37452 0.25
844 4.60625 2.23914 0.138295 0.25
845 7.4663 2.65957 5.24691 0.25
846 3.66043 3.57861 7.46023 0.5
847 1.91665 5.31057 0.786124 0.25
848 1.79897 5.90364 5.30212 0.25
849 5.23239 7.84122 2.46543 0.25
850 6.34054 2.81502 5.49697 0.5
851 5.50303 8.19689 5.1691 0.25
852 7.20232 1.70761 7.84016 0.25
853 4.02181 8.178 4.73662 0.25
854 4.28844 1.62302 5.82105 0.5
855 0.28931 3.98199 5.35484 0.25
856 0.682715 5.372 3.21178 0.25
857 3.72775 6.57417 1.45461 0.25
858 2.71975 4.85874 3.7592 0.25
859 6.44303 4.63072 3.9424 0.25
860 7.68336 4.10612 0.983439 0.25
861 4.9126 2.86841 8.13151 0.25
862 6.54893 4.71834 3.46791 0.25
863 5.21254 6.349 0.192866 0.25
864 7.62909 6.85689 2.38005 0.25
865 3.81272 5.6807 7.90206 0.25
866 5.20198 8.15525 2.90574 0.25
867 1.94717 4.02038 7.62198 0.25
868 2.05168 1.66394 0.569234 0.5
869 1.01608 3.24696 7.38021 0.25
870 6.20192 5.45233 3.0935 0.25
871 2.7705 7.45194 7.02337 0.25
872 5.85804 2.98966 5.02105 0.25
873 0.571109 8.01923 8.13607 0.25
874 3.82752 1.15714 6.22075 0.25
875 2.1146 4.30201 1.31888 0.5
876 1.42898 5.56288 5.36756 0.25
877 0.122788 5.248 7.62081 0.25
878 5.6946 1.16105 2.25856 0.25
879 3.12631 8.09433 4.86604 0.25
880 6.46526 5.91029 2.92362 0.25
881 7.42964 1.21125 1.46647 0.25
882 7.80313 7.23803 7.0676 0.25
883 0.562208 3.81937 2.42334 0.25
884 7.17297 3.29243 0.878222 0.25
885 0.679281 4.2139 5.29805 0.25
886 7.93304 7.59968 3.49109 0.25
887 1.34935 7.10489 1.04722 0.25
888 1.18226 4.76276 3.674 0.25
889 1.39897 8.05189 2.82686 0.25
890 0.187443 4.5753 2.64669 0.25
891 1.06812 2.25361 7.55002 0.25
892 7.53 3.61083 1.04616 0.25
893 1.15432 7.85212 0.611694 0.25
894 3.95223 5.72138 1.42277 0.25
895 3.62535 5.71939 1.0265 0.25
896 1.85929 1.42637 8.23101 0.25
897 8.06662 4.13043 1.68578 0.25
898 0.841904 4.54553 4.01291 0.25
899 0.843536 8.30811 5.85174 0.25
900 5.14449 6.26365 5.59536 0.25
901 0.885182 1.52484 2.86179 0.25
902 7.34745 3.92625 1.30789 0.25
903 5.85253 3.62145 3.27352 0.25
904 7.00861 4.12098 7.8396 0.25
905 5.347 0.933512 5.73589 0.25