ITEM: TIMESTEP
940000
ITEM: NUMBER OF ATOMS
1000
ITEM: BOX BOUNDS xy xz yz pp pp pp
0.0000000000000000e+00 8.3788359999999997e+00 0.0000000000000000e+00
0.0000000000000000e+00 8.3788359999999997e+00 0.0000000000000000e+00
0.0000000000000000e+00 8.3788359999999997e+00 0.0000000000000000e+00
ITEM: ATOMS id x y z radius
1 2.57099 6.89713 5.02948 0.25
2 4.87662 5.21284 5.02459 0.25
3 6.99117 4.63373 3.20995 0.25
4 7.3048 1.03362 5.81367 0.5
5 1.15514 5.65162 6.34542 0.25
6 8.24565 1.74789 3.42494 0.25
7 4.28144 3.32125 6.46018 0.25
8 4.78912 7.7608 3.02559 0.25
9 0.799843 6.08316 3.74529 0.25
10 4.08689 1.48158 3.37064 0.25
11 5.2759 0.0773162 7.85623 0.25
12 5.05231 3.50237 1.43318 0.25
13 0.553805 2.49894 7.4781 0.25
14 3.93926 2.80178 7.0233 0.25
15 0.12909 3.23489 6.19121 0.25
16 7.43283 0.933967 6.67522 0.25
17 0.97876 5.35337 8.24935 0.25
18 6.05071 7.52999 8.15041 0.25
19 4.56967 1.83159 7.5379 0.25
20 7.59918 1.51238 0.624336 0.25
21 4.80354 4.22481 1.78696 0.25
22 4.23473 3.18608 1.1718 0.25
23 2.22189 3.4375 2.0808 0.25
24 2.93489 1.96276 4.59337 0.25
25 2.75011 4.47736 2.99703 0.25
26 0.338521 0.126066 5.81252 0.25
27 3.91507 0.449801 5.9846 0.25
28 4.25188 2.31145 8.22199 0.25
29 5.00846 6.84349 2.88828 0.25
30 7.38392 7.45116 2.39378 0.25
31 2.66829 0.285252 7.915 0.25
32 1.04147 2.71281 7.33067 0.25
33 7.68359 0.160547 5.23459 0.25
34 1.99649 5.67154 1.65833 0.25
35 8.05532 0.173102 4.47553 0.25
36 6.85029 1.9524 5.83278 0.5
37 4.13245 1.44204 2.15594 0.25
38 2.11437 3.33621 4.32108 0.25
39 6.13009 2.63099 4.7924 0.25
40 5.25629 7.5606 3.18789 0.25
41 6.56 2.27345 2.95824 0.25
42 5.69616 6.16168 5.61807 0.25
43 3.37405 7.93307 4.6342 0.25
44 4.12233 7.95986 5.19171 0.25
45 5.56276 3.97975 4.02461 0.25
46 3.10089 6.1075 1.36891 0.5
47 4.66248 0.707207 4.98581 0.25
48 8.19141 6.23703 6.87466 0.25
49 7.38154 6.72274 4.70873 0.25
50 7.70833 1.42793 1.10998 0.25
51 2.60461 3.33667 4.40337 0.25
52 0.675659 1.51368 2.37333 0.25
53 6.53561 5.09633 7.03617 0.25
54 5.82659 3.23855 4.07399 0.25
55 1.63148 1.08873 6.03851 0.25
56 1.31635 7.43985 0.556838 0.25
57 4.78506 0.857169 1.94666 0.25
58 2.3246 2.09908 3.99451 0.25
59 4.95067 1.049 5.91687 0.25
60 7.79345 5.48053 5.18949 0.25
61 4.92804 8.10804 7.85855 0.25
62 5.31415 1.90433 8.31328 0.5
63 7.53897 6.6295 1.12652 0.25
64 0.978033 6.20844 0.856286 0.25
65 4.35054 0.129565 1.80012 0.25
66 2.26276 4.65575 7.10359 0.25
67 8.25917 4.8726 7.5184 0.25
68 7.11604 0.627419 6.4084 0.25
69 0.421915 5.49343 7.63688 0.25
70 1.67015 4.90416 1.07679 0.25
71 8.01743 1.42072 0.333211 0.25
72 6.36595 6.24558 3.49511 0.25
73 0.550687 7.67696 6.89871 0.25
74 7.49607 5.53059 6.84258 0.25
75 7.15819 0.0970609 3.39328 0.25
76 7.75563 6.62811 4.36618 0.25
77 5.61008 2.66859 5.36923 0.25
78 5.3254 3.87871 1.1482 0.25
79 7.73721 5.2236 4.36848 0.25
80 5.71219 3.17048 5.43706 0.25
81 7.23617 1.63278 1.02348 0.25
82 8.13332 2.92804 6.4333 0.25
83 4.5122 5.79057 5.65624 0.25
84 1.13481 1.20391 5.99875 0.25
85 1.37425 1.1358 5.21114 0.25
86 4.56953 8.20971 5.29402 0.25
87 2.03923 2.24852 0.661816 0.25
88 3.17936 6.86362 1.67313 0.25
89 6.80875 7.34094 0.759489 0.25
90 5.47516 6.57931 5.51755 0.25
91 4.22002 4.19643 6.16109 0.25
92 6.28685 4.63262 7.55019 0.25
93 4.91743 6.61592 5.49094 0.25
94 6.91699 0.0306062 4.13218 0.25
95 0.467704 4.4983 7.804 0.5
96 5.34657 3.10276 3.41732 0.5
97 4.335 5.10455 8.13483 0.25
98 8.35935 2.18903 3.41829 0.25
99 1.56875 6.33037 5.97718 0.25
100 6.89378 6.85666 1.00126 0.25
101 0.728477 7.89671 8.29932 0.25
102 7.77366 4.82936 3.46334 0.25
103 6.75616 1.21467 1.45059 0.25
104 1.12319 4.73917 7.54565 0.25
105 5.06644 5.94055 5.12506 0.5
106 5.38988 0.36533 4.48122 0.25
107 4.26806 3.17067 6.99757 0.25
108 4.6753 1.39414 8.20594 0.25
109 0.744158 0.881508 5.88537 0.25
110 2.30337 7.89947 8.2584 0.25
111 3.27378 3.71105 6.98619 0.25
112 4.67826 2.16066 7.97018 0.25
113 1.60808 1.9755 1.80865 0.5
114 1.89003 3.64026 7.24934 0.25
115 4.81233 6.18009 6.34121 0.25
116 2.45683 7.0949 7.02119 0.25
117 4.10074 2.20106 3.54931 0.5
118 6.71331 7.26401 1.253 0.25
119 1.20337 6.42304 3.69533 0.25
120 0.0434535 2.93751 3.03984 0.25
121 3.15135 4.14269 3.57815 0.25
122 6.69194 0.772655 6.32872 0.25
123 5.01809 0.504877 5.2131 0.25
124 8.02418 8.10451 2.41326 0.25
125 3.42176 1.99432 3.83342 0.25
126 3.78665 1.24778 5.878 0.25
127 5.17398 3.924 1.63584 0.25
128 6.76945 5.42611 7.32367 0.25
129 0.923408 6.4262 4.16883 0.25
130 5.57904 6.31069 0.119743 0.25
131 7.08616 1.57602 6.31406 0.25
132 6.03267 4.20769 7.6258 0.25
133 3.10222 1.74542 3.56475 0.25
134 4.60168 2.64981 8.18155 0.25
135 5.40608 3.79854 3.5434 0.25
136 2.94885 2.50751 3.69789 0.5
137 2.93374 4.01543 3.18032 0.25
138 7.35839 7.99816 2.85812 0.5
139 2.63908 7.44493 5.15032 0.25
140 5.15293 7.62794 7.9137 0.25
141 7.69927 5.91468 4.91268 0.25
142 1.14103 5.0397 3.20597 0.25
143 2.30323 2.04699 8.36289 0.25
144 5.16421 1.25207 2.52424 0.5
145 7.63799 1.92767 4.00907 0.25
146 6.00347 7.40332 0.254395 0.25
147 6.42321 5.65693 4.45635 0.25
148 2.31469 2.94573 4.55913 0.25
149 4.70482 8.32154 2.48759 0.5
150 5.089 2.77421 4.06339 0.25
151 3.54833 5.80107 7.09834 0.25
152 3.81384 4.78308 5.63725 0.25
153 6.68543 6.0627 2.25673 0.5
154 7.35269 2.45366 4.53124 0.5
155 2.89254 7.17317 7.70617 0.25
156 7.45147 3.5641 1.51474 0.25
157 7.65719 5.95901 1.62711 0.25
158 2.64144 3.78071 0.848127 0.25
159 7.03552 7.9761 4.40327 0.25
160 6.44815 1.84926 3.19721 0.25
161 0.988895 5.28665 2.77368 0.25
162 6.0212 4.43064 7.20006 0.25
163 3.27813 3.74171 4.32531 0.5
164 2.65142 3.92633 2.49853 0.5
165 5.35836 8.01731 7.70063 0.25
166 0.22852 3.80969 8.00903 0.25
167 6.60738 3.95486 8.24844 0.25
168 4.88024 5.99705 5.92667 0.25
169 4.20037 4.39347 5.68361 0.25
170 0.0917601 2.7523 6.09309 0.25
171 7.83735 5.85228 1.15089 0.25
172 1.18551 2.98236 6.88321 0.25
173 4.41991 6.17448 5.99266 0.25
174 2.35846 2.20486 1.03534 0.25
175 7.70057 2.44659 5.92803 0.5
176 2.37688 5.81358 6.21079 0.25
177 5.37622 3.49892 3.97667 0.25
178 2.97819 6.5711 1.98337 0.25
179 3.44411 1.98805 3.30825 0.25
180 5.96718 6.56066 5.69958 0.25
181 6.75145 4.20022 6.90508 0.25
182 3.11997 5.32995 3.47735 0.25
183 7.96247 7.55601 1.75871 0.25
184 3.9131 5.37412 8.26032 0.25
185 5.91895 6.83647 6.14943 0.25
186 7.55828 5.73456 4.43972 0.25
187 2.92226 5.23085 4.27588 0.25
188 0.723888 5.82833 3.3421 0.25
189 4.04662 6.5243 3.44778 0.25
190 3.9427 3.60138 1.30898 0.25
191 6.8907 1.59037 0.302401 0.5
192 1.1052 5.04324 7.93352 0.25
193 3.81493 5.41007 1.15652 0.25
194 2.57621 6.25767 1.82026 0.25
195 6.1319 5.71037 2.6979 0.25
196 2.17028 8.04033 2.7137 0.25
197 1.29349 0.0458419 2.40144 0.25
198 7.77856 4.8272 7.42161 0.25
199 1.20372 1.39162 3.15822 0.25
200 4.44162 5.29484 1.5513 0.5
201 6.75248 1.42889 3.10656 0.25
202 8.32592 3.85994 5.40054 0.25
203 3.59889 1.61058 3.5534 0.25
204 5.50256 8.02635 0.108546 0.5
205 2.38124 7.3815 4.47419 0.5
206 0.401674 4.45264 5.12235 0.25
207 5.63081 2.76688 3.99076 0.25
208 6.75418 5.31567 4.33824 0.25
209 5.42706 7.04053 8.30717 0.5
210 1.8101 8.0783 3.045 0.25
211 0.681952 3.71591 5.0274 0.25
212 1.5214 7.81306 8.31901 0.5
213 0.0824176 4.04451 2.81031 0.25
214 1.70479 8.12632 2.46761 0.25
215 2.81971 4.21566 3.95154 0.25
216 6.27444 1.9574 2.69252 0.25
217 4.77201 3.71137 1.84635 0.25
218 2.32164 3.32713 4.83704 0.25
219 4.51023 0.983232 2.75584 0.25
220 3.54307 3.53764 0.951443 0.25
221 4.28613 8.11413 5.66836 0.25
222 7.27906 0.406004 5.41024 0.25
223 8.13889 2.7307 2.70415 0.25
224 7.28649 5.48877 7.30445 0.25
225 7.31303 2.20553 5.29066 0.25
226 5.02152 2.08092 7.63242 0.25
227 6.49308 3.77167 7.03695 0.25
228 5.38462 3.04911 4.22951 0.25
229 5.63266 5.02424 1.83809 0.25
230 0.429535 8.26946 6.54348 0.5
231 5.22041 4.6116 1.34813 0.5
232 2.00944 2.86329 4.21485 0.25
233 3.9079 5.20673 4.35521 0.25
234 6.62349 1.57304 6.47764 0.25
235 3.25312 7.45871 4.56127 0.25
236 0.962917 2.42059 8.22865 0.25
237 0.128369 2.81371 7.39371 0.25
238 3.21564 0.849693 1.83245 0.25
239 0.319528 2.27961 3.73171 0.25
240 6.69914 6.25806 1.47935 0.25
241 3.27124 7.05002 7.98633 0.25
242 1.72042 7.39779 2.74086 0.5
243 2.89104 4.87133 3.37989 0.25
244 7.00493 3.57931 1.24211 0.25
245 2.17167 1.18233 5.89395 0.25
246 7.54365 8.23632 3.61322 0.25
247 3.5505 2.53304 3.2778 0.25
248 3.70587 3.16204 1.18174 0.25
249 0.27855 5.08414 7.36557 0.25
250 1.43875 3.72776 5.32552 0.25
251 5.38663 2.48227 4.66882 0.5
252 3.2308 2.18247 4.30914 0.25
253 8.09557 5.59941 7.33518 0.5
254 7.4349 5.92292 7.13405 0.25
255 4.6851 0.388572 5.82251 0.5
256 5.23967 6.53288 0.459565 0.25
257 1.14939 0.147189 2.89373 0.25
258 1.60985 1.811 2.58553 0.25
259 4.38456 3.42391 1.57352 0.25
260 7.90028 6.27988 1.34062 0.25
261 4.04323 8.26769 1.48767 0.25
262 3.53316 2.50126 4.0912 0.25
263 2.36547 0.217528 0.191932 0.5
264 2.78175 4.36814 3.47979 0.25
265 1.23332 3.97202 7.41919 0.5
266 0.8853 7.86155 7.51136 0.5
267 5.25993 2.5161 7.68826 0.25
268 6.24064 7.79625 0.133208 0.25
269 1.3823 5.29684 1.01403 0.25
270 4.00742 3.44696 0.82205 0.25
271 7.42163 7.94973 4.65506 0.25
272 1.7515 1.12112 2.61178 0.25
273 1.50391 3.34132 7.08308 0.25
274 0.93029 5.48609 7.75013 0.25
275 4.47501 4.56901 1.56928 0.25
276 2.68274 3.29524 1.12227 0.25
277 6.57143 1.08514 6.71686 0.25
278 3.78797 6.21087 1.1595 0.25
279 3.95894 0.32414 5.23691 0.5
280 7.82399 8.22468 4.84522 0.25
281 0.856133 6.59003 0.58448 0.25
282 6.30295 7.10769 6.30373 0.25
283 1.05866 0.212779 6.34283 0.25
284 7.28905 4.45349 0.970962 0.25
285 1.66629 6.03184 1.09011 0.5
286 5.41863 6.6315 3.09562 0.25
287 1.36933 7.80049 3.55319 0.5
288 2.96144 7.19051 4.92896 0.25
289 2.16267 7.16532 5.11877 0.25
290 2.07616 3.92386 2.01879 0.25
291 8.22448 7.53409 7.22244 0.25
292 7.7458 2.49482 3.39538 0.25
293 7.41312 4.46264 3.37029 0.25
294 5.34951 3.79776 3.03762 0.25
295 8.04438 4.19649 1.144 0.25
296 0.568433 4.12215 4.50163 0.5
297 3.83162 3.15791 6.7314 0.25
298 6.4346 5.06713 7.58971 0.25
299 5.81497 4.70331 7.64539 0.25
300 6.31137 3.44904 0.529307 0.25
301 0.872587 7.47086 8.16422 0.25
302 0.0404508 4.28528 1.51181 0.25
303 3.84029 0.694787 1.10126 0.25
304 2.08999 2.54264 4.64319 0.25
305 0.798264 4.89581 8.35422 0.25
306 2.44025 2.12966 4.54693 0.25
307 1.81032 4.74461 7.70064 0.5
308 3.33237 4.99699 3.21692 0.25
309 4.44666 0.86609 5.37038 0.25
310 1.07526 4.56368 4.08897 0.25
311 7.28002 0.165208 3.87166 0.25
312 1.00985 0.835894 2.53372 0.5
313 0.941273 3.8016 5.39857 0.25
314 5.0938 3.48208 2.71054 0.25
315 1.18804 4.56465 8.04681 0.25
316 2.01386 4.15466 7.09826 0.25
317 7.61617 2.45282 3.88633 0.25
318 2.3889 2.49967 4.23952 0.25
319 4.75604 7.25634 8.00593 0.25
320 2.01416 6.11733 6.0585 0.25
321 4.36272 0.768912 1.13655 0.25
322 7.36245 6.29972 5.01083 0.25
323 0.751675 5.96372 4.24981 0.25
324 4.00946 7.22582 7.85477 0.5
325 0.505571 2.29005 0.499318 0.25
326 4.18678 4.84852 5.03005 0.5
327 7.36698 7.3794 3.29418 0.25
328 2.23149 7.88567 1.90297 0.25
329 1.19212 5.96139 3.52533 0.25
330 8.33918 7.00831 7.3697 0.25
331 0.981708 5.33103 3.88246 0.5
332 7.31961 6.60756 2.17413 0.25
333 1.04926 1.38386 2.02615 0.25
334 6.81109 1.90375 1.01065 0.25
335 3.20315 3.15211 0.98557 0.25
336 2.96454 6.9734 6.77848 0.25
337 4.27165 7.13655 2.9983 0.5
338 6.43872 7.35367 0.0712955 0.25
339 1.90962 7.84514 4.04746 0.25
340 4.96955 0.470935 4.6776 0.25
341 6.70303 8.36764 3.15275 0.25
342 1.29429 5.19456 7.52198 0.25
343 2.96713 1.31237 0.266237 0.25
344 1.26829 5.73429 2.64036 0.25
345 0.446161 1.3534 2.76906 0.25
346 0.552779 2.34814 7.98339 0.25
347 3.40704 5.79514 7.55615 0.25
348 7.23277 7.84405 2.10453 0.25
349 0.734954 2.07066 0.101984 0.25
350 6.70736 1.7827 2.76195 0.25
351 1.28328 6.90622 0.628917 0.25
352 6.43094 3.5262 7.72167 0.5
353 2.40379 8.3625 7.52034 0.25
354 1.99541 0.708273 5.87906 0.25
355 0.651609 0.439275 6.10688 0.25
356 1.85527 1.90713 6.08742 0.25
357 2.9928 4.08391 6.79911 0.25
358 6.13274 3.3714 5.23861 0.25
359 4.53449 1.01702 6.20184 0.25
360 1.90907 2.11039 1.12266 0.25
361 0.933658 7.67143 0.340238 0.25
362 6.28471 4.20092 6.80798 0.25
363 7.83766 4.04345 2.15517 0.25
364 6.02203 3.91715 7.17068 0.25
365 5.50253 6.11538 0.626379 0.25
366 5.85218 6.2702 0.943254 0.25
367 3.21409 4.09519 7.27577 0.25
368 7.01829 3.69304 8.24698 0.25
369 1.05035 7.21774 0.212318 0.25
370 5.43627 0.357833 8.20854 0.25
371 2.64146 7.94775 4.93678 0.25
372 2.0808 4.86689 0.813678 0.25
373 7.05352 2.83106 5.11466 0.25
374 3.66109 4.4583 4.51882 0.25
375 5.32937 0.859158 8.04489 0.25
376 2.36551 6.0366 1.01867 0.25
377 6.45544 1.62344 2.04639 0.5
378 0.503757 3.71901 7.57483 0.25
379 5.134 1.2779 7.96482 0.25
380 2.0693 6.81071 4.79605 0.25
381 4.17657 5.37168 5.58851 0.25
382 1.745 7.16049 4.8591 0.25
383 6.14505 5.24354 3.89713 0.5
384 2.15768 1.77651 1.34437 0.25
385 7.14196 1.48596 7.08611 0.5
386 1.40023 1.33564 5.63821 0.25
387 7.76851 1.01614 0.8501 0.25
388 0.79674 5.71617 2.84003 0.25
389 4.49011 2.61546 7.47812 0.5
390 4.17292 0.711788 6.28812 0.25
391 5.33363 4.77155 2.09528 0.25
392 8.18803 2.52148 3.12367 0.25
393 2.67811 6.7116 1.61117 0.25
394 0.975509 8.33169 8.17506 0.25
395 2.58837 1.94498 1.32918 0.25
396 4.653 7.69961 7.94382 0.25
397 5.03199 0.590313 8.35177 0.25
398 7.407 1.42348 8.08719 0.25
399 3.21494 4.46858 3.24548 0.25
400 4.82566 4.55818 0.748422 0.25
401 2.20236 7.02782 3.78506 0.25
402 8.12756 7.98804 6.87402 0.25
403 7.80272 6.28525 0.886346 0.25
404 8.0559 6.71505 7.022 0.25
405 0.5356 7.90335 0.354653 0.25
406 5.77859 8.36417 4.39169 0.25
407 2.51925 1.01473 8.08152 0.5
408 5.43748 3.36164 2.26835 0.25
409 2.15359 5.05864 1.25562 0.25
410 7.52482 0.882943 0.122922 0.5
411 4.47135 5.53084 5.1961 0.25
412 8.31911 7.12797 6.89043 0.25
413 0.957368 2.46401 0.342323 0.25
414 0.647523 3.08273 7.86813 0.5
415 6.5237 4.64811 2.99666 0.25
416 3.03951 3.20806 6.34592 0.25
417 3.3514 4.74585 3.97164 0.5
418 7.23154 6.5698 4.27498 0.25
419 4.11275 3.87498 5.8346 0.25
420 0.884118 3.03201 4.89673 0.25
421 4.31833 4.88946 5.77877 0.25
422 2.15701 5.56718 1.17517 0.25
423 0.263371 0.623807 5.82878 0.25
424 0.490547 3.38361 4.74904 0.25
425 1.94364 2.85283 1.23056 0.5
426 6.99538 5.70137 4.97402 0.5
427 2.74136 2.14457 4.20333 0.25
428 4.02617 5.11199 3.90818 0.25
429 4.64594 4.55377 5.59142 0.25
430 1.84124 7.19278 3.45643 0.25
431 1.02603 3.47967 6.90429 0.25
432 1.54088 6.79497 4.17558 0.5
433 2.28176 1.56551 7.73162 0.25
434 0.663734 6.58784 1.04284 0.25
435 5.55931 3.46403 2.79728 0.25
436 1.10353 6.02526 3.03949 0.25
437 0.0903346 1.45161 0.44462 0.25
438 1.05004 3.41151 5.121 0.25
439 3.73542 2.64047 6.56009 0.25
440 5.10634 1.6142 7.56787 0.25
441 7.97327 4.19082 5.21801 0.25
442 2.40501 5.91629 1.50363 0.25
443 0.484685 2.90639 6.80175 0.5
444 2.04411 3.60415 1.63129 0.25
445 5.38868 6.99212 0.669679 0.25
446 4.18467 5.79146 3.5067 0.5
447 1.46278 1.5857 6.08143 0.25
448 5.89202 7.31117 6.07732 0.25
449 0.951983 5.52629 5.87666 0.25
450 3.05165 3.60622 1.00972 0.25
451 2.57298 7.06458 5.4795 0.25
452 2.66587 0.931363 0.395202 0.25
453 4.56985 4.70875 1.12689 0.25
454 0.155242 3.38002 7.33985 0.25
455 7.95822 5.07056 7.86628 0.25
456 3.04058 1.77632 4.10787 0.25
457 2.62961 3.63043 7.29389 0.5
458 0.0835394 7.60654 6.75747 0.25
459 4.92935 7.5987 8.3629 0.25
460 5.71305 0.190573 4.7985 0.25
461 2.67759 3.73079 1.34766 0.25
462 6.21127 4.99802 3.1968 0.25
463 4.9588 7.28396 2.9329 0.25
464 7.60113 6.77002 6.93907 0.25
465 7.07804 2.59058 5.53664 0.25
466 4.07176 1.22591 2.9336 0.25
467 3.78206 6.23284 1.63442 0.25
468 6.80835 5.37628 3.06245 0.5
469 7.53243 7.2631 6.80037 0.25
470 0.47127 1.77821 0.496783 0.25
471 1.95694 1.00985 6.34205 0.25
472 1.91917 7.49306 1.95519 0.25
473 7.43128 5.13181 5.16153 0.25
474 5.32992 5.84235 5.84884 0.25
475 1.4033 1.42711 2.75559 0.25
476 7.04644 0.817183 7.3689 0.25
477 3.20011 5.41893 3.94267 0.25
478 6.16483 3.42553 7.06967 0.25
479 3.34997 7.18206 7.47461 0.25
480 4.88126 0.196752 1.8198 0.25
481 7.98041 2.236 4.15003 0.25
482 6.92719 5.00737 4.67178 0.25
483 7.96772 5.56215 4.70803 0.25
484 3.04811 0.407978 8.15951 0.25
485 7.97097 7.49442 6.79434 0.25
486 2.48058 6.15161 5.86063 0.25
487 8.13307 7.68336 4.34215 0.25
488 4.5647 4.08548 5.83515 0.25
489 0.934638 8.17204 0.276305 0.25
490 8.03386 8.01407 1.95632 0.25
491 4.41776 2.95792 1.60026 0.25
492 2.54512 1.73404 4.2793 0.25
493 6.4454 4.60708 7.00135 0.25
494 4.69353 7.5711 2.60958 0.25
495 1.21732 5.92475 5.91383 0.25
496 3.06049 7.70171 5.00288 0.25
497 6.50915 4.26908 7.84043 0.25
498 3.38504 2.97911 4.1166 0.25
499 0.767339 5.10305 7.52583 0.25
500 3.91715 2.98351 6.25471 0.25
501 5.78969 3.65188 3.73762 0.25
502 1.6539 7.98988 7.62125 0.25
503 5.91795 4.97522 2.56027 0.5
504 7.68673 7.76908 2.17032 0.25
505 5.8608 1.59034 2.57047 0.25
506 7.02059 6.33311 4.62922 0.25
507 1.3736 0.558105 3.1768 0.25
508 0.695778 0.0592066 5.42748 0.25
509 8.1602 4.87274 4.94222 0.5
510 5.24482 1.28063 5.56476 0.25
511 0.579921 0.43967 5.64201 0.25
512 1.061 0.906729 3.30179 0.25
513 3.99875 1.01106 5.43266 0.25
514 1.96403 5.62604 6.09473 0.25
515 8.30299 8.37676 7.10693 0.25
516 7.54048 1.72213 6.07875 0.25
517 7.2599 5.34945 4.40841 0.25
518 0.972849 3.46486 4.63154 0.25
519 6.59926 2.03726 1.45527 0.25
520 7.1167 2.4224 6.39731 0.25
521 7.64878 1.65547 0.127822 0.25
522 6.77943 1.08089 7.65521 0.25
523 5.16171 6.8235 5.84407 0.25
524 2.58272 0.492518 7.50812 0.25
525 6.45146 4.18227 7.32766 0.25
526 7.05365 5.2494 6.92758 0.25
527 7.39883 8.17205 4.14547 0.25
528 7.47975 1.42132 6.45578 0.25
529 6.69846 1.24283 2.67041 0.25
530 2.27068 1.80377 6.40787 0.25
531 7.83418 7.95821 3.95813 0.25
532 1.52239 1.01975 3.05832 0.25
533 7.27163 1.14482 7.74755 0.25
534 8.15922 5.97038 1.56026 0.25
535 0.389992 3.21425 5.47456 0.5
536 6.95382 2.66885 5.99988 0.25
537 4.12128 0.871922 5.84302 0.25
538 6.42972 5.18527 4.67696 0.25
539 2.41079 1.33386 6.29137 0.25
540 8.05748 6.4592 2.07054 0.5
541 7.53481 3.98679 1.74951 0.25
542 2.04431 1.92901 7.96781 0.25
543 3.27556 7.28432 7.01101 0.25
544 7.87023 6.48268 6.6617 0.25
545 1.19314 6.06156 4.03332 0.25
546 5.04487 5.71518 6.26423 0.25
547 5.44483 2.67027 8.14625 0.25
548 6.26671 7.161 6.76387 0.25
549 0.200483 7.88764 7.14755 0.25
550 6.11297 7.01346 8.33733 0.25
551 4.3856 1.40733 2.58752 0.25
552 3.68729 5.45706 4.05949 0.25
553 6.9411 7.84534 3.70573 0.5
554 4.22884 6.38855 3.00876 0.25
555 4.75542 6.64161 3.52162 0.5
556 7.38525 0.690943 0.893513 0.25
557 7.16056 4.86483 3.90716 0.5
558 6.34231 0.0147809 3.47552 0.25
559 1.27848 0.542617 5.6394 0.5
560 4.95298 3.43867 2.21206 0.25
561 2.93908 3.14819 4.07587 0.25
562 5.03959 0.0246111 5.30657 0.25
563 2.26577 6.64872 1.76039 0.25
564 6.16946 6.94094 0.775945 0.5
565 6.88633 1.99253 6.54687 0.25
566 1.11347 1.65534 2.41934 0.25
567 4.49977 5.74026 6.16898 0.25
568 5.85729 1.26157 2.95726 0.25
569 2.4908 8.20278 7.93431 0.25
570 1.92299 6.35535 4.6587 0.25
571 3.20447 3.9027 7.72246 0.25
572 8.25822 2.81191 3.81744 0.5
573 3.90255 1.4881 2.6331 0.25
574 1.5853 5.89628 6.29058 0.25
575 2.24089 1.59855 8.26601 0.25
576 4.19904 5.69012 7.59448 0.25
577 5.29051 0.246036 4.96426 0.25
578 1.93653 7.38823 3.89977 0.25
579 7.56079 5.17745 7.62106 0.25
580 7.36345 0.301647 4.63286 0.5
581 4.52955 4.57182 6.07787 0.25
582 5.8673 2.92329 4.43792 0.25
583 5.62667 3.57856 4.72731 0.5
584 4.80892 6.50614 5.943 0.25
585 4.71494 3.18495 1.25147 0.25
586 1.85925 0.359265 2.73937 0.5
587 4.74475 7.02551 2.50288 0.25
588 5.7211 5.1561 3.24023 0.25
589 0.118034 2.43904 7.74647 0.25
590 3.49963 6.55176 1.90559 0.25
591 6.86668 1.39154 1.00822 0.25
592 7.34637 7.18104 1.65198 0.5
593 6.70173 6.78262 1.43912 0.25
594 1.51319 5.00727 0.281759 0.5
595 0.713144 3.80169 8.01146 0.25
596 2.41361 0.772143 0.76508 0.25
597 8.35955 0.347052 5.20471 0.5
598 2.36325 6.37045 1.38089 0.25
599 2.02055 8.207 7.91753 0.25
600 7.70315 0.419689 5.67704 0.25
601 0.542455 0.859595 5.42602 0.25
602 4.08077 0.214412 2.2479 0.25
603 4.25607 5.56414 8.05772 0.25
604 7.5081 5.11757 7.09907 0.25
605 7.93654 2.15071 3.65744 0.25
606 2.1002 8.23648 2.21183 0.25
607 4.51992 5.28778 7.7134 0.25
608 3.48094 7.61341 7.36859 0.25
609 6.58732 4.85258 4.33311 0.25
610 1.81223 1.46432 5.77655 0.25
611 2.98698 0.612406 7.7269 0.25
612 0.579363 7.44179 0.161939 0.25
613 6.93792 1.18449 8.09984 0.25
614 4.23267 1.02455 4.99116 0.25
615 4.76438 2.6458 3.69452 0.25
616 1.14592 5.60172 3.15361 0.25
617 1.63556 0.0451579 2.05586 0.25
618 7.51851 7.32171 4.15459 0.5
619 7.82281 8.04683 4.40505 0.25
620 8.17184 7.38669 2.4378 0.5
621 4.13742 6.42251 3.95292 0.25
622 6.32147 6.57108 6.10623 0.25
623 5.97736 6.17239 0.461333 0.25
624 1.19239 3.37731 5.56514 0.25
625 1.42194 5.39777 7.96777 0.25
626 3.39511 0.365129 1.77005 0.25
627 4.8369 4.66842 1.94471 0.25
628 8.19151 3.43779 2.461 0.5
629 7.09899 3.41122 0.274528 0.25
630 1.44599 0.0620577 3.26897 0.25
631 1.83489 1.47982 8.04774 0.25
632 7.61166 7.91951 1.73543 0.25
633 6.04235 7.71813 0.625823 0.25
634 2.74533 7.91415 4.06559 0.25
635 0.734389 7.34131 0.918977 0.5
636 1.71011 1.58335 1.1485 0.25
637 5.40774 0.345239 5.44903 0.25
638 4.72992 1.21801 4.99486 0.25
639 4.4719 1.82738 8.25063 0.25
640 5.14701 7.45567 0.466989 0.25
641 1.28514 6.50884 5.21315 0.25
642 3.64909 0.805784 5.68333 0.25
643 6.1899 6.97036 5.8169 0.25
644 5.81122 0.855463 2.63926 0.25
645 2.22054 2.22172 1.46424 0.25
646 8.31795 6.6796 6.57813 0.25
647 2.4712 2.96366 4.08277 0.25
648 5.07833 1.132 0.0350779 0.25
649 0.319583 4.21186 1.99833 0.25
650 8.23017 3.79935 1.41882 0.25
651 3.2625 3.2227 3.67563 0.25
652 6.63708 0.877014 7.17714 0.25
653 1.15627 6.62587 1.00295 0.25
654 0.528291 2.55875 0.079072 0.25
655 3.62155 3.72242 6.34309 0.5
656 0.649423 3.46724 7.21103 0.25
657 1.46508 5.50354 6.01136 0.25
658 6.80158 0.216711 3.68437 0.25
659 2.56046 1.83782 7.98173 0.25
660 6.94369 5.95243 4.00797 0.5
661 8.30397 1.14778 0.085672 0.25
662 4.04672 4.73216 4.24217 0.25
663 2.50791 3.713 1.82253 0.25
664 6.66111 2.7058 4.78616 0.25
665 7.73831 3.85905 1.32769 0.25
666 6.15117 6.69803 6.58866 0.25
667 6.63193 3.47004 0.0926953 0.25
668 7.03489 6.52495 1.7472 0.25
669 6.08381 4.93703 7.23025 0.25
670 5.79256 8.09194 4.82452 0.25
671 3.55588 4.93856 4.62308 0.25
672 2.63701 3.258 2.07197 0.25
673 0.709453 1.13893 3.15225 0.25
674 4.85312 7.39789 3.36016 0.25
675 5.3207 3.51275 5.39921 0.25
676 7.58795 8.2556 2.12554 0.25
677 6.50795 1.60632 1.23104 0.25
678 7.47508 6.21348 4.54136 0.25
679 0.958157 6.29439 1.35697 0.25
680 3.5756 6.62392 8.06235 0.25
681 7.79392 0.0717527 4.04647 0.25
682 2.06719 6.16502 1.7691 0.25
683 1.68073 7.76999 7.15934 0.25
684 0.348513 3.86479 1.60317 0.25
685 2.91904 3.61142 6.61428 0.25
686 4.22216 2.83644 6.66094 0.25
687 1.70786 4.52223 0.767801 0.25
688 3.70885 0.844878 6.19714 0.25
689 6.11122 3.99005 8.0919 0.25
690 6.17938 1.153 2.54 0.25
691 6.93629 1.69153 1.43937 0.25
692 5.12541 5.15182 1.83919 0.25
693 7.35129 1.96353 6.44946 0.25
694 7.42396 4.97013 4.68481 0.25
695 8.12578 3.06041 5.90626 0.25
696 5.62652 5.92435 3.27691 0.5
697 4.40911 3.74119 6.19672 0.25
698 1.82493 1.05027 5.55797 0.25
699 1.59405 6.65861 4.84581 0.25
700 4.08793 5.7922 1.02858 0.25
701 4.80351 1.70787 7.90209 0.25
702 2.38933 4.26674 7.37464 0.25
703 3.293 6.54013 7.35919 0.5
704 4.75891 5.42872 8.1775 0.25
705 4.7912 3.2756 1.72581 0.25
706 4.95648 0.133178 8.23188 0.25
707 4.54202 3.94549 1.13999 0.5
708 5.63873 7.66793 7.83734 0.25
709 2.61721 7.29445 2.05608 0.5
710 2.49823 4.27068 6.87734 0.25
711 5.0485 6.30995 2.94986 0.25
712 0.600997 5.19915 7.98877 0.25
713 2.75355 4.12971 1.68074 0.25
714 5.13245 4.14476 0.73949 0.25
715 4.65092 6.54563 2.73511 0.25
716 6.59799 0.622664 7.62626 0.25
717 7.66393 7.76406 3.50898 0.25
718 6.13699 3.72886 6.70902 0.25
719 6.10289 4.49729 8.02027 0.25
720 1.62053 7.49271 4.23582 0.25
721 6.66843 2.24913 2.49873 0.25
722 2.37268 7.77591 3.4143 0.5
723 2.47991 7.62286 2.67871 0.25
724 7.09806 6.5081 1.28581 0.25
725 7.7998 6.30043 7.1422 0.25
726 0.918297 1.1714 5.52378 0.25
727 4.21086 0.318683 1.32577 0.25
728 3.56857 6.14135 7.91594 0.25
729 4.90325 5.97569 3.28773 0.25
730 2.89066 7.09467 7.2334 0.25
731 5.35873 3.02756 2.61298 0.25
732 4.10709 3.62287 6.83288 0.25
733 3.78151 5.5191 7.36669 0.25
734 4.09058 1.07595 2.46018 0.25
735 3.44415 2.97267 6.43028 0.25
736 7.91537 1.3658 8.23829 0.25
737 3.37891 0.632311 1.36898 0.25
738 0.509721 8.31485 0.546256 0.25
739 4.59008 6.10658 2.93383 0.25
740 5.23542 7.08014 3.29455 0.25
741 0.316645 7.9607 0.781191 0.25
742 4.07067 4.6471 6.09093 0.25
743 7.02791 0.884566 1.16232 0.25
744 4.47282 1.04803 2.23266 0.25
745 3.79523 4.30419 5.90384 0.25
746 1.30835 5.91409 4.75585 0.5
747 4.54704 0.476478 2.09223 0.25
748 2.60281 6.6577 7.03274 0.25
749 1.51476 1.39898 2.26242 0.25
750 8.37255 3.48594 1.74904 0.25
751 0.923396 0.917651 5.11514 0.25
752 6.54228 4.75804 8.02998 0.25
753 3.95858 0.827843 1.79587 0.5
754 4.25462 6.08937 1.43535 0.25
755 2.82071 2.67141 1.50208 0.5
756 7.84168 6.73309 7.41312 0.25
757 5.65275 6.9525 5.80054 0.25
758 6.90781 3.95422 7.31821 0.25
759 4.35995 8.19389 4.84113 0.25
760 0.29463 2.46384 3.20095 0.25
761 3.73179 7.21927 7.16938 0.25
762 0.650228 1.7884 3.43817 0.5
763 4.14558 8.15384 2.00598 0.25
764 1.30243 6.41312 0.583645 0.25
765 7.39023 4.87893 3.1121 0.25
766 0.683405 4.50465 2.2603 0.25
767 2.56344 6.8249 7.49269 0.25
768 2.26356 2.8814 5.04303 0.25
769 7.88469 3.67592 1.76931 0.25
770 4.80235 0.928698 8.05802 0.25
771 6.66744 1.23481 6.14071 0.25
772 5.02386 2.45336 8.02704 0.25
773 5.49039 0.960712 4.93185 0.5
774 3.46338 8.09424 5.09764 0.25
775 7.89268 4.47341 2.76193 0.5
776 6.856 3.9937 0.597986 0.5
777 5.97578 6.58412 0.13542 0.25
778 4.77445 8.04903 8.35273 0.25
779 8.21273 8.20662 4.18834 0.25
780 2.25647 1.68866 5.93075 0.25
781 2.71095 1.68008 0.0459575 0.25
782 1.27509 7.93385 0.654763 0.25
783 6.70518 3.22379 0.510585 0.25
784 2.13961 7.77435 2.36459 0.25
785 2.69165 1.7136 6.1163 0.25
786 2.53799 7.99657 2.3385 0.25
787 7.89576 6.99924 6.63924 0.25
788 8.33927 4.1044 2.29396 0.25
789 3.43585 0.0674216 4.72417 0.25
790 6.96905 0.807869 6.82126 0.25
791 0.635105 4.59372 3.02368 0.5
792 2.19465 0.286397 7.86107 0.25
793 8.12259 7.11996 1.73207 0.25
794 5.52547 6.34776 6.31474 0.5
795 2.44384 4.14294 3.25325 0.25
796 2.18871 5.79429 5.70926 0.25
797 6.60043 6.43659 1.03063 0.25
798 7.61205 4.36951 1.33441 0.25
799 4.14463 3.34497 5.97892 0.25
800 7.94626 2.06557 3.17215 0.25
801 3.20038 7.72137 6.93175 0.25
802 3.39419 5.33056 4.42326 0.25
803 3.17415 8.26029 7.56516 0.5
804 3.64538 7.0371 1.80437 0.25
805 1.71521 7.9271 2.05384 0.25
806 2.68056 1.80529 3.79368 0.25
807 4.62655 6.26344 5.58386 0.25
808 4.23166 1.98377 7.84567 0.25
809 1.69659 5.87456 5.80868 0.25
810 6.55483 7.55325 6.57235 0.25
811 1.62347 3.17251 4.83317 0.5
812 5.65506 7.39066 0.574216 0.25
813 4.20373 1.74849 2.93568 0.25
814 1.57702 7.51796 7.60394 0.25
815 2.64313 8.17259 4.50645 0.25
816 1.08081 2.93767 5.33335 0.25
817 4.31585 1.52505 7.85348 0.25
818 3.77541 1.6445 3.06333 0.25
819 1.74358 5.32122 1.34376 0.25
820 3.4801 2.87507 6.95186 0.25
821 1.5434 1.97634 0.118751 0.5
822 5.93358 4.36151 3.39748 0.5
823 5.02949 0.523496 7.88638 0.25
824 0.685732 0.475107 5.15334 0.25
825 3.8167 6.03796 7.49074 0.25
826 3.22955 3.52459 1.67649 0.5
827 5.79549 7.04599 6.54842 0.25
828 0.508823 2.05371 7.63666 0.25
829 8.27281 8.13337 4.67216 0.25
830 0.713434 1.87947 2.67492 0.25
831 2.43412 4.23109 7.85917 0.25
832 5.72207 4.54676 1.94147 0.25
833 1.9326 1.47581 6.25032 0.25
834 4.2726 0.592056 2.47424 0.25
835 6.10008 1.92214 1.40409 0.25
836 3.24451 7.51414 7.8121 0.25
837 4.04226 5.23925 7.76482 0.25
838 7.51983 0.920649 1.30051 0.25
839 6.07129 7.50103 6.452 0.25
840 7.02653 4.69153 7.44308 0.5
841 3.28797 6.99544 2.09127 0.25
842 0.00730138 1.98578 2.63652 0.5
843 5.76462 3.65594 5.47921 0.25
844 4.71569 2.23348 0.0593019 0.25
845 7.49412 2.65124 5.23626 0.25
846 3.68599 3.4354 7.40792 0.5
847 1.86206 5.32796 0.888034 0.25
848 1.80494 5.82315 5.29978 0.25
849 5.10996 7.7131 2.71522 0.25
850 6.38955 2.79391 5.53497 0.5
851 5.53375 8.29144 5.21064 0.25
852 6.97981 1.5529 7.8026 0.25
853 3.84472 8.13297 4.76022 0.25
854 4.49193 1.51748 5.63348 0.5
855 0.420088 4.00697 5.30642 0.25
856 0.724888 5.34422 3.16833 0.25
857 3.57994 6.6497 1.37709 0.25
858 2.62653 4.67439 3.78607 0.25
859 6.45887 4.56407 3.9514 0.25
860 7.62044 4.07619 0.873876 0.25
861 5.01599 2.90775 7.99784 0.25
862 6.54982 4.77464 3.48581 0.25
863 5.42574 6.57169 0.894107 0.25
864 7.57731 6.98281 2.35118 0.25
865 3.76404 5.67113 7.88098 0.25
866 5.20071 8.09633 3.03005 0.25
867 2.0322 4.00282 7.603 0.25
868 2.3672 1.58102 0.652878 0.5
869 1.05661 3.21176 7.27397 0.25
870 6.10782 5.49118 3.13372 0.25
871 2.74947 7.47053 6.94354 0.25
872 5.83241 2.94943 5.01114 0.25
873 0.540403 8.3408 0.0459648 0.25
874 4.05813 1.18566 6.29363 0.25
875 2.13698 4.23748 1.29348 0.5
876 1.37576 5.66072 5.55968 0.25
877 0.0630385 5.1874 7.83652 0.25
878 5.83426 1.18914 2.24809 0.25
879 3.0225 8.20895 4.82847 0.25
880 6.33825 6.00668 3.01029 0.25
881 7.2488 1.2954 1.34711 0.25
882 7.87818 7.14736 7.14412 0.25
883 0.436709 4.03823 2.47951 0.25
884 7.05548 3.325 0.788246 0.25
885 0.854799 4.1801 5.15089 0.25
886 7.82685 7.48436 3.08329 0.25
887 0.902936 6.80975 1.47425 0.25
888 1.04414 4.71031 3.59607 0.25
889 1.40116 8.13259 2.82705 0.25
890 0.223665 4.47237 2.4199 0.25
891 0.947947 2.35758 7.68009 0.25
892 7.43903 3.60764 1.01023 0.25
893 0.822716 8.02489 0.727111 0.25
894 3.80158 5.80058 1.40645 0.25
895 3.57502 5.83033 0.974884 0.25
896 1.92845 1.25737 0.122143 0.25
897 7.94825 4.17699 1.64906 0.25
898 0.663844 4.56919 3.86007 0.25
899 0.816176 0.0515772 5.90825 0.25
900 5.1542 6.30199 5.69118 0.25
901 0.919568 1.49521 2.81253 0.25
902 7.26558 4.00686 1.2909 0.25
903 5.78666 3.67918 3.24074 0.25
904 6.92999 4.0311 7.83947 0.25
905 5.27155 0.793814 5.55259 0.25
906 2.19651 0.912652 0.376965 0.25