ITEM: TIMESTEP
330000
ITEM: NUMBER OF ATOMS
1000
ITEM: BOX BOUNDS xy xz yz pp pp pp
0.0000000000000000e+00 8.3788359999999997e+00 0.0000000000000000e+00
0.0000000000000000e+00 8.3788359999999997e+00 0.0000000000000000e+00
0.0000000000000000e+00 8.3788359999999997e+00 0.0000000000000000e+00
ITEM: ATOMS id x y z radius
1 2.92456 6.98308 4.66106 0.25
2 4.71716 5.0653 5.0708 0.25
3 7.22901 4.62038 3.04837 0.25
4 7.21098 0.907978 5.9668 0.5
5 1.09616 5.71425 6.13324 0.25
6 8.3056 1.8482 3.47582 0.25
7 4.06662 3.34578 6.50455 0.25
8 4.87306 7.69715 3.00979 0.25
9 1.08633 6.05877 3.67492 0.25
10 4.24878 1.75084 3.18504 0.25
11 5.57429 0.39717 8.33968 0.25
12 5.3127 3.50552 1.53392 0.25
13 0.583623 2.31171 7.42191 0.25
14 3.45943 2.78757 7.11524 0.25
15 8.26384 2.5796 6.23264 0.25
16 7.13566 0.91257 6.99255 0.25
17 0.879418 5.07658 8.18745 0.25
18 5.90328 7.47562 8.0024 0.25
19 3.98524 2.02944 7.87862 0.25
20 7.66417 1.30092 0.553617 0.25
21 4.95326 4.24383 2.01839 0.25
22 4.13499 3.40143 1.12826 0.25
23 2.1278 3.40239 1.97147 0.25
24 2.81053 1.39468 4.08325 0.25
25 2.66334 4.4128 2.97159 0.25
26 0.410012 8.16813 5.64652 0.25
27 3.74737 0.464336 5.77622 0.25
28 4.27849 2.41978 0.126571 0.25
29 5.05447 6.87815 3.06718 0.25
30 7.48589 7.28584 2.50364 0.25
31 2.71474 0.394274 8.1 0.25
32 0.97453 2.62789 7.35351 0.25
33 7.65095 0.581069 5.41617 0.25
34 2.23764 4.84311 1.42342 0.25
35 8.13895 0.0766069 4.56209 0.25
36 6.84521 1.80633 5.77632 0.5
37 4.59222 1.1919 2.3852 0.25
38 2.30183 3.38639 4.36965 0.25
39 5.89741 2.67417 5.07592 0.25
40 5.2913 7.6567 3.2564 0.25
41 6.84105 2.20485 2.59654 0.25
42 5.59211 6.0372 5.6181 0.25
43 3.39739 7.75563 4.32063 0.25
44 3.78922 8.36108 5.57344 0.25
45 5.60447 4.12745 4.12653 0.25
46 3.2535 6.00331 1.32733 0.5
47 4.93815 0.852791 5.42982 0.25
48 7.97603 6.25026 6.91102 0.25
49 7.49576 6.7315 4.84689 0.25
50 7.79707 0.975982 0.937756 0.25
51 2.78424 3.33905 4.43759 0.25
52 0.732678 1.75073 2.42177 0.25
53 6.4905 5.28461 6.91683 0.25
54 5.79895 3.26276 4.17912 0.25
55 1.55772 1.47807 5.89385 0.25
56 1.02655 7.34375 8.35717 0.25
57 4.92088 0.907962 2.11621 0.25
58 2.34408 2.05735 4.18298 0.25
59 4.91944 1.30218 6.48492 0.25
60 7.83115 5.36711 5.21742 0.25
61 5.227 0.130161 8.11115 0.25
62 5.08745 1.86087 7.98074 0.5
63 7.69206 6.59206 1.26192 0.25
64 1.1719 6.05613 0.68089 0.25
65 4.422 0.121435 1.8184 0.25
66 2.03087 4.77411 7.06654 0.25
67 7.96481 4.92358 7.01699 0.25
68 6.97628 0.60361 6.62526 0.25
69 0.0540462 5.54054 8.00028 0.25
70 1.92855 4.77108 0.618291 0.25
71 7.99997 1.4057 0.210789 0.25
72 6.46798 6.24958 3.49285 0.25
73 0.485625 7.46762 6.67825 0.25
74 7.43462 5.63056 6.85651 0.25
75 7.24071 0.103567 3.53884 0.25
76 7.60629 6.42618 4.46859 0.25
77 5.58419 2.89046 5.46967 0.25
78 5.38103 3.84929 1.18392 0.25
79 7.72162 5.02575 4.43274 0.25
80 5.79264 3.39152 5.54577 0.25
81 7.13028 1.45064 1.35668 0.25
82 8.20498 2.78878 5.75918 0.25
83 4.38467 5.8481 5.50643 0.25
84 1.14312 1.13965 6.0084 0.25
85 1.58664 1.58759 5.4002 0.25
86 4.65691 0.0503334 5.63244 0.25
87 1.62782 1.70479 1.3211 0.25
88 3.26735 6.78564 1.42979 0.25
89 6.72212 6.98649 0.776467 0.25
90 5.50284 6.44579 5.39364 0.25
91 3.90117 4.23079 6.2394 0.25
92 6.10764 4.46668 7.27393 0.25
93 5.00595 6.5545 5.22367 0.25
94 6.98007 8.24123 4.27657 0.25
95 0.492013 4.52447 7.72362 0.5
96 5.43563 3.18682 3.58571 0.5
97 4.4501 4.93906 7.63517 0.25
98 8.24184 2.34903 3.42491 0.25
99 1.52122 6.39909 5.80295 0.25
100 7.0779 6.95731 1.15553 0.25
101 0.442334 8.15467 0.124112 0.25
102 8.02289 4.92404 3.22845 0.25
103 6.63016 1.2787 1.48451 0.25
104 0.699561 5.20407 7.28966 0.25
105 5.06828 5.79573 5.03547 0.5
106 5.07367 0.434599 4.62981 0.25
107 4.14589 3.28496 6.99562 0.25
108 4.75616 1.52953 0.182474 0.25
109 0.607595 0.401104 6.27912 0.25
110 2.18144 7.93625 8.22197 0.25
111 3.07527 4.03896 7.10492 0.25
112 4.35308 2.21456 8.04492 0.25
113 1.8154 1.89265 2.01085 0.5
114 1.69151 4.07302 6.74145 0.25
115 4.59771 6.32254 6.19751 0.25
116 2.50555 7.12596 7.08818 0.25
117 4.24734 2.35616 3.71399 0.5
118 6.57826 7.08424 1.23732 0.25
119 1.1687 6.01793 2.49042 0.25
120 0.0922922 2.80622 2.38164 0.25
121 3.16552 4.00412 3.51843 0.25
122 6.57339 0.734917 6.40031 0.25
123 5.28459 0.45733 5.62202 0.25
124 8.10162 8.03119 2.50568 0.25
125 3.53595 2.08643 3.77101 0.25
126 3.74964 1.24455 6.0579 0.25
127 5.37558 4.01639 1.6935 0.25
128 6.79428 5.46017 7.35724 0.25
129 1.28336 6.37944 3.99823 0.25
130 5.56948 6.25266 0.828631 0.25
131 6.96744 1.47377 6.37449 0.25
132 5.96616 4.0442 7.54464 0.25
133 3.23416 1.92403 3.32156 0.25
134 4.40667 2.71662 8.0921 0.25
135 5.47601 3.8405 3.69784 0.25
136 2.86946 2.44591 3.71905 0.5
137 2.84018 3.93955 3.11296 0.25
138 7.56038 7.92314 3.02347 0.5
139 2.58272 7.85437 4.93522 0.25
140 5.09002 7.99024 8.0315 0.25
141 7.84821 5.84403 5.06007 0.25
142 1.12001 5.00268 3.13119 0.25
143 2.28474 2.11714 0.0956021 0.25
144 5.12913 1.04872 2.89015 0.5
145 7.49343 1.95737 4.01878 0.25
146 6.02656 7.41457 0.444256 0.25
147 6.61693 5.70354 4.62343 0.25
148 2.14671 2.86262 4.52944 0.25
149 4.71893 8.1872 2.42465 0.5
150 4.9465 3.08131 4.19678 0.25
151 3.6819 5.97598 7.10523 0.25
152 3.54555 4.68429 5.63385 0.25
153 6.6764 5.99009 2.19482 0.5
154 7.3468 2.41221 4.60917 0.5
155 3.05033 7.32333 7.71417 0.25
156 7.49163 3.55786 1.37283 0.25
157 7.70314 5.90994 1.5668 0.25
158 2.45901 3.61392 0.703518 0.25
159 7.16264 7.8034 4.51555 0.25
160 6.49674 2.06978 2.92552 0.25
161 0.995022 5.20973 2.68619 0.25
162 5.94012 4.06435 7.01545 0.25
163 3.48982 3.69864 4.14793 0.5
164 2.46875 3.8776 2.45396 0.5
165 5.51467 8.21225 7.80568 0.25
166 0.165185 3.74351 7.68061 0.25
167 6.39176 4.03692 0.0939602 0.25
168 4.77656 6.01787 5.78068 0.25
169 3.91222 4.39762 5.73249 0.25
170 0.304515 2.72207 5.9527 0.25
171 7.88234 5.78428 1.10224 0.25
172 1.13169 2.79423 6.85043 0.25
173 4.29031 6.28108 5.7949 0.25
174 2.36445 2.1384 1.07366 0.25
175 7.64273 2.23836 5.98418 0.5
176 2.36143 6.06306 6.27332 0.25
177 5.42104 3.6204 4.17176 0.25
178 3.07337 6.55131 1.82416 0.25
179 3.60159 2.30009 3.33535 0.25
180 5.91316 6.43502 5.74115 0.25
181 6.76949 4.07279 6.9282 0.25
182 3.09475 5.20332 3.2221 0.25
183 8.02727 7.52059 1.85804 0.25
184 4.46031 5.12879 8.0765 0.25
185 5.8241 6.81049 6.04525 0.25
186 7.60106 5.94161 4.62692 0.25
187 3.26829 5.25526 4.20387 0.25
188 0.925973 5.8444 3.25428 0.25
189 4.02099 6.61614 3.45995 0.25
190 4.11073 3.26921 1.64201 0.25
191 6.951 1.58385 0.509134 0.5
192 0.719946 5.19452 7.78013 0.25
193 3.87388 5.70317 1.64669 0.25
194 2.60277 6.35554 1.81114 0.25
195 6.17661 5.66373 2.72436 0.25
196 2.27313 7.98147 2.57321 0.25
197 0.905788 0.241043 2.18962 0.25
198 7.56245 4.64182 6.96975 0.25
199 1.05227 1.10108 3.13734 0.25
200 4.49482 5.26377 1.56619 0.5
201 6.52892 1.64256 3.15376 0.25
202 8.35113 3.84644 5.35471 0.25
203 3.75126 1.82322 3.3652 0.25
204 5.65995 8.00705 0.152093 0.5
205 2.38052 7.49638 4.35878 0.5
206 0.46203 4.50768 5.25435 0.25
207 5.68022 2.73359 4.23674 0.25
208 6.95362 5.37488 4.38555 0.25
209 5.45185 7.10418 0.0621234 0.5
210 1.91036 7.99157 2.84856 0.25
211 0.754144 3.76312 5.04168 0.25
212 1.41149 7.88931 8.06935 0.5
213 0.0335836 4.09039 2.70014 0.25
214 1.85708 7.87926 2.32519 0.25
215 2.91316 4.20382 3.95965 0.25
216 6.40109 1.95251 2.45562 0.25
217 5.1573 3.75301 1.97273 0.25
218 2.44941 3.14031 4.74223 0.25
219 4.40256 1.38827 2.78117 0.25
220 3.63231 3.6007 0.97747 0.25
221 4.19167 0.146266 5.83249 0.25
222 7.27548 0.802522 5.1866 0.25
223 8.06993 2.75766 2.65732 0.25
224 7.30048 5.3426 7.3337 0.25
225 7.26133 2.1795 5.31382 0.25
226 4.44568 1.99258 7.61394 0.25
227 6.61407 3.6451 7.14397 0.25
228 5.39907 3.14943 4.30878 0.25
229 5.2265 5.08445 2.02289 0.25
230 0.295643 8.09607 6.43904 0.5
231 5.30739 4.62376 1.44262 0.5
232 2.03872 3.05883 4.10066 0.25
233 4.08176 5.18697 3.9823 0.25
234 6.39893 1.15388 6.68185 0.25
235 3.1219 7.40691 4.45423 0.25
236 0.884584 2.41901 7.83574 0.25
237 8.30133 2.946 7.29098 0.25
238 3.65494 0.332611 1.98112 0.25
239 0.288697 2.26889 3.56207 0.25
240 6.75104 6.32242 1.52952 0.25
241 3.448 7.06292 7.86721 0.25
242 1.86823 7.26968 2.72066 0.5
243 2.85321 4.74346 3.2999 0.25
244 7.05668 3.59218 1.17896 0.25
245 2.05759 0.900808 5.89034 0.25
246 7.62776 8.12348 3.76325 0.25
247 3.52409 2.59686 3.75017 0.25
248 3.69024 3.28792 1.39233 0.25
249 0.175 5.10685 7.26258 0.25
250 1.18009 3.19546 5.4134 0.25
251 5.14656 2.76087 4.866 0.5
252 3.30245 1.95931 4.20484 0.25
253 7.99324 5.60248 7.32553 0.5
254 7.15097 5.77667 7.23636 0.25
255 4.74334 0.655591 6.09524 0.5
256 6.02071 6.16996 0.580597 0.25
257 0.956909 0.327358 2.68041 0.25
258 1.6803 1.60745 2.69713 0.25
259 4.57574 3.1847 1.79935 0.25
260 8.0239 6.17754 1.38573 0.25
261 3.39717 0.22379 1.55438 0.25
262 3.53376 2.34712 4.16857 0.25
263 2.12868 0.185161 0.196975 0.5
264 2.78216 4.28524 3.45334 0.25
265 1.20018 3.88983 7.27714 0.5
266 1.12247 7.87667 6.95932 0.5
267 5.08872 2.6181 7.95206 0.25
268 6.35107 7.74184 0.453878 0.25
269 1.8773 5.27183 0.831068 0.25
270 3.92254 3.67982 1.46849 0.25
271 7.60849 7.77934 4.78312 0.25
272 1.58391 0.859619 2.50626 0.25
273 1.41577 3.18426 6.96095 0.25
274 0.587768 5.5649 8.02716 0.25
275 4.51198 4.62037 1.19685 0.25
276 2.45675 3.15361 0.872006 0.25
277 6.6487 0.788062 6.93416 0.25
278 3.90616 6.27202 0.978127 0.25
279 4.1902 0.571189 5.25004 0.5
280 7.96369 8.11794 4.89758 0.25
281 1.10944 6.49289 0.381563 0.25
282 6.2382 7.05115 6.20723 0.25
283 0.925921 0.0782952 6.50499 0.25
284 7.3721 4.28908 0.736622 0.25
285 1.886 6.012 1.03718 0.5
286 5.43136 6.62693 3.30374 0.25
287 1.49683 8.01561 3.40772 0.5
288 2.83961 7.39618 4.90855 0.25
289 2.43319 7.33388 5.13134 0.25
290 1.98826 3.9691 1.87524 0.25
291 8.25789 7.48593 7.30739 0.25
292 7.80582 2.48782 3.45126 0.25
293 7.64505 4.55001 3.29093 0.25
294 5.87361 3.70847 3.47281 0.25
295 8.1735 4.19301 1.02805 0.25
296 0.720044 4.2901 4.59984 0.5
297 3.754 3.06924 6.84177 0.25
298 6.32453 5.25581 7.43342 0.25
299 5.91231 4.9851 7.40298 0.25
300 6.27432 3.82475 0.58216 0.25
301 0.944504 8.15587 0.178647 0.25
302 0.141074 4.20273 1.423 0.25
303 3.68142 0.95681 1.36888 0.25
304 2.10748 2.32678 4.595 0.25
305 1.17977 4.67808 8.24255 0.25
306 2.46484 1.87061 4.64964 0.25
307 1.40149 4.95439 7.57177 0.5
308 3.60464 5.83865 3.10596 0.25
309 4.4721 1.09135 5.56243 0.25
310 1.06341 4.59619 4.01577 0.25
311 7.3131 0.0604771 4.02944 0.25
312 0.847078 1.00553 2.35542 0.5
313 1.10668 3.66701 5.36457 0.25
314 5.46384 3.83533 3.18669 0.25
315 1.36281 5.16255 8.25835 0.25
316 1.69782 4.41772 7.13001 0.25
317 7.57496 2.40127 3.91581 0.25
318 2.25686 2.54621 4.19158 0.25
319 4.94332 7.53092 7.98509 0.25
320 1.95328 6.30231 6.05088 0.25
321 4.09686 0.770375 1.28856 0.25
322 7.26306 6.38169 5.20256 0.25
323 1.01669 5.95759 4.14445 0.25
324 4.1332 7.35015 7.79408 0.5
325 0.955112 1.84634 0.316636 0.25
326 3.97177 4.83651 5.00352 0.5
327 7.5734 7.24614 3.48241 0.25
328 2.25813 7.80341 1.75533 0.25
329 1.36719 5.70953 3.40916 0.25
330 8.29459 6.92321 7.36893 0.25
331 0.918386 5.32926 3.77323 0.5
332 7.49227 6.41101 2.21137 0.25
333 1.1386 1.59731 2.0926 0.25
334 6.80371 1.65876 1.73109 0.25
335 3.34498 3.19895 1.0309 0.25
336 2.97932 7.10095 6.78204 0.25
337 4.38265 7.16001 2.91278 0.5
338 6.18513 7.47435 0.0158011 0.25
339 2.08881 8.00985 3.90391 0.25
340 4.88019 0.675199 4.96855 0.25
341 6.89399 8.25657 3.25652 0.25
342 0.873654 5.56656 7.57687 0.25
343 2.67746 1.22527 0.328763 0.25
344 1.34048 5.58647 2.58228 0.25
345 0.472737 1.55169 2.74865 0.25
346 0.515468 2.53112 8.29432 0.25
347 3.57671 5.93913 7.59803 0.25
348 7.30364 7.69374 2.2731 0.25
349 0.760575 2.14264 8.24582 0.25
350 6.74158 1.72689 2.69183 0.25
351 1.42918 6.87666 0.461502 0.25
352 6.45806 3.54783 7.89533 0.5
353 2.46402 0.0547072 7.54014 0.25
354 1.73954 0.813229 5.50804 0.25
355 0.717665 0.043253 6.01227 0.25
356 1.97825 1.71745 5.78017 0.25
357 2.85616 4.04809 6.71828 0.25
358 6.18817 3.4462 5.24013 0.25
359 4.47019 1.17279 6.68739 0.25
360 1.88684 2.08348 1.22317 0.25
361 0.72854 7.88193 0.528087 0.25
362 6.297 3.85765 6.79561 0.25
363 7.89359 4.05819 1.99085 0.25
364 6.13366 3.65587 7.19166 0.25
365 5.57797 5.9106 0.501555 0.25
366 5.14786 6.16508 0.695076 0.25
367 2.40069 4.67015 6.74947 0.25
368 6.54012 3.14753 0.168221 0.25
369 1.21328 6.89645 0.0357936 0.25
370 5.14784 0.662597 8.18918 0.25
371 2.18394 8.26644 4.36484 0.25
372 2.43213 4.64727 0.507838 0.25
373 7.03002 2.79622 5.20673 0.25
374 3.6214 4.41399 4.44144 0.25
375 4.66464 0.806787 8.15545 0.25
376 2.60422 5.96551 0.928923 0.25
377 6.42695 1.25304 2.19965 0.5
378 0.514247 3.79756 7.36923 0.25
379 4.57605 1.33509 8.1547 0.25
380 2.46937 7.00111 4.8304 0.25
381 4.00928 5.41986 5.48996 0.25
382 1.98479 7.25465 4.85971 0.25
383 6.3115 5.30152 3.94757 0.5
384 1.19521 1.75175 1.59677 0.25
385 6.84331 1.55689 7.11159 0.5
386 1.3645 1.13038 5.57668 0.25
387 7.424 0.898619 0.621667 0.25
388 0.901973 5.74028 2.75211 0.25
389 4.07299 2.63666 7.39974 0.5
390 4.0161 0.538941 6.15116 0.25
391 5.22101 4.6602 2.27562 0.25
392 8.14389 2.77529 3.19103 0.25
393 2.80628 6.56356 1.44389 0.25
394 8.34985 7.99464 0.171387 0.25
395 2.13954 1.73076 1.36501 0.25
396 4.59581 7.893 8.12307 0.25
397 4.88051 0.70677 0.219613 0.25
398 7.32422 1.72528 8.20838 0.25
399 3.16241 4.3671 3.14393 0.25
400 5.20402 4.65971 0.690019 0.25
401 2.22268 7.1885 3.72229 0.25
402 8.19453 7.92912 6.96758 0.25
403 7.89609 6.24878 0.900609 0.25
404 7.92507 6.71344 7.11746 0.25
405 0.326855 7.68116 0.325741 0.25
406 5.54236 0.468715 4.59056 0.25
407 2.40747 1.10153 8.01144 0.5
408 5.65177 3.3386 2.49031 0.25
409 2.31684 4.95431 0.918921 0.25
410 7.50099 1.01454 8.24478 0.5
411 4.36354 5.44054 5.18136 0.25
412 8.14945 7.12866 6.91816 0.25
413 1.3005 1.52802 0.163548 0.25
414 0.494585 3.04534 7.75178 0.5
415 6.39735 4.69102 2.94384 0.25
416 2.89369 3.22131 6.61003 0.25
417 3.41579 4.71609 3.75509 0.5
418 7.18249 6.70582 4.46974 0.25
419 3.85677 3.89624 5.8825 0.25
420 0.978902 3.12131 4.59699 0.25
421 3.99448 4.91423 5.73249 0.25
422 2.38064 5.4898 0.895873 0.25
423 0.29525 0.230035 5.88481 0.25
424 0.582932 3.4731 4.6583 0.25
425 1.94375 2.81367 1.36786 0.5
426 7.14738 5.64436 5.03947 0.5
427 2.81901 1.86474 4.2429 0.25
428 3.96215 5.12936 3.51735 0.25
429 4.38699 4.55182 5.60361 0.25
430 1.82993 7.28011 3.44715 0.25
431 0.987114 3.25583 6.73001 0.25
432 1.59633 7.0483 4.14576 0.5
433 2.12124 1.80536 7.768 0.25
434 0.798265 6.32794 0.768624 0.25
435 5.80569 3.51835 2.94329 0.25
436 1.3268 5.94312 2.95821 0.25
437 8.28958 1.07814 0.13642 0.25
438 0.975491 3.36748 5.01009 0.25
439 3.70579 2.58122 6.69499 0.25
440 4.51862 1.51141 7.67248 0.25
441 8.04724 4.16344 5.21372 0.25
442 2.49964 5.66757 1.33059 0.25
443 0.391378 2.80594 6.79973 0.5
444 2.03668 3.61429 1.47333 0.25
445 5.21216 7.20151 0.829102 0.25
446 4.22243 5.83817 3.56003 0.5
447 1.55672 1.98063 5.72914 0.25
448 5.90378 7.24531 5.90156 0.25
449 1.07456 5.49169 5.65535 0.25
450 2.88406 3.37412 0.960468 0.25
451 2.83293 6.96795 5.18893 0.25
452 2.30659 0.866725 0.356182 0.25
453 4.82559 4.41182 0.824136 0.25
454 0.175317 3.42577 7.23312 0.25
455 8.1708 4.83752 7.42741 0.25
456 3.07875 1.74241 3.77939 0.25
457 2.33496 4.03388 7.18351 0.5
458 8.37463 7.53856 6.77275 0.25
459 4.95855 7.75686 0.0646843 0.25
460 5.73941 0.247648 4.91267 0.25
461 2.48332 3.53542 1.22534 0.25
462 6.22995 5.02402 3.21864 0.25
463 5.18051 7.32329 2.93676 0.25
464 7.49639 6.87441 7.28915 0.25
465 7.0455 2.52435 5.63053 0.25
466 4.28039 1.84287 2.6689 0.25
467 3.9508 6.22994 1.52031 0.25
468 6.8272 5.32645 2.94502 0.5
469 7.42031 7.38796 7.16672 0.25
470 0.847205 1.34733 0.223205 0.25
471 1.63575 1.01068 5.98598 0.25
472 1.89712 7.51169 1.95254 0.25
473 7.51996 4.97818 5.37875 0.25
474 5.17858 5.76931 5.7889 0.25
475 1.39184 1.21039 2.79787 0.25
476 7.30368 1.1179 7.48889 0.25
477 3.17463 5.41223 3.66912 0.25
478 6.40851 3.2216 7.3144 0.25
479 3.47473 7.29632 7.42366 0.25
480 5.08575 0.452934 2.39394 0.25
481 7.94904 2.11091 4.17054 0.25
482 7.1773 5.03265 4.56254 0.25
483 8.24715 5.59094 5.08061 0.25
484 2.7287 0.70306 0.161552 0.25
485 7.85623 7.51586 6.97166 0.25
486 2.46392 6.40733 5.94653 0.25
487 8.30229 7.68048 4.35234 0.25
488 4.29942 4.13411 5.90013 0.25
489 0.235395 8.13935 0.556865 0.25
490 8.02911 7.99351 1.99198 0.25
491 4.48519 3.06909 1.30722 0.25
492 2.40073 1.57122 4.26918 0.25
493 6.31819 4.37966 6.83331 0.25
494 5.01275 7.52631 2.53909 0.25
495 1.22586 5.98054 5.72149 0.25
496 2.98038 7.834 4.65542 0.25
497 6.37167 4.3217 7.66356 0.25
498 3.46126 2.83971 4.13683 0.25
499 0.361665 5.43477 7.62355 0.25
500 3.77974 2.99255 6.34894 0.25
501 6.09981 4.19049 4.22704 0.25
502 1.74876 8.03901 7.39511 0.25
503 5.71624 5.12099 2.68875 0.5
504 7.81943 7.66586 2.31101 0.25
505 5.8479 1.3138 2.74465 0.25
506 7.23187 6.30214 4.73921 0.25
507 1.20208 0.266228 3.06802 0.25
508 0.700045 0.113988 5.52932 0.25
509 8.23091 4.85518 4.93608 0.5
510 5.0094 1.7525 5.72261 0.25
511 0.600438 0.544663 5.787 0.25
512 0.826988 0.64427 3.0845 0.25
513 3.9498 1.24041 5.52766 0.25
514 1.90705 5.81097 6.12159 0.25
515 0.829484 7.52027 6.307 0.25
516 7.45019 1.53569 6.18723 0.25
517 7.44109 5.42036 4.40575 0.25
518 1.05478 3.62774 4.58062 0.25
519 6.42096 1.94638 1.96637 0.25
520 6.93509 2.01188 6.43736 0.25
521 7.61763 1.68168 0.226755 0.25
522 6.5974 1.58254 7.82406 0.25
523 5.21573 6.80242 5.59861 0.25
524 2.659 0.493393 7.59493 0.25
525 6.37412 4.07412 7.25471 0.25
526 7.01686 5.38646 6.90902 0.25
527 7.48633 8.02895 4.2611 0.25
528 7.35513 1.259 6.61526 0.25
529 6.64635 1.24209 2.89326 0.25
530 2.30934 1.6723 6.15886 0.25
531 7.95889 7.90846 4.01211 0.25
532 1.28653 0.694756 2.88689 0.25
533 7.09831 1.54 7.80125 0.25
534 8.23686 5.77195 1.55054 0.25
535 0.43149 3.28385 5.45596 0.5
536 6.89433 2.45504 6.09529 0.25
537 4.05047 0.910098 5.87766 0.25
538 6.57093 5.21702 4.67117 0.25
539 2.42185 1.1497 6.19012 0.25
540 8.17455 6.30989 2.09595 0.5
541 7.54868 4.06258 1.57604 0.25
542 2.21856 2.21781 7.98621 0.25
543 3.29557 7.40695 6.96578 0.25
544 7.5495 6.54499 6.92148 0.25
545 1.43147 5.838 3.90666 0.25
546 4.83973 5.88394 6.20912 0.25
547 5.16495 2.48822 0.0732855 0.25
548 6.16247 7.20742 6.68051 0.25
549 0.276657 7.71817 7.11371 0.25
550 6.17759 6.97675 0.16607 0.25
551 4.74514 1.61522 2.47909 0.25
552 3.67214 5.37123 3.83606 0.25
553 6.98554 7.73325 3.77044 0.5
554 4.31885 6.43289 3.13362 0.25
555 4.8318 6.62191 3.62198 0.5
556 6.972 0.81011 0.838935 0.25
557 7.30592 4.97618 3.80056 0.5
558 6.48384 8.22122 3.56201 0.25
559 1.33261 0.365946 5.87437 0.5
560 5.21514 3.44652 2.34989 0.25
561 3.04625 3.07223 4.14142 0.25
562 5.16988 8.34767 5.46035 0.25
563 2.29338 6.54666 1.46837 0.25
564 5.98447 6.83045 0.854262 0.5
565 6.53833 1.62228 6.46985 0.25
566 1.22546 1.69207 2.57599 0.25
567 4.41566 5.86119 6.05827 0.25
568 6.19914 1.22521 3.18932 0.25
569 2.5313 8.28014 8.00931 0.25
570 2.04439 6.79943 4.65712 0.25
571 2.84193 4.51096 6.98811 0.25
572 8.20435 2.75999 4.01342 0.5
573 4.1955 1.50067 2.33426 0.25
574 1.48977 6.03375 6.14666 0.25
575 2.10337 1.7431 8.23991 0.25
576 4.37067 5.7591 7.55548 0.25
577 5.28007 0.271841 5.0654 0.25
578 1.93216 7.5641 3.81101 0.25
579 7.62469 4.96885 7.35721 0.25
580 7.38623 0.151854 4.7716 0.5
581 4.24404 4.63876 6.05286 0.25
582 5.82113 2.99826 4.65176 0.25
583 5.72985 3.71425 4.78351 0.5
584 4.75431 6.51931 5.75459 0.25
585 4.94455 3.11973 1.48784 0.25
586 1.62687 0.166035 2.40799 0.5
587 5.00039 6.97332 2.60163 0.25
588 5.82512 5.16922 3.3756 0.25
589 0.110736 2.51676 7.46262 0.25
590 3.56728 6.51617 1.73352 0.25
591 6.39454 1.44426 1.03671 0.25
592 7.50766 7.06452 1.79591 0.5
593 6.8137 6.79138 1.58703 0.25
594 1.97412 4.75987 8.26765 0.5
595 0.658902 3.8245 7.85978 0.25
596 1.9493 0.764046 0.670275 0.25
597 0.0317108 0.297303 5.2297 0.5
598 2.55462 6.47548 1.05235 0.25
599 2.04927 8.24731 7.85912 0.25
600 7.66148 1.10442 5.36511 0.25
601 0.827756 0.851778 6.16233 0.25
602 4.05602 0.0799753 2.17227 0.25
603 4.44935 5.62057 8.0569 0.25
604 7.45898 5.12821 6.91876 0.25
605 7.87827 2.0696 3.68168 0.25
606 2.19048 8.15662 2.07648 0.25
607 4.6449 5.34619 7.675 0.25
608 3.59192 7.75845 7.28352 0.25
609 6.73376 4.8716 4.32124 0.25
610 1.85427 1.26905 5.59905 0.25
611 3.04233 0.723427 7.82074 0.25
612 0.765311 7.75657 0.0518607 0.25
613 6.48829 1.65618 8.31523 0.25
614 4.75265 1.14402 5.14447 0.25
615 4.80601 2.87881 3.75685 0.25
616 1.20412 5.45916 3.05433 0.25
617 1.43876 7.74007 2.14505 0.25
618 7.71645 7.23651 4.28398 0.5
619 7.91496 8.00033 4.47632 0.25
620 8.26176 7.2347 2.55819 0.5
621 4.10555 6.55145 3.95371 0.25
622 6.21333 6.54124 6.12513 0.25
623 5.308 6.67688 0.733161 0.25
624 0.989762 2.90212 5.08801 0.25
625 1.11463 5.53238 8.02521 0.25
626 3.41027 0.682014 1.74657 0.25
627 4.62429 4.47325 1.68758 0.25
628 8.13378 3.4733 2.39703 0.5
629 6.82349 3.01667 0.572258 0.25
630 1.08554 8.22638 2.81981 0.25
631 1.78197 1.46704 7.84325 0.25
632 7.60851 7.79934 1.87955 0.25
633 6.03166 7.66966 0.834504 0.25
634 3.00262 8.20925 3.71067 0.25
635 0.745532 7.092 0.617192 0.5
636 1.48082 2.18688 1.44115 0.25
637 5.61507 0.236239 5.38324 0.25
638 4.91616 1.30895 5.57432 0.25
639 4.48034 1.94482 0.0661343 0.25
640 5.18193 7.60562 0.498119 0.25
641 1.35064 6.65719 5.18533 0.25
642 3.65153 0.941513 5.63009 0.25
643 6.18683 6.87085 5.71327 0.25
644 5.87732 0.899905 3.02997 0.25
645 2.31704 2.15008 1.53946 0.25
646 7.93754 6.69298 6.64191 0.25
647 2.49937 2.98174 4.19903 0.25
648 4.98907 1.15402 8.33919 0.25
649 0.336361 4.15509 1.93722 0.25
650 8.29697 3.76667 1.34039 0.25
651 3.31076 3.07789 3.69192 0.25
652 6.97447 0.422579 7.11588 0.25
653 1.24781 6.54139 0.847154 0.25
654 0.99859 2.63574 8.22949 0.25
655 3.44621 3.67706 6.46785 0.5
656 0.638986 3.40291 7.09431 0.25
657 1.51438 5.61159 5.88636 0.25
658 6.84493 0.0799559 3.81106 0.25
659 2.54677 1.85603 8.05531 0.25
660 7.02736 6.03429 4.05943 0.5
661 8.19079 1.26796 8.13703 0.25
662 3.93023 4.75622 4.24419 0.25
663 2.41263 3.70756 1.75305 0.25
664 6.67479 2.71748 4.92015 0.25
665 7.83242 3.84949 1.18114 0.25
666 5.99893 6.72361 6.51128 0.25
667 6.3997 3.33793 0.664101 0.25
668 7.11506 6.42939 1.87038 0.25
669 6.17525 4.91109 7.01414 0.25
670 5.38447 0.00958505 4.63604 0.25
671 3.44579 4.87937 4.4176 0.25
672 2.69598 3.31272 1.98176 0.25
673 0.579765 1.08056 2.99723 0.25
674 4.91338 7.32549 3.36261 0.25
675 5.52891 3.78737 5.48028 0.25
676 7.64627 8.11257 2.29946 0.25
677 6.32581 1.66385 1.55791 0.25
678 7.67503 6.27951 5.00322 0.25
679 1.0778 6.16118 1.14119 0.25
680 3.73503 6.74309 8.04442 0.25
681 7.83956 8.36826 4.16309 0.25
682 2.55084 6.13319 1.39964 0.25
683 1.8434 7.75196 7.00765 0.25
684 0.36956 3.79881 1.56948 0.25
685 2.66608 3.60417 6.50538 0.25
686 4.13285 2.83172 6.65349 0.25
687 2.64977 4.13437 0.493085 0.25
688 3.6322 0.808366 6.12836 0.25
689 6.08751 4.17524 8.02008 0.25
690 6.22495 1.06583 2.78383 0.25
691 7.06819 1.20049 1.72746 0.25
692 4.83034 4.76762 2.03166 0.25
693 7.34269 1.79819 6.55886 0.25
694 7.55913 5.06985 4.87773 0.25
695 0.0600123 3.03458 6.15873 0.25
696 5.7764 5.98275 3.30252 0.5
697 4.1557 3.7969 6.29225 0.25
698 1.56714 1.17447 5.1457 0.25
699 1.58276 6.90952 4.84359 0.25
700 3.76988 5.46515 1.23568 0.25
701 4.31508 1.72957 8.05264 0.25
702 2.05375 4.58981 7.49499 0.25
703 3.46154 6.6563 7.28587 0.5
704 4.9036 5.00449 7.89527 0.25
705 5.05442 3.29293 1.91138 0.25
706 5.16551 0.27312 0.173749 0.25
707 4.68582 3.81801 1.41362 0.5
708 5.45262 7.65952 7.91038 0.25
709 2.58434 7.11847 1.87642 0.5
710 1.96672 4.48838 6.64914 0.25
711 5.17134 6.32866 3.00582 0.25
712 0.360109 5.15406 8.10668 0.25
713 2.59756 4.22075 1.80464 0.25
714 5.14799 4.14063 0.816702 0.25
715 4.77479 6.55792 2.83161 0.25
716 6.88228 1.10943 7.74536 0.25
717 7.78524 7.63013 3.67142 0.25
718 6.22526 3.34265 6.85294 0.25
719 5.8996 4.53168 7.69237 0.25
720 1.70826 7.85585 4.16575 0.25
721 6.8189 1.90295 2.20068 0.25
722 2.46898 7.77264 3.3085 0.5
723 2.61312 7.51763 2.53724 0.25
724 7.17883 6.53159 1.34422 0.25
725 7.67787 6.36884 7.35861 0.25
726 0.902447 0.878383 5.65525 0.25
727 3.77954 0.511631 1.46851 0.25
728 3.78071 6.24691 7.873 0.25
729 4.99466 5.95854 3.38825 0.25
730 2.96701 7.20228 7.23929 0.25
731 5.29457 3.46167 2.85481 0.25
732 4.10243 3.73246 6.81029 0.25
733 3.92806 5.61366 7.38819 0.25
734 4.38048 0.854736 2.76328 0.25
735 3.326 2.92587 6.56292 0.25
736 7.90074 1.68416 8.17584 0.25
737 2.97879 0.459704 1.64098 0.25
738 8.3099 7.71802 0.576836 0.25
739 4.69877 6.13466 3.0382 0.25
740 5.32821 7.14167 3.36033 0.25
741 0.395404 7.76579 0.832991 0.25
742 3.70282 4.66662 6.13441 0.25
743 7.04137 0.919358 1.33679 0.25
744 4.68902 0.663564 2.43566 0.25
745 3.47043 4.26369 5.92022 0.25
746 1.55179 6.18316 4.67704 0.5
747 4.83361 0.412436 2.00304 0.25
748 2.77221 6.75107 7.05567 0.25
749 1.52248 1.33767 2.33094 0.25
750 0.0558574 3.4133 1.69538 0.25
751 1.25721 0.781624 5.27518 0.25
752 6.26167 4.8075 7.60089 0.25
753 4.16605 0.757945 2.02059 0.5
754 4.15744 5.5046 0.911877 0.25
755 2.82201 2.74769 1.44167 0.5
756 7.90156 6.74958 7.60241 0.25
757 5.71522 6.83732 5.62879 0.25
758 6.8082 4.00493 7.41582 0.25
759 4.23013 8.18917 5.47515 0.25
760 0.199252 2.73174 3.33521 0.25
761 3.78986 7.34295 7.10244 0.25
762 0.619915 1.5948 3.53491 0.5
763 4.14967 8.06804 1.84924 0.25
764 1.5574 6.36708 0.474021 0.25
765 7.53263 4.9907 3.02255 0.25
766 0.417766 3.98709 2.40925 0.25
767 2.72344 6.91548 7.5045 0.25
768 2.22862 2.69467 4.95756 0.25
769 7.92697 3.67083 1.6601 0.25
770 4.54571 1.08615 0.188808 0.25
771 6.57528 1.22349 6.20191 0.25
772 4.68653 2.42677 7.70685 0.25
773 5.51004 0.965017 5.1155 0.5
774 3.97586 8.20596 5.09777 0.25
775 7.83271 4.55781 2.55092 0.5
776 6.97126 3.74167 0.40556 0.5
777 5.94079 6.53725 0.222936 0.25
778 4.88364 8.25413 8.37405 0.25
779 8.33466 8.16645 4.19727 0.25
780 2.33303 1.32779 5.76219 0.25
781 2.51727 1.66811 0.135507 0.25
782 1.45591 7.28796 0.220993 0.25
783 6.74363 3.23904 1.00906 0.25
784 2.27513 7.64144 2.20098 0.25
785 2.18258 1.4127 6.56465 0.25
786 2.61299 7.89671 2.14097 0.25
787 7.65182 7.05487 6.85206 0.25
788 8.33567 4.08476 2.23939 0.25
789 3.42153 8.16907 4.04224 0.25
790 6.56647 0.335545 6.77896 0.25
791 0.397422 4.7963 3.02929 0.5
792 2.29064 0.345651 7.90204 0.25
793 8.28142 7.04081 1.87117 0.25
794 5.34472 6.41909 6.19665 0.5
795 2.36227 4.09217 3.21807 0.25
796 2.23623 6.01098 5.74818 0.25
797 6.69458 6.62591 1.13068 0.25
798 7.67272 4.32536 1.13293 0.25
799 3.94852 3.42394 6.02654 0.25
800 7.90557 2.02305 3.17675 0.25
801 3.24604 7.93702 6.98638 0.25
802 3.74835 5.20574 4.31793 0.25
803 3.17423 8.33086 7.65973 0.5
804 3.75586 6.97308 1.6359 0.25
805 1.73248 8.01032 1.84978 0.25
806 2.56722 1.72215 3.83203 0.25
807 4.62116 6.27855 5.39491 0.25
808 3.98877 2.49979 8.15154 0.25
809 1.72636 5.99325 5.71959 0.25
810 6.54555 7.41196 6.40395 0.25
811 1.67175 3.2858 4.8552 0.5
812 5.59184 7.50809 0.710217 0.25
813 4.47343 2.1354 3.05292 0.25
814 1.64139 7.5411 7.43514 0.25
815 2.70709 8.1907 4.52011 0.25
816 0.601694 3.01035 4.81921 0.25
817 4.02148 2.01678 8.36698 0.25
818 3.95695 2.13868 2.99127 0.25
819 2.12339 5.30034 1.28861 0.25
820 3.15016 3.1017 6.95152 0.25
821 1.48396 2.09269 8.14852 0.5
822 5.95675 4.41391 3.50326 0.5
823 4.7448 0.323035 8.28884 0.25
824 0.822799 0.533817 5.36584 0.25
825 3.99423 6.09453 7.47267 0.25
826 3.12896 3.72003 1.55358 0.5
827 5.75172 7.17244 6.38004 0.25
828 0.425361 2.28041 7.88955 0.25
829 0.0379421 8.05113 4.68886 0.25
830 0.850287 1.90114 2.93478 0.25
831 2.2119 4.2331 7.85748 0.25
832 5.67457 4.74902 2.05283 0.25
833 1.97053 1.35023 6.08658 0.25
834 4.27375 0.36784 2.58873 0.25
835 6.72913 1.71576 1.2352 0.25
836 3.45236 7.6253 7.77771 0.25
837 4.18629 5.32297 7.69199 0.25
838 7.41338 0.69054 1.06291 0.25
839 6.07561 7.52618 6.29508 0.25
840 6.87436 4.72142 7.24892 0.5
841 3.34642 6.96874 1.88984 0.25
842 0.174998 2.22303 2.81118 0.5
843 6.03503 3.83775 5.47456 0.25
844 4.73656 2.38818 8.25194 0.25
845 7.45576 2.60551 5.35239 0.25
846 3.55146 3.5301 7.41045 0.5
847 2.295 5.15373 0.521994 0.25
848 1.9325 5.92152 5.27931 0.25
849 5.32193 7.79668 2.80318 0.25
850 6.33339 2.81783 5.62735 0.5
851 5.48553 8.21365 5.06139 0.25
852 6.85753 1.86817 8.1212 0.25
853 4.25229 7.74866 5.24944 0.25
854 4.3708 1.61014 6.08341 0.5
855 0.431525 4.01867 5.31346 0.25
856 0.768966 5.3856 3.07926 0.25
857 3.68534 6.63938 1.25582 0.25
858 2.67491 4.65583 3.78253 0.25
859 6.65015 4.58011 3.88636 0.25
860 7.72901 3.97227 0.73641 0.25
861 4.74638 2.96757 7.77876 0.25
862 6.61561 4.80941 3.44636 0.25
863 5.80806 6.10181 0.0825349 0.25
864 7.68722 6.81062 2.49218 0.25
865 3.97592 5.75976 7.8898 0.25
866 5.06853 8.11937 3.1184 0.25
867 1.76454 4.28851 7.64789 0.25
868 1.97827 1.57027 0.609251 0.5
869 1.01814 3.13196 7.1986 0.25
870 6.19964 5.50969 3.20328 0.25
871 2.82903 7.58416 6.92743 0.25
872 5.8051 3.11436 5.12542 0.25
873 8.09953 8.12523 0.57688 0.25
874 4.05462 0.993981 6.37548 0.25
875 2.23068 4.21403 1.12674 0.5
876 1.51283 5.70251 5.39667 0.25
877 0.0160235 5.11325 7.74197 0.25
878 5.82715 0.893885 2.50981 0.25
879 3.26787 8.23507 4.52576 0.25
880 6.44491 5.9726 3.01158 0.25
881 7.53486 1.07407 1.40263 0.25
882 7.85009 7.17671 7.33119 0.25
883 0.286197 3.67798 2.03172 0.25
884 7.20133 3.21285 0.851816 0.25
885 0.91909 4.17504 5.32577 0.25
886 8.02101 7.30861 3.28383 0.25
887 0.861345 6.64134 1.15589 0.25
888 1.04834 4.68579 3.52038 0.25
889 1.48344 7.92358 2.65038 0.25
890 0.222875 4.44981 2.35408 0.25
891 1.0877 2.18284 7.51471 0.25
892 7.52239 3.59397 0.887813 0.25
893 1.15215 7.68255 0.352809 0.25
894 4.04161 5.85882 1.23735 0.25
895 3.73307 5.77057 0.858662 0.25
896 1.71633 1.35446 8.30519 0.25
897 8.02498 4.18391 1.52319 0.25
898 0.593789 4.58381 3.80641 0.25
899 0.99113 8.05357 6.16778 0.25
900 5.13795 6.28113 5.57874 0.25
901 0.927929 1.4599 2.89233 0.25
902 7.3283 3.98896 1.09462 0.25
903 5.89266 3.7539 4.005 0.25
904 6.79989 4.26258 7.83266 0.25
905 5.26053 0.970751 5.76405 0.25