ITEM: TIMESTEP
80000
ITEM: NUMBER OF ATOMS
1000
ITEM: BOX BOUNDS xy xz yz pp pp pp
0.0000000000000000e+00 8.3788359999999997e+00 0.0000000000000000e+00
0.0000000000000000e+00 8.3788359999999997e+00 0.0000000000000000e+00
0.0000000000000000e+00 8.3788359999999997e+00 0.0000000000000000e+00
ITEM: ATOMS id x y z radius
1 2.83355 7.15931 4.32791 0.25
2 4.52798 5.16477 5.04359 0.25
3 7.32389 4.85906 3.64667 0.25
4 7.38315 0.702642 6.25051 0.5
5 1.45451 5.74463 6.08692 0.25
6 0.1079 1.85046 3.49383 0.25
7 4.26099 3.51856 6.6517 0.25
8 4.48713 7.77258 2.79592 0.25
9 0.744375 6.22873 3.6776 0.25
10 4.36207 1.79469 3.35456 0.25
11 5.53265 0.310111 8.35311 0.25
12 5.02118 3.32967 1.97823 0.25
13 8.05936 2.69064 7.27406 0.25
14 3.90198 3.2522 7.34764 0.25
15 8.06812 2.78816 5.99794 0.25
16 7.05955 0.179237 6.73545 0.25
17 0.985904 4.86215 8.01825 0.25
18 5.69256 7.52007 7.71799 0.25
19 4.36793 2.05054 7.73185 0.25
20 7.29144 1.59969 0.693892 0.25
21 5.04258 4.17986 2.10784 0.25
22 4.2866 3.36678 0.992741 0.25
23 2.25281 3.22487 1.91196 0.25
24 2.92911 1.45268 4.17846 0.25
25 2.17466 4.36133 2.82136 0.25
26 0.278146 0.113906 5.89275 0.25
27 3.86677 1.04801 6.21301 0.25
28 4.42665 2.26605 0.143102 0.25
29 5.11509 6.89955 2.91438 0.25
30 7.12378 7.38834 2.67795 0.25
31 2.93961 0.659127 7.51046 0.25
32 0.628267 2.55793 7.0463 0.25
33 7.82304 0.576568 5.58443 0.25
34 2.02247 4.80099 1.33782 0.25
35 8.18801 0.198405 4.48664 0.25
36 7.18415 1.53388 5.61429 0.5
37 4.66037 0.891312 2.02532 0.25
38 2.15896 3.2922 4.32377 0.25
39 6.33472 2.79622 5.12956 0.25
40 4.50434 8.20087 3.02933 0.25
41 6.80474 2.27066 2.77189 0.25
42 5.33681 5.96583 5.52545 0.25
43 3.06506 8.10865 4.28616 0.25
44 3.65791 0.618563 6.15126 0.25
45 5.79753 4.1635 4.33426 0.25
46 3.78694 5.68293 1.43562 0.5
47 4.67375 0.656425 5.16547 0.25
48 8.10386 6.5711 6.91415 0.25
49 7.34166 7.07612 4.86995 0.25
50 7.56188 1.24363 0.957117 0.25
51 2.65156 3.31909 4.42954 0.25
52 0.86045 1.74317 2.57707 0.25
53 6.80385 5.33414 6.66358 0.25
54 6.00771 3.39415 4.4046 0.25
55 1.3906 1.47963 5.71941 0.25
56 0.63165 7.56088 0.128833 0.25
57 4.91736 0.476518 2.03028 0.25
58 2.42691 2.0482 4.19931 0.25
59 5.51955 1.43643 5.35573 0.25
60 0.803243 5.7446 5.39465 0.25
61 5.47277 0.149557 7.86302 0.25
62 5.38317 1.82022 8.04454 0.5
63 8.00274 6.30691 1.63314 0.25
64 1.62383 6.03153 0.641318 0.25
65 3.80116 8.34997 1.66174 0.25
66 2.08593 4.53543 7.10632 0.25
67 7.75646 5.02989 7.34547 0.25
68 7.02427 0.046261 6.2433 0.25
69 0.27254 5.55295 8.02809 0.25
70 2.03856 4.22668 0.522305 0.25
71 7.69873 1.76032 0.433579 0.25
72 6.18712 6.36816 3.4813 0.25
73 0.565364 7.4698 6.52427 0.25
74 7.43619 5.85385 7.07091 0.25
75 7.20483 0.361867 3.32572 0.25
76 7.47127 6.79616 4.48255 0.25
77 5.80576 2.97267 5.75316 0.25
78 5.4401 3.48778 1.62914 0.25
79 8.00766 5.86047 5.26335 0.25
80 6.04841 3.41977 5.79258 0.25
81 6.60214 1.44654 1.23823 0.25
82 8.13337 3.06794 5.55974 0.25
83 4.16624 5.87747 5.56536 0.25
84 1.11915 1.05046 5.66859 0.25
85 1.55 1.52955 5.30996 0.25
86 3.95756 0.190597 6.1224 0.25
87 1.94863 1.56044 0.994508 0.25
88 3.71576 6.4192 1.47732 0.25
89 6.89755 7.3124 0.942375 0.25
90 5.30236 6.44135 5.34974 0.25
91 3.87992 4.12289 6.17569 0.25
92 6.18105 4.7117 7.08192 0.25
93 4.79184 6.5531 5.24509 0.25
94 6.72417 7.92886 4.44112 0.25
95 0.465747 4.50034 7.61149 0.5
96 5.40592 3.20666 3.89568 0.5
97 4.31842 4.77503 7.83078 0.25
98 0.369077 2.2922 3.42745 0.25
99 1.79079 6.54119 5.77955 0.25
100 7.33157 7.22528 1.16409 0.25
101 0.141433 8.31101 0.352593 0.25
102 8.06745 5.29229 3.87116 0.25
103 6.50298 1.34453 1.72358 0.25
104 0.776748 5.52427 7.88271 0.25
105 4.82747 5.81288 5.08609 0.5
106 4.34379 8.24933 4.76712 0.25
107 3.59599 3.986 6.84361 0.25
108 4.65486 1.43646 8.20708 0.25
109 0.625698 0.422566 6.19313 0.25
110 2.20604 7.93545 8.19147 0.25
111 2.9537 3.42596 6.64197 0.25
112 4.66973 2.25311 8.09498 0.25
113 2.15117 1.70931 1.7346 0.5
114 1.59522 4.00388 6.6974 0.25
115 4.47493 6.30636 6.23079 0.25
116 2.56125 6.53657 7.35553 0.25
117 4.2469 2.42778 3.84134 0.5
118 6.99887 7.50751 1.38407 0.25
119 0.845621 5.4386 2.11776 0.25
120 0.203061 2.61255 2.26582 0.25
121 3.08628 3.95631 3.52757 0.25
122 6.68127 0.353731 6.45271 0.25
123 5.03143 0.266214 5.21585 0.25
124 7.87771 7.96007 2.62267 0.25
125 3.57867 2.09485 3.79827 0.25
126 4.24521 1.82585 5.67865 0.25
127 5.30146 3.70649 2.0966 0.25
128 6.99968 5.61698 7.07561 0.25
129 0.864923 6.52689 4.05353 0.25
130 5.98329 6.22123 0.692188 0.25
131 6.87002 1.25176 6.28252 0.25
132 5.94981 4.49468 7.44975 0.25
133 3.35942 1.86707 3.43634 0.25
134 4.54835 2.71167 8.25154 0.25
135 5.5425 3.93493 3.93563 0.25
136 2.90444 2.45949 3.68152 0.5
137 2.84023 3.88456 3.08124 0.25
138 7.2519 8.09832 2.99853 0.5
139 2.20193 7.70782 4.62396 0.25
140 5.23297 7.70923 7.7432 0.25
141 0.782515 5.453 5.76914 0.25
142 0.791482 4.83278 3.22143 0.25
143 1.76041 1.76858 8.39657 0.25
144 4.92422 0.900692 2.66514 0.5
145 7.47305 2.38707 4.0064 0.25
146 6.05833 7.31484 0.128779 0.25
147 6.14991 6.09455 4.52016 0.25
148 1.99635 2.90636 4.02743 0.25
149 4.13566 8.10816 2.33133 0.5
150 5.19165 2.92154 4.56642 0.25
151 3.5419 5.8447 7.39415 0.25
152 3.47004 4.40986 5.53017 0.25
153 6.85395 6.08809 2.56533 0.5
154 7.30843 2.34482 4.77836 0.5
155 3.04623 7.63554 7.83946 0.25
156 7.60864 3.73361 1.52541 0.25
157 7.60935 6.02909 1.68302 0.25
158 2.53483 3.52337 0.645053 0.25
159 7.02674 8.36187 4.43943 0.25
160 6.70755 2.07104 3.20825 0.25
161 0.535994 4.86205 2.78099 0.25
162 5.97826 4.0287 7.42176 0.25
163 3.30427 3.6528 4.19427 0.5
164 2.5574 3.80803 2.43169 0.5
165 5.60123 8.05562 7.7119 0.25
166 0.148208 3.8378 7.73309 0.25
167 6.50079 4.5075 0.307494 0.25
168 4.57678 6.02333 5.81888 0.25
169 3.93251 4.30274 5.65794 0.25
170 0.200482 2.87534 5.7924 0.25
171 7.92306 5.88086 1.32533 0.25
172 0.825607 2.72848 6.58829 0.25
173 4.15412 6.32942 5.86287 0.25
174 2.63609 2.2513 0.848074 0.25
175 7.65525 2.15163 6.22826 0.5
176 2.54608 6.36726 6.09381 0.25
177 5.67686 3.73652 4.37851 0.25
178 3.46187 6.18036 1.84945 0.25
179 3.62726 2.29157 3.35583 0.25
180 5.72669 6.39661 5.667 0.25
181 6.59922 4.35412 6.93133 0.25
182 2.99263 5.23274 3.29971 0.25
183 7.45543 7.71691 1.35025 0.25
184 4.38197 4.96281 8.2787 0.25
185 5.72897 6.82366 5.97153 0.25
186 7.55308 6.3569 4.6585 0.25
187 3.26244 5.26778 4.21169 0.25
188 0.83829 5.6627 2.91355 0.25
189 4.16216 6.59115 3.45367 0.25
190 4.16708 3.23332 1.49771 0.25
191 6.52048 1.52646 0.489379 0.5
192 0.848757 5.12495 7.60022 0.25
193 4.75618 5.19056 0.916102 0.25
194 3.08116 5.82993 1.71877 0.25
195 6.30591 5.61277 2.9571 0.25
196 1.89964 7.33133 2.02603 0.25
197 1.31603 0.645249 1.8318 0.25
198 7.50876 4.82192 7.72236 0.25
199 1.2468 0.864108 2.63297 0.25
200 4.8929 4.79391 1.56556 0.5
201 7.02816 1.69614 3.28604 0.25
202 0.0841166 4.16302 5.40509 0.25
203 3.86608 1.86215 3.4996 0.25
204 5.59771 7.92294 0.00661488 0.5
205 2.20947 7.47956 3.898 0.5
206 0.602424 4.76678 5.17168 0.25
207 5.72518 2.9514 4.44093 0.25
208 6.91046 5.64988 4.8009 0.25
209 5.37974 7.09398 0.38644 0.5
210 1.69603 7.73966 2.28853 0.25
211 0.706074 3.93281 4.9029 0.25
212 1.48647 7.57714 8.25223 0.5
213 8.28046 4.15984 3.12518 0.25
214 1.6107 7.65801 1.85443 0.25
215 2.82699 4.1718 3.87612 0.25
216 6.39548 1.99085 2.74971 0.25
217 4.84491 3.69935 2.30709 0.25
218 2.17389 2.87738 4.5022 0.25
219 4.28891 1.24843 2.71223 0.25
220 3.75406 3.21117 1.13538 0.25
221 4.13362 0.667466 6.28739 0.25
222 7.3797 0.714893 5.47035 0.25
223 8.14554 2.69758 2.50545 0.25
224 7.25679 5.72278 7.51842 0.25
225 6.99471 2.27662 5.49112 0.25
226 4.83269 2.24223 7.64554 0.25
227 6.46134 3.95662 7.24092 0.25
228 5.57446 3.2906 4.63006 0.25
229 6.00714 4.82419 2.23043 0.25
230 0.33301 8.2207 6.63538 0.5
231 5.69509 4.30368 1.73079 0.5
232 2.27368 2.86376 3.65314 0.25
233 3.96051 5.07119 3.94552 0.25
234 6.42791 0.738478 6.79997 0.25
235 2.92771 7.6558 4.16978 0.25
236 0.382452 2.21064 7.79893 0.25
237 8.2812 3.58321 7.40525 0.25
238 3.77114 0.802167 1.00979 0.25
239 0.385299 2.01567 3.84181 0.25
240 6.90083 6.54709 1.16205 0.25
241 3.45574 7.0757 8.02896 0.25
242 1.41465 7.00394 2.30819 0.5
243 2.74483 4.76966 3.27854 0.25
244 7.17163 3.84081 1.38787 0.25
245 2.06279 1.10169 5.99304 0.25
246 7.45076 0.134545 3.73969 0.25
247 3.6082 2.65307 3.67459 0.25
248 3.74301 2.97176 1.55168 0.25
249 8.30633 5.05332 7.44548 0.25
250 1.0207 3.08835 5.10241 0.25
251 5.59059 2.65984 5.14673 0.5
252 3.31772 2.07023 4.24987 0.25
253 8.04295 5.7265 7.58244 0.5
254 7.77749 6.22116 7.05733 0.25
255 4.99821 0.925929 5.70966 0.5
256 6.1441 6.33704 0.22951 0.25
257 0.883598 0.405471 2.00077 0.25
258 1.6661 1.76753 2.31843 0.25
259 4.24541 2.77549 1.5887 0.25
260 0.011805 6.04316 1.53757 0.25
261 3.48305 0.436652 0.802328 0.25
262 3.54569 2.47837 4.11872 0.25
263 2.43022 0.246212 7.9323 0.5
264 2.68025 4.24534 3.41166 0.25
265 1.16465 3.66279 7.17344 0.5
266 1.4738 8.05677 6.94331 0.5
267 5.36385 2.90967 8.08581 0.25
268 6.11836 7.60314 8.01394 0.25
269 2.03943 4.72642 0.307507 0.25
270 3.99402 3.61472 1.28103 0.25
271 7.03123 8.02445 4.83884 0.25
272 1.5989 0.819497 2.24552 0.25
273 1.26782 3.03309 6.72471 0.25
274 0.964525 5.32575 8.30905 0.25
275 5.48433 4.63393 1.05099 0.25
276 2.57197 3.04304 0.770478 0.25
277 6.60131 0.213878 6.9125 0.25
278 4.31575 5.9592 1.92165 0.25
279 3.98751 0.743703 5.50793 0.5
280 8.16296 8.20535 4.8565 0.25
281 1.52808 6.53733 0.446869 0.25
282 6.15179 6.98278 6.11521 0.25
283 0.979795 0.198745 6.43756 0.25
284 7.69173 4.55834 1.009 0.25
285 2.03006 5.91495 1.25895 0.5
286 5.3868 6.45382 2.96868 0.25
287 1.38437 7.9502 2.88651 0.5
288 2.66841 7.54296 4.63295 0.25
289 2.35205 7.38696 4.97947 0.25
290 2.01241 3.67884 1.85104 0.25
291 0.058072 7.64373 7.52469 0.25
292 7.66238 2.75154 3.79786 0.25
293 7.84189 4.80969 3.77794 0.25
294 5.78895 3.78375 3.53086 0.25
295 0.0780336 3.94137 0.975007 0.25
296 0.604248 4.44918 4.42429 0.5
297 3.8834 3.59065 6.98443 0.25
298 6.57317 5.50419 7.06386 0.25
299 5.89352 5.10884 6.91276 0.25
300 6.20413 4.28365 0.713969 0.25
301 0.44595 7.99152 0.0411307 0.25
302 0.475568 3.74041 1.28326 0.25
303 4.01908 0.391241 0.897892 0.25
304 2.21154 2.34263 4.55285 0.25
305 1.71747 5.24071 7.89086 0.25
306 2.5343 1.99434 4.68653 0.25
307 1.52371 4.59381 7.56171 0.5
308 3.49382 5.83482 3.16674 0.25
309 4.47407 1.17054 5.1823 0.25
310 0.985058 4.98328 4.13621 0.25
311 7.28603 0.354539 4.21499 0.25
312 0.856533 1.16301 2.06122 0.5
313 1.09177 3.60203 4.98371 0.25
314 5.25378 3.87375 3.47337 0.25
315 1.81958 4.88374 8.21663 0.25
316 1.75923 4.09969 7.11551 0.25
317 7.81492 2.62713 4.26423 0.25
318 2.30666 2.52655 4.1019 0.25
319 4.69076 7.2464 0.106571 0.25
320 2.23081 6.2428 5.73346 0.25
321 4.03375 0.0188221 1.19319 0.25
322 7.27318 6.82981 5.30182 0.25
323 0.906702 6.03079 4.13349 0.25
324 4.17171 7.04239 7.94074 0.5
325 0.555181 1.60069 0.0562466 0.25
326 3.82069 4.83571 5.01854 0.5
327 7.04559 7.65115 3.58365 0.25
328 2.43239 7.1857 1.47178 0.25
329 1.33153 5.60053 2.88786 0.25
330 0.21263 7.1646 7.43 0.25
331 0.956709 5.50775 3.58408 0.5
332 7.1167 6.59751 2.14026 0.25
333 1.38323 1.72942 1.8168 0.25
334 6.58584 1.79461 1.94519 0.25
335 3.88847 2.4987 1.35988 0.25
336 2.91535 6.75738 6.9857 0.25
337 4.39379 7.11287 2.96916 0.5
338 5.83449 7.23078 8.13139 0.25
339 1.97919 7.88899 3.2846 0.25
340 4.34542 0.328319 5.02837 0.25
341 6.72436 0.285744 3.12141 0.25
342 1.24803 5.28454 7.8682 0.25
343 2.92639 1.23174 8.1827 0.25
344 0.861344 5.03621 2.41887 0.25
345 0.530266 1.41938 2.69165 0.25
346 0.213588 2.46032 8.17458 0.25
347 3.36134 5.76861 7.89891 0.25
348 7.02403 7.81671 2.33207 0.25
349 0.510624 2.11346 8.23552 0.25
350 6.88494 1.82676 2.82077 0.25
351 1.38565 6.89917 0.148544 0.25
352 6.38238 4.19583 8.05001 0.5
353 2.72178 7.94733 8.10004 0.25
354 1.8732 0.826331 5.55734 0.25
355 0.76636 0.052796 6.02443 0.25
356 1.80126 1.84812 5.6756 0.25
357 2.80384 3.57403 6.19777 0.25
358 6.47414 3.53188 5.55471 0.25
359 5.2071 1.64623 5.70709 0.25
360 1.85396 2.01188 1.14373 0.25
361 0.629525 8.35551 0.323986 0.25
362 6.04783 3.71409 7.05591 0.25
363 7.87603 3.9521 3.22678 0.25
364 5.82347 3.8016 7.84222 0.25
365 5.73013 6.04919 0.306948 0.25
366 5.56589 6.03774 0.769396 0.25
367 2.29358 4.48515 6.64155 0.25
368 6.90239 4.11047 0.24066 0.25
369 0.983638 7.66732 0.476279 0.25
370 5.29967 0.641785 8.04599 0.25
371 1.92055 8.13748 3.69481 0.25
372 2.14692 3.73057 0.409549 0.25
373 7.14895 2.72052 5.42655 0.25
374 3.48301 4.34785 4.4375 0.25
375 4.94818 0.834621 7.68605 0.25
376 2.30432 5.43881 1.75104 0.25
377 6.40434 1.30306 2.51803 0.5
378 0.40095 3.7128 7.31889 0.25
379 4.84026 1.33874 7.73476 0.25
380 2.36341 7.16942 4.5481 0.25
381 3.39598 4.8498 5.6647 0.25
382 1.92154 7.28917 4.6354 0.25
383 6.42218 5.43992 4.23071 0.5
384 1.57966 1.65189 1.33787 0.25
385 6.96064 1.27017 7.0034 0.5
386 1.48537 1.05605 5.4049 0.25
387 7.1271 1.13174 0.668325 0.25
388 0.587854 5.39064 2.59126 0.25
389 4.42507 2.76732 7.53066 0.5
390 4.34207 1.06835 6.06711 0.25
391 5.64584 4.62346 2.48391 0.25
392 8.04885 2.7289 3.45747 0.25
393 3.28249 6.20963 1.39535 0.25
394 0.126509 8.06316 0.753256 0.25
395 2.30171 1.91503 1.00343 0.25
396 4.94198 7.05658 8.10181 0.25
397 4.81407 0.6281 8.08364 0.25
398 6.8344 2.09159 0.12282 0.25
399 2.68196 4.32416 2.95894 0.25
400 6.22031 4.09142 1.14386 0.25
401 1.92373 7.04074 3.34568 0.25
402 0.425982 7.89103 7.29437 0.25
403 8.16454 6.24291 1.14303 0.25
404 8.16978 6.93576 7.23976 0.25
405 0.503203 -0.00932395 0.765463 0.25
406 4.52865 7.95821 4.40353 0.25
407 2.41594 1.28247 7.66247 0.5
408 5.28888 3.24829 2.86398 0.25
409 2.34635 4.86187 0.964678 0.25
410 7.23915 1.48949 8.30485 0.5
411 4.14681 5.55396 5.14083 0.25
412 8.23339 7.3645 7.05405 0.25
413 0.475456 1.29812 8.11878 0.25
414 0.359616 3.02342 7.60162 0.5
415 6.84518 4.74493 3.36442 0.25
416 2.92485 3.06536 6.3775 0.25
417 3.34466 4.66553 3.73074 0.5
418 6.97738 7.00215 4.5481 0.25
419 3.96091 3.84016 5.79885 0.25
420 0.618918 3.30829 4.36465 0.25
421 3.87752 4.77792 5.68459 0.25
422 2.33685 5.24373 1.29769 0.25
423 0.61148 0.419901 5.74615 0.25
424 0.374136 3.71467 4.63671 0.25
425 2.18771 2.68105 1.26987 0.5
426 7.3092 6.08334 5.32208 0.5
427 2.8764 1.95331 4.27447 0.25
428 3.84663 5.15343 3.49864 0.25
429 4.30604 4.55586 5.61834 0.25
430 1.50209 7.15721 3.04868 0.25
431 0.828008 3.22912 6.53413 0.25
432 1.37605 7.04144 3.8712 0.5
433 1.7898 1.73631 7.50376 0.25
434 1.12517 6.28575 0.659786 0.25
435 5.57198 3.46181 3.26742 0.25
436 1.09225 5.49662 2.49362 0.25
437 7.99347 1.43248 0.191423 0.25
438 0.725937 3.40301 4.81113 0.25
439 4.0658 3.07554 6.81862 0.25
440 4.7674 1.79069 7.44815 0.25
441 8.23521 4.59409 5.5342 0.25
442 1.93106 5.20921 1.55206 0.25
443 0.112455 2.90312 6.61993 0.5
444 2.12666 3.34891 1.41732 0.25
445 5.6183 7.00076 1.10333 0.25
446 4.12764 5.83778 3.54803 0.5
447 1.32876 1.95132 5.49342 0.25
448 5.86333 7.25254 5.7837 0.25
449 1.2644 5.65432 5.65157 0.25
450 2.97189 3.34788 0.854595 0.25
451 2.72429 7.02341 4.8209 0.25
452 2.51701 0.899005 8.24371 0.25
453 5.22101 4.17487 1.14234 0.25
454 0.0527977 3.5297 7.0011 0.25
455 7.94104 5.06385 7.7618 0.25
456 3.15793 1.76341 3.85488 0.25
457 2.34004 3.80219 6.87842 0.5
458 8.26869 7.87992 7.10833 0.25
459 5.01051 7.52002 8.18261 0.25
460 4.82564 8.02266 4.73865 0.25
461 2.56004 3.3938 1.1678 0.25
462 6.50291 5.06365 3.60094 0.25
463 4.63064 7.7249 3.31045 0.25
464 7.80765 6.92846 7.57462 0.25
465 7.16041 2.54692 5.88971 0.25
466 4.17362 1.7358 2.90374 0.25
467 4.29212 5.20199 1.07132 0.25
468 6.994 5.49365 3.3631 0.5
469 7.67406 7.35931 7.75101 0.25
470 0.0402037 1.54045 8.33026 0.25
471 1.53033 1.05499 5.92624 0.25
472 1.59369 7.20482 1.63272 0.25
473 7.90371 5.68225 5.7189 0.25
474 4.98312 5.79138 5.80796 0.25
475 1.48332 1.25908 2.48758 0.25
476 6.81004 1.15421 7.75095 0.25
477 3.13346 5.4229 3.73716 0.25
478 6.16821 3.59762 7.51023 0.25
479 3.46861 7.31612 7.61414 0.25
480 4.61565 0.0607379 1.91315 0.25
481 7.90073 2.15185 4.2643 0.25
482 7.74981 5.6174 4.86962 0.25
483 0.963079 5.9001 5.92629 0.25
484 2.91241 0.739589 7.97326 0.25
485 7.93537 7.68529 7.42301 0.25
486 2.28371 6.72912 5.80789 0.25
487 8.13809 7.80561 4.10388 0.25
488 4.33778 4.16083 5.92604 0.25
489 8.37382 0.157241 0.749654 0.25
490 7.93445 7.71414 2.22591 0.25
491 4.60442 3.08261 1.28585 0.25
492 2.54073 1.5921 4.3685 0.25
493 6.08586 4.25784 7.03369 0.25
494 4.76882 7.6109 2.44319 0.25
495 1.40118 6.13158 5.74726 0.25
496 2.5574 7.98163 4.35935 0.25
497 6.27733 4.83595 7.55384 0.25
498 3.37239 2.89333 4.05466 0.25
499 0.381419 5.29537 7.62218 0.25
500 4.27915 3.21151 6.29912 0.25
501 6.17072 3.85207 4.32034 0.25
502 1.84931 8.05542 7.77021 0.25
503 6.17264 4.89137 2.97486 0.5
504 7.47039 7.6599 2.47579 0.25
505 5.59747 0.81497 3.15306 0.25
506 7.17645 6.62602 4.84873 0.25
507 1.30298 0.344033 2.69171 0.25
508 0.61861 8.3412 5.53937 0.25
509 0.116243 5.27647 5.40931 0.5
510 5.5634 1.95527 5.46739 0.25
511 0.83654 0.35145 5.25014 0.25
512 0.815018 0.581814 2.53481 0.25
513 4.11605 1.51959 5.30999 0.25
514 2.37151 6.06467 5.34561 0.25
515 0.988187 7.72779 6.48283 0.25
516 7.3513 1.43987 6.37583 0.25
517 7.37351 5.8817 4.64872 0.25
518 0.901443 3.73317 4.52708 0.25
519 6.22325 2.00796 2.23396 0.25
520 6.95599 1.74768 6.34196 0.25
521 7.22973 2.0216 0.435292 0.25
522 6.14815 1.71746 7.81662 0.25
523 5.07549 6.77659 5.59534 0.25
524 2.9464 0.148769 7.36406 0.25
525 6.40762 4.38603 7.36487 0.25
526 7.30478 5.43826 6.73289 0.25
527 7.40862 8.29064 4.17988 0.25
528 7.31362 0.515562 7.04042 0.25
529 6.99598 1.34906 2.85838 0.25
530 2.02689 1.95055 6.0968 0.25
531 7.79286 8.14803 3.91912 0.25
532 1.21202 0.54597 2.25746 0.25
533 6.64234 1.64358 7.71066 0.25
534 8.06029 5.81913 1.82331 0.25
535 0.389535 3.46618 5.38037 0.5
536 6.91467 2.12027 5.97473 0.25
537 4.41848 1.35331 5.66032 0.25
538 7.3052 5.44581 4.96655 0.25
539 2.13838 1.46382 6.32132 0.25
540 7.81588 6.33241 2.38034 0.5
541 7.98174 4.15044 1.59496 0.25
542 1.75228 2.0509 7.92092 0.25
543 3.22396 7.06827 7.27631 0.25
544 7.72366 6.7353 7.09965 0.25
545 1.19484 6.24282 3.81434 0.25
546 4.70029 5.82881 6.24778 0.25
547 5.35608 2.50663 8.38192 0.25
548 6.14673 7.21597 6.6143 0.25
549 0.782457 7.69723 6.93465 0.25
550 6.31191 7.14245 8.13268 0.25
551 4.53659 1.60666 2.53384 0.25
552 3.59588 5.4082 3.88133 0.25
553 6.72652 8.32872 3.79914 0.5
554 4.39892 6.39718 3.06665 0.25
555 4.94299 6.5394 3.55107 0.5
556 6.72467 0.990162 1.02177 0.25
557 7.40304 5.2915 4.25574 0.5
558 6.14042 0.446126 3.79544 0.25
559 1.30367 0.342701 5.74527 0.5
560 4.85339 3.5164 2.76603 0.25
561 2.9277 3.09901 4.06642 0.25
562 4.85044 8.25477 5.56128 0.25
563 2.7782 6.01967 1.34523 0.25
564 6.31664 6.91263 0.755817 0.5
565 6.42457 1.21618 6.51651 0.25
566 1.23979 1.612 2.29276 0.25
567 4.21433 5.8803 6.10926 0.25
568 5.98601 1.19069 3.21773 0.25
569 2.9439 8.06522 7.61746 0.25
570 1.94812 6.89276 4.40816 0.25
571 1.89271 4.28534 6.36404 0.25
572 0.141222 2.72527 4.04375 0.5
573 4.37778 1.25952 2.18194 0.25
574 1.83098 6.07887 6.03174 0.25
575 1.94958 1.6324 7.93138 0.25
576 4.13728 5.59749 7.89911 0.25
577 4.67433 8.35299 5.09986 0.25
578 1.72746 7.48837 3.2947 0.25
579 7.46997 5.28716 7.68755 0.25
580 7.53899 0.203646 4.89978 0.5
581 4.06381 4.59125 6.07046 0.25
582 6.04897 3.1163 4.84696 0.25
583 5.92222 3.80034 5.05894 0.5
584 4.59037 6.54835 5.74939 0.25
585 5.05569 3.13644 1.51024 0.25
586 1.59164 0.0371635 2.03765 0.5
587 4.92492 7.61623 2.94157 0.25
588 6.05802 5.17377 3.66303 0.25
589 8.12924 3.14275 7.18673 0.25
590 3.94535 6.26007 1.91958 0.25
591 6.06656 1.15318 1.86041 0.25
592 7.38063 7.25449 1.92932 0.5
593 6.92438 7.01279 1.33043 0.25
594 2.23354 4.21513 8.19332 0.5
595 0.613946 3.7099 7.77887 0.25
596 2.2229 0.646587 0.189089 0.25
597 0.0636559 0.448978 5.23842 0.5
598 2.693 5.52871 1.45695 0.25
599 2.08794 8.2521 7.36614 0.25
600 7.75781 1.0472 5.69636 0.25
601 0.698164 0.828422 5.44042 0.25
602 3.68007 0.308712 2.0871 0.25
603 4.19447 5.42399 8.37308 0.25
604 7.46552 5.41133 7.19319 0.25
605 7.90121 2.35953 3.84046 0.25
606 2.01835 7.47108 1.58775 0.25
607 4.50141 5.25877 7.98748 0.25
608 3.82397 7.49593 7.38268 0.25
609 6.89668 5.13502 4.79983 0.25
610 1.84829 1.30745 5.61449 0.25
611 3.09006 1.12844 7.71852 0.25
612 0.5482 7.93494 0.478391 0.25
613 6.08747 1.72988 8.28349 0.25
614 4.33864 0.78798 4.84359 0.25
615 4.9036 2.65318 4.28001 0.25
616 0.944199 5.20828 2.84911 0.25
617 1.64482 7.60342 1.32565 0.25
618 7.41211 7.60682 4.28865 0.5
619 7.90088 8.16334 4.40183 0.25
620 7.85802 7.21187 2.83786 0.5
621 4.25866 6.44945 3.90957 0.25
622 6.04498 6.48484 6.08136 0.25
623 5.60758 6.54722 0.857305 0.25
624 0.699761 2.96926 4.77026 0.25
625 1.36617 4.9964 8.25363 0.25
626 3.64858 0.294896 1.22627 0.25
627 5.23498 4.56774 2.2851 0.25
628 8.20711 3.34748 2.9902 0.5
629 7.24277 3.83687 0.594662 0.25
630 0.983676 0.0954382 2.43679 0.25
631 1.66911 1.27564 7.73188 0.25
632 7.78382 7.85811 1.72444 0.25
633 5.77582 7.45485 0.950077 0.25
634 2.86289 0.521321 3.96088 0.25
635 1.34136 7.07477 0.876236 0.5
636 1.58026 2.14024 1.54587 0.25
637 5.08927 8.17289 5.08346 0.25
638 4.82398 1.01035 4.85806 0.25
639 4.75842 1.88178 0.069701 0.25
640 5.28966 7.38047 1.13157 0.25
641 1.41795 6.8439 5.1465 0.25
642 3.99866 1.41593 5.8556 0.25
643 6.10364 6.77569 5.67062 0.25
644 5.96059 0.782329 3.45489 0.25
645 2.70127 2.09167 1.29362 0.25
646 7.9507 7.01154 6.78411 0.25
647 2.4858 2.97434 4.1393 0.25
648 5.06171 1.09903 8.13387 0.25
649 0.747262 3.65162 1.74924 0.25
650 0.0522979 3.52224 1.27208 0.25
651 3.27176 3.14045 3.62998 0.25
652 7.46212 -0.0149411 6.44531 0.25
653 1.47403 6.35285 0.958018 0.25
654 0.753108 2.44372 7.95761 0.25
655 3.56229 3.41833 6.35391 0.5
656 0.518015 3.36091 6.94507 0.25
657 1.70898 5.73474 5.67997 0.25
658 7.19521 0.564664 3.74692 0.25
659 2.16895 1.95898 7.64284 0.25
660 6.85456 6.26228 4.3103 0.5
661 7.95399 1.81353 8.30879 0.25
662 3.81257 4.71581 4.305 0.25
663 2.47034 3.57278 1.70334 0.25
664 6.84944 2.93828 5.071 0.25
665 7.98862 3.80827 1.20386 0.25
666 5.89302 6.75817 6.43853 0.25
667 6.80823 3.68492 0.477677 0.25
668 6.99255 6.64949 1.67212 0.25
669 6.36572 5.10881 6.74626 0.25
670 4.39603 7.79995 4.85772 0.25
671 3.3014 4.84225 4.43344 0.25
672 2.72848 3.24006 2.00465 0.25
673 0.784084 0.983212 2.82567 0.25
674 4.1665 7.86567 3.1857 0.25
675 5.67487 3.81315 5.77028 0.25
676 7.50992 8.03553 2.19436 0.25
677 6.09994 1.65792 1.90699 0.25
678 7.64884 6.6832 4.98928 0.25
679 1.28962 5.87991 0.935442 0.25
680 3.62137 6.64216 8.30083 0.25
681 7.76717 0.18767 4.14451 0.25
682 2.56331 5.87471 1.79026 0.25
683 2.28601 8.04931 6.91334 0.25
684 0.461117 3.27449 1.47115 0.25
685 2.53856 3.22733 6.41505 0.25
686 4.37615 3.39717 7.13376 0.25
687 2.52393 4.02525 0.49142 0.25
688 4.28933 1.54599 6.11918 0.25
689 5.85666 4.74115 7.81521 0.25
690 6.06541 0.738874 2.99132 0.25
691 6.9625 1.54461 1.61552 0.25
692 5.48637 4.90977 2.08328 0.25
693 7.30314 1.83072 6.73013 0.25
694 7.70902 5.42707 5.31657 0.25
695 8.29738 3.29545 5.93431 0.25
696 5.70219 5.85632 3.42962 0.5
697 4.26123 3.72287 6.20819 0.25
698 1.8662 1.08839 5.17592 0.25
699 1.49993 7.02862 4.66341 0.25
700 4.58067 5.43977 1.31978 0.25
701 4.74132 1.83176 7.92845 0.25
702 2.19718 4.2097 7.42786 0.25
703 3.30268 6.46687 7.5677 0.5
704 4.78207 4.83967 7.96702 0.25
705 4.61471 3.06018 1.81729 0.25
706 5.09 0.158002 8.20562 0.25
707 4.7536 3.80869 1.55568 0.5
708 5.34357 7.28218 7.99483 0.25
709 2.7588 6.58908 1.82629 0.5
710 1.78195 4.44825 6.81576 0.25
711 5.12485 6.024 2.99362 0.25
712 0.589668 5.0907 7.99568 0.25
713 2.63771 4.05255 1.75278 0.25
714 5.51494 3.76015 1.2061 0.25
715 4.90096 6.46494 2.82184 0.25
716 6.36606 1.30742 7.54943 0.25
717 7.38932 8.00642 3.69862 0.25
718 5.68982 3.56945 7.3705 0.25
719 5.84068 4.99059 7.39679 0.25
720 1.57491 7.7832 3.61835 0.25
721 6.7141 2.00217 2.39133 0.25
722 2.22812 7.4157 2.71634 0.5
723 2.16439 6.92088 2.20017 0.25
724 7.32154 6.75334 1.29951 0.25
725 7.9936 6.47486 7.38455 0.25
726 1.12262 0.815885 5.1971 0.25
727 3.3941 0.687307 1.32018 0.25
728 3.56053 6.06996 8.22375 0.25
729 4.93017 5.80912 3.48128 0.25
730 2.77636 7.01665 7.35203 0.25
731 5.10202 3.43371 3.2287 0.25
732 4.03285 3.93121 6.62637 0.25
733 3.71342 5.48147 7.68677 0.25
734 4.27608 0.876147 2.35214 0.25
735 3.60107 3.13476 6.98771 0.25
736 7.67872 2.1208 0.181651 0.25
737 3.6648 8.39838 0.875995 0.25
738 0.390437 0.465879 0.923519 0.25
739 4.66698 5.99628 3.03536 0.25
740 5.01715 7.27693 3.30027 0.25
741 0.329611 0.400982 0.457931 0.25
742 3.59311 4.53078 5.98224 0.25
743 6.86795 1.07965 1.48308 0.25
744 4.48972 0.450059 2.26076 0.25
745 3.48666 4.0512 5.90547 0.25
746 1.4159 6.32379 4.57479 0.5
747 4.27928 8.23874 1.62013 0.25
748 2.64673 6.86306 7.75632 0.25
749 1.59677 1.34787 2.04573 0.25
750 -0.0053675 3.1603 1.69103 0.25
751 1.611 0.674842 5.14283 0.25
752 6.24369 5.22086 7.21667 0.25
753 4.1804 0.624019 1.63449 0.5
754 4.51292 5.47874 1.82449 0.25
755 3.09546 2.7375 1.22659 0.5
756 8.27284 6.81484 7.67715 0.25
757 5.58572 6.83847 5.55391 0.25
758 6.83496 4.26259 7.43895 0.25
759 3.62377 8.17439 6.1975 0.25
760 0.0895169 2.65284 3.2757 0.25
761 3.72892 6.99732 7.27852 0.25
762 0.847159 1.60194 3.3359 0.5
763 3.48289 8.20662 1.93702 0.25
764 1.90084 6.47544 0.731012 0.25
765 7.69277 5.17863 3.52729 0.25
766 8.2965 4.52845 2.76252 0.25
767 3.02595 7.17117 7.74724 0.25
768 1.85226 2.5556 4.38075 0.25
769 8.14196 3.63955 1.6287 0.25
770 4.52498 1.02708 7.91498 0.25
771 6.71083 0.836154 6.43462 0.25
772 5.01174 2.55259 8.02491 0.25
773 4.84728 0.316116 4.48745 0.5
774 3.5137 0.19351 5.87868 0.25
775 7.60046 4.61548 3.05967 0.5
776 6.94375 4.35935 0.902747 0.5
777 5.9737 6.83347 0.0583014 0.25
778 5.12566 8.18494 7.80147 0.25
779 8.24431 8.30907 4.06231 0.25
780 2.20737 1.57857 5.85233 0.25
781 2.20464 1.93649 8.13166 0.25
782 0.981823 7.22552 0.273937 0.25
783 6.63279 3.86776 1.29866 0.25
784 2.02107 6.97795 1.75033 0.25
785 2.48862 1.80109 6.21116 0.25
786 2.38073 7.30491 1.94883 0.25
787 7.77052 7.2442 7.23789 0.25
788 8.02048 4.08926 2.71213 0.25
789 3.08781 0.0991469 3.92175 0.25
790 6.69824 8.2333 6.57108 0.25
791 0.0939555 4.77582 3.43368 0.5
792 2.53446 8.26427 7.26209 0.25
793 8.26864 6.54093 2.89741 0.25
794 5.21275 6.41432 6.1776 0.5
795 2.31385 4.03889 3.14831 0.25
796 2.65429 6.42903 5.62915 0.25
797 7.10001 6.87297 0.85947 0.25
798 8.0985 4.23403 1.10002 0.25
799 4.13188 3.3527 5.85092 0.25
800 8.23621 2.26068 3.44701 0.25
801 3.44959 7.3901 7.09902 0.25
802 3.70683 5.13049 4.34266 0.25
803 3.08088 8.01029 6.76942 0.5
804 4.05019 6.71219 1.63783 0.25
805 1.9179 7.96056 1.55877 0.25
806 2.62319 1.6643 3.84947 0.25
807 4.40527 6.28054 5.40123 0.25
808 4.18716 2.33855 8.06099 0.25
809 1.86036 6.14617 5.50431 0.25
810 5.83716 7.64691 6.52133 0.25
811 1.40003 3.15865 4.45732 0.5
812 5.99341 7.56342 0.556758 0.25
813 4.61919 1.97291 2.92965 0.25
814 2.48272 7.57197 6.84994 0.25
815 2.29998 8.21406 4.00344 0.25
816 0.27952 3.23111 4.66494 0.25
817 4.33627 1.85438 8.19831 0.25
818 4.11126 2.20377 3.14715 0.25
819 1.91914 5.15818 1.02787 0.25
820 3.13309 2.99716 6.83084 0.25
821 1.10125 1.76729 7.94864 0.5
822 6.25965 4.4132 3.82578 0.5
823 4.99969 0.328174 7.74191 0.25
824 1.25184 0.39914 4.98572 0.25
825 3.81546 5.93889 7.82036 0.25
826 3.21292 3.60683 1.56138 0.5
827 5.70833 7.18184 6.27342 0.25
828 8.05147 2.34654 8.29554 0.25
829 0.048348 8.11029 4.42414 0.25
830 1.36756 1.69541 2.74149 0.25
831 2.39184 3.81868 7.58547 0.25
832 6.02626 4.35927 2.44455 0.25
833 1.77514 1.52771 6.03264 0.25
834 4.03569 0.429425 2.41146 0.25
835 6.10716 1.39045 1.45337 0.25
836 3.397 7.78545 7.4917 0.25
837 3.99281 5.13219 7.99189 0.25
838 7.22522 0.899965 1.12629 0.25
839 6.09582 7.45649 6.15451 0.25
840 6.94097 4.96357 7.30435 0.5
841 3.60417 6.66402 1.92474 0.25
842 0.106425 2.01337 2.7875 0.5
843 6.16693 3.88427 5.74376 0.25
844 4.9172 2.35407 0.111512 0.25
845 7.45813 2.27407 5.51128 0.25
846 3.14548 3.59798 7.29962 0.5
847 2.39382 4.49942 0.565939 0.25
848 1.97507 5.98236 4.99813 0.25
849 4.81678 8.03727 2.64316 0.25
850 6.54137 2.84071 5.76143 0.5
851 4.66796 7.8929 5.2424 0.25
852 6.55094 1.89356 8.15857 0.25
853 3.45356 0.234105 6.37645 0.25
854 4.80711 1.80894 5.13599 0.5
855 0.554436 4.26871 5.25218 0.25
856 0.50214 5.28786 3.07852 0.25
857 4.22183 6.25602 1.50676 0.25
858 2.56413 4.60607 3.73086 0.25
859 6.76909 4.78886 4.37547 0.25
860 7.70324 4.05231 0.829475 0.25
861 4.8812 3.02233 8.05952 0.25
862 6.83398 4.89899 3.86453 0.25
863 5.31575 6.29654 0.437184 0.25
864 7.25608 6.84511 2.55825 0.25
865 3.71795 5.56444 8.16843 0.25
866 4.89631 8.01276 2.19249 0.25
867 1.87988 3.86629 7.55347 0.25
868 2.32587 1.45274 0.291679 0.5
869 0.822677 3.02212 6.98873 0.25
870 6.28948 5.54004 3.44445 0.25
871 2.91338 7.27704 6.96464 0.25
872 6.07828 3.1766 5.38839 0.25
873 8.05234 8.20784 0.528307 0.25
874 4.70428 1.68238 5.87087 0.25
875 2.21598 4.05833 1.17828 0.5
876 1.52283 5.90411 5.27657 0.25
877 0.0449752 5.08339 7.95541 0.25
878 5.67592 1.1112 2.81227 0.25
879 2.72312 0.0645269 4.229 0.25
880 6.37504 5.98379 3.22615 0.25
881 7.3433 1.23267 1.47083 0.25
882 8.14001 7.26756 7.56898 0.25
883 0.415356 3.29412 1.94582 0.25
884 6.9492 3.64079 0.955535 0.25
885 0.984474 4.02668 5.28642 0.25
886 7.57679 7.58081 3.51476 0.25
887 1.08128 6.19843 1.18943 0.25
888 0.802954 4.7689 3.71808 0.25
889 1.21849 7.73456 2.18033 0.25
890 7.97079 4.45168 2.38089 0.25
891 0.687674 2.31274 7.46432 0.25
892 7.5198 3.73189 1.04084 0.25
893 0.934669 7.98923 0.124433 0.25
894 4.19848 5.14597 1.55565 0.25
895 4.57009 5.86257 1.4907 0.25
896 1.78813 1.32309 8.21189 0.25
897 0.0376333 4.02145 1.44716 0.25
898 0.511858 5.08609 4.04613 0.25
899 1.09278 8.17329 6.23508 0.25
900 4.88239 6.2337 5.5791 0.25
901 1.05356 1.32431 2.69047 0.25
902 7.59742 4.17669 1.3057 0.25
903 5.98451 3.75372 3.97246 0.25
904 7.14367 4.45711 7.75152 0.25
905 5.18048 0.743375 5.04366 0.25