ITEM: TIMESTEP
880000
ITEM: NUMBER OF ATOMS
1000
ITEM: BOX BOUNDS xy xz yz pp pp pp
0.0000000000000000e+00 8.3788359999999997e+00 0.0000000000000000e+00
0.0000000000000000e+00 8.3788359999999997e+00 0.0000000000000000e+00
0.0000000000000000e+00 8.3788359999999997e+00 0.0000000000000000e+00
ITEM: ATOMS id x y z radius
1 2.64043 6.93709 4.9999 0.25
2 4.78757 5.06896 5.35826 0.25
3 6.94708 4.53905 3.26463 0.25
4 7.41932 1.09917 5.81281 0.5
5 1.04485 5.98132 6.36109 0.25
6 8.23441 1.70812 3.43106 0.25
7 4.32659 3.32455 6.54511 0.25
8 4.83938 7.70434 3.08826 0.25
9 0.83035 6.28636 3.78068 0.25
10 4.04787 1.53034 3.48772 0.25
11 5.31948 8.38169 7.99433 0.25
12 5.12291 3.45862 1.36515 0.25
13 0.726068 2.35294 7.54138 0.25
14 3.98631 2.87773 7.16244 0.25
15 8.15849 3.05622 5.90107 0.25
16 7.52142 1.06076 6.61923 0.25
17 0.950716 5.30179 8.31787 0.25
18 6.00652 7.46095 8.10237 0.25
19 4.54433 1.86136 7.70978 0.25
20 7.56828 1.45677 0.609577 0.25
21 4.85079 4.24216 1.79312 0.25
22 4.23204 3.25006 1.20814 0.25
23 2.14979 3.415 2.09858 0.25
24 2.81711 1.94713 4.58773 0.25
25 2.83185 4.47823 2.95007 0.25
26 0.319997 0.168293 5.74963 0.25
27 3.92947 0.375986 6.07927 0.25
28 4.3069 2.13496 0.0897762 0.25
29 5.10989 6.90458 2.96506 0.25
30 7.44406 7.37139 2.34804 0.25
31 2.71785 0.338396 8.09587 0.25
32 1.02665 2.68546 7.29749 0.25
33 7.71524 0.227444 5.15858 0.25
34 2.05322 5.54432 1.63357 0.25
35 7.98334 0.0961779 4.50379 0.25
36 6.79965 2.02002 5.81181 0.5
37 4.14938 1.51212 2.26419 0.25
38 2.08861 3.36869 4.24906 0.25
39 6.11086 2.67465 4.70233 0.25
40 5.31514 7.69246 3.27189 0.25
41 6.5628 2.18331 2.8268 0.25
42 5.58811 5.97231 5.77937 0.25
43 3.63899 7.79266 4.61596 0.25
44 4.12637 7.90482 5.33613 0.25
45 5.38453 4.15963 4.02974 0.25
46 3.2172 6.06987 1.40206 0.5
47 4.67608 0.750062 5.20973 0.25
48 8.15532 6.31939 6.83374 0.25
49 7.64402 6.6321 4.59451 0.25
50 7.63207 1.35857 1.14238 0.25
51 2.55155 3.37032 4.40014 0.25
52 0.662494 1.53835 2.34103 0.25
53 6.55913 5.07161 6.90326 0.25
54 5.7152 3.31566 4.09015 0.25
55 1.71651 1.09967 5.92114 0.25
56 1.21099 7.24395 0.267844 0.25
57 4.73556 0.833701 2.12033 0.25
58 2.23131 2.13349 4.01231 0.25
59 4.97619 1.06581 6.11818 0.25
60 7.82429 5.56161 5.26558 0.25
61 4.95656 8.05079 8.05783 0.25
62 5.39057 1.894 8.35981 0.5
63 7.63221 6.56973 1.13509 0.25
64 1.05717 6.10359 0.86737 0.25
65 4.32124 0.140991 1.92822 0.25
66 2.0561 4.71032 6.99451 0.25
67 8.25827 4.96861 7.38124 0.25
68 7.29539 0.68549 6.41974 0.25
69 0.401107 5.52901 7.57904 0.25
70 1.69379 4.85441 1.06227 0.25
71 7.94315 1.43096 0.375294 0.25
72 6.47183 6.1924 3.43404 0.25
73 0.568367 7.73808 6.79521 0.25
74 7.43927 5.60901 6.82009 0.25
75 7.24597 0.0234179 3.35839 0.25
76 7.35347 6.54722 4.23083 0.25
77 5.44202 2.84008 5.33487 0.25
78 5.31019 3.91159 1.13008 0.25
79 7.7027 5.09997 4.54612 0.25
80 5.69341 3.27818 5.35738 0.25
81 7.17903 1.62904 1.01067 0.25
82 8.16912 2.77255 6.35391 0.25
83 4.43212 5.80874 5.54773 0.25
84 1.2168 1.16784 5.82685 0.25
85 1.57346 0.984469 5.09691 0.25
86 4.91414 8.14624 5.39427 0.25
87 1.90418 2.24583 0.646605 0.25
88 3.16037 6.78487 1.52097 0.25
89 6.94733 7.25971 0.629743 0.25
90 5.57833 6.35595 5.50227 0.25
91 4.00763 4.19994 6.2246 0.25
92 6.22598 4.62915 7.38887 0.25
93 5.15647 6.43855 5.25334 0.25
94 6.72644 0.042266 4.02263 0.25
95 0.299084 4.46902 7.83403 0.5
96 5.21302 3.20219 3.47433 0.5
97 4.29028 5.01107 8.23947 0.25
98 0.0111755 2.15005 3.39619 0.25
99 1.6786 6.41273 6.0276 0.25
100 6.99103 6.85762 0.909061 0.25
101 0.701418 7.78489 8.29497 0.25
102 7.72475 4.61599 3.56944 0.25
103 6.66121 1.08694 1.40418 0.25
104 0.975203 4.68821 7.5699 0.25
105 5.16065 5.66011 5.2591 0.5
106 5.49853 0.549881 4.61881 0.25
107 4.34114 3.24804 7.06196 0.25
108 4.76926 1.39624 8.35248 0.25
109 0.773858 0.914155 5.72895 0.25
110 2.19785 7.94971 8.2733 0.25
111 3.14697 3.72177 6.99422 0.25
112 4.65157 2.12886 8.09011 0.25
113 1.66214 1.89902 1.80537 0.5
114 1.73241 3.75224 7.13349 0.25
115 4.59594 6.46348 6.11197 0.25
116 2.50755 7.13171 6.93985 0.25
117 4.08297 2.26454 3.69799 0.5
118 6.76989 7.20049 1.18575 0.25
119 1.25091 6.53036 3.67098 0.25
120 0.0669601 2.85185 3.03464 0.25
121 3.12754 4.11782 3.62829 0.25
122 6.82187 0.836595 6.29958 0.25
123 5.12006 0.584898 5.39828 0.25
124 8.00099 8.04263 2.3865 0.25
125 3.42035 2.01857 3.92957 0.25
126 3.71242 1.16209 6.05145 0.25
127 5.21379 3.96124 1.60956 0.25
128 6.67707 5.44467 7.24827 0.25
129 1.05432 6.60212 4.08644 0.25
130 5.61748 6.19184 0.174415 0.25
131 7.05793 1.61761 6.29144 0.25
132 6.01831 4.19819 7.50053 0.25
133 3.06179 1.75461 3.64642 0.25
134 4.45501 2.55025 8.2152 0.25
135 5.30836 3.93645 3.60557 0.25
136 2.91635 2.53949 3.70236 0.5
137 2.89947 4.0711 3.18674 0.25
138 7.40803 7.90793 2.84021 0.5
139 2.8528 7.42906 5.10414 0.25
140 5.13773 7.60881 7.9692 0.25
141 7.80271 5.90187 4.86891 0.25
142 1.11377 5.15499 3.38912 0.25
143 2.40759 2.04747 8.21881 0.25
144 5.07121 1.11092 2.77378 0.5
145 7.45755 1.92579 3.91202 0.25
146 6.07233 7.35366 0.193219 0.25
147 6.45778 5.67794 4.45136 0.25
148 2.24234 3.04514 4.59026 0.25
149 4.5827 8.27757 2.61803 0.5
150 5.01094 2.83356 4.13755 0.25
151 3.51297 5.7939 7.18341 0.25
152 3.59777 4.5751 5.61482 0.25
153 6.76038 6.01219 2.23928 0.5
154 7.29005 2.39254 4.45958 0.5
155 2.97786 7.14504 7.68592 0.25
156 7.53739 3.52745 1.55164 0.25
157 7.73908 5.89049 1.59555 0.25
158 2.56207 3.75125 0.877435 0.25
159 7.14377 7.76434 4.36161 0.25
160 6.40891 1.79282 3.09099 0.25
161 1.02102 5.23794 2.89078 0.25
162 6.0436 4.33638 6.97977 0.25
163 3.19015 3.79045 4.30145 0.5
164 2.59183 3.97591 2.3949 0.5
165 5.39155 7.98033 7.7699 0.25
166 0.149994 3.71623 8.04126 0.25
167 6.43905 4.27365 8.21024 0.25
168 4.71546 6.09084 5.8065 0.25
169 4.03626 4.39945 5.74873 0.25
170 0.187 3.00071 6.18518 0.25
171 7.951 5.79797 1.15436 0.25
172 1.12482 2.95579 6.86554 0.25
173 4.32493 6.29016 5.66213 0.25
174 2.33897 2.18236 0.983476 0.25
175 7.6713 2.4864 5.81581 0.5
176 2.2969 5.67886 6.0969 0.25
177 5.28076 3.64677 4.05118 0.25
178 2.99023 6.54659 1.89107 0.25
179 3.41354 2.08413 3.36606 0.25
180 5.87962 6.38499 5.87943 0.25
181 6.82299 4.20081 6.93144 0.25
182 3.1797 5.27315 3.33198 0.25
183 7.89756 7.59171 1.63868 0.25
184 3.89709 5.28721 8.36475 0.25
185 5.81186 6.92088 6.05865 0.25
186 7.63163 5.6707 4.45782 0.25
187 2.81851 5.27483 4.16212 0.25
188 0.746736 5.89923 3.31973 0.25
189 4.11061 6.60962 3.48038 0.25
190 3.9208 3.64955 1.31976 0.25
191 6.89133 1.54477 0.272322 0.5
192 0.972326 4.97869 7.95865 0.25
193 3.66718 5.4047 1.36235 0.25
194 2.60319 6.27125 1.74016 0.25
195 6.21737 5.60872 2.66797 0.25
196 2.24318 7.96317 2.62186 0.25
197 1.33185 8.21965 2.36029 0.25
198 7.76734 4.88226 7.33156 0.25
199 1.15639 1.34668 3.14695 0.25
200 4.46625 5.34212 1.43207 0.5
201 6.74812 1.38816 3.07424 0.25
202 8.32154 3.78913 5.41427 0.25
203 3.55597 1.69132 3.60009 0.25
204 5.58492 7.91505 0.136386 0.5
205 2.573 7.4174 4.40709 0.5
206 0.358365 4.46146 5.19479 0.25
207 5.54914 2.86136 4.04838 0.25
208 6.76976 5.27459 4.40851 0.25
209 5.44694 6.94046 8.29013 0.5
210 1.86454 8.06966 3.01988 0.25
211 0.701515 3.79416 5.04544 0.25
212 1.47235 7.95333 8.30642 0.5
213 0.200992 4.15633 2.85449 0.25
214 1.78734 8.03398 2.4958 0.25
215 2.70484 4.30928 3.92636 0.25
216 6.23094 1.89145 2.61966 0.25
217 4.86236 3.71066 1.77896 0.25
218 2.50326 3.30204 4.90989 0.25
219 4.28766 0.940385 2.90371 0.25
220 3.55013 3.62505 0.944749 0.25
221 4.45526 8.12162 5.64616 0.25
222 7.41101 0.610548 5.18478 0.25
223 8.21159 2.68399 2.61153 0.25
224 7.25379 5.56546 7.32991 0.25
225 7.29441 2.22299 5.23572 0.25
226 4.99517 2.12086 7.76206 0.25
227 6.59905 3.73865 7.04931 0.25
228 5.31323 3.17714 4.27135 0.25
229 5.67314 5.08332 1.89079 0.25
230 0.346387 8.3309 6.44306 0.5
231 5.30755 4.63265 1.35461 0.5
232 1.90446 2.87388 4.33264 0.25
233 3.76391 5.27728 4.37864 0.25
234 6.66466 1.61451 6.50377 0.25
235 3.43694 7.37006 4.46345 0.25
236 0.940547 2.47264 8.21496 0.25
237 8.29252 2.81909 7.56291 0.25
238 3.20515 0.872289 1.63477 0.25
239 0.354243 2.37884 3.71578 0.25
240 6.75563 6.18329 1.445 0.25
241 3.35809 6.98187 7.98669 0.25
242 1.69759 7.33891 2.74625 0.5
243 2.91973 4.86307 3.2854 0.25
244 7.11481 3.44136 1.3158 0.25
245 2.24546 1.12707 5.88777 0.25
246 7.54424 8.10829 3.6143 0.25
247 3.55796 2.56573 3.32244 0.25
248 3.73202 3.22022 1.15135 0.25
249 0.292985 5.12367 7.28021 0.25
250 1.37719 3.75991 5.39389 0.25
251 5.3863 2.49977 4.66028 0.5
252 3.20753 2.1957 4.31562 0.25
253 8.05602 5.64417 7.27786 0.5
254 7.46558 5.99569 7.14146 0.25
255 4.71223 0.378897 5.93159 0.5
256 5.28277 6.45842 0.477294 0.25
257 1.17115 0.126095 2.78636 0.25
258 1.66405 1.65566 2.50301 0.25
259 4.39408 3.48367 1.6279 0.25
260 7.96637 6.23456 1.35261 0.25
261 4.07061 8.20798 1.58601 0.25
262 3.4906 2.55344 4.1331 0.25
263 2.14576 0.20435 0.202874 0.5
264 2.76495 4.40844 3.46716 0.25
265 1.10742 3.96339 7.44129 0.5
266 0.900333 7.69372 7.55352 0.5
267 5.40521 2.45187 7.84005 0.25
268 6.29294 7.75682 0.0402159 0.25
269 1.49116 5.27251 0.909979 0.25
270 3.99971 3.48348 0.814288 0.25
271 7.52413 7.82265 4.65942 0.25
272 1.7686 1.11222 2.5083 0.25
273 1.37533 3.39408 6.99788 0.25
274 0.873188 5.48312 7.81036 0.25
275 4.57926 4.61274 1.53742 0.25
276 2.69194 3.22387 1.06274 0.25
277 6.61506 1.14906 6.68554 0.25
278 3.9239 6.23913 1.21228 0.25
279 4.06311 0.299544 5.3129 0.5
280 7.90089 8.16433 4.8751 0.25
281 0.920917 6.52496 0.641312 0.25
282 6.20094 7.13449 6.24602 0.25
283 1.01127 0.309507 6.2695 0.25
284 7.21731 4.42607 1.18078 0.25
285 1.80228 5.95869 1.07392 0.5
286 5.48818 6.66385 3.1612 0.25
287 1.49071 7.8453 3.62545 0.5
288 3.12845 7.13898 4.84835 0.25
289 2.35113 7.29684 5.09411 0.25
290 1.94698 3.84704 1.92233 0.25
291 8.21947 7.6145 7.17216 0.25
292 7.69566 2.45296 3.29468 0.25
293 7.36741 4.29582 3.40601 0.25
294 5.37497 3.94274 3.12639 0.25
295 8.12948 4.2657 1.22911 0.25
296 0.568905 4.22155 4.56775 0.5
297 3.95999 3.13435 6.75707 0.25
298 6.31282 5.12439 7.34756 0.25
299 5.85011 4.95683 7.44764 0.25
300 6.38342 3.37975 0.698907 0.25
301 0.977956 7.38612 8.22338 0.25
302 0.142171 4.25005 1.59698 0.25
303 3.9239 0.568323 1.14011 0.25
304 2.09126 2.63172 4.70265 0.25
305 0.72633 4.82252 8.33181 0.25
306 2.34253 2.19162 4.54004 0.25
307 1.7389 4.69871 7.7062 0.5
308 3.44786 4.92634 3.18462 0.25
309 4.39834 0.917112 5.56317 0.25
310 0.574251 4.79281 4.00888 0.25
311 7.24238 8.35883 3.86026 0.25
312 0.98763 0.844873 2.48523 0.5
313 0.90218 3.81731 5.49726 0.25
314 5.12605 3.57779 2.78384 0.25
315 1.06943 4.52988 8.04378 0.25
316 1.81931 4.23276 7.09759 0.25
317 7.53192 2.37476 3.78352 0.25
318 2.31478 2.5652 4.2613 0.25
319 4.75571 7.26557 8.06696 0.25
320 2.00839 6.10041 6.10485 0.25
321 4.37394 0.757096 1.27391 0.25
322 7.56943 6.31014 4.94474 0.25
323 0.742632 6.19224 4.2248 0.25
324 4.05337 7.19688 7.83347 0.5
325 0.515938 2.16394 0.473332 0.25
326 3.98816 4.89132 5.04514 0.5
327 7.40628 7.32004 3.36396 0.25
328 2.14312 7.7582 1.79296 0.25
329 1.14193 6.1026 3.48901 0.25
330 8.28724 7.16469 7.3281 0.25
331 0.877418 5.50868 3.93525 0.5
332 7.34306 6.50999 2.09149 0.25
333 1.01226 1.41858 1.97209 0.25
334 6.6445 1.74745 0.973833 0.25
335 3.22754 3.17016 0.982584 0.25
336 3.01303 7.05215 6.76907 0.25
337 4.29351 7.27093 2.93929 0.5
338 6.48964 7.2926 8.31058 0.25
339 2.13191 7.92084 4.02107 0.25
340 5.00544 0.515729 4.8582 0.25
341 6.77819 8.32915 3.16023 0.25
342 1.12698 5.1701 7.55416 0.25
343 2.83784 1.19132 0.199289 0.25
344 1.22014 5.66788 2.7079 0.25
345 0.426967 1.36436 2.76111 0.25
346 0.515529 2.33987 8.01316 0.25
347 3.38546 5.84086 7.64834 0.25
348 7.2048 7.75027 2.08547 0.25
349 0.737713 2.06697 0.0476374 0.25
350 6.6809 1.70954 2.69039 0.25
351 1.29262 6.84814 0.556591 0.25
352 6.38162 3.62776 7.81947 0.5
353 2.47043 8.33396 7.54728 0.25
354 2.03022 0.690245 5.8147 0.25
355 0.648533 0.504204 5.98191 0.25
356 1.92899 1.87106 6.01665 0.25
357 2.93183 3.9425 6.60439 0.25
358 6.11894 3.39129 5.19113 0.25
359 4.51567 0.957022 6.35767 0.25
360 1.93128 2.07769 1.10493 0.25
361 0.932979 7.64726 0.370746 0.25
362 6.39403 4.0553 6.75778 0.25
363 7.91135 4.04127 2.17042 0.25
364 6.08148 3.82108 7.14446 0.25
365 5.56762 6.04208 0.675478 0.25
366 5.98791 6.22002 0.889001 0.25
367 2.97513 4.24219 6.9865 0.25
368 6.84811 4.0127 8.32306 0.25
369 0.885843 6.89516 0.296405 0.25
370 5.44095 0.344273 8.3463 0.25
371 2.8666 7.88577 4.87672 0.25
372 1.97591 4.74163 0.749292 0.25
373 6.96441 2.80974 5.03445 0.25
374 3.54197 4.53502 4.4984 0.25
375 5.31161 0.834104 8.13486 0.25
376 2.62022 5.82088 1.01252 0.25
377 6.34039 1.44562 2.01304 0.5
378 0.330183 3.72535 7.57533 0.25
379 5.1045 1.30889 7.99821 0.25
380 2.22948 6.8623 4.8088 0.25
381 4.01148 5.45273 5.58755 0.25
382 1.95912 7.28133 4.74673 0.25
383 6.16252 5.28821 3.91462 0.5
384 2.19537 1.70186 1.28381 0.25
385 7.13778 1.57565 7.07131 0.5
386 1.51986 1.30967 5.49192 0.25
387 7.74843 1.02562 0.769482 0.25
388 0.747605 5.67737 2.8842 0.25
389 4.66103 2.62993 7.51055 0.5
390 4.12826 0.649627 6.46407 0.25
391 5.33221 4.79081 2.08068 0.25
392 8.18516 2.44889 3.04749 0.25
393 2.71642 6.63835 1.42755 0.25
394 0.81384 8.26233 8.11775 0.25
395 2.67707 1.87758 1.1788 0.25
396 4.62225 7.67869 8.13415 0.25
397 5.03244 0.590453 0.061324 0.25
398 7.43318 1.46796 8.06219 0.25
399 3.2164 4.48215 3.2614 0.25
400 4.85894 4.60226 0.684888 0.25
401 2.35232 7.06801 3.76164 0.25
402 8.20246 8.05072 6.96358 0.25
403 7.92944 6.20037 0.877022 0.25
404 8.06757 6.81208 6.98474 0.25
405 0.446665 7.7416 0.321107 0.25
406 5.91033 0.283456 4.51121 0.25
407 2.45759 1.01758 7.99896 0.5
408 5.42527 3.41869 2.3992 0.25
409 2.11314 4.95202 1.22412 0.25
410 7.57294 0.879342 0.0758324 0.5
411 4.43871 5.39581 5.33687 0.25
412 8.29864 7.23616 6.83492 0.25
413 0.940807 2.4134 0.318003 0.25
414 0.585681 3.03732 7.87572 0.5
415 6.43839 4.66174 2.99379 0.25
416 3.16277 2.9979 6.56323 0.25
417 3.31113 4.79254 3.89608 0.5
418 7.24366 6.85795 4.56005 0.25
419 4.07733 3.85296 5.87895 0.25
420 0.889571 3.13955 4.79708 0.25
421 3.97772 4.90128 5.81366 0.25
422 2.26508 5.41216 1.15661 0.25
423 0.309866 0.70935 5.63554 0.25
424 0.556871 3.44297 4.72993 0.25
425 1.91888 2.81669 1.18763 0.5
426 7.04611 5.73002 4.9747 0.5
427 2.68807 2.20033 4.20596 0.25
428 3.95593 5.15062 3.94051 0.25
429 4.44139 4.76107 5.65578 0.25
430 1.90308 7.22343 3.4607 0.25
431 0.928288 3.41734 6.9163 0.25
432 1.7411 6.82073 4.18216 0.5
433 2.25078 1.573 7.58491 0.25
434 0.748666 6.42113 1.09186 0.25
435 5.62006 3.59644 2.86499 0.25
436 1.06225 6.06384 2.96542 0.25
437 0.097583 1.43059 0.467558 0.25
438 0.985801 3.47417 5.14093 0.25
439 3.90593 2.64181 6.69277 0.25
440 5.00167 1.65095 7.65301 0.25
441 7.95984 4.13429 5.39541 0.25
442 2.46284 5.80574 1.47459 0.25
443 0.388931 2.81636 6.93908 0.5
444 1.95741 3.45648 1.65491 0.25
445 5.54173 6.90472 0.621965 0.25
446 4.14875 5.84497 3.43953 0.5
447 1.52355 1.56317 5.92877 0.25
448 5.97323 7.26285 5.79239 0.25
449 0.837306 5.87224 5.88653 0.25
450 3.01084 3.62073 0.9504 0.25
451 2.69032 7.13246 5.47544 0.25
452 2.46442 0.859273 0.388148 0.25
453 4.59071 4.70827 1.06793 0.25
454 0.113379 3.3128 7.41178 0.25
455 7.99896 4.98305 7.78269 0.25
456 2.984 1.82341 4.11927 0.25
457 2.49274 3.71417 7.15278 0.5
458 0.116868 7.68127 6.79064 0.25
459 4.99701 7.51396 0.0569598 0.25
460 5.85473 0.466481 4.96923 0.25
461 2.63621 3.67719 1.32405 0.25
462 6.17689 4.97313 3.24695 0.25
463 5.12769 7.38448 2.90728 0.25
464 7.56086 6.89245 6.96887 0.25
465 7.02928 2.60036 5.43544 0.25
466 3.9608 1.31287 3.06887 0.25
467 3.89845 6.35569 1.69371 0.25
468 6.84198 5.23059 3.06485 0.5
469 7.49451 7.34794 6.80361 0.25
470 0.528689 1.66975 0.351039 0.25
471 2.01806 0.919844 6.25485 0.25
472 1.81427 7.37552 1.95821 0.25
473 7.47142 5.21927 5.29439 0.25
474 5.1728 5.87583 5.97818 0.25
475 1.4065 1.33137 2.6894 0.25
476 7.21479 0.847684 7.2919 0.25
477 3.16409 5.49736 3.82394 0.25
478 6.27309 3.32684 7.15252 0.25
479 3.41464 7.20198 7.51126 0.25
480 4.81627 0.290142 1.99087 0.25
481 7.89884 2.19007 4.06571 0.25
482 6.86577 4.9957 4.73338 0.25
483 8.06404 5.45343 4.73851 0.25
484 2.82655 0.663534 0.095372 0.25
485 7.94447 7.60145 6.7692 0.25
486 2.49576 6.02141 5.81807 0.25
487 8.31193 7.75128 4.22642 0.25
488 4.44214 4.18343 5.95254 0.25
489 0.767692 8.16193 0.261197 0.25
490 7.96946 7.99389 1.89562 0.25
491 4.38562 2.99705 1.6367 0.25
492 2.48224 1.77342 4.26395 0.25
493 6.46992 4.55924 6.9499 0.25
494 4.87085 7.5767 2.55943 0.25
495 1.21732 6.19685 5.98172 0.25
496 3.28631 7.62742 4.89061 0.25
497 6.37917 4.39396 7.75483 0.25
498 3.3861 3.05666 4.19526 0.25
499 0.631529 5.09987 7.61068 0.25
500 4.11908 2.92784 6.32092 0.25
501 5.69716 3.74526 3.85119 0.25
502 1.66499 7.9441 7.61261 0.25
503 5.88213 4.92632 2.56618 0.5
504 7.67955 7.72065 2.07928 0.25
505 5.85422 1.49899 2.58655 0.25
506 7.16873 6.36628 4.65785 0.25
507 1.30961 0.493038 3.08297 0.25
508 0.718732 0.00662826 5.4253 0.25
509 8.04103 4.81027 5.11878 0.5
510 5.19635 1.39423 5.78003 0.25
511 0.649732 0.44675 5.53556 0.25
512 1.11684 0.889303 3.28221 0.25
513 3.88239 1.04432 5.58962 0.25
514 1.76922 5.65047 6.08122 0.25
515 0.752456 8.1582 7.02766 0.25
516 7.50768 1.79914 6.00536 0.25
517 7.26701 5.31421 4.50828 0.25
518 1.02254 3.64077 4.70253 0.25
519 6.50036 1.954 1.40356 0.25
520 7.09272 2.48122 6.30301 0.25
521 7.62973 1.66433 0.0974811 0.25
522 6.87961 1.05743 7.60365 0.25
523 5.24891 6.76358 5.60146 0.25
524 2.75503 0.428222 7.63502 0.25
525 6.42359 4.16956 7.2683 0.25
526 7.00309 5.33602 6.90415 0.25
527 7.46533 7.97025 4.0873 0.25
528 7.48663 1.49226 6.41098 0.25
529 6.68889 1.21875 2.61694 0.25
530 2.23484 1.76725 6.41889 0.25
531 7.98903 7.93203 3.87084 0.25
532 1.52206 0.941454 2.94595 0.25
533 7.34362 1.15737 7.66946 0.25
534 8.21377 5.87131 1.5966 0.25
535 0.402239 3.18616 5.47961 0.5
536 6.91127 2.74198 5.90863 0.25
537 4.10156 0.801602 5.99286 0.25
538 6.41782 5.2321 4.67136 0.25
539 2.37277 1.26949 6.34496 0.25
540 8.09715 6.47964 2.01612 0.5
541 7.55486 4.02121 1.81408 0.25
542 2.13413 1.9616 7.81694 0.25
543 3.31172 7.36323 7.04973 0.25
544 7.81177 6.57417 6.67931 0.25
545 1.24194 6.15611 4.03011 0.25
546 4.77673 6.017 6.32755 0.25
547 5.19702 2.86457 8.0672 0.25
548 6.00573 7.44845 6.58486 0.25
549 0.265558 7.99464 7.16945 0.25
550 6.15339 6.928 8.2467 0.25
551 4.36032 1.4053 2.73925 0.25
552 3.63876 5.51421 3.96835 0.25
553 6.89381 7.79429 3.6773 0.5
554 4.25447 6.50354 3.0213 0.25
555 4.84464 6.53686 3.55117 0.5
556 7.32646 0.643983 0.801016 0.25
557 7.12248 4.85238 3.97782 0.5
558 6.48692 3.62407e-05 3.56542 0.25
559 1.37397 0.480162 5.61619 0.5
560 4.93706 3.47736 2.2341 0.25
561 2.88832 3.15228 4.10204 0.25
562 5.29003 0.128135 5.4886 0.25
563 2.2162 6.51809 1.52494 0.25
564 6.34699 6.87413 0.619103 0.5
565 6.88754 2.08067 6.56314 0.25
566 1.13714 1.61476 2.36453 0.25
567 4.34528 5.99405 6.09162 0.25
568 5.85441 1.18637 2.929 0.25
569 2.52966 8.25102 8.02626 0.25
570 1.96684 6.42866 4.83231 0.25
571 3.151 4.02459 7.44732 0.25
572 8.16602 2.80362 3.75615 0.5
573 3.88722 1.60137 2.68171 0.25
574 1.5537 5.99531 6.32274 0.25
575 2.20663 1.63362 8.15793 0.25
576 4.15159 5.52557 7.58982 0.25
577 5.40228 0.418592 5.08892 0.25
578 2.03637 7.42554 3.91512 0.25
579 7.56617 5.21655 7.59704 0.25
580 7.27196 0.0834073 4.54328 0.5
581 4.26796 4.63012 6.09237 0.25
582 5.84578 2.99853 4.43581 0.25
583 5.66426 3.74033 4.67411 0.5
584 4.80414 6.58992 5.6798 0.25
585 4.70084 3.24156 1.31694 0.25
586 1.86196 0.330741 2.58877 0.5
587 4.87325 7.08638 2.55437 0.25
588 5.73142 5.18388 3.29824 0.25
589 0.178847 2.42563 7.61879 0.25
590 3.48659 6.60939 1.8595 0.25
591 6.81266 1.28607 0.99075 0.25
592 7.39745 7.12851 1.62199 0.5
593 6.75308 6.72173 1.32229 0.25
594 1.46083 4.92615 0.242331 0.5
595 0.613326 3.81929 7.966 0.25
596 2.07403 0.800711 0.626735 0.25
597 0.099271 0.311407 5.05103 0.5
598 2.50071 6.23203 1.27722 0.25
599 2.08439 8.2089 7.87197 0.25
600 7.8779 0.726286 5.26874 0.25
601 0.666723 0.805548 5.23703 0.25
602 3.98806 0.213145 2.3113 0.25
603 4.30724 5.44868 8.0805 0.25
604 7.46722 5.1542 7.07155 0.25
605 7.88025 2.07853 3.61272 0.25
606 2.0993 8.13861 2.11932 0.25
607 4.40375 5.12343 7.76029 0.25
608 3.58744 7.63884 7.40107 0.25
609 6.44545 4.8427 4.42357 0.25
610 1.94738 1.48334 5.67169 0.25
611 3.08634 0.615028 8.02232 0.25
612 0.627451 7.31064 0.175255 0.25
613 7.0303 1.05546 8.04352 0.25
614 4.10811 1.16059 5.18715 0.25
615 4.81856 2.59783 3.65906 0.25
616 1.15118 5.65864 3.20941 0.25
617 1.66501 8.33954 2.04074 0.25
618 7.67905 7.28055 4.13866 0.5
619 7.89325 8.01391 4.36327 0.25
620 8.16824 7.35291 2.34389 0.5
621 4.20164 6.45234 3.93569 0.25
622 6.11881 6.57426 6.25821 0.25
623 6.03083 6.0989 0.393078 0.25
624 1.19054 3.34654 5.5558 0.25
625 1.30348 5.3409 8.00384 0.25
626 3.41379 0.384206 1.70429 0.25
627 4.8653 4.75938 1.90859 0.25
628 8.24726 3.43204 2.57715 0.5
629 6.83785 3.51471 0.0502286 0.25
630 1.5224 0.0238591 3.18274 0.25
631 1.82417 1.5509 7.80725 0.25
632 7.5063 7.92668 1.69759 0.25
633 6.16249 7.64957 0.56036 0.25
634 3.01426 7.91212 3.98651 0.25
635 0.778774 7.21175 0.914537 0.5
636 1.72943 1.6347 1.06896 0.25
637 5.62582 0.556403 5.48195 0.25
638 4.62673 1.26422 5.24839 0.25
639 4.7026 1.861 0.160012 0.25
640 5.25735 7.36373 0.508429 0.25
641 1.40523 6.82557 5.3028 0.25
642 3.63836 0.698532 5.8585 0.25
643 6.24808 6.82186 5.81157 0.25
644 5.76991 0.731937 2.71943 0.25
645 2.3372 2.12647 1.44824 0.25
646 8.31077 6.74591 6.55093 0.25
647 2.41123 3.02166 4.12952 0.25
648 5.18082 1.1338 0.105186 0.25
649 0.404802 4.16331 2.0598 0.25
650 8.31704 3.81297 1.43793 0.25
651 3.25531 3.26013 3.74979 0.25
652 6.77172 0.968788 7.15461 0.25
653 1.26032 6.53579 0.958989 0.25
654 0.532166 2.56485 0.0991847 0.25
655 3.59443 3.60683 6.3774 0.5
656 0.576364 3.47685 7.27448 0.25
657 1.30321 5.70029 6.03987 0.25
658 6.88262 0.252156 3.58138 0.25
659 2.58042 1.76399 7.85141 0.25
660 6.96307 5.90993 4.0267 0.5
661 8.28892 1.20311 0.0883359 0.25
662 3.88319 4.82001 4.29398 0.25
663 2.39435 3.6636 1.71703 0.25
664 6.60931 2.70971 4.73577 0.25
665 7.8182 3.86383 1.37914 0.25
666 5.89919 6.96292 6.55558 0.25
667 6.42296 3.38874 0.231029 0.25
668 7.05875 6.48424 1.72043 0.25
669 6.10485 4.88228 7.00601 0.25
670 6.03648 8.36663 4.90141 0.25
671 3.44593 4.98566 4.6064 0.25
672 2.58067 3.22031 2.03034 0.25
673 0.719925 1.14088 3.08644 0.25
674 4.95375 7.28058 3.30786 0.25
675 5.33322 3.63767 5.31815 0.25
676 7.55652 8.18346 2.09557 0.25
677 6.35512 1.49984 1.22235 0.25
678 7.57681 6.15772 4.45717 0.25
679 1.14012 6.20403 1.37236 0.25
680 3.69324 6.58769 7.99208 0.25
681 7.77547 8.34564 4.0316 0.25
682 2.17115 6.07661 1.74114 0.25
683 1.62936 7.65207 7.25931 0.25
684 0.394471 3.79151 1.65394 0.25
685 2.89208 3.48338 6.58504 0.25
686 4.34508 2.84633 6.82747 0.25
687 1.57123 4.44044 0.837946 0.25
688 3.65337 0.754174 6.3153 0.25
689 6.00524 4.16685 8.00802 0.25
690 6.14629 1.0564 2.57073 0.25
691 6.80675 1.56035 1.39563 0.25
692 5.14699 5.16281 1.81961 0.25
693 7.35332 2.00831 6.38629 0.25
694 7.35169 4.97821 4.82103 0.25
695 0.0540268 2.62346 5.94316 0.25
696 5.70837 5.93409 3.20413 0.5
697 4.34494 3.80276 6.30764 0.25
698 1.936 1.04841 5.45577 0.25
699 1.71438 6.8451 4.92544 0.25
700 4.2632 5.91368 1.08097 0.25
701 4.82135 1.7414 8.05199 0.25
702 2.20841 4.35087 7.25712 0.25
703 3.41027 6.54542 7.28761 0.5
704 4.75725 5.19032 8.11392 0.25
705 4.87218 3.23503 1.76474 0.25
706 5.032 0.058669 0.0134247 0.25
707 4.59832 3.96429 1.11478 0.5
708 5.59577 7.58637 7.80475 0.25
709 2.48063 7.08663 1.98011 0.5
710 2.13215 4.24014 6.72433 0.25
711 5.08823 6.4047 2.9345 0.25
712 0.504191 5.24937 8.03216 0.25
713 2.72199 4.09585 1.64366 0.25
714 5.18258 4.18355 0.725412 0.25
715 4.69317 6.6935 2.81595 0.25
716 6.87615 0.545467 7.42403 0.25
717 7.73847 7.66267 3.52831 0.25
718 6.21523 3.59067 6.7218 0.25
719 5.90451 4.59749 7.79259 0.25
720 1.82365 7.61007 4.31795 0.25
721 6.63607 2.04761 2.29879 0.25
722 2.47186 7.73038 3.36022 0.5
723 2.44748 7.52131 2.5723 0.25
724 7.1689 6.45681 1.25335 0.25
725 7.74472 6.40364 7.13793 0.25
726 1.06087 1.07642 5.32028 0.25
727 4.1989 0.320137 1.47088 0.25
728 3.69319 6.11269 7.91784 0.25
729 4.95983 5.92943 3.13499 0.25
730 2.95308 7.12331 7.24022 0.25
731 5.46757 3.13721 2.74488 0.25
732 4.1842 3.66634 6.80687 0.25
733 3.65849 5.43154 7.524 0.25
734 3.96107 1.12055 2.60673 0.25
735 3.62122 2.9064 6.42386 0.25
736 7.931 1.43936 8.19947 0.25
737 3.46424 0.620301 1.28202 0.25
738 0.339329 8.24881 0.480003 0.25
739 4.58208 6.19374 2.93803 0.25
740 5.38468 7.13848 3.2919 0.25
741 0.608829 7.93449 0.74672 0.25
742 3.72247 4.58119 6.06863 0.25
743 6.9749 0.825196 1.09682 0.25
744 4.39602 1.08883 2.38914 0.25
745 3.62823 4.15477 5.89395 0.25
746 1.23897 6.24426 4.78846 0.5
747 4.47522 0.461452 2.24596 0.25
748 2.74563 6.77359 6.93754 0.25
749 1.5035 1.25216 2.1516 0.25
750 0.0199909 3.4662 1.83145 0.25
751 1.12286 0.763235 4.95114 0.25
752 6.27318 4.91851 7.81163 0.25
753 3.92062 0.861279 1.85751 0.5
754 4.32655 6.13874 1.49015 0.25
755 2.80408 2.63868 1.45199 0.5
756 7.85186 6.85387 7.44153 0.25
757 5.75906 6.83345 5.60538 0.25
758 6.87649 3.97302 7.40943 0.25
759 4.56087 8.15438 5.1353 0.25
760 0.322727 2.45938 3.2187 0.25
761 3.76954 7.19191 7.1644 0.25
762 0.6593 1.77737 3.40077 0.5
763 4.04948 8.11196 2.0996 0.25
764 1.38959 6.3194 0.551994 0.25
765 7.41357 4.80766 3.24356 0.25
766 0.69934 4.27821 2.71298 0.25
767 2.59096 6.85732 7.39003 0.25
768 2.27882 2.88397 5.08673 0.25
769 7.9502 3.6901 1.8446 0.25
770 4.78273 0.932245 8.13534 0.25
771 6.69311 1.30467 6.1849 0.25
772 4.9899 2.48696 8.1237 0.25
773 5.34705 1.1614 5.07738 0.5
774 3.67771 8.00925 5.08437 0.25
775 7.89568 4.39317 2.87514 0.5
776 6.88453 3.91135 0.732633 0.5
777 6.0169 6.47808 0.0501926 0.25
778 4.81116 7.96833 0.127998 0.25
779 8.2564 8.25536 4.09769 0.25
780 2.3446 1.61609 5.97998 0.25
781 2.66972 1.63521 8.30608 0.25
782 1.37681 7.56283 0.594777 0.25
783 6.83062 3.26411 0.518906 0.25
784 2.06972 7.65769 2.2783 0.25
785 2.71558 1.6678 6.35448 0.25
786 2.51477 7.83736 2.15831 0.25
787 7.89826 7.08339 6.59897 0.25
788 0.023467 4.07667 2.35931 0.25
789 3.75355 8.26709 4.66267 0.25
790 7.05332 0.843479 6.79058 0.25
791 0.469679 4.75847 3.25565 0.5
792 2.31114 0.264571 7.81311 0.25
793 8.16565 7.15673 1.63104 0.25
794 5.31574 6.53479 6.2627 0.5
795 2.42391 4.20984 3.118 0.25
796 2.04093 5.82967 5.67655 0.25
797 6.74798 6.40811 0.980174 0.25
798 7.63645 4.32289 1.4201 0.25
799 4.2022 3.33075 6.06467 0.25
800 7.98459 2.02303 3.09564 0.25
801 3.27093 7.86889 7.07611 0.25
802 3.28849 5.40785 4.32174 0.25
803 3.19764 8.26189 7.72748 0.5
804 3.56621 7.05469 1.63711 0.25
805 1.64083 7.84251 2.09599 0.25
806 2.6003 1.90992 3.79384 0.25
807 4.70836 6.1853 5.36742 0.25
808 4.22581 2.17107 7.96181 0.25
809 1.63031 5.98731 5.81934 0.25
810 6.48519 7.55178 6.38248 0.25
811 1.67689 3.292 4.92045 0.5
812 5.73545 7.3366 0.557397 0.25
813 4.2538 1.75708 3.09002 0.25
814 1.58637 7.45152 7.73926 0.25
815 2.8615 8.1392 4.43602 0.25
816 1.10545 2.975 5.24769 0.25
817 4.35378 1.72266 8.13233 0.25
818 3.77655 1.77433 3.14727 0.25
819 1.7775 5.25898 1.32337 0.25
820 3.54327 2.96191 6.862 0.25
821 1.56889 2.10115 8.31 0.5
822 5.8313 4.4088 3.47626 0.5
823 5.06818 0.426908 8.02328 0.25
824 0.872245 0.33094 5.09436 0.25
825 3.86857 5.91505 7.50373 0.25
826 3.19598 3.5272 1.66386 0.5
827 5.70516 7.34158 6.24419 0.25
828 0.432108 1.96461 7.68202 0.25
829 8.33923 8.08835 4.599 0.25
830 0.861516 1.95059 2.63397 0.25
831 2.37666 4.31943 7.69814 0.25
832 5.78321 4.57847 1.9437 0.25
833 1.93653 1.39762 6.21449 0.25
834 4.10232 0.647567 2.55796 0.25
835 6.01117 1.81243 1.42185 0.25
836 3.41237 7.50616 7.87379 0.25
837 3.97961 5.16538 7.86256 0.25
838 7.50257 0.845887 1.19882 0.25
839 6.07154 7.63865 6.11891 0.25
840 6.96118 4.77674 7.45329 0.5
841 3.20229 7.04019 1.95112 0.25
842 0.195927 2.00041 2.66611 0.5
843 5.80263 3.74553 5.41613 0.25
844 4.78862 2.36274 0.13414 0.25
845 7.42137 2.6885 5.13937 0.25
846 3.6831 3.52617 7.39093 0.5
847 1.95434 5.2217 0.791816 0.25
848 1.67751 6.01013 5.35593 0.25
849 5.19076 7.87463 2.7621 0.25
850 6.27542 2.72989 5.41165 0.5
851 5.75142 0.103675 5.29567 0.25
852 6.98913 1.50219 7.83245 0.25
853 4.1016 7.98183 4.83428 0.25
854 4.3896 1.51509 5.92897 0.5
855 0.421646 3.95614 5.37546 0.25
856 0.722356 5.41938 3.28462 0.25
857 3.65512 6.64229 1.40226 0.25
858 2.57267 4.75337 3.65841 0.25
859 6.37427 4.59333 3.98383 0.25
860 7.59618 4.11723 0.999852 0.25
861 4.79892 2.87387 8.29541 0.25
862 6.54078 4.70507 3.48612 0.25
863 5.61113 6.53271 0.88577 0.25
864 7.55138 6.89951 2.35197 0.25
865 3.82763 5.62155 7.95097 0.25
866 5.14642 8.11309 3.17276 0.25
867 1.89902 4.03843 7.53798 0.25
868 2.28346 1.59275 0.541556 0.5
869 0.982435 3.1739 7.30841 0.25
870 6.16155 5.40663 3.15492 0.25
871 2.85776 7.50967 6.95562 0.25
872 5.76778 3.03455 4.92408 0.25
873 0.368869 8.12143 8.36399 0.25
874 4.03436 1.11103 6.3744 0.25
875 2.08526 4.18484 1.24444 0.5
876 1.22363 5.90785 5.56324 0.25
877 0.11261 5.1928 7.77491 0.25
878 5.73177 1.11256 2.34296 0.25
879 3.25634 8.09871 4.772 0.25
880 6.45064 5.85062 2.96372 0.25
881 7.19555 1.22091 1.33856 0.25
882 7.87389 7.24782 7.08325 0.25
883 0.440881 3.92853 2.50036 0.25
884 7.23599 3.30247 0.840876 0.25
885 0.782902 4.22558 5.23805 0.25
886 7.83949 7.38331 3.08997 0.25
887 1.0471 6.67291 1.3656 0.25
888 1.02464 4.83535 3.76645 0.25
889 1.41532 8.0662 2.82243 0.25
890 0.278902 4.4544 2.53038 0.25
891 1.13858 2.49623 7.77402 0.25
892 7.52858 3.6553 1.03713 0.25
893 1.0773 7.98177 0.634496 0.25
894 3.91268 5.85184 1.50684 0.25
895 3.81398 5.74219 1.05367 0.25
896 1.82073 1.35233 8.31767 0.25
897 8.00718 4.17133 1.70766 0.25
898 0.831926 4.38934 3.86088 0.25
899 0.806243 0.0830044 5.88622 0.25
900 5.14779 6.28594 5.68001 0.25
901 0.925066 1.49811 2.79087 0.25
902 7.28192 3.94954 1.39117 0.25
903 5.74194 3.70162 3.34269 0.25
904 6.79632 4.18522 7.85993 0.25
905 5.31675 0.862274 5.81014 0.25