ITEM: TIMESTEP
400000
ITEM: NUMBER OF ATOMS
1000
ITEM: BOX BOUNDS xy xz yz pp pp pp
0.0000000000000000e+00 8.3788359999999997e+00 0.0000000000000000e+00
0.0000000000000000e+00 8.3788359999999997e+00 0.0000000000000000e+00
0.0000000000000000e+00 8.3788359999999997e+00 0.0000000000000000e+00
ITEM: ATOMS id x y z radius
1 2.92697 6.8249 4.6765 0.25
2 4.69412 4.87024 5.29186 0.25
3 7.19091 4.68169 3.15807 0.25
4 7.38692 1.02023 5.88173 0.5
5 1.23498 5.67867 6.30864 0.25
6 8.34999 1.87401 3.38794 0.25
7 4.21631 3.25059 6.50352 0.25
8 4.68894 7.70045 3.07413 0.25
9 1.03365 6.14501 3.76021 0.25
10 4.20519 1.6608 3.28963 0.25
11 5.38943 8.29911 7.83544 0.25
12 5.25131 3.37698 1.43616 0.25
13 0.650598 2.45117 7.46564 0.25
14 3.53496 2.70511 7.09798 0.25
15 8.27071 2.81468 6.35772 0.25
16 7.4433 1.11331 6.95568 0.25
17 0.709559 5.53627 8.06593 0.25
18 5.78636 7.38817 8.04259 0.25
19 4.20742 1.89158 7.6827 0.25
20 7.59831 1.29647 0.552412 0.25
21 4.84116 4.12231 1.84742 0.25
22 3.99323 3.29578 1.03815 0.25
23 2.16504 3.39146 2.0273 0.25
24 2.58964 1.36684 4.08984 0.25
25 2.66097 4.40691 3.00958 0.25
26 0.32051 8.11183 5.73816 0.25
27 3.86517 0.361448 5.88142 0.25
28 4.28215 2.14107 0.0915419 0.25
29 5.06554 6.89285 3.08543 0.25
30 7.41834 7.45129 2.38356 0.25
31 2.80293 0.357796 8.1579 0.25
32 1.03855 2.73467 7.36076 0.25
33 7.72297 0.520273 5.31652 0.25
34 2.0751 4.89004 1.56432 0.25
35 8.1525 0.0709302 4.52227 0.25
36 6.87579 1.93042 5.74029 0.5
37 4.56518 1.11762 2.38411 0.25
38 2.2401 3.33642 4.47373 0.25
39 6.16201 2.65084 4.73825 0.25
40 5.17788 7.67695 3.17675 0.25
41 6.83289 2.14568 2.53245 0.25
42 5.56264 5.90624 5.7978 0.25
43 3.59805 7.56205 4.42925 0.25
44 4.01244 8.27464 5.78534 0.25
45 5.68572 4.04331 4.06665 0.25
46 3.31283 6.07559 1.49846 0.5
47 4.97627 0.83469 5.38555 0.25
48 7.98088 6.31133 6.92456 0.25
49 7.48305 6.78493 4.72416 0.25
50 7.73615 1.01417 0.907027 0.25
51 2.69922 3.36147 4.49514 0.25
52 0.752344 1.71187 2.33642 0.25
53 6.43724 5.23291 6.77748 0.25
54 5.88172 3.22314 4.03489 0.25
55 1.51463 1.41976 5.91234 0.25
56 0.929103 7.37065 0.142315 0.25
57 4.81907 0.748658 2.1546 0.25
58 2.24837 2.08121 4.27845 0.25
59 4.82539 1.53565 6.30012 0.25
60 7.88059 5.54429 5.22647 0.25
61 4.9591 8.24322 8.15344 0.25
62 5.29803 1.91762 8.02955 0.5
63 7.41911 6.66758 1.04463 0.25
64 1.24817 6.05477 0.766726 0.25
65 4.18564 0.0752212 1.8722 0.25
66 2.10972 4.71233 7.21808 0.25
67 7.89707 4.93039 7.08236 0.25
68 7.3855 0.702317 6.61178 0.25
69 0.183578 5.50267 7.47134 0.25
70 1.93349 4.77647 0.774447 0.25
71 7.9673 1.49448 0.256724 0.25
72 6.34858 6.31313 3.36393 0.25
73 0.350012 7.53369 6.79291 0.25
74 7.38738 5.63723 6.70956 0.25
75 7.20873 0.0952775 3.46466 0.25
76 7.65397 6.49649 4.34687 0.25
77 5.70966 2.84304 5.36351 0.25
78 5.40818 3.74163 1.21791 0.25
79 7.73978 5.08297 4.51107 0.25
80 5.80027 3.34187 5.42082 0.25
81 7.09572 1.38847 1.31676 0.25
82 8.21066 3.04197 5.91319 0.25
83 4.44181 5.82721 5.38441 0.25
84 1.19855 1.05387 6.00656 0.25
85 1.54116 1.48548 5.4204 0.25
86 4.83224 0.0986257 5.77509 0.25
87 1.7398 1.74897 1.23484 0.25
88 3.32285 6.87852 1.54458 0.25
89 6.59827 6.95257 0.668996 0.25
90 5.61789 6.20877 5.45096 0.25
91 4.02069 4.13407 6.21392 0.25
92 6.086 4.54099 7.2749 0.25
93 5.21235 6.36084 5.17442 0.25
94 6.8728 8.24997 4.2321 0.25
95 0.235386 4.54146 7.8548 0.5
96 5.49612 3.1127 3.42004 0.5
97 4.45522 4.92465 7.8083 0.25
98 8.2294 2.33484 3.38818 0.25
99 1.67604 6.38547 5.99646 0.25
100 6.94915 6.98646 1.01444 0.25
101 0.291979 7.871 0.123308 0.25
102 8.03016 4.67345 3.36656 0.25
103 6.65455 1.24462 1.46859 0.25
104 0.846377 4.7693 7.51455 0.25
105 5.18909 5.55751 5.22547 0.5
106 5.34282 0.2849 4.7073 0.25
107 4.28823 3.18537 7.02073 0.25
108 4.95153 1.45212 0.150593 0.25
109 0.577186 0.40529 6.21331 0.25
110 2.17355 7.97451 8.25819 0.25
111 3.24702 4.02678 7.05685 0.25
112 4.47941 2.1416 8.00468 0.25
113 1.80802 1.92794 1.90623 0.5
114 1.77705 3.89491 7.00811 0.25
115 4.58998 6.43606 5.98192 0.25
116 2.40038 7.18973 6.96696 0.25
117 4.1591 2.29904 3.79901 0.5
118 6.4914 7.15484 1.13926 0.25
119 0.833911 6.25928 2.93228 0.25
120 0.104414 2.90664 2.36077 0.25
121 3.14752 3.96342 3.56836 0.25
122 6.90606 0.693803 6.45917 0.25
123 5.37664 0.586344 5.61813 0.25
124 7.91743 8.17169 2.27213 0.25
125 3.46515 2.02441 3.85222 0.25
126 3.75279 1.19793 5.7864 0.25
127 5.23926 3.85744 1.67535 0.25
128 6.72677 5.38245 7.12275 0.25
129 1.32662 6.4358 4.08301 0.25
130 5.54689 6.19743 0.845676 0.25
131 7.05302 1.52887 6.28407 0.25
132 5.92424 4.16146 7.63915 0.25
133 3.22692 1.82939 3.53304 0.25
134 4.42683 2.58306 8.15654 0.25
135 5.49921 3.83773 3.6271 0.25
136 2.8196 2.39978 3.8011 0.5
137 2.82771 3.89672 3.18142 0.25
138 7.48434 8.06034 2.87444 0.5
139 2.7772 7.65658 4.99852 0.25
140 5.06463 7.90185 7.86634 0.25
141 7.83705 5.98586 5.03298 0.25
142 1.10986 5.05665 3.1689 0.25
143 2.34068 2.07793 8.32281 0.25
144 5.02195 1.00944 2.87431 0.5
145 7.53137 1.92384 3.95199 0.25
146 5.89147 7.37375 0.235432 0.25
147 6.62573 5.68572 4.50787 0.25
148 2.09036 2.85082 4.54189 0.25
149 4.43579 8.2018 2.58038 0.5
150 5.01147 2.95414 4.06751 0.25
151 3.64891 5.9098 7.07348 0.25
152 3.54913 4.5515 5.70777 0.25
153 6.76208 5.96872 2.17509 0.5
154 7.37753 2.45006 4.50732 0.5
155 3.02033 7.45944 7.75287 0.25
156 7.49697 3.66966 1.51953 0.25
157 7.60071 5.98928 1.49162 0.25
158 2.27363 3.59536 0.810148 0.25
159 7.15053 7.89927 4.42204 0.25
160 6.46509 1.99783 2.92299 0.25
161 0.945038 5.31492 2.73821 0.25
162 5.79637 4.14153 7.15877 0.25
163 3.40891 3.64166 4.21257 0.5
164 2.54032 3.8292 2.5281 0.5
165 5.62173 7.86202 7.73059 0.25
166 0.17028 3.81268 8.07147 0.25
167 6.3202 4.12428 0.193728 0.25
168 4.72982 6.02279 5.73682 0.25
169 3.98827 4.28627 5.74238 0.25
170 0.327655 2.92176 6.12516 0.25
171 7.78482 5.86957 1.00688 0.25
172 1.19816 3.02762 6.93396 0.25
173 4.34681 6.25357 5.55886 0.25
174 2.54085 2.15668 1.04721 0.25
175 7.73064 2.41378 5.91073 0.5
176 2.48318 5.80175 6.07893 0.25
177 5.46414 3.54239 4.02181 0.25
178 3.13348 6.62972 1.95081 0.25
179 3.53165 2.23411 3.41011 0.25
180 5.91933 6.2372 5.94408 0.25
181 6.53256 3.98444 6.84401 0.25
182 3.0616 5.14202 3.26302 0.25
183 7.82782 7.65665 1.7038 0.25
184 4.30248 5.1572 8.25483 0.25
185 5.88974 6.7422 6.06812 0.25
186 7.63557 5.9919 4.51573 0.25
187 3.31951 5.254 4.22927 0.25
188 0.913024 5.91038 3.30161 0.25
189 4.30532 6.45722 3.61507 0.25
190 4.04782 3.15609 1.5028 0.25
191 6.83726 1.52687 0.499626 0.5
192 0.796279 5.13249 7.81533 0.25
193 3.92785 5.69369 1.78113 0.25
194 2.6885 6.33449 1.92356 0.25
195 6.21932 5.68327 2.71978 0.25
196 2.23024 7.94105 2.60047 0.25
197 0.980111 8.25274 2.54866 0.25
198 7.543 4.63458 6.90199 0.25
199 1.0671 1.21273 3.11112 0.25
200 4.41023 5.11834 1.54081 0.5
201 6.53042 1.62131 3.19872 0.25
202 8.29306 3.86689 5.37967 0.25
203 3.71934 1.75713 3.51388 0.25
204 5.61759 7.9961 0.0898367 0.5
205 2.48132 7.36093 4.35494 0.5
206 0.480764 4.48567 5.26399 0.25
207 5.7866 2.6955 4.04759 0.25
208 6.97705 5.37279 4.34712 0.25
209 5.24509 6.99629 0.0232419 0.5
210 1.87873 7.97632 2.90427 0.25
211 0.705442 3.77858 5.07872 0.25
212 1.41585 7.8104 8.18596 0.5
213 0.180295 4.24422 2.60551 0.25
214 1.77322 7.96718 2.45149 0.25
215 2.90352 4.12841 4.01696 0.25
216 6.40338 1.89413 2.46632 0.25
217 4.88023 3.66009 1.96791 0.25
218 2.41746 3.03262 4.79384 0.25
219 4.35993 1.35054 2.85486 0.25
220 3.62315 3.61085 1.02923 0.25
221 4.37213 0.133923 6.01815 0.25
222 7.49295 0.919589 5.101 0.25
223 8.04153 2.81244 2.56448 0.25
224 7.19835 5.3372 7.12247 0.25
225 7.38735 2.17559 5.25957 0.25
226 4.6755 2.00562 7.5603 0.25
227 6.41232 3.60613 7.18715 0.25
228 5.48105 3.07803 4.1414 0.25
229 5.55334 5.07724 1.9572 0.25
230 0.181966 8.18752 6.49768 0.5
231 5.24682 4.55919 1.39388 0.5
232 1.99837 3.07057 4.15964 0.25
233 4.09158 5.01929 3.90509 0.25
234 6.66003 1.09148 6.64163 0.25
235 3.22651 7.1784 4.51425 0.25
236 0.929111 2.54586 7.84964 0.25
237 8.3434 3.02008 7.43124 0.25
238 3.29959 0.462509 1.71005 0.25
239 0.282281 2.31606 3.48147 0.25
240 6.66284 6.34092 1.47664 0.25
241 3.38296 7.15313 7.87262 0.25
242 1.72064 7.31047 2.69783 0.5
243 2.83554 4.70464 3.38898 0.25
244 7.08959 3.56246 1.17009 0.25
245 2.14429 0.894326 5.86501 0.25
246 7.60852 8.24122 3.65916 0.25
247 3.49654 2.56736 3.79219 0.25
248 3.54669 3.16085 1.26896 0.25
249 8.33891 5.08288 7.37536 0.25
250 1.13232 3.20533 5.4334 0.25
251 5.33571 2.64543 4.70146 0.5
252 3.1058 1.97459 4.23202 0.25
253 7.83106 5.62089 7.31735 0.5
254 7.0898 5.76703 7.08409 0.25
255 4.77391 0.80771 6.05912 0.5
256 5.89453 6.09838 0.510643 0.25
257 0.965461 0.363674 2.76761 0.25
258 1.70332 1.65824 2.64601 0.25
259 4.50064 3.00856 1.63946 0.25
260 7.83005 6.35079 1.19613 0.25
261 3.46025 0.202985 1.27609 0.25
262 3.43238 2.37761 4.22511 0.25
263 2.22409 0.267485 0.22082 0.5
264 2.72853 4.20976 3.52104 0.25
265 1.14527 3.99826 7.44279 0.5
266 0.979132 7.8908 7.05278 0.5
267 5.11198 2.68616 8.10446 0.25
268 6.26885 7.69437 0.331455 0.25
269 1.91615 5.27357 0.909417 0.25
270 3.85694 3.57293 1.45094 0.25
271 7.60374 7.82005 4.64715 0.25
272 1.66183 0.9348 2.53787 0.25
273 1.44981 3.41798 7.05365 0.25
274 0.658718 5.56129 7.57427 0.25
275 4.57754 4.40608 1.65201 0.25
276 2.24211 3.14705 1.06166 0.25
277 7.01208 0.808518 6.92011 0.25
278 3.98925 6.35387 1.10488 0.25
279 4.31182 0.388183 5.2979 0.5
280 7.99921 8.10512 4.89557 0.25
281 1.08641 6.46158 0.492841 0.25
282 6.24455 7.01854 6.27664 0.25
283 0.863712 0.0690045 6.52051 0.25
284 7.27479 4.37572 0.833623 0.25
285 1.95224 6.00555 1.07713 0.5
286 5.59236 6.70854 3.24238 0.25
287 1.62638 8.1547 3.53946 0.5
288 2.96485 7.25489 4.94595 0.25
289 2.46654 7.27131 5.07526 0.25
290 1.97996 3.91397 1.94912 0.25
291 8.11311 7.56285 7.31695 0.25
292 7.7446 2.44278 3.34403 0.25
293 7.56124 4.43203 3.37479 0.25
294 5.94322 3.71083 3.31155 0.25
295 8.16759 4.24893 1.00298 0.25
296 0.593917 4.26692 4.57211 0.5
297 3.82822 3.01832 6.87896 0.25
298 6.29187 5.09329 7.23108 0.25
299 5.86206 4.94743 7.36133 0.25
300 6.29801 3.83384 0.614865 0.25
301 0.661731 7.69839 8.17433 0.25
302 0.163188 4.33082 1.38607 0.25
303 3.72818 0.960307 1.24886 0.25
304 2.03903 2.3404 4.67675 0.25
305 0.616915 5.13203 8.31583 0.25
306 2.35987 1.91088 4.71195 0.25
307 1.53402 4.91659 7.70504 0.5
308 3.62425 5.85162 3.18009 0.25
309 4.48556 1.06668 5.38609 0.25
310 1.08425 4.69973 4.08123 0.25
311 7.25568 0.0493566 3.97786 0.25
312 0.885678 0.994123 2.32338 0.5
313 1.0634 3.69507 5.36629 0.25
314 5.51728 3.83866 3.07492 0.25
315 1.10456 5.25953 8.23725 0.25
316 1.79838 4.36017 7.27603 0.25
317 7.56995 2.38012 3.80553 0.25
318 2.1935 2.57923 4.19938 0.25
319 4.86821 7.40955 7.88676 0.25
320 2.10721 6.17476 6.03247 0.25
321 4.1455 0.689712 1.20428 0.25
322 7.26069 6.51465 5.08323 0.25
323 0.970053 6.11087 4.20947 0.25
324 4.09213 7.29858 7.6772 0.5
325 1.03449 1.85292 0.17185 0.25
326 3.99046 4.80327 5.01481 0.5
327 7.50605 7.38558 3.30612 0.25
328 2.15831 7.72247 1.74525 0.25
329 1.36048 5.92203 3.48008 0.25
330 8.16554 7.08906 7.45942 0.25
331 0.907237 5.43093 3.83197 0.5
332 7.27071 6.61506 2.21367 0.25
333 1.16218 1.627 2.01004 0.25
334 6.8761 1.59668 1.72668 0.25
335 3.22838 3.31283 0.935245 0.25
336 2.88278 7.03485 6.87186 0.25
337 4.25124 7.12 3.20997 0.5
338 6.14277 7.45939 8.26934 0.25
339 2.25979 7.98069 3.91455 0.25
340 4.97382 0.510818 4.9258 0.25
341 6.79814 8.29991 3.23389 0.25
342 0.978891 5.24133 7.40043 0.25
343 2.73534 1.22873 0.236629 0.25
344 1.27603 5.657 2.64385 0.25
345 0.411207 1.5756 2.74906 0.25
346 0.527483 2.59139 0.0374651 0.25
347 3.4263 5.89416 7.5877 0.25
348 7.17686 7.84795 2.18971 0.25
349 0.841659 2.21164 8.21628 0.25
350 6.75348 1.63819 2.71236 0.25
351 1.41039 6.83763 0.581467 0.25
352 6.49629 3.70509 7.93419 0.5
353 2.33393 8.40091 7.5677 0.25
354 1.73595 0.733454 5.53758 0.25
355 0.684319 8.33512 6.0081 0.25
356 1.93637 1.70052 5.71382 0.25
357 2.95206 4.02208 6.66609 0.25
358 6.24 3.44095 5.15342 0.25
359 4.39167 1.31089 6.4775 0.25
360 1.97274 2.18201 1.12617 0.25
361 0.784268 7.80438 0.3015 0.25
362 6.0695 3.8161 6.93344 0.25
363 7.92908 4.23278 1.9975 0.25
364 5.95602 3.69822 7.34971 0.25
365 5.46947 5.79213 0.532236 0.25
366 5.1065 6.10942 0.686982 0.25
367 2.43944 4.66893 6.85506 0.25
368 6.67797 3.19729 0.199131 0.25
369 1.07204 6.8821 0.160198 0.25
370 5.2942 0.283789 8.1115 0.25
371 2.3587 8.07339 4.39837 0.25
372 2.40578 4.6269 0.773372 0.25
373 7.13263 2.84238 5.07154 0.25
374 3.61387 4.31338 4.46024 0.25
375 5.11181 0.767694 8.01729 0.25
376 2.62769 5.89675 1.07639 0.25
377 6.4259 1.15592 2.23046 0.5
378 0.407116 3.85971 7.61093 0.25
379 4.95104 1.26992 8.01073 0.25
380 2.45026 6.87629 4.83799 0.25
381 4.08234 5.44212 5.35589 0.25
382 2.021 7.18318 4.89456 0.25
383 6.41376 5.27561 3.90442 0.5
384 1.27504 1.77972 1.47944 0.25
385 6.87281 1.61362 7.02698 0.5
386 1.40527 1.01608 5.59971 0.25
387 7.4137 0.85655 0.512555 0.25
388 0.845415 5.80194 2.82598 0.25
389 4.20605 2.57397 7.3956 0.5
390 4.11851 0.600068 6.16366 0.25
391 5.34253 4.75015 2.18989 0.25
392 8.07 2.73824 3.0459 0.25
393 2.84762 6.59655 1.52938 0.25
394 0.038226 8.06854 0.52447 0.25
395 2.28612 1.78867 1.30585 0.25
396 4.58727 7.8672 7.96447 0.25
397 5.17953 0.622586 0.113444 0.25
398 7.11778 1.77735 8.28291 0.25
399 3.11557 4.31337 3.18378 0.25
400 4.80827 4.31907 0.780777 0.25
401 2.14377 7.14622 3.72008 0.25
402 8.06316 7.99829 7.06253 0.25
403 7.64037 6.27431 0.728779 0.25
404 7.87941 6.79563 7.16226 0.25
405 0.382152 7.72626 0.639895 0.25
406 5.8257 0.365018 4.53366 0.25
407 2.40007 1.03185 8.02499 0.5
408 5.55598 3.32591 2.41105 0.25
409 2.2464 4.95051 1.10126 0.25
410 7.42746 1.10814 8.17034 0.5
411 4.51483 5.38346 5.13058 0.25
412 8.07199 7.19797 6.99955 0.25
413 1.46186 1.58747 0.23644 0.25
414 0.541021 3.14171 7.86383 0.5
415 6.56999 4.64656 2.98995 0.25
416 2.98679 3.19196 6.60614 0.25
417 3.39776 4.64147 3.77972 0.5
418 7.19222 6.72592 4.30145 0.25
419 3.94921 3.77851 5.85474 0.25
420 0.870027 3.10446 4.60834 0.25
421 3.9838 4.728 5.76426 0.25
422 2.39264 5.42366 0.968504 0.25
423 0.249643 0.245372 5.88163 0.25
424 0.479623 3.48793 4.75608 0.25
425 1.80661 2.82366 1.57201 0.5
426 7.17735 5.77261 5.05399 0.5
427 2.66899 1.78324 4.30213 0.25
428 3.89592 5.0334 3.42145 0.25
429 4.40344 4.55401 5.59928 0.25
430 1.69939 7.38292 3.51635 0.25
431 1.00144 3.49537 6.89993 0.25
432 1.55333 7.18417 4.26679 0.5
433 2.11133 1.71372 7.70202 0.25
434 0.89142 6.3481 0.921835 0.25
435 5.81151 3.56367 2.78393 0.25
436 1.26838 6.00858 2.99079 0.25
437 0.019448 1.27233 0.418442 0.25
438 0.920078 3.40699 4.99571 0.25
439 3.8293 2.53553 6.71363 0.25
440 4.91182 1.5126 7.56917 0.25
441 7.98154 4.29336 5.2895 0.25
442 2.58639 5.61188 1.44586 0.25
443 0.45939 2.93722 6.8748 0.5
444 1.94743 3.55607 1.60827 0.25
445 5.18549 7.15823 0.721266 0.25
446 4.28854 5.7069 3.56098 0.5
447 1.43962 1.86683 5.72701 0.25
448 6.04652 7.10198 5.84252 0.25
449 1.02042 5.58597 5.82389 0.25
450 2.73969 3.41691 0.992768 0.25
451 2.78784 6.91272 5.21344 0.25
452 2.42811 0.907306 0.472715 0.25
453 4.5362 4.46642 1.15186 0.25
454 0.162439 3.4615 7.34518 0.25
455 7.91961 4.89487 7.57842 0.25
456 2.91282 1.65036 3.8965 0.25
457 2.4853 3.98045 7.24869 0.5
458 8.27232 7.66163 6.82808 0.25
459 4.9902 7.70371 8.27588 0.25
460 5.93737 0.308478 5.02441 0.25
461 2.37862 3.56733 1.29201 0.25
462 6.32666 4.9616 3.22822 0.25
463 4.98948 7.34446 2.93296 0.25
464 7.38176 6.87719 7.26118 0.25
465 7.1502 2.58835 5.47998 0.25
466 4.20618 1.80707 2.77336 0.25
467 3.96864 6.28034 1.65209 0.25
468 6.92568 5.34031 3.01424 0.5
469 7.33247 7.38594 7.12464 0.25
470 1.33717 1.38774 8.18246 0.25
471 1.67965 0.959309 6.01824 0.25
472 1.91961 7.31517 1.95275 0.25
473 7.62713 5.15239 5.46863 0.25
474 5.10466 5.80289 5.95464 0.25
475 1.38266 1.25372 2.72 0.25
476 7.24125 1.00916 7.39004 0.25
477 3.20161 5.34496 3.74425 0.25
478 6.1282 3.30691 7.49481 0.25
479 3.34845 7.29425 7.41907 0.25
480 4.9059 0.409145 2.55071 0.25
481 7.95948 2.13818 4.14665 0.25
482 7.23543 5.11446 4.62341 0.25
483 8.27911 5.7682 4.9198 0.25
484 2.81848 0.729717 0.154487 0.25
485 7.77291 7.60504 6.96535 0.25
486 2.54883 6.20473 5.80137 0.25
487 8.30126 7.74848 4.23354 0.25
488 4.40136 4.07808 5.89572 0.25
489 0.493912 8.20161 0.430697 0.25
490 7.85417 8.09129 1.82846 0.25
491 4.36578 3.00147 1.1361 0.25
492 2.21568 1.615 4.34687 0.25
493 6.1873 4.28872 6.82924 0.25
494 4.64811 7.45828 2.63197 0.25
495 1.31499 6.00594 5.92694 0.25
496 3.18981 7.62089 4.71911 0.25
497 6.35643 4.39367 7.69234 0.25
498 3.37369 2.85871 4.24294 0.25
499 0.498645 5.12314 7.42795 0.25
500 3.88972 2.91463 6.36512 0.25
501 6.14571 3.98325 4.10519 0.25
502 1.6128 8.05194 7.57811 0.25
503 5.94152 5.01361 2.60435 0.5
504 7.61731 7.82654 2.16765 0.25
505 5.81402 1.29817 2.74877 0.25
506 7.29216 6.34988 4.61506 0.25
507 1.2433 0.366721 3.17739 0.25
508 0.673264 0.0605482 5.52394 0.25
509 8.29553 4.97329 5.06655 0.5
510 4.96207 1.83319 5.49107 0.25
511 0.580129 0.502053 5.71371 0.25
512 0.8403 0.722422 3.07855 0.25
513 3.94961 1.07566 5.33153 0.25
514 2.00545 5.65721 6.03406 0.25
515 0.743056 7.61257 6.45093 0.25
516 7.45253 1.75763 6.06675 0.25
517 7.486 5.49273 4.39848 0.25
518 0.976712 3.60015 4.6095 0.25
519 6.47263 1.90263 1.97206 0.25
520 6.77894 1.93303 6.41682 0.25
521 7.51693 1.71478 0.17118 0.25
522 6.49899 1.56752 7.77178 0.25
523 5.35526 6.64107 5.47806 0.25
524 2.58106 0.36647 7.74648 0.25
525 6.32887 4.08656 7.29276 0.25
526 6.96536 5.35479 6.70319 0.25
527 7.52226 8.02564 4.1237 0.25
528 7.47205 1.52781 6.5649 0.25
529 6.58206 1.20892 2.97134 0.25
530 2.34594 1.73737 6.11616 0.25
531 8.01405 7.96566 3.8922 0.25
532 1.27754 0.76915 2.86337 0.25
533 6.96851 1.67375 7.79003 0.25
534 8.12566 5.95231 1.38123 0.25
535 0.39606 3.2751 5.52159 0.5
536 7.00751 2.72358 5.95044 0.25
537 4.08157 0.875041 5.75563 0.25
538 6.67142 5.26954 4.75028 0.25
539 2.43315 1.19741 6.22001 0.25
540 8.05897 6.51489 1.87391 0.5
541 7.59791 4.13944 1.60182 0.25
542 2.26891 2.16192 7.85566 0.25
543 3.27097 7.35876 6.96264 0.25
544 7.60626 6.61075 6.83475 0.25
545 1.37394 5.9168 4.01236 0.25
546 4.70136 5.99623 6.1841 0.25
547 5.20511 2.54544 0.189275 0.25
548 5.97497 7.244 6.60409 0.25
549 0.157432 7.84403 7.20382 0.25
550 6.02452 6.98468 8.32475 0.25
551 4.63872 1.59852 2.54114 0.25
552 3.67538 5.26992 3.8441 0.25
553 6.95776 7.77601 3.70259 0.5
554 4.49279 6.32161 3.18701 0.25
555 4.98183 6.6291 3.74582 0.5
556 6.98511 0.795632 0.779838 0.25
557 7.39566 4.95173 3.88232 0.5
558 6.36828 8.25781 3.52983 0.25
559 1.27413 0.308688 5.92758 0.5
560 5.07263 3.30668 2.29533 0.25
561 2.97136 3.06617 4.19105 0.25
562 5.38913 0.0700805 5.65164 0.25
563 2.35272 6.59184 1.55665 0.25
564 5.86664 6.8425 0.708853 0.5
565 6.54152 1.50588 6.31198 0.25
566 1.26803 1.73526 2.44928 0.25
567 4.28738 5.95509 5.91543 0.25
568 6.10539 1.30689 3.19552 0.25
569 2.4669 8.29931 8.01378 0.25
570 1.96649 6.73709 4.69337 0.25
571 2.94216 4.45574 6.92256 0.25
572 8.16627 2.77898 3.85605 0.5
573 4.1583 1.38495 2.39868 0.25
574 1.63447 5.96422 6.27024 0.25
575 2.15331 1.65959 8.17779 0.25
576 4.22587 5.70549 7.59262 0.25
577 5.43986 0.320706 5.16915 0.25
578 1.98951 7.58625 3.84822 0.25
579 7.47254 4.92041 7.29915 0.25
580 7.4055 0.163578 4.69083 0.5
581 4.31932 4.52424 6.13462 0.25
582 5.95954 2.97508 4.44407 0.25
583 5.79133 3.64559 4.65363 0.5
584 4.83694 6.53786 5.58437 0.25
585 4.88779 3.06 1.32101 0.25
586 1.661 0.228256 2.54506 0.5
587 4.83281 6.9848 2.656 0.25
588 5.869 5.17217 3.31169 0.25
589 0.175347 2.55235 7.46477 0.25
590 3.62906 6.60636 1.87047 0.25
591 6.27406 1.37512 1.14362 0.25
592 7.29811 7.17885 1.70683 0.5
593 6.70364 6.83807 1.47053 0.25
594 2.20783 4.6198 0.0193837 0.5
595 0.66509 3.90227 8.03098 0.25
596 2.02152 0.877465 0.769268 0.25
597 0.0201104 0.248953 5.16079 0.5
598 2.67754 6.40662 1.14031 0.25
599 1.98259 8.25806 7.89777 0.25
600 7.8933 0.911591 5.3276 0.25
601 0.73649 0.862031 6.02388 0.25
602 3.80415 0.192177 2.25235 0.25
603 4.27989 5.67013 8.0815 0.25
604 7.43363 5.12372 6.81961 0.25
605 7.92373 2.07937 3.64984 0.25
606 2.06698 8.10107 2.12572 0.25
607 4.57782 5.38478 7.86409 0.25
608 3.54284 7.68957 7.23379 0.25
609 6.82173 4.90432 4.37466 0.25
610 1.88597 1.2021 5.60482 0.25
611 3.03622 0.579165 7.78852 0.25
612 0.430103 7.46138 0.211057 0.25
613 6.31395 1.53087 8.24438 0.25
614 4.74901 0.96742 4.99277 0.25
615 4.83666 2.67371 3.71481 0.25
616 1.22938 5.56799 3.10945 0.25
617 1.32304 7.87182 2.30988 0.25
618 7.65875 7.32242 4.16323 0.5
619 7.96912 8.0225 4.39159 0.25
620 8.18413 7.49376 2.31399 0.5
621 4.39838 6.33231 4.09615 0.25
622 6.12205 6.47999 6.35938 0.25
623 5.17335 6.60676 0.712851 0.25
624 0.912133 2.91806 5.09371 0.25
625 1.11579 5.50985 7.77107 0.25
626 3.70829 0.512596 1.43008 0.25
627 4.87789 4.61511 2.00662 0.25
628 8.20988 3.59529 2.39934 0.5
629 6.93293 3.06853 0.597013 0.25
630 1.11274 8.30364 2.99594 0.25
631 1.75628 1.42351 7.87604 0.25
632 7.39849 7.91759 1.71146 0.25
633 5.94279 7.60289 0.680377 0.25
634 3.1394 7.79881 3.76616 0.25
635 0.804542 7.13363 0.830884 0.5
636 1.50238 2.2201 1.27486 0.25
637 5.79046 0.377462 5.49401 0.25
638 4.91233 1.32695 5.38144 0.25
639 4.65342 1.83607 -0.00854526 0.25
640 5.04866 7.59497 0.424458 0.25
641 1.30482 6.71384 5.32787 0.25
642 3.66486 0.726517 5.54296 0.25
643 6.26638 6.63273 5.89041 0.25
644 5.84477 0.846542 3.05404 0.25
645 2.34467 2.25235 1.46079 0.25
646 8.01258 6.83815 6.68001 0.25
647 2.50078 2.9585 4.2936 0.25
648 5.27177 1.12173 8.30795 0.25
649 0.326708 4.42336 1.86535 0.25
650 8.34689 3.87923 1.33565 0.25
651 3.22097 3.03742 3.7761 0.25
652 7.40903 0.580142 7.12279 0.25
653 1.36091 6.49958 0.949525 0.25
654 1.04483 2.65064 8.27436 0.25
655 3.55765 3.6046 6.48037 0.5
656 0.641658 3.56731 7.23942 0.25
657 1.52782 5.58959 5.96909 0.25
658 6.78682 0.0562235 3.76103 0.25
659 2.56398 1.76269 7.89856 0.25
660 7.07734 5.99782 3.98908 0.5
661 8.14885 1.16171 8.38663 0.25
662 3.91863 4.66926 4.26421 0.25
663 2.36582 3.73554 1.77874 0.25
664 6.72794 2.74386 4.76832 0.25
665 7.86133 3.89524 1.25161 0.25
666 5.81994 6.79494 6.53121 0.25
667 6.49464 3.3077 0.600987 0.25
668 7.01642 6.54473 1.76814 0.25
669 6.09641 4.80929 6.85256 0.25
670 5.68428 8.3056 4.86377 0.25
671 3.47602 4.78608 4.51082 0.25
672 2.66011 3.33508 1.97885 0.25
673 0.596431 1.14015 2.96589 0.25
674 4.86426 7.31939 3.38571 0.25
675 5.42357 3.6791 5.32089 0.25
676 7.43806 8.28226 2.09381 0.25
677 6.36143 1.58789 1.61531 0.25
678 7.70907 6.38834 4.87637 0.25
679 1.2212 6.11749 1.23797 0.25
680 3.67756 6.77699 7.97462 0.25
681 7.82394 0.0118574 4.09989 0.25
682 2.53518 6.13775 1.5181 0.25
683 1.73733 7.86611 7.1199 0.25
684 0.392313 3.90331 1.64242 0.25
685 2.70856 3.62329 6.59989 0.25
686 4.2839 2.82056 6.69243 0.25
687 2.31125 4.1504 0.648531 0.25
688 3.66364 0.752638 6.04572 0.25
689 6.1429 4.3324 8.13494 0.25
690 6.1898 1.0363 2.80845 0.25
691 7.06827 1.10696 1.74197 0.25
692 5.05636 5.06775 1.97506 0.25
693 7.25254 1.96389 6.45844 0.25
694 7.59535 5.16582 4.96649 0.25
695 0.053877 3.30116 6.25296 0.25
696 5.71636 5.94397 3.28059 0.5
697 4.24483 3.71597 6.27377 0.25
698 1.66488 1.03861 5.19956 0.25
699 1.58765 6.92947 4.98356 0.25
700 3.80152 5.51951 1.26539 0.25
701 4.61796 1.66484 7.91822 0.25
702 2.18453 4.52642 7.61987 0.25
703 3.38809 6.63897 7.28935 0.5
704 4.74017 5.06431 8.22452 0.25
705 4.95489 3.21332 1.79179 0.25
706 5.13538 0.125615 0.207238 0.25
707 4.61182 3.72595 1.28216 0.5
708 5.35252 7.50463 7.9136 0.25
709 2.61206 7.14168 1.90985 0.5
710 2.04259 4.3688 6.82666 0.25
711 5.25501 6.41822 3.0676 0.25
712 0.371526 5.29989 7.89973 0.25
713 2.44868 4.20353 1.8561 0.25
714 5.17832 3.99633 0.858456 0.25
715 4.77656 6.59426 2.98124 0.25
716 6.87095 1.21536 7.67145 0.25
717 7.73675 7.72175 3.53209 0.25
718 6.01003 3.34708 7.00827 0.25
719 5.90686 4.64239 7.75377 0.25
720 1.87858 7.92237 4.25636 0.25
721 6.88577 1.75893 2.23804 0.25
722 2.48289 7.66542 3.30534 0.5
723 2.49877 7.54352 2.54554 0.25
724 7.02721 6.5604 1.27124 0.25
725 7.62041 6.40088 7.32866 0.25
726 0.955304 0.869541 5.58037 0.25
727 4.00633 0.220622 1.37302 0.25
728 3.67368 6.28063 7.86172 0.25
729 5.02747 5.84234 3.6247 0.25
730 2.88697 7.24001 7.2736 0.25
731 5.31171 3.44035 2.75796 0.25
732 4.2188 3.65204 6.81878 0.25
733 3.73809 5.54422 7.44518 0.25
734 4.23757 0.919619 2.65642 0.25
735 3.43822 2.86014 6.61209 0.25
736 7.91442 1.67801 8.20985 0.25
737 3.30605 0.699923 1.20198 0.25
738 0.349964 8.13946 0.942515 0.25
739 4.88843 6.12098 3.22125 0.25
740 5.3651 7.18593 3.27818 0.25
741 0.8039 7.9318 0.775458 0.25
742 3.81004 4.55126 6.16425 0.25
743 7.02513 0.883374 1.2984 0.25
744 4.48905 0.576847 2.44756 0.25
745 3.5402 4.14275 5.96186 0.25
746 1.36653 6.2292 4.79442 0.5
747 4.63324 0.305847 2.01998 0.25
748 2.64753 6.87126 7.30046 0.25
749 1.57764 1.36057 2.25686 0.25
750 8.37809 3.56252 1.6815 0.25
751 1.34004 0.65106 5.29566 0.25
752 6.32854 4.86166 7.63081 0.25
753 4.06484 0.789741 1.92615 0.5
754 4.21803 5.58974 0.956966 0.25
755 2.79614 2.81415 1.37533 0.5
756 7.7357 6.8347 7.57873 0.25
757 5.86225 6.66254 5.59037 0.25
758 6.79459 3.83825 7.26131 0.25
759 4.44142 8.13501 5.6192 0.25
760 0.17903 2.74434 3.25948 0.25
761 3.72852 7.26217 7.04234 0.25
762 0.681966 1.7229 3.45434 0.5
763 3.87152 8.0786 2.10654 0.25
764 1.55035 6.38012 0.505247 0.25
765 7.60191 4.94257 3.17217 0.25
766 0.450085 4.519 2.32799 0.25
767 2.89785 7.01022 7.6951 0.25
768 2.08772 2.72229 5.02305 0.25
769 7.9294 3.82327 1.70446 0.25
770 4.80848 0.945293 0.0102595 0.25
771 6.74514 1.06177 6.15151 0.25
772 4.82233 2.4449 7.81157 0.25
773 5.50705 0.956402 4.95048 0.5
774 4.01563 8.01412 5.39174 0.25
775 7.8084 4.37867 2.74748 0.5
776 7.00304 3.80785 0.472099 0.5
777 5.83781 6.48469 0.0703773 0.25
778 4.89581 8.07016 0.272025 0.25
779 8.34305 8.27416 4.10787 0.25
780 2.3452 1.37126 5.75822 0.25
781 2.66462 1.66496 0.0123911 0.25
782 1.38652 7.26417 0.291421 0.25
783 6.75915 3.21814 0.983545 0.25
784 2.13066 7.65653 2.2235 0.25
785 2.18463 1.52617 6.51839 0.25
786 2.49303 7.87485 2.13174 0.25
787 7.60225 7.10809 6.86802 0.25
788 8.37226 4.36098 2.19953 0.25
789 3.56006 7.935 4.04444 0.25
790 7.05288 0.354622 6.81602 0.25
791 0.419525 4.76851 3.08487 0.5
792 2.16281 0.33399 7.89644 0.25
793 8.0615 7.23101 1.60063 0.25
794 5.28595 6.47966 6.16541 0.5
795 2.37088 4.03713 3.22213 0.25
796 2.20026 5.85595 5.61637 0.25
797 6.57719 6.66889 1.0563 0.25
798 7.66092 4.36376 1.14228 0.25
799 4.02858 3.32191 6.04392 0.25
800 7.92179 2.00116 3.11684 0.25
801 3.16241 7.90553 6.918 0.25
802 3.81186 5.10364 4.31284 0.25
803 3.10984 8.29794 7.59952 0.5
804 3.75167 7.07408 1.68127 0.25
805 1.7158 7.77858 1.99151 0.25
806 2.43326 1.74357 3.89882 0.25
807 4.77156 6.16939 5.29467 0.25
808 4.01816 2.19168 8.0404 0.25
809 1.76431 5.9608 5.78079 0.25
810 6.43113 7.40112 6.50914 0.25
811 1.62472 3.2585 4.86316 0.5
812 5.52081 7.44766 0.544181 0.25
813 4.34642 2.14563 3.10709 0.25
814 1.58457 7.56529 7.46749 0.25
815 2.86497 7.95135 4.5391 0.25
816 0.509278 3.02495 4.87532 0.25
817 4.1766 1.73704 8.15847 0.25
818 3.88043 2.01451 3.11616 0.25
819 2.13011 5.33365 1.35435 0.25
820 3.30271 3.1194 6.98018 0.25
821 1.54643 2.12535 8.10249 0.5
822 6.01944 4.37587 3.48055 0.5
823 4.84489 0.356924 8.26171 0.25
824 0.85661 0.436212 5.25933 0.25
825 3.84947 6.06239 7.46611 0.25
826 3.05762 3.74538 1.54417 0.5
827 5.71134 7.13892 6.21511 0.25
828 0.453676 2.41145 7.94318 0.25
829 0.0474687 8.06259 4.60203 0.25
830 0.929172 1.9774 2.77035 0.25
831 2.43879 4.17119 7.90794 0.25
832 5.75691 4.62845 1.9659 0.25
833 1.96112 1.36832 6.07436 0.25
834 4.05506 0.410888 2.65847 0.25
835 6.67995 1.64659 1.1937 0.25
836 3.43167 7.64333 7.69982 0.25
837 4.06354 5.29739 7.77551 0.25
838 7.40233 0.679668 1.05179 0.25
839 6.09949 7.49566 6.15682 0.25
840 6.833 4.66391 7.06339 0.5
841 3.39279 7.04346 1.99924 0.25
842 0.171921 2.23972 2.70988 0.5
843 5.92348 3.84297 5.37407 0.25
844 4.7893 2.31137 8.3239 0.25
845 7.59015 2.6642 5.21919 0.25
846 3.71775 3.4956 7.41383 0.5
847 2.25148 5.08887 0.602009 0.25
848 1.82084 5.93573 5.30222 0.25
849 5.0139 7.76052 2.72243 0.25
850 6.44109 2.81846 5.46039 0.5
851 5.72523 8.31132 5.31682 0.25
852 6.66008 1.8868 8.13235 0.25
853 4.35163 8.09151 5.09552 0.25
854 4.32814 1.61975 5.78265 0.5
855 0.375127 4.01123 5.31301 0.25
856 0.751525 5.46699 3.12882 0.25
857 3.77543 6.66602 1.43728 0.25
858 2.5985 4.58292 3.81762 0.25
859 6.6433 4.61966 3.94447 0.25
860 7.69503 4.04104 0.793583 0.25
861 4.72904 2.93617 7.93048 0.25
862 6.7678 4.7313 3.48454 0.25
863 5.67707 5.96005 0.102925 0.25
864 7.6551 6.99669 2.36123 0.25
865 3.84637 5.75057 7.8715 0.25
866 5.01215 8.11966 3.11109 0.25
867 1.89106 4.16963 7.72847 0.25
868 2.17984 1.63891 0.571046 0.5
869 1.0037 3.23511 7.31593 0.25
870 6.24008 5.45579 3.17511 0.25
871 2.7872 7.53205 6.90069 0.25
872 5.91694 3.03729 4.98194 0.25
873 0.178405 0.118701 0.672775 0.25
874 4.05229 1.08807 6.18528 0.25
875 2.03498 4.24187 1.28463 0.5
876 1.41889 5.74499 5.50861 0.25
877 8.24822 5.22033 7.78337 0.25
878 5.73139 0.930072 2.5531 0.25
879 3.37416 8.02368 4.49636 0.25
880 6.44412 6.00933 2.94678 0.25
881 7.49517 1.03591 1.36016 0.25
882 7.72754 7.25929 7.34346 0.25
883 0.391671 4.01764 2.12902 0.25
884 7.2944 3.22273 0.855122 0.25
885 0.906926 4.19514 5.25305 0.25
886 7.96592 7.51948 3.07842 0.25
887 1.06874 6.6088 1.30026 0.25
888 1.04905 4.75152 3.56142 0.25
889 1.35121 7.93673 2.76878 0.25
890 0.0287606 4.72674 2.50043 0.25
891 1.10586 2.24129 7.49433 0.25
892 7.57331 3.60139 1.00376 0.25
893 1.19853 7.68011 0.504578 0.25
894 4.12548 5.91353 1.35222 0.25
895 3.83823 5.92223 0.985389 0.25
896 1.80615 1.31475 8.36837 0.25
897 8.03416 4.25493 1.4796 0.25
898 0.639683 4.64056 3.85164 0.25
899 0.958671 8.03406 6.28841 0.25
900 5.17305 6.15867 5.59818 0.25
901 0.876952 1.48131 2.76325 0.25
902 7.34523 3.99287 1.16545 0.25
903 5.90022 3.66582 3.86478 0.25
904 6.79486 4.20002 7.62724 0.25
905 5.33282 1.11379 5.66005 0.25