ITEM: TIMESTEP
990000
ITEM: NUMBER OF ATOMS
1000
ITEM: BOX BOUNDS xy xz yz pp pp pp
0.0000000000000000e+00 8.3788359999999997e+00 0.0000000000000000e+00
0.0000000000000000e+00 8.3788359999999997e+00 0.0000000000000000e+00
0.0000000000000000e+00 8.3788359999999997e+00 0.0000000000000000e+00
ITEM: ATOMS id x y z radius
1 2.67006 7.02534 5.06407 0.25
2 4.70953 5.41631 4.92066 0.25
3 6.97033 4.62395 3.21113 0.25
4 7.36683 1.12645 5.82085 0.5
5 1.29578 5.59868 6.35094 0.25
6 8.17814 1.71971 3.41447 0.25
7 4.15528 3.16857 6.72962 0.25
8 4.8521 7.77494 3.0264 0.25
9 0.68266 6.18506 3.83516 0.25
10 4.09484 1.49254 3.42695 0.25
11 5.18994 0.0615752 8.06166 0.25
12 5.086 3.49795 1.39518 0.25
13 0.492601 2.45187 7.4477 0.25
14 3.63016 2.80448 7.29954 0.25
15 0.233112 2.75787 6.07387 0.25
16 7.53074 1.01954 6.59724 0.25
17 1.09703 5.2827 8.24354 0.25
18 6.22713 7.50176 8.11796 0.25
19 4.57334 1.95591 7.49752 0.25
20 7.62387 1.39928 0.634001 0.25
21 4.82663 4.21961 1.82113 0.25
22 4.27035 3.26354 1.27306 0.25
23 2.12406 3.30945 1.91447 0.25
24 2.84957 1.94074 4.66076 0.25
25 2.68641 4.45235 2.90983 0.25
26 0.374285 8.27976 5.70473 0.25
27 3.83427 0.434791 6.02825 0.25
28 4.48028 2.36512 0.0419146 0.25
29 4.99777 6.95119 3.07374 0.25
30 7.46787 7.40137 2.30045 0.25
31 2.74981 0.308611 7.99334 0.25
32 0.950755 2.66706 7.3154 0.25
33 7.70761 0.25717 5.08808 0.25
34 1.98918 5.56166 1.60885 0.25
35 7.94548 0.106104 4.62843 0.25
36 6.82036 2.05797 5.87446 0.5
37 4.03782 1.43206 2.15732 0.25
38 2.06677 3.35661 4.19073 0.25
39 6.06178 2.62684 4.7943 0.25
40 5.26757 7.72422 3.2375 0.25
41 6.45234 2.14413 2.94455 0.25
42 5.551 6.34154 5.42761 0.25
43 3.57949 7.96766 4.59675 0.25
44 4.16147 8.0778 5.17193 0.25
45 5.66117 3.9628 3.97466 0.25
46 3.15706 6.05431 1.32552 0.5
47 4.66321 0.894892 5.27037 0.25
48 8.24189 6.20308 6.86973 0.25
49 6.97808 6.93729 4.6359 0.25
50 7.71116 1.29415 1.13107 0.25
51 2.57011 3.39838 4.34482 0.25
52 0.703799 1.63698 2.37807 0.25
53 6.68391 4.94084 6.8413 0.25
54 5.78352 3.16584 4.05876 0.25
55 1.6306 1.05087 6.02029 0.25
56 1.31902 7.3389 0.289389 0.25
57 4.7216 0.740713 1.96945 0.25
58 2.28701 2.14177 4.09617 0.25
59 4.88053 1.03064 6.23375 0.25
60 7.55668 5.3831 5.26468 0.25
61 5.06016 7.92533 7.95712 0.25
62 5.15195 1.91779 0.131018 0.5
63 7.38419 6.56897 1.11979 0.25
64 1.08027 6.18065 0.697083 0.25
65 4.22944 0.105279 1.79548 0.25
66 2.42005 4.80588 7.12016 0.25
67 8.26127 4.861 7.71592 0.25
68 7.26486 0.648594 6.4295 0.25
69 0.481097 5.46718 7.60444 0.25
70 1.69142 4.81998 0.950911 0.25
71 8.01823 1.325 0.353266 0.25
72 6.26318 6.25324 3.65367 0.25
73 0.641097 7.63611 6.84163 0.25
74 7.49953 5.5452 6.90654 0.25
75 7.23389 0.0164365 3.34553 0.25
76 7.43226 6.71838 4.77975 0.25
77 5.55034 2.77768 5.41377 0.25
78 5.30717 3.89046 1.11453 0.25
79 7.75958 5.27588 4.36599 0.25
80 5.64632 3.25561 5.43744 0.25
81 7.28181 1.60852 1.0064 0.25
82 0.22031 3.20166 6.18248 0.25
83 4.44265 5.83419 5.64483 0.25
84 1.10977 1.0369 5.99056 0.25
85 1.3536 1.09521 5.21483 0.25
86 4.61668 8.26148 5.37669 0.25
87 1.91568 2.20134 0.707901 0.25
88 3.17973 6.84137 1.50943 0.25
89 6.87301 7.29316 0.890529 0.25
90 5.24003 6.76516 5.5013 0.25
91 4.26627 4.16635 6.01212 0.25
92 6.33887 4.52437 7.45541 0.25
93 4.75691 6.70034 5.62215 0.25
94 6.81571 8.32107 3.99752 0.25
95 0.487322 4.47507 7.95185 0.5
96 5.37195 3.09774 3.38919 0.5
97 4.13423 4.98595 8.24799 0.25
98 8.27625 2.16243 3.4574 0.25
99 1.70164 6.33892 6.01566 0.25
100 6.91854 6.81443 1.10722 0.25
101 0.661595 7.79931 8.25522 0.25
102 7.7517 4.63726 3.48405 0.25
103 6.76691 1.12383 1.49719 0.25
104 1.11185 4.64743 7.49604 0.25
105 4.85933 6.16367 5.0833 0.5
106 5.44189 0.609209 4.7015 0.25
107 4.01898 3.1658 7.18357 0.25
108 4.6428 1.34388 0.00110508 0.25
109 0.676305 0.796645 5.85321 0.25
110 2.23205 7.92913 8.30287 0.25
111 3.45798 3.87543 6.88226 0.25
112 4.67011 2.07897 7.98654 0.25
113 1.66145 1.92346 1.82502 0.5
114 1.96705 3.63088 7.1745 0.25
115 4.94931 6.01168 6.36649 0.25
116 2.5674 7.011 7.1227 0.25
117 4.05727 2.20176 3.65649 0.5
118 6.56657 7.1343 1.29035 0.25
119 1.04331 6.54348 3.67922 0.25
120 0.00873816 2.85588 3.0813 0.25
121 3.13725 4.08777 3.55714 0.25
122 6.84318 0.812562 6.3408 0.25
123 5.05061 0.689931 5.44622 0.25
124 8.04206 8.15291 2.28855 0.25
125 3.37932 1.96384 3.96482 0.25
126 3.70121 1.30346 6.02927 0.25
127 5.19597 3.94267 1.62642 0.25
128 6.74987 5.33365 7.25063 0.25
129 0.924674 6.49141 4.18158 0.25
130 5.68224 6.30737 8.35442 0.25
131 7.03808 1.62926 6.36471 0.25
132 6.02003 4.17525 7.54933 0.25
133 3.03578 1.75022 3.68019 0.25
134 4.4703 2.85638 0.0308508 0.25
135 5.4796 3.76768 3.52628 0.25
136 2.87309 2.47518 3.7254 0.5
137 2.89314 4.04636 3.08562 0.25
138 7.45653 7.96323 2.79037 0.5
139 2.63889 7.50498 5.1633 0.25
140 5.42569 7.62918 7.83788 0.25
141 7.67559 5.84815 4.97085 0.25
142 1.08399 5.24236 3.25963 0.25
143 2.3255 2.01963 8.33822 0.25
144 5.06626 1.18821 2.52402 0.5
145 7.42895 1.94606 3.93843 0.25
146 6.1383 7.41129 0.208348 0.25
147 6.35934 5.69077 4.49914 0.25
148 2.26311 3.06651 4.57034 0.25
149 4.57512 8.23394 2.50119 0.5
150 4.93478 2.8256 4.01574 0.25
151 3.62726 5.80648 7.13079 0.25
152 3.81105 4.62403 5.54194 0.25
153 6.63922 6.02556 2.39724 0.5
154 7.36937 2.48382 4.55157 0.5
155 3.07739 7.20534 7.76688 0.25
156 7.48744 3.54985 1.54056 0.25
157 7.54812 5.92036 1.69686 0.25
158 2.59907 3.78779 0.873562 0.25
159 6.98949 7.94308 4.31671 0.25
160 6.29772 1.75745 3.15531 0.25
161 0.888563 5.32758 2.7925 0.25
162 5.95256 4.2967 7.07015 0.25
163 3.28089 3.75351 4.25627 0.5
164 2.47945 3.79266 2.48256 0.5
165 5.53409 8.07427 7.78998 0.25
166 0.230799 3.70868 7.87942 0.25
167 6.63308 4.15102 8.18972 0.25
168 4.88682 5.95268 5.88287 0.25
169 4.18085 4.36613 5.5848 0.25
170 8.29475 2.88154 6.4271 0.25
171 7.66162 5.75257 1.21789 0.25
172 1.26421 2.93193 6.94154 0.25
173 4.50471 6.03218 6.16215 0.25
174 2.36697 2.18725 0.979252 0.25
175 7.67477 2.52421 6.02958 0.5
176 2.56736 5.77871 6.03622 0.25
177 5.36763 3.53477 3.94235 0.25
178 2.99743 6.57096 1.77727 0.25
179 3.3971 1.98862 3.43832 0.25
180 5.77608 6.75724 5.55828 0.25
181 6.74669 4.15162 6.87888 0.25
182 3.09068 5.31852 3.36101 0.25
183 7.93841 7.52452 1.69469 0.25
184 3.74475 5.37461 8.3487 0.25
185 5.88797 6.96277 6.03202 0.25
186 7.57728 5.78184 4.50195 0.25
187 2.83026 5.14163 4.06671 0.25
188 0.607623 5.92187 3.38885 0.25
189 4.05997 6.7366 3.473 0.25
190 3.91186 3.63223 1.40356 0.25
191 6.91276 1.50022 0.336679 0.5
192 1.13044 4.9804 7.87648 0.25
193 3.96404 5.64641 0.92279 0.25
194 2.52216 6.30842 1.78376 0.25
195 6.07787 5.73616 2.79785 0.25
196 2.20935 8.03889 2.63757 0.25
197 1.28419 8.3535 2.3816 0.25
198 7.78502 4.89364 7.56266 0.25
199 1.20061 1.33207 3.19747 0.25
200 4.51585 5.42404 1.42681 0.5
201 6.62819 1.32578 3.15314 0.25
202 8.29062 3.87876 5.36378 0.25
203 3.6093 1.58894 3.64268 0.25
204 5.68157 8.02682 0.0927597 0.5
205 2.4444 7.45772 4.46056 0.5
206 0.377436 4.55081 5.18001 0.25
207 5.71923 2.67456 4.02414 0.25
208 6.72928 5.33141 4.32539 0.25
209 5.60438 7.0645 8.18186 0.5
210 1.85238 8.06684 2.99853 0.25
211 0.668815 3.82118 5.04752 0.25
212 1.45906 8.01493 8.29045 0.5
213 0.135139 4.04119 2.73322 0.25
214 1.7239 8.07077 2.46474 0.25
215 2.81022 4.26717 3.91348 0.25
216 6.24555 1.82558 2.66697 0.25
217 4.86215 3.69828 1.83131 0.25
218 2.47715 3.35003 4.8468 0.25
219 4.31096 0.927137 2.7574 0.25
220 3.5557 3.55303 0.985684 0.25
221 4.17835 8.22908 5.68308 0.25
222 7.38424 0.684057 5.10887 0.25
223 8.1492 2.7495 2.65016 0.25
224 7.26469 5.47954 7.32253 0.25
225 7.32201 2.31215 5.32944 0.25
226 4.8875 2.31839 7.62295 0.25
227 6.46966 3.71432 6.98885 0.25
228 5.3363 3.01869 4.11547 0.25
229 5.5847 5.10208 1.81174 0.25
230 0.380112 8.18739 6.38875 0.5
231 5.30127 4.65167 1.34804 0.5
232 1.90561 2.89456 4.27773 0.25
233 3.77206 5.21195 4.31221 0.25
234 6.59387 1.63401 6.50331 0.25
235 3.44924 7.47706 4.59527 0.25
236 0.904557 2.41709 8.21766 0.25
237 0.0788519 2.69808 7.39682 0.25
238 3.53057 1.01576 1.13576 0.25
239 0.249986 2.31753 3.78985 0.25
240 6.5965 6.33642 1.64931 0.25
241 3.48283 7.02587 7.97752 0.25
242 1.64177 7.40545 2.77408 0.5
243 2.83873 4.82347 3.26863 0.25
244 7.03249 3.56852 1.27366 0.25
245 2.11233 1.20872 5.85081 0.25
246 7.54459 8.14287 3.59018 0.25
247 3.46847 2.5095 3.21356 0.25
248 3.74282 3.19923 1.26344 0.25
249 0.315589 5.06331 7.55634 0.25
250 1.41233 3.88821 5.32386 0.25
251 5.31263 2.52631 4.67838 0.5
252 3.20181 2.15048 4.36509 0.25
253 8.11478 5.56045 7.37213 0.5
254 7.47895 5.96658 7.1596 0.25
255 4.62394 0.411148 5.95648 0.5
256 5.32408 6.52455 0.259787 0.25
257 1.1136 0.132381 2.84326 0.25
258 1.6035 1.81639 2.60737 0.25
259 4.48014 3.39909 1.71559 0.25
260 7.76208 6.24016 1.34047 0.25
261 3.97667 8.19836 1.49006 0.25
262 3.4704 2.48394 4.10157 0.25
263 2.33199 0.216437 0.170428 0.5
264 2.74503 4.33286 3.42066 0.25
265 1.27664 3.87074 7.53345 0.5
266 0.932563 7.66102 7.50897 0.5
267 5.09709 2.78522 7.78199 0.25
268 6.40242 7.831 0.106523 0.25
269 1.4553 5.29179 0.864556 0.25
270 4.02166 3.52258 0.922688 0.25
271 7.36057 7.93239 4.6286 0.25
272 1.77715 1.11966 2.62718 0.25
273 1.54633 3.31497 7.14644 0.25
274 0.996781 5.44426 7.7135 0.25
275 4.58579 4.63605 1.5956 0.25
276 2.73644 3.30649 1.06264 0.25
277 6.62837 1.17211 6.6943 0.25
278 3.86641 6.33647 1.29172 0.25
279 3.99297 0.427535 5.25286 0.5
280 7.76169 8.15607 4.91497 0.25
281 1.00129 6.60789 0.472994 0.25
282 6.31425 7.16429 6.15182 0.25
283 1.12544 0.0242095 6.20806 0.25
284 7.41453 4.37333 0.95297 0.25
285 1.77374 5.96785 1.01475 0.5
286 5.46027 6.7196 3.24858 0.25
287 1.37423 7.81876 3.58805 0.5
288 2.99606 7.40277 4.90826 0.25
289 2.25403 7.25414 5.09875 0.25
290 1.94512 3.78023 1.91539 0.25
291 8.26682 7.49102 7.07636 0.25
292 7.61037 2.45989 3.26428 0.25
293 7.37406 4.40591 3.27736 0.25
294 5.46851 3.78677 3.02272 0.25
295 8.17596 4.0582 1.12814 0.25
296 0.501088 4.2152 4.46864 0.5
297 3.66265 3.12436 6.84697 0.25
298 6.32825 4.98843 7.17545 0.25
299 5.99866 4.59374 7.85093 0.25
300 6.34948 3.49377 0.520977 0.25
301 1.01813 7.47122 8.19945 0.25
302 0.151145 4.14265 1.52903 0.25
303 3.78347 0.600518 1.07917 0.25
304 2.07839 2.63924 4.75435 0.25
305 0.943603 4.86269 8.28754 0.25
306 2.37363 2.22438 4.62192 0.25
307 1.85639 4.71655 7.62513 0.5
308 3.32143 4.99393 3.14818 0.25
309 4.38124 0.986324 5.6426 0.25
310 1.02734 4.7363 4.11289 0.25
311 7.21056 0.0687861 3.81291 0.25
312 0.996815 0.902608 2.50734 0.5
313 0.926149 3.92824 5.43213 0.25
314 5.20613 3.46412 2.72844 0.25
315 1.26035 4.5207 7.9913 0.25
316 1.9277 4.12958 7.09022 0.25
317 7.46824 2.39845 3.78106 0.25
318 2.31474 2.5963 4.3102 0.25
319 4.94164 7.41886 7.8183 0.25
320 2.1308 6.09255 6.10077 0.25
321 4.28628 0.686741 1.15728 0.25
322 7.43944 6.30441 5.0691 0.25
323 0.737309 6.04889 4.29752 0.25
324 4.17181 7.2245 7.78595 0.5
325 0.507245 2.2277 0.505469 0.25
326 4.14119 4.91933 4.92528 0.5
327 7.45734 7.33546 3.23743 0.25
328 2.15012 7.82349 1.83725 0.25
329 1.01463 6.11362 3.48856 0.25
330 8.3418 6.99898 7.27069 0.25
331 0.96499 5.49861 3.94118 0.5
332 7.46459 6.63729 2.17929 0.25
333 1.08194 1.49479 2.01843 0.25
334 6.80982 1.78101 1.01257 0.25
335 3.26016 3.15725 1.0592 0.25
336 3.01954 6.94768 6.84437 0.25
337 4.33571 7.30666 2.95812 0.5
338 6.58492 7.32879 0.0624443 0.25
339 1.96609 7.92967 3.97801 0.25
340 4.99025 0.685409 4.92703 0.25
341 6.81185 8.35099 3.08889 0.25
342 1.32174 5.13462 7.45074 0.25
343 2.8631 1.26583 0.189587 0.25
344 1.07996 5.82154 2.68024 0.25
345 0.414137 1.41502 2.75134 0.25
346 0.48103 2.35324 7.98468 0.25
347 3.50966 5.84946 7.64446 0.25
348 7.27991 7.74896 2.02166 0.25
349 0.747446 2.0155 0.110564 0.25
350 6.6427 1.65651 2.7802 0.25
351 1.35566 6.93454 0.590768 0.25
352 6.35684 3.53542 7.74529 0.5
353 2.55439 8.37103 7.57326 0.25
354 1.96219 0.755364 5.81916 0.25
355 0.759276 0.348975 6.10181 0.25
356 1.78093 1.89046 6.15218 0.25
357 3.09084 4.2671 6.82341 0.25
358 6.05229 3.42157 5.17402 0.25
359 4.41509 0.940756 6.38797 0.25
360 1.94952 2.01153 1.13941 0.25
361 0.929351 7.62267 0.273429 0.25
362 6.25495 4.10663 6.73187 0.25
363 7.90386 4.06624 2.07356 0.25
364 6.01717 3.8067 7.11933 0.25
365 5.56324 6.12029 0.457133 0.25
366 5.97656 6.27683 0.754377 0.25
367 3.25254 4.15146 7.2884 0.25
368 6.86146 3.7348 8.28082 0.25
369 0.988377 7.05772 0.183307 0.25
370 5.46543 0.424549 8.25003 0.25
371 2.82826 7.91748 4.92916 0.25
372 2.08644 4.72626 0.718956 0.25
373 6.99094 2.88675 5.11493 0.25
374 3.70925 4.41648 4.46214 0.25
375 5.29039 0.869913 8.08271 0.25
376 2.48022 5.81867 1.01761 0.25
377 6.37941 1.4855 2.02753 0.5
378 0.559868 3.8278 7.58166 0.25
379 5.50345 1.28285 8.23481 0.25
380 2.32661 6.79878 4.79737 0.25
381 4.15622 5.35354 5.60149 0.25
382 1.89364 7.03401 4.8309 0.25
383 6.17845 5.19542 3.93067 0.5
384 2.24062 1.64554 1.33609 0.25
385 7.08418 1.53396 7.13477 0.5
386 1.352 1.30456 5.67182 0.25
387 7.84343 0.943143 0.770919 0.25
388 0.653177 5.71968 2.8855 0.25
389 4.28712 2.66496 7.70999 0.5
390 4.04984 0.652864 6.418 0.25
391 5.37553 4.79827 2.10125 0.25
392 8.12616 2.47726 3.131 0.25
393 2.66555 6.63096 1.39693 0.25
394 0.797159 8.20329 8.07789 0.25
395 2.65675 1.90069 1.17254 0.25
396 4.64119 7.69966 8.15292 0.25
397 5.13071 0.663114 0.131863 0.25
398 7.41479 1.39975 8.14454 0.25
399 3.14562 4.45719 3.16946 0.25
400 4.81432 4.60505 0.735992 0.25
401 2.24839 7.07039 3.79525 0.25
402 8.26463 7.88464 6.78621 0.25
403 7.63185 6.12705 0.875696 0.25
404 8.14998 6.63913 6.98445 0.25
405 0.43822 7.78338 0.306886 0.25
406 5.74871 0.266425 4.48326 0.25
407 2.5459 1.02811 7.91823 0.5
408 5.43132 3.35299 2.28226 0.25
409 2.11782 4.93792 1.18443 0.25
410 7.5354 0.829496 0.143031 0.5
411 4.35256 5.58614 5.22359 0.25
412 8.35941 7.05106 6.81135 0.25
413 0.945871 2.41933 0.330364 0.25
414 0.625287 3.04614 7.88101 0.5
415 6.47062 4.63187 2.99568 0.25
416 3.01454 3.40162 6.3727 0.25
417 3.34834 4.70457 3.82381 0.5
418 7.21385 6.61814 4.36662 0.25
419 4.18664 3.88805 5.6426 0.25
420 0.904208 3.18876 4.8033 0.25
421 4.27769 4.82784 5.67896 0.25
422 2.23189 5.43597 1.19359 0.25
423 0.308075 0.387179 5.87236 0.25
424 0.524605 3.5007 4.72186 0.25
425 1.90392 2.74551 1.31714 0.5
426 6.92382 5.73452 4.97797 0.5
427 2.69386 2.20061 4.31491 0.25
428 3.97701 5.18028 3.82014 0.25
429 4.65914 4.59025 5.45433 0.25
430 1.88307 7.17538 3.48232 0.25
431 1.1018 3.4259 6.90209 0.25
432 1.5743 6.82404 4.10612 0.5
433 2.22157 1.62715 7.62514 0.25
434 0.742195 6.49751 0.932171 0.25
435 5.6938 3.45192 2.74866 0.25
436 0.866091 6.1473 3.02593 0.25
437 0.148682 1.33779 0.471729 0.25
438 1.03753 3.55601 5.12158 0.25
439 3.51381 2.62787 6.81289 0.25
440 5.02409 1.83028 7.77446 0.25
441 7.97479 4.23889 5.27807 0.25
442 2.38666 5.84641 1.48145 0.25
443 0.517117 2.94153 6.82936 0.5
444 2.09906 3.49907 1.50065 0.25
445 5.47888 6.97996 0.519036 0.25
446 4.10217 5.86226 3.53783 0.5
447 1.39722 1.50851 6.11883 0.25
448 5.82862 7.36389 6.1244 0.25
449 1.04675 5.60034 5.91899 0.25
450 3.04879 3.65832 1.04389 0.25
451 2.52358 7.15152 5.51077 0.25
452 2.57712 0.876712 0.30275 0.25
453 4.50178 4.72279 1.09405 0.25
454 0.240635 3.48807 7.39188 0.25
455 7.93895 5.16535 7.97575 0.25
456 2.95536 1.75408 4.17346 0.25
457 2.67117 3.67634 7.06816 0.5
458 0.152743 7.50426 6.6601 0.25
459 5.12144 7.5719 8.24729 0.25
460 5.77762 0.372044 4.96598 0.25
461 2.58315 3.68711 1.35328 0.25
462 6.13551 4.9577 3.21147 0.25
463 5.15042 7.40108 2.90819 0.25
464 7.64685 6.69244 6.93003 0.25
465 7.11432 2.70557 5.56916 0.25
466 3.96117 1.28612 2.95653 0.25
467 3.79142 6.19746 1.75128 0.25
468 6.79075 5.35133 3.11652 0.5
469 7.56215 7.17386 6.71114 0.25
470 0.50157 1.74215 0.544361 0.25
471 2.07274 0.965316 6.27091 0.25
472 1.84766 7.44262 1.97264 0.25
473 7.30345 5.06314 5.02929 0.25
474 5.33002 5.90749 5.65895 0.25
475 1.41063 1.39246 2.78413 0.25
476 7.1941 0.8026 7.31417 0.25
477 3.17503 5.38358 3.78079 0.25
478 6.15158 3.30308 7.04093 0.25
479 3.47641 7.18248 7.50939 0.25
480 4.73633 0.222039 1.89239 0.25
481 7.82462 2.13306 4.08801 0.25
482 6.97693 5.01955 4.66756 0.25
483 8.01716 5.59444 4.73052 0.25
484 2.96865 0.595455 8.37456 0.25
485 8.04458 7.39303 6.67041 0.25
486 2.50748 6.24 5.86344 0.25
487 8.16648 7.7276 4.31616 0.25
488 4.62341 4.09928 5.61156 0.25
489 0.792516 8.12893 0.22527 0.25
490 8.10004 7.95926 1.81906 0.25
491 4.46022 2.92261 1.62765 0.25
492 2.47716 1.75497 4.37579 0.25
493 6.39074 4.54175 6.96163 0.25
494 4.89644 7.57372 2.56408 0.25
495 1.33155 5.99742 5.98091 0.25
496 3.30792 7.74609 4.99372 0.25
497 6.52475 4.18546 7.69452 0.25
498 3.40563 2.98961 4.16812 0.25
499 0.810663 5.0478 7.51357 0.25
500 3.83078 2.84622 6.47643 0.25
501 5.82842 3.57371 3.84141 0.25
502 1.76448 7.89425 7.60915 0.25
503 5.89824 5.09056 2.55991 0.5
504 7.7275 7.74054 2.11348 0.25
505 5.84487 1.49937 2.56517 0.25
506 7.03534 6.41113 4.78347 0.25
507 1.32138 0.505867 3.12874 0.25
508 0.742299 8.32811 5.28724 0.25
509 8.1082 4.89886 5.02479 0.5
510 5.20968 1.34704 5.98972 0.25
511 0.578437 0.341689 5.58028 0.25
512 1.08743 0.875214 3.24671 0.25
513 3.89222 1.17633 5.57797 0.25
514 2.06451 5.64475 6.04448 0.25
515 0.676583 8.14124 7.01466 0.25
516 7.48956 1.76049 6.12093 0.25
517 7.24637 5.36503 4.41424 0.25
518 0.972809 3.64261 4.62978 0.25
519 6.61063 1.99183 1.42748 0.25
520 7.04462 2.44241 6.43199 0.25
521 7.65876 1.62641 0.15617 0.25
522 6.84873 1.05646 7.65216 0.25
523 5.08741 6.87161 5.91711 0.25
524 2.75646 0.451954 7.53975 0.25
525 6.42354 4.12685 7.22683 0.25
526 7.12575 5.20928 6.91404 0.25
527 7.37559 8.04048 4.10406 0.25
528 7.49323 1.49501 6.52132 0.25
529 6.64874 1.19808 2.65535 0.25
530 2.11 1.84081 6.42827 0.25
531 7.81884 7.94387 3.95762 0.25
532 1.5337 0.944736 3.04364 0.25
533 7.36778 1.08364 7.7641 0.25
534 8.03314 5.82139 1.57339 0.25
535 0.403836 3.31812 5.48963 0.5
536 6.93252 2.77607 6.07718 0.25
537 4.0448 0.894585 6.00168 0.25
538 6.49758 5.19125 4.68144 0.25
539 2.38165 1.36571 6.25428 0.25
540 8.08113 6.3551 2.04586 0.5
541 7.58877 3.99941 1.69214 0.25
542 2.07445 2.03235 7.90496 0.25
543 3.37086 7.29298 7.05081 0.25
544 7.90711 6.42681 6.59234 0.25
545 1.163 6.16663 3.99472 0.25
546 5.22527 5.6937 6.09365 0.25
547 5.20595 2.27159 7.87698 0.25
548 6.36443 7.05458 6.62266 0.25
549 0.281822 7.79762 7.10807 0.25
550 6.32225 7.00096 8.24159 0.25
551 4.27754 1.39074 2.5764 0.25
552 3.60694 5.48685 3.93248 0.25
553 6.91821 7.76156 3.57053 0.5
554 4.23655 6.52973 3.09281 0.25
555 4.80912 6.66508 3.65691 0.5
556 7.36815 0.651488 0.86017 0.25
557 7.22138 4.91607 3.89646 0.5
558 6.38022 8.23972 3.33089 0.25
559 1.32429 0.470846 5.61492 0.5
560 5.00289 3.41192 2.24326 0.25
561 2.92686 3.13281 4.10113 0.25
562 5.09878 0.145725 5.45895 0.25
563 2.14837 6.58688 1.51282 0.25
564 6.30654 6.87419 0.624374 0.5
565 6.80254 2.05193 6.66161 0.25
566 1.17113 1.70102 2.47413 0.25
567 4.71847 5.62845 6.27615 0.25
568 5.75849 1.09978 2.85594 0.25
569 2.57074 8.21588 8.01392 0.25
570 1.88459 6.53334 4.7304 0.25
571 2.94484 4.031 7.66611 0.25
572 8.06517 2.7645 3.8237 0.5
573 3.84966 1.57523 2.63659 0.25
574 1.70073 5.87347 6.28594 0.25
575 2.19638 1.60444 8.14914 0.25
576 4.21025 5.55573 7.68435 0.25
577 5.31217 0.410276 5.15517 0.25
578 1.91267 7.42539 3.89104 0.25
579 7.50645 5.25022 7.7158 0.25
580 7.21459 0.23172 4.53488 0.5
581 4.55062 4.56085 5.92416 0.25
582 5.82631 2.89127 4.50408 0.25
583 5.55553 3.54224 4.65029 0.5
584 4.8413 6.43366 6.09906 0.25
585 4.7353 3.17185 1.32637 0.25
586 1.82877 0.356408 2.66167 0.5
587 4.91557 7.06201 2.60445 0.25
588 5.69319 5.16859 3.29806 0.25
589 0.0796753 2.3841 7.71649 0.25
590 3.34865 6.32465 2.01137 0.25
591 6.86524 1.30299 1.04595 0.25
592 7.3431 7.14112 1.61105 0.5
593 6.72873 6.80614 1.62123 0.25
594 1.60279 4.91198 0.200989 0.5
595 0.710776 3.78861 8.078 0.25
596 2.21758 0.801694 0.663971 0.25
597 0.050134 0.26495 5.12746 0.5
598 2.42071 6.23982 1.2729 0.25
599 2.11209 8.21328 7.89681 0.25
600 7.83896 0.658541 5.34572 0.25
601 0.624597 0.732992 5.36118 0.25
602 4.01225 0.186127 2.22213 0.25
603 4.26538 5.44758 8.1359 0.25
604 7.58283 5.12679 7.18919 0.25
605 7.801 2.08862 3.60915 0.25
606 2.11404 8.19572 2.18425 0.25
607 4.37098 5.09673 7.79447 0.25
608 3.60827 7.59675 7.31532 0.25
609 6.65634 4.79778 4.36813 0.25
610 1.76746 1.55202 5.81099 0.25
611 3.14664 0.61283 7.86578 0.25
612 0.561851 7.31746 0.106714 0.25
613 7.01542 1.05127 8.09689 0.25
614 4.25595 1.19934 5.21997 0.25
615 4.84627 2.58076 3.61661 0.25
616 1.0488 5.71719 3.1831 0.25
617 1.62722 8.37497 2.01705 0.25
618 7.47785 7.32259 4.22835 0.5
619 7.75293 8.07362 4.42375 0.25
620 8.29915 7.45001 2.41167 0.5
621 4.13082 6.54724 3.94874 0.25
622 6.26015 6.75946 5.79913 0.25
623 6.03555 6.15651 0.28007 0.25
624 1.16684 3.49067 5.53043 0.25
625 1.44389 5.29154 7.89435 0.25
626 3.31967 0.294842 1.70562 0.25
627 4.91237 4.69969 1.98514 0.25
628 8.04566 3.45271 2.53472 0.5
629 7.02676 3.31226 0.141448 0.25
630 1.48105 0.0215106 3.17034 0.25
631 1.80885 1.52171 7.86146 0.25
632 7.61765 7.8973 1.66263 0.25
633 6.18121 7.69096 0.572114 0.25
634 2.87581 7.9113 4.04597 0.25
635 0.724451 7.22241 0.849509 0.5
636 1.77489 1.54919 1.16532 0.25
637 5.40282 0.452085 5.64502 0.25
638 4.72828 1.33939 5.31352 0.25
639 4.38652 1.84697 8.35465 0.25
640 5.25171 7.46904 0.345599 0.25
641 1.26698 6.6164 5.3017 0.25
642 3.6331 0.819217 5.81872 0.25
643 6.05153 7.21782 5.67375 0.25
644 5.71155 0.699514 2.54252 0.25
645 2.31201 2.11565 1.48472 0.25
646 8.36179 6.58937 6.51984 0.25
647 2.41744 3.03288 4.09866 0.25
648 5.09825 1.16135 0.141091 0.25
649 0.407916 4.19833 2.00295 0.25
650 8.31862 3.66382 1.43192 0.25
651 3.23542 3.12789 3.75589 0.25
652 6.69742 0.866588 7.16128 0.25
653 1.23619 6.5885 0.93121 0.25
654 0.52909 2.48447 0.0987785 0.25
655 3.75274 3.5495 6.19863 0.5
656 0.743804 3.50016 7.27399 0.25
657 1.55126 5.50344 5.92624 0.25
658 6.74721 0.138188 3.5282 0.25
659 2.55731 1.80345 7.89871 0.25
660 6.93483 5.97443 4.05509 0.5
661 8.29667 1.10296 0.0230293 0.25
662 3.99811 4.75738 4.19114 0.25
663 2.44796 3.68222 1.77661 0.25
664 6.62476 2.74572 4.80976 0.25
665 7.8449 3.75883 1.31988 0.25
666 6.20236 6.68582 6.30822 0.25
667 6.53642 3.40757 0.0692613 0.25
668 7.01298 6.49677 1.93301 0.25
669 5.94602 4.71026 7.34974 0.25
670 5.99002 8.31517 4.77951 0.25
671 3.55655 4.85138 4.5306 0.25
672 2.62766 3.19921 1.96557 0.25
673 0.668215 1.13905 3.11188 0.25
674 4.94766 7.35796 3.35369 0.25
675 5.26705 3.56466 5.33349 0.25
676 7.64245 8.15728 2.03358 0.25
677 6.41198 1.54158 1.25922 0.25
678 7.4298 6.23313 4.59512 0.25
679 1.02798 6.20961 1.21274 0.25
680 3.78577 6.64395 8.08439 0.25
681 7.72659 8.3701 4.0045 0.25
682 2.04987 6.10529 1.64724 0.25
683 1.71295 7.55719 7.23996 0.25
684 0.402176 3.78016 1.6803 0.25
685 3.16162 3.8705 6.52234 0.25
686 4.00128 2.73606 6.97148 0.25
687 1.72081 4.40279 0.661919 0.25
688 3.63172 0.85792 6.28029 0.25
689 6.17322 4.19056 8.07345 0.25
690 6.11755 1.03811 2.53904 0.25
691 6.91527 1.55556 1.44009 0.25
692 5.10135 5.20456 1.87165 0.25
693 7.29937 1.98989 6.47941 0.25
694 7.48533 4.94812 4.62075 0.25
695 8.19719 3.0047 5.87316 0.25
696 5.62406 6.01539 3.39117 0.5
697 4.4686 3.65885 5.92109 0.25
698 1.79221 1.06132 5.50397 0.25
699 1.49009 6.76996 4.86697 0.25
700 4.23337 6.04762 1.05957 0.25
701 4.62197 1.63321 7.96404 0.25
702 2.3262 4.31544 7.2702 0.25
703 3.46205 6.53671 7.41623 0.5
704 4.64062 5.11065 8.19889 0.25
705 4.94168 3.18375 1.79316 0.25
706 5.1153 0.16117 0.137025 0.25
707 4.54795 3.95745 1.18116 0.5
708 5.9134 7.71934 7.81706 0.25
709 2.60869 7.16387 1.95275 0.5
710 2.03225 4.55873 6.88616 0.25
711 5.11957 6.44899 3.02607 0.25
712 0.697921 5.19876 7.97651 0.25
713 2.72073 4.05362 1.72089 0.25
714 5.10591 4.20838 0.746501 0.25
715 4.65861 6.66397 2.87963 0.25
716 6.7831 0.567055 7.58182 0.25
717 7.6709 7.67819 3.53847 0.25
718 6.12405 3.61738 6.64375 0.25
719 6.4407 4.58427 7.94058 0.25
720 1.674 7.58531 4.27622 0.25
721 6.702 2.05525 2.52403 0.25
722 2.3789 7.74806 3.38501 0.5
723 2.38197 7.55474 2.63915 0.25
724 7.03028 6.4878 1.45624 0.25
725 7.81573 6.30512 7.12825 0.25
726 0.964541 1.08529 5.50138 0.25
727 4.13503 0.248829 1.33429 0.25
728 3.73462 6.13225 7.99739 0.25
729 4.86091 5.93332 3.43547 0.25
730 3.02566 7.09412 7.2954 0.25
731 5.42559 2.993 2.63024 0.25
732 3.86634 3.56412 6.8928 0.25
733 3.7805 5.44956 7.45612 0.25
734 3.94462 1.05719 2.46905 0.25
735 3.32782 3.00053 6.4777 0.25
736 7.92672 1.37371 8.24809 0.25
737 3.31518 0.581819 1.3043 0.25
738 0.426294 8.21151 0.531498 0.25
739 4.6397 6.22987 3.10273 0.25
740 5.38866 7.22445 3.31515 0.25
741 0.259442 7.76763 0.739221 0.25
742 4.04426 4.57627 5.98753 0.25
743 7.06769 0.816018 1.21438 0.25
744 4.35616 0.95592 2.28004 0.25
745 3.77648 4.20469 5.77178 0.25
746 1.25676 6.08315 4.79064 0.5
747 4.44105 0.432873 2.11401 0.25
748 2.80117 6.5914 7.16584 0.25
749 1.52699 1.42311 2.30047 0.25
750 0.0499382 3.42097 1.85814 0.25
751 0.972266 0.867142 5.03459 0.25
752 6.31961 4.97528 7.67078 0.25
753 3.85084 0.78767 1.7732 0.5
754 4.22407 6.11972 1.55036 0.25
755 2.89409 2.59727 1.41257 0.5
756 7.89248 6.76615 7.40528 0.25
757 5.51537 7.12478 5.81648 0.25
758 6.83561 3.92828 7.34181 0.25
759 4.48579 8.34432 4.88605 0.25
760 0.247175 2.48691 3.3189 0.25
761 3.82747 7.136 7.14818 0.25
762 0.565138 1.75239 3.48105 0.5
763 4.01701 8.07904 1.99612 0.25
764 1.46294 6.41735 0.46098 0.25
765 7.39309 4.91489 3.20064 0.25
766 0.611305 4.61693 2.29471 0.25
767 2.76078 6.85527 7.57831 0.25
768 2.28287 2.94424 5.11202 0.25
769 7.93348 3.63294 1.77535 0.25
770 4.78077 0.943957 8.22814 0.25
771 6.74102 1.30102 6.17932 0.25
772 4.84437 2.50957 8.12437 0.25
773 5.48277 1.13055 5.24411 0.5
774 3.59121 8.16651 5.0724 0.25
775 7.93707 4.47284 2.76086 0.5
776 6.97216 3.86234 0.588648 0.5
777 6.09833 6.54512 8.33961 0.25
778 4.92446 8.09447 0.00524151 0.25
779 8.1626 8.23381 4.22117 0.25
780 2.20042 1.73515 5.95701 0.25
781 2.67008 1.67401 8.34778 0.25
782 1.25206 7.746 0.639509 0.25
783 6.75237 3.18813 0.519137 0.25
784 2.05032 7.705 2.30276 0.25
785 2.58692 1.82592 6.28024 0.25
786 2.49798 7.86129 2.25641 0.25
787 7.92354 6.89107 6.60877 0.25
788 0.00814039 4.03274 2.29021 0.25
789 3.55975 0.0990411 4.63023 0.25
790 7.07983 0.84834 6.82351 0.25
791 0.529398 4.69916 3.05792 0.5
792 2.32495 0.328531 7.82978 0.25
793 8.06264 7.02537 1.85566 0.25
794 5.60647 6.35496 6.14652 0.5
795 2.38948 4.1349 3.17944 0.25
796 2.21978 5.91162 5.64092 0.25
797 6.51158 6.55705 1.23971 0.25
798 7.79057 4.30363 1.29086 0.25
799 4.26078 2.91926 6.30399 0.25
800 7.91121 2.03222 3.14655 0.25
801 3.24461 7.77402 6.96786 0.25
802 3.30771 5.26386 4.30818 0.25
803 3.2189 8.23645 7.58688 0.5
804 3.77909 6.62918 2.07962 0.25
805 1.69088 7.88913 2.03737 0.25
806 2.56431 1.81258 3.87511 0.25
807 4.56821 6.30712 5.71112 0.25
808 4.21617 1.90742 7.87365 0.25
809 1.76374 5.94151 5.79952 0.25
810 6.66707 7.44889 6.37857 0.25
811 1.65647 3.35138 4.86606 0.5
812 5.7569 7.39465 0.455631 0.25
813 4.18103 1.76585 3.00625 0.25
814 1.64635 7.45783 7.75955 0.25
815 2.76784 8.14721 4.47294 0.25
816 1.1016 3.09032 5.25847 0.25
817 4.18101 1.46142 8.10185 0.25
818 3.71304 1.69952 3.11736 0.25
819 1.74762 5.27525 1.29302 0.25
820 3.22101 3.03816 6.99832 0.25
821 1.52533 1.94644 0.0474238 0.5
822 5.9115 4.34163 3.4117 0.5
823 4.93237 0.485594 8.15298 0.25
824 0.772392 0.390459 5.07449 0.25
825 3.94719 5.96788 7.54907 0.25
826 3.21945 3.47261 1.68902 0.5
827 5.89185 7.07357 6.50202 0.25
828 0.424672 1.99211 7.64052 0.25
829 8.18475 8.06865 4.6773 0.25
830 0.871673 2.00079 2.70792 0.25
831 2.502 4.18078 7.67557 0.25
832 5.78467 4.67279 1.87736 0.25
833 1.89551 1.41099 6.19641 0.25
834 4.14606 0.575154 2.47283 0.25
835 6.11642 1.92118 1.4271 0.25
836 3.46488 7.56784 7.80585 0.25
837 3.92813 5.20755 7.89541 0.25
838 7.5788 0.84645 1.22765 0.25
839 6.17057 7.48142 6.46229 0.25
840 7.02371 4.68755 7.44692 0.5
841 3.30234 6.82368 1.99012 0.25
842 0.162387 2.08236 2.74667 0.5
843 5.73804 3.77148 5.36885 0.25
844 4.87686 2.62932 0.251016 0.25
845 7.48243 2.78101 5.23648 0.25
846 3.47837 3.46727 7.54755 0.5
847 1.94971 5.22332 0.836298 0.25
848 1.76545 5.92664 5.29256 0.25
849 5.28576 7.82748 2.72679 0.25
850 6.34701 2.86068 5.50539 0.5
851 5.611 0.0804548 5.35979 0.25
852 7.01445 1.49821 7.88667 0.25
853 4.00913 8.23551 4.72837 0.25
854 4.41928 1.56008 6.00748 0.5
855 0.396828 4.08784 5.33996 0.25
856 0.622688 5.41111 3.26994 0.25
857 3.56948 6.5891 1.62033 0.25
858 2.62064 4.72988 3.72629 0.25
859 6.54658 4.48477 3.9924 0.25
860 7.70468 3.98024 0.904858 0.25
861 4.88278 2.99182 8.2139 0.25
862 6.56774 4.70959 3.46834 0.25
863 5.53925 6.52783 0.760567 0.25
864 7.7633 7.01697 2.28404 0.25
865 3.80101 5.65142 7.95553 0.25
866 5.09328 8.2083 3.07286 0.25
867 2.06906 3.95223 7.56424 0.25
868 2.21069 1.5435 0.576304 0.5
869 1.08839 3.15239 7.33496 0.25
870 6.05151 5.49288 3.23288 0.25
871 2.88453 7.40876 7.03647 0.25
872 5.79078 2.9866 5.02557 0.25
873 0.360992 8.19793 0.0240232 0.25
874 3.98782 1.16454 6.42545 0.25
875 2.08986 4.21303 1.30316 0.5
876 1.36472 5.77197 5.53393 0.25
877 0.127638 5.2128 7.97964 0.25
878 5.75083 1.0968 2.27689 0.25
879 3.16711 8.20523 4.78678 0.25
880 6.33839 5.95775 3.16727 0.25
881 7.24757 1.22517 1.38445 0.25
882 7.91786 7.09606 7.05042 0.25
883 0.524479 4.1262 2.45017 0.25
884 7.07576 3.22929 0.888131 0.25
885 0.829194 4.34398 5.12239 0.25
886 7.9807 7.44582 3.10966 0.25
887 1.00014 6.67075 1.32435 0.25
888 1.08045 4.89737 3.57513 0.25
889 1.37007 8.11159 2.80154 0.25
890 0.184534 4.44162 2.41223 0.25
891 0.828483 2.30101 7.68829 0.25
892 7.4869 3.57873 1.02112 0.25
893 0.740644 7.89088 0.661404 0.25
894 3.84749 5.8684 1.3447 0.25
895 3.804 6.11658 0.861747 0.25
896 1.90261 1.27905 8.30388 0.25
897 8.06728 4.09836 1.6085 0.25
898 0.667002 4.72277 3.82194 0.25
899 0.834831 8.353 5.78777 0.25
900 5.08158 6.34401 5.68495 0.25
901 0.870789 1.5592 2.86099 0.25
902 7.36667 3.99948 1.2733 0.25
903 5.92001 3.62031 3.24472 0.25
904 6.96974 4.00918 7.85273 0.25
905 5.25733 0.858612 5.96066 0.25