ITEM: TIMESTEP
320000
ITEM: NUMBER OF ATOMS
1000
ITEM: BOX BOUNDS xy xz yz pp pp pp
0.0000000000000000e+00 8.3788359999999997e+00 0.0000000000000000e+00
0.0000000000000000e+00 8.3788359999999997e+00 0.0000000000000000e+00
0.0000000000000000e+00 8.3788359999999997e+00 0.0000000000000000e+00
ITEM: ATOMS id x y z radius
1 2.88902 6.97955 4.75995 0.25
2 4.78448 5.12647 4.99031 0.25
3 7.28885 4.64727 3.21755 0.25
4 7.23257 0.91699 5.9436 0.5
5 1.26517 5.55903 6.01938 0.25
6 0.0188415 1.92066 3.397 0.25
7 4.05383 3.38185 6.47624 0.25
8 4.83169 7.7054 2.9299 0.25
9 0.967404 6.04363 3.6683 0.25
10 4.2363 1.6638 3.21845 0.25
11 5.5467 0.326216 8.20007 0.25
12 5.45122 3.49649 1.58226 0.25
13 0.505985 2.35898 7.46212 0.25
14 3.42587 2.88328 7.05627 0.25
15 8.1872 2.69256 6.25858 0.25
16 7.26588 0.861564 6.78575 0.25
17 0.850798 5.15386 8.12091 0.25
18 5.87054 7.61238 7.91757 0.25
19 4.02621 2.05187 7.71442 0.25
20 7.59329 1.30399 0.638209 0.25
21 5.04067 4.32639 1.97574 0.25
22 4.20632 3.3567 1.06467 0.25
23 2.18699 3.36106 1.91754 0.25
24 2.75891 1.44293 3.99741 0.25
25 2.74097 4.32631 2.93125 0.25
26 0.358454 8.17713 5.84418 0.25
27 3.79806 0.427589 5.91958 0.25
28 4.29694 2.34451 0.0358417 0.25
29 5.05526 6.87255 3.03535 0.25
30 7.47833 7.34053 2.4799 0.25
31 2.5847 0.26137 8.04891 0.25
32 0.89749 2.6901 7.32922 0.25
33 7.6834 0.503737 5.42 0.25
34 2.10418 4.78071 1.5246 0.25
35 8.22124 0.0229026 4.58497 0.25
36 6.86164 1.7851 5.63987 0.5
37 4.55898 1.10842 2.40318 0.25
38 2.28002 3.37445 4.37762 0.25
39 6.21965 2.66599 4.80717 0.25
40 5.25329 7.70733 3.15061 0.25
41 6.80254 2.1925 2.5361 0.25
42 5.64071 6.02839 5.60466 0.25
43 3.44271 7.76515 4.56527 0.25
44 3.87389 8.35575 5.74172 0.25
45 5.52385 4.06627 4.18832 0.25
46 3.21599 5.96219 1.45158 0.5
47 4.88148 0.811382 5.39537 0.25
48 7.96894 6.2163 6.89915 0.25
49 7.43346 6.69739 4.91436 0.25
50 7.71031 1.00227 1.01268 0.25
51 2.80058 3.3403 4.48248 0.25
52 0.754448 1.70786 2.41912 0.25
53 6.48972 5.23141 6.93214 0.25
54 5.82615 3.31309 4.15189 0.25
55 1.62222 1.50205 5.83354 0.25
56 1.04491 7.32091 0.191772 0.25
57 4.9173 0.815158 2.13087 0.25
58 2.41343 2.0961 4.18968 0.25
59 4.89739 1.50559 6.28313 0.25
60 7.85956 5.45698 5.32719 0.25
61 5.18907 0.0853691 8.03228 0.25
62 5.15662 1.81108 7.96178 0.5
63 7.45478 6.74697 1.2178 0.25
64 1.15229 6.13826 0.713678 0.25
65 4.28354 0.106128 1.80705 0.25
66 2.00927 4.92294 7.15015 0.25
67 7.92632 4.91074 7.02983 0.25
68 6.93953 0.576034 6.50958 0.25
69 0.0289184 5.57335 7.9445 0.25
70 1.85533 4.74829 0.694952 0.25
71 7.95002 1.40589 0.307055 0.25
72 6.48166 6.23182 3.54375 0.25
73 0.499272 7.6137 6.81322 0.25
74 7.38781 5.5568 6.84767 0.25
75 7.40098 0.0873051 3.48592 0.25
76 7.54702 6.4681 4.50724 0.25
77 5.69207 2.81844 5.50626 0.25
78 5.4383 3.89157 1.25488 0.25
79 7.71209 4.97904 4.48977 0.25
80 5.83068 3.31117 5.45944 0.25
81 6.98351 1.40962 1.28138 0.25
82 8.26097 2.83874 5.78607 0.25
83 4.45723 5.82208 5.56598 0.25
84 1.27158 1.19451 6.01108 0.25
85 1.57992 1.59753 5.36648 0.25
86 4.7523 0.081271 5.72311 0.25
87 1.63225 1.72069 1.28516 0.25
88 3.24063 6.73899 1.5744 0.25
89 6.6821 6.95432 0.75334 0.25
90 5.50314 6.42181 5.47549 0.25
91 3.9615 4.31975 6.24984 0.25
92 6.10868 4.46739 7.34908 0.25
93 5.03846 6.53733 5.27515 0.25
94 7.05258 8.34203 4.23843 0.25
95 0.42643 4.55694 7.75714 0.5
96 5.41488 3.14151 3.56584 0.5
97 4.20809 4.84214 7.9107 0.25
98 8.24094 2.37232 3.40837 0.25
99 1.52816 6.32676 5.88752 0.25
100 6.98457 6.99828 1.18136 0.25
101 0.372588 8.09166 0.199885 0.25
102 8.09508 4.97174 3.05146 0.25
103 6.51365 1.23015 1.46228 0.25
104 0.572855 5.11888 7.23992 0.25
105 5.10013 5.79811 5.14187 0.5
106 5.10593 0.273934 4.57107 0.25
107 4.16847 3.33876 6.96109 0.25
108 4.73502 1.46313 0.175173 0.25
109 0.658188 0.461343 6.25545 0.25
110 2.15357 7.83644 8.28547 0.25
111 3.04679 4.11593 7.07951 0.25
112 4.40604 2.2048 7.95626 0.25
113 1.83409 1.91979 1.9538 0.5
114 1.5747 4.26507 6.76392 0.25
115 4.70153 6.27759 6.22381 0.25
116 2.55765 7.12931 6.9431 0.25
117 4.24601 2.29014 3.71941 0.5
118 6.4794 7.1072 1.2151 0.25
119 1.14957 5.98372 2.43073 0.25
120 0.171908 2.94642 2.34765 0.25
121 3.21129 4.0236 3.57203 0.25
122 6.55909 0.842202 6.38899 0.25
123 5.29248 0.545481 5.4932 0.25
124 8.10453 8.07645 2.54366 0.25
125 3.51552 2.05824 3.74668 0.25
126 3.78927 1.24716 5.92991 0.25
127 5.37652 3.99405 1.77647 0.25
128 6.79186 5.32943 7.33356 0.25
129 1.16624 6.39987 3.98839 0.25
130 5.54866 6.15877 0.739523 0.25
131 7.00727 1.51422 6.39165 0.25
132 5.96028 4.01105 7.61672 0.25
133 3.2283 1.89944 3.37864 0.25
134 4.44213 2.66894 8.04324 0.25
135 5.46936 3.88302 3.72025 0.25
136 2.89253 2.46427 3.70634 0.5
137 2.9252 3.88582 3.10681 0.25
138 7.51217 7.91716 2.97969 0.5
139 2.48863 7.82633 4.93318 0.25
140 5.10926 7.97608 7.91764 0.25
141 7.81157 5.9591 5.27645 0.25
142 1.09166 4.97191 3.12646 0.25
143 2.23455 2.05318 8.35318 0.25
144 5.10024 1.00504 2.82509 0.5
145 7.59878 1.92363 3.92767 0.25
146 5.99933 7.31829 0.315915 0.25
147 6.52232 5.54156 4.68492 0.25
148 2.23301 2.86806 4.49542 0.25
149 4.50561 8.13869 2.45548 0.5
150 5.15825 2.849 4.13529 0.25
151 3.5064 5.88274 7.19339 0.25
152 3.60784 4.72377 5.55207 0.25
153 6.66462 6.07501 2.36576 0.5
154 7.38896 2.42007 4.50965 0.5
155 3.00952 7.19032 7.71018 0.25
156 7.5763 3.59035 1.43364 0.25
157 7.5842 5.92982 1.58905 0.25
158 2.49658 3.59848 0.694948 0.25
159 7.15076 7.97084 4.54928 0.25
160 6.52142 2.08703 2.93116 0.25
161 0.976237 5.11633 2.67643 0.25
162 5.81811 4.13165 7.1163 0.25
163 3.43182 3.66034 4.14125 0.5
164 2.55583 3.69198 2.51454 0.5
165 5.60965 8.05806 7.74087 0.25
166 0.200424 3.83248 7.9185 0.25
167 6.45123 3.99554 0.0718697 0.25
168 4.8244 6.02237 5.82069 0.25
169 4.00123 4.46062 5.73695 0.25
170 0.311876 2.75997 6.05598 0.25
171 7.76497 5.95417 1.13308 0.25
172 1.13735 2.82511 6.94119 0.25
173 4.36458 6.26723 5.80008 0.25
174 2.32042 2.25271 0.916286 0.25
175 7.74804 2.18591 5.90852 0.5
176 2.39327 6.45555 5.98682 0.25
177 5.42862 3.59998 4.14504 0.25
178 3.07024 6.49782 1.98638 0.25
179 3.58276 2.30642 3.31077 0.25
180 5.96101 6.44975 5.75945 0.25
181 6.55498 4.00445 6.79769 0.25
182 3.07834 5.24496 3.31441 0.25
183 7.98732 7.60873 1.86584 0.25
184 4.3434 5.14301 8.27512 0.25
185 5.886 6.89061 6.03947 0.25
186 7.50824 5.96566 4.57522 0.25
187 3.29545 5.25635 4.23006 0.25
188 0.913934 5.87523 3.18241 0.25
189 4.11617 6.6187 3.4872 0.25
190 4.24023 3.16498 1.5591 0.25
191 6.88089 1.53118 0.476454 0.5
192 0.724406 5.14478 7.70364 0.25
193 3.90263 5.77371 1.70342 0.25
194 2.59197 6.2805 1.92139 0.25
195 6.25755 5.63854 2.80977 0.25
196 2.29813 7.92669 2.64522 0.25
197 0.955682 0.221954 2.15637 0.25
198 7.55215 4.56931 6.90441 0.25
199 1.07299 1.11197 3.09512 0.25
200 4.43413 5.24506 1.55712 0.5
201 6.54655 1.67276 3.19997 0.25
202 0.0345691 3.86716 5.37412 0.25
203 3.74774 1.80955 3.33054 0.25
204 5.66637 8.00614 0.0959996 0.5
205 2.46806 7.38918 4.31226 0.5
206 0.538077 4.53007 5.17758 0.25
207 5.69332 2.82503 4.16984 0.25
208 6.91737 5.31676 4.42292 0.25
209 5.44884 7.02893 8.28955 0.5
210 1.91494 8.01909 2.88645 0.25
211 0.766704 3.7829 4.97763 0.25
212 1.3849 7.76088 8.16397 0.5
213 8.29849 4.2645 2.69731 0.25
214 1.89602 7.8331 2.41853 0.25
215 2.91011 4.18838 3.92668 0.25
216 6.36413 1.98237 2.3923 0.25
217 5.07622 3.81964 2.12999 0.25
218 2.45719 3.16769 4.75617 0.25
219 4.40266 1.31446 2.8636 0.25
220 3.71658 3.52494 0.972016 0.25
221 4.30193 0.202597 5.97307 0.25
222 7.36414 0.813628 5.21328 0.25
223 8.16116 2.8421 2.62102 0.25
224 7.22802 5.21679 7.25606 0.25
225 7.30008 2.24402 5.21001 0.25
226 4.51728 1.98663 7.59456 0.25
227 6.43781 3.52866 7.0808 0.25
228 5.41786 3.16863 4.43217 0.25
229 5.42706 5.10936 2.01511 0.25
230 0.271041 8.26462 6.60877 0.5
231 5.28285 4.61072 1.38116 0.5
232 2.03978 3.06914 4.06014 0.25
233 4.09076 5.14631 3.94592 0.25
234 6.51717 1.30079 6.63953 0.25
235 3.17427 7.34471 4.59432 0.25
236 0.856734 2.5089 7.79974 0.25
237 8.26063 3.01912 7.25822 0.25
238 3.49739 0.436578 1.80665 0.25
239 0.338568 2.30965 3.4976 0.25
240 6.60456 6.35712 1.57042 0.25
241 3.42213 7.06844 7.96833 0.25
242 1.98303 7.26942 2.80943 0.5
243 2.86795 4.71359 3.26606 0.25
244 7.11176 3.53024 1.15598 0.25
245 2.27727 1.0486 5.79934 0.25
246 7.71319 8.08463 3.73201 0.25
247 3.56494 2.63379 3.68004 0.25
248 3.78391 3.17214 1.27583 0.25
249 0.0624142 5.04115 7.25589 0.25
250 1.35548 3.29526 5.39177 0.25
251 5.42759 2.51902 4.79259 0.5
252 3.25261 2.00855 4.22631 0.25
253 7.90154 5.53978 7.37339 0.5
254 7.16198 5.72247 7.20334 0.25
255 4.79209 0.775849 6.08414 0.5
256 5.95954 6.10944 0.514552 0.25
257 0.994087 0.347226 2.6687 0.25
258 1.67613 1.64816 2.64994 0.25
259 4.68518 3.06622 1.66439 0.25
260 7.77252 6.35392 1.40919 0.25
261 3.36856 0.391563 1.35239 0.25
262 3.56152 2.39554 4.1741 0.25
263 1.98635 0.176842 0.130959 0.5
264 2.80552 4.24053 3.43268 0.25
265 1.19107 3.89962 7.31231 0.5
266 1.07286 7.96503 7.10675 0.5
267 5.1334 2.58311 7.9791 0.25
268 6.35942 7.6345 0.309642 0.25
269 1.85493 5.25014 0.891969 0.25
270 3.96495 3.57189 1.4314 0.25
271 7.57378 7.86196 4.79255 0.25
272 1.60026 0.848314 2.49216 0.25
273 1.39413 3.20386 7.13745 0.25
274 0.586329 5.58769 7.90682 0.25
275 4.52784 4.55375 1.21446 0.25
276 2.44327 3.11139 0.776687 0.25
277 6.72401 0.885999 6.87562 0.25
278 3.74153 6.20223 1.0525 0.25
279 4.17325 0.440154 5.26218 0.5
280 8.00735 8.13004 4.9949 0.25
281 1.13347 6.63918 0.543872 0.25
282 6.26694 7.12973 6.21748 0.25
283 0.936762 0.175114 6.57187 0.25
284 7.39211 4.37304 0.744442 0.25
285 1.84955 5.97422 1.11121 0.5
286 5.4767 6.65377 3.25803 0.25
287 1.53185 8.11684 3.48795 0.5
288 2.80131 7.40541 4.97248 0.25
289 2.30286 7.36027 5.07809 0.25
290 2.16396 3.86099 1.85432 0.25
291 8.29646 7.44571 7.35162 0.25
292 7.78204 2.50358 3.36845 0.25
293 7.80151 4.61677 3.31054 0.25
294 5.88591 3.68437 3.47986 0.25
295 8.14662 4.23498 1.02436 0.25
296 0.600859 4.24356 4.47553 0.5
297 3.69415 3.15927 6.80428 0.25
298 6.28963 5.16215 7.38476 0.25
299 5.87823 4.83347 7.44194 0.25
300 6.38238 3.79957 0.627335 0.25
301 0.836399 8.16073 0.133915 0.25
302 0.161704 4.39826 1.41846 0.25
303 3.77481 1.09703 1.35329 0.25
304 2.16665 2.34651 4.61017 0.25
305 1.17939 4.78941 8.20939 0.25
306 2.37995 1.90975 4.63269 0.25
307 1.35747 4.98833 7.53038 0.5
308 3.58558 5.94143 3.22731 0.25
309 4.42919 1.11712 5.4375 0.25
310 1.10339 4.5032 3.937 0.25
311 7.42514 0.0780477 3.97706 0.25
312 0.878172 0.977584 2.35173 0.5
313 1.1536 3.73231 5.3105 0.25
314 5.50334 3.81201 3.20504 0.25
315 1.30576 5.25399 8.23209 0.25
316 1.72209 4.47332 7.22401 0.25
317 7.61609 2.36291 3.81626 0.25
318 2.2739 2.57535 4.10621 0.25
319 4.88799 7.49881 7.83857 0.25
320 2.01789 6.1322 6.01561 0.25
321 4.0618 0.79849 1.06846 0.25
322 7.40676 6.31437 5.2501 0.25
323 0.960229 5.91014 4.14936 0.25
324 4.10218 7.29739 7.86395 0.5
325 0.939126 2.0085 0.248328 0.25
326 4.06141 4.88524 4.98582 0.5
327 7.5078 7.3043 3.41998 0.25
328 2.30359 7.7481 1.80851 0.25
329 1.35644 5.84915 3.40838 0.25
330 0.0427638 6.93462 7.30386 0.25
331 1.00028 5.29597 3.77586 0.5
332 7.35737 6.50197 2.22957 0.25
333 1.13268 1.66496 2.06932 0.25
334 6.71696 1.67384 1.67649 0.25
335 3.39715 3.13316 1.01299 0.25
336 3.06582 7.10213 6.75984 0.25
337 4.27788 7.18681 2.95677 0.5
338 6.19917 7.33074 8.26357 0.25
339 2.15739 8.03548 3.93861 0.25
340 4.80241 0.498318 4.92802 0.25
341 6.92436 -0.00215414 3.34965 0.25
342 0.77487 5.55566 7.45009 0.25
343 2.55254 1.12915 0.1953 0.25
344 1.29919 5.52913 2.54218 0.25
345 0.443869 1.56188 2.79502 0.25
346 0.396425 2.60305 -0.0225064 0.25
347 3.40436 5.91363 7.69843 0.25
348 7.3267 7.76513 2.25199 0.25
349 0.754719 2.28142 8.25145 0.25
350 6.72467 1.73794 2.68781 0.25
351 1.50145 6.91636 0.734894 0.25
352 6.50047 3.50614 7.85105 0.5
353 2.40032 8.3415 7.58387 0.25
354 1.83913 0.820079 5.53052 0.25
355 0.774359 0.0241673 6.10805 0.25
356 1.97549 1.78565 5.65376 0.25
357 2.81659 4.16298 6.62975 0.25
358 6.25343 3.37843 5.30359 0.25
359 4.47937 1.36711 6.54002 0.25
360 1.90275 2.11137 1.14075 0.25
361 0.633475 7.97244 0.580792 0.25
362 6.07798 3.84853 6.82056 0.25
363 7.89198 4.17302 1.91902 0.25
364 5.98864 3.61665 7.28001 0.25
365 5.56109 5.79918 0.388555 0.25
366 5.16283 6.10887 0.435617 0.25
367 2.33428 4.85926 6.79243 0.25
368 6.62941 3.14509 0.153868 0.25
369 1.35484 7.01741 0.292574 0.25
370 5.17218 0.610014 8.13019 0.25
371 2.25907 8.05648 4.49586 0.25
372 2.33474 4.58083 0.601603 0.25
373 7.09243 2.74118 5.11287 0.25
374 3.69378 4.41433 4.43625 0.25
375 4.73989 0.819294 8.08058 0.25
376 2.6055 5.80168 1.04397 0.25
377 6.36213 1.22191 2.17081 0.5
378 0.419034 3.80902 7.44339 0.25
379 4.63198 1.30911 8.06565 0.25
380 2.45494 6.96417 4.85814 0.25
381 4.12206 5.38301 5.50466 0.25
382 1.96908 7.20953 4.79289 0.25
383 6.35188 5.24709 3.98985 0.5
384 1.23438 1.73478 1.5531 0.25
385 7.00942 1.62799 7.08122 0.5
386 1.45479 1.13439 5.58438 0.25
387 7.42207 0.817905 0.623878 0.25
388 0.886224 5.67322 2.69362 0.25
389 4.12132 2.64917 7.29567 0.5
390 4.08082 0.567104 6.26014 0.25
391 5.34731 4.67073 2.19781 0.25
392 8.16466 2.80736 3.14628 0.25
393 2.79517 6.48532 1.50617 0.25
394 8.28891 7.92861 0.296325 0.25
395 2.10271 1.67447 1.26069 0.25
396 4.63622 7.86892 8.0251 0.25
397 4.86113 0.672451 0.17844 0.25
398 7.37682 1.82707 8.26921 0.25
399 3.17557 4.31991 3.14801 0.25
400 5.1624 4.60285 0.675182 0.25
401 2.11414 7.16282 3.65421 0.25
402 8.2333 7.94042 7.21461 0.25
403 7.70136 6.39661 0.894474 0.25
404 8.00236 6.66229 7.15307 0.25
405 0.260018 7.65553 0.494855 0.25
406 5.47537 0.24659 4.31449 0.25
407 2.25804 1.01092 7.94514 0.5
408 5.6817 3.39917 2.48866 0.25
409 2.21751 4.91336 1.04084 0.25
410 7.45916 1.06292 8.26908 0.5
411 4.41155 5.48623 5.15638 0.25
412 8.19893 7.10438 6.94762 0.25
413 1.26168 1.60484 0.181858 0.25
414 0.474527 3.11804 7.7962 0.5
415 6.43268 4.6821 2.98727 0.25
416 2.89116 3.36601 6.55634 0.25
417 3.41817 4.69618 3.78309 0.5
418 7.07244 6.72789 4.46753 0.25
419 3.90113 3.95889 5.85529 0.25
420 0.939777 3.10645 4.5091 0.25
421 4.05775 4.97138 5.70864 0.25
422 2.33696 5.38685 0.955628 0.25
423 0.349034 0.234839 5.95029 0.25
424 0.538397 3.40226 4.70647 0.25
425 1.94792 2.80088 1.31715 0.5
426 7.10545 5.61777 5.10986 0.5
427 2.80466 1.87055 4.28216 0.25
428 3.98554 5.14668 3.47474 0.25
429 4.41215 4.59798 5.62373 0.25
430 1.70759 7.34384 3.46351 0.25
431 0.996835 3.34606 6.83544 0.25
432 1.54216 7.10801 4.13622 0.5
433 2.10767 1.68262 7.60838 0.25
434 0.832431 6.46781 0.865659 0.25
435 5.76557 3.50128 3.00405 0.25
436 1.33408 5.90599 2.89085 0.25
437 8.39688 1.16985 0.379893 0.25
438 1.01944 3.37658 5.02649 0.25
439 3.64388 2.67951 6.64405 0.25
440 4.56998 1.46289 7.57482 0.25
441 8.08371 4.26173 5.36251 0.25
442 2.44378 5.56542 1.42077 0.25
443 0.41246 2.81667 6.80498 0.5
444 2.08182 3.47593 1.44948 0.25
445 5.27755 7.11244 0.642632 0.25
446 4.22082 5.84623 3.56735 0.5
447 1.48935 1.94769 5.75121 0.25
448 5.91814 7.30812 5.86891 0.25
449 1.23601 5.43604 5.46309 0.25
450 2.91253 3.31563 0.867034 0.25
451 2.66909 6.99552 5.26788 0.25
452 2.21847 0.879228 0.308555 0.25
453 4.76212 4.38589 0.811888 0.25
454 0.149105 3.41653 7.23382 0.25
455 8.09295 4.78803 7.50251 0.25
456 3.06461 1.78025 3.83262 0.25
457 2.28915 4.11236 7.16475 0.5
458 -0.00158835 7.55553 6.8649 0.25
459 5.02439 7.64686 8.26054 0.25
460 5.61323 0.172628 4.79596 0.25
461 2.52606 3.41111 1.14227 0.25
462 6.22679 4.96364 3.30821 0.25
463 5.1188 7.33792 2.78682 0.25
464 7.59112 6.82177 7.38274 0.25
465 7.12038 2.52159 5.52199 0.25
466 4.28922 1.74109 2.73006 0.25
467 3.91843 6.2227 1.57029 0.25
468 6.88174 5.29335 3.06108 0.5
469 7.48642 7.3012 7.19356 0.25
470 0.798368 1.51536 0.283802 0.25
471 1.77606 1.03323 5.95488 0.25
472 1.90897 7.49909 2.02737 0.25
473 7.57692 5.06863 5.35019 0.25
474 5.24342 5.80634 5.84492 0.25
475 1.37428 1.24353 2.73891 0.25
476 7.49165 1.31976 7.59239 0.25
477 3.19022 5.41532 3.74851 0.25
478 6.20294 3.12583 7.24575 0.25
479 3.41786 7.23825 7.50708 0.25
480 5.03822 0.368651 2.41437 0.25
481 7.974 2.16925 4.17305 0.25
482 7.22927 4.99766 4.64098 0.25
483 8.27244 5.7503 5.14437 0.25
484 2.59375 0.597114 0.0601054 0.25
485 7.93157 7.4939 7.09421 0.25
486 1.86773 6.59331 6.13942 0.25
487 8.22948 7.56166 4.42566 0.25
488 4.34377 4.22358 5.96322 0.25
489 0.155366 8.14774 0.662663 0.25
490 8.10815 8.05094 2.0757 0.25
491 4.62942 3.07828 1.19923 0.25
492 2.32525 1.55333 4.23638 0.25
493 6.16191 4.32205 6.88625 0.25
494 4.79046 7.44315 2.48946 0.25
495 1.32381 5.87819 5.67505 0.25
496 3.02518 7.77015 4.80871 0.25
497 6.40653 4.2459 7.69905 0.25
498 3.41922 2.84841 4.12982 0.25
499 0.308095 5.34827 7.5705 0.25
500 3.70977 3.09624 6.33113 0.25
501 6.02242 4.24166 4.3486 0.25
502 1.72449 7.95461 7.48859 0.25
503 5.79438 5.07747 2.7103 0.5
504 7.76536 7.72795 2.30576 0.25
505 5.81234 1.35748 2.7374 0.25
506 7.16141 6.28895 4.79832 0.25
507 1.21338 0.294759 3.09788 0.25
508 0.709262 0.141946 5.61815 0.25
509 8.26577 4.94779 4.99523 0.5
510 4.93805 1.80113 5.53 0.25
511 0.59339 0.599051 5.76619 0.25
512 0.824314 0.66218 3.00699 0.25
513 3.90678 1.14996 5.44376 0.25
514 2.06772 5.67885 5.90472 0.25
515 0.825689 7.78106 6.45983 0.25
516 7.40197 1.55772 6.12981 0.25
517 7.44545 5.46143 4.48161 0.25
518 0.973046 3.5858 4.5312 0.25
519 6.31414 1.87112 1.91271 0.25
520 7.0863 1.9949 6.32547 0.25
521 7.5858 1.7295 0.32649 0.25
522 6.69907 1.62586 7.74194 0.25
523 5.22079 6.79622 5.67002 0.25
524 2.602 0.397331 7.62568 0.25
525 6.30295 3.98212 7.22659 0.25
526 6.97006 5.33082 6.88364 0.25
527 7.53438 8.02996 4.28071 0.25
528 7.41997 1.27241 6.58059 0.25
529 6.60356 1.29393 2.91434 0.25
530 2.40814 1.82395 5.93187 0.25
531 7.93522 7.75789 4.05146 0.25
532 1.28884 0.736555 2.85968 0.25
533 7.22406 1.58432 7.82361 0.25
534 8.09459 5.90526 1.54222 0.25
535 0.498976 3.33707 5.5498 0.5
536 6.9939 2.35398 5.98243 0.25
537 4.10201 0.874728 5.86891 0.25
538 6.73215 5.06642 4.76328 0.25
539 2.63608 1.35751 5.97868 0.25
540 8.03866 6.3988 2.07554 0.5
541 7.60548 4.07441 1.5589 0.25
542 2.13217 2.12043 7.84166 0.25
543 3.39154 7.37282 7.0631 0.25
544 7.58175 6.52722 6.91349 0.25
545 1.43329 5.9607 3.87854 0.25
546 4.90728 5.81127 6.27854 0.25
547 5.1809 2.45244 0.0925746 0.25
548 6.14042 7.25073 6.67392 0.25
549 0.315725 7.74707 7.23029 0.25
550 6.21746 6.89123 0.0340324 0.25
551 4.67968 1.5394 2.47733 0.25
552 3.67454 5.39361 3.90266 0.25
553 7.06588 7.81879 3.78474 0.5
554 4.28765 6.403 3.10426 0.25
555 4.85564 6.67016 3.61388 0.5
556 6.92195 0.804732 0.798512 0.25
557 7.32162 5.00978 3.83726 0.5
558 6.50108 8.35274 3.70793 0.25
559 1.3187 0.451035 5.96346 0.5
560 5.16976 3.4371 2.38715 0.25
561 2.99848 3.04805 4.12417 0.25
562 5.2224 0.0248211 5.50122 0.25
563 2.32414 6.53697 1.52461 0.25
564 5.93906 6.81435 0.762828 0.5
565 6.59861 1.72968 6.42268 0.25
566 1.23966 1.6712 2.5196 0.25
567 4.42081 5.83016 6.04977 0.25
568 6.12556 1.34748 3.17136 0.25
569 2.4536 8.16575 8.03895 0.25
570 2.04371 6.78472 4.66707 0.25
571 2.77535 4.59924 6.92293 0.25
572 8.2212 2.80539 3.93672 0.5
573 4.18429 1.34478 2.44282 0.25
574 1.62652 5.85026 6.0935 0.25
575 2.05386 1.65624 8.13586 0.25
576 4.17419 5.66237 7.62103 0.25
577 5.23537 0.250962 5.04202 0.25
578 1.95598 7.60817 3.81346 0.25
579 7.59079 4.85024 7.32053 0.25
580 7.53564 0.244212 4.73413 0.5
581 4.23265 4.71456 6.11297 0.25
582 5.91445 3.00687 4.55269 0.25
583 5.77906 3.72972 4.79962 0.5
584 4.81689 6.55693 5.75534 0.25
585 5.10638 3.15694 1.42434 0.25
586 1.64114 0.137728 2.50297 0.5
587 4.87635 6.97812 2.55324 0.25
588 5.80259 5.13429 3.44363 0.25
589 0.0927126 2.55744 7.46805 0.25
590 3.58682 6.47671 1.83851 0.25
591 6.23688 1.39342 1.00991 0.25
592 7.389 7.1622 1.81523 0.5
593 6.70887 6.8551 1.59441 0.25
594 1.94933 4.8008 8.30261 0.5
595 0.669396 3.83965 7.86566 0.25
596 1.78925 0.839713 0.604661 0.25
597 0.0817096 0.254241 5.27918 0.5
598 2.57878 6.3074 1.09779 0.25
599 1.99179 8.15254 7.84279 0.25
600 7.70659 0.98059 5.52157 0.25
601 0.828039 0.945274 6.0841 0.25
602 3.87834 0.16254 2.08423 0.25
603 4.28937 5.61306 8.08259 0.25
604 7.48467 5.09086 6.8972 0.25
605 7.94334 2.10563 3.64082 0.25
606 2.21369 8.12078 2.19772 0.25
607 4.509 5.26667 7.78357 0.25
608 3.59246 7.67407 7.39115 0.25
609 6.82526 4.827 4.36171 0.25
610 1.95137 1.29225 5.51223 0.25
611 2.91357 0.565532 7.99679 0.25
612 0.671301 7.65762 0.232603 0.25
613 6.45302 1.60317 8.20584 0.25
614 4.67105 0.991257 5.02568 0.25
615 4.96925 2.60948 3.77439 0.25
616 1.18982 5.46756 3.04741 0.25
617 1.50727 7.69597 2.27961 0.25
618 7.55074 7.2797 4.38957 0.5
619 7.98583 7.97019 4.53727 0.25
620 8.25883 7.30939 2.54564 0.5
621 4.20976 6.47803 3.94498 0.25
622 6.24322 6.61573 6.1069 0.25
623 5.29523 6.61416 0.510682 0.25
624 1.07503 2.92653 5.26712 0.25
625 1.06291 5.55587 7.8786 0.25
626 3.42939 0.888745 1.59198 0.25
627 4.61716 4.52779 1.72814 0.25
628 8.22815 3.57994 2.41597 0.5
629 6.9737 3.05715 0.515723 0.25
630 1.07711 8.22138 2.88984 0.25
631 1.73432 1.44781 7.82183 0.25
632 7.5931 7.90952 1.86822 0.25
633 5.9926 7.65725 0.662963 0.25
634 3.01955 7.89744 3.87954 0.25
635 0.793136 7.22714 0.827592 0.5
636 1.42876 2.18957 1.37405 0.25
637 5.66872 0.284753 5.26939 0.25
638 4.90951 1.30784 5.38747 0.25
639 4.52852 1.92078 8.37838 0.25
640 5.08426 7.5218 0.370174 0.25
641 1.27215 6.6487 5.15292 0.25
642 3.60687 0.842446 5.70009 0.25
643 6.23222 6.93459 5.70398 0.25
644 5.88352 0.91345 3.09171 0.25
645 2.35929 2.0984 1.38839 0.25
646 7.99056 6.73183 6.66523 0.25
647 2.52649 2.98561 4.19281 0.25
648 5.02309 1.11837 8.33833 0.25
649 0.312836 4.4214 1.96374 0.25
650 8.38567 3.88974 1.33155 0.25
651 3.33354 3.11128 3.7527 0.25
652 6.98925 0.460493 6.98436 0.25
653 1.29485 6.55653 0.999248 0.25
654 0.884188 2.68103 8.277 0.25
655 3.40896 3.79773 6.44921 0.5
656 0.617544 3.49718 7.13314 0.25
657 1.66099 5.47962 5.71789 0.25
658 6.97799 0.180311 3.81586 0.25
659 2.45383 1.79108 7.94147 0.25
660 6.95693 5.96462 4.15731 0.5
661 8.17628 1.21955 8.29093 0.25
662 3.97487 4.76436 4.25701 0.25
663 2.52061 3.6039 1.72271 0.25
664 6.71315 2.75585 4.85442 0.25
665 7.88004 3.87069 1.18598 0.25
666 6.05786 6.78352 6.52277 0.25
667 6.54969 3.31051 0.612518 0.25
668 6.98474 6.54318 1.89231 0.25
669 6.15113 4.87298 7.00309 0.25
670 5.32086 8.22187 4.6264 0.25
671 3.51797 4.84727 4.48876 0.25
672 2.69498 3.18154 1.98156 0.25
673 0.575503 1.09785 3.03992 0.25
674 4.89572 7.34144 3.28015 0.25
675 5.43187 3.60324 5.47544 0.25
676 7.60502 8.1799 2.25494 0.25
677 6.19729 1.57919 1.45976 0.25
678 7.64189 6.22947 4.91521 0.25
679 1.10542 6.14632 1.2088 0.25
680 3.71295 6.6873 8.07158 0.25
681 7.91276 8.27541 4.14183 0.25
682 2.45463 6.04963 1.53296 0.25
683 1.76137 7.69241 7.0545 0.25
684 0.430586 3.98736 1.60385 0.25
685 2.58834 3.73386 6.53123 0.25
686 4.09877 2.9427 6.64051 0.25
687 2.66027 4.14316 0.579434 0.25
688 3.70916 0.839913 6.19836 0.25
689 6.11975 4.11029 8.07818 0.25
690 6.18397 1.10055 2.82856 0.25
691 6.99119 1.21318 1.70068 0.25
692 4.97118 4.83455 1.96959 0.25
693 7.50655 1.77069 6.5387 0.25
694 7.61553 5.24987 4.90342 0.25
695 8.40076 3.124 6.18534 0.25
696 5.77622 5.95831 3.32512 0.5
697 4.13496 3.84634 6.30278 0.25
698 1.65628 1.11621 5.15784 0.25
699 1.58652 6.88921 4.87102 0.25
700 3.75415 5.44106 1.35272 0.25
701 4.36337 1.7189 7.95177 0.25
702 2.02111 4.65019 7.54887 0.25
703 3.43124 6.60404 7.33908 0.5
704 4.71251 4.87755 7.96001 0.25
705 5.08314 3.29462 1.89413 0.25
706 5.12184 0.289958 0.0983126 0.25
707 4.71095 3.81981 1.44291 0.5
708 5.39288 7.63127 7.87536 0.25
709 2.61151 7.08024 1.97323 0.5
710 1.87785 4.6401 6.79854 0.25
711 5.14489 6.35393 3.02918 0.25
712 0.324768 5.18977 8.11279 0.25
713 2.63415 4.08212 1.85486 0.25
714 5.20685 4.10495 0.850967 0.25
715 4.73493 6.56753 2.82691 0.25
716 7.00313 1.22853 7.65164 0.25
717 7.75844 7.58825 3.67746 0.25
718 5.97507 3.38683 6.82471 0.25
719 5.92414 4.45684 7.77365 0.25
720 1.78347 7.83384 4.18596 0.25
721 6.77951 1.84344 2.135 0.25
722 2.45128 7.74185 3.3583 0.5
723 2.65637 7.55417 2.54778 0.25
724 7.03897 6.54284 1.39519 0.25
725 7.72308 6.34226 7.36801 0.25
726 0.967841 0.97027 5.6394 0.25
727 3.77916 0.535159 1.38875 0.25
728 3.6912 6.19096 8.04212 0.25
729 5.00136 5.99718 3.37351 0.25
730 2.9951 7.18887 7.24609 0.25
731 5.32639 3.44207 2.85409 0.25
732 4.07082 3.787 6.80495 0.25
733 3.71037 5.54202 7.55147 0.25
734 4.24709 0.863879 2.68848 0.25
735 3.27611 2.99571 6.56651 0.25
736 7.88907 1.66815 8.2774 0.25
737 3.04497 0.85189 1.26054 0.25
738 8.26878 7.73971 0.784085 0.25
739 4.69314 6.1244 3.03261 0.25
740 5.37071 7.20438 3.21486 0.25
741 0.350937 7.79922 1.00871 0.25
742 3.74402 4.74974 6.05679 0.25
743 6.93243 0.899489 1.29974 0.25
744 4.60017 0.561595 2.41856 0.25
745 3.54121 4.32005 5.90151 0.25
746 1.54646 6.16411 4.62982 0.5
747 4.71611 0.309593 1.99012 0.25
748 2.86565 6.77341 6.99674 0.25
749 1.50196 1.31879 2.27141 0.25
750 0.141557 3.57216 1.75708 0.25
751 1.34516 0.766806 5.2972 0.25
752 6.30002 4.76156 7.69558 0.25
753 4.14287 0.832158 1.90043 0.5
754 4.05873 5.44841 0.952664 0.25
755 2.85428 2.70291 1.32779 0.5
756 8.03424 6.72166 7.62152 0.25
757 5.73262 6.87285 5.59077 0.25
758 6.75247 3.79676 7.23538 0.25
759 4.32366 8.1598 5.68786 0.25
760 0.293357 2.70311 3.35515 0.25
761 3.80969 7.20813 7.20296 0.25
762 0.69607 1.68698 3.52185 0.5
763 3.9481 8.08192 1.89683 0.25
764 1.5132 6.41344 0.638982 0.25
765 7.56969 5.03154 3.12821 0.25
766 0.359034 4.23922 2.47387 0.25
767 2.65451 6.87984 7.39538 0.25
768 2.19312 2.72981 4.95326 0.25
769 8.01717 3.73013 1.66051 0.25
770 4.50213 1.02599 0.0667715 0.25
771 6.6148 1.32001 6.17382 0.25
772 4.72189 2.41722 7.71808 0.25
773 5.39649 0.892741 4.89976 0.5
774 4.01329 8.13339 5.33122 0.25
775 7.68887 4.58023 2.53837 0.5
776 7.05106 3.76651 0.414684 0.5
777 5.94882 6.51592 0.118498 0.25
778 4.90766 8.17004 8.34144 0.25
779 8.35293 8.05635 4.2502 0.25
780 2.40717 1.48607 5.56437 0.25
781 2.48064 1.59164 0.00869673 0.25
782 1.47178 7.39758 0.50597 0.25
783 6.80846 3.14724 0.979832 0.25
784 2.27932 7.65388 2.27183 0.25
785 2.36879 1.53711 6.36876 0.25
786 2.6441 7.88616 2.16518 0.25
787 7.73867 7.04201 6.94571 0.25
788 8.30474 4.25565 2.203 0.25
789 3.40175 8.03637 4.16818 0.25
790 6.52437 0.452796 6.7472 0.25
791 0.375283 4.72612 3.08604 0.5
792 2.16253 0.27507 7.80296 0.25
793 8.14637 7.12805 1.85421 0.25
794 5.44294 6.40183 6.24183 0.5
795 2.44131 3.99177 3.17857 0.25
796 2.30349 6.05445 5.63756 0.25
797 6.56787 6.66531 1.15 0.25
798 7.72938 4.35269 1.11682 0.25
799 3.90176 3.46487 6.01155 0.25
800 7.93868 2.04376 3.16316 0.25
801 3.28927 7.87743 7.08372 0.25
802 3.77695 5.18677 4.35933 0.25
803 3.15711 8.30045 7.69445 0.5
804 3.74827 6.89708 1.74002 0.25
805 1.85357 7.95188 1.95417 0.25
806 2.52837 1.80543 3.82851 0.25
807 4.62333 6.28225 5.4153 0.25
808 3.97782 2.43188 8.03232 0.25
809 1.80674 5.95777 5.64271 0.25
810 6.55198 7.49297 6.44684 0.25
811 1.66945 3.23513 4.78151 0.5
812 5.54888 7.46805 0.546596 0.25
813 4.46336 2.06859 3.04415 0.25
814 1.60466 7.45667 7.46543 0.25
815 2.73945 8.13017 4.58751 0.25
816 0.700168 2.9813 4.91135 0.25
817 4.04909 1.98797 8.21904 0.25
818 4.00327 2.04267 3.04328 0.25
819 1.98651 5.25116 1.34345 0.25
820 3.15283 3.28172 6.96608 0.25
821 1.45891 2.14188 8.05409 0.5
822 5.97138 4.38841 3.57848 0.5
823 4.77499 0.309553 8.13869 0.25
824 0.847674 0.574703 5.36463 0.25
825 3.86176 6.05053 7.51969 0.25
826 3.1615 3.59262 1.52651 0.5
827 5.77808 7.19998 6.34766 0.25
828 0.316009 2.37932 7.88834 0.25
829 0.0523037 7.95137 4.75469 0.25
830 0.882474 1.87372 2.84661 0.25
831 2.20679 4.256 7.86311 0.25
832 5.75952 4.74689 2.00636 0.25
833 2.10561 1.44037 6.00054 0.25
834 4.09473 0.377995 2.46489 0.25
835 6.5605 1.69724 1.16667 0.25
836 3.37787 7.57642 7.83787 0.25
837 4.02232 5.27589 7.91665 0.25
838 7.33354 0.69608 1.12218 0.25
839 6.09077 7.60902 6.27713 0.25
840 6.83709 4.60664 7.1508 0.5
841 3.38677 6.92762 2.08695 0.25
842 0.221985 2.25557 2.75124 0.5
843 5.91345 3.79492 5.5678 0.25
844 4.73825 2.34713 8.22648 0.25
845 7.55907 2.64611 5.25374 0.25
846 3.58971 3.6244 7.34616 0.5
847 2.21999 5.0915 0.592968 0.25
848 2.00091 6.06448 5.20506 0.25
849 5.16956 7.772 2.62792 0.25
850 6.42024 2.74428 5.55074 0.5
851 5.4672 8.1803 5.122 0.25
852 6.89053 1.8581 8.13465 0.25
853 4.29974 7.70969 5.46734 0.25
854 4.31129 1.66087 5.88473 0.5
855 0.465383 4.06482 5.25181 0.25
856 0.736361 5.35424 3.05715 0.25
857 3.64759 6.59596 1.3418 0.25
858 2.666 4.58784 3.73784 0.25
859 6.67174 4.58918 3.96695 0.25
860 7.7566 4.01031 0.769969 0.25
861 4.75838 2.8963 7.72651 0.25
862 6.63022 4.73545 3.51749 0.25
863 5.8508 5.98653 0.0324666 0.25
864 7.69017 6.89367 2.44516 0.25
865 3.82221 5.71586 8.01028 0.25
866 5.07228 8.1438 2.97918 0.25
867 1.74315 4.27584 7.67706 0.25
868 1.92691 1.57612 0.500389 0.5
869 0.966473 3.15177 7.29327 0.25
870 6.24129 5.45554 3.2469 0.25
871 2.88986 7.56034 6.9477 0.25
872 5.91445 3.02047 5.06963 0.25
873 8.05141 8.17195 0.627123 0.25
874 4.11064 1.08397 6.28535 0.25
875 2.23181 4.15481 1.18482 0.5
876 1.64435 5.71469 5.2675 0.25
877 8.31996 5.11916 7.75861 0.25
878 5.75286 0.931622 2.608 0.25
879 3.21324 8.22159 4.61865 0.25
880 6.52675 5.90054 3.10484 0.25
881 7.39602 1.11864 1.41388 0.25
882 7.95657 7.13153 7.38655 0.25
883 0.356713 3.97331 2.04122 0.25
884 7.28802 3.19566 0.865671 0.25
885 0.947132 4.18608 5.18387 0.25
886 7.99065 7.41655 3.2364 0.25
887 0.918616 6.59451 1.33836 0.25
888 1.01731 4.59629 3.45898 0.25
889 1.45207 7.82951 2.73987 0.25
890 0.112987 4.64478 2.39145 0.25
891 0.965592 2.20649 7.45679 0.25
892 7.56019 3.566 0.933124 0.25
893 1.10226 7.756 0.399985 0.25
894 3.96364 5.82975 1.24948 0.25
895 3.66627 5.69426 0.932531 0.25
896 1.61818 1.37882 8.25931 0.25
897 8.0676 4.22205 1.48425 0.25
898 0.638858 4.63579 3.84657 0.25
899 1.11687 8.15412 6.36645 0.25
900 5.16138 6.26994 5.64886 0.25
901 0.911989 1.46798 2.82895 0.25
902 7.38589 3.97083 1.09604 0.25
903 5.85124 3.81901 4.00598 0.25
904 6.87034 4.08104 7.66653 0.25