ITEM: TIMESTEP
750000
ITEM: NUMBER OF ATOMS
1000
ITEM: BOX BOUNDS xy xz yz pp pp pp
0.0000000000000000e+00 8.3788359999999997e+00 0.0000000000000000e+00
0.0000000000000000e+00 8.3788359999999997e+00 0.0000000000000000e+00
0.0000000000000000e+00 8.3788359999999997e+00 0.0000000000000000e+00
ITEM: ATOMS id x y z radius
1 2.43531 6.82086 4.95759 0.25
2 4.86887 5.14344 5.24487 0.25
3 7.03267 4.59453 3.16123 0.25
4 7.36841 1.06856 5.82159 0.5
5 1.2183 5.65426 6.37339 0.25
6 8.29101 1.78395 3.43048 0.25
7 4.35019 3.28936 6.40922 0.25
8 4.85393 7.70423 3.0286 0.25
9 0.771022 6.18283 3.85332 0.25
10 4.14948 1.5228 3.54029 0.25
11 5.35824 0.0375449 7.92529 0.25
12 5.14263 3.41257 1.44006 0.25
13 0.538899 2.35084 7.62024 0.25
14 3.93481 2.81899 7.04613 0.25
15 8.23075 3.05247 6.01349 0.25
16 7.58525 1.06349 6.64168 0.25
17 0.847025 5.29027 8.29179 0.25
18 6.10181 7.46737 8.18308 0.25
19 4.59527 1.76759 7.58066 0.25
20 7.79716 1.45189 0.534026 0.25
21 4.9493 4.15788 1.80262 0.25
22 4.2813 3.2053 1.22496 0.25
23 2.19243 3.29906 1.96005 0.25
24 2.84486 2.06853 4.6995 0.25
25 2.81484 4.50282 2.95409 0.25
26 0.425821 8.36141 5.62387 0.25
27 3.82837 0.399355 5.72827 0.25
28 4.08227 2.19806 8.17403 0.25
29 5.10583 6.8624 2.97605 0.25
30 7.44064 7.41889 2.3973 0.25
31 2.7561 0.27695 7.96209 0.25
32 0.933485 2.61277 7.56129 0.25
33 7.76112 0.167321 5.16207 0.25
34 1.95278 5.63024 1.63593 0.25
35 8.04826 0.150478 4.41742 0.25
36 6.82389 1.99949 5.80304 0.5
37 4.03239 1.40568 2.26926 0.25
38 2.0199 3.42571 4.22683 0.25
39 6.0952 2.60535 4.73582 0.25
40 5.34313 7.63486 3.12533 0.25
41 6.67224 2.27042 2.80924 0.25
42 5.693 6.11763 5.74601 0.25
43 3.44291 7.73979 4.80972 0.25
44 3.72124 0.044593 5.40116 0.25
45 5.5186 4.08687 4.04499 0.25
46 3.21137 5.95044 1.39888 0.5
47 4.95674 0.873184 5.42875 0.25
48 8.17349 6.23119 6.84425 0.25
49 7.26812 6.77752 4.73018 0.25
50 7.93484 1.40283 1.01993 0.25
51 2.51122 3.45356 4.32085 0.25
52 0.744098 1.55181 2.36862 0.25
53 6.5028 5.00736 6.77331 0.25
54 5.78242 3.28079 4.08123 0.25
55 1.59949 1.0599 5.98765 0.25
56 1.35819 7.24909 0.246163 0.25
57 4.70205 0.816285 1.99712 0.25
58 2.25192 2.15418 4.11142 0.25
59 4.61103 1.1948 6.29235 0.25
60 7.66959 5.50197 5.24958 0.25
61 5.04083 8.05094 8.02933 0.25
62 5.15002 1.94907 0.0784785 0.5
63 7.482 6.69353 1.10434 0.25
64 1.10867 6.22256 1.04952 0.25
65 4.29218 0.107274 1.88454 0.25
66 2.14174 4.84125 7.21983 0.25
67 8.07339 4.87792 7.54769 0.25
68 7.26693 0.740559 6.535 0.25
69 0.325656 5.41746 7.64808 0.25
70 1.61367 4.87119 1.07391 0.25
71 8.04769 1.13618 0.267138 0.25
72 6.40323 6.23567 3.47951 0.25
73 0.61021 7.58635 6.72886 0.25
74 7.44431 5.55485 6.71575 0.25
75 7.15621 0.126329 3.33644 0.25
76 7.44177 6.47204 4.37246 0.25
77 5.59527 2.75548 5.37281 0.25
78 5.43999 3.73799 1.16076 0.25
79 7.66711 5.05752 4.52398 0.25
80 5.75174 3.21401 5.41983 0.25
81 7.0864 1.47744 1.07887 0.25
82 0.0879179 2.63906 5.94114 0.25
83 4.46221 5.89958 5.56399 0.25
84 1.08065 1.07418 5.96549 0.25
85 1.41601 1.1346 5.14393 0.25
86 4.56197 8.36709 5.40001 0.25
87 1.90352 2.35342 0.817041 0.25
88 3.23716 6.70672 1.63872 0.25
89 6.88643 7.38804 0.876938 0.25
90 5.57621 6.53062 5.54121 0.25
91 4.05674 4.28202 6.19038 0.25
92 6.05869 4.50463 7.38038 0.25
93 5.15942 6.62038 5.25338 0.25
94 6.81814 0.352235 4.03581 0.25
95 0.260221 4.45475 7.85434 0.5
96 5.33533 3.12479 3.47981 0.5
97 4.13833 5.01362 8.24101 0.25
98 0.0902759 2.27207 3.39371 0.25
99 1.64373 6.29839 6.04892 0.25
100 6.97289 6.87727 0.986137 0.25
101 0.883777 7.59358 8.16142 0.25
102 7.90828 4.79776 3.34855 0.25
103 6.77646 1.17807 1.31912 0.25
104 0.955133 4.59516 7.60147 0.25
105 5.2019 5.80498 5.21191 0.5
106 5.34032 0.429599 4.49916 0.25
107 4.35764 3.1563 6.95143 0.25
108 4.6354 1.39648 8.31036 0.25
109 0.668146 0.785284 5.71883 0.25
110 2.3124 8.02205 8.29176 0.25
111 3.18452 3.88629 6.90864 0.25
112 4.47314 2.09332 7.97744 0.25
113 1.76528 1.95454 1.94009 0.5
114 1.78523 3.67602 7.23536 0.25
115 4.65873 6.45353 6.17055 0.25
116 2.57259 7.14684 7.02801 0.25
117 4.1426 2.2367 3.68917 0.5
118 6.71209 7.2711 1.32392 0.25
119 0.802537 6.39151 3.31259 0.25
120 0.109319 2.88499 2.95055 0.25
121 3.11746 4.10257 3.60957 0.25
122 6.81362 0.82527 6.30066 0.25
123 5.27919 0.444537 5.54626 0.25
124 7.91989 8.123 2.47521 0.25
125 3.42035 2.07305 3.92847 0.25
126 3.56848 1.17296 5.70148 0.25
127 5.33068 3.84247 1.62073 0.25
128 6.62864 5.37043 7.09494 0.25
129 0.947654 6.4718 4.28768 0.25
130 6.0356 6.18716 0.424605 0.25
131 7.07926 1.60648 6.32329 0.25
132 5.97728 4.06888 7.5133 0.25
133 3.09954 1.71342 3.74344 0.25
134 4.38992 2.62608 8.16297 0.25
135 5.39866 3.92948 3.61836 0.25
136 2.89041 2.51302 3.704 0.5
137 2.90479 4.0447 3.11729 0.25
138 7.34959 7.88875 2.88264 0.5
139 2.57146 7.57949 5.17391 0.25
140 5.19964 7.55557 7.91207 0.25
141 7.71212 5.95057 4.9983 0.25
142 0.984384 5.1418 3.29904 0.25
143 2.25111 2.05881 8.26078 0.25
144 5.07127 1.18119 2.60997 0.5
145 7.56951 1.96157 3.91683 0.25
146 6.09594 7.39619 0.306368 0.25
147 6.49527 5.70862 4.50149 0.25
148 2.17667 3.05065 4.50536 0.25
149 4.58681 8.24553 2.56851 0.5
150 4.85377 2.95689 4.08684 0.25
151 3.55134 5.88133 7.19862 0.25
152 3.69234 4.76482 5.61851 0.25
153 6.81408 6.05687 2.30299 0.5
154 7.31238 2.44358 4.44912 0.5
155 2.9863 7.21867 7.73024 0.25
156 7.46551 3.52407 1.56972 0.25
157 7.68771 5.99122 1.53386 0.25
158 2.60289 3.72953 0.840083 0.25
159 7.06213 7.9174 4.41439 0.25
160 6.51917 1.91232 3.06851 0.25
161 0.816214 5.35247 2.907 0.25
162 5.91158 4.21474 7.01311 0.25
163 3.2605 3.76777 4.30833 0.5
164 2.61667 3.86707 2.46129 0.5
165 5.4204 7.96652 7.7348 0.25
166 0.0890756 3.66296 7.92149 0.25
167 6.58174 4.04503 8.20233 0.25
168 4.81969 6.12587 5.82233 0.25
169 4.11278 4.49005 5.69073 0.25
170 8.29704 2.74103 6.39943 0.25
171 7.86544 5.90125 1.05128 0.25
172 1.19428 2.88993 6.90805 0.25
173 4.42507 6.41 5.73745 0.25
174 2.34008 2.30699 1.05865 0.25
175 7.71702 2.46834 5.84905 0.5
176 2.51554 5.81007 6.19183 0.25
177 5.31327 3.60913 4.03918 0.25
178 3.03577 6.38521 1.92069 0.25
179 3.45887 1.96878 3.47158 0.25
180 5.96008 6.55277 5.89997 0.25
181 6.75985 4.1967 6.85889 0.25
182 3.18452 5.28141 3.38475 0.25
183 7.90482 7.68038 1.69888 0.25
184 3.65869 5.25211 8.28196 0.25
185 5.82321 6.96437 6.20932 0.25
186 7.48011 5.97617 4.55932 0.25
187 2.67208 5.18176 4.03013 0.25
188 0.698024 5.92698 3.41718 0.25
189 4.12153 6.57285 3.53405 0.25
190 4.07544 3.63594 1.37488 0.25
191 6.99827 1.61147 0.318346 0.5
192 0.901498 4.93469 7.98594 0.25
193 3.95379 5.27298 1.01655 0.25
194 2.57965 6.26719 1.73535 0.25
195 6.19579 5.6405 2.75184 0.25
196 2.21959 7.9342 2.62454 0.25
197 1.24608 0.277207 2.09261 0.25
198 7.67276 4.91278 7.33878 0.25
199 1.19785 1.28796 3.19201 0.25
200 4.62007 5.20107 1.44599 0.5
201 6.78562 1.49733 3.04781 0.25
202 8.22595 3.82316 5.42947 0.25
203 3.64529 1.65007 3.70559 0.25
204 5.60131 8.01092 0.108155 0.5
205 2.41007 7.47138 4.42006 0.5
206 0.313231 4.50145 5.27814 0.25
207 5.70118 2.75195 3.99201 0.25
208 6.90087 5.37659 4.33866 0.25
209 5.51361 7.05017 8.35223 0.5
210 1.82224 8.01248 3.00815 0.25
211 0.634859 3.7618 5.07653 0.25
212 1.53537 7.93937 8.24059 0.5
213 0.238469 4.16053 2.78606 0.25
214 1.7742 7.98012 2.47265 0.25
215 2.8057 4.28435 3.95371 0.25
216 6.37721 1.98887 2.52443 0.25
217 4.91696 3.63134 1.84313 0.25
218 2.27132 3.41941 4.74308 0.25
219 4.38355 0.95523 2.86316 0.25
220 3.55462 3.59543 0.942914 0.25
221 4.12594 8.35815 5.61088 0.25
222 7.40045 0.448727 5.37924 0.25
223 8.17442 2.71127 2.60524 0.25
224 7.14289 5.53027 7.14102 0.25
225 7.32605 2.22331 5.2362 0.25
226 4.94007 2.07128 7.79141 0.25
227 6.56001 3.72522 6.94078 0.25
228 5.35846 3.08452 4.18906 0.25
229 5.73548 5.04206 1.88917 0.25
230 0.364949 8.16361 6.3282 0.5
231 5.4011 4.53541 1.34991 0.5
232 1.86535 2.93409 4.19644 0.25
233 3.79451 5.28512 4.37721 0.25
234 6.65426 1.6414 6.50897 0.25
235 3.15498 7.30235 4.65137 0.25
236 0.845877 2.39333 8.01665 0.25
237 8.27416 2.93794 7.49155 0.25
238 3.37594 0.663698 1.23441 0.25
239 0.425939 2.41731 3.75042 0.25
240 6.71528 6.2422 1.51907 0.25
241 3.37254 7.06649 7.99403 0.25
242 1.69483 7.30671 2.72861 0.5
243 2.95711 4.84974 3.28493 0.25
244 7.06664 3.52994 1.19995 0.25
245 2.08553 1.18924 5.9734 0.25
246 7.50477 8.20187 3.59068 0.25
247 3.56874 2.47318 3.53651 0.25
248 3.78952 3.24804 1.20135 0.25
249 0.160954 5.103 7.35503 0.25
250 1.44526 3.83461 5.30991 0.25
251 5.31255 2.59767 4.67825 0.5
252 3.2248 2.27142 4.36143 0.25
253 7.99763 5.58169 7.25343 0.5
254 7.4166 5.91435 7.07437 0.25
255 4.59709 0.471479 5.93613 0.5
256 5.60923 6.26699 0.0958112 0.25
257 1.18078 0.155185 2.62756 0.25
258 1.71684 1.72577 2.60662 0.25
259 4.47037 3.42938 1.66008 0.25
260 7.83796 6.34807 1.27127 0.25
261 4.12426 8.16316 1.52869 0.25
262 3.55756 2.51509 4.06496 0.25
263 2.40158 0.246211 0.215153 0.5
264 2.78953 4.41081 3.44375 0.25
265 1.1661 3.84145 7.62841 0.5
266 0.891212 7.56507 7.44793 0.5
267 5.1221 2.54496 7.85838 0.25
268 6.31822 7.80711 0.185725 0.25
269 1.39654 5.30206 0.948864 0.25
270 4.05715 3.53709 0.889192 0.25
271 7.50396 7.92279 4.62294 0.25
272 1.67918 0.98893 2.54302 0.25
273 1.46682 3.26132 7.20849 0.25
274 0.78863 5.44975 7.82636 0.25
275 4.68202 4.49159 1.52036 0.25
276 2.7828 3.27634 1.0629 0.25
277 6.59078 1.16102 6.66839 0.25
278 3.92425 6.10165 1.22665 0.25
279 4.11855 0.545025 5.02615 0.5
280 7.89893 8.20231 4.81693 0.25
281 0.844078 6.55227 0.724738 0.25
282 6.17049 7.21167 6.39826 0.25
283 1.12755 8.34502 6.09635 0.25
284 7.35731 4.43517 0.966424 0.25
285 1.811 6.00656 1.0218 0.5
286 5.45758 6.61843 3.12375 0.25
287 1.40454 7.82498 3.56612 0.5
288 2.83954 7.20743 4.99026 0.25
289 2.31663 7.23461 5.14729 0.25
290 2.03982 3.79754 1.97828 0.25
291 8.28902 7.50826 7.11905 0.25
292 7.78454 2.52431 3.284 0.25
293 7.52303 4.38155 3.29253 0.25
294 5.33945 3.85978 3.12506 0.25
295 8.14535 4.12138 1.08841 0.25
296 0.48358 4.24961 4.59913 0.5
297 3.9218 3.16702 6.65834 0.25
298 6.24468 4.97669 7.21685 0.25
299 5.79983 4.92558 7.49503 0.25
300 6.39427 3.45489 0.441894 0.25
301 1.20655 7.24429 8.13415 0.25
302 0.1161 4.17643 1.45954 0.25
303 3.7871 1.00732 1.20622 0.25
304 2.07154 2.62303 4.64497 0.25
305 0.635671 4.85354 0.0728964 0.25
306 2.35706 2.21298 4.5816 0.25
307 1.68263 4.62812 7.78853 0.5
308 3.5003 4.93985 3.20233 0.25
309 4.42967 0.983284 5.48193 0.25
310 0.89108 4.7667 4.23715 0.25
311 7.27074 0.173511 3.83329 0.25
312 0.982841 0.888058 2.50974 0.5
313 0.961086 3.87825 5.4864 0.25
314 5.19304 3.45906 2.79289 0.25
315 1.02028 4.45888 8.08806 0.25
316 1.75542 4.19207 7.16095 0.25
317 7.61503 2.44363 3.76431 0.25
318 2.30153 2.61483 4.23158 0.25
319 4.85795 7.17837 8.09389 0.25
320 2.1163 6.13449 6.08833 0.25
321 4.23555 0.728139 1.28595 0.25
322 7.11173 6.51221 5.11225 0.25
323 0.79522 6.04654 4.37452 0.25
324 4.10115 7.20827 7.90105 0.5
325 0.828584 1.62058 0.334234 0.25
326 4.17306 4.89243 5.04633 0.5
327 7.11868 7.40593 3.49798 0.25
328 2.15466 7.67537 1.84955 0.25
329 1.16465 6.0467 3.53271 0.25
330 8.29401 7.02249 7.28773 0.25
331 0.945038 5.45999 3.96709 0.5
332 7.3501 6.56779 2.07651 0.25
333 1.14359 1.49388 2.05886 0.25
334 6.72848 1.73901 1.36557 0.25
335 3.29883 3.15484 1.03801 0.25
336 3.04503 7.02812 6.81766 0.25
337 4.35981 7.2302 3.04438 0.5
338 6.57044 7.3475 0.116971 0.25
339 1.98461 7.93519 3.97625 0.25
340 4.8999 0.555291 4.77765 0.25
341 6.6091 0.145868 3.26817 0.25
342 1.17642 5.09154 7.6161 0.25
343 2.88947 1.41367 0.271704 0.25
344 1.1138 5.68487 2.76637 0.25
345 0.498631 1.40223 2.82301 0.25
346 0.35791 2.28582 8.09048 0.25
347 3.3707 5.79652 7.66339 0.25
348 7.21972 7.86702 2.10385 0.25
349 0.714138 2.01562 -0.0151008 0.25
350 6.80609 1.76943 2.63101 0.25
351 1.46158 7.14048 0.735688 0.25
352 6.45955 3.53213 7.7084 0.5
353 2.49769 -0.00165015 7.53099 0.25
354 1.94473 0.735327 5.91668 0.25
355 0.723545 0.29022 5.95805 0.25
356 1.69938 1.86491 6.16058 0.25
357 2.97047 4.11684 6.57805 0.25
358 6.13811 3.33962 5.17388 0.25
359 4.15199 1.00319 6.29772 0.25
360 1.94837 2.0779 1.15759 0.25
361 0.982567 7.59355 0.244675 0.25
362 6.28244 4.1015 6.71363 0.25
363 7.96904 4.02287 2.07886 0.25
364 6.06289 3.77176 7.02899 0.25
365 5.59957 6.11667 0.566185 0.25
366 5.53963 6.52312 0.904591 0.25
367 2.98196 4.35346 7.00405 0.25
368 7.03644 3.81465 8.14472 0.25
369 1.14188 6.85356 0.422323 0.25
370 5.43929 0.387683 8.34126 0.25
371 2.61847 8.03372 4.878 0.25
372 1.9269 4.7253 0.72678 0.25
373 6.95319 2.81127 5.0216 0.25
374 3.7306 4.46017 4.58116 0.25
375 5.3018 0.862781 8.1061 0.25
376 2.58281 5.69285 1.04981 0.25
377 6.42825 1.53919 1.96762 0.5
378 0.47469 3.77003 7.63967 0.25
379 5.12095 1.34014 8.02449 0.25
380 2.31793 6.77168 4.49767 0.25
381 4.11173 5.51113 5.52609 0.25
382 2.01277 6.95365 4.86664 0.25
383 6.26052 5.24535 3.93064 0.5
384 2.23682 1.76771 1.29993 0.25
385 7.12463 1.52331 7.09644 0.5
386 1.36143 1.28501 5.60625 0.25
387 7.87463 1.01186 0.748477 0.25
388 0.649451 5.85223 2.92442 0.25
389 4.43287 2.5675 7.45586 0.5
390 3.85549 0.58407 6.23322 0.25
391 5.39037 4.74538 2.13525 0.25
392 8.22123 2.52122 3.10125 0.25
393 2.79175 6.58977 1.42338 0.25
394 0.812863 8.08524 7.93388 0.25
395 2.6859 1.99044 1.11714 0.25
396 4.72201 7.70072 8.00691 0.25
397 5.03477 0.621872 0.0484997 0.25
398 7.39511 1.39706 8.09587 0.25
399 3.23323 4.42121 3.239 0.25
400 5.03329 4.39991 0.699583 0.25
401 2.26886 7.12994 3.74261 0.25
402 8.2362 7.97384 6.83964 0.25
403 7.74746 6.34727 0.784113 0.25
404 8.07335 6.6784 7.01607 0.25
405 0.563475 7.54021 0.113245 0.25
406 5.50625 8.35694 4.33504 0.25
407 2.58181 1.05082 8.03709 0.5
408 5.4786 3.36712 2.42527 0.25
409 2.11701 4.91532 1.17674 0.25
410 7.3862 0.850109 0.170015 0.5
411 4.5237 5.50791 5.25713 0.25
412 8.29339 7.09894 6.83228 0.25
413 1.1394 1.25703 0.234208 0.25
414 0.509045 3.05545 7.97529 0.5
415 6.54834 4.62563 2.99936 0.25
416 3.10822 3.18261 6.45448 0.25
417 3.32701 4.77394 3.95607 0.5
418 7.01039 6.68276 4.33221 0.25
419 4.07044 3.95845 5.81813 0.25
420 0.801675 3.22523 4.93053 0.25
421 4.11987 4.98646 5.7391 0.25
422 2.22077 5.39674 1.20513 0.25
423 0.284566 0.394268 5.80159 0.25
424 0.429957 3.48219 4.73294 0.25
425 1.8901 2.83818 1.37901 0.5
426 7.01282 5.67915 5.06981 0.5
427 2.69019 2.20625 4.30166 0.25
428 3.98641 5.15877 3.93964 0.25
429 4.55073 4.65696 5.66126 0.25
430 1.82789 7.18159 3.48717 0.25
431 0.988748 3.37528 6.98324 0.25
432 1.65038 6.85497 4.1532 0.5
433 2.23784 1.54155 7.5362 0.25
434 0.942933 6.68808 1.19018 0.25
435 5.65848 3.53071 2.85778 0.25
436 1.0479 6.06873 3.06418 0.25
437 0.143167 1.00204 0.302692 0.25
438 1.05998 3.53378 5.17324 0.25
439 3.79467 2.67212 6.58992 0.25
440 5.09745 1.64919 7.67398 0.25
441 7.87365 4.19398 5.36241 0.25
442 2.43014 5.77468 1.49627 0.25
443 0.407848 2.81047 7.00563 0.5
444 2.10302 3.53263 1.51039 0.25
445 5.45336 6.9758 0.680656 0.25
446 4.15584 5.80201 3.49516 0.5
447 1.35054 1.48801 6.09598 0.25
448 5.8838 7.37294 5.99645 0.25
449 1.12299 5.46536 5.91143 0.25
450 3.02122 3.63435 0.904599 0.25
451 2.71391 6.9373 5.38419 0.25
452 2.59451 1.01344 0.384398 0.25
453 4.73345 4.64737 1.0742 0.25
454 0.117872 3.36891 7.46757 0.25
455 7.77458 5.1519 7.8515 0.25
456 2.9983 1.85846 4.19358 0.25
457 2.51571 3.80535 7.10963 0.5
458 0.0846756 7.53161 6.70746 0.25
459 4.99001 7.58956 -0.0168699 0.25
460 5.64436 0.125516 4.8089 0.25
461 2.64658 3.67092 1.31431 0.25
462 6.27874 4.96476 3.24763 0.25
463 5.12863 7.344 2.8551 0.25
464 7.60965 6.78705 6.99816 0.25
465 7.10523 2.5944 5.44782 0.25
466 4.06271 1.26342 3.12259 0.25
467 3.89556 6.08455 1.72905 0.25
468 6.9059 5.31244 3.03207 0.5
469 7.50065 7.25539 6.82188 0.25
470 0.628335 1.20444 0.265187 0.25
471 1.93067 0.915867 6.3836 0.25
472 1.88459 7.29973 2.00546 0.25
473 7.39378 5.10525 5.43958 0.25
474 5.26563 5.91168 5.96734 0.25
475 1.42729 1.3514 2.76125 0.25
476 7.03156 0.784624 7.34849 0.25
477 3.13871 5.41263 3.85528 0.25
478 6.25973 3.33158 7.01652 0.25
479 3.45923 7.23981 7.51135 0.25
480 4.81271 0.312415 1.90761 0.25
481 7.94484 2.23113 4.07862 0.25
482 7.11319 5.07324 4.58003 0.25
483 8.12915 5.66067 5.05525 0.25
484 3.09528 0.444512 8.23845 0.25
485 7.95429 7.49178 6.78483 0.25
486 2.59095 6.23558 5.91337 0.25
487 8.14118 7.72744 4.21614 0.25
488 4.49005 4.21723 5.90035 0.25
489 0.758019 7.97671 0.0197842 0.25
490 8.01408 8.0987 1.96548 0.25
491 4.44483 2.91814 1.61597 0.25
492 2.50215 1.77861 4.39456 0.25
493 6.32034 4.53456 6.96497 0.25
494 4.80317 7.5437 2.53779 0.25
495 1.31181 5.93371 5.97465 0.25
496 2.94641 7.71563 4.85454 0.25
497 6.37683 4.27994 7.73466 0.25
498 3.31416 2.9562 4.10156 0.25
499 0.627265 5.00046 7.57615 0.25
500 3.99548 3.01394 6.25203 0.25
501 5.74954 3.69983 3.84182 0.25
502 1.68256 7.79979 7.51433 0.25
503 5.91582 5.03141 2.59718 0.5
504 7.67297 7.79625 2.12558 0.25
505 5.94536 1.703 2.46293 0.25
506 7.0723 6.31744 4.66116 0.25
507 1.31325 0.47229 2.97849 0.25
508 0.778603 8.38582 5.20594 0.25
509 8.10031 4.90907 5.12612 0.5
510 4.90443 1.62116 5.75253 0.25
511 0.667494 0.375192 5.4697 0.25
512 1.0885 0.806496 3.25251 0.25
513 3.90217 1.09663 5.37357 0.25
514 2.06555 5.62808 6.07956 0.25
515 0.772446 8.07843 6.88508 0.25
516 7.53788 1.74973 6.05568 0.25
517 7.37452 5.43596 4.44167 0.25
518 0.886283 3.64185 4.68142 0.25
519 6.30045 2.03302 1.40315 0.25
520 7.05782 2.42441 6.32526 0.25
521 7.72627 1.52412 0.0875546 0.25
522 6.7365 1.11828 7.59619 0.25
523 5.27294 6.88769 5.66406 0.25
524 2.7 0.482033 7.534 0.25
525 6.39804 4.12229 7.215 0.25
526 6.98745 5.18964 6.77207 0.25
527 7.41218 8.06454 4.06143 0.25
528 7.52626 1.52872 6.44947 0.25
529 6.70185 1.25307 2.61523 0.25
530 2.06639 1.77149 6.51978 0.25
531 7.8378 7.92253 3.84479 0.25
532 1.53598 0.897774 3.04654 0.25
533 7.20376 1.10219 7.74647 0.25
534 8.16276 5.99745 1.46249 0.25
535 0.417648 3.2884 5.56647 0.5
536 6.99567 2.71701 5.92005 0.25
537 3.9723 0.874465 5.80588 0.25
538 6.57092 5.22022 4.67116 0.25
539 2.30848 1.30387 6.38276 0.25
540 8.10349 6.55862 1.95715 0.5
541 7.60075 3.99901 1.72011 0.25
542 2.0597 1.9028 7.79614 0.25
543 3.39899 7.28812 7.07635 0.25
544 7.79125 6.47535 6.65167 0.25
545 1.22792 6.12043 4.05735 0.25
546 4.81509 5.99304 6.27971 0.25
547 5.19457 2.66641 8.32669 0.25
548 6.09858 7.41336 6.81426 0.25
549 0.31217 7.80971 7.04381 0.25
550 6.27872 7.01173 0.0230815 0.25
551 4.32133 1.38429 2.66115 0.25
552 3.61689 5.51619 3.95266 0.25
553 6.78043 8.01325 3.74859 0.5
554 4.25674 6.47569 3.04502 0.25
555 4.8591 6.59187 3.54088 0.5
556 7.40221 0.762177 0.932404 0.25
557 7.29706 4.89233 3.86079 0.5
558 6.44718 0.3404 3.69682 0.25
559 1.33087 0.485241 5.5831 0.5
560 4.94788 3.42276 2.29619 0.25
561 2.82397 3.185 4.00656 0.25
562 5.07807 0.0277076 5.44381 0.25
563 2.29112 6.56273 1.43607 0.25
564 6.26957 6.91963 0.773298 0.5
565 6.90637 2.04377 6.57179 0.25
566 1.21764 1.64123 2.48532 0.25
567 4.38022 6.01656 6.05012 0.25
568 5.85806 1.37663 2.84389 0.25
569 2.63593 8.23447 7.96088 0.25
570 1.99882 6.51588 4.83428 0.25
571 3.14901 4.05688 7.37261 0.25
572 8.1963 2.87967 3.72496 0.5
573 3.85708 1.52416 2.72029 0.25
574 1.71641 5.91624 6.33359 0.25
575 2.17739 1.62347 8.19859 0.25
576 4.19856 5.62236 7.76017 0.25
577 5.25085 0.272659 5.0296 0.25
578 1.94857 7.45846 3.84759 0.25
579 7.40102 5.28883 7.51925 0.25
580 7.33288 0.249847 4.61358 0.5
581 4.39987 4.66816 6.08235 0.25
582 5.85527 2.92217 4.4338 0.25
583 5.59188 3.62716 4.68733 0.5
584 4.87514 6.62719 5.73117 0.25
585 4.75358 3.14128 1.35498 0.25
586 1.85 0.290333 2.52551 0.5
587 4.86444 7.04167 2.55738 0.25
588 5.78586 5.15901 3.34591 0.25
589 0.0460563 2.48004 7.67168 0.25
590 3.54198 6.3709 1.97699 0.25
591 6.61212 1.41492 0.944508 0.25
592 7.3518 7.1954 1.65976 0.5
593 6.71707 6.78763 1.43105 0.25
594 1.32451 4.91063 0.330283 0.5
595 0.550727 3.82621 8.09998 0.25
596 2.30285 0.829686 0.74016 0.25
597 0.0647281 0.301179 5.07232 0.5
598 2.47141 6.13805 1.23753 0.25
599 2.12145 8.26082 7.92638 0.25
600 7.81284 0.449681 5.59875 0.25
601 0.614559 0.797773 5.21862 0.25
602 4.00452 0.156715 2.2329 0.25
603 4.10695 5.48569 8.21733 0.25
604 7.43381 5.1286 7.02296 0.25
605 7.96881 2.14882 3.61358 0.25
606 2.10244 8.09301 2.12716 0.25
607 4.41507 5.19304 7.8682 0.25
608 3.65226 7.61658 7.36965 0.25
609 6.71674 4.82383 4.40386 0.25
610 1.75898 1.50337 5.81178 0.25
611 3.09194 0.606958 7.75277 0.25
612 0.876646 7.17092 0.104383 0.25
613 6.89057 1.14852 8.1177 0.25
614 4.73304 0.936975 5.02454 0.25
615 4.76443 2.68241 3.74598 0.25
616 1.05728 5.62127 3.26772 0.25
617 1.37281 8.16358 2.26208 0.25
618 7.51899 7.32431 4.19928 0.5
619 7.81279 8.08276 4.35171 0.25
620 8.17854 7.4148 2.36621 0.5
621 4.30667 6.36001 4.01652 0.25
622 6.15529 6.70341 6.38031 0.25
623 5.91777 6.246 0.890513 0.25
624 1.22464 3.4488 5.54821 0.25
625 1.29639 5.28049 8.01499 0.25
626 3.58881 0.249921 1.3911 0.25
627 4.94357 4.67338 1.9306 0.25
628 8.28251 3.49679 2.52669 0.5
629 7.06919 3.38819 8.33633 0.25
630 1.45311 0.0364975 3.12139 0.25
631 1.89262 1.38515 7.84375 0.25
632 7.5905 8.04105 1.70924 0.25
633 6.12948 7.71513 0.654992 0.25
634 2.87161 7.89695 3.98154 0.25
635 0.791964 7.31723 0.862185 0.5
636 1.75075 1.64214 1.20337 0.25
637 5.62856 0.24975 5.30244 0.25
638 4.7628 1.32807 5.33919 0.25
639 4.36606 1.79132 8.37926 0.25
640 5.19328 7.40838 0.47641 0.25
641 1.31969 6.55623 5.36441 0.25
642 3.58681 0.784615 5.46865 0.25
643 6.24979 6.98956 5.92209 0.25
644 5.76255 0.931875 2.69785 0.25
645 2.34493 2.1409 1.52147 0.25
646 8.24009 6.66849 6.59345 0.25
647 2.35583 3.05437 4.02846 0.25
648 5.05312 1.13847 0.0796881 0.25
649 0.371439 4.17347 1.95434 0.25
650 8.31443 3.70526 1.41692 0.25
651 3.2199 3.27511 3.78137 0.25
652 6.55603 0.958502 7.15255 0.25
653 1.29395 6.66436 0.905194 0.25
654 0.542712 2.42846 0.122823 0.25
655 3.62327 3.69237 6.36225 0.5
656 0.594376 3.38204 7.35427 0.25
657 1.58061 5.5368 6.05538 0.25
658 6.86615 0.45557 3.55943 0.25
659 2.49794 1.81324 7.89832 0.25
660 6.95911 5.98514 3.98985 0.5
661 8.16572 0.828619 8.30127 0.25
662 3.92974 4.84778 4.34481 0.25
663 2.50019 3.70442 1.78631 0.25
664 6.59364 2.68231 4.69103 0.25
665 7.82639 3.79429 1.29142 0.25
666 5.88826 6.96214 6.69008 0.25
667 6.64043 3.57584 8.39812 0.25
668 6.9595 6.55663 1.78458 0.25
669 5.85787 4.72629 7.00014 0.25
670 5.57284 7.99524 4.70395 0.25
671 3.5347 4.9611 4.6258 0.25
672 2.66805 3.26868 1.97344 0.25
673 0.723271 1.14073 3.22318 0.25
674 5.02003 7.31113 3.32931 0.25
675 5.4289 3.54437 5.4133 0.25
676 7.52066 8.23703 2.15409 0.25
677 6.28425 1.52737 1.28221 0.25
678 7.52163 6.36048 4.87754 0.25
679 1.34801 6.49204 1.35581 0.25
680 3.62721 6.65913 8.10687 0.25
681 7.74797 0.0444236 4.0144 0.25
682 2.14533 6.12338 1.65231 0.25
683 1.66817 7.35382 7.26786 0.25
684 0.423372 3.75258 1.62279 0.25
685 2.89497 3.65349 6.52328 0.25
686 4.25899 2.80021 6.63271 0.25
687 1.56197 4.38581 0.844837 0.25
688 3.48285 0.736898 5.90737 0.25
689 6.05207 4.00769 8.0499 0.25
690 6.16918 1.18353 2.51477 0.25
691 7.05728 1.44713 1.5808 0.25
692 5.2463 5.07614 1.80423 0.25
693 7.3544 2.01294 6.41435 0.25
694 7.46708 5.1619 4.94065 0.25
695 0.320245 2.94946 6.24313 0.25
696 5.68934 5.91866 3.28044 0.5
697 4.2713 3.80094 6.23017 0.25
698 1.80819 1.07093 5.54791 0.25
699 1.54171 6.78378 4.95831 0.25
700 4.23185 5.71116 1.05185 0.25
701 4.77143 1.70922 8.02413 0.25
702 2.20278 4.42393 7.37316 0.25
703 3.34998 6.56334 7.42869 0.5
704 4.51973 5.30743 -0.0079256 0.25
705 4.86413 3.16085 1.84254 0.25
706 5.04237 0.0892835 8.29692 0.25
707 4.7092 3.86365 1.12995 0.5
708 5.70811 7.56006 7.86352 0.25
709 2.55728 7.04584 2.01971 0.5
710 2.15589 4.43601 6.89488 0.25
711 5.12024 6.30735 2.91055 0.25
712 0.452269 5.13337 8.0434 0.25
713 2.78172 4.03663 1.65695 0.25
714 5.37048 4.05252 0.784434 0.25
715 4.72526 6.62731 2.76417 0.25
716 6.59354 0.665069 7.54144 0.25
717 7.45073 7.77177 3.61998 0.25
718 6.20308 3.64371 6.61318 0.25
719 5.87521 4.46826 7.84121 0.25
720 1.73132 7.64342 4.26178 0.25
721 6.72997 2.14194 2.31036 0.25
722 2.40963 7.77063 3.36347 0.5
723 2.47432 7.50255 2.62512 0.25
724 7.10893 6.51393 1.32102 0.25
725 7.79573 6.29137 7.13574 0.25
726 0.957172 1.11233 5.44356 0.25
727 4.09438 0.266007 1.46253 0.25
728 3.58803 6.14139 8.04173 0.25
729 4.90615 5.9397 3.28863 0.25
730 2.9835 7.15601 7.27713 0.25
731 5.50504 3.01469 2.81109 0.25
732 4.22459 3.57425 6.72485 0.25
733 3.77538 5.55484 7.51617 0.25
734 3.95999 1.03735 2.63629 0.25
735 3.53239 2.96899 6.31982 0.25
736 7.89432 1.2209 8.1091 0.25
737 3.40512 0.228762 0.938026 0.25
738 0.261932 7.93296 0.121583 0.25
739 4.64209 6.1834 2.97617 0.25
740 5.3727 7.0881 3.24147 0.25
741 0.600212 7.91028 0.462176 0.25
742 3.8867 4.72337 6.09231 0.25
743 7.26808 1.04761 1.30953 0.25
744 4.36869 0.992865 2.31737 0.25
745 3.69339 4.28422 5.87117 0.25
746 1.37963 6.06073 4.81871 0.5
747 4.45004 0.454312 2.17263 0.25
748 2.71901 6.72016 7.07158 0.25
749 1.53232 1.3406 2.24947 0.25
750 0.0879936 3.40688 1.82726 0.25
751 1.08288 0.863469 4.96991 0.25
752 6.26572 4.78461 7.73882 0.25
753 3.81086 0.760211 1.89062 0.5
754 4.33763 5.93987 1.44999 0.25
755 2.92312 2.63564 1.42267 0.5
756 7.87647 6.73985 7.46625 0.25
757 5.78288 6.95475 5.73664 0.25
758 6.87983 3.95494 7.24446 0.25
759 4.13149 8.17635 5.10461 0.25
760 0.32935 2.61877 3.26312 0.25
761 3.80717 7.09992 7.17906 0.25
762 0.645721 1.85595 3.43733 0.5
763 4.04821 8.07119 2.05672 0.25
764 1.21583 6.32065 0.556025 0.25
765 7.47789 4.8545 3.12243 0.25
766 0.727179 4.30179 2.76864 0.25
767 2.62637 6.90846 7.48461 0.25
768 2.15393 2.94879 5.02094 0.25
769 7.94007 3.63622 1.77903 0.25
770 4.78171 0.947741 8.08423 0.25
771 6.69327 1.30695 6.14682 0.25
772 4.8031 2.40225 8.12945 0.25
773 5.46837 0.940415 5.0552 0.5
774 3.65534 8.21281 4.87151 0.25
775 7.97607 4.57487 2.60609 0.5
776 6.99752 3.90756 0.550095 0.5
777 6.07653 6.51476 0.0705761 0.25
778 4.75421 8.04779 0.0467001 0.25
779 8.19209 8.20224 4.0643 0.25
780 2.14876 1.68066 6.06851 0.25
781 2.65277 1.7635 -0.0298642 0.25
782 1.43735 7.61634 0.55865 0.25
783 6.80055 3.26575 0.386174 0.25
784 2.08925 7.64805 2.32212 0.25
785 2.56965 1.64278 6.40386 0.25
786 2.50173 7.80219 2.20477 0.25
787 7.85689 6.98804 6.60967 0.25
788 0.0374342 4.11467 2.3075 0.25
789 3.57639 8.07364 4.44849 0.25
790 6.95584 0.855899 6.87137 0.25
791 0.378543 4.77194 3.19687 0.5
792 2.28095 0.370165 7.81807 0.25
793 8.15379 7.23671 1.6247 0.25
794 5.37688 6.51407 6.29678 0.5
795 2.4138 4.25963 3.13135 0.25
796 2.25921 5.83773 5.69026 0.25
797 6.73366 6.44278 1.0667 0.25
798 7.69114 4.29225 1.29359 0.25
799 4.15275 3.42233 5.95069 0.25
800 8.00643 2.05794 3.15846 0.25
801 3.3929 7.83153 7.02408 0.25
802 3.36243 5.34898 4.35584 0.25
803 3.27332 8.26114 7.63802 0.5
804 3.6257 6.8389 1.87991 0.25
805 1.70702 7.79084 2.06335 0.25
806 2.61215 1.84419 3.90897 0.25
807 4.77544 6.32123 5.37693 0.25
808 4.08669 1.9695 7.70199 0.25
809 1.79059 5.89601 5.81839 0.25
810 6.50377 7.60327 6.54158 0.25
811 1.52921 3.24817 4.78713 0.5
812 5.70488 7.44837 0.565154 0.25
813 4.23796 1.7115 3.0835 0.25
814 1.5942 7.36103 7.72565 0.25
815 2.78939 8.04377 4.43348 0.25
816 1.03199 3.01657 5.36693 0.25
817 4.31747 1.55324 7.93973 0.25
818 3.77137 1.62968 3.21023 0.25
819 1.74921 5.28535 1.32552 0.25
820 3.48007 3.0176 6.77338 0.25
821 1.46345 1.88093 8.25847 0.5
822 6.00696 4.36024 3.49228 0.5
823 5.0504 0.478999 7.96332 0.25
824 0.839938 0.380241 4.98785 0.25
825 3.87026 5.9873 7.62162 0.25
826 3.26182 3.54499 1.65722 0.5
827 5.65702 7.3291 6.44936 0.25
828 0.200153 1.98488 7.73259 0.25
829 8.30415 8.05959 4.56612 0.25
830 0.913215 1.93136 2.72647 0.25
831 2.36617 4.23156 7.74628 0.25
832 5.79845 4.55987 1.96928 0.25
833 1.80005 1.39848 6.30164 0.25
834 4.17456 0.596193 2.57498 0.25
835 6.5318 1.84851 0.96682 0.25
836 3.39777 7.59228 7.83466 0.25
837 3.92703 5.21073 7.83473 0.25
838 7.74987 1.00396 1.19135 0.25
839 6.00183 7.69672 6.40896 0.25
840 6.89361 4.7327 7.36945 0.5
841 3.24878 6.70055 2.24707 0.25
842 0.166719 2.06379 2.67651 0.5
843 5.87177 3.68843 5.37665 0.25
844 4.46488 2.25041 0.137036 0.25
845 7.45525 2.73911 5.13573 0.25
846 3.73975 3.48803 7.29793 0.5
847 1.86554 5.22606 0.846405 0.25
848 1.8667 5.84453 5.32802 0.25
849 5.18594 7.82413 2.68224 0.25
850 6.35767 2.75826 5.47519 0.5
851 5.43185 8.24244 5.1465 0.25
852 6.93195 1.55637 7.87713 0.25
853 4.06213 8.24113 4.60235 0.25
854 4.17083 1.58944 5.83755 0.5
855 0.296636 4.01152 5.38065 0.25
856 0.5987 5.47762 3.27762 0.25
857 3.68922 6.50142 1.51192 0.25
858 2.64838 4.76321 3.75088 0.25
859 6.57337 4.64579 3.97348 0.25
860 7.64615 4.047 0.895293 0.25
861 4.77901 2.89372 8.08821 0.25
862 6.63406 4.76495 3.48045 0.25
863 5.29181 6.51233 0.475927 0.25
864 7.56843 6.95279 2.41756 0.25
865 3.75615 5.65261 7.94218 0.25
866 5.1129 8.10421 3.07929 0.25
867 1.93074 4.00179 7.56153 0.25
868 2.22146 1.61403 0.593126 0.5
869 1.04328 3.10368 7.37648 0.25
870 6.21449 5.45038 3.22526 0.25
871 2.93798 7.54367 6.9631 0.25
872 5.83085 2.97274 4.98288 0.25
873 0.427891 7.73906 8.06556 0.25
874 3.68341 1.0735 6.19196 0.25
875 2.13948 4.19494 1.28586 0.5
876 1.45806 5.66174 5.55446 0.25
877 8.29436 5.18104 7.81622 0.25
878 5.76585 1.29155 2.27365 0.25
879 3.16355 8.15383 4.72646 0.25
880 6.44606 5.91275 3.07385 0.25
881 7.48891 1.42341 1.32495 0.25
882 7.90517 7.15209 7.12531 0.25
883 0.5213 4.02092 2.41204 0.25
884 7.12402 3.22314 0.836093 0.25
885 0.741482 4.22862 5.25014 0.25
886 7.61287 7.2966 3.39373 0.25
887 1.37473 7.01587 1.21801 0.25
888 0.931726 4.79594 3.66813 0.25
889 1.40144 8.07349 2.78693 0.25
890 0.405894 4.49662 2.45177 0.25
891 1.00819 2.13945 7.593 0.25
892 7.50613 3.55874 0.974534 0.25
893 1.06936 8.00332 0.505933 0.25
894 3.95074 5.62727 1.42132 0.25
895 3.72172 5.69467 0.989369 0.25
896 1.90947 1.279 8.38324 0.25
897 8.04585 4.11294 1.58215 0.25
898 0.490775 4.78977 3.96873 0.25
899 0.880401 8.27864 5.69793 0.25
900 5.21362 6.35038 5.66938 0.25
901 0.953573 1.46495 2.8443 0.25
902 7.33567 3.95342 1.25544 0.25
903 5.76788 3.68471 3.3703 0.25
904 6.84447 4.09009 7.75588 0.25