ITEM: TIMESTEP
68600
ITEM: NUMBER OF ATOMS
1000
ITEM: BOX BOUNDS xy xz yz pp pp pp
0.0000000000000000e+00 1.3572088000000001e+01 0.0000000000000000e+00
0.0000000000000000e+00 1.3572088000000001e+01 0.0000000000000000e+00
0.0000000000000000e+00 1.3572088000000001e+01 0.0000000000000000e+00
ITEM: ATOMS id type xs ys zs
1 2 0.410255 0.954322 0.912599
2 2 0.763055 0.835976 0.657482
3 1 0.678198 0.752337 0.790698
4 2 0.0311099 0.0340364 0.497401
5 2 0.70364 0.822142 0.704892
6 1 0.627479 0.843574 0.718511
7 2 0.715319 0.744158 0.707391
8 2 0.711371 0.802499 0.681895
9 2 0.831288 0.590122 0.880966
10 2 0.71392 0.811354 0.729765
11 2 0.789835 0.802508 0.704809
12 2 0.780886 0.763512 0.708521
13 2 0.749846 0.802917 0.697702
14 1 0.765943 0.82927 0.587612
15 2 0.734579 0.84538 0.739332
16 2 0.722545 0.0909602 0.851564
17 1 0.662123 0.853978 0.710434
18 2 0.737959 0.808133 0.695416
19 2 0.730246 0.865569 0.80281
20 2 0.732972 0.749765 0.680299
21 2 0.761193 0.764241 0.698953
22 2 0.389936 0.0851019 0.11195
23 2 0.154815 0.202506 0.733158
24 2 0.778187 0.788191 0.689077
25 1 0.741196 0.996 0.898827
26 2 0.706461 0.818164 0.66239
27 2 0.72847 0.741511 0.698907
28 2 0.747417 0.794169 0.704225
29 2 0.324966 0.332961 0.67952
30 2 0.717774 0.764598 0.679986
31 1 0.683762 0.72071 0.687855
32 1 0.719558 0.83462 0.776272
33 1 0.778052 0.749693 0.75596
34 2 0.769903 0.780083 0.681863
35 2 0.754966 0.823554 0.656902
36 1 0.715493 0.783148 0.578052
37 2 0.746966 0.808363 0.711324
38 2 0.697709 0.787229 0.70384
39 2 0.415406 0.122304 0.521088
40 2 0.741407 0.747388 0.688712
41 2 0.725018 0.788553 0.724067
42 2 0.737745 0.793191 0.724371
43 2 0.130483 0.144208 0.32743
44 2 0.748288 0.740217 0.671355
45 2 0.740776 0.856222 0.717505
46 1 0.430239 0.935264 0.103282
47 2 0.758416 0.854647 0.71242
48 2 0.71805 0.783131 0.674207
49 2 0.880028 0.8321 0.412404
50 2 0.793715 0.78488 0.691265
51 2 0.68442 0.768728 0.726626
52 2 0.411634 0.668381 0.905598
53 2 0.743118 0.23254 0.177006
54 2 0.682428 0.78328 0.729899
55 1 0.830656 0.743829 0.737766
56 1 0.661747 0.802937 0.654874
57 2 0.77618 0.757287 0.666685
58 2 0.727631 0.789735 0.683006
59 2 0.726288 0.826301 0.723725
60 2 0.69379 0.823217 0.719422
61 2 0.380051 0.748637 0.211415
62 2 0.706511 0.794996 0.696909
63 2 0.723055 0.832583 0.65305
64 2 0.727656 0.782718 0.724465
65 2 0.726287 0.813935 0.687737
66 1 0.741746 0.859386 0.755727
67 2 0.703206 0.754575 0.691531
68 2 0.747584 0.777439 0.730654
69 1 0.770646 0.767932 0.806364
70 2 0.704957 0.838156 0.727963
71 1 0.697816 0.899428 0.68008
72 2 0.778736 0.80458 0.692996
73 2 0.716569 0.780866 0.70497
74 2 0.741475 0.77952 0.692128
75 2 0.299739 0.672804 0.792632
76 2 0.722226 0.784972 0.683161
77 1 0.84523 0.857204 0.712501
78 2 0.880116 0.135204 0.196194
79 2 0.676771 0.791643 0.686799
80 2 0.96705 0.822102 0.572088
81 2 0.716645 0.769404 0.667865
82 2 0.721969 0.82765 0.690973
83 2 0.719644 0.781828 0.739653
84 2 0.710803 0.783869 0.687331
85 1 0.773769 0.719944 0.623388
86 2 0.717356 0.801614 0.641988
87 2 0.722254 0.809717 0.676147
88 2 0.735364 0.859472 0.699516
89 2 0.75954 0.781129 0.732332
90 2 0.758275 0.767146 0.723488
91 2 0.873587 0.686316 0.40071
92 2 0.757589 0.81536 0.679696
93 2 0.757284 0.755317 0.694962
94 1 0.410724 0.689942 0.23303
95 2 0.101477 0.334961 0.607699
96 2 0.671673 0.81147 0.699835
97 2 0.776735 0.757377 0.700693
98 2 0.759091 0.810951 0.706685
99 2 0.706295 0.832601 0.652236
100 2 0.726232 0.761996 0.725864
101 1 0.340505 0.993842 0.559009
102 2 0.0713916 0.406755 0.840358
103 2 0.780274 0.822722 0.687642
104 2 0.73934 0.756987 0.701705
105 2 0.735055 0.802504 0.684448
106 2 0.337057 0.703188 0.0715855
107 2 0.0854705 0.11582 0.757672
108 2 0.738072 0.850495 0.689086
109 2 0.748738 0.815796 0.684517
110 2 0.72485 0.754899 0.689733
111 2 0.0959132 0.912292 0.86598
112 1 0.681351 0.855175 0.685342
113 1 0.756808 0.75545 0.627246
114 2 0.795765 0.797813 0.702362
115 2 0.683951 0.71835 0.00581355
116 2 0.769387 0.794395 0.703723
117 2 0.183796 0.307494 0.170145
118 2 0.754333 0.790974 0.686355
119 2 0.76051 0.580492 0.76969
120 2 0.740088 0.81217 0.687579
121 2 0.756394 0.772637 0.686077
122 2 0.699515 0.801605 0.670995
123 2 0.709124 0.794782 0.709133
124 2 0.704063 0.846652 0.683981
125 1 0.809901 0.871823 0.656352
126 2 0.709719 0.759993 0.664656
127 2 0.744856 0.810276 0.740319
128 2 0.705636 0.806185 0.745361
129 1 0.0523443 0.120918 0.845088
130 2 0.499782 0.372103 0.934294
131 2 0.683002 0.81859 0.715757
132 2 0.746941 0.781082 0.693004
133 2 0.77831 0.810416 0.663318
134 2 0.373322 0.748376 0.531605
135 2 0.753993 0.792042 0.723561
136 2 0.768326 0.843612 0.712269
137 1 0.643402 0.759843 0.748947
138 2 0.734911 0.790161 0.681087
139 2 0.696849 0.806639 0.730173
140 1 0.73623 0.792654 0.607021
141 2 0.699171 0.811547 0.675175
142 2 0.700176 0.81764 0.736839
143 2 0.78567 -0.000807001 0.476917
144 2 0.785898 0.802713 0.727239
145 2 0.732286 0.863185 0.702246
146 2 0.706619 0.753655 0.679184
147 1 0.259291 0.879566 0.317681
148 1 0.731989 0.724143 0.624943
149 2 0.755796 0.800449 0.655806
150 1 0.810262 0.771404 0.713666
151 2 0.721657 0.778302 0.669985
152 2 0.754005 0.825247 0.698479
153 1 0.680452 0.853606 0.737888
154 1 0.469107 0.682166 0.879579
155 2 0.78061 0.840649 0.674162
156 2 0.761272 0.831546 0.713006
157 2 0.770234 0.838789 0.682749
158 2 0.255418 0.278881 0.500851
159 2 0.725335 0.78883 0.737209
160 2 0.708474 0.793451 0.673667
161 2 0.747179 0.768119 0.651538
162 2 0.712749 0.768441 0.701203
163 2 0.746891 0.739962 0.683235
164 2 0.764678 0.774315 0.682937
165 2 0.707178 0.850144 0.714669
166 2 0.694195 0.817512 0.696599
167 2 0.435562 0.557347 0.482664
168 2 0.775541 0.756887 0.721166
169 2 0.588805 0.285559 0.543701
170 2 0.719887 0.235012 0.330111
171 2 0.697095 0.819449 0.656426
172 2 0.171999 0.281728 0.317744
173 1 0.749063 0.734412 0.650394
174 2 0.725822 0.795843 0.714482
175 2 0.00306037 0.0395712 0.455605
176 2 0.703467 0.783133 0.680699
177 1 0.175 0.995019 0.055374
178 2 0.0062039 0.309112 0.119266
179 2 0.470633 0.474978 0.535005
180 2 0.776805 0.792973 0.660236
181 2 0.71205 0.820434 0.750587
182 2 0.715732 0.832919 0.742127
183 2 0.750798 0.824708 0.650203
184 2 0.709264 0.81753 0.703316
185 2 0.76934 0.800465 0.707905
186 2 0.753699 0.808257 0.690378
187 2 0.71899 0.0556361 0.933384
188 1 0.745739 0.732639 0.75369
189 2 0.722187 0.799722 0.6581
190 2 0.729761 0.816591 0.699408
191 2 0.724112 0.795512 0.723837
192 2 0.698287 0.763144 0.662467
193 2 0.709142 0.820102 0.679528
194 2 0.836098 0.603454 0.209853
195 2 0.765624 0.776462 0.675927
196 2 0.714321 0.773678 0.683654
197 2 0.762522 0.824102 0.688676
198 2 0.58408 0.557913 0.406524
199 2 0.101287 0.231627 0.0745034
200 1 0.766729 0.883337 0.721359
201 2 0.709968 0.779638 0.715349
202 2 0.763596 0.41278 0.160911
203 2 0.71172 0.794887 0.687338
204 2 0.744851 0.756282 0.728925
205 2 0.719 0.794448 0.747485
206 2 0.733868 0.747625 0.705862
207 2 0.256743 0.669724 0.309361
208 2 0.739214 0.773712 0.748449
209 2 0.74256 0.803275 0.676127
210 2 0.766401 0.821821 0.709425
211 2 0.160336 0.674742 0.533636
212 1 0.719605 0.765671 0.812869
213 2 0.763982 0.801278 0.675986
214 2 0.770067 0.77856 0.702563
215 2 0.758359 0.767707 0.65853
216 2 0.76866 0.790763 0.664887
217 2 0.719499 0.790909 0.687583
218 2 0.728442 0.787636 0.754072
219 2 0.706843 0.805968 0.717646
220 2 0.761371 0.803393 0.749189
221 2 0.706222 0.837676 0.694172
222 2 0.124601 0.179987 0.423949
223 2 0.749897 0.787836 0.649785
224 2 0.718739 0.799886 0.729377
225 1 0.733179 0.887329 0.747185
226 2 0.710612 0.747941 0.687545
227 2 0.725116 0.760636 0.654669
228 2 0.710945 0.853114 0.697319
229 2 0.745376 0.763392 0.686097
230 1 0.706135 0.863273 0.746524
231 2 0.756958 0.777499 0.699786
232 2 0.733071 0.822544 0.692414
233 1 0.77223 0.778909 0.623229
234 2 0.785656 0.826763 0.717173
235 2 0.778026 0.793865 0.701543
236 2 0.688839 0.812825 0.724753
237 2 0.300575 0.421285 0.932318
238 1 0.413823 0.388391 0.965225
239 1 0.785301 0.795033 0.585442
240 2 0.754 0.825484 0.675789
241 2 0.6824 0.784435 0.676273
242 1 0.807649 0.846718 0.703494
243 1 0.750723 0.820555 0.623476
244 2 0.741346 0.860594 0.693523
245 2 0.697867 0.765573 0.728062
246 1 0.733298 0.714441 0.734146
247 2 0.749137 0.825894 0.738638
248 2 0.727621 0.773975 0.755924
249 2 0.704196 0.76622 0.748645
250 2 0.706092 0.753462 0.726062
251 2 0.73978 0.76393 0.721587
252 2 0.469011 0.893501 0.455092
253 2 0.735345 0.750142 0.662821
254 2 0.736195 0.787151 0.736624
255 2 0.767493 0.748089 0.711988
256 2 0.748168 0.781775 0.743244
257 2 0.709865 0.798158 0.723496
258 2 0.781941 0.831935 0.70023
259 1 0.493981 0.823945 0.116812
260 2 0.72935 0.819701 0.675616
261 1 0.742971 0.687341 0.721234
262 2 0.722818 0.118182 0.608837
263 2 0.75254 0.812277 0.709153
264 2 0.145023 0.361471 0.138421
265 1 0.778589 0.722293 0.703653
266 2 0.756356 0.820549 0.736685
267 2 0.732804 0.796148 0.710207
268 1 0.709576 0.742704 0.640703
269 1 0.403427 0.752959 0.255171
270 2 0.638403 0.690116 0.0132453
271 2 0.371647 0.973801 0.692768
272 2 0.708941 0.787407 0.729874
273 1 0.648341 0.791993 0.716134
274 2 0.743502 0.818059 0.703365
275 2 0.734079 0.798365 0.691233
276 2 0.732732 0.778528 0.692774
277 2 0.766687 0.793488 0.696666
278 2 0.841234 0.193162 0.126446
279 2 0.704949 0.789946 0.738726
280 1 0.756847 0.761176 0.592503
281 2 0.0888237 0.965489 0.0147073
282 2 0.750846 0.759166 0.678675
283 2 0.819854 0.867925 0.931599
284 1 0.759915 0.853454 0.779188
285 2 0.760912 0.796253 0.734606
286 2 0.741203 0.785367 0.664746
287 1 0.718552 0.0351955 0.0551676
288 2 0.711728 0.785892 0.712788
289 2 0.718042 0.822221 0.709287
290 2 0.715984 0.810761 0.6577
291 2 0.705909 0.809292 0.707008
292 2 0.262074 0.229929 0.425229
293 2 0.752623 0.796945 0.703188
294 2 0.77218 0.783408 0.706323
295 2 0.770848 0.776131 0.739995
296 2 0.444876 0.31478 0.689839
297 2 0.683497 0.830523 0.702243
298 2 0.728556 0.83919 0.698352
299 1 0.693604 0.713396 0.725382
300 2 0.703893 0.800792 0.656988
301 2 0.717718 0.742528 0.720048
302 2 0.452471 0.497249 0.690884
303 2 0.730911 0.773135 0.687878
304 1 0.597585 0.204577 0.112715
305 2 0.704001 0.825174 0.689841
306 2 0.752347 0.788275 0.741554
307 2 0.631953 0.758874 0.785105
308 2 0.496558 0.552342 0.0726299
309 2 0.786926 0.781912 0.706325
310 2 0.719887 0.813491 0.712073
311 2 0.745064 0.816504 0.717607
312 2 0.723453 0.748784 0.698192
313 2 0.749381 0.815455 0.727794
314 2 0.736413 0.7151 0.486591
315 2 0.770509 0.784052 0.719279
316 2 0.775644 0.791478 0.672072
317 2 0.726454 0.786468 0.698716
318 2 0.251496 1.00089 0.0192041
319 2 0.722573 0.801757 0.679039
320 2 0.763948 0.809498 0.71676
321 2 0.753449 0.834146 0.739111
322 2 0.722357 0.813842 0.747785
323 2 0.998852 0.378166 0.320497
324 2 0.314405 0.495076 0.383104
325 2 0.738377 0.826295 0.684407
326 2 0.695096 0.787232 0.711017
327 2 0.758789 0.753595 0.683393
328 2 0.732813 0.799042 0.71526
329 1 0.598184 0.124655 0.733413
330 2 0.747688 0.810875 0.641345
331 2 0.759569 0.825573 0.715095
332 2 0.750132 0.799321 0.716422
333 2 0.732153 0.820367 0.757267
334 2 0.69594 0.789086 0.688108
335 1 0.217193 0.549446 0.981312
336 2 0.762952 0.787085 0.67807
337 2 0.0442506 0.692748 0.0817677
338 1 0.71915 0.764084 0.619571
339 2 0.750858 0.831109 0.716552
340 2 0.757123 0.785757 0.756372
341 2 0.702543 0.799092 0.732381
342 2 0.729386 0.805055 0.70193
343 2 0.724094 0.848938 0.700945
344 1 0.722875 0.826575 0.809349
345 1 0.69846 0.801514 0.619287
346 1 0.693792 0.876713 0.71141
347 1 0.397765 0.48629 0.641371
348 2 0.770917 0.780139 0.657158
349 2 0.489007 0.929114 0.667388
350 2 0.821557 0.717411 0.389762
351 2 0.711982 0.834221 0.731469
352 2 0.165094 0.910066 0.0803529
353 1 0.741874 0.859029 0.599229
354 1 0.715481 0.870557 0.861858
355 2 0.173845 0.690644 0.567135
356 2 0.736377 0.824989 0.72576
357 2 0.544666 0.760015 0.0263637
358 2 0.439624 0.8973 0.487833
359 2 0.693926 0.806631 0.700082
360 2 0.721826 0.774514 0.748703
361 1 0.651309 0.820849 0.772342
362 2 0.519597 0.32633 0.164162
363 1 0.79296 0.811799 0.795896
364 2 0.737023 0.804788 0.751233
365 2 0.778279 0.773703 0.671863
366 2 0.696749 0.818931 0.727561
367 1 0.301151 0.71449 0.121307
368 1 0.608938 0.773036 0.706204
369 2 0.243357 0.293724 0.523316
370 2 0.690618 0.837699 0.682978
371 2 0.739871 0.836009 0.671396
372 1 0.802025 0.885129 0.722546
373 2 0.752187 0.838399 0.670342
374 2 0.699403 0.907498 0.209367
375 2 0.765922 0.758104 0.730155
376 2 0.774939 0.768951 0.694166
377 2 0.702441 0.769661 0.659762
378 2 0.717343 0.802902 0.684053
379 2 0.750346 0.848811 0.681815
380 2 0.742062 0.771779 0.667289
381 2 0.739271 0.783575 0.723436
382 2 0.114589 0.151965 0.145995
383 2 0.72834 0.773463 0.662491
384 1 0.0320923 0.920655 0.0568389
385 2 0.677375 0.809413 0.685518
386 2 0.790189 0.784108 0.72627
387 1 0.308256 0.745035 0.922278
388 2 0.719769 0.797296 0.701543
389 2 0.720305 0.843058 0.722132
390 2 0.698003 0.754041 0.713615
391 2 0.751886 0.812353 0.673446
392 1 0.823332 0.811339 0.689924
393 2 0.921676 0.39133 0.265416
394 2 0.734305 0.759003 0.667907
395 2 0.748544 0.789133 0.757884
396 2 0.700723 0.801246 0.708295
397 2 0.744207 0.830844 0.666492
398 1 0.533557 0.717252 0.521828
399 1 0.818169 0.828326 0.633572
400 1 0.828671 0.22641 0.51983
401 2 0.687052 0.805147 0.664821
402 2 0.110953 0.677076 0.974161
403 2 0.692752 0.804451 0.743002
404 2 0.75017 0.820445 0.667449
405 2 0.247629 0.236784 0.153105
406 2 0.753626 0.787785 0.697719
407 2 0.78648 0.881525 0.691941
408 2 0.740535 0.817357 0.677303
409 2 0.680439 0.792509 0.670477
410 2 0.784405 0.766699 0.700469
411 2 0.00452609 0.799456 0.71629
412 2 0.332746 0.770033 0.0351324
413 2 0.727935 0.785968 0.660568
414 2 0.758229 0.816614 0.66451
415 2 0.714219 0.794113 0.666867
416 1 0.665536 0.86275 0.618648
417 2 0.675202 0.443308 0.347246
418 2 0.746626 0.767856 0.734212
419 2 0.747155 0.799498 0.753408
420 2 0.233317 0.865559 0.249496
421 1 0.684317 0.828267 0.764474
422 1 0.775549 0.726398 0.671467
423 2 0.742538 0.751864 0.668262
424 2 0.689237 0.754433 0.705443
425 1 0.649934 0.789366 0.68614
426 2 0.907949 0.886378 0.259798
427 2 0.810021 0.427911 0.616888
428 2 0.42906 0.847085 0.735298
429 2 0.677987 0.779924 0.707563
430 2 0.716454 0.825317 0.739226
431 2 0.712722 0.790248 0.643908
432 1 0.773838 0.826173 0.767305
433 2 0.0651074 0.0948954 0.21142
434 1 0.754615 0.389009 0.667062
435 2 0.918189 0.678054 0.758647
436 2 0.793687 0.796529 0.672602
437 2 0.692706 0.233819 0.111879
438 2 0.173357 0.482981 0.160305
439 1 0.720941 0.718682 0.669805
440 2 0.729503 0.822018 0.707899
441 1 0.62331 0.0338059 0.816288
442 1 0.850147 0.841281 0.67024
443 1 0.970447 0.847914 0.892509
444 2 0.787153 0.785554 0.686606
445 2 0.461006 0.992822 0.399985
446 2 0.709156 0.816724 0.668485
447 2 0.735826 0.839703 0.686835
448 2 0.139778 0.818207 0.515286
449 1 0.182955 0.0659914 0.880796
450 2 0.742361 0.791413 0.687384
451 2 0.759184 0.765504 0.677821
452 2 0.73521 0.743931 0.715389
453 1 0.841357 0.781411 0.709307
454 2 0.719092 0.827811 0.682503
455 2 0.538224 0.435085 0.118355
456 2 0.636496 0.854 0.334993
457 2 0.744508 0.769733 0.696144
458 2 0.723606 0.778218 0.652666
459 2 0.751163 0.801596 0.731327
460 2 0.772467 0.824449 0.664637
461 2 0.811483 0.243892 0.809976
462 2 0.74392 0.78078 0.681587
463 1 0.720104 0.880246 0.675945
464 2 0.567854 0.096518 0.29091
465 2 0.71896 0.776168 0.692678
466 2 0.764246 0.842115 0.705658
467 1 0.752166 0.764544 0.774606
468 2 0.790283 0.914184 0.860501
469 2 0.745941 0.817066 0.749487
470 2 0.719625 0.762078 0.710531
471 2 0.781158 0.816601 0.670676
472 2 0.74873 0.827719 0.683292
473 1 0.803438 0.863465 0.765968
474 1 0.0206502 0.559884 0.0203092
475 1 0.190071 0.530803 0.195513
476 2 0.726522 0.801385 0.751717
477 2 0.697724 0.806193 0.653539
478 2 0.718483 0.834833 0.667116
479 2 0.189831 0.217631 0.736138
480 2 0.681778 0.796985 0.703855
481 2 0.762196 0.844354 0.67927
482 2 0.032946 0.0996212 0.553749
483 2 0.723115 0.835325 0.664073
484 1 0.704408 0.865324 0.649499
485 1 0.816418 0.762711 0.787984
486 2 0.741315 0.783404 0.649202
487 2 0.755352 0.783164 0.641337
488 2 0.74382 0.828993 0.706536
489 2 0.768734 0.815544 0.656827
490 2 0.7263 0.837141 0.687939
491 2 0.744777 0.790004 0.66836
492 2 0.778391 0.794057 0.74441
493 2 0.752002 0.837798 0.695934
494 2 0.715741 0.781332 0.70884
495 2 0.720383 0.756589 0.665861
496 2 0.712213 0.846601 0.706015
497 2 0.951633 0.625133 0.79874
498 1 0.81896 0.818182 0.725073
499 2 0.711251 0.802234 0.70014
500 2 0.734591 0.824994 0.664275
501 1 0.805506 0.762418 0.669549
502 2 0.764185 0.792049 0.658679
503 2 0.715515 0.832316 0.692573
504 1 0.661196 0.812989 0.624236
505 2 0.710644 0.839521 0.7428
506 2 0.763464 0.824509 0.722752
507 2 0.733645 0.806644 0.739331
508 2 0.735053 0.765255 0.678227
509 1 0.706162 0.732876 0.743798
510 2 0.698755 0.788518 0.650308
511 2 0.707493 0.774609 0.73614
512 2 0.739011 0.804273 0.706112
513 1 0.355854 0.349782 0.58052
514 2 0.683752 0.806666 0.684807
515 1 0.793467 0.681655 0.708596
516 2 0.713974 0.781366 0.723144
517 1 0.689928 0.835355 0.585026
518 2 0.762324 0.806033 0.693364
519 2 0.714938 0.812565 0.721386
520 2 0.700746 0.779376 0.716618
521 2 0.935586 0.947033 0.529603
522 2 0.775086 0.766432 0.727084
523 2 0.701813 0.81742 0.683508
524 2 0.751381 0.753516 0.748196
525 2 0.766181 0.813912 0.734662
526 2 0.31927 0.749949 0.255384
527 2 0.722215 0.822073 0.701954
528 1 0.596314 0.403953 0.176482
529 2 0.748789 0.804586 0.745283
530 2 0.757617 0.774148 0.700697
531 2 0.723142 0.769872 0.683808
532 2 0.786824 0.816708 0.73333
533 2 0.685599 0.743081 0.56678
534 1 0.707468 0.897821 0.623405
535 2 0.736344 0.823219 0.704111
536 1 0.674905 0.870072 0.655983
537 1 0.666231 0.784405 0.746184
538 2 0.737927 0.822161 0.750739
539 2 0.768483 0.830355 0.701313
540 2 0.374529 0.537155 0.256479
541 1 0.782933 0.751449 0.645056
542 2 0.728166 0.752665 0.688231
543 1 0.941867 0.141709 0.953124
544 1 0.778912 0.806537 0.627574
545 2 0.78375 0.81378 0.702063
546 2 0.786102 0.817664 0.714602
547 2 0.442084 0.589875 0.554547
548 2 0.759599 0.79643 0.74799
549 2 0.755303 0.738907 0.700149
550 2 0.247045 0.297427 0.198856
551 1 0.758532 0.885968 0.691227
552 2 0.595769 0.993356 0.956507
553 2 0.764496 0.784674 0.684651
554 2 0.707609 0.816866 0.718893
555 1 0.200457 0.419479 0.941768
556 2 0.845206 0.229595 0.146079
557 2 0.775115 0.81659 0.712546
558 1 0.656904 0.886129 0.7163
559 2 0.74419 0.802739 0.65811
560 2 0.699366 0.828934 0.684056
561 2 0.758533 0.80766 0.669036
562 1 0.732958 0.883653 0.649983
563 2 0.765653 0.8386 0.724683
564 2 0.963041 0.365856 0.962613
565 2 0.718279 0.813114 0.668484
566 2 0.289074 0.58333 0.125329
567 2 0.723625 0.835969 0.676794
568 2 0.740261 0.857715 0.725898
569 1 0.649837 0.826502 0.69745
570 2 0.775869 0.827767 0.683721
571 2 0.0101382 0.79437 0.904617
572 2 0.691069 0.787333 0.721946
573 2 0.710181 0.832159 0.720324
574 2 0.127735 0.882717 0.0907173
575 1 0.246383 0.874975 0.553209
576 2 0.766902 0.810588 0.692351
577 2 0.741185 0.788469 0.71424
578 1 0.697963 0.684341 0.670853
579 2 0.781167 0.791112 0.722646
580 1 0.693523 0.719871 0.63698
581 2 0.0713155 0.0682456 0.713599
582 2 0.702413 0.803223 0.691248
583 1 0.709195 0.860955 0.788038
584 2 0.716668 0.786048 0.731954
585 1 0.67377 0.868949 0.771458
586 2 0.762269 0.777502 0.721324
587 2 0.729001 0.791082 0.668531
588 2 0.0835954 0.953782 0.694624
589 1 0.832355 0.784922 0.634651
590 1 0.677163 0.74827 0.658063
591 1 0.76898 0.725866 0.732763
592 2 0.677659 0.348129 0.00488424
593 2 0.728609 0.787689 0.70345
594 1 0.860327 0.727326 0.036366
595 1 0.749818 0.514477 0.942844
596 2 0.74839 0.820116 0.757254
597 1 0.312724 0.868639 0.837163
598 2 0.723145 0.768844 0.755898
599 2 0.719945 0.814449 0.688498
600 2 0.717043 0.854466 0.690557
601 2 0.737339 0.810097 0.718021
602 1 0.770679 0.903968 0.67018
603 2 0.729986 0.792398 0.695433
604 1 0.197892 0.216879 0.210444
605 2 0.994391 0.532604 0.479716
606 2 0.22155 0.612129 0.358798
607 1 0.806986 0.832688 0.672051
608 2 0.255879 0.652601 0.848774
609 2 0.73593 0.811527 0.659133
610 2 0.712429 0.856166 0.677311
611 2 0.728062 0.75673 0.736183
612 1 0.852338 0.133295 0.899362
613 2 0.787571 0.81771 0.703078
614 1 0.917765 0.0446941 0.471375
615 2 0.208082 0.563435 0.918226
616 1 0.694748 0.678802 0.605513
617 2 0.681663 0.789793 0.703984
618 2 0.759246 0.47394 0.100359
619 2 0.406214 0.54903 0.866878
620 2 0.557757 0.747039 0.171694
621 2 0.739831 0.794238 0.637318
622 2 0.733287 0.807204 0.661845
623 1 0.535658 0.38806 0.139981
624 2 0.735002 0.775735 0.726742
625 2 0.953692 0.760664 0.311594
626 2 0.334533 0.398107 0.955275
627 2 0.740345 0.772715 0.677029
628 2 0.205986 0.575785 0.123939
629 2 0.791357 0.808278 0.674899
630 1 0.659124 0.824329 0.731875
631 2 0.692617 0.826333 0.694684
632 2 0.750702 0.78903 0.673326
633 2 0.750848 0.787061 0.679697
634 2 0.607578 0.943085 0.0906633
635 2 0.601526 0.373556 0.115157
636 2 0.714428 0.773683 0.719984
637 2 0.725649 0.735776 0.689777
638 1 0.0715429 0.321919 0.246982
639 2 0.748736 0.769703 0.705278
640 2 0.750851 0.750961 0.69984
641 2 0.724602 0.848538 0.666481
642 2 0.783079 0.806672 0.689624
643 2 0.657789 0.242089 0.332231
644 2 0.697667 0.755271 0.673167
645 1 0.801264 0.820676 0.76227
646 2 0.698346 0.80118 0.703189
647 1 0.677062 0.755424 0.751371
648 2 0.315875 0.960449 0.193971
649 2 0.747419 0.787085 0.707102
650 2 0.716689 0.796959 0.741216
651 2 0.73832 0.841363 0.713118
652 2 0.76704 0.819049 0.697054
653 2 0.725167 0.83585 0.742355
654 1 0.799715 0.778697 0.637761
655 2 0.112162 0.0707957 0.914904
656 2 0.691233 0.802557 0.676867
657 2 0.0917693 0.579789 0.200595
658 2 0.755074 0.846205 0.719447
659 2 0.713965 0.782118 0.667296
660 2 0.362657 0.923949 0.366707
661 1 0.930731 0.568907 0.447113
662 2 0.760342 0.793282 0.722908
663 2 0.723158 0.750787 0.72642
664 1 0.235734 0.833378 0.236194
665 2 0.238754 0.103507 0.469528
666 2 0.722801 0.828193 0.641841
667 2 0.710151 0.765681 0.724548
668 2 0.700589 0.797489 0.681842
669 2 0.986413 0.26289 0.00461199
670 1 0.456201 0.552055 0.0373724
671 2 0.537512 0.197049 0.278184
672 1 0.737362 0.850058 0.630306
673 2 0.752857 0.819203 0.690901
674 2 0.716173 0.801367 0.718174
675 2 0.63369 0.255736 0.918719
676 1 0.69957 0.904715 0.731656
677 2 0.74272 0.742323 0.718966
678 2 0.724721 0.806755 0.70577
679 1 0.492287 0.939939 0.886162
680 2 0.727965 0.811301 0.723669
681 1 0.701532 0.838025 0.631881
682 1 0.812341 0.707825 0.652315
683 2 0.478945 0.0863807 0.199354
684 2 0.209706 0.662402 0.320826
685 2 0.694395 0.810781 0.710019
686 2 0.846046 0.0747495 0.474711
687 1 0.754363 0.69826 0.660826
688 2 0.150649 0.271947 0.201422
689 2 0.770913 0.816604 0.727074
690 2 0.75103 0.768067 0.716862
691 2 0.685016 0.801747 0.731771
692 1 0.656821 0.760878 0.714543
693 2 0.737079 0.824078 0.651551
694 2 0.726717 0.753377 0.716243
695 1 0.647667 0.718826 0.7199
696 2 0.816304 0.340061 0.249874
697 2 0.93096 0.579692 0.4885
698 2 0.746913 0.778386 0.723861
699 2 0.720403 0.799462 0.694394
700 1 0.711729 0.677097 0.758672
701 2 0.780035 0.77951 0.712669
702 2 0.705266 0.78649 0.747965
703 2 0.77857 0.765484 0.682813
704 2 0.0447924 0.257007 0.323361
705 2 0.743953 0.798688 0.726817
706 2 0.795205 0.818889 0.693498
707 2 0.822251 0.209923 0.86372
708 1 0.802517 0.844006 0.734302
709 2 0.392175 0.423546 0.994319
710 2 0.778858 0.808458 0.725294
711 2 0.708247 0.805159 0.651077
712 1 0.788926 0.863228 0.692531
713 2 0.758145 0.848872 0.681508
714 1 0.758963 0.872608 0.654914
715 2 0.69115 0.78326 0.693152
716 1 0.686207 0.707781 0.769007
717 2 0.733905 0.75742 0.713624
718 2 0.909571 0.645912 0.0968499
719 2 0.720833 0.8042 0.691029
720 2 0.741186 0.838333 0.703211
721 2 0.720105 0.817721 0.725784
722 1 0.0189942 0.682627 0.700782
723 2 0.276728 0.534167 0.837
724 2 0.723829 0.761971 0.71323
725 2 0.171169 0.75829 0.110712
726 2 0.71138 0.836419 0.675116
727 1 0.199632 0.373846 0.8918
728 1 0.647679 0.325703 0.132453
729 1 0.749846 0.813982 0.788985
730 1 0.684518 0.787094 0.773881
731 2 0.772727 0.825509 0.735489
732 1 0.531436 0.953772 0.122143
733 2 0.696934 0.840591 0.699253
734 2 0.720409 0.762841 0.744743
735 2 0.782659 0.84029 0.715334
736 1 0.78134 0.697466 0.75014
737 2 0.745227 0.764567 0.709037
738 2 0.707372 0.773446 0.671541
739 2 0.760509 0.787158 0.731622
740 2 0.771877 0.802877 0.688532
741 2 0.737116 0.760865 0.73561
742 1 0.654841 0.843367 0.670723
743 2 0.768574 0.78754 0.691341
744 2 0.728939 0.781664 0.676178
745 2 0.694126 0.807835 0.691314
746 1 0.712517 0.71209 0.701723
747 2 0.354035 0.0467985 0.216651
748 2 0.74254 0.805388 0.725512
749 2 0.748923 0.842672 0.702914
750 2 0.664596 0.0650913 0.249624
751 2 0.701879 0.774224 0.727015
752 2 0.711327 0.755511 0.708201
753 2 0.787375 0.771078 0.716836
754 2 0.643329 0.551355 0.548831
755 2 0.75328 0.783535 0.713326
756 2 0.751811 0.834009 0.686428
757 2 0.754705 0.818117 0.720171
758 2 0.697901 0.832257 0.713397
759 2 0.690288 0.769281 0.69174
760 1 0.249948 0.929959 0.0396326
761 2 0.737264 0.779148 0.7135
762 2 0.727703 0.772587 0.64847
763 1 0.553411 0.968537 0.588725
764 2 0.739977 0.761541 0.696958
765 2 0.706497 0.788504 0.66239
766 2 0.702365 0.826321 0.725451
767 2 0.887306 0.0916938 0.659195
768 2 0.749121 0.738686 0.716078
769 2 0.714274 0.806004 0.703656
770 2 0.739754 0.823414 0.734536
771 2 0.275345 0.717714 0.333149
772 2 0.270341 0.874868 0.446664
773 1 0.832172 0.739659 0.685792
774 2 0.1875 0.0383632 0.644027
775 2 0.668449 0.342554 0.787366
776 2 0.743259 0.81052 0.667546
777 1 0.655268 0.753882 0.686864
778 2 0.746257 0.832701 0.728355
779 2 0.114256 0.170638 0.777385
780 1 0.720054 0.826906 0.611169
781 2 0.698185 0.765797 0.700471
782 2 0.967764 0.165413 0.314214
783 1 0.746376 0.710414 0.692713
784 2 0.727177 0.818725 0.665435
785 2 0.728859 0.840834 0.71027
786 1 0.81064 0.792184 0.747778
787 2 0.792692 0.783058 0.684147
788 2 0.740504 0.838464 0.730869
789 2 0.839992 0.806618 0.481586
790 2 0.676679 0.800496 0.700009
791 1 0.799642 0.76276 0.749661
792 2 0.777761 0.781893 0.729914
793 2 0.938803 0.647153 0.123663
794 2 0.75685 0.785675 0.695199
795 2 0.732364 0.789571 0.703897
796 2 0.691961 0.763926 0.705611
797 2 0.756119 0.798976 0.669192
798 2 0.775478 0.832196 0.654585
799 2 0.733018 0.773485 0.703636
800 2 0.917944 0.238198 0.116573
801 2 0.695247 0.771802 0.70514
802 2 0.685173 0.776513 0.718006
803 2 0.774163 0.799902 0.726819
804 2 0.336465 0.443257 0.767569
805 2 0.0322564 0.943785 0.482098
806 1 0.0197181 0.958867 0.589556
807 2 0.726882 0.769884 0.733133
808 2 0.726219 0.780144 0.716329
809 1 0.801085 0.734626 0.689624
810 2 0.719096 0.818949 0.649887
811 2 0.731914 0.796431 0.653976
812 2 0.769942 0.810175 0.746062
813 1 0.402814 0.229294 0.0495829
814 2 0.787401 0.80116 0.718313
815 2 0.72105 0.799042 0.66812
816 1 0.802875 0.81154 0.649231
817 1 0.704276 0.805492 0.78379
818 2 0.758661 0.848881 0.692381
819 1 0.727889 0.884833 0.717019
820 1 0.634949 0.790542 0.636522
821 2 0.692078 0.794466 0.681872
822 2 0.713522 0.772293 0.647049
823 1 0.782599 0.85128 0.648507
824 2 0.750849 0.7391 0.0908016
825 2 0.713277 0.818122 0.690301
826 2 0.742229 0.342856 0.103944
827 1 0.614576 0.815155 0.668127
828 2 0.759915 0.837536 0.672518
829 2 0.763215 0.748793 0.676064
830 2 0.835653 0.323918 0.320302
831 1 0.665121 0.754526 0.609205
832 2 0.767754 0.772471 0.663042
833 1 0.749846 0.919771 0.710776
834 2 0.733077 0.81744 0.647486
835 2 0.887691 0.0859078 0.119539
836 2 0.734231 0.810419 0.729638
837 2 0.758386 0.763536 0.741197
838 2 0.740866 0.785359 0.696543
839 2 0.552152 0.53828 0.558028
840 2 0.70456 0.760105 0.685485
841 2 0.689418 0.824359 0.706761
842 2 0.718508 0.0641142 0.660683
843 2 0.749829 0.825939 0.706123
844 2 0.749959 0.775989 0.666873
845 2 0.770323 0.810992 0.666457
846 2 0.77368 0.796703 0.715983
847 2 0.768781 0.80541 0.648726
848 2 0.754216 0.781669 0.6556
849 1 0.736664 0.717547 0.790047
850 2 0.74198 0.851376 0.672715
851 2 0.70214 0.780745 0.693138
852 2 0.726928 0.758566 0.671831
853 1 0.676785 0.736613 0.712144
854 2 0.12598 0.931967 0.115095
855 2 0.78085 0.799662 0.677807
856 2 0.679623 0.822897 0.676052
857 2 0.705318 0.772728 0.681641
858 2 0.749219 0.805721 0.65002
859 2 0.708232 0.827738 0.672995
860 2 0.274706 0.0289844 0.650195
861 2 0.726526 0.846257 0.71975
862 2 0.745714 0.0384672 0.498831
863 2 0.73822 0.813404 0.700247
864 2 0.717127 0.80228 0.75734
865 2 0.758214 0.796985 0.709424
866 2 0.746871 0.799787 0.693462
867 2 0.233711 0.348508 0.0605687
868 2 0.767234 0.803891 0.73554
869 2 0.7364 0.832826 0.720766
870 2 0.737626 0.806535 0.645059
871 2 0.728687 0.767335 0.701316
872 2 0.684168 0.777102 0.676445
873 2 0.771358 0.769828 0.711701
874 2 0.767378 0.831416 0.690769
875 2 0.641764 0.691401 0.703001
876 2 0.687301 0.822585 0.681681
877 2 0.69689 0.794328 0.72056
878 2 0.680205 0.80257 0.718777
879 2 0.702304 0.777919 0.655565
880 2 0.383567 0.628828 0.0241435
881 2 0.750039 0.800854 0.679725
882 1 0.253 0.359618 0.969557
883 1 0.480554 0.753682 0.184192
884 2 0.626806 0.468719 0.754619
885 2 0.736927 0.79854 0.734637
886 2 0.779035 0.773828 0.686832
887 1 0.813267 0.225429 0.0924839
888 2 0.895045 0.958808 0.57428
889 2 0.638605 0.158551 0.492853
890 1 0.662177 0.718997 0.663887
891 2 0.33847 0.698234 0.835798
892 2 0.770806 0.845177 0.694347
893 2 0.734866 0.770638 0.713333
894 2 0.690097 0.788931 0.665577
895 1 0.821678 0.788709 0.680718
896 2 0.690711 0.823485 0.668591
897 2 0.722847 0.851851 0.719182
898 2 0.754068 0.751885 0.710359
899 2 0.912684 0.516764 0.0234335
900 2 0.729445 0.776569 0.695223
901 2 0.76251 0.764083 0.689335
902 2 0.764083 0.806349 0.716413
903 2 0.693077 0.78217 0.742658
904 2 0.725691 0.770168 0.722923
905 2 0.737694 0.837798 0.660047
906 2 0.730854 0.801494 0.762419
907 2 0.761977 0.832932 0.737027
908 1 0.798929 0.735604 0.727292