ITEM: TIMESTEP
56000
ITEM: NUMBER OF ATOMS
1000
ITEM: BOX BOUNDS xy xz yz pp pp pp
0.0000000000000000e+00 1.3572088000000001e+01 0.0000000000000000e+00
0.0000000000000000e+00 1.3572088000000001e+01 0.0000000000000000e+00
0.0000000000000000e+00 1.3572088000000001e+01 0.0000000000000000e+00
ITEM: ATOMS id type xs ys zs
1 2 0.313516 0.351233 0.265363
2 2 0.887874 0.691528 0.660265
3 1 0.670647 0.933665 0.782974
4 2 0.190511 0.639301 0.00934147
5 2 0.56376 0.98033 0.78246
6 1 0.600389 0.0349619 0.717706
7 2 0.620014 0.958264 0.761659
8 2 0.794723 0.649498 0.624338
9 2 0.128207 0.433278 0.315417
10 2 0.614573 0.0107822 0.732735
11 2 0.803233 0.638346 0.644635
12 2 0.615836 0.909101 0.769639
13 2 0.839373 0.719898 0.615953
14 1 0.959226 0.453517 0.267275
15 2 0.858917 0.655378 0.581113
16 2 0.0523404 0.0818407 0.217912
17 1 0.783934 0.681233 0.564074
18 2 0.781516 0.639624 0.68693
19 2 0.596551 0.318808 0.560411
20 2 0.633571 0.953058 0.805389
21 2 0.557376 0.980635 0.738108
22 2 0.750095 0.123141 0.738824
23 2 0.143997 0.739534 0.323479
24 2 0.858351 0.610213 0.645172
25 1 0.22141 0.433311 0.129108
26 2 0.846672 0.615857 0.471384
27 2 0.602265 0.987553 0.78562
28 2 0.63369 0.932428 0.761226
29 2 0.013568 0.38561 0.573112
30 2 0.556753 0.912847 0.770493
31 1 0.606695 0.728967 0.530814
32 1 0.514829 0.26566 0.714287
33 1 0.7945 0.659065 0.681605
34 2 0.830838 0.693936 0.64004
35 2 0.350258 0.57083 0.462771
36 1 0.591126 0.88811 0.811098
37 2 0.837926 0.677445 0.670672
38 2 0.574544 0.978637 0.756443
39 2 0.195473 0.554996 0.877235
40 2 0.637415 0.727486 0.0744094
41 2 0.582064 0.940133 0.730963
42 2 0.579839 0.959311 0.793605
43 2 0.0252395 0.868611 0.921047
44 2 0.559702 0.169623 0.11694
45 2 0.832477 0.700288 0.631287
46 1 0.509558 0.144949 0.902421
47 2 0.867131 0.692794 0.680653
48 2 0.598022 0.918449 0.74488
49 2 0.908409 0.559575 0.336685
50 2 0.836193 0.687366 0.657047
51 2 0.233174 0.369288 0.983606
52 2 0.542352 0.107093 0.213708
53 2 0.171314 0.0988716 0.32415
54 2 0.55266 0.952578 0.733277
55 1 0.87911 0.584149 0.626653
56 1 0.5092 0.971758 0.792
57 2 0.576356 0.672333 0.715908
58 2 0.634726 0.831506 0.79352
59 2 0.84688 0.705699 0.61286
60 2 0.566272 0.100249 0.559439
61 2 0.312118 0.174723 0.296198
62 2 0.657356 0.53504 0.79465
63 2 0.191893 0.211285 0.333039
64 2 0.858718 0.800241 0.623573
65 2 0.833735 0.636012 0.622708
66 1 0.890568 0.76955 0.640311
67 2 0.634079 0.96221 0.770284
68 2 0.566588 0.998679 0.787595
69 1 0.552521 0.0183219 0.799606
70 2 0.833055 0.649359 0.605478
71 1 0.531444 0.0180582 0.763084
72 2 0.161728 0.284132 0.331003
73 2 0.604419 0.958895 0.805301
74 2 0.567363 0.927368 0.803674
75 2 0.720935 0.469805 0.724248
76 2 0.545708 0.945808 0.797254
77 1 0.0687937 0.682481 0.459447
78 2 0.603954 0.745772 0.491694
79 2 0.602204 0.98429 0.81368
80 2 0.623749 0.4031 0.64833
81 2 0.588074 0.962073 0.762197
82 2 0.82942 0.708152 0.593338
83 2 0.0766806 0.930554 0.854112
84 2 0.651 0.499629 0.37002
85 1 0.572734 0.917129 0.676849
86 2 0.869323 0.639386 0.62276
87 2 0.564228 0.97506 0.732179
88 2 0.853797 0.719738 0.597505
89 2 0.545206 0.253715 0.988167
90 2 0.634658 0.978194 0.784487
91 2 0.985529 0.12235 0.253233
92 2 0.738208 0.553468 0.104245
93 2 0.860075 0.627636 0.667744
94 1 0.990156 0.0863219 0.290218
95 2 0.97271 0.413709 0.356633
96 2 0.59368 0.944293 0.785324
97 2 0.95143 0.512473 0.335878
98 2 0.243916 0.693398 0.905061
99 2 0.972067 0.735252 0.0775081
100 2 0.373909 0.183544 0.14376
101 1 0.356899 0.545047 0.240865
102 2 0.844125 0.900043 0.240882
103 2 0.865154 0.706864 0.598631
104 2 0.711184 0.805454 0.931734
105 2 0.799866 0.637844 0.607021
106 2 0.810221 0.220312 0.64025
107 2 0.113924 0.178 0.659253
108 2 0.842341 0.678015 0.574707
109 2 0.854853 0.649842 0.611201
110 2 0.597183 0.972132 0.771265
111 2 0.65348 0.374409 0.320568
112 1 0.938844 0.719343 0.612444
113 1 0.737586 0.678924 0.571873
114 2 0.881325 0.681241 0.677445
115 2 0.472418 0.553997 0.891384
116 2 0.897295 0.63718 0.651002
117 2 0.693143 0.651926 0.14706
118 2 0.839972 0.638787 0.635511
119 2 0.549925 0.230081 0.19774
120 2 0.864399 0.698086 0.584883
121 2 0.615111 0.945995 0.80214
122 2 0.562952 0.946537 0.774887
123 2 0.829493 0.677 0.624546
124 2 0.847625 0.654775 0.628207
125 1 0.897867 0.698839 0.697433
126 2 0.563213 0.957457 0.759265
127 2 0.820819 0.682526 0.654173
128 2 0.0815298 0.78114 0.804239
129 1 0.301513 0.00611256 0.0185338
130 2 0.321501 0.954254 0.295363
131 2 0.560297 0.953287 0.747011
132 2 0.616093 0.9309 0.714171
133 2 0.879322 0.648441 0.668851
134 2 0.374846 0.122406 0.200881
135 2 0.600859 0.927022 0.733867
136 2 0.556305 0.345379 0.910703
137 1 0.538333 0.0814288 0.000445124
138 2 0.580986 0.99603 0.745312
139 2 0.627018 0.973036 0.714811
140 1 0.82959 0.700062 0.549424
141 2 0.875644 0.674161 0.593247
142 2 0.24359 0.527917 0.966205
143 2 0.000252258 0.689362 0.0234949
144 2 0.969299 0.145816 0.197628
145 2 0.495015 0.9574 0.210691
146 2 0.890047 0.130018 0.484528
147 1 0.982203 0.329567 0.634685
148 1 0.833021 0.589867 0.598217
149 2 0.617583 0.978404 0.805192
150 1 0.918716 0.622499 0.640794
151 2 0.590482 0.00270001 0.796012
152 2 0.765485 0.705602 0.604183
153 1 0.926456 0.670655 0.577722
154 1 0.276128 0.124169 0.761022
155 2 0.453366 0.824162 0.648271
156 2 0.792636 0.87483 0.231833
157 2 0.610732 0.0339681 0.209149
158 2 0.261488 0.292969 0.513415
159 2 0.585046 0.975172 0.723453
160 2 0.59242 0.963341 0.705745
161 2 0.608987 0.933958 0.767047
162 2 0.614215 0.00321946 0.758263
163 2 0.579686 0.945121 0.805443
164 2 0.832521 0.709841 0.658421
165 2 0.808623 0.629666 0.623816
166 2 0.574364 0.99339 0.805269
167 2 0.43475 0.0460026 0.5703
168 2 0.593361 0.918139 0.736397
169 2 0.442112 0.704769 0.382516
170 2 0.926821 0.487396 0.0724009
171 2 0.0450616 0.500642 0.645787
172 2 0.06728 0.199678 0.717653
173 1 0.764475 0.67008 0.660335
174 2 0.485045 0.0919873 0.513332
175 2 0.661357 0.915325 0.248758
176 2 0.616723 0.00432828 0.809684
177 1 0.737031 0.187184 0.910737
178 2 0.977541 0.365528 0.0137388
179 2 0.12738 0.0371915 0.594211
180 2 0.853032 0.692207 0.619766
181 2 0.585233 0.923183 0.720428
182 2 0.612859 0.969537 0.98135
183 2 0.570223 0.118202 0.946717
184 2 0.547554 0.986 0.786559
185 2 0.841807 0.646283 0.672097
186 2 0.896051 0.595941 0.734015
187 2 0.97465 0.350416 0.396047
188 1 0.602205 0.0418128 0.794423
189 2 0.567994 0.925578 0.718713
190 2 0.97947 0.614663 0.833073
191 2 0.598166 0.0265579 0.667975
192 2 0.571172 0.969688 0.738058
193 2 0.572165 0.960591 0.716752
194 2 0.562636 0.117145 0.270954
195 2 0.548762 0.986522 0.76702
196 2 0.586424 0.930684 0.778656
197 2 0.86849 0.669281 0.662283
198 2 0.12112 0.877039 0.1843
199 2 0.884542 0.303187 0.718397
200 1 0.835629 0.745909 0.682161
201 2 0.356323 0.102225 0.752199
202 2 0.408809 0.0546316 0.256413
203 2 0.58247 0.00363476 0.777413
204 2 0.649289 0.754985 0.435707
205 2 0.625123 0.997369 0.789334
206 2 0.607597 0.111249 0.332512
207 2 0.94822 0.292015 0.802303
208 2 0.760907 0.487822 0.951645
209 2 0.849946 0.679432 0.652083
210 2 0.190496 0.687301 0.411804
211 2 0.204415 0.167503 0.0715594
212 1 0.56321 0.966452 0.625416
213 2 0.893542 0.659412 0.612968
214 2 0.840287 0.672603 0.605477
215 2 0.862185 0.620498 0.621957
216 2 0.408212 0.959534 0.536575
217 2 0.634242 0.949203 0.719736
218 2 0.308191 0.306479 0.967762
219 2 0.544802 0.972319 0.771152
220 2 0.440671 0.074272 0.0181544
221 2 0.844916 0.656796 0.584914
222 2 0.972133 0.0197073 0.578018
223 2 0.603401 0.0726293 0.32167
224 2 0.642019 0.989264 0.777061
225 1 0.682742 0.77856 0.636693
226 2 0.607123 0.982328 0.759376
227 2 0.553293 0.922424 0.736324
228 2 0.874328 0.683257 0.617765
229 2 0.554844 0.962454 0.779841
230 1 0.415075 0.816221 0.740676
231 2 0.593955 0.966487 0.731769
232 2 0.847038 0.641055 0.623967
233 1 0.837267 0.481866 0.847886
234 2 0.873497 0.704119 0.614785
235 2 0.864587 0.687424 0.629938
236 2 0.988877 0.0713512 0.464448
237 2 0.178225 0.19308 0.162902
238 1 0.680852 0.523888 0.927296
239 1 0.773988 0.638722 0.593793
240 2 0.867688 0.684706 0.659484
241 2 0.562268 0.901952 0.757596
242 1 0.833525 0.746477 0.631843
243 1 0.8965 0.744689 0.587823
244 2 0.860087 0.708722 0.64358
245 2 0.683563 0.478891 0.702014
246 1 0.878837 0.961314 0.659469
247 2 0.351634 0.34279 0.721597
248 2 0.111275 0.457934 0.186099
249 2 0.539572 0.235738 0.757958
250 2 0.636473 0.972978 0.732522
251 2 0.913971 0.0335656 0.00380562
252 2 0.79136 0.342176 0.803608
253 2 0.316476 0.601413 0.362
254 2 0.938631 0.301909 0.440382
255 2 0.606173 0.962847 0.723836
256 2 0.582189 0.926419 0.736842
257 2 0.548282 0.970671 0.736298
258 2 0.643282 0.56881 0.22826
259 1 0.74611 0.547323 0.259416
260 2 0.876871 0.647859 0.651716
261 1 0.711624 0.946592 0.782469
262 2 0.625957 0.868789 0.724146
263 2 0.855101 0.668518 0.673378
264 2 0.152416 0.873955 0.427432
265 1 0.749984 0.702509 0.653527
266 2 0.807781 0.669237 0.629307
267 2 0.585729 0.948316 0.756261
268 1 0.638816 0.908425 0.800364
269 1 0.478246 0.274208 0.859726
270 2 0.120202 0.55781 0.308121
271 2 0.878825 0.0266699 0.0485478
272 2 0.201864 0.194523 0.95314
273 1 0.797209 0.726452 0.582553
274 2 0.878868 0.665889 0.582832
275 2 0.628256 0.643063 0.360529
276 2 0.609019 0.887366 0.680719
277 2 0.895333 0.643205 0.391023
278 2 0.652916 0.46234 0.807629
279 2 0.594931 0.00844577 0.717866
280 1 0.074096 0.879589 0.941546
281 2 0.52269 0.99449 0.401258
282 2 0.586123 0.994227 0.771111
283 2 0.653161 0.224437 0.158114
284 1 0.571676 0.968821 0.669443
285 2 0.585079 0.982191 0.759255
286 2 0.573498 0.944557 0.760395
287 1 0.1493 0.230506 0.0438688
288 2 0.592691 0.998119 0.757271
289 2 0.806989 0.698296 0.657443
290 2 0.529322 0.404497 0.576466
291 2 0.816909 0.621554 0.609442
292 2 0.860583 0.443454 0.811358
293 2 0.864544 0.629513 0.642423
294 2 0.795459 0.889097 0.829304
295 2 0.830676 0.604901 0.632373
296 2 0.302558 0.43689 0.728389
297 2 0.583056 0.964688 0.724556
298 2 0.86983 0.722662 0.638936
299 1 0.681761 0.902913 0.745985
300 2 0.539108 0.936636 0.776946
301 2 0.226279 0.757592 0.931384
302 2 0.127964 0.509214 0.998715
303 2 0.606626 0.996187 0.721128
304 1 0.89684 0.482882 0.279391
305 2 0.9736 0.026933 0.768602
306 2 0.617634 0.977137 0.740441
307 2 0.963435 0.573898 0.100513
308 2 0.32319 0.268772 0.490687
309 2 0.331793 0.694089 0.266943
310 2 0.747281 0.474685 0.623354
311 2 0.8421 0.68786 0.615123
312 2 0.588549 0.959092 0.813515
313 2 0.793094 0.65998 0.646491
314 2 0.34432 0.637502 0.508563
315 2 0.18822 0.0636874 0.712755
316 2 0.857819 0.670525 0.652068
317 2 0.571385 0.93893 0.750507
318 2 0.558875 0.336034 0.0177896
319 2 0.871454 0.658593 0.579899
320 2 0.810311 0.680107 0.670708
321 2 0.787083 0.662716 0.610215
322 2 0.824928 0.793468 0.575176
323 2 0.672834 0.786783 0.758473
324 2 0.162087 0.72294 0.137017
325 2 0.826808 0.702862 0.616824
326 2 0.538192 0.97784 0.767965
327 2 0.526008 0.272466 0.89921
328 2 0.843201 0.614763 0.668903
329 1 0.276912 0.91429 0.295131
330 2 0.83264 0.678551 0.613873
331 2 0.843485 0.657485 0.621325
332 2 0.50376 0.94237 0.69165
333 2 0.907587 0.0827562 0.606023
334 2 0.587042 0.941523 0.720004
335 1 0.557533 0.191306 0.174316
336 2 0.85667 0.635387 0.601944
337 2 0.423005 0.39436 0.937268
338 1 0.507971 0.938606 0.750103
339 2 0.809337 0.662031 0.654267
340 2 0.921612 0.409164 0.105598
341 2 0.559616 0.931903 0.774777
342 2 0.856702 0.661049 0.655598
343 2 0.81203 0.657811 0.620178
344 1 0.634111 0.0182875 0.825241
345 1 0.835426 0.61475 0.566043
346 1 0.540693 0.963161 0.700244
347 1 0.79042 0.117737 0.54914
348 2 0.919532 0.0585594 0.644484
349 2 0.971463 0.4168 0.62128
350 2 0.0649724 0.165229 0.349257
351 2 0.829564 0.522876 0.727546
352 2 0.216205 0.295708 0.846301
353 1 0.932394 0.65041 0.62619
354 1 0.289969 0.833473 0.275992
355 2 0.837986 0.972914 0.622992
356 2 0.80846 0.657392 0.593648
357 2 0.364319 0.2763 0.674367
358 2 0.347497 0.946522 0.927048
359 2 0.908027 0.395218 0.629827
360 2 0.619069 0.923726 0.784956
361 1 0.586319 0.0208698 0.822834
362 2 0.944337 0.826496 0.0226633
363 1 0.62372 0.00840792 0.688707
364 2 0.591588 0.0178423 0.764018
365 2 0.844566 0.654092 0.648918
366 2 0.849889 0.63598 0.612043
367 1 0.416946 0.415128 0.425433
368 1 0.402933 0.114609 0.901971
369 2 0.512183 0.633184 0.605477
370 2 0.825649 0.826969 0.242349
371 2 0.867332 0.655538 0.644834
372 1 0.917888 0.44471 0.236812
373 2 0.813699 0.655728 0.130206
374 2 0.232092 0.300949 0.661677
375 2 0.596163 0.993058 0.77064
376 2 0.683699 0.598691 0.672396
377 2 0.144056 0.792384 0.779021
378 2 0.677063 0.643051 0.629344
379 2 0.829189 0.713591 0.631952
380 2 0.605228 0.94882 0.791362
381 2 0.618009 0.982368 0.789709
382 2 0.350673 0.453488 0.75486
383 2 0.709022 0.592899 0.151367
384 1 0.607653 0.158397 0.161802
385 2 0.819519 0.677464 0.586837
386 2 0.60835 0.548513 0.977995
387 1 0.176103 0.677901 0.960299
388 2 0.572271 0.978688 0.702466
389 2 0.902591 0.67906 0.644165
390 2 0.580518 0.968795 0.785091
391 2 0.947251 0.70265 0.145482
392 1 0.822225 0.650104 0.711135
393 2 0.493525 0.448261 0.953032
394 2 0.646373 0.973779 0.748892
395 2 0.562612 0.974569 0.749958
396 2 0.546156 0.966214 0.749994
397 2 0.866439 0.673454 0.636348
398 1 0.562447 0.481265 0.931268
399 1 0.873943 0.737931 0.674567
400 1 0.785847 0.150673 0.186415
401 2 0.597846 0.953255 0.743165
402 2 0.895801 0.154226 0.585498
403 2 0.821456 0.431947 0.0202404
404 2 0.918661 0.717298 0.559288
405 2 0.923893 0.136349 0.534088
406 2 0.742479 0.478664 0.16915
407 2 0.602765 0.120075 0.197389
408 2 0.88091 0.640779 0.627056
409 2 0.632241 0.00406094 0.780092
410 2 0.855646 0.65028 0.681055
411 2 0.939931 0.0944578 0.939202
412 2 0.920765 0.416694 0.588799
413 2 0.874042 0.695276 0.641097
414 2 0.107288 0.714523 0.422178
415 2 0.555932 0.9875 0.749582
416 1 0.86601 0.662292 0.543451
417 2 0.163384 0.335548 0.781611
418 2 0.491961 0.950318 0.45958
419 2 0.928841 0.860226 0.993463
420 2 0.0750668 0.343192 0.792829
421 1 0.60039 0.737028 0.370477
422 1 0.655382 0.874466 0.773829
423 2 0.632734 0.952661 0.744366
424 2 0.623952 0.952635 0.746154
425 1 0.489842 0.0104988 0.886317
426 2 0.0567823 0.815273 0.474372
427 2 0.280211 0.654822 0.419045
428 2 0.057938 0.602306 0.87528
429 2 0.603871 0.975686 0.778457
430 2 0.819505 0.669216 0.608161
431 2 0.827447 0.663672 0.587633
432 1 0.648648 0.919919 0.698295
433 2 0.35256 0.964033 0.161441
434 1 0.976173 0.0567466 0.360325
435 2 0.110014 0.604028 0.508501
436 2 0.845608 0.639841 0.681229
437 2 0.809171 0.418565 0.857996
438 2 0.605744 0.0890288 0.544505
439 1 0.622796 0.928583 0.83221
440 2 0.796313 0.683243 0.600885
441 1 0.715077 0.531587 0.839972
442 1 0.890243 0.70034 0.565175
443 1 0.153803 0.949019 0.043766
444 2 0.88755 0.655808 0.659727
445 2 0.881518 0.878589 0.894415
446 2 0.240482 0.83108 0.758184
447 2 0.890502 0.689762 0.63058
448 2 0.567138 0.231947 0.017891
449 1 0.125073 0.482195 0.943841
450 2 0.818571 0.643045 0.643409
451 2 0.547198 0.935023 0.757125
452 2 0.646853 0.943142 0.753866
453 1 0.597255 0.98739 0.685321
454 2 0.818337 0.661234 0.614587
455 2 0.942848 0.787673 0.198456
456 2 0.322438 0.402531 0.793839
457 2 0.625669 0.920088 0.773965
458 2 0.585035 0.902729 0.768018
459 2 0.162367 0.836943 0.924407
460 2 0.843441 0.699824 0.59449
461 2 0.978822 0.917715 0.484562
462 2 0.867546 0.659304 0.611911
463 1 0.830349 0.589229 0.654871
464 2 0.313319 0.258106 0.197204
465 2 0.587782 0.928117 0.835208
466 2 0.891668 0.67751 0.665636
467 1 0.576559 0.39798 0.902754
468 2 0.435093 0.831516 0.487184
469 2 0.802438 0.711054 0.617076
470 2 0.597464 0.896046 0.781106
471 2 0.828862 0.662892 0.646169
472 2 0.823788 0.701204 0.581637
473 1 0.790281 0.595763 0.639254
474 1 0.364452 0.521814 0.415797
475 1 0.568499 0.253367 0.219307
476 2 0.596944 0.916945 0.702567
477 2 0.563364 0.996389 0.744712
478 2 0.108103 0.917598 0.8984
479 2 0.432132 0.315554 0.949888
480 2 0.573967 0.960269 0.822702
481 2 0.819516 0.699244 0.647499
482 2 0.00908111 0.137263 0.379565
483 2 0.86188 0.656681 0.600176
484 1 0.984153 0.643847 0.892741
485 1 0.417514 0.0744448 0.640034
486 2 0.883257 0.651612 0.634196
487 2 0.099365 0.24999 0.868556
488 2 0.839379 0.670125 0.630227
489 2 0.899065 0.663129 0.631559
490 2 0.641346 0.67127 0.718651
491 2 0.864399 0.644672 0.644018
492 2 0.847652 0.706623 0.671506
493 2 0.891251 0.667344 0.638463
494 2 0.600659 0.940954 0.737464
495 2 0.586159 0.963037 0.746326
496 2 0.890654 0.642843 0.611109
497 2 0.351089 0.838169 0.300924
498 1 0.529709 0.109922 0.0481098
499 2 0.617621 0.99205 0.723254
500 2 0.921132 0.288564 0.112965
501 1 0.761899 0.639722 0.644163
502 2 0.0949222 0.147879 0.275208
503 2 0.888092 0.683448 0.590262
504 1 0.54663 0.8875 0.706299
505 2 0.809 0.682095 0.619483
506 2 0.8727 0.663868 0.620407
507 2 0.90956 0.234901 0.650721
508 2 0.57332 0.949801 0.741966
509 1 0.620743 0.0496356 0.764692
510 2 0.856063 0.625871 0.656373
511 2 0.637497 0.971296 0.755236
512 2 0.882527 0.618338 0.629809
513 1 0.298184 0.15773 0.825963
514 2 0.614218 0.947482 0.723115
515 1 0.670752 0.903979 0.840451
516 2 0.57345 0.905075 0.735769
517 1 0.833828 0.552091 0.62794
518 2 0.276147 0.503497 0.185347
519 2 0.59663 0.975791 0.71176
520 2 0.573988 0.981021 0.798797
521 2 0.638439 0.430886 0.841056
522 2 0.360234 0.920084 0.867218
523 2 0.79866 0.67932 0.649584
524 2 0.946035 0.350072 0.234792
525 2 0.472024 0.33918 0.640097
526 2 0.873405 0.118506 0.645226
527 2 0.809033 0.668022 0.598222
528 1 0.96627 0.333486 0.154107
529 2 0.824071 0.698281 0.613803
530 2 0.00571664 0.438928 0.149722
531 2 0.642159 0.917983 0.75679
532 2 0.572728 0.92981 0.762189
533 2 0.972207 0.272889 0.546831
534 1 0.546049 0.0460248 0.720749
535 2 0.792916 0.673815 0.645294
536 1 0.766889 0.630183 0.547057
537 1 0.514589 0.977946 0.738695
538 2 0.300445 0.8947 0.903297
539 2 0.866013 0.683091 0.614284
540 2 0.106013 0.557849 0.93344
541 1 0.880248 0.593924 0.580339
542 2 0.592474 0.938581 0.767485
543 1 0.271317 0.20661 0.850207
544 1 0.928939 0.691908 0.665199
545 2 0.821131 0.641513 0.614888
546 2 0.00223781 0.40889 0.303784
547 2 0.565932 0.298426 0.912125
548 2 0.566852 0.946211 0.708994
549 2 0.467566 0.0586109 0.221001
550 2 0.891203 0.406933 0.301856
551 1 0.817727 0.688829 0.705985
552 2 0.729192 0.837811 0.117434
553 2 0.826085 0.650904 0.657988
554 2 0.582192 0.945823 0.711577
555 1 0.750577 0.534088 0.383903
556 2 0.0840148 0.291584 0.387597
557 2 0.840487 0.659875 0.602521
558 1 0.771257 0.730506 0.617622
559 2 0.894091 0.630439 0.634998
560 2 0.348806 0.304521 0.981757
561 2 0.0897958 0.608427 0.160966
562 1 0.873197 0.627852 0.543043
563 2 0.844675 0.710336 0.649003
564 2 0.683052 0.69154 0.382474
565 2 0.894239 0.655121 0.596718
566 2 0.100616 0.158307 0.750386
567 2 0.843122 0.685622 0.604058
568 2 0.828015 0.159431 0.464449
569 1 0.216471 0.869565 0.323883
570 2 0.839473 0.665197 0.635285
571 2 0.101083 0.166612 0.983608
572 2 0.636272 0.952127 0.773077
573 2 0.87401 0.616098 0.605917
574 2 0.200585 0.604757 0.371534
575 1 0.198519 0.852084 0.238204
576 2 0.849979 0.61714 0.589446
577 2 0.621424 0.93069 0.746838
578 1 0.656323 0.969338 0.810814
579 2 0.585017 0.943964 0.694273
580 1 0.137227 0.341498 0.149076
581 2 0.562497 0.689546 0.651728
582 2 0.6064 0.92824 0.759386
583 1 0.0186278 0.660066 0.16868
584 2 0.59843 0.9926 0.739289
585 1 0.804135 0.73909 0.649167
586 2 0.791436 0.675774 0.627771
587 2 0.588438 0.96259 0.771087
588 2 0.774593 0.563609 0.994044
589 1 0.649994 0.96869 0.688176
590 1 0.528008 0.66349 0.513373
591 1 0.61905 0.932168 0.680096
592 2 0.25233 0.725365 0.962039
593 2 0.616198 0.957437 0.737262
594 1 0.0489943 0.942448 0.97459
595 1 0.846635 0.00400237 0.989491
596 2 0.648226 0.595729 0.222448
597 1 0.287825 0.527003 0.542634
598 2 0.470783 0.874922 0.00777207
599 2 0.808437 0.654474 0.629856
600 2 0.236427 0.683691 0.680551
601 2 0.836765 0.663716 0.678749
602 1 0.765602 0.412663 0.671885
603 2 0.213759 0.501356 0.392486
604 1 0.776024 0.308206 0.763143
605 2 0.780287 0.710335 0.733652
606 2 0.0983298 0.732103 0.182827
607 1 0.837775 0.603574 0.709402
608 2 0.289904 0.699014 0.075627
609 2 0.844921 0.640361 0.59187
610 2 0.866132 0.693937 0.614637
611 2 0.599502 0.951138 0.775606
612 1 0.5734 0.502483 0.386773
613 2 0.700632 0.671275 0.870234
614 1 0.921275 0.0124869 0.0864169
615 2 0.11977 0.445206 0.291275
616 1 0.569227 0.855445 0.754829
617 2 0.593944 0.938263 0.803134
618 2 0.610692 0.398546 0.857153
619 2 0.290858 0.0934434 0.933204
620 2 0.348279 0.670669 0.0382823
621 2 0.87083 0.673372 0.648475
622 2 0.880137 0.695526 0.610961
623 1 0.388686 0.470975 0.471636
624 2 0.361039 0.968412 0.986692
625 2 0.936288 0.971133 0.669028
626 2 0.816288 0.309104 0.807432
627 2 0.541271 0.95825 0.77143
628 2 0.250971 0.259675 0.813033
629 2 0.973241 0.198825 0.387405
630 1 0.857027 0.700838 0.708608
631 2 0.566981 0.429645 0.851813
632 2 0.85907 0.654977 0.626307
633 2 0.61716 0.929452 0.732363
634 2 0.308169 0.708707 0.697631
635 2 0.60773 0.297941 0.484596
636 2 0.57857 0.982329 0.777925
637 2 0.618112 0.947002 0.774865
638 1 0.46924 0.626327 0.336089
639 2 0.600849 0.943427 0.767037
640 2 0.61788 0.914891 0.798846
641 2 0.813029 0.712995 0.631813
642 2 0.858571 0.668292 0.623122
643 2 0.274248 0.673702 0.0620785
644 2 0.641965 0.212463 0.0141981
645 1 0.278238 0.657995 0.632978
646 2 0.565907 0.962131 0.803887
647 1 0.861018 0.0862188 0.544146
648 2 0.237957 0.612223 0.496623
649 2 0.856856 0.614188 0.614468
650 2 0.531459 0.996174 0.799053
651 2 0.883161 0.670994 0.596926
652 2 0.857346 0.680765 0.598972
653 2 0.81046 0.649146 0.602796
654 1 0.919843 0.597343 0.607855
655 2 0.606753 0.863107 0.734472
656 2 0.564453 0.988833 0.763023
657 2 0.98839 0.41083 0.583613
658 2 0.79951 0.693375 0.617138
659 2 0.56493 0.951956 0.799434
660 2 0.427476 0.420081 0.587169
661 1 0.44519 0.436825 0.48042
662 2 0.865672 0.694616 0.640765
663 2 0.566568 0.955532 0.732467
664 1 0.452189 0.878855 0.422128
665 2 0.547354 0.16464 0.981306
666 2 0.589185 0.955766 0.739474
667 2 0.475968 0.811547 0.772945
668 2 0.616259 0.978789 0.777473
669 2 0.278011 0.757772 0.544998
670 1 0.199909 0.985215 0.275779
671 2 0.540335 0.958504 0.182566
672 1 0.82062 0.659551 0.552444
673 2 0.83553 0.63564 0.663988
674 2 0.298352 0.397617 0.724276
675 2 0.519465 0.667004 0.436808
676 1 0.222685 0.236328 0.896156
677 2 0.573197 0.996585 0.753724
678 2 0.610169 0.992273 0.746437
679 1 0.182455 0.173263 0.636172
680 2 0.538403 0.928835 0.751982
681 1 0.783635 0.582338 0.594416
682 1 0.84482 0.915105 0.509502
683 2 0.244031 0.670398 0.409693
684 2 0.961697 0.161085 0.421481
685 2 0.405909 0.997814 0.831984
686 2 0.379938 0.313184 0.708208
687 1 0.682835 0.937662 0.731131
688 2 0.659008 0.395805 0.90665
689 2 0.87593 0.708762 0.652379
690 2 0.817208 0.627282 0.634164
691 2 0.382297 0.082669 0.577711
692 1 0.571594 0.0458233 0.747615
693 2 0.107521 0.32677 0.750864
694 2 0.660968 0.844587 0.7696
695 1 0.413389 0.825629 0.813009
696 2 0.20255 0.358439 0.281757
697 2 0.396046 0.882449 0.551355
698 2 0.833329 0.676542 0.642866
699 2 0.809333 0.45544 0.547551
700 1 0.628606 0.969425 0.84748
701 2 0.817404 0.68953 0.624012
702 2 0.631855 0.988787 0.728862
703 2 0.610078 0.634794 0.427227
704 2 0.275041 0.227665 0.54422
705 2 0.807707 0.64042 0.626115
706 2 0.822382 0.637117 0.655067
707 2 0.854408 0.738645 0.106942
708 1 0.87898 0.662249 0.706554
709 2 0.23408 0.80243 0.27941
710 2 0.837396 0.661933 0.657598
711 2 0.319121 0.0404119 0.943444
712 1 0.913384 0.723015 0.642164
713 2 0.835902 0.635495 0.604992
714 1 0.814284 0.665812 0.513798
715 2 0.563553 0.967579 0.763521
716 1 0.117697 0.143595 0.0681218
717 2 0.615128 0.972676 0.753445
718 2 0.583988 0.408822 0.0649774
719 2 0.864415 0.693169 0.667454
720 2 0.0128201 0.779221 0.149741
721 2 0.583311 0.00410128 0.750299
722 1 0.256753 0.908686 0.984131
723 2 0.884852 0.0072579 0.0333063
724 2 0.596572 0.964959 0.788408
725 2 0.697596 0.716224 0.261048
726 2 0.846501 0.666683 0.572336
727 1 0.0365867 0.369311 0.870879
728 1 0.275742 0.146856 0.904608
729 1 0.636025 0.901518 0.727501
730 1 0.565073 0.0227487 0.67118
731 2 0.818147 0.675954 0.636942
732 1 0.19485 0.0765706 0.765795
733 2 0.336992 0.0506087 0.681443
734 2 0.583848 0.967952 0.811812
735 2 0.425735 0.321671 0.57195
736 1 0.526137 0.92637 0.718247
737 2 0.651675 0.958364 0.770511
738 2 0.134116 0.278622 0.757122
739 2 0.645321 0.947755 0.732653
740 2 0.901039 0.76002 0.0914495
741 2 0.615572 0.968562 0.787762
742 1 0.543338 0.976555 0.835397
743 2 0.849967 0.64414 0.660978
744 2 0.884565 0.708839 0.634192
745 2 0.604549 0.0033434 0.786303
746 1 0.873579 0.624378 0.699474
747 2 0.559503 0.343513 0.22205
748 2 0.360771 0.368751 0.656969
749 2 0.825125 0.66889 0.669581
750 2 0.848547 0.45035 0.889046
751 2 0.596663 0.977095 0.792849
752 2 0.605414 0.968272 0.742406
753 2 0.0471159 0.162779 0.136345
754 2 0.925385 0.363061 0.575117
755 2 0.653291 0.867771 0.706638
756 2 0.69242 0.5229 0.273846
757 2 0.816886 0.645561 0.66728
758 2 0.897896 0.289325 0.592967
759 2 0.598832 0.973267 0.758696
760 1 0.668763 0.0351044 0.454657
761 2 0.614463 0.968474 0.816217
762 2 0.628549 0.935326 0.727875
763 1 0.613582 0.195713 0.247133
764 2 0.580369 0.913056 0.749392
765 2 0.60062 0.92414 0.757483
766 2 0.752781 0.779411 0.599126
767 2 0.959216 0.816504 0.77989
768 2 0.238296 0.764714 0.0989238
769 2 0.862836 0.632204 0.58603
770 2 0.861033 0.723933 0.651475
771 2 0.426825 0.387407 0.479469
772 2 0.331753 0.342639 0.762685
773 1 0.93043 0.651645 0.664528
774 2 0.972469 0.213958 0.217811
775 2 0.85908 0.390191 0.586248
776 2 0.962158 0.364272 0.589055
777 1 0.544832 0.93423 0.834844
778 2 0.850239 0.677769 0.630564
779 2 0.826905 0.476254 0.188843
780 1 0.90925 0.637373 0.574927
781 2 0.619297 0.967749 0.712881
782 2 0.453592 0.761794 0.94357
783 1 0.552668 0.896455 0.804712
784 2 0.838858 0.684287 0.640944
785 2 0.63673 0.275631 0.439197
786 1 0.791353 0.715095 0.687739
787 2 0.745775 0.610937 0.506324
788 2 0.839744 0.555847 0.880181
789 2 0.744371 0.530239 0.990508
790 2 0.986348 0.184075 0.586348
791 1 0.866949 0.553965 0.680064
792 2 0.859516 0.932301 0.587998
793 2 0.955485 0.538864 0.228095
794 2 0.089818 0.414016 0.809586
795 2 0.610569 0.943413 0.757186
796 2 0.247602 0.266171 0.362522
797 2 0.832083 0.651337 0.648809
798 2 0.0523081 0.198575 0.892039
799 2 0.579743 0.954599 0.767136
800 2 0.339704 0.972359 0.970938
801 2 0.576737 0.0179434 0.774335
802 2 0.449337 0.716224 0.869371
803 2 0.861394 0.71044 0.623921
804 2 0.0152389 0.212018 0.865629
805 2 0.508118 0.315572 0.0521475
806 1 0.449161 0.995775 0.198761
807 2 0.634697 0.920119 0.773077
808 2 0.965531 0.219671 0.277502
809 1 0.886318 0.609472 0.666784
810 2 0.55294 0.933992 0.725054
811 2 0.927805 0.669686 0.63053
812 2 0.841468 0.632292 0.641951
813 1 0.538863 0.21049 0.953883
814 2 0.0710397 0.0611179 0.481125
815 2 0.827488 0.630777 0.601068
816 1 0.803361 0.621074 0.574497
817 1 0.518998 0.920934 0.793233
818 2 0.962645 0.848718 0.663626
819 1 0.810246 0.737378 0.547081
820 1 0.656971 0.0211393 0.737934
821 2 0.541515 0.948261 0.764989
822 2 0.616164 0.988561 0.757564
823 1 0.866321 0.759288 0.604081
824 2 0.6566 0.170128 0.712483
825 2 0.824701 0.648672 0.594731
826 2 0.144418 0.330017 0.258737
827 1 0.0424298 0.526411 0.0337401
828 2 0.116507 0.28418 0.470704
829 2 0.87248 0.636079 0.630913
830 2 0.611569 0.196613 0.948381
831 1 0.542472 0.00338412 0.708732
832 2 0.235709 0.716607 0.181185
833 1 0.85043 0.729514 0.573343
834 2 0.849801 0.685135 0.637447
835 2 0.770546 0.309821 0.243305
836 2 0.849746 0.698745 0.638528
837 2 0.459325 0.600237 0.550911
838 2 0.591981 0.97656 0.748021
839 2 0.934871 0.542647 0.776342
840 2 0.632597 0.950224 0.754978
841 2 0.933304 0.462286 0.144197
842 2 0.301566 0.756582 0.177407
843 2 0.813105 0.688491 0.595238
844 2 0.835298 0.632348 0.658687
845 2 0.848499 0.61877 0.630067
846 2 0.830506 0.623303 0.645504
847 2 0.86366 0.649199 0.659096
848 2 0.366129 0.622467 0.099009
849 1 0.450314 0.0731588 0.961575
850 2 0.0703027 0.704609 0.352092
851 2 0.565717 0.93845 0.789878
852 2 0.576001 0.949469 0.782516
853 1 0.968688 0.301548 0.094516
854 2 0.864481 0.135992 0.525734
855 2 0.852147 0.672681 0.679479
856 2 0.885611 0.672748 0.64201
857 2 0.51483 0.740875 0.51565
858 2 0.877706 0.669876 0.622288
859 2 0.835723 0.692377 0.589416
860 2 0.187434 0.126708 0.913308
861 2 0.863838 0.720906 0.613657
862 2 0.829105 0.293852 0.784515
863 2 0.60267 0.955706 0.75178
864 2 0.629141 0.982138 0.757305
865 2 0.806697 0.655454 0.643387
866 2 0.853583 0.668864 0.609161
867 2 0.974864 0.0578707 0.14874
868 2 0.92092 0.552555 0.149984
869 2 0.968833 0.700404 0.170636
870 2 0.877522 0.623898 0.594388
871 2 0.633735 0.947283 0.785022
872 2 0.59632 0.919748 0.790904
873 2 0.508733 0.751954 0.55115
874 2 0.856452 0.689009 0.656518
875 2 0.577067 0.233993 0.270661
876 2 0.541758 0.32665 0.48006
877 2 0.572057 0.922604 0.781279
878 2 0.916764 0.89329 0.864104
879 2 0.966535 0.673363 0.058653
880 2 0.462821 0.387666 0.570045
881 2 0.902956 0.512565 0.685281
882 1 0.748297 0.772176 0.0736688
883 1 0.391175 0.360182 0.889659
884 2 0.245811 0.400549 0.106462
885 2 0.772656 0.105813 0.451821
886 2 0.895432 0.671381 0.607255
887 1 0.176252 0.373368 0.712136
888 2 0.283864 0.309038 0.00768324
889 2 0.934298 0.266192 0.569581
890 1 0.802338 0.606631 0.67895
891 2 0.342465 0.378456 0.943422
892 2 0.85673 0.651415 0.636576
893 2 0.698459 0.933679 0.818683
894 2 0.572263 0.927619 0.745676
895 1 0.0407879 0.730289 0.732671
896 2 0.30992 0.20822 0.0139394
897 2 0.61411 0.371374 0.796755
898 2 0.607169 0.15982 0.675533
899 2 0.942311 0.925603 0.903032
900 2 0.573617 0.93612 0.774392
901 2 0.616006 0.919005 0.753107
902 2 0.815709 0.655215 0.637195
903 2 0.607762 0.963486 0.762371
904 2 0.602656 0.942529 0.712165
905 2 0.816637 0.035084 0.011282
906 2 0.454307 0.675367 0.551875
907 2 0.99498 0.734036 0.68079
908 1 0.614666 0.879473 0.757356