ITEM: TIMESTEP
23800
ITEM: NUMBER OF ATOMS
1000
ITEM: BOX BOUNDS xy xz yz pp pp pp
0.0000000000000000e+00 1.3572088000000001e+01 0.0000000000000000e+00
0.0000000000000000e+00 1.3572088000000001e+01 0.0000000000000000e+00
0.0000000000000000e+00 1.3572088000000001e+01 0.0000000000000000e+00
ITEM: ATOMS id type xs ys zs
1 2 0.612968 0.447802 0.63534
2 2 0.22741 0.974345 0.200405
3 1 0.766655 0.0544977 0.517133
4 2 0.00584384 0.0205103 0.0165054
5 2 0.592881 0.715519 0.464917
6 1 0.361487 0.0127186 0.155761
7 2 0.165773 0.796839 0.992267
8 2 0.936861 0.186118 0.299856
9 2 0.747978 0.751813 0.212246
10 2 0.955453 0.886573 0.320596
11 2 0.629521 0.0655368 0.657467
12 2 0.861842 0.600875 0.994104
13 2 0.566466 0.517989 0.766637
14 1 0.76448 0.490703 0.702952
15 2 0.971254 0.0584054 0.459736
16 2 0.396934 0.340578 0.311349
17 1 0.0317637 0.508193 0.0238189
18 2 0.0577088 0.965154 0.0358413
19 2 0.280551 0.995328 0.457863
20 2 0.418589 0.83832 0.435788
21 2 0.0338886 0.678733 0.359048
22 2 0.145908 0.0991255 0.977
23 2 0.357279 0.700674 0.725866
24 2 0.659082 0.80931 0.92304
25 1 0.486954 0.962526 0.138776
26 2 0.789667 0.112655 0.0405226
27 2 0.449241 0.192142 0.939273
28 2 0.659148 0.631972 0.338328
29 2 0.542894 0.362261 0.597564
30 2 0.619222 0.656739 0.26011
31 1 0.0395283 0.0511984 0.513563
32 1 0.20879 0.660629 0.304556
33 1 0.608885 0.464522 0.565487
34 2 0.692476 0.892293 0.187843
35 2 0.165413 0.518707 0.251628
36 1 0.711031 0.0981945 0.746287
37 2 0.242831 0.152785 0.504352
38 2 0.749331 0.301237 0.417877
39 2 0.497954 0.216979 0.198663
40 2 0.564295 0.986789 0.905536
41 2 0.0288888 0.619652 0.879985
42 2 0.312994 0.160568 0.82425
43 2 0.606746 0.298648 0.351185
44 2 0.667146 0.0988741 0.684006
45 2 0.325076 0.555182 0.643018
46 1 0.625121 0.883724 0.94537
47 2 0.541967 0.351785 0.781059
48 2 0.466334 0.248395 0.283984
49 2 0.601625 0.337615 0.477384
50 2 0.581848 0.488838 0.654305
51 2 0.67021 0.295208 0.0285295
52 2 0.168276 0.813228 0.454255
53 2 0.924791 0.537623 0.248747
54 2 0.459148 0.192556 0.979984
55 1 0.293451 0.647352 0.71399
56 1 0.639854 0.398537 0.675409
57 2 0.89382 0.71017 0.437861
58 2 0.0905843 0.183782 0.831319
59 2 0.11573 0.247892 0.817594
60 2 0.738683 0.979427 0.503502
61 2 0.883424 0.661169 0.0645094
62 2 0.899969 0.989286 0.563011
63 2 0.498502 0.580893 0.735114
64 2 0.915508 0.320036 0.443815
65 2 0.604603 0.868643 0.777136
66 1 0.416864 0.154659 0.977961
67 2 0.446144 0.611735 0.545353
68 2 0.958126 0.410654 0.60983
69 1 0.887784 0.335377 0.365069
70 2 0.152145 0.450594 0.398754
71 1 0.655476 0.727426 0.185641
72 2 0.796894 0.120261 0.777585
73 2 0.539804 0.52088 0.50419
74 2 0.23151 0.280435 0.540183
75 2 0.787784 0.964663 0.471927
76 2 0.660821 0.0838126 0.632697
77 1 0.441911 0.494705 0.975606
78 2 0.502222 0.349058 0.817946
79 2 0.848541 0.315853 0.65465
80 2 0.174961 0.0697263 0.393923
81 2 0.833846 0.842309 0.236604
82 2 0.848535 0.307188 0.617072
83 2 0.158225 0.0598133 0.522702
84 2 0.225622 0.412596 0.472518
85 1 0.727984 0.333637 0.696933
86 2 0.386761 0.0031184 0.362746
87 2 0.921391 0.540678 0.933359
88 2 0.171194 0.374679 0.0312073
89 2 0.83014 0.866136 0.580689
90 2 0.324232 0.695455 0.860487
91 2 0.66539 0.448173 0.445734
92 2 0.559101 0.36816 0.883396
93 2 0.69877 0.167786 0.537734
94 1 0.252509 0.809759 0.116287
95 2 0.810015 0.257584 0.391326
96 2 0.667211 0.791849 0.167098
97 2 0.284629 0.79202 0.323997
98 2 0.659447 0.00262197 0.715345
99 2 0.359262 0.346025 0.825708
100 2 0.552719 0.851102 0.938669
101 1 0.27387 0.859431 0.546262
102 2 0.507909 0.627631 0.509827
103 2 0.833152 0.923432 0.684643
104 2 0.924444 0.956654 0.992518
105 2 0.770935 0.87132 0.20079
106 2 0.0103383 0.738992 0.921126
107 2 0.916694 0.205063 0.772131
108 2 0.427065 0.171878 0.667052
109 2 0.842784 0.77036 0.37889
110 2 0.278136 0.617849 0.877602
111 2 0.953468 0.961217 0.665269
112 1 0.575681 0.677484 0.522471
113 1 0.722792 0.185421 0.319266
114 2 0.145045 0.805496 0.182184
115 2 0.563982 0.738873 0.898392
116 2 0.0207071 0.279273 0.544021
117 2 0.0654594 0.814912 0.972373
118 2 0.210262 0.369478 0.0454887
119 2 0.744963 0.284599 0.278086
120 2 0.792508 0.759562 0.237634
121 2 0.0594171 0.908219 0.567185
122 2 0.659188 0.759041 0.280883
123 2 0.302263 0.145945 0.803755
124 2 0.285591 0.0197832 0.0196455
125 1 0.669626 0.185871 0.663014
126 2 0.664829 0.0183749 0.921691
127 2 0.52992 0.345534 0.641867
128 2 0.0615582 0.0928295 0.468189
129 1 0.924361 0.734714 0.129889
130 2 0.334358 0.0273395 0.370863
131 2 0.5107 0.908796 0.4084
132 2 0.226068 0.90884 0.630908
133 2 0.355207 0.639863 0.364126
134 2 0.945866 0.195871 0.452495
135 2 0.0272171 0.0958765 0.490016
136 2 0.0204919 0.447927 0.225376
137 1 0.757418 0.951653 0.346551
138 2 0.669355 0.574608 0.525527
139 2 0.707404 0.351967 0.404644
140 1 0.709173 0.981123 0.735653
141 2 0.765727 0.86426 0.695214
142 2 0.437037 0.107001 0.300111
143 2 0.621878 0.645107 0.176757
144 2 0.658473 0.361269 0.477525
145 2 0.637662 0.990301 0.756522
146 2 0.681451 0.0559019 0.676469
147 1 0.646763 0.382393 0.232098
148 1 0.688082 0.694754 0.719279
149 2 0.239614 0.865219 0.606977
150 1 0.476638 0.98805 0.526262
151 2 0.763152 0.372411 0.244571
152 2 0.888792 0.279514 0.412227
153 1 0.445337 0.733144 0.524202
154 1 0.532815 0.133827 0.616225
155 2 0.410437 0.213969 0.174941
156 2 0.56829 0.379908 0.255998
157 2 0.855925 0.778463 0.869984
158 2 0.874479 0.631064 0.571372
159 2 0.232027 0.99379 0.942191
160 2 0.0254873 0.139235 0.0753326
161 2 0.761365 0.636076 0.45382
162 2 0.275613 0.425043 0.353684
163 2 0.536688 0.572069 0.967118
164 2 0.468801 0.0253379 0.379848
165 2 0.232143 0.0478532 0.684199
166 2 0.834426 0.894242 0.660793
167 2 0.72247 0.0365895 0.895281
168 2 0.558538 0.143559 0.18842
169 2 0.564707 0.933515 0.346407
170 2 0.0115635 0.634478 0.103531
171 2 0.905657 0.9972 0.93008
172 2 0.315951 0.773242 0.33196
173 1 0.523049 0.730972 0.569354
174 2 0.842469 0.702921 0.959391
175 2 0.866341 0.352491 0.433091
176 2 0.361937 0.557334 0.959955
177 1 0.656271 0.81494 0.223203
178 2 0.533702 0.434389 0.617479
179 2 0.389465 0.575531 0.269477
180 2 0.566293 0.762271 0.424548
181 2 0.0731289 0.761021 0.238701
182 2 0.0910795 0.427053 0.758618
183 2 0.220161 0.168823 0.122872
184 2 0.725941 0.324295 0.365227
185 2 0.522799 0.256503 0.432023
186 2 0.117533 0.447893 0.969565
187 2 0.371261 0.31889 0.427361
188 1 0.951582 0.238161 0.666378
189 2 0.36295 0.543322 0.365849
190 2 0.438724 0.0396744 0.420116
191 2 0.186996 0.995807 0.124082
192 2 0.266178 0.482512 0.654533
193 2 0.198694 0.575769 0.102443
194 2 0.440566 0.860003 0.064505
195 2 0.552604 0.865844 0.525083
196 2 0.100541 0.76302 0.726084
197 2 0.208134 0.533339 0.641621
198 2 0.235979 0.360004 0.838367
199 2 0.117643 0.792072 0.0208361
200 1 0.527827 0.856961 0.46425
201 2 0.0593104 0.787635 0.01798
202 2 0.540893 0.768553 0.536565
203 2 0.240927 0.877547 0.737526
204 2 0.513755 0.589863 0.241289
205 2 0.33825 0.344528 0.129043
206 2 0.717419 0.757107 0.0589989
207 2 0.852345 0.444295 0.907996
208 2 0.451012 0.947373 0.786518
209 2 0.242913 0.273557 0.818806
210 2 0.961079 0.196584 0.723152
211 2 0.878615 0.207802 0.414525
212 1 0.582487 0.266289 0.0663954
213 2 0.919483 0.39521 0.395583
214 2 0.0650677 0.289117 0.274583
215 2 0.569975 0.98671 0.402607
216 2 0.0941094 0.971058 0.142606
217 2 0.452121 0.0571698 0.741675
218 2 0.515952 0.961189 0.510526
219 2 0.0949809 0.643735 0.0215198
220 2 0.844977 0.155869 0.398693
221 2 0.381853 0.878911 0.52182
222 2 0.788015 0.429117 0.470351
223 2 0.0267114 0.710187 0.971233
224 2 0.0617064 0.943595 0.0503229
225 1 0.174337 0.0717371 0.205126
226 2 0.48429 0.501723 0.443846
227 2 0.0700852 0.584925 0.0181123
228 2 0.656949 0.49191 0.48121
229 2 0.689738 0.0344749 0.381455
230 1 0.0969866 0.490768 0.408604
231 2 0.942107 0.342318 0.370191
232 2 0.304876 0.684424 0.699803
233 1 0.307149 0.621806 0.596861
234 2 0.788217 0.10304 0.927676
235 2 0.743701 0.373001 0.0150849
236 2 0.401812 0.0894083 0.757473
237 2 0.413862 0.639731 0.84746
238 1 0.529182 0.505262 0.60535
239 1 0.138809 0.123177 0.0587381
240 2 0.808973 0.90496 0.0604677
241 2 0.347781 0.673436 0.243692
242 1 0.877572 0.0961573 0.169381
243 1 0.524177 0.190789 0.487442
244 2 0.421774 0.640017 0.56998
245 2 0.528487 0.564082 0.801907
246 1 0.549564 0.370819 0.567669
247 2 0.718515 0.252006 0.747499
248 2 0.255543 0.0825792 0.603047
249 2 0.159506 0.414445 0.55924
250 2 0.919136 0.159715 0.403743
251 2 0.220365 0.92021 0.139769
252 2 0.594763 0.361747 0.668004
253 2 0.978229 0.402168 0.405635
254 2 0.963999 0.760164 0.650082
255 2 0.833656 0.0358869 0.596262
256 2 0.533508 0.374069 0.726072
257 2 0.701481 0.351109 0.638938
258 2 0.37982 0.00404393 0.739803
259 1 0.310437 0.354966 0.76631
260 2 0.481498 0.860222 0.581243
261 1 0.762674 0.456927 0.403105
262 2 0.694006 0.095898 0.704091
263 2 0.543407 0.124457 0.138833
264 2 0.529739 0.545534 0.671853
265 1 0.00531853 0.595959 0.830547
266 2 0.591976 0.336901 0.638716
267 2 0.519487 0.841193 0.425937
268 1 0.139747 0.402248 0.698457
269 1 0.679886 0.376482 0.511976
270 2 0.778968 0.709853 0.87966
271 2 0.502478 0.466311 0.532698
272 2 0.0150776 0.166187 0.553931
273 1 0.692773 0.226898 0.00785938
274 2 0.644218 0.0596977 0.325749
275 2 0.225484 0.514322 0.964662
276 2 0.15454 0.413763 0.506668
277 2 0.870184 0.29168 0.68167
278 2 0.497744 0.578222 0.55936
279 2 0.836727 0.522941 0.100103
280 1 0.347994 0.93978 0.494026
281 2 0.622269 0.862074 0.345829
282 2 0.0581352 0.664087 0.373264
283 2 0.892816 0.389101 0.252615
284 1 0.510539 0.226875 0.257694
285 2 0.550023 0.36714 0.299914
286 2 0.00338176 0.993017 0.528938
287 1 0.497719 0.84727 0.491201
288 2 0.0885906 0.329703 0.099235
289 2 0.471005 0.622834 0.624281
290 2 0.108856 0.586204 0.0409012
291 2 0.916945 0.514614 0.525013
292 2 0.661463 0.482418 0.318863
293 2 0.203403 0.200572 0.79074
294 2 0.140472 0.781464 0.0841225
295 2 0.233682 0.941905 0.157032
296 2 0.928954 0.219942 0.267845
297 2 0.124259 0.120494 0.484385
298 2 0.0552359 0.656829 0.526463
299 1 0.368162 0.369603 0.424249
300 2 0.316732 0.191913 0.178177
301 2 0.557039 0.824482 0.826231
302 2 0.251342 0.813933 0.48994
303 2 0.812483 0.0196996 0.634011
304 1 0.349304 0.424695 0.108562
305 2 0.99174 0.0535504 0.61713
306 2 0.0386106 0.427982 0.542188
307 2 0.305469 0.162996 0.529378
308 2 0.57635 0.439112 0.602138
309 2 0.108394 0.435759 0.457048
310 2 0.677677 0.600051 0.562064
311 2 0.563161 0.435443 0.578516
312 2 0.641245 0.12883 0.471225
313 2 0.604534 0.740999 0.554054
314 2 0.64263 0.995808 0.895332
315 2 0.00549334 0.958563 0.0302403
316 2 0.782873 0.784915 0.673599
317 2 0.804191 0.358522 0.651573
318 2 0.284489 0.993252 0.348223
319 2 0.832902 0.115036 0.895005
320 2 0.0350537 0.619971 0.538237
321 2 0.306224 0.913012 0.522966
322 2 0.452994 0.733838 0.694868
323 2 0.170189 0.184175 0.370955
324 2 0.364432 0.0262027 0.783096
325 2 0.210238 0.109206 0.887095
326 2 0.192348 0.45779 0.96727
327 2 0.0539535 0.365473 0.943647
328 2 0.198162 0.286375 0.127207
329 1 0.0655522 0.766513 0.310682
330 2 0.767646 0.849547 0.171041
331 2 0.373808 0.66115 0.804177
332 2 0.337011 0.0224916 0.54349
333 2 0.679912 0.155028 0.373587
334 2 0.271297 0.24296 0.884946
335 1 0.55634 0.936185 0.14363
336 2 0.979378 0.0505727 0.0772552
337 2 0.968782 0.287648 0.386047
338 1 0.755072 0.321269 0.83921
339 2 0.528829 0.944925 0.207408
340 2 0.579621 0.774386 0.574477
341 2 0.503655 0.011141 0.183016
342 2 0.803957 0.296497 0.138461
343 2 0.00691245 0.0707014 0.104078
344 1 0.400176 0.0491884 0.0271539
345 1 0.422247 0.580448 0.639943
346 1 0.181445 0.00284346 0.0311271
347 1 0.79496 0.564847 0.924748
348 2 0.584163 0.894152 0.472996
349 2 0.843034 0.81915 0.0826294
350 2 0.0449747 0.671911 0.106411
351 2 0.797848 0.564264 0.584127
352 2 0.419667 0.871735 0.384785
353 1 0.104945 0.822645 0.183035
354 1 0.0909398 0.532451 0.923465
355 2 0.707428 0.143502 0.436288
356 2 0.555703 0.558339 0.878939
357 2 0.319563 0.342835 0.657764
358 2 0.973929 0.930751 0.990425
359 2 0.603348 0.335932 0.524939
360 2 0.410304 0.786021 0.541935
361 1 0.155173 0.758632 0.0685075
362 2 0.698286 0.155339 0.486749
363 1 0.253985 0.577529 0.642568
364 2 0.276992 0.920807 0.150134
365 2 0.979143 0.416765 0.302787
366 2 0.314195 0.133239 0.501122
367 1 0.598979 0.793984 0.433424
368 1 0.870369 0.553335 0.0712132
369 2 0.715129 0.322087 0.24459
370 2 0.453617 0.600563 0.244068
371 2 0.897056 0.124452 0.494971
372 1 0.948095 0.309709 0.482023
373 2 0.21474 0.870331 0.77992
374 2 0.439263 0.742011 0.257766
375 2 0.255506 0.530373 0.920823
376 2 0.239827 0.0405762 0.818318
377 2 0.684874 0.629577 0.842308
378 2 0.0907996 0.577578 0.877008
379 2 0.61094 0.30481 0.504083
380 2 0.580694 0.788489 0.357757
381 2 0.656235 0.708456 0.348455
382 2 0.269002 0.25245 0.373346
383 2 0.569915 0.168529 0.952424
384 1 0.631369 0.933202 0.103488
385 2 0.428154 0.424598 0.441449
386 2 0.590039 0.368661 0.482441
387 1 0.774312 0.1643 0.897551
388 2 0.649436 0.656538 0.287893
389 2 0.981109 0.579655 0.334869
390 2 0.650973 0.270011 0.890272
391 2 0.950745 0.175157 0.393564
392 1 0.502117 0.485265 0.762154
393 2 0.607181 0.477746 0.783903
394 2 0.566829 0.876595 0.501902
395 2 0.846813 0.773364 0.730559
396 2 0.652244 0.021282 0.268483
397 2 0.251756 0.0823238 0.280718
398 1 0.865815 0.880565 0.0184575
399 1 0.695246 0.124503 0.638111
400 1 0.838375 0.192273 0.106303
401 2 0.322487 0.701803 0.010736
402 2 0.335767 0.319563 0.839458
403 2 0.10402 0.964139 0.579069
404 2 0.877389 0.56457 0.991032
405 2 0.562082 0.488139 0.359823
406 2 0.430117 0.242469 0.266573
407 2 0.779969 0.96297 0.426673
408 2 0.246206 0.471736 0.98182
409 2 0.133528 0.477309 0.391033
410 2 0.918815 0.89765 0.579953
411 2 0.153906 0.967983 0.042322
412 2 0.351131 0.852632 0.330291
413 2 0.49504 0.689411 0.427623
414 2 0.958785 0.447636 0.765467
415 2 0.381839 0.434232 0.425794
416 1 0.542402 0.64313 0.621455
417 2 0.614881 0.841217 0.315141
418 2 0.950966 0.00623352 0.526117
419 2 0.993368 0.0953659 0.683976
420 2 0.695661 0.482539 0.644688
421 1 0.579433 0.543592 0.543454
422 1 0.207907 0.711529 0.482908
423 2 0.328323 0.415637 0.51723
424 2 0.722351 0.382766 0.292442
425 1 0.43467 0.536336 0.368031
426 2 0.118955 0.687965 0.219375
427 2 0.251856 0.730202 0.760654
428 2 0.401126 0.666989 0.968111
429 2 0.993074 0.192831 0.353173
430 2 0.245012 0.942311 0.0251668
431 2 0.482359 0.222835 0.296632
432 1 0.502696 0.428687 0.0884999
433 2 0.450913 0.477044 0.118112
434 1 0.459225 0.575797 0.576571
435 2 0.280605 0.369338 0.286902
436 2 0.546366 0.882706 0.46125
437 2 0.446252 0.92775 0.486047
438 2 0.0487976 0.186422 0.202331
439 1 0.55539 0.800538 0.395249
440 2 0.377026 0.12283 0.0923847
441 1 0.819974 0.472649 0.591609
442 1 0.480344 0.864414 0.113263
443 1 0.444679 0.869215 0.885738
444 2 0.0396687 0.787506 0.15788
445 2 0.952582 0.357327 0.433471
446 2 0.898153 0.932097 0.683769
447 2 0.484992 0.720003 0.565683
448 2 0.518494 0.609671 0.210628
449 1 0.717242 0.0389149 0.664653
450 2 0.655096 0.703267 0.644624
451 2 0.399711 0.29032 0.29885
452 2 0.174813 0.646231 0.2073
453 1 0.906133 0.25177 0.0809311
454 2 0.496764 0.397284 0.935659
455 2 0.859543 0.921142 0.550975
456 2 0.083355 0.00238943 0.701498
457 2 0.55445 0.866547 0.054423
458 2 0.7005 0.603636 0.873797
459 2 0.135609 0.633898 0.394437
460 2 0.224484 0.376481 0.122909
461 2 0.246828 0.656884 0.700425
462 2 0.637147 0.0920339 0.577666
463 1 0.303808 0.482896 0.730524
464 2 0.598315 0.573595 0.213243
465 2 0.889715 0.227763 0.63098
466 2 0.628953 0.203624 0.511649
467 1 0.591219 0.093017 0.341401
468 2 0.999391 0.7786 0.317228
469 2 0.519941 0.481585 0.920646
470 2 0.55218 0.623177 0.00289622
471 2 0.00724284 0.652447 0.188875
472 2 0.0146977 0.392799 0.805726
473 1 0.249652 0.530298 0.607268
474 1 0.0935315 0.0859366 0.576221
475 1 0.346368 0.678898 0.912268
476 2 0.652852 0.106276 0.320308
477 2 0.860649 0.911622 0.201126
478 2 0.558932 0.00729269 0.0289507
479 2 0.598816 0.0100539 0.881642
480 2 0.0786864 0.711163 0.704494
481 2 0.202473 0.581319 0.695164
482 2 0.171114 0.679044 0.229278
483 2 0.885989 0.426806 0.925956
484 1 0.726226 0.330849 0.483213
485 1 0.696126 0.168288 0.795326
486 2 0.713845 0.637459 0.745052
487 2 0.767916 0.38039 0.00252937
488 2 0.459274 0.680888 0.309803
489 2 0.675508 0.314066 0.171634
490 2 0.079961 0.0766197 0.733106
491 2 0.700439 0.708873 0.223839
492 2 0.0893377 0.789046 0.690545
493 2 0.952885 0.687818 0.676002
494 2 0.29482 0.960093 0.942749
495 2 0.747806 0.251244 0.242742
496 2 0.629633 0.784608 0.365734
497 2 0.673394 0.229548 0.330359
498 1 0.530491 0.844338 0.549843
499 2 0.483617 0.533519 0.135496
500 2 0.913932 0.714412 0.333458
501 1 0.535633 0.898702 0.00505116
502 2 0.126338 0.434545 0.374188
503 2 0.572095 0.0863949 0.851179
504 1 0.809271 0.0390945 0.89019
505 2 0.334445 0.598062 0.273813
506 2 0.492635 0.262732 0.338365
507 2 0.342435 0.963279 0.419917
508 2 0.164576 0.179217 0.951965
509 1 0.925053 0.332815 0.536775
510 2 0.646756 0.650057 0.949798
511 2 0.373031 0.954036 0.527502
512 2 0.627485 0.127917 0.0622688
513 1 0.925207 0.198889 0.494029
514 2 0.622462 0.328174 0.640621
515 1 0.690832 0.41706 0.600406
516 2 0.0757508 0.999461 0.105089
517 1 0.907819 0.312782 0.681846
518 2 0.589808 0.52339 0.374887
519 2 0.306394 0.26158 0.469898
520 2 0.264954 0.00842902 0.371255
521 2 0.332117 0.174933 0.439099
522 2 0.391796 0.670345 0.145266
523 2 0.707444 0.149611 0.568908
524 2 0.556578 0.388032 0.774647
525 2 0.218038 0.813011 0.177851
526 2 0.813524 0.0961697 0.882438
527 2 0.536312 0.902116 0.534607
528 1 0.415694 0.582524 0.139726
529 2 0.0197348 0.885371 0.11595
530 2 0.59496 0.947058 0.320188
531 2 0.99734 0.822115 0.271556
532 2 0.540239 0.0365325 0.340017
533 2 0.207187 0.560485 0.301713
534 1 0.14274 0.837932 0.960096
535 2 0.841302 0.258296 0.702784
536 1 0.205072 0.787992 0.933172
537 1 0.914267 0.49789 0.29331
538 2 0.162795 0.914085 0.664976
539 2 0.336672 0.00806268 0.733761
540 2 0.663689 0.132294 0.594485
541 1 0.538654 0.581985 0.648833
542 2 0.271356 0.611416 0.740199
543 1 0.763209 0.811455 0.0409671
544 1 0.552813 0.772219 0.968733
545 2 0.865631 0.0704433 0.85971
546 2 0.767167 0.968822 0.634251
547 2 0.393613 0.697713 0.464667
548 2 0.879057 0.274596 0.65994
549 2 0.741286 0.550512 0.917203
550 2 0.464033 0.440773 0.16831
551 1 0.658771 0.296428 0.337289
552 2 0.848241 0.28762 0.0210099
553 2 0.309257 0.0988174 0.297255
554 2 0.33384 0.3048 0.743359
555 1 0.875194 0.176325 0.985531
556 2 0.443661 0.422748 0.470754
557 2 0.111736 0.637475 0.89206
558 1 0.637484 0.12198 0.277799
559 2 0.287767 0.327204 0.533988
560 2 0.299972 0.5541 0.390724
561 2 0.32793 0.351445 0.431164
562 1 0.544988 0.44746 0.883029
563 2 0.278916 0.170436 0.527284
564 2 0.89142 0.258099 0.319077
565 2 0.465465 0.355527 0.164421
566 2 0.842551 0.760659 0.0405537
567 2 0.362826 0.976782 0.778825
568 2 0.396738 0.645411 0.831932
569 1 0.0326764 0.520004 0.245681
570 2 0.523366 0.168264 0.434783
571 2 0.96918 0.808595 0.0213421
572 2 0.670692 0.209363 0.517662
573 2 0.842828 0.597492 0.396795
574 2 0.405294 0.956979 0.76981
575 1 0.940413 0.178246 0.207782
576 2 0.125773 0.995659 0.187545
577 2 0.86858 0.819761 0.616483
578 1 0.48967 0.295666 0.589298
579 2 0.0776977 0.569896 0.842247
580 1 0.341454 0.649537 0.865662
581 2 0.7304 0.0821383 0.0340116
582 2 0.441973 0.40431 0.831745
583 1 0.49201 0.549166 0.640908
584 2 0.220786 0.998323 0.302276
585 1 0.747691 0.0864257 0.314872
586 2 0.0142591 0.383266 0.863779
587 2 0.212602 0.599805 0.941153
588 2 0.638508 0.0423352 0.722916
589 1 0.905272 0.465193 0.976741
590 1 0.827654 0.200315 0.159799
591 1 0.755556 0.409614 0.582483
592 2 0.121878 0.0251444 0.805998
593 2 0.328285 0.409383 0.337293
594 1 0.658197 0.447839 0.783077
595 1 0.901926 0.132492 0.841811
596 2 0.0781231 0.132502 0.0644915
597 1 0.543717 0.0924607 0.300229
598 2 0.588132 0.158464 0.000630439
599 2 0.645043 0.330373 0.509846
600 2 0.514714 0.898031 0.49172
601 2 0.212203 0.0440977 0.450884
602 1 0.629031 0.203649 0.0704989
603 2 0.897439 0.0956063 0.459093
604 1 0.0976917 0.547092 0.9945
605 2 0.263801 0.781678 0.487526
606 2 0.259356 0.296369 0.931189
607 1 0.514694 0.796879 0.839158
608 2 0.585756 0.223422 0.26231
609 2 0.0604422 0.232837 0.549563
610 2 0.801159 0.423579 0.160932
611 2 0.347832 0.433093 0.737193
612 1 0.723509 0.987467 0.86193
613 2 0.60835 0.849014 0.399393
614 1 0.586325 0.0652237 0.519296
615 2 0.338636 0.508374 0.776157
616 1 0.12648 0.809183 0.740367
617 2 0.272055 0.447377 0.559185
618 2 0.637349 0.00357494 0.842134
619 2 0.521833 0.0452308 0.798091
620 2 0.689609 0.0516429 0.925366
621 2 0.414702 0.946326 0.721618
622 2 0.741842 0.354969 0.798031
623 1 0.477666 0.906666 0.457359
624 2 0.195204 0.608147 0.6781
625 2 0.517738 0.222005 0.202567
626 2 0.414475 0.230923 0.973085
627 2 0.552635 0.949847 0.44734
628 2 0.862332 0.0971869 0.841859
629 2 0.303114 0.261201 0.69806
630 1 0.226608 0.364817 0.881996
631 2 0.0706144 0.929325 0.649328
632 2 0.000611619 0.561533 0.598953
633 2 0.475408 0.541524 0.571874
634 2 0.683367 0.5186 0.422235
635 2 0.154781 0.60236 0.897051
636 2 0.412319 0.652078 0.749724
637 2 0.668299 0.559604 0.582603
638 1 0.116191 0.290168 0.0800559
639 2 0.905929 0.565306 0.226598
640 2 0.292221 0.347785 0.806237
641 2 0.0364693 0.539198 0.350002
642 2 0.696441 0.569685 0.881629
643 2 0.520252 0.521747 0.183993
644 2 0.133724 0.267199 0.881807
645 1 0.724983 0.921999 0.244044
646 2 0.849186 0.257942 0.653436
647 1 0.385885 0.244473 0.694331
648 2 0.673878 0.431353 0.837764
649 2 0.203431 0.804819 0.132901
650 2 0.581695 0.89828 0.368188
651 2 0.59888 0.679903 0.981625
652 2 0.416941 0.00353749 0.216977
653 2 0.551316 0.925601 0.970747
654 1 0.426363 0.531589 0.289458
655 2 0.0180626 0.119869 0.42985
656 2 0.219726 0.00232145 0.351823
657 2 0.304436 0.395963 0.308511
658 2 0.0425531 0.916513 0.0915397
659 2 0.588617 0.515209 0.93871
660 2 0.106926 0.13212 0.152321
661 1 0.709721 0.390921 0.645694
662 2 0.356824 0.426013 0.494799
663 2 0.0858536 0.077647 0.620258
664 1 0.965929 0.374858 0.523413
665 2 0.545746 0.294317 0.155694
666 2 0.459988 0.730712 0.471316
667 2 0.642076 0.252707 0.734351
668 2 0.512681 0.22658 0.35738
669 2 0.960875 0.202173 0.244847
670 1 0.632516 0.376967 0.557282
671 2 0.0937001 0.672649 0.00819899
672 1 0.603347 0.824573 0.483267
673 2 0.558645 0.0215499 0.215585
674 2 0.56888 0.118386 0.574163
675 2 0.31926 0.802803 0.537617
676 1 0.174323 0.839799 0.538886
677 2 0.897062 0.150528 0.11962
678 2 0.0304895 0.0537949 0.632457
679 1 0.138146 0.724967 0.525111
680 2 0.866368 0.869143 0.253476
681 1 0.487703 0.324652 0.863619
682 1 0.193056 0.724626 0.0360905
683 2 0.121415 0.881686 0.325801
684 2 0.00828923 0.982037 0.588075
685 2 0.247812 0.590552 0.569758
686 2 0.566804 0.837398 0.376283
687 1 0.00581151 0.36679 0.788754
688 2 0.12071 0.109674 0.104846
689 2 0.87063 0.210375 0.288556
690 2 0.495774 0.926587 0.546969
691 2 0.754786 0.227093 0.857904
692 1 0.389793 0.464919 0.411836
693 2 0.917214 0.258917 0.668309
694 2 0.689644 0.426948 0.253601
695 1 0.893541 0.0680067 0.0521085
696 2 0.121155 0.704504 0.304315
697 2 0.986677 0.125957 0.171893
698 2 0.686515 0.697083 0.87142
699 2 0.0588017 0.953076 0.646812
700 1 0.354287 0.593498 0.639976
701 2 0.97481 0.0786503 0.397303
702 2 0.268372 0.509279 0.0208482
703 2 0.700807 0.0457148 0.717582
704 2 0.2076 0.657155 0.700499
705 2 0.315735 0.848601 0.61207
706 2 0.486322 0.920629 0.495139
707 2 0.517597 0.503112 0.53269
708 1 0.360674 0.133322 0.656192
709 2 0.602439 0.829186 0.342932
710 2 0.370781 0.542968 0.414722
711 2 0.515268 0.85756 0.224931
712 1 0.977777 0.182608 0.0976938
713 2 0.732872 0.268098 0.481321
714 1 0.627227 0.0913867 0.92878
715 2 0.156566 0.865112 0.998317
716 1 0.570528 0.656654 0.566288
717 2 0.427098 0.324633 0.370418
718 2 0.0328217 0.8135 0.673441
719 2 0.573973 0.402189 0.720807
720 2 0.91626 0.360009 0.67362
721 2 0.800031 0.802381 0.763926
722 1 0.268601 0.739473 0.711676
723 2 0.35543 0.710413 0.273407
724 2 0.808026 0.746768 0.0136156
725 2 0.416289 0.200044 0.845811
726 2 0.352851 0.0706498 0.816212
727 1 0.201848 0.44147 0.637978
728 1 0.881203 0.723977 0.51531
729 1 0.686768 0.251569 0.803092
730 1 0.757561 0.706496 0.273556
731 2 0.525265 0.488009 0.425436
732 1 0.708083 0.102802 0.574288
733 2 0.814074 0.473052 0.849224
734 2 0.28504 0.671226 0.87086
735 2 1.00118 0.449073 0.091118
736 1 0.384168 0.595053 0.696494
737 2 0.139455 0.0304273 0.984318
738 2 0.620515 0.0343306 0.0043274
739 2 0.579527 0.405534 0.138194
740 2 0.391116 0.907822 0.466447
741 2 0.258651 0.37334 0.480299
742 1 0.987098 0.769625 0.148351
743 2 0.626286 0.715925 0.0255831
744 2 0.383479 0.255606 0.0562507
745 2 0.391344 0.38929 0.474467
746 1 0.611906 0.360733 0.812535
747 2 0.599332 0.906877 0.529749
748 2 0.634393 0.758937 0.307583
749 2 0.570418 0.853368 0.283483
750 2 0.619226 0.255193 0.263522
751 2 0.615554 0.13874 0.561561
752 2 0.602474 0.49319 0.531144
753 2 0.856819 0.429423 0.626966
754 2 0.529644 0.577195 0.91846
755 2 0.186636 0.341024 0.406935
756 2 0.464081 0.383056 0.533985
757 2 0.573636 0.290198 0.24374
758 2 0.863859 0.55912 0.294224
759 2 0.0911789 0.394838 0.159642
760 1 0.440374 0.106506 0.63936
761 2 0.335083 0.136313 0.0555128
762 2 0.0807532 0.138506 0.00191452
763 1 0.694551 0.238509 0.880765
764 2 0.422383 0.106455 1.00066
765 2 0.648608 0.886904 0.420939
766 2 0.558972 0.769101 0.831335
767 2 0.363917 0.379141 0.516405
768 2 0.312272 0.636773 0.270965
769 2 0.730475 0.455376 0.582024
770 2 0.0877292 0.78802 0.970782
771 2 0.828643 0.85649 0.847155
772 2 0.605762 0.908371 0.359434
773 1 0.0475845 0.764581 0.730868
774 2 0.715157 0.604554 0.901651
775 2 0.664764 0.953986 0.75768
776 2 0.442702 0.529978 0.177134
777 1 0.684237 0.0724963 0.87245
778 2 0.154006 0.110015 0.44248
779 2 0.216001 0.231727 0.329032
780 1 0.162692 0.660782 0.0996937
781 2 0.321379 0.359321 0.282321
782 2 0.473191 0.245951 0.93366
783 1 0.585374 0.738351 0.619147
784 2 0.480504 0.882711 0.531447
785 2 0.575571 0.754236 0.543461
786 1 0.128289 0.513816 0.600266
787 2 0.227253 0.711105 0.347962
788 2 0.960682 0.527408 0.953585
789 2 0.954027 0.160587 0.99239
790 2 0.489173 0.312921 0.32835
791 1 0.128287 0.742999 0.219057
792 2 0.171152 0.120644 0.529053
793 2 0.79836 0.403535 0.611592
794 2 0.729213 0.629882 0.775289
795 2 0.789247 0.758365 0.311711
796 2 0.210092 0.0657029 0.346222
797 2 0.288366 0.984561 0.827463
798 2 0.443292 0.960258 0.496134
799 2 0.00963523 0.597716 0.669906
800 2 0.810741 0.316097 0.9755
801 2 0.567288 0.795166 0.465849
802 2 0.65451 0.590265 0.89937
803 2 0.117922 0.388151 0.181871
804 2 0.580963 0.390365 0.781494
805 2 0.348643 0.076297 0.500195
806 1 0.525788 0.74527 0.482288
807 2 0.759159 0.394006 0.454638
808 2 0.169401 0.474821 0.278786
809 1 0.0640827 0.505476 0.343537
810 2 0.409234 0.0760398 0.327434
811 2 0.506838 0.23693 0.531709
812 2 0.53727 0.423326 0.564364
813 1 0.621218 0.272218 0.83284
814 2 0.861819 0.200977 0.772802
815 2 0.153341 0.233673 0.109133
816 1 0.702186 0.749038 0.284971
817 1 0.465025 0.385797 0.647663
818 2 0.857465 0.328551 0.888294
819 1 0.862166 0.664317 0.152353
820 1 0.542218 0.70538 0.44173
821 2 0.428066 0.6541 0.0168521
822 2 0.434901 0.525785 0.564238
823 1 0.638074 0.360567 0.976619
824 2 0.562684 0.34554 0.102942
825 2 0.917833 0.262763 0.449171
826 2 0.375494 0.562685 0.742419
827 1 0.393088 0.754032 0.655452
828 2 0.687294 0.821799 0.928094
829 2 0.752866 0.940527 0.388601
830 2 0.394214 0.989031 0.297628
831 1 0.536854 0.392577 0.200239
832 2 0.488788 0.369332 0.0471468
833 1 0.529521 0.320804 0.699578
834 2 0.606744 0.694943 0.478949
835 2 0.712511 0.0504215 0.181348
836 2 0.868368 0.893026 0.906443
837 2 0.562426 0.899566 0.477713
838 2 0.97678 0.958515 0.531955
839 2 0.854862 0.330296 0.767139
840 2 0.589321 0.414238 0.603271
841 2 0.598269 0.605763 0.677348
842 2 0.642457 0.303042 0.897776
843 2 0.00570823 0.693866 0.187591
844 2 0.0906747 0.600504 0.784436
845 2 0.931408 0.592043 0.190582
846 2 0.608755 0.410841 0.789358
847 2 0.419369 0.955897 0.806503
848 2 0.862906 0.337262 0.62556
849 1 0.606969 0.0228296 0.826184
850 2 0.267475 0.366376 0.766731
851 2 0.0275635 0.166875 0.445208
852 2 0.112217 0.176622 0.309456
853 1 0.0382261 0.501142 0.958587
854 2 0.196795 0.0399368 0.232095
855 2 0.853513 0.335962 0.313182
856 2 0.385252 0.906895 0.805786
857 2 0.282248 0.820117 0.645161
858 2 0.194372 0.332105 0.529089
859 2 0.844695 0.8682 0.509683
860 2 0.802732 0.478826 0.175771
861 2 0.710304 0.11535 0.695549
862 2 0.125217 0.0582301 0.138313
863 2 0.436749 0.376246 0.668461
864 2 0.577667 0.260784 0.406019
865 2 0.122079 0.740907 0.568552
866 2 0.256364 0.861418 0.728331
867 2 0.295677 0.866682 0.474999
868 2 0.305617 0.887106 0.568297
869 2 0.63779 0.689641 0.796393
870 2 0.352055 0.705159 0.851787
871 2 0.0511059 0.926285 0.993899
872 2 0.505089 0.0566302 0.561182
873 2 0.940059 0.150507 0.290133
874 2 0.856098 0.110752 0.304805
875 2 0.825556 0.17054 0.514122
876 2 0.575226 0.095597 0.0335938
877 2 0.91241 0.480832 0.34583
878 2 0.425312 0.901573 0.478341
879 2 0.210095 0.67884 0.625189
880 2 0.455886 0.654825 0.454845
881 2 0.33177 0.578821 0.746877
882 1 0.292447 0.430827 0.685672
883 1 0.0940381 0.881069 0.367413
884 2 0.918673 0.921814 0.677783
885 2 0.775722 0.556747 0.773588
886 2 0.835776 0.777825 0.0643553
887 1 0.561859 0.882277 0.0871768
888 2 0.706133 0.579506 0.736772
889 2 0.120278 0.730017 0.912405
890 1 0.730187 0.571253 0.796455
891 2 0.472667 0.662115 0.527609
892 2 0.335535 0.975998 0.316829
893 2 0.575839 0.311181 0.405097
894 2 0.0812508 0.871882 0.988581
895 1 0.488672 0.65394 0.602971
896 2 0.475812 0.91759 0.981832
897 2 0.213567 0.543019 0.177163
898 2 0.0356378 0.894585 0.382647
899 2 0.232714 0.955289 0.128009
900 2 0.416014 0.987945 0.802167
901 2 0.935482 0.231606 0.308434
902 2 0.541387 0.193764 0.882953