ITEM: TIMESTEP
16800
ITEM: NUMBER OF ATOMS
1000
ITEM: BOX BOUNDS xy xz yz pp pp pp
0.0000000000000000e+00 1.3572088000000001e+01 0.0000000000000000e+00
0.0000000000000000e+00 1.3572088000000001e+01 0.0000000000000000e+00
0.0000000000000000e+00 1.3572088000000001e+01 0.0000000000000000e+00
ITEM: ATOMS id type xs ys zs
1 2 0.829669 0.828571 0.967618
2 2 0.903512 0.742785 0.858777
3 1 0.572249 0.887455 0.719996
4 2 0.694451 0.526302 0.983845
5 2 0.52324 0.482873 0.38276
6 1 0.465924 0.0296188 0.266678
7 2 0.500808 0.929563 0.179731
8 2 0.632364 0.807859 0.245348
9 2 0.197999 0.907592 0.432282
10 2 0.11411 0.51212 0.717964
11 2 0.0633136 0.945529 0.771508
12 2 0.565125 0.690573 0.318515
13 2 0.614583 0.796938 0.116305
14 1 0.700627 0.880469 0.898317
15 2 0.180755 0.174423 0.274266
16 2 0.0668584 0.782975 0.0449883
17 1 0.128494 0.724735 0.715669
18 2 0.518122 0.157686 0.804546
19 2 0.0992007 0.884617 0.0448168
20 2 0.436362 0.621886 0.601143
21 2 0.247915 0.451744 0.311598
22 2 0.751669 0.688943 0.177448
23 2 0.893216 0.570842 0.670763
24 2 0.963315 0.60923 0.209066
25 1 0.739573 0.501107 0.314492
26 2 0.580907 0.618869 0.632996
27 2 0.79028 0.412424 0.600083
28 2 0.135755 0.263115 0.772612
29 2 0.160002 0.584304 0.233752
30 2 0.878012 0.632016 0.778293
31 1 0.12478 0.248225 0.643355
32 1 0.312629 0.55391 0.279844
33 1 0.222648 0.211554 0.909092
34 2 0.202646 0.6515 0.982024
35 2 0.878994 0.94699 0.007107
36 1 0.86965 0.908721 0.988027
37 2 0.764614 0.615562 0.87957
38 2 0.545245 0.402313 0.108832
39 2 0.173503 0.572829 0.307628
40 2 0.0693066 0.660788 0.241433
41 2 0.146926 0.171011 0.171814
42 2 0.638271 0.190363 0.0625834
43 2 0.995067 0.162503 0.278523
44 2 0.796615 0.438259 0.234029
45 2 0.389487 0.53654 0.593235
46 1 0.985442 0.763955 0.839977
47 2 0.757551 0.820398 0.3752
48 2 0.513147 0.00229021 0.924575
49 2 0.587738 0.340656 0.788266
50 2 0.716745 0.757989 0.231586
51 2 0.655126 0.202446 0.514878
52 2 0.449779 0.724577 0.835196
53 2 0.490082 0.350995 0.466929
54 2 0.708088 0.56283 0.216036
55 1 0.818178 0.658556 0.936644
56 1 0.676962 0.833548 0.1745
57 2 0.316188 0.590604 0.755203
58 2 0.0286074 0.204856 0.0528409
59 2 0.171846 0.792794 0.764649
60 2 0.177654 0.658818 0.830064
61 2 0.815743 0.139868 0.205063
62 2 0.747534 0.209214 0.564644
63 2 0.443837 0.949945 0.55933
64 2 0.286415 0.483705 0.647172
65 2 0.244808 0.546687 0.720638
66 1 0.846974 0.281789 0.265031
67 2 0.559214 0.974742 0.215927
68 2 0.166523 0.928 0.093128
69 1 0.822192 0.323697 0.772159
70 2 0.411595 0.782694 0.514318
71 1 0.712089 0.198704 0.548015
72 2 0.933237 0.11998 0.938501
73 2 0.502437 0.788205 0.440396
74 2 0.858247 0.219739 0.919847
75 2 0.886181 0.0777951 0.552289
76 2 0.921551 0.243367 0.411847
77 1 0.590194 0.796551 0.21264
78 2 0.00944165 0.0285449 0.260762
79 2 0.267815 0.99012 0.935429
80 2 0.0913347 0.0437258 0.168997
81 2 0.962111 0.0604244 0.773213
82 2 0.369204 0.156413 0.480996
83 2 0.880007 0.414422 0.247436
84 2 0.182095 0.146682 0.345307
85 1 0.40469 0.381205 0.22373
86 2 0.0553112 0.874381 0.259402
87 2 0.359923 0.646883 0.537383
88 2 0.975371 0.418341 0.296766
89 2 0.89895 0.662821 0.835075
90 2 0.604063 0.850969 0.30696
91 2 0.165915 0.342844 0.528187
92 2 0.0447258 0.5484 0.347549
93 2 0.239098 0.21774 0.604432
94 1 0.262335 0.872406 0.785048
95 2 0.112831 0.0467813 0.422677
96 2 0.657415 0.15189 0.809037
97 2 0.553483 0.271346 0.652079
98 2 0.247346 0.00441828 0.178659
99 2 0.938103 0.804232 0.423198
100 2 0.661781 0.00218018 0.227089
101 1 0.932064 0.161578 0.0205596
102 2 0.920949 0.360792 0.770157
103 2 0.640726 0.653087 0.844794
104 2 0.297125 0.418528 0.340983
105 2 0.647957 0.517187 0.77038
106 2 0.331792 0.538442 0.341379
107 2 0.579787 0.906631 0.562877
108 2 0.444202 0.18834 0.871334
109 2 0.043908 0.763524 0.539825
110 2 0.696604 0.146949 0.0319817
111 2 0.174357 0.307294 0.28298
112 1 0.0939185 0.0847895 0.3332
113 1 0.923489 0.51099 0.558552
114 2 0.429541 0.894416 0.884854
115 2 0.850818 0.726365 0.000867123
116 2 0.380458 0.464757 0.521346
117 2 0.63931 0.49366 0.207295
118 2 0.289784 0.333889 0.94855
119 2 0.253389 0.971719 0.982125
120 2 0.300448 0.0277243 0.113196
121 2 0.206071 0.23391 0.934423
122 2 0.742755 0.624188 0.269585
123 2 0.185676 0.279544 0.145981
124 2 0.952343 0.188022 0.875839
125 1 0.0440195 0.198379 0.991219
126 2 0.690396 0.851933 0.437483
127 2 0.392791 0.512808 0.458296
128 2 0.158781 0.142425 0.010396
129 1 0.917734 0.70506 0.838521
130 2 0.425734 0.508213 0.926824
131 2 0.449325 0.0610899 0.637882
132 2 0.120842 0.875869 0.808002
133 2 0.473453 0.550065 0.0722228
134 2 0.984109 0.76872 0.685368
135 2 0.872623 0.156997 0.364825
136 2 0.534103 0.939164 0.988682
137 1 0.78425 0.733952 0.504956
138 2 0.962124 0.0136677 0.151649
139 2 0.0685595 0.240232 0.50894
140 1 0.355663 0.805961 0.514387
141 2 0.814257 0.227456 0.145481
142 2 0.938341 0.904978 0.94351
143 2 0.35185 0.777482 0.38797
144 2 0.0010532 0.781084 0.0545013
145 2 0.749548 0.385592 0.981422
146 2 0.92001 0.624448 0.877538
147 1 0.856402 0.604489 0.695066
148 1 0.927939 0.861541 0.994853
149 2 0.953929 0.670859 0.858428
150 1 0.551717 0.540369 0.650158
151 2 0.375476 0.288983 0.771519
152 2 0.390665 0.703837 0.533662
153 1 0.580934 0.931451 0.592385
154 1 0.157016 0.798112 0.293975
155 2 0.599583 0.980148 0.562449
156 2 0.450416 0.148214 0.0449519
157 2 0.315688 0.882945 0.0105904
158 2 0.765816 0.154769 0.509808
159 2 0.460334 0.815774 0.863057
160 2 0.929925 0.297626 0.46362
161 2 0.926966 0.562938 0.207479
162 2 0.0459848 0.612022 0.967217
163 2 0.493168 0.0391457 0.317525
164 2 0.470449 0.136776 0.57461
165 2 0.831332 0.568358 0.202532
166 2 0.725884 0.512355 0.871875
167 2 0.452314 0.0475365 0.457521
168 2 0.478743 0.0544723 0.577642
169 2 0.471913 0.572333 0.788723
170 2 0.639099 0.937677 0.613866
171 2 0.649366 0.335656 0.973488
172 2 0.332519 0.844261 0.212006
173 1 0.843932 0.038735 0.699832
174 2 0.27803 0.927726 0.484857
175 2 0.881876 0.949169 0.321927
176 2 0.425309 0.871833 0.255221
177 1 0.546922 0.964391 0.4627
178 2 0.479939 0.113642 0.522155
179 2 1.00039 0.598464 0.857407
180 2 0.589719 0.949829 0.460957
181 2 0.180258 0.460322 0.98443
182 2 0.970999 0.641405 0.516019
183 2 0.675371 0.808885 0.740429
184 2 0.724491 0.738586 0.0926088
185 2 0.17058 0.635345 0.700526
186 2 0.628429 0.69187 0.609151
187 2 0.474131 0.465679 0.136616
188 1 0.630168 0.28542 0.558585
189 2 0.363914 0.689747 0.637328
190 2 0.538846 0.454587 0.681167
191 2 0.75198 0.767629 0.102267
192 2 0.855922 0.546959 0.79636
193 2 0.586509 0.193469 0.238838
194 2 0.618824 0.285867 0.413321
195 2 0.504393 0.0936629 0.553476
196 2 0.267798 0.441743 0.880184
197 2 0.67018 0.275514 0.333635
198 2 0.221831 0.53234 0.964325
199 2 0.177985 0.162399 0.306075
200 1 0.526887 0.00560048 0.595595
201 2 0.555447 0.488573 0.880126
202 2 0.333842 0.590845 0.353882
203 2 0.860007 0.521161 0.647783
204 2 0.630892 0.338045 0.444452
205 2 0.777351 0.625286 0.657719
206 2 0.749078 0.336006 0.427481
207 2 0.823944 0.546485 0.0823951
208 2 0.36854 0.452212 0.657005
209 2 0.965736 0.734909 0.561069
210 2 0.846249 0.990839 0.388041
211 2 0.635742 0.657139 0.0855601
212 1 0.672093 0.247961 0.292123
213 2 0.0149087 0.600633 0.606616
214 2 0.650594 0.852752 0.941491
215 2 0.69374 0.699586 0.876073
216 2 0.904928 0.558557 0.863728
217 2 0.215737 0.679234 0.324333
218 2 0.811946 0.584159 0.373212
219 2 0.0504775 0.63562 0.940711
220 2 0.906248 0.415294 0.942383
221 2 0.344758 0.240806 0.246644
222 2 0.0315063 0.576902 0.409507
223 2 0.436771 0.838142 0.739911
224 2 0.76483 0.365058 0.0548438
225 1 0.0996745 0.386351 0.570842
226 2 0.497436 0.279225 0.0547554
227 2 0.50731 0.372719 0.48235
228 2 0.210975 0.53118 0.907011
229 2 0.104027 0.982453 0.799791
230 1 0.417663 0.52014 0.796241
231 2 0.621221 0.685353 0.247632
232 2 0.578994 0.727726 0.671231
233 1 0.298623 0.0332214 0.212438
234 2 0.979006 0.100118 0.233229
235 2 0.707618 0.45442 0.606001
236 2 0.571145 0.830537 0.181908
237 2 0.513007 0.827058 0.937167
238 1 0.692517 0.117997 0.459816
239 1 0.647446 0.311759 0.186921
240 2 0.00486346 0.361187 0.921702
241 2 0.773157 0.158959 0.428986
242 1 0.47898 0.0766262 0.504339
243 1 0.852631 0.727128 0.465175
244 2 0.48462 0.95589 0.679462
245 2 0.646829 0.77347 0.975252
246 1 0.350518 0.507876 0.691638
247 2 0.423057 0.806479 0.937193
248 2 0.847842 0.408554 0.0646483
249 2 0.833452 0.54856 0.741211
250 2 0.561244 0.412224 0.286973
251 2 0.316419 0.496129 0.516724
252 2 0.622493 0.978392 0.451341
253 2 0.860171 0.20414 0.86917
254 2 0.192344 0.589896 0.196308
255 2 0.973282 0.0935561 0.883976
256 2 0.868534 0.301745 0.571568
257 2 0.92334 0.502603 0.452574
258 2 0.458079 0.383008 0.46441
259 1 0.0824674 0.0224972 0.515357
260 2 0.00983839 0.725251 0.703004
261 1 0.713485 0.905478 0.827493
262 2 0.736051 0.371776 0.691585
263 2 0.863041 0.565459 0.793105
264 2 0.861682 0.02841 0.505406
265 1 0.850768 0.341209 0.284013
266 2 0.961332 0.350704 0.749985
267 2 0.472558 0.797176 0.589586
268 1 0.00289364 0.554664 0.108211
269 1 0.251417 0.535605 0.341166
270 2 0.34849 0.59988 0.397698
271 2 0.740046 0.34465 0.523776
272 2 0.263304 0.281144 0.864118
273 1 0.512638 0.825668 0.33307
274 2 0.571039 0.739712 0.514694
275 2 0.715733 0.933439 0.187284
276 2 0.351124 0.527314 0.309352
277 2 0.0689044 0.70024 0.70264
278 2 0.169022 0.456709 0.677533
279 2 0.926537 0.514457 0.738609
280 1 0.92994 0.293162 0.351683
281 2 0.491412 0.142646 0.311831
282 2 0.719187 0.0253044 0.18992
283 2 0.575497 0.633753 0.67481
284 1 0.691357 0.752171 0.742848
285 2 0.358525 0.822259 0.386426
286 2 0.946011 0.0564889 0.616757
287 1 0.436722 0.917103 0.827057
288 2 0.457134 0.514193 0.238563
289 2 0.325625 0.53123 0.457233
290 2 0.03794 0.0417524 0.0578626
291 2 0.569684 0.444798 0.88695
292 2 0.0309328 0.202692 0.247155
293 2 0.616076 0.864943 0.830233
294 2 0.813324 0.593651 0.241224
295 2 0.1812 0.276128 0.751742
296 2 0.184726 0.978088 0.903255
297 2 0.755747 0.245329 0.739838
298 2 0.653217 0.96948 0.995824
299 1 0.127806 0.269225 0.325456
300 2 0.806442 0.482475 0.584875
301 2 0.839013 0.258678 0.482368
302 2 0.336099 0.323853 0.0740498
303 2 0.889719 0.220995 0.891902
304 1 0.362131 0.347511 0.124407
305 2 0.0757102 0.0105802 0.241504
306 2 0.476942 0.839101 0.83438
307 2 0.0247544 0.306783 0.0291771
308 2 0.365437 0.278173 0.427513
309 2 0.2947 0.134897 0.797975
310 2 0.859637 0.117534 0.565077
311 2 0.362542 0.292712 0.048865
312 2 0.968648 0.871597 0.406625
313 2 0.56975 0.490942 0.954171
314 2 0.313134 0.326519 0.0309069
315 2 0.503696 0.49289 0.304613
316 2 0.388833 0.808135 0.382445
317 2 0.138878 0.228032 0.91265
318 2 0.0347468 0.0793068 0.840025
319 2 0.670084 0.137309 0.845642
320 2 0.877763 0.0901107 0.111114
321 2 0.665676 0.520373 0.824907
322 2 0.597892 0.325137 0.470111
323 2 0.424763 0.0267078 0.374837
324 2 0.958532 0.897446 0.38709
325 2 0.387005 0.9569 0.228016
326 2 0.740588 0.0196005 0.470822
327 2 0.206232 0.841002 0.0925317
328 2 0.142291 0.586536 0.586619
329 1 0.0840303 0.585916 0.390535
330 2 0.971218 0.338976 0.487401
331 2 0.725726 0.694219 0.708482
332 2 0.759054 0.333946 0.0705726
333 2 0.215233 0.375077 0.186109
334 2 0.0434706 0.0603671 0.834534
335 1 0.655026 0.818634 0.123195
336 2 0.812045 0.842971 0.265936
337 2 0.296934 0.545766 0.214409
338 1 0.865253 0.368936 0.813564
339 2 0.784853 0.609221 0.981111
340 2 0.0763502 0.961423 0.524189
341 2 0.847544 0.252385 0.989241
342 2 0.154371 0.71103 0.786629
343 2 0.618874 0.118801 0.668829
344 1 0.433833 0.880182 0.417809
345 1 0.672023 0.951019 0.778816
346 1 0.688989 0.840393 0.799648
347 1 0.98248 0.53205 0.737425
348 2 0.797194 0.954057 0.647609
349 2 0.746782 0.766696 0.16504
350 2 0.195261 0.36088 0.534608
351 2 0.870633 0.261913 0.0066229
352 2 0.966383 0.26849 0.0951395
353 1 0.980254 0.523445 0.172709
354 1 0.491515 0.954484 0.881381
355 2 0.214543 0.2737 0.244895
356 2 0.416749 0.735397 0.0709137
357 2 0.521541 0.345577 0.781275
358 2 0.536448 0.77998 0.653763
359 2 0.739264 0.679523 0.96822
360 2 0.456606 0.549164 0.833345
361 1 0.417312 0.812099 0.0322785
362 2 0.0157243 0.130781 0.122366
363 1 0.214535 0.925722 0.860695
364 2 0.907598 0.408696 0.529855
365 2 0.456258 0.93104 0.546261
366 2 0.508126 0.98873 0.542403
367 1 0.546898 0.871927 0.663908
368 1 0.929467 0.0410721 0.982165
369 2 0.190268 0.299286 0.789387
370 2 0.520706 0.950624 0.525061
371 2 0.819662 0.727355 0.0474601
372 1 0.428095 0.343878 0.336714
373 2 0.960943 0.77145 0.638075
374 2 0.217897 0.164217 0.831993
375 2 0.621599 0.355653 0.306263
376 2 0.953625 0.550654 0.606325
377 2 0.865938 0.266209 0.837369
378 2 0.60268 0.782656 0.855759
379 2 0.761259 0.359082 0.416163
380 2 0.156241 0.839168 0.146283
381 2 0.55078 0.243401 0.605987
382 2 0.649481 0.678995 0.42835
383 2 0.400777 0.79351 0.545241
384 1 0.324701 0.651835 0.806634
385 2 0.734402 0.448432 0.699087
386 2 0.717058 0.272967 0.557501
387 1 0.731196 0.809952 0.117825
388 2 0.172111 0.965574 0.603427
389 2 0.804739 0.53458 0.664258
390 2 0.701332 0.20518 0.381546
391 2 0.813161 0.000817803 0.101769
392 1 0.717614 0.450435 0.732286
393 2 0.0294735 0.0225729 0.859007
394 2 0.612633 0.129786 0.299648
395 2 0.914493 0.115996 0.11766
396 2 0.558284 0.964012 0.349285
397 2 0.351669 0.764235 0.593403
398 1 0.186043 0.178145 0.119517
399 1 0.188663 0.17679 0.432254
400 1 0.694206 0.113004 0.335496
401 2 0.203545 0.213897 0.494481
402 2 0.831439 0.644097 0.884418
403 2 0.67835 0.0396308 0.288426
404 2 0.1282 0.653076 0.752951
405 2 0.478613 0.328112 0.291628
406 2 0.311291 0.338867 0.100891
407 2 0.661976 0.180203 0.407892
408 2 0.734725 0.0911476 0.650319
409 2 0.619296 0.229405 0.0963415
410 2 0.197205 0.0783748 0.0682662
411 2 0.837881 0.747277 0.197789
412 2 0.307053 0.234475 0.957714
413 2 0.343123 0.233997 0.161553
414 2 0.780701 0.689908 0.209023
415 2 0.679772 0.678013 0.0362212
416 1 0.334428 0.57997 0.700653
417 2 0.431113 0.837057 0.972571
418 2 0.477804 0.623131 0.639028
419 2 0.319535 0.78408 0.504591
420 2 0.373929 0.0979185 0.892126
421 1 0.708608 0.926736 0.959782
422 1 0.257024 0.944852 0.781293
423 2 0.442513 0.505807 0.214319
424 2 0.898843 0.60906 0.596222
425 1 0.226514 0.810266 0.602631
426 2 0.811187 0.679836 0.833321
427 2 0.898083 0.618708 0.425052
428 2 0.317266 0.608851 0.508314
429 2 0.758888 0.341759 0.619631
430 2 0.776043 0.0150063 0.672017
431 2 0.390936 0.69989 0.156909
432 1 0.634143 0.793993 0.017127
433 2 0.124737 0.325151 0.205402
434 1 0.497 0.89746 0.473697
435 2 0.0679565 0.0925212 0.0490282
436 2 0.665169 0.821665 0.0839849
437 2 0.75113 0.298104 0.725992
438 2 0.283595 0.355466 0.0558309
439 1 0.396058 0.916841 0.494743
440 2 0.0222941 0.189789 0.650103
441 1 0.630511 0.552862 0.195423
442 1 0.751552 0.205654 0.0501411
443 1 0.406303 0.494092 0.144824
444 2 0.246039 0.564734 0.638082
445 2 0.0706083 0.690561 0.9926
446 2 0.0887212 0.744172 0.714587
447 2 0.726672 0.682314 0.576827
448 2 0.332209 0.757143 0.295546
449 1 0.0450556 0.642079 0.814539
450 2 0.251447 0.0155551 0.0390907
451 2 0.471094 0.0469555 0.715067
452 2 0.286507 0.489447 0.281766
453 1 0.276629 0.0345234 0.534875
454 2 0.775094 0.675531 0.895698
455 2 0.501784 0.96924 0.432095
456 2 0.149102 0.161584 0.462178
457 2 0.251002 0.589223 0.071943
458 2 0.165164 0.209502 0.218803
459 2 0.842555 0.494701 0.616649
460 2 0.556062 0.127986 0.232709
461 2 0.927928 0.178504 0.888008
462 2 0.255488 0.681177 0.379627
463 1 0.392159 0.438044 0.622187
464 2 0.957425 0.607526 0.615227
465 2 0.724503 0.598128 0.0193647
466 2 0.0481409 0.722379 0.49461
467 1 0.387084 0.48682 0.248241
468 2 0.913927 0.579056 0.628545
469 2 0.110015 0.0713949 0.121323
470 2 0.170694 0.599934 0.845297
471 2 0.374732 0.200957 0.984395
472 2 0.680827 0.201543 0.881374
473 1 0.181905 0.620072 0.938358
474 1 0.062424 0.924354 0.718175
475 1 0.294993 0.55127 0.795207
476 2 0.990314 0.283574 0.0255424
477 2 0.717339 0.730007 0.356708
478 2 0.344517 0.806121 0.225866
479 2 0.866282 0.610719 0.898678
480 2 0.701505 0.535046 0.177987
481 2 0.286603 0.00789899 0.944021
482 2 0.284602 0.280974 0.907465
483 2 0.724958 0.499065 0.261598
484 1 0.652067 0.13585 0.383746
485 1 0.664842 0.963846 0.86637
486 2 0.814463 0.535611 0.964045
487 2 0.522167 0.601452 0.437764
488 2 0.221666 0.667847 0.892072
489 2 0.261975 0.867718 0.257617
490 2 0.125545 0.904998 0.8351
491 2 0.170458 0.17921 0.151948
492 2 0.517615 0.822768 0.389712
493 2 0.146051 0.926322 0.63405
494 2 0.245549 0.965687 0.85051
495 2 0.487405 0.437939 0.106895
496 2 0.455482 0.0500892 0.522817
497 2 0.910417 0.511695 0.503908
498 1 0.560358 0.858874 0.231052
499 2 0.117281 0.198279 0.334625
500 2 0.656136 0.978466 0.110143
501 1 0.942998 0.164003 0.299056
502 2 0.793 0.163438 0.0106259
503 2 0.601381 0.261836 0.951244
504 1 0.796071 0.81115 0.260352
505 2 0.886415 0.51046 0.445237
506 2 0.115914 0.821162 0.853794
507 2 0.773155 0.776906 0.559899
508 2 0.41532 0.0256664 0.855329
509 1 0.21706 0.58269 0.305846
510 2 0.330222 0.246172 0.99302
511 2 0.678292 0.21564 0.0405769
512 2 0.0974252 0.416599 0.819243
513 1 0.117358 0.131608 0.31897
514 2 0.155633 0.7668 0.276786
515 1 0.555534 0.158484 0.549653
516 2 0.509812 0.284082 0.0976314
517 1 0.432667 0.96579 0.596906
518 2 0.189812 0.275375 0.917263
519 2 0.549457 0.0332643 0.646267
520 2 0.761374 0.566898 0.543401
521 2 0.0130385 0.0763927 0.140587
522 2 0.407422 0.934074 0.701011
523 2 0.809307 0.378888 0.781206
524 2 0.335792 0.418787 0.317439
525 2 0.798062 0.28251 0.12877
526 2 0.716336 0.711849 0.904252
527 2 0.409308 0.96825 0.39917
528 1 0.10334 0.298159 0.641516
529 2 0.5537 0.824208 0.85503
530 2 0.247669 0.864819 0.881643
531 2 0.582455 0.975861 0.822942
532 2 0.647007 0.636823 0.241526
533 2 0.849825 0.562727 0.676294
534 1 0.54271 0.302684 0.154584
535 2 0.476808 0.466581 0.177108
536 1 0.216041 0.0882685 0.998451
537 1 0.940095 0.218641 0.988029
538 2 0.172997 0.367216 0.0425918
539 2 0.997575 0.691056 0.93121
540 2 0.84284 0.427696 0.810285
541 1 0.463216 0.983076 0.487363
542 2 0.57442 0.0575936 0.250788
543 1 0.488128 0.0697632 0.0797079
544 1 0.551064 0.249625 0.19283
545 2 0.5092 0.28281 0.181743
546 2 0.127533 0.802284 0.730578
547 2 0.488535 0.0353822 0.606759
548 2 0.327353 0.975162 0.542476
549 2 0.456427 0.0329439 0.859827
550 2 0.853963 0.672706 0.743252
551 1 0.659925 0.881574 0.624249
552 2 0.980469 0.578772 0.975798
553 2 0.384853 0.117329 0.86783
554 2 0.592248 0.00533664 0.919374
555 1 0.907897 0.412634 0.797226
556 2 0.755095 0.39251 0.621072
557 2 0.387634 0.170653 0.734659
558 1 0.297015 0.950514 0.035316
559 2 0.370199 0.0535694 0.133575
560 2 0.0912143 0.543789 0.0640729
561 2 0.831554 0.36074 0.563682
562 1 0.366175 0.282278 0.69876
563 2 0.918746 0.456854 0.117123
564 2 0.911648 0.204996 0.351505
565 2 0.491386 0.990486 0.876711
566 2 0.107239 0.987387 0.266976
567 2 0.954865 0.243942 0.386197
568 2 0.746919 0.644224 0.616081
569 1 0.734213 0.59409 0.833965
570 2 0.838635 0.412701 0.0282027
571 2 0.692545 0.511778 0.834059
572 2 0.71941 0.411859 0.247679
573 2 0.529575 0.0535791 0.313855
574 2 0.341283 0.440405 0.701774
575 1 0.0813283 0.938342 0.851744
576 2 0.0614347 0.738319 0.880305
577 2 0.491788 0.0777391 0.609997
578 1 0.389417 0.488658 0.74607
579 2 0.632177 0.155548 0.22055
580 1 0.374659 0.315387 0.253953
581 2 0.674842 0.853048 0.847216
582 2 0.824579 0.802971 0.364932
583 1 0.351332 0.279524 0.631489
584 2 0.852764 0.9447 0.0525119
585 1 0.27141 0.383301 0.0962917
586 2 0.847903 0.528862 0.664577
587 2 0.243203 0.508933 0.845477
588 2 0.554194 0.510606 0.0645628
589 1 0.355983 0.389287 0.935119
590 1 0.951404 0.147395 0.356423
591 1 0.675118 0.102149 0.263875
592 2 0.838171 0.582779 0.825777
593 2 0.324908 0.141028 0.673586
594 1 0.390287 0.391146 0.059093
595 1 0.692314 0.316042 0.0145667
596 2 0.00504197 0.660443 0.713477
597 1 0.686387 0.785218 0.227063
598 2 0.169332 0.775824 0.600659
599 2 0.815236 0.651503 0.867735
600 2 0.88194 0.139722 0.00677784
601 2 0.0219112 0.305188 0.0719451
602 1 0.568957 0.356515 0.406742
603 2 0.71531 0.167344 0.989767
604 1 0.227845 0.266699 0.715765
605 2 0.402262 0.378256 0.771472
606 2 0.318805 0.0237821 0.0747058
607 1 0.325828 0.572428 0.579642
608 2 0.846429 0.264034 0.549815
609 2 0.127789 0.126549 0.955015
610 2 0.877948 0.0949807 0.47124
611 2 0.663254 0.789627 0.368341
612 1 0.441083 0.215479 0.0602431
613 2 0.772365 0.146707 0.373996
614 1 0.772933 0.0857874 0.391058
615 2 0.56184 0.445374 1.00103
616 1 0.027209 0.11111 0.349503
617 2 0.210877 0.774362 0.691671
618 2 0.977937 0.512736 0.461834
619 2 0.337304 0.435217 0.444944
620 2 0.782691 0.595911 0.274635
621 2 0.220019 0.0857688 0.708453
622 2 0.48621 0.941815 0.546067
623 1 0.362452 0.899221 0.219765
624 2 0.137668 0.255523 0.696888
625 2 0.62052 0.188942 0.664175
626 2 0.754978 0.349031 0.959221
627 2 0.394834 0.583469 0.418833
628 2 0.0285153 0.309576 0.858097
629 2 0.431052 0.333909 0.587419
630 1 0.970402 0.180651 0.123958
631 2 0.863641 0.119035 0.460074
632 2 0.768979 0.277545 0.474341
633 2 0.983442 0.596243 0.265893
634 2 0.230627 0.277251 0.211595
635 2 0.755569 0.0678458 0.444995
636 2 0.266117 0.678609 0.719359
637 2 0.4732 0.905179 0.870498
638 1 0.602751 0.926663 0.653191
639 2 0.363801 0.8726 0.619319
640 2 0.756091 0.455035 0.821233
641 2 0.591938 0.399059 0.101756
642 2 0.664661 0.523523 0.207122
643 2 0.100324 0.563365 0.84756
644 2 0.687023 0.94181 0.994019
645 1 0.720136 0.97245 0.286859
646 2 0.78939 0.651264 0.246093
647 1 0.220355 0.0537354 0.0931209
648 2 0.704664 0.475187 0.943103
649 2 0.846082 0.385401 0.0842301
650 2 0.16975 0.80076 0.13886
651 2 0.488539 0.723926 0.759588
652 2 0.720139 0.39428 0.156999
653 2 0.916071 0.352547 0.905917
654 1 0.457145 0.359593 0.877811
655 2 0.998685 0.0639707 0.364242
656 2 0.893499 0.348564 0.977721
657 2 0.591059 0.897897 0.492818
658 2 0.254593 0.300491 0.644077
659 2 0.428551 0.858883 0.902928
660 2 0.677296 0.584795 0.104429
661 1 0.693429 0.975268 0.470602
662 2 0.697618 0.416465 0.611573
663 2 0.445105 0.20869 0.421828
664 1 0.0551504 0.505797 0.222798
665 2 0.296478 0.948037 0.494962
666 2 0.725157 0.712761 0.76814
667 2 0.450409 0.565464 0.940112
668 2 0.338043 0.495297 0.192483
669 2 0.468604 0.366091 0.0320276
670 1 0.628423 0.716957 0.826579
671 2 0.864662 0.66675 0.864945
672 1 0.624059 0.912646 0.411168
673 2 0.912796 0.448773 0.440317
674 2 0.93738 0.825751 0.41568
675 2 0.978569 0.515357 0.329502
676 1 0.00795242 0.796265 0.672449
677 2 0.649744 0.116397 0.544688
678 2 0.0128386 0.644699 0.261562
679 1 0.947711 0.0815716 0.655826
680 2 0.235597 0.00612419 0.746546
681 1 0.395127 0.3999 0.507546
682 1 0.93843 0.822764 0.758414
683 2 0.335766 0.372348 0.0671148
684 2 0.956518 0.816693 0.790541
685 2 0.72979 0.764306 0.0275081
686 2 0.652105 0.777919 0.0767377
687 1 0.911504 0.253975 0.0393013
688 2 0.591349 0.922082 0.0728179
689 2 0.560192 0.904299 0.127343
690 2 0.61465 0.594923 0.631873
691 2 0.761301 0.896613 0.634202
692 1 0.0749754 0.577028 0.768102
693 2 0.366867 0.402275 0.439666
694 2 0.979684 0.661532 0.304836
695 1 0.689858 0.76093 0.048957
696 2 0.122681 0.375632 0.222188
697 2 0.337332 0.36102 0.821568
698 2 0.00192687 0.781814 0.513767
699 2 0.0195315 0.147003 0.196966
700 1 0.364858 0.625328 0.836086
701 2 0.486993 0.293458 0.185874
702 2 0.773087 0.965898 0.141307
703 2 0.324168 0.491365 0.288786
704 2 0.128452 0.546787 0.334287
705 2 0.855633 0.353253 0.992216
706 2 0.291758 0.525401 0.26351
707 2 0.775473 0.405561 0.0536866
708 1 0.638659 0.154213 0.986495
709 2 0.660586 0.457412 0.75598
710 2 0.0890423 0.559054 0.989281
711 2 0.768446 0.72339 0.557811
712 1 0.0883456 0.0226276 0.111344
713 2 0.0262515 0.642463 0.379896
714 1 0.82657 0.426485 0.130854
715 2 0.311548 0.324665 0.825913
716 1 0.631407 0.877013 0.766969
717 2 0.332026 0.0444108 0.0157585
718 2 0.412606 0.496312 0.918088
719 2 0.613288 0.228827 0.374642
720 2 0.696287 0.196824 0.634746
721 2 0.190147 0.328761 0.99603
722 1 0.150672 0.326644 0.459038
723 2 0.629554 0.370678 0.316534
724 2 0.84547 0.553723 0.842682
725 2 0.0529409 0.0783976 0.0931179
726 2 0.372784 0.69322 0.686498
727 1 0.645913 0.784721 0.703973
728 1 0.87973 0.602326 0.164984
729 1 0.503648 0.347896 0.0911925
730 1 0.227534 0.95361 0.586981
731 2 0.332891 0.381674 0.542494
732 1 0.870317 0.642206 0.835971
733 2 0.670121 0.364803 0.257682
734 2 0.786799 0.461947 0.839797
735 2 0.259336 0.218261 0.119101
736 1 0.442058 0.393549 0.817847
737 2 0.258194 0.0921771 0.429379
738 2 0.82735 0.68106 0.0209881
739 2 0.585043 0.327555 0.208092
740 2 0.150446 0.549287 0.812961
741 2 0.292081 0.61842 0.0685029
742 1 0.838729 0.954464 0.942446
743 2 0.515271 0.0882408 0.488667
744 2 0.260808 0.185382 0.545358
745 2 0.377921 0.67844 0.00129464
746 1 0.636229 0.55552 0.832782
747 2 0.0854135 0.781358 0.87592
748 2 0.861064 0.835917 0.924222
749 2 0.64796 0.511382 0.18444
750 2 0.276444 0.910135 0.748039
751 2 0.00715706 0.555948 0.812801
752 2 0.174655 0.651899 0.391005
753 2 0.725043 0.730397 0.744278
754 2 0.151562 0.827633 0.261369
755 2 0.881267 0.558847 0.707775
756 2 0.444059 0.0951298 0.822046
757 2 0.742593 0.647479 0.391487
758 2 0.302433 0.0843488 0.117688
759 2 0.515951 0.503999 0.85889
760 1 0.448258 0.852356 0.656973
761 2 0.410375 0.132649 0.0208327
762 2 0.374521 0.499666 0.925079
763 1 0.371826 0.190887 0.902094
764 2 0.899536 0.51124 0.977844
765 2 0.529497 0.239296 0.119535
766 2 0.957311 0.897091 0.878925
767 2 0.853157 0.169325 0.971264
768 2 0.0114156 0.00400641 0.0220657
769 2 0.872963 0.631342 0.521865
770 2 0.311966 0.692659 0.578123
771 2 0.165912 0.632789 0.683044
772 2 0.0905794 0.973206 0.329423
773 1 0.775273 0.851019 0.401774
774 2 0.252131 0.548502 0.226122
775 2 0.554776 0.84764 0.606763
776 2 0.659936 0.533409 0.922265
777 1 0.79571 0.400178 0.284157
778 2 0.0743398 0.928852 0.775047
779 2 0.400638 0.353368 0.658259
780 1 0.195477 0.448501 0.368818
781 2 0.160331 0.452192 0.187244
782 2 0.747018 0.754801 0.25128
783 1 0.294184 0.941395 0.836605
784 2 0.45944 0.11028 0.915525
785 2 0.650955 0.239852 0.962201
786 1 0.65758 0.37876 0.474539
787 2 0.0580663 0.617958 0.173091
788 2 0.315304 0.671203 0.530664
789 2 0.742457 0.34802 0.155935
790 2 0.895206 0.278526 0.48255
791 1 0.210336 0.641486 0.725521
792 2 0.817898 0.0846874 0.458242
793 2 0.296754 0.542026 0.700042
794 2 0.851054 0.474565 0.0970824
795 2 0.373586 0.447387 0.934664
796 2 0.263095 0.460158 0.644682
797 2 0.0702484 0.733984 0.814115
798 2 0.883857 0.142571 0.135113
799 2 0.0968378 0.734461 0.55837
800 2 0.115643 0.458209 0.301775
801 2 0.624003 0.267666 0.681649
802 2 0.157509 0.738448 0.475184
803 2 0.271535 0.439612 0.602837
804 2 0.787051 0.163098 0.819567
805 2 0.9303 0.377344 0.470364
806 1 0.739139 0.0223245 0.869266
807 2 0.0689363 0.812357 0.274472
808 2 0.133066 0.149229 0.348045
809 1 0.484553 0.997449 0.559117
810 2 0.517918 0.964392 0.599149
811 2 0.808881 0.847756 0.50139
812 2 0.781815 0.298729 0.1049
813 1 0.834687 0.403102 0.74255
814 2 0.890354 0.42336 0.738099
815 2 0.760056 0.812898 0.235587
816 1 0.19193 0.181516 0.560761
817 1 0.677691 0.0529371 0.745163
818 2 0.891096 0.598156 0.889626
819 1 0.303486 0.68819 0.00775336
820 1 0.401615 0.921358 0.638339
821 2 0.625545 0.436667 0.894245
822 2 0.405529 0.230889 0.15242
823 1 0.896909 0.548111 0.636293
824 2 0.566292 0.210988 0.0476518
825 2 0.757019 0.297048 0.0826723
826 2 0.328071 0.232823 0.0983641
827 1 0.891075 0.730337 0.393282
828 2 0.442717 0.354173 0.525251
829 2 0.193606 0.733107 0.162479
830 2 0.657256 0.652161 0.137702
831 1 0.945666 0.00776413 0.593922
832 2 0.793259 0.65474 0.167274
833 1 0.90221 0.515311 0.0961904
834 2 0.367563 0.763597 0.805855
835 2 0.76264 0.953489 0.306034
836 2 0.90571 0.85568 0.489234
837 2 0.753626 0.357546 0.300566
838 2 0.880264 0.931037 0.585843
839 2 0.648302 0.80673 0.767468
840 2 0.776329 0.676138 0.234976
841 2 0.83476 0.911418 0.876715
842 2 0.0661641 0.930928 0.537882
843 2 0.662807 0.766714 0.416369
844 2 0.454633 0.55105 0.340607
845 2 0.490777 0.381167 0.335074
846 2 0.48459 0.772373 0.889174
847 2 0.872404 0.664053 0.1812
848 2 0.971961 0.367324 0.863138
849 1 0.42825 0.311897 0.222235
850 2 0.413587 0.1391 0.230484
851 2 0.131513 0.98348 0.580035
852 2 0.650022 0.845706 0.683713
853 1 0.96307 0.485607 0.407736
854 2 0.725328 0.776322 0.102129
855 2 0.00787327 0.515501 0.224406
856 2 0.992519 0.489234 0.364116
857 2 0.598496 0.272748 0.64988
858 2 0.617523 0.451432 0.918157
859 2 0.350961 0.882202 0.987287
860 2 0.311337 0.938347 0.992317
861 2 0.455189 0.0290264 0.811076
862 2 0.505523 0.500074 0.83445
863 2 0.390554 0.593783 0.0343857
864 2 0.169952 0.259703 0.863533
865 2 0.710426 0.779859 0.291289
866 2 0.198272 0.898111 0.015431
867 2 0.493824 0.0407918 0.521531
868 2 0.751525 0.874518 0.286985
869 2 0.540262 0.0417307 0.498973
870 2 0.513346 0.644113 0.813151
871 2 0.393044 0.345052 0.997946
872 2 0.597832 0.575107 0.0460541
873 2 0.547601 0.330168 0.443125
874 2 0.446693 0.480141 0.0826178
875 2 0.745127 0.3316 0.4748
876 2 0.811555 0.661923 0.0487849
877 2 0.952108 0.771264 0.435835
878 2 0.207099 0.100408 0.101307
879 2 0.145523 0.354651 0.675062
880 2 0.382209 0.123082 0.716287
881 2 0.539172 0.485511 0.327951
882 1 0.69061 0.0521243 0.439726
883 1 0.291654 0.581657 0.440503
884 2 0.236068 0.586144 0.611559
885 2 0.810312 0.170398 0.138283
886 2 0.230816 0.295397 0.83839
887 1 0.870054 0.728447 0.90002
888 2 0.239451 0.725671 0.231276
889 2 0.314185 0.371507 0.184521
890 1 0.892052 0.793665 0.487108
891 2 0.816725 0.630095 0.762634
892 2 0.642539 0.833761 0.0112807
893 2 0.341285 0.774324 0.200578
894 2 0.354218 0.723889 0.395082
895 1 0.549025 0.891209 0.515139
896 2 0.157812 0.954547 0.852755
897 2 0.898745 0.578328 0.586482
898 2 0.665602 0.428257 0.266841
899 2 0.910863 0.412356 0.67812
900 2 0.800909 0.618722 0.882031
901 2 0.129839 0.4571 0.431903
902 2 0.349512 0.693923 0.388494
903 2 0.885796 0.373098 0.488071