ITEM: TIMESTEP
60900
ITEM: NUMBER OF ATOMS
1000
ITEM: BOX BOUNDS xy xz yz pp pp pp
0.0000000000000000e+00 1.3572088000000001e+01 0.0000000000000000e+00
0.0000000000000000e+00 1.3572088000000001e+01 0.0000000000000000e+00
0.0000000000000000e+00 1.3572088000000001e+01 0.0000000000000000e+00
ITEM: ATOMS id type xs ys zs
1 2 0.568914 0.527079 0.194734
2 2 0.893104 0.679143 0.614247
3 1 0.594497 0.896577 0.837516
4 2 0.273372 0.499486 0.816188
5 2 0.58446 0.893258 0.72367
6 1 0.623179 0.929749 0.689703
7 2 0.579041 0.90678 0.789645
8 2 0.822245 0.685384 0.613156
9 2 0.766082 0.0792775 0.277578
10 2 0.58057 0.921003 0.724796
11 2 0.798547 0.728385 0.663593
12 2 0.605557 0.853172 0.758518
13 2 0.848288 0.70337 0.6813
14 1 0.978177 0.501508 0.509247
15 2 0.854842 0.720854 0.624254
16 2 0.417554 0.524172 0.824491
17 1 0.838609 0.794061 0.616009
18 2 0.816981 0.72999 0.652223
19 2 0.666814 0.222137 0.517674
20 2 0.552155 0.854626 0.785754
21 2 0.613302 0.895206 0.714759
22 2 0.555626 0.520372 0.503742
23 2 0.287952 0.335272 0.0706431
24 2 0.875353 0.662221 0.657536
25 1 0.0334051 0.574301 0.26842
26 2 0.853523 0.730709 0.589798
27 2 0.611996 0.935874 0.789586
28 2 0.619973 0.896657 0.768473
29 2 0.113734 0.675274 0.894699
30 2 0.547721 0.882214 0.733386
31 1 0.613755 0.806992 0.733496
32 1 0.635772 0.957177 0.721932
33 1 0.769565 0.794947 0.715514
34 2 0.80785 0.682022 0.672272
35 2 0.0327284 0.587458 0.666934
36 1 0.561564 0.822234 0.740756
37 2 0.870434 0.721531 0.684445
38 2 0.578319 0.941174 0.762514
39 2 0.231525 0.765493 0.104685
40 2 0.62553 0.849138 0.748592
41 2 0.593849 0.90016 0.753988
42 2 0.595245 0.913168 0.779155
43 2 0.422955 0.566879 0.243593
44 2 0.624648 0.19228 0.566308
45 2 0.871752 0.725874 0.642242
46 1 0.597455 0.157137 0.0682268
47 2 0.869586 0.698557 0.66983
48 2 0.620753 0.853897 0.778946
49 2 0.223342 0.609492 0.851732
50 2 0.845759 0.716113 0.690523
51 2 0.91768 0.753736 0.870816
52 2 0.709879 0.606614 0.826109
53 2 0.973941 0.0728546 0.338541
54 2 0.570905 0.869675 0.716574
55 1 0.864246 0.640991 0.686205
56 1 0.551104 0.810486 0.707382
57 2 0.595533 0.880234 0.744154
58 2 0.567319 0.892814 0.780259
59 2 0.880829 0.737494 0.613138
60 2 0.590844 0.939621 0.736523
61 2 0.841598 0.679768 0.252395
62 2 0.558363 0.8932 0.694314
63 2 0.883914 0.418234 0.363958
64 2 0.820918 0.748161 0.678192
65 2 0.83106 0.718196 0.601651
66 1 0.890401 0.785267 0.662755
67 2 0.552485 0.86491 0.773736
68 2 0.573376 0.907788 0.769141
69 1 0.556405 0.972149 0.755041
70 2 0.870609 0.717885 0.607102
71 1 0.580383 0.896129 0.662108
72 2 0.573594 0.230817 0.863179
73 2 0.536203 0.885369 0.737053
74 2 0.553033 0.861442 0.752964
75 2 0.0164546 0.132078 0.955809
76 2 0.555651 0.906044 0.7333
77 1 0.912231 0.76233 0.653652
78 2 0.683994 0.959605 0.546668
79 2 0.552395 0.89609 0.789445
80 2 0.433256 0.819466 0.94431
81 2 0.552853 0.904947 0.760424
82 2 0.842302 0.689488 0.58181
83 2 0.496525 0.177726 0.409527
84 2 0.588118 0.837559 0.759906
85 1 0.532758 0.85258 0.707048
86 2 0.84169 0.703687 0.608147
87 2 0.583949 0.898775 0.704349
88 2 0.85048 0.720284 0.608772
89 2 0.70562 0.0875167 0.874315
90 2 0.617759 0.908497 0.788479
91 2 0.750122 0.340125 0.130482
92 2 0.883791 0.755859 0.623986
93 2 0.815261 0.670859 0.665361
94 1 0.0701071 0.972534 0.212289
95 2 0.0430548 0.852058 0.0583431
96 2 0.560827 0.930555 0.755962
97 2 0.771659 0.655686 0.77784
98 2 0.935066 0.61416 0.984888
99 2 0.219631 0.256877 0.491373
100 2 0.853985 0.0353705 0.51493
101 1 0.481329 0.578005 0.406148
102 2 0.437298 0.760544 0.29238
103 2 0.903731 0.720803 0.648718
104 2 0.583224 0.873744 0.775031
105 2 0.800988 0.701474 0.630482
106 2 0.045564 0.546368 0.537545
107 2 0.328756 0.925849 0.104514
108 2 0.807233 0.734939 0.594843
109 2 0.847551 0.690618 0.60669
110 2 0.640328 0.919858 0.76729
111 2 0.0842509 0.66329 0.293049
112 1 0.826932 0.689252 0.544044
113 1 0.774342 0.682238 0.605048
114 2 0.885657 0.708882 0.673031
115 2 0.405291 0.27146 0.602945
116 2 0.832018 0.682258 0.683522
117 2 0.683815 0.228194 0.0434242
118 2 0.822617 0.698983 0.636661
119 2 0.50962 0.580757 0.931287
120 2 0.845493 0.738496 0.618457
121 2 0.562864 0.88352 0.775877
122 2 0.573211 0.886026 0.743441
123 2 0.86101 0.718588 0.654721
124 2 0.810591 0.742836 0.634906
125 1 0.928885 0.743054 0.60205
126 2 0.580427 0.907982 0.735187
127 2 0.832365 0.747413 0.644916
128 2 0.60429 0.75155 0.622745
129 1 0.378562 0.894495 0.0441725
130 2 0.753654 0.021416 0.234107
131 2 0.590185 0.881987 0.694782
132 2 0.619238 0.893521 0.741542
133 2 0.855553 0.679793 0.643075
134 2 0.169383 0.632868 0.576838
135 2 0.638807 0.936095 0.743538
136 2 0.877855 0.756656 0.654609
137 1 0.540546 0.895068 0.675303
138 2 0.586469 0.907318 0.776095
139 2 0.597974 0.890035 0.729958
140 1 0.837889 0.761917 0.552639
141 2 0.847329 0.754155 0.629973
142 2 0.787432 0.802491 0.654806
143 2 0.632647 0.537727 0.02897
144 2 0.88896 0.356066 0.905095
145 2 0.927792 0.761759 0.631668
146 2 0.574364 0.930889 0.773806
147 1 0.314135 0.229426 0.426378
148 1 0.791999 0.681408 0.573447
149 2 0.582318 0.851457 0.748968
150 1 0.883073 0.632965 0.665348
151 2 0.58053 0.895919 0.745461
152 2 0.866072 0.724529 0.622515
153 1 0.826319 0.773924 0.582719
154 1 0.271655 0.839783 0.395846
155 2 0.778666 0.227247 0.381678
156 2 0.871342 0.759434 0.611427
157 2 0.0498641 0.612187 0.576958
158 2 0.836399 0.349789 0.912572
159 2 0.593354 0.953521 0.72693
160 2 0.602534 0.914949 0.742351
161 2 0.573233 0.846491 0.771312
162 2 0.631947 0.907502 0.725415
163 2 0.622455 0.887389 0.796719
164 2 0.864313 0.680305 0.648775
165 2 0.821183 0.762195 0.638081
166 2 0.580458 0.934468 0.732972
167 2 0.426716 0.814075 0.199963
168 2 0.616605 0.874383 0.758666
169 2 0.732692 0.0589001 0.0943339
170 2 0.781791 0.856133 0.984534
171 2 0.891977 0.701999 0.610492
172 2 0.44238 0.979967 0.25752
173 1 0.768908 0.711201 0.673437
174 2 0.562903 0.888178 0.739377
175 2 0.380753 0.328745 0.358891
176 2 0.570085 0.888353 0.803456
177 1 0.418918 0.170001 0.938994
178 2 0.946009 0.459555 0.368123
179 2 0.525257 0.475609 0.0776354
180 2 0.857819 0.697195 0.631629
181 2 0.63612 0.892831 0.756544
182 2 0.878685 0.145235 0.797894
183 2 0.116414 0.372176 0.0880371
184 2 0.57168 0.920791 0.72694
185 2 0.847945 0.736189 0.666532
186 2 0.817907 0.669609 0.631687
187 2 0.651057 0.220057 0.0835976
188 1 0.613153 0.968066 0.766001
189 2 0.596796 0.870401 0.725237
190 2 0.872727 0.737313 0.62667
191 2 0.608975 0.901108 0.74878
192 2 0.568566 0.925325 0.716936
193 2 0.581866 0.858698 0.725176
194 2 0.107216 0.858266 0.530283
195 2 0.564768 0.879407 0.69259
196 2 0.564013 0.871249 0.759621
197 2 0.900448 0.699465 0.641065
198 2 0.920102 0.705238 0.949807
199 2 0.840189 0.267731 0.984728
200 1 0.898274 0.690126 0.698676
201 2 0.836653 0.38153 0.922324
202 2 0.821753 0.389711 0.185995
203 2 0.554067 0.926634 0.77548
204 2 0.838372 0.927545 0.0541548
205 2 0.612909 0.952736 0.737605
206 2 0.482722 0.964464 0.0380531
207 2 0.237699 0.156269 0.436193
208 2 0.0282816 0.451116 0.317244
209 2 0.856252 0.705531 0.663401
210 2 0.848179 0.701429 0.619636
211 2 0.534845 0.33161 0.500626
212 1 0.599404 0.868129 0.673886
213 2 0.849366 0.66741 0.656028
214 2 0.814817 0.715963 0.654575
215 2 0.826658 0.680354 0.650291
216 2 0.614653 0.87014 0.721743
217 2 0.595402 0.890012 0.793478
218 2 0.37835 0.143216 0.779181
219 2 0.594045 0.933037 0.706094
220 2 0.941468 0.75376 0.705333
221 2 0.814317 0.700339 0.59113
222 2 0.939577 0.93547 0.151921
223 2 0.890011 0.648123 0.630522
224 2 0.559369 0.915801 0.77976
225 1 0.894169 0.759822 0.701824
226 2 0.563145 0.84974 0.7552
227 2 0.568734 0.845514 0.724699
228 2 0.869766 0.744941 0.611788
229 2 0.575078 0.915929 0.763154
230 1 0.809594 0.80722 0.581821
231 2 0.614489 0.901363 0.727417
232 2 0.852718 0.710435 0.619343
233 1 0.860851 0.625376 0.623521
234 2 0.904723 0.727406 0.630652
235 2 0.865578 0.671057 0.656687
236 2 0.571838 0.913218 0.699316
237 2 0.241504 0.420657 0.0315561
238 1 0.621495 0.343048 0.651167
239 1 0.744659 0.718035 0.626084
240 2 0.849908 0.683568 0.673492
241 2 0.549039 0.874797 0.757228
242 1 0.938931 0.698834 0.675801
243 1 0.93984 0.713446 0.646508
244 2 0.888629 0.744499 0.645888
245 2 0.0721272 0.786979 0.1238
246 1 0.660101 0.946098 0.785566
247 2 0.816545 0.682869 0.693861
248 2 0.670028 0.81435 0.461657
249 2 0.599152 0.932699 0.794662
250 2 0.592296 0.931978 0.788868
251 2 0.798409 0.0495741 0.700535
252 2 0.518319 0.472314 0.289804
253 2 0.342347 0.198054 0.535706
254 2 0.322999 0.908859 0.490522
255 2 0.628641 0.905951 0.761674
256 2 0.603175 0.854594 0.733259
257 2 0.614519 0.941588 0.741415
258 2 0.884228 0.728401 0.655439
259 1 0.542324 0.30917 0.303253
260 2 0.828993 0.68131 0.590117
261 1 0.663073 0.898288 0.803942
262 2 0.457488 0.103619 0.455174
263 2 0.824519 0.719543 0.642064
264 2 0.827479 0.989956 0.25461
265 1 0.818883 0.791878 0.66663
266 2 0.824755 0.741343 0.628729
267 2 0.591747 0.837348 0.739247
268 1 0.570844 0.840492 0.849044
269 1 0.16842 0.092758 0.141438
270 2 0.168306 0.235259 0.0367048
271 2 0.987265 0.914701 0.110214
272 2 0.177595 0.342139 0.0381855
273 1 0.851527 0.803369 0.652324
274 2 0.810022 0.724631 0.624363
275 2 0.837851 0.66477 0.634714
276 2 0.597637 0.880542 0.776634
277 2 0.86688 0.705328 0.623867
278 2 0.10566 0.893962 0.520051
279 2 0.600633 0.928924 0.726936
280 1 0.523727 0.861561 0.80039
281 2 0.380531 0.130544 0.280089
282 2 0.586551 0.917649 0.740368
283 2 0.200914 0.295148 0.397481
284 1 0.636236 0.842503 0.699123
285 2 0.589882 0.94642 0.748334
286 2 0.547236 0.899904 0.742875
287 1 0.941674 0.195355 0.359358
288 2 0.592958 0.925922 0.739246
289 2 0.841445 0.74 0.659454
290 2 0.851171 0.765466 0.598993
291 2 0.819198 0.749247 0.602985
292 2 0.264898 0.578059 0.779843
293 2 0.832727 0.704694 0.625743
294 2 0.810937 0.726557 0.673244
295 2 0.799318 0.69517 0.659783
296 2 0.642997 0.775431 0.107404
297 2 0.556894 0.924791 0.747362
298 2 0.871446 0.712362 0.624613
299 1 0.639792 0.840878 0.81493
300 2 0.537103 0.898485 0.737692
301 2 0.586093 0.925585 0.797454
302 2 0.536344 0.594529 0.533089
303 2 0.616195 0.886393 0.786291
304 1 0.966259 0.779485 0.209784
305 2 0.570795 0.883898 0.720939
306 2 0.623169 0.931479 0.759012
307 2 0.662181 0.996228 0.117778
308 2 0.55531 0.554668 0.883545
309 2 0.81027 0.693043 0.653861
310 2 0.805652 0.719657 0.610124
311 2 0.865865 0.751809 0.63763
312 2 0.584234 0.929005 0.767694
313 2 0.82262 0.729383 0.656913
314 2 0.688861 0.68202 0.849014
315 2 0.870435 0.723262 0.670296
316 2 0.834193 0.668011 0.651025
317 2 0.612752 0.870575 0.748753
318 2 0.999353 0.36212 0.462085
319 2 0.840565 0.6648 0.614427
320 2 0.824284 0.706791 0.668274
321 2 0.825362 0.763353 0.652727
322 2 0.850692 0.771438 0.640909
323 2 0.668179 0.36155 0.635622
324 2 0.792394 0.186079 0.610689
325 2 0.868022 0.740313 0.620242
326 2 0.595168 0.901471 0.692895
327 2 0.654948 0.567304 0.146912
328 2 0.816345 0.707523 0.656133
329 1 0.193314 0.898955 0.622004
330 2 0.864949 0.720006 0.634004
331 2 0.848586 0.708889 0.648824
332 2 0.624145 0.887592 0.710586
333 2 0.793637 0.300276 0.486897
334 2 0.603231 0.937159 0.714758
335 1 0.323579 0.756163 0.682213
336 2 0.807692 0.678087 0.639738
337 2 0.617177 0.397997 0.402306
338 1 0.508924 0.914191 0.714706
339 2 0.829249 0.716731 0.685549
340 2 0.0138364 0.352058 0.130861
341 2 0.559179 0.899514 0.718044
342 2 0.840774 0.737315 0.650257
343 2 0.861036 0.732315 0.629736
344 1 0.553164 0.926605 0.825753
345 1 0.877179 0.64105 0.578297
346 1 0.489477 0.903674 0.677413
347 1 0.870416 0.323714 0.944803
348 2 0.0883005 0.0384728 0.0207507
349 2 0.92185 0.436894 0.531584
350 2 0.409482 0.351908 0.669728
351 2 0.822315 0.719581 0.584648
352 2 0.147958 0.141232 0.182872
353 1 0.906094 0.712201 0.565365
354 1 0.970912 0.971182 0.209023
355 2 0.154809 0.792644 0.851869
356 2 0.852037 0.759901 0.66704
357 2 0.0875247 0.309845 0.777715
358 2 0.161207 0.0676757 0.443219
359 2 0.224436 0.395427 0.0427266
360 2 0.605704 0.882666 0.755778
361 1 0.543665 0.969951 0.799031
362 2 0.0677676 0.914428 0.446808
363 1 0.670482 0.919291 0.695929
364 2 0.575885 0.941873 0.71858
365 2 0.854035 0.6791 0.62496
366 2 0.807833 0.711686 0.603203
367 1 0.510906 0.572869 0.540475
368 1 0.526515 0.942639 0.777729
369 2 0.123828 0.237621 0.362163
370 2 0.0439393 0.477786 0.149603
371 2 0.823706 0.673136 0.621452
372 1 0.797453 0.999655 0.692938
373 2 0.855743 0.0246768 0.970496
374 2 0.305246 0.429382 0.0367127
375 2 0.621285 0.930726 0.727536
376 2 0.459701 0.586114 0.0237175
377 2 0.0605817 0.545373 0.0862483
378 2 0.578264 0.864654 0.747493
379 2 0.883266 0.73177 0.628935
380 2 0.612471 0.858143 0.750651
381 2 0.604638 0.91629 0.772065
382 2 0.00465644 0.187524 0.427965
383 2 0.875992 0.666837 0.722795
384 1 0.276868 0.365405 0.965699
385 2 0.82598 0.715688 0.598049
386 2 0.463382 0.874797 0.0950898
387 1 0.454178 0.69317 0.0263792
388 2 0.602724 0.90856 0.729548
389 2 0.853257 0.726127 0.675856
390 2 0.58591 0.952648 0.754269
391 2 0.731735 0.524868 0.938474
392 1 0.793061 0.759881 0.683757
393 2 0.413281 0.62732 0.00410868
394 2 0.590473 0.881246 0.75807
395 2 0.589683 0.88508 0.705893
396 2 0.628336 0.919275 0.733508
397 2 0.878067 0.661062 0.623943
398 1 0.648356 0.431161 0.7698
399 1 0.824175 0.644296 0.695532
400 1 0.987278 0.747557 0.354519
401 2 0.56674 0.897403 0.732713
402 2 0.530727 0.241461 0.518224
403 2 0.876982 0.924813 0.215442
404 2 0.886754 0.691634 0.664157
405 2 0.499707 0.262413 0.966498
406 2 0.591394 0.850811 0.738647
407 2 0.622491 0.593171 0.519127
408 2 0.82896 0.689202 0.615655
409 2 0.601565 0.950303 0.755427
410 2 0.83438 0.695312 0.673004
411 2 0.544257 0.328935 0.217205
412 2 0.0556194 0.388947 0.326623
413 2 0.873889 0.691702 0.615713
414 2 0.162617 0.9855 0.511968
415 2 0.569815 0.874768 0.708057
416 1 0.794865 0.73424 0.555581
417 2 0.234395 0.191426 0.695677
418 2 0.610027 0.871174 0.707912
419 2 0.814143 0.992556 0.889753
420 2 0.183859 0.952626 0.793937
421 1 0.591698 0.930728 0.65284
422 1 0.624777 0.816338 0.774176
423 2 0.612505 0.866667 0.77953
424 2 0.556119 0.874151 0.776488
425 1 0.553982 0.93415 0.670917
426 2 0.947802 0.420952 0.356157
427 2 0.737274 0.602108 0.978977
428 2 0.138946 0.978383 0.993708
429 2 0.564112 0.915657 0.788132
430 2 0.81461 0.75677 0.628955
431 2 0.8331 0.695857 0.605807
432 1 0.682025 0.914857 0.776701
433 2 0.792432 0.341378 0.451508
434 1 0.231743 0.0723816 0.515304
435 2 0.943556 0.63907 0.19453
436 2 0.872754 0.680311 0.667554
437 2 0.815694 0.278545 0.939844
438 2 0.079034 0.8223 0.245502
439 1 0.568926 0.828934 0.797084
440 2 0.841653 0.738292 0.63076
441 1 0.67451 0.903654 0.108841
442 1 0.94489 0.673245 0.621354
443 1 0.0369988 0.643774 0.0562036
444 2 0.868257 0.679285 0.639201
445 2 0.320547 0.722907 0.616641
446 2 0.480127 0.809045 0.637976
447 2 0.884693 0.66465 0.646632
448 2 0.973795 0.27993 0.450215
449 1 0.786886 0.187795 0.14084
450 2 0.81552 0.677263 0.605895
451 2 0.608378 0.860029 0.741826
452 2 0.58943 0.867001 0.752625
453 1 0.682392 0.874857 0.74913
454 2 0.827559 0.718023 0.616543
455 2 0.402676 0.500486 0.122605
456 2 0.897571 0.372743 0.535765
457 2 0.630425 0.863355 0.735455
458 2 0.586776 0.866483 0.763811
459 2 0.619305 0.929809 0.794803
460 2 0.885269 0.700388 0.633877
461 2 0.63258 0.35787 0.892353
462 2 0.837584 0.697804 0.644112
463 1 0.784957 0.627567 0.684988
464 2 0.33679 0.779345 0.370355
465 2 0.562078 0.886315 0.755901
466 2 0.885269 0.719703 0.611657
467 1 0.583224 0.998524 0.780929
468 2 0.298173 0.111601 0.897205
469 2 0.857862 0.767477 0.620344
470 2 0.653951 0.895645 0.743736
471 2 0.830283 0.66152 0.658324
472 2 0.859605 0.72729 0.658024
473 1 0.78873 0.721847 0.711182
474 1 0.461571 0.312148 0.354211
475 1 0.0642743 0.339409 0.535551
476 2 0.635766 0.890646 0.731033
477 2 0.553558 0.8892 0.714366
478 2 0.892483 0.74194 0.592679
479 2 0.17015 0.869584 0.340661
480 2 0.535675 0.91981 0.758424
481 2 0.862198 0.728885 0.648859
482 2 0.52917 0.915125 0.253255
483 2 0.852736 0.707857 0.606621
484 1 0.857639 0.6141 0.547201
485 1 0.682134 0.973393 0.750431
486 2 0.835271 0.673272 0.632035
487 2 0.297969 0.809482 0.507833
488 2 0.882654 0.698046 0.649248
489 2 0.892324 0.689647 0.632152
490 2 0.845627 0.751536 0.611378
491 2 0.852914 0.662693 0.635268
492 2 0.852396 0.742185 0.647973
493 2 0.902357 0.688659 0.630484
494 2 0.573039 0.928972 0.749121
495 2 0.597232 0.898816 0.783428
496 2 0.869793 0.692037 0.608183
497 2 0.835893 0.551814 0.110729
498 1 0.673526 0.812772 0.572126
499 2 0.625709 0.883707 0.753342
500 2 0.405553 0.320235 0.626304
501 1 0.789994 0.659616 0.668232
502 2 0.854544 0.655317 0.607192
503 2 0.84005 0.732117 0.604386
504 1 0.511301 0.877214 0.731123
505 2 0.855144 0.753529 0.646483
506 2 0.862381 0.701348 0.614858
507 2 0.560894 0.935725 0.72566
508 2 0.575248 0.910346 0.742848
509 1 0.643217 0.965358 0.758461
510 2 0.817779 0.690067 0.630457
511 2 0.569316 0.92715 0.783402
512 2 0.833198 0.682716 0.642989
513 1 0.214812 0.958246 0.337417
514 2 0.601256 0.928977 0.752379
515 1 0.60018 0.772746 0.77796
516 2 0.596044 0.912079 0.704867
517 1 0.794421 0.645459 0.619533
518 2 0.798798 0.682635 0.745054
519 2 0.610108 0.914685 0.711331
520 2 0.575823 0.943881 0.731289
521 2 0.210234 0.427535 0.246172
522 2 0.97896 0.724563 0.194436
523 2 0.810888 0.704673 0.630884
524 2 0.209642 0.981571 0.548859
525 2 0.816314 0.730976 0.603495
526 2 0.580456 0.583741 0.494085
527 2 0.831603 0.746343 0.607606
528 1 0.451751 0.440038 0.315384
529 2 0.844763 0.733245 0.703011
530 2 0.845767 0.766985 0.616391
531 2 0.598577 0.885128 0.802599
532 2 0.60261 0.894866 0.737399
533 2 0.511787 0.701938 0.984677
534 1 0.557915 0.959655 0.695689
535 2 0.840109 0.71716 0.649602
536 1 0.76417 0.72273 0.588156
537 1 0.598071 0.969186 0.691571
538 2 0.312056 0.669584 0.88526
539 2 0.896659 0.722842 0.601174
540 2 0.569822 0.566379 0.102887
541 1 0.825641 0.624718 0.601829
542 2 0.589889 0.866565 0.778832
543 1 0.237602 0.177833 0.301015
544 1 0.906889 0.645831 0.612586
545 2 0.862058 0.740463 0.691979
546 2 0.873382 0.743961 0.668117
547 2 0.105488 0.117083 0.615206
548 2 0.633204 0.875339 0.735921
549 2 0.601442 0.863002 0.776394
550 2 0.769373 0.300519 0.373033
551 1 0.850946 0.780318 0.69546
552 2 0.152669 0.843176 0.94859
553 2 0.842945 0.703889 0.696374
554 2 0.615462 0.881672 0.713495
555 1 0.920203 0.334354 0.0839782
556 2 0.441234 0.487521 0.174414
557 2 0.833295 0.732627 0.637539
558 1 0.883155 0.812524 0.695781
559 2 0.877784 0.677483 0.620196
560 2 0.542241 0.898256 0.718503
561 2 0.850263 0.652115 0.657261
562 1 0.872153 0.743531 0.56898
563 2 0.870184 0.741548 0.64408
564 2 0.252895 0.405673 0.250023
565 2 0.849612 0.73031 0.601164
566 2 0.852335 0.236515 0.596521
567 2 0.894371 0.720175 0.622583
568 2 0.876802 0.734956 0.675241
569 1 0.784191 0.768891 0.573219
570 2 0.873659 0.734841 0.650281
571 2 8.42331e-06 0.358858 0.536848
572 2 0.568568 0.877473 0.798682
573 2 0.88196 0.686109 0.598797
574 2 0.523967 0.24584 0.990846
575 1 0.364538 0.839329 0.451289
576 2 0.849934 0.681611 0.611838
577 2 0.61973 0.911979 0.715904
578 1 0.644633 0.920723 0.824756
579 2 0.603198 0.91854 0.730779
580 1 0.814473 0.206009 0.460247
581 2 0.700493 0.208385 0.300124
582 2 0.590502 0.849009 0.714589
583 1 0.880641 0.355851 0.424225
584 2 0.618728 0.915088 0.750832
585 1 0.844438 0.761552 0.736677
586 2 0.838657 0.74505 0.636622
587 2 0.584865 0.880495 0.72515
588 2 0.927243 0.562254 0.244031
589 1 0.672266 0.865415 0.786855
590 1 0.472567 0.902434 0.738414
591 1 0.658486 0.873477 0.713614
592 2 0.518134 0.624233 0.729959
593 2 0.587355 0.903723 0.73141
594 1 0.0437297 0.86331 0.00910251
595 1 0.769566 0.284416 0.873862
596 2 0.0486579 0.0584956 0.392331
597 1 0.548618 0.551304 0.950119
598 2 0.620575 0.919786 0.794249
599 2 0.825572 0.708515 0.613068
600 2 0.863256 0.514638 0.0989812
601 2 0.821733 0.732934 0.680248
602 1 0.870955 0.706578 0.544913
603 2 0.812489 0.686467 0.602534
604 1 0.00197542 0.254474 0.65514
605 2 0.506636 0.578511 0.490109
606 2 0.532156 0.901783 0.0982448
607 1 0.841143 0.713255 0.728019
608 2 0.879141 0.705603 0.902372
609 2 0.793764 0.71899 0.631061
610 2 0.848662 0.745528 0.605441
611 2 0.55366 0.935594 0.762298
612 1 0.666861 0.803434 0.412376
613 2 0.315029 0.12018 0.602196
614 1 0.686521 0.980818 0.170083
615 2 0.137667 0.815266 0.659371
616 1 0.508067 0.86263 0.76661
617 2 0.567045 0.941971 0.767708
618 2 0.460075 0.613087 0.860356
619 2 0.23694 0.981543 0.385623
620 2 0.181809 0.19009 0.0252467
621 2 0.871118 0.695219 0.644745
622 2 0.86092 0.692821 0.645731
623 1 0.350589 0.406638 0.350568
624 2 0.639565 0.956056 0.695304
625 2 0.019419 0.342477 0.75948
626 2 0.226949 0.0596772 0.761898
627 2 0.568052 0.872619 0.740016
628 2 0.471733 0.119078 0.464938
629 2 0.294276 0.41396 0.996856
630 1 0.820725 0.747714 0.708881
631 2 0.175528 0.550964 0.860723
632 2 0.840664 0.703686 0.65821
633 2 0.642643 0.881068 0.764513
634 2 0.238092 0.828437 0.328129
635 2 0.293476 0.308797 0.944987
636 2 0.564986 0.905365 0.782931
637 2 0.630273 0.90144 0.78449
638 1 0.6547 0.0993012 0.40325
639 2 0.588521 0.906552 0.755956
640 2 0.607211 0.875254 0.775066
641 2 0.850515 0.703475 0.569835
642 2 0.852695 0.689604 0.635592
643 2 0.379194 0.745307 0.118668
644 2 0.53761 0.880308 0.758056
645 1 0.633368 0.896429 0.675001
646 2 0.558965 0.915975 0.732636
647 1 0.675279 0.628164 0.960261
648 2 0.656128 0.569901 0.269815
649 2 0.79179 0.682696 0.652911
650 2 0.619386 0.94342 0.754435
651 2 0.870656 0.724149 0.593413
652 2 0.87882 0.720246 0.640449
653 2 0.832292 0.733675 0.616041
654 1 0.83867 0.625221 0.655097
655 2 0.0886741 0.840204 0.283774
656 2 0.544156 0.894234 0.773314
657 2 0.771601 0.272439 0.177706
658 2 0.872856 0.761975 0.647021
659 2 0.569878 0.879578 0.757378
660 2 0.124687 0.209482 0.105924
661 1 0.466915 0.557266 0.590565
662 2 0.87574 0.709908 0.664964
663 2 0.609753 0.927701 0.768969
664 1 0.410733 0.893784 0.458751
665 2 0.0153841 0.998045 0.815546
666 2 0.575346 0.886664 0.718609
667 2 0.539827 0.883877 0.774257
668 2 0.558932 0.901897 0.766046
669 2 0.489229 0.481669 0.463471
670 1 0.11237 0.000766381 0.589335
671 2 0.470944 0.218788 0.443767
672 1 0.835666 0.724881 0.552487
673 2 0.877015 0.686686 0.67959
674 2 0.538068 0.772856 0.524129
675 2 0.76851 0.942663 0.311315
676 1 0.135246 0.0618973 0.973151
677 2 0.589634 0.904459 0.795823
678 2 0.626014 0.906996 0.738192
679 1 0.971267 0.140243 0.655813
680 2 0.598268 0.876198 0.716745
681 1 0.824329 0.657311 0.578306
682 1 0.763796 0.672427 0.638121
683 2 0.541598 0.139073 0.341852
684 2 0.244934 0.0132896 0.732362
685 2 0.591694 0.865339 0.707676
686 2 0.911214 0.105166 0.182451
687 1 0.602308 0.853523 0.824373
688 2 0.414027 0.191192 0.4913
689 2 0.855213 0.699889 0.672378
690 2 0.843819 0.678338 0.684626
691 2 0.6081 0.940272 0.775645
692 1 0.602301 0.991354 0.731722
693 2 0.114891 0.482633 0.492057
694 2 0.576095 0.888359 0.755027
695 1 0.50421 0.946552 0.739506
696 2 0.621344 0.024116 0.0476473
697 2 0.404181 0.99486 0.546786
698 2 0.811688 0.734099 0.620597
699 2 0.811383 0.728174 0.644519
700 1 0.564162 0.895905 0.857988
701 2 0.82259 0.705241 0.675588
702 2 0.650911 0.90603 0.765408
703 2 0.740697 0.578281 0.967818
704 2 0.682174 0.606762 0.10735
705 2 0.814917 0.707807 0.688909
706 2 0.868884 0.679152 0.68461
707 2 0.425157 0.848011 0.909903
708 1 0.878396 0.723684 0.71376
709 2 0.884826 0.528451 0.259693
710 2 0.844499 0.711928 0.673452
711 2 0.55333 0.884801 0.640397
712 1 0.913879 0.731576 0.685585
713 2 0.838853 0.705242 0.589498
714 1 0.91253 0.783127 0.602143
715 2 0.563098 0.891927 0.744522
716 1 0.169848 0.215119 0.393144
717 2 0.577883 0.89345 0.766687
718 2 0.866084 0.0379779 0.298799
719 2 0.845524 0.689675 0.633153
720 2 0.381035 0.751833 0.536208
721 2 0.584114 0.926772 0.695477
722 1 0.182915 0.644618 0.623841
723 2 0.11706 0.274765 0.206693
724 2 0.600239 0.919051 0.808729
725 2 0.141624 0.00240141 0.286602
726 2 0.830601 0.701883 0.58061
727 1 0.761295 0.3058 0.00324907
728 1 0.048109 0.0741453 0.0183456
729 1 0.667505 0.918473 0.745411
730 1 0.632501 0.957924 0.657937
731 2 0.866646 0.697434 0.693524
732 1 0.460109 0.360448 0.651911
733 2 0.968871 0.126153 0.459404
734 2 0.572048 0.899516 0.799827
735 2 0.854179 0.747448 0.676241
736 1 0.668519 0.871028 0.67021
737 2 0.626026 0.902276 0.805398
738 2 0.702064 0.240998 0.895926
739 2 0.589064 0.916694 0.753355
740 2 0.859441 0.561227 0.890317
741 2 0.545464 0.905577 0.752541
742 1 0.53473 0.949096 0.722498
743 2 0.832274 0.708436 0.667281
744 2 0.865814 0.683805 0.621894
745 2 0.548227 0.913877 0.744809
746 1 0.817122 0.691144 0.72252
747 2 0.239961 0.114291 0.568129
748 2 0.817346 0.661452 0.651518
749 2 0.830022 0.727455 0.675984
750 2 0.212801 0.410379 0.0645714
751 2 0.588971 0.949815 0.785159
752 2 0.590071 0.928083 0.763622
753 2 0.915431 0.617292 0.16019
754 2 0.369241 0.0675375 0.555875
755 2 0.605453 0.861273 0.790169
756 2 0.83312 0.746637 0.59236
757 2 0.796976 0.711029 0.655855
758 2 0.450827 0.754215 0.174502
759 2 0.568322 0.945147 0.785651
760 1 0.436962 0.642043 0.286802
761 2 0.604665 0.901342 0.766702
762 2 0.577339 0.867033 0.799876
763 1 0.658486 0.642234 0.285044
764 2 0.579358 0.872687 0.765805
765 2 0.560971 0.870596 0.729059
766 2 0.867567 0.738316 0.600772
767 2 0.557545 0.376952 0.231925
768 2 0.304227 0.496127 0.18587
769 2 0.814966 0.70252 0.606833
770 2 0.851586 0.765073 0.645721
771 2 0.983414 0.766409 0.17434
772 2 0.546646 0.283736 0.508525
773 1 0.881527 0.721146 0.757455
774 2 0.165227 0.0171643 0.327408
775 2 0.0536304 0.708889 0.176773
776 2 0.854443 0.653808 0.626746
777 1 0.552949 0.86547 0.82016
778 2 0.877694 0.767795 0.626804
779 2 0.834599 0.562873 0.41752
780 1 0.90955 0.670709 0.576762
781 2 0.565398 0.928521 0.746261
782 2 0.264716 0.180587 0.766732
783 1 0.530671 0.823753 0.773509
784 2 0.880643 0.707311 0.623451
785 2 0.870868 0.703415 0.598576
786 1 0.763401 0.750729 0.65595
787 2 0.826645 0.692646 0.679512
788 2 0.808235 0.708338 0.644803
789 2 0.452242 0.280447 0.0108965
790 2 0.579276 0.964945 0.735271
791 1 0.771126 0.678262 0.698242
792 2 0.843858 0.727675 0.668635
793 2 0.476814 0.771326 0.00623277
794 2 0.846883 0.339546 0.752017
795 2 0.598044 0.900529 0.721164
796 2 0.612397 0.064005 0.150256
797 2 0.836251 0.716895 0.620965
798 2 0.22444 0.593443 0.692068
799 2 0.596608 0.893292 0.758248
800 2 0.323114 0.376256 0.290451
801 2 0.56031 0.945099 0.750407
802 2 0.496438 0.938088 0.795138
803 2 0.862871 0.751996 0.668869
804 2 0.880738 0.332937 0.0165931
805 2 0.781147 0.0970891 0.250411
806 1 0.00441714 0.922696 0.586994
807 2 0.646756 0.895803 0.778819
808 2 0.759196 0.0711978 0.838063
809 1 0.856431 0.678923 0.717866
810 2 0.605574 0.876997 0.744022
811 2 0.838534 0.687317 0.623095
812 2 0.831907 0.686195 0.662053
813 1 0.663609 0.0729348 0.125898
814 2 0.891588 0.687902 0.656039
815 2 0.845781 0.699013 0.638372
816 1 0.856009 0.667993 0.567747
817 1 0.519964 0.997584 0.760749
818 2 0.868955 0.707673 0.655934
819 1 0.874493 0.806304 0.625251
820 1 0.593082 0.931338 0.845041
821 2 0.548304 0.920341 0.727792
822 2 0.564668 0.934967 0.706631
823 1 0.924068 0.700793 0.609762
824 2 0.665627 0.372836 0.684366
825 2 0.850707 0.757133 0.600566
826 2 0.624975 0.736735 0.607301
827 1 0.78425 0.174309 0.687918
828 2 0.895019 0.7291 0.659531
829 2 0.804774 0.686815 0.620574
830 2 0.255575 0.933316 0.309267
831 1 0.566372 0.849526 0.677438
832 2 0.600531 0.988479 0.943687
833 1 0.898742 0.771286 0.556708
834 2 0.831233 0.692511 0.63074
835 2 0.519341 0.545529 0.390381
836 2 0.835435 0.752233 0.674935
837 2 0.104075 0.897109 0.327805
838 2 0.636722 0.911214 0.748052
839 2 0.452078 0.483838 0.86388
840 2 0.578099 0.874192 0.785512
841 2 0.806316 0.748479 0.65309
842 2 0.375655 0.959525 0.241072
843 2 0.847579 0.712809 0.627776
844 2 0.847896 0.684039 0.653276
845 2 0.805119 0.708003 0.619328
846 2 0.807157 0.704104 0.6647
847 2 0.85381 0.670484 0.629206
848 2 0.675416 0.217816 0.903096
849 1 0.583104 0.970112 0.81519
850 2 0.870216 0.6948 0.578102
851 2 0.576436 0.904794 0.758249
852 2 0.567431 0.905091 0.7478
853 1 0.246075 0.0687667 0.817336
854 2 0.596546 0.197778 0.713842
855 2 0.849782 0.689011 0.68872
856 2 0.867327 0.663979 0.609433
857 2 0.546893 0.862769 0.730398
858 2 0.902338 0.709345 0.626556
859 2 0.856285 0.699259 0.591661
860 2 0.723651 0.236879 0.333713
861 2 0.892155 0.71497 0.63788
862 2 0.0242495 0.546024 0.102248
863 2 0.636365 0.874211 0.748413
864 2 0.568935 0.921308 0.802168
865 2 0.821545 0.746128 0.658452
866 2 0.827727 0.707011 0.632828
867 2 0.931926 0.118583 0.167217
868 2 0.189892 0.0882123 0.573657
869 2 0.843846 0.721781 0.591996
870 2 0.884402 0.694261 0.591832
871 2 0.624168 0.876078 0.77121
872 2 0.578335 0.890179 0.780955
873 2 0.847648 0.682274 0.659962
874 2 0.884528 0.71128 0.652575
875 2 0.451541 0.848672 0.497235
876 2 0.705275 0.11984 0.376436
877 2 0.589349 0.898432 0.74292
878 2 0.395305 0.763277 0.31026
879 2 0.540704 0.853285 0.736106
880 2 0.0975152 0.376723 0.499772
881 2 0.850685 0.692128 0.658769
882 1 0.672356 0.788541 0.026716
883 1 0.407302 0.987554 0.026902
884 2 0.062144 0.214084 0.091287
885 2 0.739936 0.98834 0.877669
886 2 0.857689 0.687042 0.596399
887 1 0.161487 0.392749 0.99203
888 2 0.336577 0.536555 0.833363
889 2 0.714541 0.512173 0.418903
890 1 0.776052 0.746717 0.614757
891 2 0.0193154 0.450305 0.521548
892 2 0.862836 0.727033 0.606699
893 2 0.596421 0.883014 0.789372
894 2 0.608275 0.892347 0.710767
895 1 0.903115 0.659763 0.691568
896 2 0.516651 0.886591 0.843271
897 2 0.836997 0.76216 0.64701
898 2 0.603512 0.896331 0.774683
899 2 0.298356 0.0503653 0.252606
900 2 0.611951 0.891754 0.750107
901 2 0.607201 0.89076 0.762345
902 2 0.83471 0.719386 0.642757
903 2 0.605107 0.917128 0.752604
904 2 0.621945 0.925204 0.774617
905 2 0.584685 0.649802 0.817369
906 2 0.0752067 0.107864 0.367019
907 2 0.855457 0.721731 0.694069