ITEM: TIMESTEP
66500
ITEM: NUMBER OF ATOMS
1000
ITEM: BOX BOUNDS xy xz yz pp pp pp
0.0000000000000000e+00 1.3572088000000001e+01 0.0000000000000000e+00
0.0000000000000000e+00 1.3572088000000001e+01 0.0000000000000000e+00
0.0000000000000000e+00 1.3572088000000001e+01 0.0000000000000000e+00
ITEM: ATOMS id type xs ys zs
1 2 0.408148 0.134882 0.0960082
2 2 0.766571 0.765403 0.655688
3 1 0.621992 0.803076 0.77318
4 2 0.683262 0.095847 0.715789
5 2 0.696298 0.830942 0.691778
6 1 0.760414 0.917568 0.667946
7 2 0.683292 0.751367 0.708385
8 2 0.714789 0.800728 0.675168
9 2 0.758032 0.516787 0.701126
10 2 0.72595 0.835163 0.714479
11 2 0.777423 0.7782 0.719692
12 2 0.752473 0.746367 0.710752
13 2 0.749409 0.806811 0.689142
14 1 0.780814 0.754889 0.628131
15 2 0.758324 0.84558 0.712013
16 2 0.838336 0.950483 0.161536
17 1 0.711722 0.880266 0.67426
18 2 0.740276 0.801224 0.689648
19 2 0.850619 0.112367 0.677478
20 2 0.717667 0.746827 0.667157
21 2 0.747326 0.740021 0.695258
22 2 0.961585 0.0778536 0.935443
23 2 0.267924 0.220468 0.834028
24 2 0.763511 0.759927 0.696793
25 1 0.77236 0.971194 0.0805499
26 2 0.719458 0.818272 0.665798
27 2 0.699756 0.749146 0.718762
28 2 0.742371 0.78583 0.730506
29 2 0.0170087 0.887781 0.987202
30 2 0.689002 0.768797 0.685026
31 1 0.644573 0.705406 0.699376
32 1 0.763827 0.867115 0.746336
33 1 0.749119 0.753395 0.765071
34 2 0.755689 0.766527 0.702319
35 2 0.768582 0.792082 0.651885
36 1 0.688761 0.725472 0.622285
37 2 0.761057 0.804003 0.70487
38 2 0.693435 0.803879 0.700412
39 2 0.328064 0.405634 0.497306
40 2 0.726625 0.756697 0.705807
41 2 0.717606 0.802407 0.717536
42 2 0.729323 0.814673 0.723904
43 2 0.649346 0.988151 0.309846
44 2 0.179358 0.873838 0.778711
45 2 0.77153 0.832457 0.712964
46 1 0.452555 0.976085 0.217223
47 2 0.782311 0.827127 0.697349
48 2 0.712425 0.789187 0.667817
49 2 0.762694 0.0673953 0.225959
50 2 0.773408 0.761144 0.695827
51 2 0.670149 0.830826 0.722895
52 2 0.530469 0.256616 0.205991
53 2 0.761262 0.064031 0.0727842
54 2 0.681992 0.831423 0.682134
55 1 0.763031 0.729083 0.772609
56 1 0.677799 0.814974 0.627056
57 2 0.7248 0.745459 0.688951
58 2 0.69619 0.78001 0.692544
59 2 0.762472 0.839943 0.69891
60 2 0.685557 0.833976 0.70104
61 2 0.366136 0.585576 0.122961
62 2 0.708474 0.811666 0.68624
63 2 0.746705 0.811761 0.637347
64 2 0.725443 0.80769 0.724727
65 2 0.72444 0.820034 0.672979
66 1 0.767836 0.884142 0.709583
67 2 0.683032 0.767564 0.701253
68 2 0.718225 0.775336 0.735031
69 1 0.718664 0.856307 0.79216
70 2 0.729822 0.858309 0.699034
71 1 0.694191 0.861862 0.615844
72 2 0.784895 0.791998 0.690161
73 2 0.698288 0.77486 0.705249
74 2 0.702403 0.793315 0.693865
75 2 0.048461 0.473222 0.815251
76 2 0.717062 0.790993 0.685519
77 1 0.822915 0.879841 0.706069
78 2 0.840389 0.0544088 0.368323
79 2 0.676063 0.82708 0.698958
80 2 0.0328555 0.528923 0.309828
81 2 0.699101 0.778465 0.657183
82 2 0.716739 0.821942 0.683389
83 2 0.714756 0.819111 0.734382
84 2 0.710841 0.790624 0.688948
85 1 0.762278 0.680919 0.678357
86 2 0.70617 0.7904 0.647634
87 2 0.717743 0.803474 0.667741
88 2 0.759228 0.842848 0.672769
89 2 0.724454 0.756131 0.73782
90 2 0.728572 0.770235 0.746129
91 2 0.0213274 0.496895 0.488016
92 2 0.754359 0.806758 0.675627
93 2 0.737928 0.740059 0.693698
94 1 0.312848 0.795028 0.0324047
95 2 0.855439 0.320289 0.669578
96 2 0.688217 0.825195 0.72719
97 2 0.739776 0.744637 0.708253
98 2 0.756074 0.802699 0.700728
99 2 0.415213 0.965649 0.499385
100 2 0.700773 0.765866 0.732633
101 1 0.372631 0.116036 0.558411
102 2 0.195996 0.644087 0.486694
103 2 0.784722 0.771793 0.706273
104 2 0.728752 0.748984 0.70315
105 2 0.735178 0.794425 0.673974
106 2 0.553755 0.954087 0.00103227
107 2 0.907396 0.451711 0.171221
108 2 0.760004 0.828453 0.653167
109 2 0.755114 0.798507 0.684746
110 2 0.703512 0.758142 0.698308
111 2 0.923349 0.529904 0.823105
112 1 0.74093 0.866846 0.638481
113 1 0.699495 0.735993 0.650378
114 2 0.788076 0.789569 0.712822
115 2 0.716244 0.275693 0.114286
116 2 0.760176 0.77631 0.724249
117 2 0.446151 0.274312 0.132219
118 2 0.744107 0.78935 0.68753
119 2 0.699549 0.15974 0.60093
120 2 0.739585 0.815256 0.674228
121 2 0.720406 0.762477 0.686535
122 2 0.708053 0.813341 0.669903
123 2 0.729948 0.829278 0.700049
124 2 0.729691 0.842114 0.652378
125 1 0.82529 0.824917 0.627458
126 2 0.694889 0.76062 0.672113
127 2 0.730492 0.812683 0.729229
128 2 0.712911 0.840288 0.711553
129 1 0.115827 0.0152574 0.947211
130 2 0.411566 0.474392 0.679566
131 2 0.714346 0.828774 0.727112
132 2 0.727208 0.788809 0.694543
133 2 0.779044 0.774 0.662421
134 2 0.37903 0.652011 0.309147
135 2 0.733375 0.798226 0.735164
136 2 0.778176 0.81449 0.72855
137 1 0.630338 0.849764 0.741435
138 2 0.714473 0.778143 0.684864
139 2 0.720106 0.83719 0.703665
140 1 0.747589 0.728859 0.600458
141 2 0.709479 0.828617 0.669648
142 2 0.721215 0.849777 0.70251
143 2 0.0222586 0.0617433 0.4401
144 2 0.768701 0.790436 0.733755
145 2 0.769821 0.838343 0.661175
146 2 0.692896 0.755486 0.700178
147 1 0.262578 0.882099 0.410012
148 1 0.712002 0.753915 0.624679
149 2 0.732727 0.780087 0.66634
150 1 0.77519 0.730801 0.709275
151 2 0.703311 0.784394 0.663226
152 2 0.75598 0.812217 0.680506
153 1 0.748471 0.892853 0.722837
154 1 0.417181 0.565894 0.0692761
155 2 0.781669 0.790007 0.679496
156 2 0.757618 0.848813 0.689988
157 2 0.774182 0.83654 0.674896
158 2 0.904564 0.535249 0.857067
159 2 0.711195 0.804785 0.720788
160 2 0.703555 0.790223 0.680911
161 2 0.713932 0.754874 0.66985
162 2 0.718072 0.797028 0.708029
163 2 0.713575 0.759314 0.691329
164 2 0.782475 0.771958 0.679984
165 2 0.743086 0.858373 0.70356
166 2 0.696106 0.823144 0.674535
167 2 0.444419 0.505097 0.277054
168 2 0.746309 0.776631 0.72434
169 2 0.424217 0.579642 0.567049
170 2 0.625384 0.0787811 0.435677
171 2 0.712752 0.803438 0.662091
172 2 0.192159 0.558597 0.467747
173 1 0.688283 0.694005 0.667493
174 2 0.714731 0.807724 0.691958
175 2 0.223503 0.345079 0.435579
176 2 0.700523 0.765297 0.687876
177 1 0.20413 0.958216 0.983583
178 2 0.80333 0.38088 0.157756
179 2 0.784227 0.247811 0.773413
180 2 0.75514 0.7915 0.664937
181 2 0.714058 0.833057 0.740482
182 2 0.727053 0.851108 0.725593
183 2 0.0883226 0.705204 0.473753
184 2 0.712607 0.829617 0.698271
185 2 0.762508 0.796661 0.71359
186 2 0.749161 0.797178 0.693413
187 2 0.802302 0.105146 0.0959656
188 1 0.71517 0.767217 0.775928
189 2 0.718409 0.795711 0.657501
190 2 0.749138 0.827783 0.69522
191 2 0.729217 0.823015 0.732077
192 2 0.666306 0.80777 0.690663
193 2 0.705847 0.810423 0.678755
194 2 0.792611 0.068254 0.0385315
195 2 0.72529 0.752939 0.662697
196 2 0.697454 0.778116 0.676251
197 2 0.786972 0.79371 0.677321
198 2 0.692687 0.473717 0.181745
199 2 0.99546 0.0080169 0.0695488
200 1 0.816214 0.818265 0.719841
201 2 0.721826 0.803281 0.70466
202 2 0.809313 0.424201 0.970298
203 2 0.702064 0.781123 0.672729
204 2 0.709116 0.761847 0.736625
205 2 0.724354 0.842381 0.727479
206 2 0.711851 0.751109 0.705737
207 2 0.0429982 0.277887 0.53163
208 2 0.706665 0.795924 0.743529
209 2 0.745316 0.802491 0.672198
210 2 0.777454 0.780767 0.696436
211 2 0.343931 0.607532 0.650164
212 1 0.694276 0.867107 0.745068
213 2 0.753282 0.773276 0.690294
214 2 0.744686 0.774929 0.705352
215 2 0.746161 0.762939 0.663035
216 2 0.732261 0.774497 0.674075
217 2 0.711864 0.783518 0.702955
218 2 0.711422 0.81533 0.755055
219 2 0.706183 0.849296 0.70186
220 2 0.745093 0.812103 0.738366
221 2 0.716571 0.833125 0.672008
222 2 0.176725 0.0346614 0.28236
223 2 0.738699 0.759588 0.661468
224 2 0.704792 0.818377 0.714366
225 1 0.804721 0.84526 0.699747
226 2 0.700434 0.766712 0.660911
227 2 0.706454 0.772287 0.647194
228 2 0.728062 0.85721 0.69545
229 2 0.717987 0.763433 0.708901
230 1 0.746956 0.881831 0.67714
231 2 0.734931 0.773239 0.692837
232 2 0.742129 0.821596 0.67806
233 1 0.766507 0.731482 0.652838
234 2 0.787398 0.801253 0.72717
235 2 0.761197 0.781263 0.700936
236 2 0.687697 0.842095 0.714711
237 2 0.766253 0.498756 0.950519
238 1 0.444702 0.362924 0.791022
239 1 0.750645 0.749362 0.629832
240 2 0.761414 0.792182 0.692556
241 2 0.692715 0.789903 0.684773
242 1 0.820358 0.787509 0.694228
243 1 0.794482 0.783731 0.641016
244 2 0.780882 0.815354 0.666396
245 2 0.672913 0.811568 0.71831
246 1 0.69614 0.718649 0.724927
247 2 0.746242 0.815922 0.726924
248 2 0.700276 0.790493 0.740518
249 2 0.692816 0.806715 0.724689
250 2 0.68287 0.786488 0.729172
251 2 0.717476 0.768586 0.71758
252 2 0.279138 0.0410985 0.0477665
253 2 0.669798 0.765941 0.702655
254 2 0.735923 0.792598 0.724067
255 2 0.739177 0.763425 0.735037
256 2 0.725068 0.797085 0.735767
257 2 0.703735 0.812279 0.71365
258 2 0.78334 0.825764 0.679318
259 1 0.569339 0.8783 0.152564
260 2 0.733249 0.796778 0.664129
261 1 0.720636 0.70259 0.781795
262 2 0.398013 0.288474 0.78607
263 2 0.745119 0.810174 0.703593
264 2 0.928639 0.425443 0.884374
265 1 0.716629 0.717464 0.676232
266 2 0.768246 0.831132 0.737638
267 2 0.735753 0.793293 0.711406
268 1 0.665785 0.755827 0.651595
269 1 0.336089 0.876933 0.289343
270 2 0.958288 0.936388 0.0846554
271 2 0.575729 0.641889 0.221881
272 2 0.693863 0.807707 0.716823
273 1 0.688868 0.87821 0.697318
274 2 0.741801 0.804032 0.68157
275 2 0.728974 0.802024 0.67788
276 2 0.715133 0.778888 0.697247
277 2 0.757634 0.782291 0.713265
278 2 0.964764 0.211551 0.330159
279 2 0.695069 0.822118 0.734017
280 1 0.717478 0.701352 0.624692
281 2 0.0155941 0.817277 0.118964
282 2 0.723339 0.758473 0.692913
283 2 0.743024 0.459821 0.849823
284 1 0.765531 0.831702 0.766681
285 2 0.730604 0.802058 0.754907
286 2 0.721122 0.774572 0.656106
287 1 0.672755 0.212554 0.0629713
288 2 0.709358 0.802379 0.695529
289 2 0.733853 0.822518 0.687773
290 2 0.706718 0.805934 0.647252
291 2 0.729713 0.846296 0.675079
292 2 0.796801 0.174176 0.694595
293 2 0.738474 0.776705 0.686638
294 2 0.754298 0.767644 0.713865
295 2 0.745109 0.785011 0.739109
296 2 0.111459 0.152309 0.550409
297 2 0.694642 0.834219 0.671103
298 2 0.75036 0.829945 0.672744
299 1 0.674168 0.7401 0.736965
300 2 0.707045 0.819642 0.653187
301 2 0.682373 0.772398 0.729147
302 2 0.551567 0.456527 0.736988
303 2 0.710335 0.776242 0.699961
304 1 0.773885 0.182408 0.116592
305 2 0.710625 0.832555 0.675626
306 2 0.720376 0.790212 0.755419
307 2 0.556211 0.190427 0.8136
308 2 0.364242 0.200786 0.973008
309 2 0.767506 0.752137 0.716101
310 2 0.731014 0.832473 0.689454
311 2 0.757405 0.828997 0.724432
312 2 0.696817 0.764621 0.714829
313 2 0.738349 0.8262 0.727432
314 2 0.477154 0.283382 0.508746
315 2 0.763246 0.785251 0.729994
316 2 0.751281 0.775665 0.686811
317 2 0.711556 0.7957 0.692853
318 2 0.733247 0.548544 0.931783
319 2 0.730265 0.810503 0.687036
320 2 0.757947 0.802212 0.717242
321 2 0.742862 0.846699 0.710385
322 2 0.73502 0.84079 0.734682
323 2 0.852095 0.298932 0.473033
324 2 0.886709 0.220079 0.427718
325 2 0.735916 0.813143 0.676224
326 2 0.698523 0.832367 0.722419
327 2 0.722292 0.74279 0.694809
328 2 0.73216 0.801586 0.701058
329 1 0.661556 0.173943 0.664214
330 2 0.735915 0.799498 0.650138
331 2 0.765236 0.816444 0.712567
332 2 0.726938 0.801311 0.715821
333 2 0.744071 0.847339 0.723934
334 2 0.69636 0.819609 0.689743
335 1 0.195771 0.440569 0.943089
336 2 0.748142 0.766097 0.706765
337 2 0.982451 0.889701 0.407408
338 1 0.656467 0.79218 0.641317
339 2 0.757772 0.817834 0.709705
340 2 0.740768 0.809069 0.744107
341 2 0.707494 0.843059 0.69836
342 2 0.738434 0.811489 0.702983
343 2 0.752084 0.858707 0.704404
344 1 0.761114 0.864839 0.77964
345 1 0.737621 0.772243 0.609987
346 1 0.677268 0.904299 0.661446
347 1 0.541468 0.456123 0.79264
348 2 0.752945 0.741154 0.689046
349 2 0.522079 0.871561 0.248669
350 2 0.885505 0.0286649 0.119549
351 2 0.734881 0.853061 0.722683
352 2 0.679167 0.0253533 0.202766
353 1 0.806401 0.787286 0.608354
354 1 0.612261 0.963717 0.00138593
355 2 0.281247 0.703163 0.509759
356 2 0.747895 0.818322 0.71288
357 2 0.385143 0.810853 0.6755
358 2 0.0597404 0.305055 0.420027
359 2 0.661223 0.895027 0.711045
360 2 0.705832 0.789823 0.725477
361 1 0.701067 0.906664 0.735663
362 2 0.132262 0.059109 0.906426
363 1 0.722565 0.816467 0.821881
364 2 0.733933 0.817734 0.753799
365 2 0.753886 0.765135 0.68488
366 2 0.714015 0.840341 0.695849
367 1 0.418423 0.688416 0.0179367
368 1 0.642477 0.822062 0.720707
369 2 0.346369 0.883216 0.36395
370 2 0.621073 0.89229 0.701443
371 2 0.739765 0.815578 0.656355
372 1 0.796468 0.904018 0.687071
373 2 0.753323 0.836872 0.658156
374 2 0.630032 0.834444 0.101611
375 2 0.758703 0.77516 0.741442
376 2 0.749496 0.753855 0.69223
377 2 0.719033 0.991645 0.603432
378 2 0.719469 0.785272 0.67353
379 2 0.759979 0.82699 0.680445
380 2 0.713844 0.766756 0.692792
381 2 0.724832 0.788935 0.720056
382 2 0.196537 0.566151 0.508337
383 2 0.725429 0.756315 0.664328
384 1 0.998755 0.528441 0.292142
385 2 0.715754 0.827829 0.657846
386 2 0.103123 0.683835 0.526822
387 1 0.126112 0.912676 0.958811
388 2 0.721243 0.817061 0.710833
389 2 0.7573 0.831096 0.714217
390 2 0.677488 0.796049 0.696751
391 2 0.728714 0.793448 0.682515
392 1 0.822367 0.788456 0.763598
393 2 0.969473 0.283231 0.589954
394 2 0.699033 0.763368 0.686767
395 2 0.721121 0.805596 0.749772
396 2 0.695311 0.834268 0.711587
397 2 0.748062 0.778722 0.649258
398 1 0.559232 0.606521 0.601278
399 1 0.811971 0.71383 0.706581
400 1 0.946441 0.442195 0.459417
401 2 0.683229 0.795167 0.662266
402 2 0.795335 0.144692 0.988087
403 2 0.707756 0.84657 0.722
404 2 0.749835 0.810496 0.65657
405 2 0.231525 0.072763 0.145152
406 2 0.746586 0.793458 0.711098
407 2 0.703209 0.919408 0.219283
408 2 0.746397 0.801726 0.676978
409 2 0.675737 0.807441 0.675836
410 2 0.742713 0.741914 0.717637
411 2 0.898095 0.124647 0.621795
412 2 0.235056 0.742591 0.354396
413 2 0.719464 0.795225 0.645262
414 2 0.761503 0.783436 0.662167
415 2 0.704935 0.803836 0.67516
416 1 0.672512 0.845299 0.637125
417 2 0.778446 0.0837294 0.144547
418 2 0.721808 0.774982 0.72247
419 2 0.727387 0.819099 0.743284
420 2 0.230962 0.197716 0.20634
421 1 0.728919 0.869576 0.749967
422 1 0.730435 0.715646 0.718201
423 2 0.706123 0.748935 0.678516
424 2 0.684016 0.787901 0.71335
425 1 0.658813 0.848576 0.695325
426 2 0.232003 0.519535 0.928591
427 2 0.0499007 0.710019 0.89747
428 2 0.457713 0.0868732 0.971616
429 2 0.679707 0.809142 0.710144
430 2 0.736037 0.837227 0.702851
431 2 0.71298 0.784078 0.644908
432 1 0.771009 0.806887 0.783943
433 2 0.481313 0.769731 0.537046
434 1 0.945927 0.354797 0.645249
435 2 0.462449 0.498059 0.992902
436 2 0.763111 0.768851 0.683821
437 2 0.71908 0.115458 0.618953
438 2 0.319642 0.333027 0.24367
439 1 0.637308 0.743296 0.670204
440 2 0.746008 0.818219 0.689551
441 1 0.585345 0.00351416 0.960652
442 1 0.852467 0.834989 0.68487
443 1 0.951806 0.988005 0.897031
444 2 0.757185 0.775389 0.672656
445 2 0.666566 0.148159 0.73
446 2 0.700928 0.815951 0.653224
447 2 0.761344 0.821475 0.67641
448 2 0.276776 0.984579 0.48548
449 1 0.984729 0.849578 0.978273
450 2 0.733836 0.78539 0.68802
451 2 0.738505 0.756856 0.700237
452 2 0.717357 0.757327 0.728268
453 1 0.790836 0.795648 0.757963
454 2 0.723132 0.846564 0.660841
455 2 0.591693 0.476179 0.927183
456 2 0.492978 0.762838 0.110488
457 2 0.720447 0.778764 0.692081
458 2 0.714861 0.766533 0.661019
459 2 0.732214 0.791654 0.747599
460 2 0.771846 0.803835 0.672443
461 2 0.0604983 0.282563 0.760995
462 2 0.739583 0.760642 0.687392
463 1 0.733879 0.849121 0.613204
464 2 0.0616514 0.121472 0.3536
465 2 0.697364 0.801109 0.685825
466 2 0.772254 0.819874 0.659518
467 1 0.729366 0.798049 0.782706
468 2 0.834975 0.63773 0.266987
469 2 0.750299 0.826072 0.735235
470 2 0.721098 0.781932 0.710048
471 2 0.775602 0.776314 0.676833
472 2 0.770648 0.809632 0.687575
473 1 0.79203 0.896783 0.749947
474 1 0.930687 0.516318 0.127319
475 1 0.218545 0.544691 0.981053
476 2 0.733306 0.780097 0.747768
477 2 0.683979 0.811268 0.658029
478 2 0.729866 0.82274 0.672421
479 2 0.895793 0.11358 0.740494
480 2 0.685345 0.821209 0.685244
481 2 0.771449 0.830646 0.693998
482 2 0.0290664 0.975046 0.629643
483 2 0.73594 0.806778 0.659856
484 1 0.711111 0.828292 0.617958
485 1 0.785681 0.744371 0.798001
486 2 0.742548 0.773636 0.644709
487 2 0.751012 0.742742 0.67343
488 2 0.768047 0.800338 0.706082
489 2 0.757138 0.770399 0.654929
490 2 0.739214 0.854831 0.68186
491 2 0.731584 0.787206 0.671126
492 2 0.7744 0.799117 0.738264
493 2 0.762833 0.819516 0.692506
494 2 0.709504 0.798842 0.708789
495 2 0.701477 0.740059 0.690615
496 2 0.73606 0.85289 0.670685
497 2 0.0534715 0.498022 0.853174
498 1 0.802982 0.758971 0.704172
499 2 0.710491 0.814321 0.702798
500 2 0.749357 0.816861 0.66853
501 1 0.75391 0.712169 0.684724
502 2 0.752295 0.796693 0.654894
503 2 0.737369 0.841655 0.681898
504 1 0.685361 0.819189 0.580969
505 2 0.739328 0.852125 0.694839
506 2 0.76168 0.806207 0.699204
507 2 0.72743 0.824929 0.738073
508 2 0.70566 0.776647 0.688643
509 1 0.69186 0.758328 0.757429
510 2 0.698496 0.791004 0.647026
511 2 0.688139 0.8036 0.731635
512 2 0.741003 0.801155 0.696201
513 1 0.342197 0.492932 0.45083
514 2 0.697008 0.810866 0.670621
515 1 0.71279 0.689745 0.70245
516 2 0.692464 0.818538 0.707869
517 1 0.749931 0.778896 0.577045
518 2 0.753715 0.788316 0.688763
519 2 0.701018 0.824324 0.703984
520 2 0.682024 0.811903 0.703681
521 2 0.358947 0.670831 0.522611
522 2 0.747004 0.787298 0.7455
523 2 0.719441 0.810502 0.677847
524 2 0.705853 0.777694 0.750298
525 2 0.765047 0.815705 0.723243
526 2 0.188189 0.739483 0.644878
527 2 0.713021 0.842637 0.683895
528 1 0.489294 0.438859 0.933663
529 2 0.75422 0.809431 0.734452
530 2 0.73829 0.778586 0.697201
531 2 0.710301 0.778242 0.675274
532 2 0.766246 0.766948 0.738447
533 2 0.75389 0.715889 0.388954
534 1 0.6299 0.839431 0.633526
535 2 0.749621 0.818727 0.683572
536 1 0.70022 0.864988 0.642612
537 1 0.673094 0.867325 0.723856
538 2 0.718016 0.840712 0.734326
539 2 0.770555 0.806196 0.695867
540 2 0.359205 0.478798 0.296609
541 1 0.73476 0.719843 0.656731
542 2 0.69577 0.750828 0.691259
543 1 0.0981182 0.220003 0.528701
544 1 0.798477 0.758409 0.652853
545 2 0.782561 0.811437 0.697647
546 2 0.779158 0.797003 0.704798
547 2 0.939493 0.325579 0.715861
548 2 0.747492 0.796449 0.755408
549 2 0.72981 0.735402 0.703363
550 2 0.368783 0.269259 0.140449
551 1 0.826696 0.875741 0.644832
552 2 0.432901 0.789964 0.609229
553 2 0.748852 0.777519 0.697111
554 2 0.717395 0.83281 0.712326
555 1 0.120302 0.391986 0.0251011
556 2 0.05035 0.592601 0.210988
557 2 0.776398 0.806231 0.720126
558 1 0.728357 0.897558 0.696805
559 2 0.747714 0.781243 0.66302
560 2 0.70032 0.833305 0.650862
561 2 0.735875 0.764327 0.691294
562 1 0.764425 0.835387 0.625626
563 2 0.759705 0.817852 0.745638
564 2 0.951766 0.793456 0.507781
565 2 0.728166 0.812102 0.666705
566 2 0.520059 0.320846 0.356449
567 2 0.737492 0.83232 0.657855
568 2 0.748644 0.842207 0.698061
569 1 0.68049 0.863235 0.672931
570 2 0.785628 0.812493 0.68759
571 2 0.302168 0.564031 0.468612
572 2 0.674191 0.802003 0.72444
573 2 0.750557 0.843359 0.681901
574 2 0.850622 0.000693324 0.161981
575 1 0.285177 0.93 0.466962
576 2 0.761603 0.788105 0.68328
577 2 0.720646 0.815008 0.713882
578 1 0.654629 0.749636 0.715199
579 2 0.751484 0.770681 0.734906
580 1 0.611731 0.748136 0.710479
581 2 0.305979 0.0616075 0.919895
582 2 0.704921 0.820474 0.679528
583 1 0.740017 0.020616 0.753143
584 2 0.718007 0.810653 0.73646
585 1 0.737341 0.906573 0.76557
586 2 0.734813 0.777567 0.721871
587 2 0.71976 0.78012 0.678389
588 2 0.974014 0.0243073 0.09269
589 1 0.797543 0.708802 0.656047
590 1 0.654055 0.769203 0.679619
591 1 0.705641 0.728432 0.755126
592 2 0.818814 0.282725 0.0218888
593 2 0.723488 0.818382 0.704404
594 1 0.879367 0.818674 0.0983276
595 1 0.772735 0.410843 0.82628
596 2 0.805478 0.0440729 0.813915
597 1 0.514113 0.738739 0.922614
598 2 0.701182 0.796687 0.750474
599 2 0.721309 0.838479 0.683441
600 2 0.723762 0.875538 0.643251
601 2 0.736713 0.814717 0.712547
602 1 0.77992 0.832425 0.591835
603 2 0.722114 0.801647 0.69596
604 1 0.331882 0.289393 0.224071
605 2 0.712247 0.509908 0.517882
606 2 0.302249 0.79383 0.211969
607 1 0.842636 0.798352 0.726823
608 2 0.121886 0.606619 0.546633
609 2 0.721914 0.809211 0.643985
610 2 0.751462 0.851469 0.664795
611 2 0.684802 0.790802 0.723521
612 1 0.83684 0.984312 0.0996021
613 2 0.82033 0.522255 0.840415
614 1 0.829771 0.127896 0.370114
615 2 0.78671 0.835224 0.211629
616 1 0.641052 0.761247 0.620059
617 2 0.686263 0.815552 0.714988
618 2 0.80561 0.902173 0.0256506
619 2 0.243485 0.745401 0.926131
620 2 0.0455755 0.666289 0.898561
621 2 0.757522 0.770837 0.666317
622 2 0.739995 0.786062 0.647152
623 1 0.450076 0.227104 0.083487
624 2 0.730586 0.780373 0.72704
625 2 0.235589 0.456266 0.569377
626 2 0.64939 0.493088 0.156212
627 2 0.695886 0.767659 0.654425
628 2 0.0735915 0.257308 0.275396
629 2 0.779682 0.794029 0.662119
630 1 0.710305 0.877635 0.718638
631 2 0.740643 0.842063 0.66146
632 2 0.743575 0.78918 0.672451
633 2 0.74653 0.763404 0.678837
634 2 0.839588 0.015933 0.946837
635 2 0.813057 0.441847 0.102882
636 2 0.701395 0.793734 0.719556
637 2 0.710683 0.749492 0.699446
638 1 0.0131311 0.299274 0.30075
639 2 0.722294 0.77918 0.705985
640 2 0.747722 0.757775 0.729592
641 2 0.743434 0.825416 0.657727
642 2 0.762378 0.761277 0.686827
643 2 0.892074 0.601299 0.443006
644 2 0.68331 0.776594 0.670229
645 1 0.801643 0.822039 0.739894
646 2 0.712727 0.820828 0.690529
647 1 0.67396 0.806681 0.75743
648 2 0.429883 0.935358 0.516391
649 2 0.740666 0.790457 0.697691
650 2 0.698234 0.806902 0.729375
651 2 0.770139 0.837457 0.691259
652 2 0.7748 0.815396 0.684333
653 2 0.746198 0.84146 0.735392
654 1 0.793041 0.740122 0.682298
655 2 0.979244 0.973405 0.815004
656 2 0.692731 0.80359 0.665423
657 2 0.117164 0.292281 0.626355
658 2 0.763968 0.838608 0.72754
659 2 0.704533 0.794057 0.672503
660 2 0.341582 0.906894 0.319191
661 1 0.015509 0.528463 0.439826
662 2 0.757013 0.782299 0.736409
663 2 0.694028 0.782493 0.742133
664 1 0.368255 0.865843 0.416702
665 2 0.0111914 0.0566749 0.0209428
666 2 0.717292 0.814787 0.635749
667 2 0.686168 0.798553 0.715405
668 2 0.692043 0.808303 0.693387
669 2 0.21101 0.251688 0.188898
670 1 0.315608 0.777553 0.864169
671 2 0.471915 0.0236641 0.835424
672 1 0.776899 0.813575 0.623182
673 2 0.770375 0.789654 0.684518
674 2 0.730996 0.82328 0.709085
675 2 0.799295 0.235354 0.0946143
676 1 0.861305 0.0584146 0.754065
677 2 0.685171 0.767853 0.718841
678 2 0.710335 0.809143 0.706284
679 1 0.72921 0.968889 0.907957
680 2 0.717949 0.822107 0.694989
681 1 0.745957 0.812585 0.604958
682 1 0.770008 0.70454 0.723851
683 2 0.568574 0.264287 0.132447
684 2 0.322528 0.640947 0.28029
685 2 0.698961 0.834061 0.680052
686 2 0.194082 0.418321 0.467277
687 1 0.691423 0.716266 0.695288
688 2 0.19147 0.514235 0.258214
689 2 0.763313 0.805714 0.721129
690 2 0.743804 0.754275 0.71911
691 2 0.703219 0.83779 0.735614
692 1 0.66813 0.837595 0.742819
693 2 0.746279 0.807318 0.647793
694 2 0.69912 0.778493 0.715129
695 1 0.625106 0.786246 0.729202
696 2 0.470487 0.170648 0.549912
697 2 0.374309 0.557343 0.210326
698 2 0.723186 0.795155 0.724072
699 2 0.723575 0.806879 0.689716
700 1 0.650304 0.759385 0.756842
701 2 0.751371 0.782657 0.714299
702 2 0.740774 0.804182 0.732056
703 2 0.769503 0.752742 0.676698
704 2 0.152654 0.34798 0.563415
705 2 0.737918 0.804053 0.713971
706 2 0.785678 0.782299 0.688794
707 2 0.945288 0.227213 0.942232
708 1 0.807178 0.780399 0.726492
709 2 0.626576 0.497036 0.127021
710 2 0.775507 0.790144 0.718436
711 2 0.697285 0.815365 0.658912
712 1 0.813192 0.826486 0.679736
713 2 0.761319 0.810125 0.655677
714 1 0.796159 0.84897 0.661783
715 2 0.679777 0.800964 0.691396
716 1 0.515401 0.676381 0.913936
717 2 0.706027 0.762802 0.712805
718 2 0.619617 0.272056 0.523555
719 2 0.715505 0.795794 0.683313
720 2 0.768683 0.81998 0.698755
721 2 0.736284 0.831652 0.730359
722 1 0.0773586 0.967164 0.659914
723 2 0.019123 0.319562 0.431415
724 2 0.694704 0.779017 0.722419
725 2 0.187035 0.857824 0.146995
726 2 0.730614 0.829215 0.678646
727 1 0.0495423 0.265222 0.925967
728 1 0.833362 0.189813 0.176828
729 1 0.738092 0.827163 0.780147
730 1 0.694534 0.841345 0.766565
731 2 0.765691 0.817237 0.737317
732 1 0.534772 0.759663 0.294666
733 2 0.699876 0.851361 0.673428
734 2 0.694135 0.810681 0.744645
735 2 0.779378 0.824283 0.71604
736 1 0.720217 0.742944 0.800108
737 2 0.734578 0.764773 0.713478
738 2 0.671916 0.792786 0.680554
739 2 0.730835 0.796577 0.751067
740 2 0.767986 0.776583 0.688234
741 2 0.709847 0.778345 0.728269
742 1 0.654971 0.833727 0.661212
743 2 0.75753 0.794584 0.698672
744 2 0.733859 0.768882 0.675384
745 2 0.690388 0.813618 0.678498
746 1 0.668582 0.700986 0.748552
747 2 0.858655 0.135401 0.186491
748 2 0.746116 0.808747 0.711548
749 2 0.764059 0.826794 0.700289
750 2 0.456243 0.10166 0.228199
751 2 0.70332 0.821189 0.746736
752 2 0.68402 0.777164 0.710505
753 2 0.745905 0.76656 0.745687
754 2 0.927305 0.417941 0.364958
755 2 0.719872 0.780197 0.716929
756 2 0.748284 0.826347 0.644544
757 2 0.752873 0.816588 0.721186
758 2 0.701244 0.84296 0.718389
759 2 0.681229 0.820172 0.699934
760 1 0.326658 0.812194 0.138796
761 2 0.705427 0.790775 0.73374
762 2 0.718788 0.761775 0.649491
763 1 0.50885 0.890523 0.492733
764 2 0.703335 0.773787 0.698799
765 2 0.684279 0.795223 0.651348
766 2 0.720881 0.855171 0.682539
767 2 0.223203 0.105972 0.00833343
768 2 0.725826 0.765239 0.737078
769 2 0.716427 0.826088 0.689268
770 2 0.747872 0.837169 0.725934
771 2 0.0972618 0.768427 0.344382
772 2 0.512482 0.797928 -0.00277094
773 1 0.823743 0.737367 0.737706
774 2 0.23593 0.0227462 0.464337
775 2 0.648113 0.289891 0.686005
776 2 0.74418 0.79139 0.66021
777 1 0.641908 0.792304 0.700642
778 2 0.7755 0.851383 0.698
779 2 0.954678 0.200553 0.952671
780 1 0.762426 0.786062 0.619786
781 2 0.692827 0.787092 0.705117
782 2 0.779311 0.291535 0.151649
783 1 0.673164 0.737632 0.674698
784 2 0.757705 0.811565 0.644477
785 2 0.751301 0.835819 0.677065
786 1 0.761979 0.776058 0.771891
787 2 0.773449 0.773291 0.699392
788 2 0.751602 0.834017 0.704729
789 2 0.383727 0.902135 0.104249
790 2 0.681858 0.838863 0.704969
791 1 0.791682 0.763719 0.747683
792 2 0.769631 0.77829 0.719534
793 2 0.22452 0.386941 0.422595
794 2 0.734488 0.787627 0.709253
795 2 0.723078 0.802546 0.694732
796 2 0.669494 0.783489 0.709033
797 2 0.734603 0.779738 0.658311
798 2 0.987365 0.775362 0.471894
799 2 0.726962 0.789203 0.703545
800 2 0.0132127 0.494514 0.228033
801 2 0.694943 0.801706 0.693969
802 2 0.674427 0.819284 0.682779
803 2 0.765733 0.807234 0.74268
804 2 0.54726 0.521547 0.530733
805 2 0.875613 0.319634 0.652854
806 1 0.104714 0.00521724 0.28946
807 2 0.724748 0.768545 0.718921
808 2 0.711253 0.809248 0.728529
809 1 0.77972 0.741105 0.737193
810 2 0.729135 0.785919 0.643809
811 2 0.725683 0.790862 0.658019
812 2 0.75079 0.802641 0.740227
813 1 0.472001 0.394502 0.981892
814 2 0.77555 0.784949 0.703641
815 2 0.727992 0.776898 0.656835
816 1 0.810814 0.796958 0.667405
817 1 0.72596 0.844785 0.761559
818 2 0.788871 0.815013 0.712074
819 1 0.784005 0.867479 0.680689
820 1 0.621346 0.788714 0.65983
821 2 0.687718 0.798319 0.673761
822 2 0.676393 0.785808 0.666149
823 1 0.7981 0.827686 0.647619
824 2 0.82776 0.616483 0.89108
825 2 0.732132 0.839571 0.665256
826 2 0.755481 0.408663 0.508113
827 1 0.649269 0.875224 0.680484
828 2 0.782019 0.808801 0.667599
829 2 0.733482 0.745884 0.676559
830 2 0.41313 0.0971403 0.596336
831 1 0.692555 0.766228 0.584126
832 2 0.741427 0.750629 0.68089
833 1 0.771431 0.860938 0.645466
834 2 0.726179 0.800478 0.648001
835 2 0.752083 0.277678 0.988729
836 2 0.735147 0.824351 0.715775
837 2 0.741319 0.77257 0.789109
838 2 0.722604 0.791437 0.708738
839 2 0.919764 0.837974 0.936248
840 2 0.683149 0.760155 0.686455
841 2 0.701724 0.856689 0.689426
842 2 0.692801 0.0420434 0.488792
843 2 0.752345 0.81293 0.695576
844 2 0.745593 0.772968 0.681006
845 2 0.74343 0.782841 0.682053
846 2 0.758836 0.802835 0.727622
847 2 0.769254 0.784051 0.667936
848 2 0.744186 0.765333 0.648494
849 1 0.662031 0.841823 0.790964
850 2 0.7638 0.81541 0.660439
851 2 0.688486 0.782036 0.687723
852 2 0.723536 0.766167 0.671537
853 1 0.657843 0.790289 0.736706
854 2 0.332907 0.709639 0.756735
855 2 0.773055 0.768391 0.716513
856 2 0.730566 0.827843 0.648511
857 2 0.683511 0.78283 0.683311
858 2 0.761449 0.79892 0.654035
859 2 0.720001 0.835971 0.657682
860 2 0.546767 0.202626 0.541058
861 2 0.750762 0.829768 0.712851
862 2 0.555769 0.132516 0.445311
863 2 0.728007 0.802445 0.710166
864 2 0.706935 0.821493 0.742724
865 2 0.754337 0.786892 0.704841
866 2 0.733273 0.795796 0.692332
867 2 0.0654323 0.190972 0.0827495
868 2 0.76036 0.796401 0.746575
869 2 0.760834 0.837227 0.683891
870 2 0.748347 0.791527 0.641213
871 2 0.704585 0.773877 0.718624
872 2 0.676897 0.780124 0.694455
873 2 0.756364 0.759842 0.719361
874 2 0.783848 0.799157 0.696823
875 2 0.37047 0.70856 0.551531
876 2 0.694189 0.827564 0.657892
877 2 0.698525 0.810209 0.706723
878 2 0.700823 0.835977 0.694117
879 2 0.710782 0.784156 0.661618
880 2 0.582055 0.294805 0.961576
881 2 0.749287 0.795024 0.66978
882 1 0.0884442 0.288218 0.978367
883 1 0.525874 0.748795 0.179054
884 2 0.237587 0.539345 0.591516
885 2 0.716988 0.796168 0.743366
886 2 0.762844 0.759784 0.704902
887 1 0.647637 0.33075 0.0467227
888 2 0.13444 0.705423 0.372534
889 2 0.335643 0.271221 0.926899
890 1 0.624863 0.823976 0.686921
891 2 0.767313 0.534716 0.824657
892 2 0.75804 0.803566 0.681528
893 2 0.705377 0.786287 0.712579
894 2 0.696148 0.796589 0.659529
895 1 0.816678 0.758895 0.676468
896 2 0.704914 0.835893 0.66058
897 2 0.729221 0.856155 0.71867
898 2 0.732875 0.754058 0.72331
899 2 0.975197 0.709844 0.600015
900 2 0.728803 0.776165 0.706962
901 2 0.733487 0.767761 0.707975
902 2 0.749659 0.801177 0.711041
903 2 0.710124 0.823647 0.727865
904 2 0.7112 0.798843 0.72527
905 2 0.738317 0.823219 0.647596
906 2 0.746245 0.829923 0.747723
907 2 0.772498 0.822269 0.717634
908 1 0.739283 0.7289 0.743406