ITEM: TIMESTEP
62300
ITEM: NUMBER OF ATOMS
1000
ITEM: BOX BOUNDS xy xz yz pp pp pp
0.0000000000000000e+00 1.3572088000000001e+01 0.0000000000000000e+00
0.0000000000000000e+00 1.3572088000000001e+01 0.0000000000000000e+00
0.0000000000000000e+00 1.3572088000000001e+01 0.0000000000000000e+00
ITEM: ATOMS id type xs ys zs
1 2 0.607677 0.314459 0.256562
2 2 0.854378 0.677802 0.609784
3 1 0.573931 0.835431 0.814806
4 2 0.217352 0.592958 0.553369
5 2 0.600669 0.887246 0.720238
6 1 0.64497 0.908869 0.682869
7 2 0.584006 0.872679 0.807381
8 2 0.782972 0.719665 0.627386
9 2 0.0782784 0.105462 0.342281
10 2 0.608894 0.891517 0.717056
11 2 0.804247 0.730188 0.669692
12 2 0.624372 0.829258 0.766615
13 2 0.85506 0.708702 0.673528
14 1 0.906907 0.579775 0.644878
15 2 0.85819 0.748425 0.640442
16 2 0.371197 0.600765 0.84343
17 1 0.830733 0.805334 0.612338
18 2 0.802714 0.731094 0.648157
19 2 0.414611 0.24336 0.573676
20 2 0.562607 0.851739 0.773997
21 2 0.629981 0.86517 0.709034
22 2 0.462304 0.781852 0.35124
23 2 0.38597 0.282487 0.178979
24 2 0.841549 0.666826 0.651506
25 1 0.951018 0.690313 0.278243
26 2 0.86931 0.751768 0.591269
27 2 0.624901 0.882959 0.800927
28 2 0.630266 0.889701 0.761883
29 2 0.0104744 0.727146 0.929538
30 2 0.550164 0.87478 0.751906
31 1 0.587574 0.782883 0.753739
32 1 0.657376 0.950032 0.725221
33 1 0.715757 0.760121 0.699162
34 2 0.807328 0.702748 0.673697
35 2 0.877439 0.673436 0.637171
36 1 0.594026 0.813753 0.702881
37 2 0.853409 0.735234 0.69141
38 2 0.59005 0.89603 0.767279
39 2 0.261143 0.549818 0.724842
40 2 0.623212 0.849493 0.779049
41 2 0.597211 0.879686 0.753221
42 2 0.618552 0.910816 0.761971
43 2 0.377575 0.757876 0.0940306
44 2 0.295741 0.214686 0.179551
45 2 0.874078 0.762561 0.655611
46 1 0.568352 0.175212 0.17583
47 2 0.868836 0.712255 0.680588
48 2 0.606877 0.850647 0.751941
49 2 0.210998 0.55653 0.857169
50 2 0.824922 0.731503 0.669284
51 2 0.154813 0.318665 0.806029
52 2 0.814396 0.49641 0.754444
53 2 0.92288 0.9971 0.0450015
54 2 0.59705 0.822594 0.728377
55 1 0.87189 0.690604 0.725597
56 1 0.61962 0.792794 0.689855
57 2 0.602581 0.856816 0.788413
58 2 0.563753 0.881086 0.784903
59 2 0.887269 0.750752 0.624498
60 2 0.603715 0.894907 0.743258
61 2 0.659797 0.695949 0.16786
62 2 0.582255 0.906953 0.72822
63 2 0.861937 0.658256 0.637065
64 2 0.811382 0.740769 0.677531
65 2 0.848468 0.749119 0.614448
66 1 0.918103 0.78734 0.64625
67 2 0.556319 0.871874 0.776225
68 2 0.598608 0.888538 0.767902
69 1 0.592908 0.96921 0.764227
70 2 0.885735 0.746985 0.635455
71 1 0.569619 0.867281 0.669542
72 2 0.68878 0.412765 0.768212
73 2 0.560592 0.901213 0.739521
74 2 0.571786 0.860228 0.737843
75 2 0.0715946 0.0339631 0.80193
76 2 0.582309 0.878542 0.746169
77 1 0.931487 0.748347 0.644354
78 2 0.750339 0.0886617 0.706532
79 2 0.565093 0.918358 0.780731
80 2 0.257121 0.916277 0.774458
81 2 0.551025 0.872775 0.729169
82 2 0.833644 0.714274 0.595099
83 2 0.666384 0.0398266 0.717434
84 2 0.589803 0.838086 0.736311
85 1 0.587358 0.775863 0.715862
86 2 0.838302 0.736 0.616822
87 2 0.59845 0.884299 0.700023
88 2 0.866283 0.725993 0.59771
89 2 0.629558 0.908324 0.791143
90 2 0.631005 0.878558 0.796536
91 2 0.664373 0.546864 0.179629
92 2 0.888271 0.745932 0.656995
93 2 0.803751 0.720515 0.650205
94 1 0.108372 0.935748 0.483086
95 2 0.0695189 0.635936 0.919322
96 2 0.608177 0.926519 0.74966
97 2 0.84885 0.625523 0.691473
98 2 0.92168 0.626912 0.772004
99 2 0.337831 0.521363 0.809426
100 2 0.671443 0.291349 0.682515
101 1 0.513812 0.482708 0.544313
102 2 0.313159 0.465936 0.627139
103 2 0.884793 0.686778 0.66237
104 2 0.578334 0.850826 0.780671
105 2 0.805978 0.728694 0.630875
106 2 0.233718 0.767746 0.502194
107 2 0.474632 0.568428 0.800949
108 2 0.845644 0.765762 0.590702
109 2 0.837451 0.721342 0.601155
110 2 0.634703 0.874086 0.774032
111 2 0.94831 0.684774 0.376284
112 1 0.821494 0.734373 0.552166
113 1 0.762018 0.718123 0.602275
114 2 0.879356 0.704973 0.671017
115 2 0.188949 0.995141 0.605964
116 2 0.853279 0.724808 0.675382
117 2 0.785272 0.425718 0.975893
118 2 0.823423 0.704366 0.66494
119 2 0.688546 0.685979 0.0525906
120 2 0.860458 0.746627 0.62497
121 2 0.583804 0.861122 0.76063
122 2 0.585745 0.872875 0.724702
123 2 0.84196 0.732519 0.650059
124 2 0.819917 0.760148 0.620076
125 1 0.92674 0.723696 0.604939
126 2 0.583585 0.890922 0.734942
127 2 0.836724 0.775845 0.650981
128 2 0.611894 0.0851725 0.63345
129 1 0.331221 0.893162 0.0239271
130 2 0.68129 0.838445 0.374296
131 2 0.640347 0.888002 0.70591
132 2 0.626676 0.869476 0.728905
133 2 0.843584 0.704564 0.665135
134 2 0.174353 0.632626 0.537715
135 2 0.644828 0.919 0.75755
136 2 0.879352 0.758977 0.651097
137 1 0.549809 0.888197 0.686029
138 2 0.603634 0.870987 0.768549
139 2 0.623982 0.862055 0.741147
140 1 0.812085 0.774823 0.565082
141 2 0.859039 0.758264 0.6157
142 2 0.799591 0.756716 0.663827
143 2 0.524465 0.376357 0.0640076
144 2 0.830554 0.48075 0.796668
145 2 0.890837 0.698336 0.622276
146 2 0.591906 0.896982 0.795655
147 1 0.338571 0.0651115 0.395684
148 1 0.809533 0.70382 0.565115
149 2 0.602946 0.831905 0.754144
150 1 0.881715 0.640548 0.658788
151 2 0.595665 0.86597 0.735072
152 2 0.858278 0.739917 0.617775
153 1 0.793565 0.799743 0.625826
154 1 0.294737 0.651448 0.332309
155 2 0.861536 0.511853 0.593207
156 2 0.884759 0.772969 0.62689
157 2 0.903768 0.737927 0.616263
158 2 0.055458 0.09409 0.786132
159 2 0.626841 0.926435 0.742051
160 2 0.595869 0.890907 0.735042
161 2 0.578758 0.836789 0.744694
162 2 0.65109 0.907683 0.742092
163 2 0.601231 0.839322 0.799885
164 2 0.870011 0.701967 0.657577
165 2 0.857481 0.788317 0.630808
166 2 0.588679 0.888996 0.72198
167 2 0.465624 0.897163 0.158836
168 2 0.644024 0.842755 0.765356
169 2 0.0993068 0.0720683 0.744957
170 2 0.792657 0.179983 0.780849
171 2 0.892477 0.70121 0.601898
172 2 0.225166 0.252267 0.49353
173 1 0.773874 0.689348 0.656854
174 2 0.608071 0.857161 0.701346
175 2 0.634524 0.0966502 0.272968
176 2 0.595717 0.903746 0.805707
177 1 0.333768 0.122678 0.967831
178 2 0.741539 0.417376 0.324337
179 2 0.579761 0.673397 0.24636
180 2 0.848227 0.713569 0.638466
181 2 0.650109 0.891994 0.725027
182 2 0.637403 0.0307791 0.681677
183 2 0.33814 0.425433 0.990735
184 2 0.591775 0.911172 0.706365
185 2 0.831748 0.748775 0.665762
186 2 0.819856 0.709499 0.624964
187 2 0.804577 0.203529 0.103905
188 1 0.617572 0.944053 0.817321
189 2 0.592119 0.851146 0.744691
190 2 0.867765 0.742659 0.631198
191 2 0.633546 0.891419 0.750568
192 2 0.586882 0.903547 0.713521
193 2 0.61409 0.859203 0.72131
194 2 0.934305 0.78445 0.356604
195 2 0.57054 0.849845 0.708952
196 2 0.575032 0.859111 0.765143
197 2 0.888825 0.682715 0.644876
198 2 0.853561 0.556804 0.0184302
199 2 0.00485183 0.384547 0.229063
200 1 0.903216 0.721935 0.705474
201 2 0.703681 0.0940108 0.862865
202 2 0.805743 0.330115 0.969031
203 2 0.563677 0.891753 0.747956
204 2 0.584809 0.929441 0.815115
205 2 0.613362 0.941883 0.746975
206 2 0.510479 0.95474 0.00919301
207 2 0.989744 0.107382 0.3412
208 2 0.866889 0.133732 0.540688
209 2 0.864852 0.714518 0.639433
210 2 0.853159 0.725978 0.607791
211 2 0.613774 0.503934 0.63365
212 1 0.626357 0.858921 0.667586
213 2 0.805135 0.685352 0.66132
214 2 0.816613 0.72751 0.654001
215 2 0.815239 0.681416 0.616142
216 2 0.623252 0.847363 0.736532
217 2 0.588705 0.869595 0.771263
218 2 0.348957 0.995681 0.748179
219 2 0.605739 0.908589 0.705792
220 2 0.847497 0.746591 0.679595
221 2 0.811581 0.715996 0.606202
222 2 0.888346 0.809682 0.130772
223 2 0.848615 0.673159 0.635316
224 2 0.59105 0.882124 0.755274
225 1 0.920917 0.773577 0.687997
226 2 0.5724 0.833228 0.738698
227 2 0.561707 0.846351 0.735005
228 2 0.895761 0.754564 0.645244
229 2 0.579471 0.897928 0.763286
230 1 0.851389 0.829141 0.564971
231 2 0.617791 0.874105 0.695164
232 2 0.848473 0.752363 0.626888
233 1 0.838355 0.630459 0.63345
234 2 0.904198 0.721401 0.640154
235 2 0.851102 0.680161 0.667878
236 2 0.610982 0.89614 0.703438
237 2 0.0665487 0.361796 0.87791
238 1 0.541074 0.293136 0.6513
239 1 0.74351 0.660426 0.649625
240 2 0.846562 0.698503 0.655588
241 2 0.549452 0.8643 0.759831
242 1 0.91775 0.685028 0.677191
243 1 0.937762 0.704148 0.642203
244 2 0.885557 0.717635 0.652728
245 2 0.0979816 0.849775 0.250478
246 1 0.645116 0.862304 0.829265
247 2 0.820296 0.727079 0.689441
248 2 0.638378 0.980845 0.756229
249 2 0.606673 0.890793 0.794294
250 2 0.611996 0.900248 0.754518
251 2 0.62436 0.899315 0.80806
252 2 0.75411 0.774783 0.233495
253 2 0.28353 0.329851 0.223118
254 2 0.614184 0.964208 0.684198
255 2 0.642701 0.876766 0.788732
256 2 0.634651 0.845462 0.72649
257 2 0.625311 0.904542 0.72679
258 2 0.884698 0.72316 0.655558
259 1 0.600808 0.201437 0.280594
260 2 0.828138 0.702308 0.59178
261 1 0.681423 0.845466 0.759598
262 2 0.433415 0.06131 0.394842
263 2 0.829346 0.741678 0.651143
264 2 0.855452 0.129093 0.452069
265 1 0.760136 0.816364 0.616027
266 2 0.848822 0.786615 0.654544
267 2 0.614901 0.830648 0.735487
268 1 0.527677 0.793729 0.807768
269 1 0.170907 0.0405631 0.257716
270 2 0.918932 0.324094 0.0291536
271 2 0.233299 0.00243502 0.463595
272 2 0.299558 0.517645 0.0456192
273 1 0.827616 0.798297 0.685395
274 2 0.804525 0.756785 0.623179
275 2 0.832952 0.685196 0.613999
276 2 0.587401 0.851556 0.771605
277 2 0.870872 0.709741 0.65365
278 2 0.0250204 0.0983581 0.284592
279 2 0.592142 0.93301 0.72839
280 1 0.531124 0.830233 0.742936
281 2 0.558772 0.339011 0.298509
282 2 0.607413 0.886023 0.752213
283 2 0.931286 0.218577 0.140992
284 1 0.656027 0.841732 0.683809
285 2 0.599593 0.915595 0.757673
286 2 0.558238 0.857635 0.705132
287 1 0.882437 0.237614 0.230252
288 2 0.617356 0.878706 0.736577
289 2 0.83811 0.786758 0.664852
290 2 0.816816 0.768274 0.593634
291 2 0.843682 0.784709 0.634961
292 2 0.273972 0.813631 0.715009
293 2 0.831442 0.726314 0.638868
294 2 0.792527 0.721848 0.660094
295 2 0.809277 0.732283 0.688018
296 2 0.634771 0.7096 0.0836477
297 2 0.570071 0.8971 0.718977
298 2 0.865815 0.729254 0.615144
299 1 0.648976 0.833369 0.795939
300 2 0.570758 0.889788 0.736532
301 2 0.608403 0.916586 0.793672
302 2 0.563968 0.505017 0.263996
303 2 0.614878 0.870517 0.802457
304 1 0.918395 0.884888 0.176073
305 2 0.598536 0.866809 0.713794
306 2 0.641006 0.900737 0.77711
307 2 0.73586 0.882011 0.0147366
308 2 0.457986 0.704689 0.962481
309 2 0.803937 0.707605 0.657556
310 2 0.803076 0.749893 0.601668
311 2 0.876244 0.756922 0.620926
312 2 0.598645 0.909307 0.778176
313 2 0.81833 0.74341 0.668579
314 2 0.420976 0.785701 0.611686
315 2 0.864809 0.724105 0.67377
316 2 0.832063 0.669658 0.639832
317 2 0.62992 0.836369 0.748656
318 2 0.161543 0.281624 0.471849
319 2 0.81594 0.727484 0.616857
320 2 0.838062 0.732372 0.659104
321 2 0.824962 0.778179 0.624311
322 2 0.821356 0.78579 0.640625
323 2 0.737343 0.346032 0.605792
324 2 0.263611 0.98728 0.906751
325 2 0.839727 0.768554 0.616226
326 2 0.621005 0.900709 0.719221
327 2 0.677232 0.69277 0.95368
328 2 0.822656 0.716885 0.679778
329 1 0.0568681 0.946549 0.657846
330 2 0.857875 0.728675 0.619768
331 2 0.846266 0.729113 0.637292
332 2 0.642206 0.86332 0.71865
333 2 0.780405 0.0350275 0.528873
334 2 0.588173 0.919456 0.737855
335 1 0.268659 0.655373 0.797141
336 2 0.798644 0.700171 0.647922
337 2 0.631406 0.243924 0.0679439
338 1 0.532541 0.910719 0.719448
339 2 0.845668 0.74533 0.665981
340 2 0.966288 0.231229 0.956791
341 2 0.582629 0.896198 0.708292
342 2 0.828306 0.746863 0.640311
343 2 0.8582 0.732092 0.63489
344 1 0.530295 0.927723 0.819748
345 1 0.823828 0.666992 0.570502
346 1 0.595981 0.854873 0.639562
347 1 0.79712 0.384186 0.0222963
348 2 0.0460069 0.951795 0.854135
349 2 0.795622 0.612319 0.365316
350 2 0.290462 0.259507 0.285095
351 2 0.813767 0.77372 0.613627
352 2 0.268662 0.0686432 0.250379
353 1 0.883878 0.712292 0.568708
354 1 0.177002 0.00214888 0.199728
355 2 0.237659 0.699775 0.00150927
356 2 0.856781 0.765475 0.654032
357 2 0.141448 0.29209 0.831125
358 2 0.202838 0.0927846 0.460416
359 2 0.251356 0.375572 0.249319
360 2 0.614 0.860364 0.752344
361 1 0.58402 0.94899 0.791879
362 2 0.14028 0.278845 0.764331
363 1 0.674799 0.908172 0.721835
364 2 0.625153 0.929091 0.723338
365 2 0.826289 0.700682 0.624687
366 2 0.815528 0.759183 0.607199
367 1 0.599716 0.589627 0.633994
368 1 0.548205 0.955565 0.775626
369 2 0.733781 0.636901 0.193169
370 2 0.936938 0.905234 0.0515097
371 2 0.82278 0.675288 0.605866
372 1 0.860812 0.82656 0.625036
373 2 0.917063 0.255726 0.814447
374 2 0.183737 0.436112 0.356583
375 2 0.634651 0.928388 0.749689
376 2 0.671537 0.870596 0.818531
377 2 0.0372994 0.413148 0.0328261
378 2 0.597731 0.859754 0.720537
379 2 0.887383 0.72597 0.62336
380 2 0.614119 0.841463 0.757309
381 2 0.611059 0.88142 0.778296
382 2 0.779704 0.378723 0.316247
383 2 0.645305 0.746474 0.813982
384 1 0.11361 0.384507 0.882234
385 2 0.818879 0.732085 0.594641
386 2 0.947656 0.0860746 0.114061
387 1 0.604776 0.711782 0.0696802
388 2 0.61481 0.908593 0.74131
389 2 0.856229 0.751642 0.66915
390 2 0.595459 0.941022 0.744498
391 2 0.64826 0.756148 0.759329
392 1 0.774959 0.741356 0.68379
393 2 0.606493 0.852788 0.0645572
394 2 0.599538 0.850513 0.768745
395 2 0.614837 0.868136 0.709307
396 2 0.628059 0.891891 0.733912
397 2 0.861564 0.693037 0.597478
398 1 0.675719 0.466445 0.720081
399 1 0.817397 0.645092 0.680759
400 1 0.968754 0.693038 0.340315
401 2 0.591566 0.869765 0.695471
402 2 0.612889 0.346165 0.643991
403 2 0.593973 0.457955 0.434228
404 2 0.85702 0.691286 0.646511
405 2 0.449734 0.105 0.107972
406 2 0.609116 0.842567 0.736206
407 2 0.619902 0.959696 0.228641
408 2 0.823682 0.725793 0.620543
409 2 0.604406 0.926433 0.767966
410 2 0.835613 0.719887 0.664317
411 2 0.644505 0.0438682 0.298336
412 2 0.0011766 0.501912 0.229258
413 2 0.859363 0.704319 0.615346
414 2 0.968499 0.855049 0.503938
415 2 0.577237 0.839319 0.724239
416 1 0.772751 0.785027 0.578733
417 2 0.13811 0.652102 0.174598
418 2 0.652022 0.863695 0.74418
419 2 0.685462 0.993271 0.894738
420 2 0.179498 0.657297 0.917226
421 1 0.629287 0.893844 0.648547
422 1 0.614229 0.793849 0.771854
423 2 0.609559 0.85713 0.77434
424 2 0.579272 0.876081 0.77151
425 1 0.585279 0.90563 0.669312
426 2 0.0893142 0.541396 0.561079
427 2 0.558527 0.461616 0.936559
428 2 0.0347265 0.19179 0.919964
429 2 0.578466 0.896819 0.773028
430 2 0.804978 0.756567 0.649393
431 2 0.805053 0.729557 0.591118
432 1 0.685992 0.886265 0.797301
433 2 0.709509 0.478188 0.5887
434 1 0.166931 0.133747 0.543552
435 2 0.804341 0.502638 0.0283392
436 2 0.863089 0.679789 0.652362
437 2 0.764206 0.348799 0.826541
438 2 0.20656 0.680694 0.434848
439 1 0.538525 0.832745 0.789794
440 2 0.834047 0.761208 0.641591
441 1 0.645507 0.977003 0.0667145
442 1 0.923889 0.654333 0.636113
443 1 0.970468 0.456079 0.0516812
444 2 0.849878 0.698938 0.633355
445 2 0.214252 0.797279 0.784331
446 2 0.642873 0.946027 0.891999
447 2 0.875449 0.690535 0.652636
448 2 0.783332 0.914098 0.470389
449 1 0.75358 0.371912 0.0998541
450 2 0.802155 0.721899 0.626491
451 2 0.627892 0.852427 0.751554
452 2 0.600919 0.842067 0.767647
453 1 0.69047 0.877882 0.750399
454 2 0.826696 0.744466 0.602327
455 2 0.485144 0.462554 0.323394
456 2 0.83706 0.357874 0.979078
457 2 0.63201 0.829337 0.713385
458 2 0.586512 0.841243 0.76514
459 2 0.624056 0.900675 0.780156
460 2 0.887504 0.686056 0.628455
461 2 0.367014 0.277793 0.681069
462 2 0.83885 0.717249 0.643599
463 1 0.760874 0.699096 0.562951
464 2 0.349709 0.0199435 0.408598
465 2 0.559936 0.882235 0.740273
466 2 0.879906 0.713703 0.623576
467 1 0.641604 0.947923 0.773745
468 2 0.296393 0.305617 0.845713
469 2 0.865231 0.775234 0.652606
470 2 0.634786 0.88737 0.737421
471 2 0.826352 0.680997 0.664181
472 2 0.855185 0.737631 0.656752
473 1 0.806659 0.749439 0.717976
474 1 0.512485 0.231001 0.290649
475 1 0.159087 0.328503 0.736099
476 2 0.661203 0.882509 0.762841
477 2 0.572971 0.871326 0.724991
478 2 0.868659 0.748789 0.609457
479 2 0.866624 0.965397 0.375009
480 2 0.58418 0.916096 0.721343
481 2 0.861541 0.740054 0.670429
482 2 0.911724 0.931243 0.0491021
483 2 0.848523 0.729118 0.617092
484 1 0.852583 0.699063 0.559361
485 1 0.676855 0.929896 0.80229
486 2 0.803697 0.710882 0.612557
487 2 0.201444 0.675772 0.389902
488 2 0.868015 0.719845 0.666148
489 2 0.879199 0.690303 0.607317
490 2 0.858142 0.78059 0.623944
491 2 0.823578 0.695239 0.6368
492 2 0.858256 0.770206 0.674483
493 2 0.890128 0.715908 0.635116
494 2 0.603225 0.920135 0.726558
495 2 0.607279 0.89988 0.792399
496 2 0.867487 0.714381 0.618005
497 2 0.636298 0.564181 0.215317
498 1 0.835628 0.667364 0.753296
499 2 0.614158 0.86623 0.757853
500 2 0.255758 0.000241699 0.595319
501 1 0.793123 0.675646 0.688036
502 2 0.835111 0.70381 0.601745
503 2 0.836195 0.770389 0.631245
504 1 0.52059 0.867112 0.708426
505 2 0.861937 0.769643 0.627751
506 2 0.857498 0.715402 0.630719
507 2 0.605934 0.919352 0.720084
508 2 0.590873 0.877896 0.743444
509 1 0.648409 0.910891 0.819726
510 2 0.815003 0.699505 0.609682
511 2 0.590411 0.920219 0.789875
512 2 0.832396 0.71209 0.655204
513 1 0.268227 0.847226 0.326499
514 2 0.581486 0.899132 0.747251
515 1 0.558254 0.810778 0.767083
516 2 0.607505 0.899847 0.727666
517 1 0.779339 0.680494 0.613185
518 2 0.847284 0.722904 0.689602
519 2 0.628576 0.887656 0.707499
520 2 0.568707 0.933051 0.746325
521 2 0.981824 0.38076 0.35885
522 2 0.147144 0.0649474 0.545828
523 2 0.794238 0.732967 0.618709
524 2 0.637215 0.978051 0.786364
525 2 0.821021 0.760663 0.627385
526 2 0.532317 0.432129 0.19848
527 2 0.803352 0.762166 0.633261
528 1 0.535214 0.453102 0.424094
529 2 0.862812 0.740521 0.680804
530 2 0.833028 0.778367 0.623936
531 2 0.593415 0.836853 0.777559
532 2 0.64205 0.846625 0.741412
533 2 0.429134 0.757919 0.172029
534 1 0.571238 0.942898 0.70641
535 2 0.848485 0.738187 0.641309
536 1 0.781887 0.753705 0.577908
537 1 0.606114 0.937925 0.676332
538 2 0.754219 0.239795 0.920942
539 2 0.89905 0.714504 0.623326
540 2 0.501159 0.506547 0.202458
541 1 0.802644 0.653958 0.645381
542 2 0.606033 0.86111 0.795391
543 1 0.230422 0.185368 0.536832
544 1 0.851237 0.651988 0.60348
545 2 0.88963 0.7437 0.679532
546 2 0.884085 0.730699 0.665599
547 2 0.341031 0.210254 0.46591
548 2 0.648973 0.839838 0.73037
549 2 0.606956 0.845668 0.785567
550 2 0.587283 0.219871 0.390778
551 1 0.883106 0.792925 0.69248
552 2 0.310484 0.916606 0.75625
553 2 0.844736 0.707134 0.681237
554 2 0.644778 0.874913 0.705037
555 1 0.970043 0.298252 0.978688
556 2 0.738515 0.269601 0.0679311
557 2 0.842841 0.743304 0.65046
558 1 0.863284 0.806996 0.662947
559 2 0.86654 0.693071 0.619187
560 2 0.581586 0.882538 0.707481
561 2 0.840613 0.685857 0.64886
562 1 0.894939 0.766628 0.571335
563 2 0.863512 0.759038 0.638134
564 2 0.185996 0.559234 0.912124
565 2 0.835249 0.7393 0.606742
566 2 0.61243 0.0571027 0.416085
567 2 0.893489 0.731051 0.603811
568 2 0.887262 0.762242 0.670739
569 1 0.742934 0.769307 0.626976
570 2 0.875879 0.739991 0.649199
571 2 0.335521 0.312445 0.805125
572 2 0.566087 0.85633 0.801508
573 2 0.862016 0.735127 0.585395
574 2 0.825223 0.554737 0.00301618
575 1 0.370601 0.849427 0.467589
576 2 0.838315 0.67266 0.625176
577 2 0.642623 0.895824 0.737469
578 1 0.586714 0.864297 0.845893
579 2 0.617577 0.928212 0.737372
580 1 0.650621 0.0542197 0.58383
581 2 0.799622 0.112078 0.234855
582 2 0.623599 0.850233 0.697064
583 1 0.846904 0.254878 0.520799
584 2 0.626855 0.909136 0.754374
585 1 0.853799 0.852131 0.690332
586 2 0.819104 0.758845 0.641997
587 2 0.58089 0.849233 0.711598
588 2 0.715697 0.70988 0.318173
589 1 0.660533 0.81509 0.757064
590 1 0.482095 0.827684 0.7369
591 1 0.654624 0.807916 0.717447
592 2 0.226038 0.540374 0.0602468
593 2 0.611379 0.866247 0.732048
594 1 0.900214 0.85667 0.0308683
595 1 0.780526 0.358036 0.893009
596 2 0.0352292 0.97654 0.521242
597 1 0.602227 0.555037 0.00833286
598 2 0.623561 0.885171 0.787959
599 2 0.816268 0.740708 0.609694
600 2 0.24035 0.526451 0.967223
601 2 0.820479 0.770788 0.665964
602 1 0.854383 0.790802 0.550186
603 2 0.791034 0.745829 0.6245
604 1 0.802016 0.284721 0.81177
605 2 0.86062 0.475355 0.39032
606 2 0.384114 0.794097 0.153035
607 1 0.837751 0.781497 0.715977
608 2 0.892206 0.769844 0.957397
609 2 0.828635 0.751418 0.585353
610 2 0.874049 0.7658 0.615561
611 2 0.590007 0.917326 0.770254
612 1 0.724715 0.858448 0.40264
613 2 0.336736 0.401125 0.697145
614 1 0.697252 0.0497355 0.16045
615 2 0.629542 0.00615671 0.483757
616 1 0.515391 0.87654 0.7503
617 2 0.595237 0.905272 0.750875
618 2 0.621516 0.296674 0.0608855
619 2 0.197658 0.997859 0.410782
620 2 0.0546373 0.315568 0.910828
621 2 0.856217 0.704928 0.628273
622 2 0.837873 0.70606 0.646485
623 1 0.362726 0.366019 0.27639
624 2 0.639818 0.906572 0.722679
625 2 0.190805 0.448262 0.808818
626 2 0.175876 0.112436 0.443696
627 2 0.585483 0.861509 0.726769
628 2 0.570105 0.0755585 0.45727
629 2 0.121112 0.409993 0.773573
630 1 0.795172 0.779592 0.692524
631 2 0.012343 0.78647 0.576359
632 2 0.83012 0.724758 0.646042
633 2 0.635253 0.854148 0.760933
634 2 0.179493 0.869034 0.310248
635 2 0.299823 0.286227 0.767258
636 2 0.584928 0.886563 0.784942
637 2 0.625979 0.855142 0.792651
638 1 0.740409 0.181418 0.38624
639 2 0.603845 0.866198 0.746336
640 2 0.612554 0.850709 0.76868
641 2 0.847185 0.729642 0.586858
642 2 0.830772 0.696316 0.645374
643 2 0.352283 0.804596 0.347462
644 2 0.567698 0.880413 0.757839
645 1 0.668648 0.881648 0.69148
646 2 0.591893 0.880531 0.73113
647 1 0.591356 0.796952 0.824722
648 2 0.911476 0.942115 0.118972
649 2 0.816309 0.693463 0.681035
650 2 0.614004 0.912189 0.76642
651 2 0.884424 0.74826 0.607685
652 2 0.869941 0.726901 0.622007
653 2 0.840983 0.763688 0.64296
654 1 0.861641 0.658597 0.684176
655 2 0.975333 0.828491 0.354398
656 2 0.575159 0.890683 0.75619
657 2 0.611603 0.988821 0.216107
658 2 0.877961 0.769785 0.643707
659 2 0.609356 0.856972 0.738577
660 2 0.797669 0.455833 0.226788
661 1 0.415707 0.591786 0.571966
662 2 0.846708 0.721299 0.66201
663 2 0.633737 0.917576 0.754991
664 1 0.352515 0.939677 0.522607
665 2 0.923161 0.321283 0.624374
666 2 0.585346 0.872752 0.716544
667 2 0.543374 0.898043 0.760083
668 2 0.592686 0.882845 0.771468
669 2 0.441153 0.464561 0.49559
670 1 0.150513 0.998304 0.66073
671 2 0.491683 0.147539 0.358965
672 1 0.854872 0.746533 0.554829
673 2 0.863117 0.695431 0.665519
674 2 0.657518 0.882871 0.729719
675 2 0.76056 0.713677 0.960666
676 1 0.0688869 0.0986271 0.948777
677 2 0.587608 0.886959 0.803601
678 2 0.618724 0.876495 0.747461
679 1 0.936168 0.0941023 0.695666
680 2 0.619554 0.894515 0.693768
681 1 0.799898 0.649451 0.597096
682 1 0.770722 0.707245 0.698489
683 2 0.51991 0.909815 0.0375136
684 2 0.0793312 0.257226 0.474563
685 2 0.605094 0.842452 0.717868
686 2 0.727673 0.247423 0.973875
687 1 0.602091 0.810533 0.796063
688 2 0.417237 -0.000674149 0.360413
689 2 0.857379 0.719673 0.654567
690 2 0.833256 0.696976 0.68159
691 2 0.602668 0.904935 0.733523
692 1 0.620855 0.967763 0.716838
693 2 0.945166 0.676092 0.511173
694 2 0.596838 0.871034 0.745519
695 1 0.544294 0.943164 0.735522
696 2 0.724201 0.0820139 0.282547
697 2 0.479511 0.173362 0.658768
698 2 0.795103 0.749085 0.648779
699 2 0.809046 0.746704 0.642924
700 1 0.556129 0.915578 0.865194
701 2 0.825704 0.720507 0.658682
702 2 0.646332 0.882063 0.73046
703 2 0.532745 0.488335 0.581992
704 2 0.549739 0.688131 0.141926
705 2 0.828276 0.742757 0.685714
706 2 0.853103 0.690453 0.665763
707 2 0.311121 0.597006 0.809404
708 1 0.880014 0.750587 0.710601
709 2 0.858595 0.496424 0.268396
710 2 0.847372 0.729533 0.664741
711 2 0.591927 0.863571 0.700075
712 1 0.922314 0.727115 0.677028
713 2 0.848899 0.711844 0.611937
714 1 0.914683 0.76604 0.608495
715 2 0.581278 0.900878 0.741942
716 1 0.210006 0.294537 0.390776
717 2 0.59467 0.876658 0.782297
718 2 0.768486 0.0534624 0.225431
719 2 0.824226 0.71384 0.633156
720 2 0.0880471 0.721902 0.658314
721 2 0.625169 0.916601 0.713338
722 1 0.158443 0.519346 0.627881
723 2 0.306051 0.278915 0.124828
724 2 0.569093 0.888828 0.793392
725 2 0.13234 0.960252 0.134223
726 2 0.829974 0.727235 0.60544
727 1 0.8012 0.240347 0.0377994
728 1 0.0016074 0.00342986 0.078072
729 1 0.68149 0.92907 0.753946
730 1 0.643061 0.941255 0.693684
731 2 0.835551 0.711403 0.693432
732 1 0.460581 0.484591 0.628607
733 2 0.827042 0.0267819 0.465279
734 2 0.586165 0.899231 0.788162
735 2 0.881357 0.743799 0.682833
736 1 0.685708 0.846197 0.70664
737 2 0.623808 0.841767 0.794669
738 2 0.101623 0.144511 0.732904
739 2 0.624023 0.901941 0.749983
740 2 0.859477 0.634445 0.734882
741 2 0.580706 0.923203 0.752751
742 1 0.550966 0.938508 0.670005
743 2 0.853291 0.707425 0.6571
744 2 0.842411 0.70952 0.625502
745 2 0.587063 0.930094 0.768873
746 1 0.834929 0.676769 0.708693
747 2 0.134472 0.0838936 0.442172
748 2 0.816032 0.695691 0.646745
749 2 0.837442 0.757342 0.66525
750 2 0.151444 0.309164 0.0606054
751 2 0.615011 0.901338 0.777102
752 2 0.611097 0.891188 0.763781
753 2 0.740781 0.776782 0.0685338
754 2 0.659408 0.203018 0.322976
755 2 0.592061 0.823534 0.753179
756 2 0.857804 0.75226 0.590075
757 2 0.780324 0.729181 0.643921
758 2 0.385529 0.922134 0.390893
759 2 0.619355 0.92959 0.78393
760 1 0.426185 0.669926 0.248396
761 2 0.616357 0.879662 0.758568
762 2 0.577504 0.83316 0.762078
763 1 0.70857 0.779593 0.311126
764 2 0.589951 0.850001 0.75307
765 2 0.559134 0.876212 0.722909
766 2 0.870507 0.760748 0.599316
767 2 0.579592 0.47774 0.0999168
768 2 0.433221 0.62441 0.0652619
769 2 0.81579 0.741635 0.623083
770 2 0.865721 0.753683 0.657599
771 2 0.0951147 0.187043 0.821001
772 2 0.380407 0.399426 0.817313
773 1 0.832849 0.758941 0.757878
774 2 0.188941 0.810931 0.325263
775 2 0.932646 0.567657 0.254854
776 2 0.840997 0.683729 0.599388
777 1 0.515287 0.864913 0.790347
778 2 0.881426 0.781298 0.634572
779 2 0.51272 0.795467 0.297253
780 1 0.909762 0.678891 0.598835
781 2 0.558463 0.916431 0.744348
782 2 0.936241 0.860869 0.0400165
783 1 0.552878 0.81713 0.72102
784 2 0.869828 0.72195 0.637661
785 2 0.839829 0.722927 0.586466
786 1 0.756638 0.72762 0.651382
787 2 0.825666 0.711929 0.675762
788 2 0.817016 0.758335 0.663135
789 2 0.299369 0.221098 0.912872
790 2 0.5999 0.931984 0.745572
791 1 0.808048 0.711827 0.712774
792 2 0.878514 0.74396 0.671415
793 2 0.478097 0.5923 0.902814
794 2 0.767046 0.678022 0.7121
795 2 0.610383 0.872403 0.721911
796 2 0.421509 0.812844 0.197328
797 2 0.827112 0.742494 0.623596
798 2 0.152873 0.668529 0.481206
799 2 0.620047 0.890627 0.753026
800 2 0.361512 0.439183 0.386349
801 2 0.573771 0.91119 0.746801
802 2 0.557501 0.914903 0.762206
803 2 0.86047 0.762684 0.692587
804 2 0.796465 0.178094 0.0116071
805 2 0.0202945 0.319387 0.139243
806 1 0.820924 0.984215 0.7832
807 2 0.647911 0.871403 0.756078
808 2 0.636428 0.934364 0.787146
809 1 0.851359 0.725677 0.729113
810 2 0.635775 0.839062 0.715796
811 2 0.829175 0.711784 0.618114
812 2 0.813654 0.710502 0.664665
813 1 0.779018 0.900536 0.0634295
814 2 0.880419 0.704101 0.63656
815 2 0.835651 0.716026 0.634164
816 1 0.872375 0.670978 0.57526
817 1 0.548215 0.00622237 0.767041
818 2 0.862302 0.736959 0.653929
819 1 0.894213 0.80829 0.632461
820 1 0.546146 0.868329 0.814069
821 2 0.561782 0.88595 0.722252
822 2 0.56509 0.909677 0.714779
823 1 0.91266 0.72878 0.568099
824 2 0.600584 0.50365 0.771827
825 2 0.840456 0.755427 0.608346
826 2 0.793635 0.352384 0.570146
827 1 0.706755 0.0827112 0.64856
828 2 0.900067 0.704749 0.643112
829 2 0.804174 0.691859 0.624544
830 2 0.596873 0.284186 0.181133
831 1 0.547876 0.825862 0.676383
832 2 0.656994 0.862105 0.772967
833 1 0.915677 0.796236 0.584513
834 2 0.822721 0.690975 0.628802
835 2 0.284412 0.378507 0.70112
836 2 0.834965 0.777974 0.674834
837 2 0.176618 0.462123 0.0713389
838 2 0.653223 0.909224 0.756822
839 2 0.264034 0.332017 0.966864
840 2 0.585206 0.863512 0.784605
841 2 0.812803 0.775627 0.657768
842 2 0.364331 0.0257643 0.196049
843 2 0.839807 0.72462 0.623898
844 2 0.815975 0.687331 0.650705
845 2 0.786857 0.742218 0.612862
846 2 0.833137 0.74352 0.698129
847 2 0.845505 0.693127 0.622323
848 2 0.724593 0.378578 0.986402
849 1 0.562287 0.907261 0.815707
850 2 0.851291 0.714671 0.592568
851 2 0.57674 0.870603 0.764597
852 2 0.574999 0.868995 0.749719
853 1 0.366731 0.0358047 0.801685
854 2 0.250496 0.843612 0.642886
855 2 0.858408 0.709255 0.689277
856 2 0.854219 0.697386 0.59939
857 2 0.559808 0.853633 0.72855
858 2 0.870489 0.711839 0.628035
859 2 0.847241 0.731189 0.595314
860 2 0.659691 0.314271 0.371356
861 2 0.871966 0.737764 0.640768
862 2 0.201969 0.396671 0.167399
863 2 0.642736 0.87006 0.735222
864 2 0.577595 0.906165 0.779171
865 2 0.841214 0.763711 0.681012
866 2 0.819393 0.717343 0.625748
867 2 0.532553 0.0885734 0.121988
868 2 0.0358386 0.981025 0.764225
869 2 0.881621 0.743504 0.600242
870 2 0.895752 0.739631 0.629986
871 2 0.623141 0.863249 0.772873
872 2 0.578694 0.870459 0.790655
873 2 0.835183 0.687254 0.661763
874 2 0.876194 0.725063 0.673979
875 2 0.761039 0.93616 0.384359
876 2 0.489297 0.880815 0.795521
877 2 0.59954 0.89511 0.755177
878 2 0.611178 0.440304 0.392478
879 2 0.555084 0.877995 0.763786
880 2 0.943297 0.633278 0.218648
881 2 0.848145 0.715815 0.649541
882 1 0.714046 0.96208 0.0588138
883 1 0.517308 0.820485 0.0549181
884 2 0.0223146 0.277335 0.962085
885 2 0.616489 0.938323 0.757704
886 2 0.841605 0.697772 0.615839
887 1 0.299202 0.479306 0.980767
888 2 0.546542 0.633592 0.632452
889 2 0.662887 0.44624 0.405284
890 1 0.762238 0.777251 0.663656
891 2 0.873617 0.753766 0.181054
892 2 0.882959 0.716511 0.61219
893 2 0.607471 0.872751 0.78191
894 2 0.639026 0.86463 0.725161
895 1 0.888859 0.689783 0.696392
896 2 0.515662 0.973647 0.812025
897 2 0.820178 0.770339 0.645008
898 2 0.629888 0.888273 0.76992
899 2 0.489579 0.957614 0.322735
900 2 0.648001 0.882897 0.753157
901 2 0.634401 0.869054 0.757102
902 2 0.830612 0.736368 0.634197
903 2 0.617871 0.890985 0.736869
904 2 0.647726 0.897664 0.779575
905 2 0.595464 0.678089 0.571404
906 2 0.10388 0.155725 0.657388
907 2 0.846161 0.734182 0.698326
908 1 0.625564 0.804376 0.740211