ITEM: TIMESTEP
16100
ITEM: NUMBER OF ATOMS
1000
ITEM: BOX BOUNDS xy xz yz pp pp pp
0.0000000000000000e+00 1.3572088000000001e+01 0.0000000000000000e+00
0.0000000000000000e+00 1.3572088000000001e+01 0.0000000000000000e+00
0.0000000000000000e+00 1.3572088000000001e+01 0.0000000000000000e+00
ITEM: ATOMS id type xs ys zs
1 2 0.785554 0.93029 0.920936
2 2 0.924661 0.724 0.864655
3 1 0.61532 0.884498 0.708916
4 2 0.626124 0.48689 0.0696841
5 2 0.534696 0.404114 0.31316
6 1 0.492092 0.0201374 0.254336
7 2 0.382031 0.972347 0.230817
8 2 0.704175 0.889151 0.321151
9 2 0.214438 0.786531 0.363759
10 2 0.209281 0.316977 0.774398
11 2 0.0682391 0.0388696 0.865255
12 2 0.494155 0.681542 0.416103
13 2 0.497953 0.796544 0.0478317
14 1 0.689482 0.867471 0.955614
15 2 0.252254 0.150371 0.379528
16 2 0.138163 0.660253 0.907898
17 1 0.138412 0.708772 0.805157
18 2 0.527321 0.138792 0.83272
19 2 0.0596478 0.0174594 0.0881412
20 2 0.463506 0.62273 0.577693
21 2 0.363532 0.440307 0.36126
22 2 0.723672 0.571645 0.203213
23 2 0.906419 0.426876 0.75066
24 2 0.956656 0.653327 0.0462132
25 1 0.861063 0.599801 0.374339
26 2 0.60752 0.590576 0.58059
27 2 0.784465 0.47155 0.523892
28 2 0.0726185 0.284944 0.742861
29 2 0.0425539 0.385446 0.143132
30 2 0.932639 0.687046 0.683388
31 1 0.0695576 0.221614 0.698964
32 1 0.311246 0.587664 0.201639
33 1 0.186315 0.107852 0.976011
34 2 0.246799 0.78704 0.86012
35 2 0.907748 0.910003 0.941311
36 1 0.849701 0.916396 0.979404
37 2 0.750396 0.654838 0.709331
38 2 0.437575 0.460358 0.164749
39 2 0.213386 0.561893 0.22204
40 2 0.0453157 0.837787 0.23502
41 2 0.942067 0.22975 0.0202397
42 2 0.677922 0.173857 0.155702
43 2 0.112799 0.971873 0.259053
44 2 0.902379 0.484972 0.326961
45 2 0.302598 0.518213 0.756901
46 1 0.93861 0.734746 0.786108
47 2 0.565038 0.810269 0.295166
48 2 0.54266 0.816521 0.986131
49 2 0.636414 0.113761 0.842031
50 2 0.808506 0.679074 0.257738
51 2 0.657966 0.214605 0.636227
52 2 0.448035 0.695836 0.826311
53 2 0.343189 0.30851 0.474879
54 2 0.783942 0.523953 0.393827
55 1 0.814888 0.598851 0.924971
56 1 0.723613 0.825296 0.228834
57 2 0.174165 0.591604 0.776041
58 2 0.892049 0.239549 0.0509262
59 2 0.169083 0.758731 0.619874
60 2 0.139627 0.563289 0.777684
61 2 0.652995 0.18939 0.31889
62 2 0.750087 0.108424 0.756059
63 2 0.387079 0.872711 0.496592
64 2 0.278521 0.569116 0.68235
65 2 0.30342 0.584113 0.664891
66 1 0.822502 0.177178 0.276729
67 2 0.376082 0.992853 0.147774
68 2 0.0871216 0.885095 0.125668
69 1 0.852778 0.354431 0.775677
70 2 0.241618 0.696677 0.547251
71 1 0.772401 0.152473 0.568663
72 2 0.973896 0.0158033 0.175669
73 2 0.492466 0.73959 0.35564
74 2 0.855168 0.0974522 0.814308
75 2 0.908618 0.989564 0.548657
76 2 0.859992 0.160826 0.431253
77 1 0.623396 0.778833 0.237172
78 2 0.102955 0.834896 0.380722
79 2 0.0842413 0.137092 0.959176
80 2 0.067497 0.0483371 0.115981
81 2 0.957829 0.0908338 0.656499
82 2 0.561183 0.147895 0.592626
83 2 0.869784 0.422786 0.295789
84 2 0.123372 0.202449 0.380674
85 1 0.344966 0.533695 0.163232
86 2 0.0150129 0.903455 0.156151
87 2 0.448902 0.612477 0.571644
88 2 0.843469 0.339129 0.263759
89 2 0.0327083 0.618927 0.70855
90 2 0.640572 0.997369 0.206186
91 2 0.103167 0.264647 0.581416
92 2 0.975202 0.590176 0.224984
93 2 0.106744 0.166729 0.739882
94 1 0.254826 0.880671 0.795389
95 2 0.268386 0.00682619 0.471087
96 2 0.685297 0.0681785 0.766505
97 2 0.610838 0.0684962 0.757908
98 2 0.29383 0.106911 0.126365
99 2 0.901166 0.753491 0.461024
100 2 0.647084 0.161231 0.312185
101 1 0.940225 0.158609 0.101121
102 2 0.863917 0.271374 0.748724
103 2 0.584018 0.725714 0.987257
104 2 0.239327 0.432655 0.200046
105 2 0.605156 0.476963 0.739346
106 2 0.350787 0.547852 0.282527
107 2 0.583217 0.952428 0.530355
108 2 0.436215 0.113251 0.861454
109 2 0.151916 0.804095 0.556039
110 2 0.664284 0.0913248 0.0867182
111 2 0.156727 0.337 0.402181
112 1 0.127467 0.0755156 0.340634
113 1 0.919373 0.539971 0.552295
114 2 0.313356 0.697602 0.865015
115 2 0.781682 0.648434 0.0453062
116 2 0.295836 0.437576 0.542158
117 2 0.466721 0.412693 0.98747
118 2 0.437577 0.314121 0.00878671
119 2 0.322645 0.0414357 0.0964797
120 2 0.3856 0.0447097 0.0911012
121 2 0.353246 0.334027 0.841594
122 2 0.696381 0.656613 0.265071
123 2 0.154528 0.261555 0.0810175
124 2 0.0409927 0.137496 0.0553958
125 1 0.0888377 0.234051 0.0690425
126 2 0.716838 0.770223 0.376632
127 2 0.283358 0.452076 0.570911
128 2 0.121357 0.126158 0.984218
129 1 0.889475 0.659295 0.875797
130 2 0.375967 0.518724 0.0296183
131 2 0.440141 0.112332 0.650064
132 2 0.0857515 0.965314 0.830576
133 2 0.460162 0.646809 0.0105823
134 2 0.752519 0.713891 0.742922
135 2 0.726805 0.140617 0.408988
136 2 0.411809 0.811366 0.908282
137 1 0.775555 0.728149 0.550047
138 2 0.853525 0.990212 0.167608
139 2 0.0740828 0.419438 0.583232
140 1 0.367766 0.810732 0.541658
141 2 0.803694 0.178318 0.0471923
142 2 0.976026 0.954427 0.9661
143 2 0.398251 0.799103 0.397756
144 2 0.963235 0.591301 0.954685
145 2 0.784498 0.233739 0.961433
146 2 0.00780905 0.698167 0.846497
147 1 0.957909 0.66244 0.687303
148 1 0.990014 0.80536 0.986903
149 2 0.958334 0.669537 0.834399
150 1 0.519581 0.527326 0.668995
151 2 0.464317 0.339087 0.73238
152 2 0.216849 0.806676 0.607181
153 1 0.543952 0.98818 0.612793
154 1 0.160398 0.798322 0.309779
155 2 0.607547 0.966714 0.500683
156 2 0.632652 0.278971 0.0624156
157 2 0.416769 0.847236 0.939093
158 2 0.903462 0.0731502 0.500063
159 2 0.317602 0.0135207 0.738627
160 2 0.0774032 0.322786 0.4413
161 2 0.891009 0.614756 0.196327
162 2 0.0719142 0.597913 0.959952
163 2 0.376653 0.0690027 0.370245
164 2 0.572126 0.0602618 0.577587
165 2 0.659462 0.668315 0.201887
166 2 0.618173 0.509144 0.745129
167 2 0.480045 0.168019 0.432213
168 2 0.4346 0.977608 0.541755
169 2 0.660596 0.740312 0.903109
170 2 0.582514 0.0184168 0.604405
171 2 0.544703 0.525342 0.118447
172 2 0.309908 0.780232 0.154616
173 1 0.908481 0.0777318 0.668111
174 2 0.318955 0.888374 0.405971
175 2 0.814427 0.995638 0.366898
176 2 0.441556 0.534639 0.310272
177 1 0.509975 0.978924 0.508344
178 2 0.55544 0.035625 0.63989
179 2 0.945433 0.572071 0.98934
180 2 0.627098 0.937738 0.531007
181 2 0.345747 0.512396 0.903715
182 2 0.99423 0.588149 0.447756
183 2 0.508669 0.684363 0.756818
184 2 0.684224 0.735476 0.13432
185 2 0.113722 0.571118 0.750106
186 2 0.659544 0.616576 0.564392
187 2 0.425575 0.513531 0.164744
188 1 0.524368 0.236934 0.611194
189 2 0.520811 0.618148 0.773739
190 2 0.456782 0.526593 0.72207
191 2 0.669938 0.756287 0.109101
192 2 0.850228 0.522395 0.725401
193 2 0.671361 0.269024 0.235094
194 2 0.67792 0.331292 0.354835
195 2 0.520217 0.1008 0.534148
196 2 0.246102 0.559344 0.974074
197 2 0.660961 0.284397 0.367234
198 2 0.28378 0.524357 0.0530805
199 2 0.0597217 0.976017 0.172689
200 1 0.474037 0.0534528 0.62914
201 2 0.765543 0.44848 0.0630786
202 2 0.263638 0.663756 0.349473
203 2 0.924988 0.495043 0.567609
204 2 0.667708 0.522709 0.370589
205 2 0.881717 0.737658 0.741173
206 2 0.801391 0.285128 0.463804
207 2 0.748168 0.604628 0.063594
208 2 0.321836 0.471921 0.634687
209 2 0.967971 0.70317 0.662114
210 2 0.722555 0.0702648 0.430001
211 2 0.490678 0.638824 0.0240174
212 1 0.691412 0.266581 0.202065
213 2 0.0696623 0.542305 0.679658
214 2 0.620885 0.828886 0.820939
215 2 0.854813 0.805274 0.890517
216 2 0.818019 0.667071 0.833316
217 2 0.202905 0.638746 0.33294
218 2 0.756241 0.551257 0.362078
219 2 0.189057 0.62149 0.777223
220 2 0.8834 0.363663 0.0414148
221 2 0.376019 0.025055 0.234747
222 2 0.999778 0.560262 0.362825
223 2 0.513564 0.728695 0.73696
224 2 0.921474 0.373576 0.113155
225 1 0.0441786 0.344406 0.649273
226 2 0.486347 0.295312 0.112752
227 2 0.400842 0.486462 0.47302
228 2 0.216886 0.56671 0.815483
229 2 0.133729 0.968795 0.846178
230 1 0.464028 0.483884 0.778203
231 2 0.554913 0.81418 0.214754
232 2 0.421587 0.724057 0.733394
233 1 0.283875 0.0104981 0.210842
234 2 0.755883 0.111236 0.209646
235 2 0.818772 0.345356 0.530295
236 2 0.52228 0.849292 0.230239
237 2 0.533079 0.913571 0.856198
238 1 0.642376 0.078509 0.419231
239 1 0.650176 0.350062 0.167668
240 2 0.849269 0.338409 0.807298
241 2 0.819651 0.035889 0.38922
242 1 0.480788 0.00309442 0.54468
243 1 0.92999 0.690863 0.451099
244 2 0.52569 0.911145 0.691105
245 2 0.754581 0.86353 0.99281
246 1 0.384782 0.565804 0.696214
247 2 0.208075 0.715602 0.905963
248 2 0.822168 0.476473 0.992233
249 2 0.872822 0.743142 0.573302
250 2 0.568053 0.332212 0.306989
251 2 0.210503 0.569467 0.486856
252 2 0.828282 0.993951 0.632139
253 2 0.837738 0.162928 0.856367
254 2 0.246502 0.692646 0.063842
255 2 0.911047 0.0731671 0.845522
256 2 0.913199 0.447962 0.50769
257 2 0.928931 0.528065 0.386454
258 2 0.503821 0.513597 0.444407
259 1 0.0989759 0.028494 0.619957
260 2 0.908207 0.737261 0.570856
261 1 0.706742 0.873673 0.85286
262 2 0.61397 0.230552 0.63118
263 2 0.825799 0.426985 0.733962
264 2 0.937779 0.0574485 0.50031
265 1 0.793331 0.353005 0.259712
266 2 0.140847 0.543587 0.690858
267 2 0.373831 0.737238 0.736307
268 1 0.000455027 0.502948 0.02968
269 1 0.336915 0.520956 0.311718
270 2 0.306619 0.554205 0.479247
271 2 0.783253 0.243335 0.494792
272 2 0.147373 0.268216 0.909305
273 1 0.493477 0.847988 0.305374
274 2 0.527201 0.726039 0.485635
275 2 0.694014 0.884657 0.256792
276 2 0.240934 0.58121 0.266615
277 2 0.972286 0.628448 0.863544
278 2 0.149512 0.311181 0.662417
279 2 0.954762 0.407224 0.74448
280 1 0.921564 0.225419 0.373806
281 2 0.543251 0.145274 0.34275
282 2 0.738903 0.969442 0.131053
283 2 0.50568 0.583773 0.599638
284 1 0.711364 0.806004 0.709215
285 2 0.436561 0.812719 0.377402
286 2 0.987941 0.00765318 0.633567
287 1 0.504817 0.983808 0.863525
288 2 0.389299 0.524305 0.170575
289 2 0.292204 0.56306 0.349625
290 2 0.900701 0.971314 0.129093
291 2 0.620826 0.324138 0.812862
292 2 0.0769587 0.370956 0.336148
293 2 0.633641 0.919007 0.896521
294 2 0.806386 0.827627 0.349564
295 2 0.219312 0.143953 0.845235
296 2 0.111511 0.943645 0.818383
297 2 0.637612 0.144016 0.485668
298 2 0.778326 0.00913246 0.0343632
299 1 0.099262 0.215468 0.3242
300 2 0.941113 0.351863 0.633824
301 2 0.919618 0.0907602 0.531481
302 2 0.242139 0.315899 0.0410187
303 2 0.900912 0.322527 0.98192
304 1 0.36578 0.330049 0.115744
305 2 0.00618979 0.979592 0.128533
306 2 0.447593 0.93535 0.705154
307 2 0.0868404 0.304928 0.0455476
308 2 0.36139 0.202912 0.321486
309 2 0.29439 0.15989 0.852112
310 2 0.827766 0.136083 0.602951
311 2 0.396829 0.311084 0.0735798
312 2 0.729652 0.832383 0.35726
313 2 0.673647 0.67312 0.88033
314 2 0.387167 0.260019 0.0741296
315 2 0.520468 0.558424 0.302094
316 2 0.354443 0.765306 0.429802
317 2 0.141784 0.241019 0.850107
318 2 0.943064 0.169927 0.872312
319 2 0.663063 0.156256 0.744952
320 2 0.835447 0.968916 0.17638
321 2 0.688311 0.491248 0.848956
322 2 0.49018 0.342855 0.356598
323 2 0.38516 0.832347 0.475701
324 2 0.977483 0.000282422 0.399603
325 2 0.510668 0.104515 0.216776
326 2 0.829074 0.0364745 0.469013
327 2 0.215938 0.722919 0.00668778
328 2 0.278753 0.593611 0.591507
329 1 0.0251158 0.559813 0.298497
330 2 0.840327 0.273192 0.667828
331 2 0.816615 0.48241 0.773972
332 2 0.794567 0.191283 0.00721022
333 2 0.362103 0.267749 0.336557
334 2 0.0489753 0.0147441 0.824234
335 1 0.629565 0.766377 0.164694
336 2 0.833306 0.968226 0.214509
337 2 0.386531 0.507226 0.203633
338 1 0.886416 0.358195 0.834989
339 2 0.789147 0.630536 0.813023
340 2 0.123916 0.0337287 0.579822
341 2 0.786572 0.238598 0.00950568
342 2 0.146303 0.498001 0.722607
343 2 0.706647 0.0492489 0.708338
344 1 0.325061 0.822399 0.48324
345 1 0.634911 0.0202539 0.686005
346 1 0.566257 0.857266 0.78894
347 1 0.00795805 0.512484 0.748769
348 2 0.799121 0.917994 0.629737
349 2 0.701668 0.789651 0.0499188
350 2 0.158949 0.327619 0.499216
351 2 0.941403 0.356724 0.99304
352 2 0.9284 0.242142 0.0009075
353 1 0.921423 0.519315 0.19577
354 1 0.588871 0.878735 0.850551
355 2 0.357141 0.24282 0.275575
356 2 0.403973 0.681036 0.0505967
357 2 0.580227 0.104083 0.855388
358 2 0.471803 0.871739 0.668451
359 2 0.938578 0.659042 0.946676
360 2 0.366145 0.558813 0.86141
361 1 0.487412 0.823001 0.96597
362 2 0.891057 0.21126 0.136628
363 1 0.257521 0.95234 0.962515
364 2 0.94172 0.415709 0.383559
365 2 0.350826 0.916282 0.609609
366 2 0.51589 0.03396 0.361891
367 1 0.564267 0.871337 0.645811
368 1 0.891399 0.00736066 0.974429
369 2 0.221609 0.253077 0.695817
370 2 0.511663 0.864354 0.488776
371 2 0.788345 0.651004 0.980004
372 1 0.507767 0.38371 0.269872
373 2 0.936235 0.708272 0.669075
374 2 0.0740608 0.13406 0.762193
375 2 0.59145 0.328322 0.403386
376 2 0.80896 0.69832 0.51051
377 2 0.734236 0.371984 0.828773
378 2 0.587279 0.596985 0.870594
379 2 0.6115 0.267952 0.393493
380 2 0.19122 0.92189 0.0745572
381 2 0.531211 0.332733 0.537609
382 2 0.609885 0.516112 0.286082
383 2 0.390591 0.88706 0.53023
384 1 0.240369 0.604961 0.799278
385 2 0.799734 0.525426 0.670077
386 2 0.755062 0.245137 0.482789
387 1 0.683572 0.852341 0.125465
388 2 0.088298 0.0717934 0.705593
389 2 0.756311 0.317544 0.496601
390 2 0.801738 0.0450337 0.440091
391 2 0.883499 0.921614 0.0240004
392 1 0.662897 0.490755 0.767989
393 2 0.950504 0.0961118 0.826203
394 2 0.724287 0.18591 0.411625
395 2 0.726456 0.185393 0.0596834
396 2 0.523603 0.92994 0.317799
397 2 0.444354 0.766222 0.643129
398 1 0.0817005 0.12818 0.0760421
399 1 0.263855 0.232579 0.38664
400 1 0.67269 0.0999836 0.317855
401 2 0.19858 0.17795 0.592798
402 2 0.795843 0.563663 0.956536
403 2 0.727835 0.944809 0.148161
404 2 0.215342 0.74189 0.640141
405 2 0.490275 0.301758 0.26594
406 2 0.282566 0.314304 0.0160137
407 2 0.771042 0.0578046 0.485893
408 2 0.762958 0.136438 0.864847
409 2 0.466457 0.244171 0.0749827
410 2 0.0994758 0.108651 0.00665545
411 2 0.694618 0.623488 0.153526
412 2 0.341193 0.302841 0.903607
413 2 0.463431 0.392852 0.212158
414 2 0.815347 0.628364 0.215686
415 2 0.636269 0.741441 0.110426
416 1 0.352199 0.577842 0.741788
417 2 0.357764 0.910346 0.935451
418 2 0.365037 0.787366 0.67964
419 2 0.207889 0.666474 0.397378
420 2 0.339577 0.150143 0.799078
421 1 0.813638 0.865721 0.00247822
422 1 0.22077 0.00361727 0.776895
423 2 0.389746 0.543525 0.198509
424 2 0.966236 0.57544 0.628191
425 1 0.22257 0.860824 0.600318
426 2 0.836934 0.551137 0.919115
427 2 0.919471 0.599665 0.441865
428 2 0.442561 0.580607 0.588664
429 2 0.777061 0.133378 0.626056
430 2 0.724484 0.0713757 0.74984
431 2 0.461022 0.595132 0.206373
432 1 0.694943 0.773384 0.0850542
433 2 0.11844 0.390601 0.220844
434 1 0.439613 0.89902 0.45517
435 2 0.0275075 0.948134 0.066959
436 2 0.747204 0.870975 0.0543431
437 2 0.650298 0.351786 0.744295
438 2 0.344604 0.447933 0.941635
439 1 0.373942 0.939357 0.468077
440 2 0.182765 0.172984 0.650267
441 1 0.653213 0.55404 0.155487
442 1 0.831499 0.155499 0.995653
443 1 0.434938 0.476553 0.0854844
444 2 0.228109 0.562454 0.738956
445 2 0.252963 0.72358 0.918546
446 2 0.120019 0.721979 0.739287
447 2 0.960874 0.638679 0.601436
448 2 0.31052 0.771373 0.44016
449 1 0.105898 0.664158 0.803608
450 2 0.0764418 0.0988969 0.0098766
451 2 0.614556 0.224045 0.589384
452 2 0.369015 0.525337 0.206443
453 1 0.348249 0.0531696 0.595868
454 2 0.741432 0.712668 0.860524
455 2 0.572182 0.946727 0.576595
456 2 0.197222 0.205581 0.479998
457 2 0.28127 0.574211 0.892399
458 2 0.865749 0.240867 0.0155643
459 2 -0.000468709 0.547248 0.659375
460 2 0.353142 0.0447087 0.437276
461 2 0.908601 0.131067 0.8442
462 2 0.200354 0.746775 0.331197
463 1 0.340389 0.426242 0.615679
464 2 0.0234651 0.616843 0.63434
465 2 0.738972 0.622022 0.991353
466 2 0.197148 0.616369 0.434659
467 1 0.391633 0.508914 0.32959
468 2 0.921352 0.729535 0.536577
469 2 0.0960637 0.114241 0.150698
470 2 0.110477 0.621603 0.71135
471 2 0.418384 0.129038 0.831404
472 2 0.782345 0.143355 0.878202
473 1 0.179849 0.600249 0.968599
474 1 0.0591537 0.906271 0.757763
475 1 0.299125 0.579498 0.780889
476 2 0.21263 0.275807 0.0801674
477 2 0.527528 0.826929 0.447334
478 2 0.310854 0.90106 0.242638
479 2 0.753702 0.601137 0.923046
480 2 0.669081 0.472682 0.0582408
481 2 0.313834 0.112361 0.0538621
482 2 0.233823 0.148607 0.0308274
483 2 0.910813 0.382537 0.289448
484 1 0.620669 0.153451 0.418641
485 1 0.628982 0.00427511 0.878583
486 2 0.768902 0.667478 0.0169057
487 2 0.458107 0.52612 0.331625
488 2 0.22775 0.656762 0.76994
489 2 0.500816 0.942236 0.268524
490 2 0.0645577 0.994808 0.692247
491 2 0.10595 0.326004 0.117808
492 2 0.530899 0.790671 0.547589
493 2 0.0812392 0.958806 0.536038
494 2 0.228099 0.964259 0.891524
495 2 0.485005 0.444749 0.0349344
496 2 0.439113 0.980292 0.6199
497 2 0.697029 0.468742 0.565778
498 1 0.615541 0.85859 0.253205
499 2 0.0488388 0.20417 0.0349518
500 2 0.908094 0.899546 0.0338763
501 1 0.963491 0.227068 0.278479
502 2 0.786024 0.074672 0.0574705
503 2 0.664607 0.33622 0.941514
504 1 0.806259 0.765728 0.283344
505 2 0.905501 0.586369 0.514252
506 2 0.983815 0.873826 0.815059
507 2 0.881778 0.708403 0.550441
508 2 0.386738 0.113544 0.913036
509 1 0.29144 0.642513 0.253341
510 2 0.196925 0.330152 0.0446156
511 2 0.75174 0.244662 0.995687
512 2 0.0903046 0.622163 0.674884
513 1 0.0437284 0.190628 0.311792
514 2 0.0808771 0.83078 0.249805
515 1 0.596553 0.170644 0.554352
516 2 0.554337 0.366256 0.166086
517 1 0.365227 0.984175 0.548186
518 2 0.188054 0.333651 0.89152
519 2 0.480769 0.979924 0.644182
520 2 0.913717 0.580021 0.572069
521 2 0.981121 0.140205 0.108533
522 2 0.586331 0.940757 0.682256
523 2 0.815737 0.428567 0.929341
524 2 0.327323 0.452542 0.409359
525 2 0.745524 0.397265 0.0255884
526 2 0.700558 0.762132 0.899363
527 2 0.33521 0.0222051 0.518602
528 1 0.0936546 0.327684 0.713381
529 2 0.679797 0.838695 0.886494
530 2 0.225336 0.942565 0.788846
531 2 0.674889 0.944775 0.791774
532 2 0.794854 0.563202 0.325812
533 2 0.92349 0.687449 0.585604
534 1 0.544585 0.379758 0.241229
535 2 0.462586 0.584378 0.23426
536 1 0.282632 0.0639687 0.949681
537 1 0.93747 0.175326 0.956248
538 2 0.0656712 0.522567 0.00180609
539 2 0.154048 0.822309 0.17611
540 2 0.82213 0.305155 0.961696
541 1 0.441663 0.949647 0.490126
542 2 0.533026 0.0432239 0.316882
543 1 0.485247 0.050319 0.0531049
544 1 0.621409 0.241001 0.1905
545 2 0.473211 0.3853 0.181909
546 2 0.103318 0.71073 0.66157
547 2 0.594508 0.0368681 0.494024
548 2 0.456313 0.0130129 0.561778
549 2 0.405487 0.93337 0.769712
550 2 0.890242 0.727466 0.806337
551 1 0.63229 0.859942 0.659135
552 2 0.945997 0.530056 0.00991675
553 2 0.442489 0.0777052 0.036136
554 2 0.805197 0.200344 0.955877
555 1 0.938471 0.37893 0.764013
556 2 0.906094 0.366536 0.652641
557 2 0.291908 0.213145 0.6641
558 1 0.310631 0.982171 0.00898297
559 2 0.445815 0.171103 0.931987
560 2 0.0285852 0.477686 0.0835496
561 2 0.870415 0.360523 0.608495
562 1 0.363766 0.259432 0.709797
563 2 0.863883 0.357026 0.117382
564 2 0.890383 0.129789 0.30407
565 2 0.624884 0.0499375 0.909787
566 2 0.0809526 0.0170629 0.177922
567 2 0.999227 0.0896731 0.449055
568 2 0.948311 0.677536 0.615085
569 1 0.752143 0.62355 0.766221
570 2 0.785542 0.401903 0.0173457
571 2 0.950068 0.488294 0.87184
572 2 0.777792 0.488464 0.20984
573 2 0.522735 0.0343891 0.148929
574 2 0.366061 0.485196 0.565644
575 1 0.11219 0.89596 0.926347
576 2 0.921092 0.714721 0.736794
577 2 0.368805 0.144256 0.664822
578 1 0.332458 0.526204 0.794978
579 2 0.591417 0.0935795 0.208138
580 1 0.370823 0.324382 0.273029
581 2 0.850761 0.843151 0.893314
582 2 0.955106 0.786001 0.330598
583 1 0.341118 0.216514 0.61959
584 2 0.814143 0.953707 0.93165
585 1 0.270297 0.36677 0.0942762
586 2 0.0690717 0.555823 0.606283
587 2 0.327672 0.489462 0.851926
588 2 0.509154 0.641756 0.116394
589 1 0.413324 0.392014 0.950215
590 1 0.010184 0.183863 0.376872
591 1 0.66439 0.0627273 0.257006
592 2 0.719218 0.678252 0.789138
593 2 0.317286 0.0130687 0.616167
594 1 0.29557 0.368017 0.0316593
595 1 0.609667 0.372957 0.0384144
596 2 0.940747 0.594406 0.810653
597 1 0.673513 0.734089 0.195112
598 2 0.0878143 0.637127 0.773332
599 2 0.74835 0.517477 0.870048
600 2 0.820679 0.205834 0.00787196
601 2 0.994259 0.329074 0.988727
602 1 0.550504 0.320222 0.431564
603 2 0.640354 0.143172 0.98745
604 1 0.107935 0.298505 0.625304
605 2 0.405016 0.410109 0.738903
606 2 0.42567 0.0598199 0.0929632
607 1 0.378344 0.578851 0.620504
608 2 0.921296 0.282793 0.410507
609 2 0.181978 0.14681 0.0650054
610 2 0.98636 0.183301 0.331907
611 2 0.571789 0.744311 0.256102
612 1 0.415089 0.260624 0.0358572
613 2 0.850728 0.183 0.33165
614 1 0.775893 0.0931396 0.386979
615 2 0.553843 0.502713 0.859811
616 1 0.99332 0.136293 0.300997
617 2 0.255228 0.926973 0.630626
618 2 0.070431 0.622884 0.349481
619 2 0.328676 0.397169 0.375413
620 2 0.926982 0.510292 0.291176
621 2 0.0226555 0.0199313 0.666268
622 2 0.362832 0.837912 0.498655
623 1 0.368662 0.914166 0.203789
624 2 0.945763 0.305957 0.542525
625 2 0.596293 0.269769 0.621954
626 2 0.821607 0.448971 0.985913
627 2 0.446055 0.663984 0.467679
628 2 0.984366 0.299154 0.934207
629 2 0.485129 0.239727 0.412796
630 1 0.0188183 0.247553 0.0913533
631 2 0.962781 0.0815494 0.401786
632 2 0.722623 0.208229 0.48353
633 2 0.938135 0.540392 0.334941
634 2 0.276866 0.136692 0.387162
635 2 0.724246 0.246076 0.605034
636 2 0.193282 0.693559 0.660552
637 2 0.371877 0.778005 0.901375
638 1 0.609407 0.924024 0.666592
639 2 0.269059 0.796349 0.50051
640 2 0.772638 0.473147 0.744864
641 2 0.464675 0.42134 0.128177
642 2 0.725675 0.57083 0.153122
643 2 0.278448 0.53984 0.780687
644 2 0.651493 0.0436548 0.0571168
645 1 0.735364 0.98452 0.247491
646 2 0.75667 0.607152 0.195959
647 1 0.25508 0.996512 0.0950282
648 2 0.631755 0.412778 0.0690054
649 2 0.815008 0.414966 0.0218908
650 2 0.0620037 0.834262 0.188943
651 2 0.457031 0.590206 0.698029
652 2 0.802457 0.462147 0.982619
653 2 0.970587 0.358001 0.795736
654 1 0.399104 0.408511 0.880215
655 2 0.936755 0.119077 0.29641
656 2 0.886941 0.336123 0.0553484
657 2 0.560224 0.919263 0.61903
658 2 0.409136 0.411708 0.699445
659 2 0.367332 0.875579 0.959586
660 2 0.395397 0.510093 0.150215
661 1 0.64814 0.882664 0.487592
662 2 0.712533 0.368313 0.630506
663 2 0.429641 0.310118 0.447209
664 1 0.0479241 0.534355 0.199424
665 2 0.331707 0.889569 0.548407
666 2 0.830935 0.673267 0.876901
667 2 0.45271 0.529865 0.889257
668 2 0.379699 0.555713 0.212489
669 2 0.412838 0.379946 0.150289
670 1 0.658076 0.76501 0.730686
671 2 0.830354 0.690596 0.81529
672 1 0.588582 0.871267 0.395985
673 2 0.926033 0.455911 0.33393
674 2 0.0754903 0.989384 0.379651
675 2 0.94829 0.516625 0.277576
676 1 0.981546 0.724582 0.723869
677 2 0.614476 0.144288 0.593879
678 2 0.121288 0.51188 0.253734
679 1 0.954561 0.165356 0.629118
680 2 0.423774 0.0370987 0.736811
681 1 0.429402 0.412059 0.493666
682 1 0.960504 0.788157 0.75074
683 2 0.224892 0.307185 0.0262242
684 2 0.905397 0.833003 0.76654
685 2 0.715106 0.641603 0.0513628
686 2 0.650654 0.805873 0.107246
687 1 0.878039 0.276865 0.990701
688 2 0.554648 0.0225028 0.992883
689 2 0.644304 0.979573 0.0593975
690 2 0.636807 0.575878 0.525578
691 2 0.534101 0.790057 0.721725
692 1 0.0614858 0.60327 0.736961
693 2 0.262828 0.406017 0.454779
694 2 0.976759 0.533924 0.314099
695 1 0.757814 0.774685 0.0120668
696 2 0.173979 0.240581 0.154581
697 2 0.461657 0.402774 0.739704
698 2 0.0757535 0.811076 0.517674
699 2 0.992953 0.206352 0.232617
700 1 0.356438 0.641925 0.811337
701 2 0.51793 0.412684 0.207661
702 2 0.729864 0.912148 0.971849
703 2 0.335533 0.520438 0.394337
704 2 0.202707 0.498933 0.25822
705 2 0.774789 0.326196 0.988316
706 2 0.29883 0.509235 0.235251
707 2 0.78888 0.407486 0.201179
708 1 0.613156 0.19966 0.0552913
709 2 0.657264 0.438685 0.670561
710 2 0.121518 0.584065 0.92522
711 2 0.562432 0.730255 0.566673
712 1 0.110763 0.0657063 0.0992219
713 2 0.0488627 0.643946 0.447164
714 1 0.853338 0.44198 0.098303
715 2 0.317249 0.39618 0.729454
716 1 0.623911 0.910489 0.768898
717 2 0.241119 0.042603 0.00295753
718 2 0.48881 0.4502 0.983381
719 2 0.635319 0.228521 0.313263
720 2 0.604052 0.404736 0.499942
721 2 0.114832 0.301811 0.0709502
722 1 0.218572 0.297369 0.391153
723 2 0.668497 0.501043 0.209
724 2 0.651762 0.544856 0.94997
725 2 0.119922 0.208504 0.0975733
726 2 0.442826 0.640004 0.632408
727 1 0.63962 0.832588 0.702425
728 1 0.918201 0.599767 0.104981
729 1 0.46921 0.371564 0.110062
730 1 0.180881 0.922841 0.637762
731 2 0.315419 0.446201 0.507314
732 1 0.904485 0.579847 0.883591
733 2 0.62934 0.316645 0.300373
734 2 0.896615 0.40535 0.850757
735 2 0.169324 0.20962 0.222642
736 1 0.40381 0.332089 0.78518
737 2 0.287281 0.127181 0.435708
738 2 0.0559956 0.808623 0.0883661
739 2 0.711385 0.183874 0.0795038
740 2 0.134213 0.489307 0.825049
741 2 0.181288 0.698281 0.933268
742 1 0.912553 0.957012 0.917351
743 2 0.620878 0.184571 0.458096
744 2 0.209312 0.16967 0.515571
745 2 0.304179 0.877542 0.882444
746 1 0.580336 0.532986 0.843743
747 2 0.93765 0.958054 0.957645
748 2 0.99697 0.0132442 0.984682
749 2 0.741112 0.531983 0.196409
750 2 0.318463 0.889633 0.813321
751 2 0.0923916 0.537366 0.730633
752 2 0.168383 0.7748 0.356363
753 2 0.654437 0.646894 0.592024
754 2 0.0939297 0.697678 0.267777
755 2 0.879825 0.580694 0.725292
756 2 0.466623 0.139978 0.965696
757 2 0.71413 0.581757 0.420309
758 2 0.22481 0.00185486 0.183483
759 2 0.421486 0.609102 0.832036
760 1 0.421777 0.823892 0.747683
761 2 0.573122 0.123963 0.0650683
762 2 0.358629 0.4666 0.901689
763 1 0.346271 0.143423 0.855666
764 2 0.928393 0.335801 0.0158927
765 2 0.613057 0.423158 0.294342
766 2 0.111144 0.786326 0.957354
767 2 0.889845 0.217155 0.858893
768 2 0.943483 0.183806 0.00413983
769 2 0.667237 0.608016 0.676592
770 2 0.269093 0.667972 0.61025
771 2 0.443401 0.616174 0.624192
772 2 0.0852434 0.951914 0.507365
773 1 0.803318 0.867466 0.437558
774 2 0.340707 0.516232 0.245345
775 2 0.606232 0.896059 0.610179
776 2 0.50496 0.510022 0.130483
777 1 0.810229 0.438602 0.296639
778 2 0.119783 0.924885 0.882533
779 2 0.389906 0.362696 0.752628
780 1 0.203869 0.487792 0.359016
781 2 0.238866 0.536175 0.971991
782 2 0.710891 0.617339 0.261028
783 1 0.310176 0.930892 0.913536
784 2 0.400454 0.097606 0.866635
785 2 0.856968 0.235002 0.876522
786 1 0.744153 0.288959 0.468924
787 2 0.905053 0.574473 0.219834
788 2 0.345647 0.602543 0.558764
789 2 0.754085 0.379753 0.060248
790 2 0.821166 0.288432 0.420559
791 1 0.178108 0.674622 0.758253
792 2 0.951772 0.187626 0.372499
793 2 0.260205 0.487111 0.795703
794 2 0.839855 0.471755 0.0209422
795 2 0.399298 0.426306 0.0281278
796 2 0.28397 0.504182 0.649047
797 2 0.919475 0.666253 0.765183
798 2 0.977323 0.172375 0.234038
799 2 0.0256556 0.780155 0.452661
800 2 0.933487 0.485106 0.316762
801 2 0.599181 0.374353 0.642762
802 2 0.0773014 0.869355 0.358866
803 2 0.237822 0.708525 0.582164
804 2 0.816575 0.172855 0.80723
805 2 0.758402 0.234875 0.445938
806 1 0.761621 0.0357676 0.880313
807 2 0.976565 0.750633 0.354194
808 2 0.15023 0.223019 0.359585
809 1 0.416268 0.915006 0.557878
810 2 0.646765 0.989714 0.65756
811 2 0.824715 0.698612 0.570231
812 2 0.747248 0.20969 0.0507632
813 1 0.88418 0.407103 0.777094
814 2 0.98013 0.486045 0.808514
815 2 0.862948 0.88418 0.171814
816 1 0.158941 0.207304 0.638789
817 1 0.73778 0.989258 0.767341
818 2 0.73242 0.569602 0.864147
819 1 0.259563 0.70654 0.967209
820 1 0.446104 0.990984 0.683784
821 2 0.607999 0.479172 0.88305
822 2 0.362472 0.223898 0.0948375
823 1 0.916788 0.550424 0.659703
824 2 0.588928 0.207179 0.0885973
825 2 0.771056 0.162671 0.0143942
826 2 0.363811 0.0811581 0.0950526
827 1 0.87314 0.810906 0.394378
828 2 0.4473 0.258478 0.493218
829 2 0.12354 0.615948 0.863824
830 2 0.680319 0.792501 0.122797
831 1 0.905785 0.988682 0.666511
832 2 0.669799 0.586724 0.921837
833 1 0.963439 0.53537 0.0796391
834 2 0.247852 0.744826 0.969037
835 2 0.740737 0.841848 0.2674
836 2 0.104961 0.924453 0.552935
837 2 0.723153 0.375055 0.301787
838 2 0.823297 -0.0006842 0.81101
839 2 0.589487 0.738726 0.683044
840 2 0.716638 0.702672 0.163026
841 2 0.92944 0.861793 0.0100128
842 2 0.0412407 0.872788 0.531296
843 2 0.654535 0.970779 0.399534
844 2 0.569391 0.650329 0.220723
845 2 0.788305 0.287632 0.335037
846 2 0.544382 0.562551 0.892476
847 2 0.87165 0.597473 0.256615
848 2 0.869635 0.557352 0.945906
849 1 0.435359 0.29851 0.240612
850 2 0.417285 0.052839 0.341036
851 2 0.917938 0.983806 0.613091
852 2 0.601758 0.766795 0.798555
853 1 0.956216 0.494166 0.37672
854 2 0.721596 0.79803 0.11074
855 2 0.942718 0.44431 0.996446
856 2 0.845362 0.60231 0.421108
857 2 0.513612 0.222304 0.778468
858 2 0.647312 0.574303 0.0216833
859 2 0.324602 0.0623246 0.941943
860 2 0.204223 0.922763 0.963595
861 2 0.64309 0.137669 0.769395
862 2 0.544449 0.503044 0.720311
863 2 0.399019 0.555105 0.173256
864 2 0.149357 0.178821 0.773872
865 2 0.803477 0.902051 0.203755
866 2 0.237448 0.873815 0.0825434
867 2 0.374968 0.131014 0.618468
868 2 0.851461 0.810503 0.355811
869 2 0.543767 0.0159042 0.540168
870 2 0.327185 0.605878 0.664478
871 2 0.473938 0.318557 0.0807412
872 2 0.509381 0.45739 0.0623939
873 2 0.364325 0.539268 0.648677
874 2 0.554194 0.578811 0.951392
875 2 0.668282 0.531217 0.524635
876 2 0.912061 0.656532 0.0644545
877 2 0.0541814 0.742697 0.32749
878 2 0.176032 0.0127657 0.00618942
879 2 0.264152 0.370908 0.669032
880 2 0.311965 0.24272 0.671259
881 2 0.441928 0.422519 0.354694
882 1 0.699532 0.971931 0.490469
883 1 0.258584 0.555729 0.539685
884 2 0.239567 0.629545 0.461268
885 2 0.841547 0.12771 0.0328974
886 2 0.267424 0.169039 0.873035
887 1 0.86803 0.72408 0.865086
888 2 0.162455 0.556727 0.208074
889 2 0.40592 0.416566 0.24987
890 1 0.0139837 0.858951 0.489004
891 2 0.903834 0.702151 0.701203
892 2 0.733818 0.0132636 0.0173019
893 2 0.285243 0.896561 0.01899
894 2 0.281042 0.636475 0.457127
895 1 0.601002 0.86839 0.465886
896 2 0.18703 0.887135 0.710955
897 2 0.866407 0.6121 0.615866
898 2 0.491152 0.637035 0.206074
899 2 0.74614 0.478275 0.578805
900 2 0.80819 0.586952 0.848605
901 2 0.935297 0.437547 0.424007
902 2 0.232337 0.634853 0.284951
903 2 0.824505 0.349112 0.423184