ITEM: TIMESTEP
15400
ITEM: NUMBER OF ATOMS
1000
ITEM: BOX BOUNDS xy xz yz pp pp pp
0.0000000000000000e+00 1.3572088000000001e+01 0.0000000000000000e+00
0.0000000000000000e+00 1.3572088000000001e+01 0.0000000000000000e+00
0.0000000000000000e+00 1.3572088000000001e+01 0.0000000000000000e+00
ITEM: ATOMS id type xs ys zs
1 2 0.66313 0.906937 0.83378
2 2 0.894159 0.838696 0.920385
3 1 0.60513 0.912328 0.711799
4 2 0.523082 0.416805 0.128894
5 2 0.527835 0.320175 0.1877
6 1 0.525155 0.0142899 0.230678
7 2 0.313093 0.00613737 0.26235
8 2 0.685622 0.940549 0.47378
9 2 0.237018 0.772427 0.380716
10 2 0.284804 0.114672 0.839518
11 2 0.177351 0.0760599 0.967051
12 2 0.54504 0.693029 0.386212
13 2 0.405344 0.787979 0.93386
14 1 0.703134 0.876692 0.0132883
15 2 0.285527 0.198208 0.445023
16 2 0.224586 0.59263 0.796201
17 1 0.166754 0.696824 0.893095
18 2 0.574869 0.105286 0.849883
19 2 0.102181 0.0586136 0.0397172
20 2 0.631477 0.608217 0.571794
21 2 0.450947 0.427543 0.334793
22 2 0.634443 0.627467 0.12387
23 2 0.920679 0.396587 0.775409
24 2 0.938818 0.647432 0.856242
25 1 0.96172 0.66718 0.431642
26 2 0.701498 0.518544 0.377181
27 2 0.76044 0.511074 0.448985
28 2 0.0521784 0.290693 0.694973
29 2 0.916926 0.185872 0.0591082
30 2 0.901119 0.644721 0.677385
31 1 0.942893 0.212745 0.821547
32 1 0.255331 0.605992 0.20767
33 1 0.1281 0.03903 0.0274898
34 2 0.24905 0.0270409 0.668491
35 2 0.927094 0.920806 0.887653
36 1 0.885165 0.924888 0.924721
37 2 0.800169 0.676648 0.562928
38 2 0.393192 0.471083 0.0984228
39 2 0.269532 0.554491 0.123491
40 2 0.980765 0.967907 0.264976
41 2 0.690063 0.313621 0.0461453
42 2 0.687407 0.169171 0.229985
43 2 0.285132 0.813773 0.184479
44 2 0.967635 0.581882 0.318374
45 2 0.374294 0.531538 0.844092
46 1 0.907431 0.672136 0.806195
47 2 0.29315 0.901976 0.205495
48 2 0.455703 0.736787 0.973443
49 2 0.736246 0.98497 0.91143
50 2 0.97096 0.600658 0.257007
51 2 0.499446 0.294736 0.793203
52 2 0.347074 0.626906 0.807169
53 2 0.232917 0.310967 0.412684
54 2 0.779657 0.477628 0.542203
55 1 0.756442 0.554351 0.891539
56 1 0.736555 0.808051 0.278021
57 2 0.320388 0.593204 0.77939
58 2 0.883217 0.217783 0.972486
59 2 0.152966 0.818148 0.385264
60 2 0.0930358 0.475833 0.75316
61 2 0.594722 0.432242 0.327349
62 2 0.766948 0.0473186 0.839262
63 2 0.36959 0.815409 0.495024
64 2 0.305238 0.63431 0.772243
65 2 0.32707 0.651848 0.636005
66 1 0.802747 0.0938286 0.304669
67 2 0.162763 0.0215977 0.0751793
68 2 0.944495 0.843434 0.22332
69 1 0.886642 0.356436 0.717284
70 2 0.0990382 0.675551 0.547354
71 1 0.816198 0.107374 0.589485
72 2 0.0770678 0.905107 0.416609
73 2 0.513303 0.702571 0.260855
74 2 0.855384 0.888741 0.699763
75 2 0.9076 0.87839 0.514046
76 2 0.846301 0.0852255 0.356679
77 1 0.646175 0.771612 0.202134
78 2 0.0529736 0.766411 0.344226
79 2 0.931373 0.351117 0.0160882
80 2 0.083643 0.025949 0.0459472
81 2 0.069094 0.158654 0.475399
82 2 0.647242 0.184108 0.730266
83 2 0.927529 0.477719 0.315584
84 2 0.0723826 0.166535 0.442958
85 1 0.354569 0.647846 0.0722494
86 2 0.984319 0.908937 0.999923
87 2 0.324878 0.529361 0.583618
88 2 0.747958 0.327929 0.212995
89 2 0.1449 0.62426 0.654077
90 2 0.68644 0.130531 0.113791
91 2 0.105658 0.181024 0.665967
92 2 0.80609 0.482379 0.127739
93 2 0.926611 0.112771 0.70637
94 1 0.248806 0.900299 0.813531
95 2 0.463347 0.0291492 0.392857
96 2 0.804262 0.982261 0.812006
97 2 0.618361 0.944457 0.828686
98 2 0.328419 0.181417 0.127308
99 2 0.912644 0.675285 0.62068
100 2 0.627645 0.171576 0.381737
101 1 0.934127 0.189497 0.151852
102 2 0.741147 0.190743 0.784928
103 2 0.532402 0.769262 0.0911472
104 2 0.1842 0.478208 0.0680038
105 2 0.45807 0.36531 0.710957
106 2 0.521297 0.49218 0.33035
107 2 0.575223 0.951041 0.437888
108 2 0.348232 0.0104767 0.881695
109 2 0.276424 0.840249 0.596896
110 2 0.632684 0.0643218 0.158113
111 2 0.194057 0.431046 0.433844
112 1 0.158306 0.0762744 0.335171
113 1 0.906849 0.57422 0.549378
114 2 0.246706 0.566533 0.83268
115 2 0.714991 0.619869 0.986892
116 2 0.254308 0.470104 0.609943
117 2 0.58506 0.454134 0.052551
118 2 0.520365 0.317462 0.00527496
119 2 0.475298 0.984998 0.125982
120 2 0.424123 0.0600139 0.987992
121 2 0.431969 0.450045 0.876327
122 2 0.766384 0.690732 0.233064
123 2 0.132615 0.269816 0.201534
124 2 0.938506 0.202703 0.090897
125 1 0.0777217 0.227265 0.118414
126 2 0.650479 0.698005 0.32155
127 2 0.183421 0.433685 0.578214
128 2 0.0916561 0.0584927 0.0626107
129 1 0.898119 0.59975 0.891777
130 2 0.308967 0.582638 0.18229
131 2 0.446978 0.0126459 0.704541
132 2 0.0773059 0.0954978 0.904269
133 2 0.376171 0.783976 0.949245
134 2 0.484329 0.756149 0.824625
135 2 0.631888 0.0922965 0.376906
136 2 0.392563 0.766839 0.906846
137 1 0.766697 0.747852 0.59731
138 2 0.707742 0.934099 0.180249
139 2 0.0696071 0.583578 0.696634
140 1 0.377369 0.830243 0.546756
141 2 0.786705 0.0725633 0.0438378
142 2 0.946351 0.899381 0.0780714
143 2 0.445018 0.810295 0.408829
144 2 0.91112 0.467987 0.826364
145 2 0.791593 0.0945199 0.926504
146 2 0.920479 0.628632 0.862763
147 1 0.0474851 0.662559 0.664026
148 1 0.0483386 0.734809 0.991535
149 2 0.931754 0.615002 0.754655
150 1 0.480931 0.512818 0.673657
151 2 0.492745 0.390261 0.732068
152 2 0.0863392 0.938849 0.67
153 1 0.516975 0.0607491 0.597536
154 1 0.126988 0.796057 0.290264
155 2 0.429414 0.111688 0.514231
156 2 0.764551 0.368632 0.151152
157 2 0.277215 0.811291 0.826044
158 2 0.0602537 0.991615 0.472883
159 2 0.146423 0.195079 0.637211
160 2 0.223488 0.330687 0.450109
161 2 0.823567 0.672864 0.215112
162 2 0.130096 0.661869 0.952171
163 2 0.26291 0.0993811 0.508326
164 2 0.552225 0.0263132 0.438998
165 2 0.572191 0.731292 0.300734
166 2 0.629001 0.568539 0.595306
167 2 0.447178 0.317904 0.437863
168 2 0.408445 0.928202 0.522039
169 2 0.703643 0.949043 0.804512
170 2 0.572783 0.104951 0.579784
171 2 0.295667 0.608994 0.181168
172 2 0.296341 0.726462 0.0953249
173 1 0.957633 0.093433 0.642388
174 2 0.281511 0.795494 0.322447
175 2 0.717019 0.904692 0.343368
176 2 0.274272 0.487314 0.13035
177 1 0.529728 0.909277 0.485196
178 2 0.570578 0.886844 0.69923
179 2 0.923971 0.544919 0.140908
180 2 0.703755 0.875923 0.608632
181 2 0.469854 0.478325 0.708503
182 2 0.962627 0.5751 0.403316
183 2 0.420094 0.628715 0.750475
184 2 0.719618 0.903116 0.220613
185 2 0.107108 0.577305 0.741089
186 2 0.741469 0.591354 0.601916
187 2 0.393093 0.591672 0.0894409
188 1 0.438541 0.192878 0.669045
189 2 0.691358 0.521691 0.848538
190 2 0.413273 0.603049 0.815591
191 2 0.669783 0.856029 0.0620728
192 2 0.742542 0.537531 0.774748
193 2 0.695643 0.239164 0.393378
194 2 0.661769 0.294812 0.353395
195 2 0.512431 0.184846 0.502527
196 2 0.189138 0.626337 0.0240016
197 2 0.656482 0.356009 0.300975
198 2 0.339499 0.499019 0.112565
199 2 0.92419 0.941774 0.021324
200 1 0.474269 0.0458179 0.641197
201 2 0.845798 0.330628 0.240741
202 2 0.293372 0.696098 0.158556
203 2 0.0701753 0.528212 0.487771
204 2 0.739835 0.678735 0.264921
205 2 0.9803 0.78708 0.789751
206 2 0.753925 0.122474 0.619801
207 2 0.643676 0.746578 0.0504018
208 2 0.148516 0.306836 0.483866
209 2 0.904648 0.674984 0.588419
210 2 0.582649 0.167787 0.464646
211 2 0.384327 0.579653 0.0284581
212 1 0.705091 0.312973 0.0950324
213 2 0.119968 0.611094 0.703362
214 2 0.511748 0.89219 0.72611
215 2 0.983153 0.736897 0.907889
216 2 0.862813 0.877139 0.854809
217 2 0.194736 0.613699 0.328432
218 2 0.758807 0.513083 0.306304
219 2 0.273148 0.621588 0.581515
220 2 0.860588 0.123829 0.975148
221 2 0.354838 0.891784 0.275408
222 2 0.982259 0.551729 0.300495
223 2 0.619105 0.505414 0.729121
224 2 0.967219 0.458672 0.224501
225 1 0.0227199 0.326687 0.682663
226 2 0.460598 0.182102 0.233425
227 2 0.30963 0.601615 0.540138
228 2 0.150823 0.458932 0.741814
229 2 0.102426 0.808039 0.76529
230 1 0.50502 0.475321 0.740799
231 2 0.676219 0.783568 0.124897
232 2 0.253264 0.803174 0.744176
233 1 0.261144 0.993974 0.209179
234 2 0.57044 0.192101 0.224219
235 2 0.946298 0.272148 0.390069
236 2 0.586358 0.88038 0.306312
237 2 0.529551 0.0644901 0.740685
238 1 0.595674 0.0800292 0.385191
239 1 0.664267 0.397553 0.137916
240 2 0.72273 0.35549 0.874878
241 2 0.750288 0.0503924 0.402224
242 1 0.496412 0.946279 0.624276
243 1 0.000792509 0.653756 0.495209
244 2 0.50061 0.828435 0.687248
245 2 0.91812 0.882771 0.983276
246 1 0.395466 0.65325 0.667402
247 2 0.283932 0.784401 0.850223
248 2 0.828128 0.601809 0.971448
249 2 0.918217 0.946148 0.363461
250 2 0.493664 0.325445 0.290793
251 2 0.251883 0.55083 0.552566
252 2 0.886283 0.0913671 0.726739
253 2 0.893569 0.0918603 0.933949
254 2 0.305668 0.789382 0.882241
255 2 0.873933 0.0477218 0.771301
256 2 0.917008 0.585189 0.376917
257 2 0.866325 0.450412 0.127143
258 2 0.675247 0.568036 0.293744
259 1 0.109093 0.0163899 0.714864
260 2 0.790422 0.795024 0.447306
261 1 0.638068 0.88785 0.887263
262 2 0.64433 0.204841 0.543991
263 2 0.821291 0.36613 0.720233
264 2 0.0688369 0.0401903 0.529068
265 1 0.720309 0.369595 0.239367
266 2 0.295322 0.676018 0.778359
267 2 0.246934 0.696498 0.828929
268 1 0.968554 0.467458 0.963999
269 1 0.368207 0.525288 0.299855
270 2 0.209118 0.489139 0.609111
271 2 0.800955 0.11601 0.354565
272 2 0.0316806 0.31559 0.94291
273 1 0.45545 0.877964 0.254867
274 2 0.622696 0.74608 0.429963
275 2 0.677046 0.91278 0.339417
276 2 0.246311 0.538794 0.0686107
277 2 0.915507 0.546449 0.799198
278 2 0.027361 0.139087 0.710437
279 2 0.932334 0.376302 0.696542
280 1 0.893412 0.172412 0.37067
281 2 0.601934 0.114218 0.416183
282 2 0.7921 0.994973 0.0356661
283 2 0.495691 0.571768 0.513612
284 1 0.757089 0.907817 0.659149
285 2 0.516571 0.845552 0.39844
286 2 0.0701536 0.997248 0.674054
287 1 0.583406 0.0455252 0.891246
288 2 0.357048 0.606129 0.122409
289 2 0.301919 0.583778 0.215735
290 2 0.881643 0.86249 0.19415
291 2 0.658241 0.233147 0.720047
292 2 0.133511 0.528553 0.440775
293 2 0.696422 0.977745 0.967981
294 2 0.800305 0.988771 0.516636
295 2 0.230042 0.035794 0.90934
296 2 0.0501206 0.993306 0.787439
297 2 0.638952 0.954628 0.439474
298 2 0.879328 0.0564017 0.949277
299 1 0.0988415 0.160929 0.355589
300 2 0.893523 0.133883 0.77677
301 2 0.945717 0.899626 0.606914
302 2 0.112364 0.344221 0.957452
303 2 0.944804 0.396541 0.0391477
304 1 0.349606 0.307452 0.134292
305 2 0.894741 0.976291 0.0593689
306 2 0.342133 -0.00112598 0.674007
307 2 0.0605204 0.282655 0.0317042
308 2 0.46658 0.281458 0.175159
309 2 0.279568 0.100184 0.937005
310 2 0.754925 0.173966 0.674989
311 2 0.481242 0.339242 0.0175539
312 2 0.571573 0.815984 0.278307
313 2 0.766574 0.854251 0.846358
314 2 0.330614 0.287117 0.0870783
315 2 0.490483 0.629714 0.324854
316 2 0.288127 0.787625 0.494358
317 2 0.1365 0.273257 0.745379
318 2 0.765064 0.149505 0.894336
319 2 0.709335 0.133491 0.580264
320 2 0.885606 0.0404844 0.0969633
321 2 0.582836 0.390521 0.868351
322 2 0.43456 0.35673 0.321578
323 2 0.362025 0.856115 0.49605
324 2 0.973319 0.0104788 0.396622
325 2 0.625413 0.201236 0.272305
326 2 0.933291 0.169049 0.455735
327 2 0.177026 0.654565 0.884084
328 2 0.372342 0.622546 0.629371
329 1 0.937432 0.524032 0.228879
330 2 0.66376 0.28732 0.806004
331 2 0.912625 0.28974 0.790597
332 2 0.743216 0.0822258 0.00524765
333 2 0.434654 0.137445 0.465276
334 2 0.852785 0.139373 0.759804
335 1 0.584753 0.718995 0.192405
336 2 0.77308 0.0308121 0.254462
337 2 0.269202 0.600721 0.126179
338 1 0.889132 0.328392 0.854484
339 2 0.867747 0.716226 0.656909
340 2 0.149081 0.147814 0.658679
341 2 0.761739 0.130774 0.9965
342 2 0.04099 0.445703 0.730601
343 2 0.703109 0.988203 0.851701
344 1 0.215063 0.796467 0.540584
345 1 0.600704 0.144693 0.629325
346 1 0.472074 0.877277 0.738302
347 1 0.0646043 0.516336 0.762105
348 2 0.795951 0.921857 0.611465
349 2 0.440384 0.960182 0.918964
350 2 0.100625 0.35155 0.499397
351 2 0.869076 0.20416 0.112737
352 2 0.841205 0.238605 0.895395
353 1 0.896193 0.554551 0.198337
354 1 0.695514 0.782216 0.806228
355 2 0.43544 0.141786 0.314825
356 2 0.419573 0.590101 0.0274601
357 2 0.529065 0.943829 0.0355522
358 2 0.496268 0.975962 0.73317
359 2 0.962636 0.589107 0.852342
360 2 0.281582 0.539436 0.821619
361 1 0.597322 0.804093 0.931036
362 2 0.763278 0.365882 0.230396
363 1 0.24552 0.00769325 0.990588
364 2 0.913818 0.478502 0.265823
365 2 0.218521 0.93798 0.556063
366 2 0.457377 0.0109125 0.354048
367 1 0.569395 0.845616 0.679143
368 1 0.862512 0.993239 0.955452
369 2 0.151608 0.17059 0.604019
370 2 0.733444 0.733051 0.449165
371 2 0.789306 0.640896 0.986458
372 1 0.470169 0.425309 0.259331
373 2 0.914187 0.830058 0.708223
374 2 0.952072 0.124314 0.738142
375 2 0.576766 0.289045 0.455329
376 2 0.827106 0.773684 0.48884
377 2 0.631039 0.504468 0.811203
378 2 0.641246 0.418952 0.931774
379 2 0.455345 0.26929 0.385069
380 2 0.342432 0.94032 0.0490774
381 2 0.524715 0.348943 0.435088
382 2 0.556145 0.336969 0.204638
383 2 0.397611 0.840665 0.482837
384 1 0.159004 0.595549 0.745112
385 2 0.879964 0.595638 0.705244
386 2 0.839651 0.058889 0.449264
387 1 0.647506 0.894364 0.110753
388 2 0.987523 0.106274 0.870352
389 2 0.896717 0.28379 0.454821
390 2 0.744535 0.854062 0.439873
391 2 0.949431 0.85878 0.03058
392 1 0.586078 0.527685 0.791783
393 2 0.867082 0.148578 0.833557
394 2 0.771528 0.168971 0.47886
395 2 0.81912 0.12565 0.840592
396 2 0.486907 0.793893 0.308526
397 2 0.576037 0.729653 0.777036
398 1 0.032577 0.0682327 0.00958878
399 1 0.357122 0.251636 0.338982
400 1 0.650303 0.0961985 0.326377
401 2 0.161878 0.192146 0.632328
402 2 0.788041 0.522379 0.0516074
403 2 0.720834 0.817826 0.114706
404 2 0.270483 0.879273 0.639139
405 2 0.540062 0.258723 0.216517
406 2 0.182736 0.301264 0.133436
407 2 0.801104 0.874132 0.491382
408 2 0.828166 0.168608 0.037113
409 2 0.375598 0.316335 0.0628079
410 2 0.920322 0.112519 0.990637
411 2 0.580447 0.552903 0.209866
412 2 0.426269 0.447561 0.790152
413 2 0.546756 0.52649 0.33125
414 2 0.850945 0.527661 0.262748
415 2 0.525195 0.885557 0.107687
416 1 0.337898 0.572008 0.754054
417 2 0.313832 0.950986 0.822159
418 2 0.301223 0.8883 0.806247
419 2 0.0627789 0.521376 0.362209
420 2 0.272169 0.218916 0.728107
421 1 0.869014 0.814527 0.0518902
422 1 0.18368 0.0405493 0.773186
423 2 0.304132 0.599489 0.156861
424 2 0.0757878 0.581152 0.571709
425 1 0.210239 0.911806 0.609844
426 2 0.863801 0.551388 0.0558324
427 2 0.953877 0.611361 0.474149
428 2 0.412714 0.592042 0.74974
429 2 0.805715 0.989759 0.610469
430 2 0.682288 0.0457261 0.756158
431 2 0.554844 0.593998 0.220145
432 1 0.715797 0.790587 0.164815
433 2 0.107477 0.479965 0.246915
434 1 0.371798 0.865162 0.442688
435 2 0.859871 0.841154 0.100377
436 2 0.849898 0.850563 0.0181965
437 2 0.530967 0.390771 0.749826
438 2 0.459898 0.517834 0.820129
439 1 0.358411 0.910348 0.49583
440 2 0.432526 0.0879383 0.699255
441 1 0.678252 0.538586 0.111555
442 1 0.869196 0.164402 0.914581
443 1 0.4282 0.420985 0.0515742
444 2 0.267809 0.540577 0.791644
445 2 0.323558 0.720913 0.86574
446 2 0.137302 0.818715 0.886916
447 2 0.149852 0.602053 0.547863
448 2 0.316944 0.848738 0.443721
449 1 0.164622 0.594895 0.832302
450 2 0.94633 0.16191 0.115792
451 2 0.598808 0.28967 0.596905
452 2 0.305968 0.564432 0.112107
453 1 0.392894 0.0486044 0.666966
454 2 0.72391 0.762544 0.851748
455 2 0.925476 0.956478 0.621057
456 2 0.253813 0.223366 0.4884
457 2 0.364341 0.522989 0.698722
458 2 0.771232 0.16656 0.826169
459 2 0.0274132 0.478393 0.833095
460 2 0.195313 0.962046 0.581652
461 2 0.886904 0.245867 0.881996
462 2 0.12015 0.796822 0.332977
463 1 0.294238 0.465621 0.596069
464 2 0.111848 0.644314 0.692483
465 2 0.740853 0.536329 0.982707
466 2 0.339602 0.480928 0.347165
467 1 0.438684 0.499285 0.40322
468 2 0.879417 0.765888 0.506748
469 2 0.267797 0.188757 0.191406
470 2 0.0763509 0.736031 0.513907
471 2 0.334758 0.0897165 0.531725
472 2 0.808917 0.0508183 0.985335
473 1 0.16864 0.591412 0.964919
474 1 0.066401 0.899866 0.817304
475 1 0.289611 0.618965 0.812489
476 2 0.359186 0.294314 0.0963915
477 2 0.357888 0.02861 0.449091
478 2 0.334638 0.917571 0.227656
479 2 0.668055 0.60327 0.920204
480 2 0.621026 0.330224 0.917665
481 2 0.299496 0.117035 0.163054
482 2 0.11136 0.119832 0.227415
483 2 0.877574 0.312261 0.281134
484 1 0.584197 0.202676 0.361941
485 1 0.629793 0.997452 0.872916
486 2 0.718667 0.625238 0.0459682
487 2 0.493574 0.384816 0.335456
488 2 0.303242 0.611991 0.747488
489 2 0.718842 0.0413145 0.182386
490 2 0.0241845 0.00215205 0.635024
491 2 0.0269182 0.399385 0.988004
492 2 0.504848 0.702207 0.670413
493 2 0.019839 0.905899 0.616513
494 2 0.206742 0.940235 0.00152147
495 2 0.473744 0.453013 0.98513
496 2 0.469776 0.99054 0.683942
497 2 0.551726 0.469455 0.594248
498 1 0.674745 0.812305 0.256776
499 2 0.21203 0.247551 0.790289
500 2 0.163262 0.904126 0.120898
501 1 0.968337 0.278784 0.29121
502 2 0.784201 0.0213303 0.0173979
503 2 0.780787 0.467816 0.962972
504 1 0.809042 0.710617 0.31874
505 2 0.954331 0.649073 0.679045
506 2 0.877571 0.950378 0.744435
507 2 0.963048 0.576577 0.474957
508 2 0.267707 0.158599 0.0022722
509 1 0.342613 0.673784 0.20952
510 2 0.26618 0.271367 0.98353
511 2 0.851554 0.265197 0.116245
512 2 0.11079 0.666381 0.643998
513 1 0.0135084 0.221183 0.265979
514 2 0.918922 0.896734 0.130589
515 1 0.652295 0.166479 0.530981
516 2 0.54145 0.40562 0.255141
517 1 0.357085 0.987572 0.535997
518 2 0.182383 0.349721 0.864762
519 2 0.493223 1.00191 0.648386
520 2 0.943191 0.635752 0.608372
521 2 0.976256 0.208754 0.114881
522 2 0.512579 0.0285695 0.812153
523 2 0.78142 0.39637 0.0070246
524 2 0.344233 0.543878 0.409472
525 2 0.568355 0.478194 0.801183
526 2 0.751752 0.87397 0.967654
527 2 0.204768 0.152228 0.58374
528 1 0.108982 0.310906 0.816943
529 2 0.776142 0.814158 0.961569
530 2 0.180845 0.00548817 0.639004
531 2 0.614431 0.836 0.813201
532 2 0.883308 0.50784 0.382074
533 2 0.10274 0.79716 0.646604
534 1 0.654769 0.47161 0.256895
535 2 0.405291 0.686113 0.453386
536 1 0.291469 0.0508642 0.947309
537 1 0.924257 0.172783 0.904353
538 2 0.178349 0.563788 0.887097
539 2 0.352663 0.898145 0.367464
540 2 0.830738 0.144457 0.11649
541 1 0.432764 0.920241 0.501256
542 2 0.541158 0.0618153 0.285736
543 1 0.473306 0.038889 0.99609
544 1 0.675309 0.229193 0.162337
545 2 0.6235 0.57311 0.197135
546 2 0.0929321 0.653974 0.617763
547 2 0.711385 0.890954 0.373728
548 2 0.399431 0.951333 0.737985
549 2 0.410334 0.846316 0.628423
550 2 0.834237 0.730178 0.766929
551 1 0.65024 0.884978 0.600662
552 2 0.929242 0.536095 0.0913566
553 2 0.509909 0.0677035 0.178698
554 2 0.904071 0.214733 0.949722
555 1 0.936987 0.309871 0.752279
556 2 0.100029 0.386454 0.77126
557 2 0.265997 0.21264 0.600734
558 1 0.366687 0.0739668 0.0272357
559 2 0.430639 0.316334 0.735577
560 2 0.900002 0.496619 0.0695738
561 2 0.850044 0.322572 0.627411
562 1 0.341144 0.227083 0.703774
563 2 0.886098 0.291191 0.983375
564 2 0.85075 0.149239 0.238788
565 2 0.626412 0.0796254 0.898395
566 2 0.0834111 0.0212341 0.0990264
567 2 0.0357342 0.956679 0.427683
568 2 0.068731 0.779505 0.679763
569 1 0.774623 0.650489 0.701698
570 2 0.804774 0.501463 0.978924
571 2 0.12236 0.497269 0.970585
572 2 0.842252 0.547956 0.194643
573 2 0.523354 0.959921 0.120933
574 2 0.398564 0.420969 0.489536
575 1 0.146236 0.817433 0.0123343
576 2 0.901375 0.626667 0.638012
577 2 0.266704 0.298234 0.739813
578 1 0.342146 0.576966 0.819661
579 2 0.488801 0.0108898 0.164219
580 1 0.370307 0.327197 0.294635
581 2 0.906829 0.925049 0.992254
582 2 0.996002 0.79588 0.325514
583 1 0.330358 0.170593 0.628852
584 2 0.787227 0.0588036 0.769662
585 1 0.277657 0.308804 0.090804
586 2 0.326175 0.607115 0.416024
587 2 0.349572 0.577793 0.868057
588 2 0.459681 0.756567 0.162917
589 1 0.394006 0.379648 0.987257
590 1 0.0499692 0.207237 0.383123
591 1 0.667115 0.014033 0.268161
592 2 0.555698 0.709748 0.697109
593 2 0.223821 0.985483 0.530708
594 1 0.192727 0.354896 0.991107
595 1 0.535844 0.442975 0.0599655
596 2 0.0431841 0.508322 0.957352
597 1 0.702944 0.688357 0.175135
598 2 0.153274 0.491836 0.729775
599 2 0.702649 0.503439 0.762712
600 2 0.740625 0.205135 0.0525476
601 2 0.924035 0.236047 0.988168
602 1 0.517161 0.266164 0.453272
603 2 0.599921 0.112001 0.986002
604 1 0.993417 0.381376 0.552418
605 2 0.522454 0.356758 0.72874
606 2 0.469302 0.038914 0.204046
607 1 0.465109 0.577627 0.66019
608 2 0.894891 0.248465 0.217998
609 2 0.29515 0.0521328 0.115087
610 2 0.991198 0.228287 0.384306
611 2 0.538303 0.741775 0.111344
612 1 0.408622 0.321712 0.0295794
613 2 0.909933 0.25197 0.300108
614 1 0.762249 0.125183 0.420642
615 2 0.483482 0.481898 0.828147
616 1 0.946621 0.185379 0.311657
617 2 0.180451 0.039239 0.617137
618 2 0.054891 0.722671 0.160524
619 2 0.285921 0.420089 0.34935
620 2 0.944514 0.558767 0.322238
621 2 0.86845 0.0458197 0.576892
622 2 0.33982 0.851242 0.458799
623 1 0.366878 0.936938 0.183705
624 2 0.698527 0.362566 0.314463
625 2 0.566042 0.292573 0.562466
626 2 0.877597 0.489629 0.0594923
627 2 0.52131 0.732462 0.562584
628 2 0.93702 0.392261 0.971462
629 2 0.54689 0.144131 0.27981
630 1 0.0330431 0.313826 0.0697431
631 2 0.134396 0.101791 0.368083
632 2 0.770181 0.218314 0.516253
633 2 0.926042 0.458555 0.249947
634 2 0.252832 0.122852 0.491781
635 2 0.748812 0.399085 0.701534
636 2 0.21121 0.524531 0.57871
637 2 0.199996 0.633286 0.971184
638 1 0.597707 0.944846 0.673194
639 2 0.129902 0.716115 0.428824
640 2 0.73328 0.541024 0.601974
641 2 0.351767 0.419717 0.213432
642 2 0.697468 0.629669 0.324666
643 2 0.26133 0.519421 0.804231
644 2 0.659344 0.0367729 0.20361
645 1 0.743616 0.998098 0.191399
646 2 0.810961 0.571003 0.192269
647 1 0.273391 0.937166 0.107077
648 2 0.569794 0.372955 0.128156
649 2 0.726754 0.414046 0.0561136
650 2 0.0768889 0.909916 0.293582
651 2 0.343186 0.460889 0.625097
652 2 0.821369 0.631238 0.0107024
653 2 0.0914665 0.331364 0.700598
654 1 0.340506 0.477071 0.832452
655 2 0.994878 0.19336 0.166671
656 2 0.979684 0.396016 0.18502
657 2 0.754834 0.816591 0.58489
658 2 0.528396 0.427042 0.704232
659 2 0.323082 0.882112 0.0192909
660 2 0.278613 0.444022 0.0940889
661 1 0.661318 0.838855 0.517272
662 2 0.756757 0.309852 0.696578
663 2 0.38336 0.433787 0.47108
664 1 0.0237872 0.556573 0.186541
665 2 0.403169 0.87137 0.543326
666 2 0.822765 0.568718 0.893942
667 2 0.459396 0.53294 0.862664
668 2 0.424241 0.806562 0.37705
669 2 0.422633 0.33671 0.264767
670 1 0.627543 0.740944 0.659071
671 2 0.82275 0.69435 0.765667
672 1 0.55567 0.835684 0.364057
673 2 0.914944 0.446684 0.293732
674 2 0.160062 0.0415384 0.467177
675 2 0.902278 0.505904 0.308664
676 1 0.94064 0.646363 0.724344
677 2 0.631665 0.163351 0.674433
678 2 0.230224 0.41917 0.267171
679 1 0.952934 0.229504 0.600938
680 2 0.702933 0.0975824 0.673883
681 1 0.457123 0.427435 0.490252
682 1 0.0390015 0.754454 0.758987
683 2 0.181334 0.395216 0.139078
684 2 0.790274 0.81844 0.739532
685 2 0.730725 0.634692 0.093715
686 2 0.667874 0.798569 0.177355
687 1 0.842182 0.313377 0.941571
688 2 0.492014 0.113368 0.941578
689 2 0.800201 0.0776927 0.979894
690 2 0.549577 0.533349 0.497738
691 2 0.282858 0.714263 0.93667
692 1 0.0215674 0.567658 0.712761
693 2 0.175838 0.426216 0.471529
694 2 0.014026 0.511789 0.244747
695 1 0.814968 0.816146 0.987539
696 2 0.333607 0.177998 0.093055
697 2 0.579661 0.566416 0.714466
698 2 0.142226 0.845675 0.496311
699 2 0.0280938 0.312024 0.278743
700 1 0.348612 0.663549 0.751181
701 2 0.527143 0.471693 0.222098
702 2 0.679295 0.844702 0.795866
703 2 0.351829 0.531106 0.39264
704 2 0.234951 0.565049 0.133765
705 2 0.872652 0.284052 0.0368449
706 2 0.461441 0.600446 0.243864
707 2 0.760287 0.403644 0.385656
708 1 0.609622 0.240848 0.109113
709 2 0.642856 0.395994 0.556539
710 2 0.24675 0.602747 0.845191
711 2 0.381072 0.782147 0.574357
712 1 0.114729 0.114345 0.0937523
713 2 0.11801 0.64975 0.470369
714 1 0.901563 0.417851 0.0580556
715 2 0.363786 0.500741 0.632305
716 1 0.613689 0.904701 0.811152
717 2 0.253303 0.0309297 0.048519
718 2 0.510745 0.448009 0.00714604
719 2 0.641557 0.141242 0.394466
720 2 0.526702 0.620974 0.32823
721 2 0.223414 0.272478 0.18909
722 1 0.27379 0.272359 0.315236
723 2 0.784016 0.490355 0.0937133
724 2 0.551521 0.644172 0.1556
725 2 0.12627 0.338661 0.980667
726 2 0.519595 0.572627 0.676434
727 1 0.631391 0.855512 0.744739
728 1 0.96665 0.59142 0.0511522
729 1 0.429724 0.372963 0.0970622
730 1 0.134245 0.896049 0.665996
731 2 0.307553 0.571141 0.703274
732 1 0.890198 0.525352 0.97675
733 2 0.619399 0.304567 0.334532
734 2 0.15629 0.320064 0.83365
735 2 0.0770393 0.10495 0.420078
736 1 0.341078 0.277565 0.735429
737 2 0.281424 0.0656029 0.444755
738 2 0.282203 0.912232 0.0501036
739 2 0.764549 0.18285 0.943266
740 2 0.1398 0.477639 0.842255
741 2 0.0534197 0.708517 0.943756
742 1 0.946259 0.955428 0.921039
743 2 0.757922 0.177534 0.456526
744 2 0.0875674 0.147585 0.546667
745 2 0.206413 0.0348602 0.73587
746 1 0.557674 0.530584 0.8486
747 2 0.00619219 0.0501157 0.972666
748 2 0.0220665 0.216325 0.00923157
749 2 0.823304 0.609363 0.0625157
750 2 0.332218 0.890898 0.771918
751 2 0.182652 0.597258 0.669704
752 2 0.27525 0.817763 0.411557
753 2 0.590615 0.597343 0.461231
754 2 0.119488 0.5412 0.296009
755 2 0.94227 0.520237 0.684484
756 2 0.576459 0.245698 0.0619481
757 2 0.726984 0.484551 0.407732
758 2 0.183504 0.894458 0.22224
759 2 0.320336 0.616302 0.853157
760 1 0.384067 0.80061 0.832032
761 2 0.795915 0.162817 0.207409
762 2 0.27394 0.551551 0.746253
763 1 0.355775 0.0643466 0.826166
764 2 0.992494 0.3638 0.048602
765 2 0.772713 0.464109 0.533675
766 2 0.282155 0.633958 0.0210914
767 2 0.0146084 0.228633 0.842757
768 2 0.878164 0.297854 0.00100772
769 2 0.47562 0.573724 0.828701
770 2 0.222238 0.65468 0.581578
771 2 0.598582 0.513293 0.705755
772 2 0.130665 0.916575 0.563679
773 1 0.853571 0.858361 0.466559
774 2 0.447372 0.470684 0.286425
775 2 0.70612 0.855372 0.610794
776 2 0.485643 0.479522 0.272845
777 1 0.860173 0.48076 0.289832
778 2 0.20823 0.859013 0.94542
779 2 0.427591 0.420007 0.863295
780 1 0.221569 0.541145 0.332191
781 2 0.310764 0.686133 0.81784
782 2 0.561518 0.424084 0.304462
783 1 0.287924 0.920007 0.994643
784 2 0.43721 0.175788 0.78311
785 2 0.895646 0.113525 0.823016
786 1 0.797322 0.157707 0.373868
787 2 0.811194 0.463392 0.246982
788 2 0.392164 0.513874 0.603843
789 2 0.809055 0.477601 0.0640065
790 2 0.666366 0.356687 0.351829
791 1 0.172851 0.651582 0.724979
792 2 0.0387579 0.293671 0.319094
793 2 0.236247 0.48712 0.856307
794 2 0.804939 0.387423 0.992865
795 2 0.394446 0.341866 0.144959
796 2 0.34879 0.53409 0.618304
797 2 0.834289 0.681931 0.686784
798 2 0.0244847 0.168815 0.22589
799 2 0.978242 0.90975 0.391814
800 2 0.929369 0.566011 0.341108
801 2 0.549175 0.561733 0.618027
802 2 0.141878 0.847866 0.33658
803 2 0.0581948 0.939074 0.64083
804 2 0.859049 0.19652 0.791103
805 2 0.759098 0.0754441 0.466131
806 1 0.779972 0.0489384 0.895501
807 2 0.0060277 0.661344 0.359569
808 2 0.0824722 0.330572 0.350269
809 1 0.37235 0.872812 0.598224
810 2 0.670567 0.837162 0.641306
811 2 0.784984 0.711084 0.525679
812 2 0.690768 0.135516 0.988684
813 1 0.955478 0.420681 0.85261
814 2 0.159419 0.528998 0.746919
815 2 0.902606 0.0372523 0.0880337
816 1 0.2114 0.225237 0.633426
817 1 0.822896 0.958807 0.774088
818 2 0.615565 0.62492 0.00218912
819 1 0.246353 0.683339 0.933809
820 1 0.484619 0.040391 0.708551
821 2 0.589936 0.568347 0.861019
822 2 0.376186 0.258612 0.101845
823 1 0.919493 0.581539 0.669663
824 2 0.484233 0.329708 0.177887
825 2 0.917172 0.134152 0.978569
826 2 0.448226 0.955155 0.0633304
827 1 0.875061 0.912728 0.392471
828 2 0.522588 0.136101 0.424118
829 2 0.0813858 0.600344 0.731161
830 2 0.754412 0.762005 0.330063
831 1 0.913772 0.989673 0.753693
832 2 0.616117 0.609339 0.798188
833 1 0.00230557 0.533222 0.0620511
834 2 0.936076 0.772346 0.100585
835 2 0.875328 0.727276 0.246668
836 2 0.206879 0.105019 0.641822
837 2 0.717414 0.371935 0.297196
838 2 0.771249 0.036269 0.98632
839 2 0.596851 0.6942 0.68147
840 2 0.574219 0.757941 0.115306
841 2 0.97773 0.797892 0.0964305
842 2 0.0930727 0.8002 0.566606
843 2 0.693774 0.00199657 0.414056
844 2 0.673722 0.678221 0.0316609
845 2 0.0635037 0.125158 0.312529
846 2 0.647355 0.373036 0.871068
847 2 0.919313 0.579269 0.28449
848 2 0.914851 0.604977 0.961894
849 1 0.455034 0.308751 0.260672
850 2 0.436002 0.940863 0.467809
851 2 0.638257 0.954555 0.528566
852 2 0.611998 0.700228 0.811415
853 1 0.935369 0.490099 0.374875
854 2 0.729125 0.9213 0.148615
855 2 0.842539 0.488853 0.804205
856 2 0.755457 0.675538 0.494303
857 2 0.430006 0.179926 0.88713
858 2 0.668689 0.760878 0.0606864
859 2 0.577684 0.124861 0.887651
860 2 0.0483819 0.00793612 0.933418
861 2 0.814067 0.120082 0.673129
862 2 0.599671 0.471616 0.70083
863 2 0.518476 0.493183 0.29412
864 2 0.158935 0.160328 0.680029
865 2 0.819955 0.855958 0.0925667
866 2 0.232879 0.901219 0.182037
867 2 0.186793 0.176991 0.731318
868 2 0.854387 0.786229 0.281564
869 2 0.52998 0.0732771 0.549095
870 2 0.309031 0.53361 0.527588
871 2 0.391097 0.320108 0.110385
872 2 0.470618 0.404193 0.0436102
873 2 0.320195 0.655602 0.727596
874 2 0.676888 0.601899 0.77246
875 2 0.566156 0.735412 0.571214
876 2 0.0198346 0.628497 0.134542
877 2 0.155081 0.732364 0.212413
878 2 0.204357 0.745922 0.0333485
879 2 0.367171 0.339764 0.62096
880 2 0.293419 0.416254 0.61181
881 2 0.398647 0.425779 0.32918
882 1 0.687294 0.878138 0.559382
883 1 0.212846 0.52647 0.652109
884 2 0.304811 0.640667 0.329964
885 2 0.939424 0.999074 0.997565
886 2 0.337691 0.123921 0.845488
887 1 0.86475 0.69271 0.830878
888 2 0.219787 0.383462 0.265425
889 2 0.472586 0.42433 0.357712
890 1 0.140311 0.907831 0.480575
891 2 0.978149 0.684906 0.701372
892 2 0.837707 0.131444 0.081337
893 2 0.36681 0.922745 0.934269
894 2 0.134312 0.520693 0.592685
895 1 0.567879 0.832308 0.441725
896 2 0.28771 0.945946 0.672512
897 2 0.959769 0.612945 0.629442
898 2 0.309887 0.825607 0.140068
899 2 0.441164 0.528742 0.502661
900 2 0.85218 0.561699 0.946102
901 2 0.782015 0.41809 0.316367
902 2 0.105555 0.581525 0.24274
903 2 0.797216 0.348517 0.406393
904 2 0.696964 0.637771 0.14216