ITEM: TIMESTEP
67900
ITEM: NUMBER OF ATOMS
1000
ITEM: BOX BOUNDS xy xz yz pp pp pp
0.0000000000000000e+00 1.3572088000000001e+01 0.0000000000000000e+00
0.0000000000000000e+00 1.3572088000000001e+01 0.0000000000000000e+00
0.0000000000000000e+00 1.3572088000000001e+01 0.0000000000000000e+00
ITEM: ATOMS id type xs ys zs
1 2 0.413541 0.0113282 0.956652
2 2 0.758079 0.818942 0.661457
3 1 0.659414 0.795125 0.768171
4 2 0.284414 0.008525 0.624473
5 2 0.699924 0.826385 0.705862
6 1 0.679211 0.901665 0.744996
7 2 0.700794 0.747948 0.707975
8 2 0.709716 0.810159 0.680623
9 2 0.848999 0.588616 0.842081
10 2 0.718991 0.824244 0.723977
11 2 0.786375 0.791416 0.710225
12 2 0.768377 0.764196 0.706337
13 2 0.749065 0.808278 0.690971
14 1 0.763574 0.791331 0.576213
15 2 0.733137 0.851213 0.723159
16 2 0.6539 0.0425376 0.917592
17 1 0.682655 0.86113 0.709658
18 2 0.739282 0.805137 0.692346
19 2 0.756356 0.983588 0.773754
20 2 0.725833 0.743165 0.673254
21 2 0.757963 0.765488 0.690835
22 2 0.270582 0.0488773 1.00111
23 2 0.227861 0.22075 0.685313
24 2 0.784235 0.771964 0.69109
25 1 0.756248 0.000243148 0.952797
26 2 0.711017 0.833303 0.657381
27 2 0.719899 0.740164 0.701762
28 2 0.749018 0.796578 0.712108
29 2 0.227668 0.177412 0.829171
30 2 0.709676 0.758056 0.682637
31 1 0.681987 0.736487 0.69255
32 1 0.724947 0.855228 0.759167
33 1 0.774886 0.75366 0.756587
34 2 0.766685 0.780659 0.686008
35 2 0.750021 0.819553 0.641555
36 1 0.720193 0.758458 0.5861
37 2 0.746791 0.80716 0.706002
38 2 0.701146 0.79142 0.710226
39 2 0.318158 0.206416 0.584266
40 2 0.734464 0.757763 0.688335
41 2 0.731263 0.79535 0.718197
42 2 0.734594 0.800925 0.728205
43 2 0.41653 0.991363 0.442063
44 2 0.734205 0.66898 0.739028
45 2 0.753367 0.852108 0.725596
46 1 0.424637 0.948507 0.151273
47 2 0.76083 0.853489 0.697379
48 2 0.712041 0.783907 0.675599
49 2 0.845268 0.924924 0.347128
50 2 0.785269 0.7821 0.687557
51 2 0.681755 0.79727 0.735298
52 2 0.478768 0.520617 0.0477924
53 2 0.81625 0.138476 0.115533
54 2 0.681094 0.803005 0.717311
55 1 0.810071 0.711392 0.730194
56 1 0.661962 0.812564 0.645106
57 2 0.75912 0.752397 0.674375
58 2 0.723265 0.787682 0.689892
59 2 0.741846 0.842415 0.711866
60 2 0.685943 0.826496 0.71519
61 2 0.382816 0.669722 0.112218
62 2 0.703211 0.800498 0.694849
63 2 0.737059 0.809675 0.639002
64 2 0.723823 0.783562 0.726205
65 2 0.724443 0.811231 0.687511
66 1 0.749275 0.872547 0.7499
67 2 0.691403 0.759306 0.692551
68 2 0.731181 0.768923 0.737192
69 1 0.708555 0.810773 0.807983
70 2 0.69431 0.844099 0.724408
71 1 0.699599 0.921121 0.660695
72 2 0.777079 0.792548 0.700948
73 2 0.704163 0.77693 0.701516
74 2 0.725249 0.785574 0.688253
75 2 0.224831 0.59358 0.80315
76 2 0.720388 0.786082 0.679555
77 1 0.842626 0.828434 0.750945
78 2 0.853622 0.155765 0.223543
79 2 0.677394 0.786282 0.693076
80 2 0.999954 0.710275 0.510717
81 2 0.705187 0.771726 0.670346
82 2 0.726929 0.824039 0.686172
83 2 0.710022 0.784416 0.734127
84 2 0.709805 0.789025 0.687543
85 1 0.756648 0.689233 0.636747
86 2 0.705535 0.784934 0.648909
87 2 0.718748 0.806346 0.668229
88 2 0.737068 0.858013 0.689483
89 2 0.76052 0.764698 0.732254
90 2 0.749603 0.757044 0.729395
91 2 0.916118 0.63014 0.43186
92 2 0.755545 0.807098 0.669797
93 2 0.750858 0.753425 0.70472
94 1 0.405126 0.749373 0.16907
95 2 0.0466863 0.313737 0.524355
96 2 0.675496 0.817978 0.724025
97 2 0.772458 0.750676 0.700538
98 2 0.757392 0.80387 0.703509
99 2 0.684954 0.862391 0.597374
100 2 0.713301 0.762774 0.737967
101 1 0.356429 0.027922 0.557364
102 2 0.0471746 0.425774 0.980149
103 2 0.783073 0.806827 0.696953
104 2 0.743538 0.758939 0.702827
105 2 0.73341 0.800768 0.678332
106 2 0.414547 0.828678 0.979132
107 2 0.0210198 0.113101 0.852977
108 2 0.753331 0.843377 0.675845
109 2 0.747224 0.813129 0.680387
110 2 0.713022 0.749006 0.698809
111 2 0.0390194 0.778714 0.867324
112 1 0.699956 0.877623 0.683985
113 1 0.751619 0.748263 0.633501
114 2 0.798742 0.802386 0.7007
115 2 0.689641 0.567956 0.0318443
116 2 0.769473 0.791282 0.707902
117 2 0.189009 0.225733 0.219723
118 2 0.753706 0.791401 0.685877
119 2 0.802426 0.511082 0.821413
120 2 0.73082 0.815967 0.67434
121 2 0.739306 0.773546 0.687332
122 2 0.7041 0.805043 0.675065
123 2 0.713583 0.812323 0.706886
124 2 0.717922 0.844292 0.666555
125 1 0.824232 0.857032 0.637085
126 2 0.707795 0.759345 0.664981
127 2 0.744158 0.815655 0.734978
128 2 0.713871 0.826875 0.729414
129 1 0.065096 0.0852244 0.89268
130 2 0.455272 0.427448 0.83933
131 2 0.689 0.813406 0.724069
132 2 0.740272 0.787029 0.699393
133 2 0.777513 0.795262 0.667311
134 2 0.399929 0.651939 0.451641
135 2 0.755484 0.779162 0.722393
136 2 0.775429 0.838165 0.720491
137 1 0.622309 0.810903 0.733381
138 2 0.730641 0.778216 0.684183
139 2 0.703921 0.823592 0.718048
140 1 0.755468 0.775073 0.614125
141 2 0.696417 0.822476 0.676865
142 2 0.707076 0.83433 0.728203
143 2 0.910714 0.124541 0.458637
144 2 0.785523 0.792136 0.731631
145 2 0.730285 0.857871 0.696495
146 2 0.704526 0.749695 0.68985
147 1 0.25564 0.885695 0.363724
148 1 0.725302 0.754741 0.61996
149 2 0.746753 0.777824 0.648882
150 1 0.820681 0.770214 0.704735
151 2 0.702288 0.779423 0.677296
152 2 0.747553 0.826728 0.68302
153 1 0.693042 0.860101 0.745841
154 1 0.46539 0.635483 0.933181
155 2 0.782634 0.810646 0.67646
156 2 0.75525 0.841317 0.707381
157 2 0.769741 0.843468 0.688929
158 2 0.184924 0.319294 0.359925
159 2 0.723878 0.792617 0.737946
160 2 0.698465 0.793584 0.677209
161 2 0.741727 0.764498 0.654799
162 2 0.710447 0.779816 0.703823
163 2 0.741017 0.749491 0.679064
164 2 0.762495 0.769502 0.679474
165 2 0.70599 0.841583 0.716274
166 2 0.705638 0.823323 0.696123
167 2 0.426096 0.613623 0.398032
168 2 0.765885 0.759036 0.72398
169 2 0.582506 0.304249 0.491583
170 2 0.604599 0.276213 0.469347
171 2 0.694268 0.813652 0.665872
172 2 0.198436 0.407685 0.310241
173 1 0.729782 0.728721 0.644773
174 2 0.723699 0.796569 0.709645
175 2 0.954356 0.139451 0.463818
176 2 0.70374 0.769228 0.692175
177 1 0.174973 0.967533 0.035232
178 2 0.93762 0.33752 0.0910428
179 2 0.577913 0.40465 0.603133
180 2 0.768744 0.7957 0.663855
181 2 0.714751 0.829098 0.740511
182 2 0.73094 0.846383 0.735115
183 2 0.780517 0.816211 0.615713
184 2 0.714741 0.818132 0.702091
185 2 0.771196 0.805124 0.704364
186 2 0.747062 0.806098 0.685386
187 2 0.755728 0.0370461 0.0215987
188 1 0.73058 0.759802 0.775886
189 2 0.713214 0.802061 0.66474
190 2 0.731633 0.819186 0.692335
191 2 0.727092 0.807725 0.726446
192 2 0.68346 0.783128 0.675179
193 2 0.715433 0.815809 0.686835
194 2 0.876408 0.729399 0.0874518
195 2 0.753999 0.767707 0.671204
196 2 0.703676 0.77384 0.680881
197 2 0.763669 0.81557 0.674334
198 2 0.621376 0.529702 0.331193
199 2 0.102602 0.236718 0.108018
200 1 0.793941 0.855348 0.713704
201 2 0.711605 0.786236 0.716399
202 2 0.758459 0.366451 0.203803
203 2 0.710194 0.79433 0.675216
204 2 0.733385 0.75426 0.731568
205 2 0.717643 0.819543 0.744087
206 2 0.73367 0.745703 0.703179
207 2 0.19682 0.791515 0.377457
208 2 0.724966 0.781311 0.751984
209 2 0.744483 0.806234 0.672155
210 2 0.774774 0.814625 0.693612
211 2 0.223426 0.644395 0.57254
212 1 0.658759 0.828052 0.79148
213 2 0.760234 0.78939 0.679765
214 2 0.760135 0.77073 0.710274
215 2 0.754754 0.768415 0.65785
216 2 0.754428 0.781211 0.664251
217 2 0.714441 0.786571 0.703724
218 2 0.719352 0.795983 0.756307
219 2 0.70683 0.818239 0.721364
220 2 0.748163 0.801929 0.746575
221 2 0.703213 0.845848 0.688363
222 2 0.182583 0.162184 0.332318
223 2 0.741613 0.774041 0.664022
224 2 0.718567 0.811283 0.731819
225 1 0.769859 0.876754 0.698052
226 2 0.709465 0.746208 0.681772
227 2 0.713146 0.774359 0.650579
228 2 0.708108 0.855671 0.712562
229 2 0.732726 0.761611 0.698498
230 1 0.71653 0.877478 0.732674
231 2 0.752249 0.777061 0.698982
232 2 0.734924 0.824088 0.68452
233 1 0.784165 0.751524 0.648832
234 2 0.789874 0.809018 0.705479
235 2 0.766175 0.785325 0.690272
236 2 0.690407 0.82915 0.724313
237 2 0.461886 0.41908 0.904078
238 1 0.428829 0.387465 0.916416
239 1 0.782628 0.772989 0.622918
240 2 0.756907 0.82504 0.681337
241 2 0.682321 0.791903 0.681372
242 1 0.811191 0.82876 0.712058
243 1 0.759258 0.816754 0.618104
244 2 0.738646 0.84916 0.675048
245 2 0.686747 0.770059 0.716888
246 1 0.715495 0.729162 0.739953
247 2 0.750713 0.832728 0.731158
248 2 0.708771 0.773934 0.751277
249 2 0.694129 0.783563 0.744059
250 2 0.700732 0.753769 0.72204
251 2 0.739416 0.758093 0.722776
252 2 0.409787 0.906397 0.336514
253 2 0.722057 0.749853 0.669027
254 2 0.742895 0.787708 0.72937
255 2 0.757193 0.747842 0.713923
256 2 0.75363 0.784039 0.728201
257 2 0.715156 0.801776 0.723773
258 2 0.786614 0.829206 0.697071
259 1 0.512589 0.812471 0.134108
260 2 0.725813 0.808889 0.674829
261 1 0.733056 0.694931 0.745372
262 2 0.60796 0.155579 0.662958
263 2 0.762913 0.81812 0.712119
264 2 0.410059 0.379371 0.0513305
265 1 0.739175 0.716072 0.715525
266 2 0.756158 0.818452 0.722207
267 2 0.736576 0.791842 0.71356
268 1 0.703822 0.736443 0.649319
269 1 0.382258 0.785334 0.265297
270 2 0.430353 0.774472 0.0236872
271 2 0.521463 0.163529 0.817696
272 2 0.707814 0.796692 0.729973
273 1 0.651747 0.828713 0.707318
274 2 0.747325 0.821547 0.694187
275 2 0.735082 0.80317 0.68831
276 2 0.72792 0.775924 0.694698
277 2 0.759081 0.793963 0.699885
278 2 0.894641 0.135283 0.789154
279 2 0.701323 0.806384 0.736158
280 1 0.776622 0.731561 0.611762
281 2 0.115952 0.941453 0.0275603
282 2 0.745203 0.75949 0.676837
283 2 0.825453 0.69069 0.918475
284 1 0.75825 0.839767 0.768937
285 2 0.753977 0.795321 0.742768
286 2 0.731 0.781407 0.664392
287 1 0.71724 0.117216 0.0499797
288 2 0.710708 0.789886 0.713587
289 2 0.725939 0.826966 0.702701
290 2 0.712034 0.802931 0.652766
291 2 0.705733 0.820268 0.704472
292 2 0.105697 0.208346 0.518843
293 2 0.750213 0.792756 0.692299
294 2 0.768668 0.769085 0.705408
295 2 0.767416 0.776546 0.738678
296 2 0.350864 0.236359 0.666643
297 2 0.678045 0.833863 0.69572
298 2 0.729995 0.835265 0.685907
299 1 0.693234 0.722328 0.717634
300 2 0.703774 0.808055 0.663488
301 2 0.704902 0.756819 0.723934
302 2 0.499388 0.523336 0.727136
303 2 0.718783 0.767579 0.696769
304 1 0.65474 0.211402 0.123625
305 2 0.704101 0.826795 0.684481
306 2 0.740732 0.777795 0.749039
307 2 0.561916 0.892782 0.81059
308 2 0.422234 0.388924 0.971785
309 2 0.786419 0.773652 0.706562
310 2 0.727205 0.818576 0.708468
311 2 0.746098 0.817845 0.713705
312 2 0.71868 0.752058 0.706225
313 2 0.747169 0.816061 0.733675
314 2 -0.000175436 0.586693 0.481512
315 2 0.759768 0.783357 0.713655
316 2 0.766608 0.782666 0.671659
317 2 0.717837 0.784892 0.700512
318 2 0.436661 0.84038 0.0353978
319 2 0.720936 0.806534 0.695434
320 2 0.762975 0.807605 0.722237
321 2 0.752363 0.839366 0.738094
322 2 0.727274 0.812893 0.751816
323 2 0.943384 0.307987 0.365912
324 2 0.507878 0.41474 0.39307
325 2 0.737833 0.82576 0.672339
326 2 0.691477 0.803371 0.71562
327 2 0.753261 0.749603 0.691102
328 2 0.73703 0.802362 0.705051
329 1 0.599694 0.148112 0.724339
330 2 0.739843 0.804235 0.639959
331 2 0.768567 0.830736 0.704744
332 2 0.744566 0.789052 0.720666
333 2 0.742044 0.828155 0.748269
334 2 0.687329 0.793043 0.697886
335 1 0.209638 0.478926 0.959834
336 2 0.760794 0.776542 0.685184
337 2 0.0431244 0.763295 0.207175
338 1 0.700523 0.766924 0.630686
339 2 0.759408 0.838974 0.713769
340 2 0.746831 0.788573 0.752652
341 2 0.699723 0.815127 0.722153
342 2 0.733049 0.807833 0.699248
343 2 0.726542 0.848151 0.706739
344 1 0.739316 0.844229 0.801217
345 1 0.703812 0.791501 0.611934
346 1 0.697549 0.893005 0.707183
347 1 0.438526 0.457239 0.684386
348 2 0.768902 0.769841 0.661463
349 2 0.478867 0.981188 0.576519
350 2 0.837093 0.822568 0.29482
351 2 0.719797 0.843506 0.725762
352 2 0.959649 0.910578 0.101652
353 1 0.75964 0.845822 0.598895
354 1 0.67912 0.896935 0.921585
355 2 0.199536 0.789425 0.548136
356 2 0.743748 0.827941 0.718219
357 2 0.503455 0.773707 0.890623
358 2 0.304301 0.00643371 0.465659
359 2 0.689309 0.819543 0.700854
360 2 0.726868 0.790515 0.73408
361 1 0.649174 0.865075 0.752758
362 2 0.442065 0.264838 0.117715
363 1 0.758609 0.771759 0.831205
364 2 0.739942 0.809246 0.744762
365 2 0.767485 0.760322 0.673017
366 2 0.710801 0.828827 0.712583
367 1 0.338413 0.699274 0.08937
368 1 0.647852 0.787835 0.705082
369 2 0.236185 0.231942 0.401234
370 2 0.685689 0.830223 0.682175
371 2 0.739225 0.823569 0.661175
372 1 0.805369 0.890292 0.738142
373 2 0.749033 0.832783 0.661537
374 2 0.691273 0.8613 0.180051
375 2 0.769923 0.759698 0.728761
376 2 0.769102 0.75664 0.692919
377 2 0.682579 0.747147 0.628775
378 2 0.717685 0.798868 0.679835
379 2 0.744751 0.84267 0.673042
380 2 0.733603 0.773276 0.672264
381 2 0.732533 0.783291 0.717194
382 2 0.14488 0.935769 0.269963
383 2 0.719175 0.762562 0.657104
384 1 0.0148773 0.771449 0.111509
385 2 0.685147 0.815324 0.669972
386 2 0.79127 0.777986 0.711585
387 1 0.245393 0.809467 0.943506
388 2 0.732864 0.797509 0.716086
389 2 0.729931 0.841588 0.715084
390 2 0.694858 0.774645 0.70763
391 2 0.740531 0.804949 0.666077
392 1 0.844447 0.812445 0.698632
393 2 0.953972 0.377085 0.365641
394 2 0.730202 0.763312 0.674252
395 2 0.744924 0.784922 0.762191
396 2 0.695868 0.808283 0.710823
397 2 0.748056 0.820383 0.654444
398 1 0.537906 0.67728 0.5499
399 1 0.859947 0.790849 0.647008
400 1 0.868872 0.298913 0.49833
401 2 0.677665 0.804945 0.668471
402 2 0.998947 0.458065 0.970061
403 2 0.698407 0.826617 0.742061
404 2 0.750449 0.819787 0.668967
405 2 0.179395 0.241345 0.15299
406 2 0.750434 0.783941 0.698736
407 2 0.829254 0.95223 0.833939
408 2 0.741714 0.816257 0.675368
409 2 0.679408 0.803692 0.679423
410 2 0.780022 0.761752 0.705081
411 2 0.969329 0.908883 0.685034
412 2 0.281668 0.782864 0.139544
413 2 0.733954 0.776873 0.660885
414 2 0.763751 0.812154 0.653657
415 2 0.706556 0.792793 0.668243
416 1 0.659847 0.876529 0.636046
417 2 0.752582 0.3435 0.23318
418 2 0.740977 0.761744 0.73141
419 2 0.727334 0.80344 0.760315
420 2 0.240186 0.97626 0.232225
421 1 0.690016 0.838513 0.768461
422 1 0.773856 0.721116 0.695817
423 2 0.744211 0.746512 0.66134
424 2 0.691156 0.767403 0.721269
425 1 0.649774 0.813414 0.675872
426 2 0.946413 0.788066 0.124447
427 2 0.867167 0.497803 0.707937
428 2 0.499614 0.902295 0.827928
429 2 0.679606 0.780878 0.716747
430 2 0.729142 0.83711 0.730327
431 2 0.71221 0.788601 0.645261
432 1 0.77392 0.814324 0.774273
433 2 0.248455 0.938999 0.295711
434 1 0.825473 0.383953 0.659952
435 2 0.0950348 0.612661 0.846785
436 2 0.782159 0.795352 0.680209
437 2 0.617001 0.188659 0.918963
438 2 0.214268 0.410311 0.269219
439 1 0.703163 0.722472 0.675628
440 2 0.73412 0.822127 0.700234
441 1 0.621558 0.0350075 0.881956
442 1 0.82109 0.866676 0.692536
443 1 0.967803 0.901867 0.896114
444 2 0.765947 0.789314 0.678853
445 2 0.518215 0.0629893 0.485829
446 2 0.704925 0.818548 0.675087
447 2 0.742163 0.839921 0.685992
448 2 0.187605 0.784355 0.511263
449 1 0.117359 0.985551 0.914399
450 2 0.738285 0.791448 0.693714
451 2 0.750733 0.761573 0.688411
452 2 0.723396 0.745183 0.717456
453 1 0.857765 0.768714 0.723069
454 2 0.711994 0.830302 0.67785
455 2 0.568438 0.483373 0.0209852
456 2 0.546975 0.825894 0.293138
457 2 0.733504 0.774615 0.696268
458 2 0.716429 0.77108 0.664763
459 2 0.747937 0.801492 0.735621
460 2 0.774248 0.821784 0.658258
461 2 0.897576 0.297796 0.779923
462 2 0.747778 0.792341 0.674463
463 1 0.714136 0.886502 0.656058
464 2 0.740911 0.109892 0.315544
465 2 0.707806 0.786748 0.689918
466 2 0.759114 0.833408 0.684687
467 1 0.759516 0.766423 0.778117
468 2 0.912261 0.811449 0.0634149
469 2 0.754991 0.827946 0.744876
470 2 0.716773 0.771885 0.702702
471 2 0.775106 0.807502 0.666766
472 2 0.760893 0.828871 0.686507
473 1 0.795719 0.850671 0.774014
474 1 0.999897 0.566067 0.0839963
475 1 0.200602 0.538194 0.124522
476 2 0.737319 0.79238 0.754405
477 2 0.685267 0.803624 0.660064
478 2 0.72145 0.818225 0.6788
479 2 0.108181 0.172361 0.702582
480 2 0.674223 0.80633 0.70119
481 2 0.7778 0.828789 0.675408
482 2 0.0226989 0.983592 0.557288
483 2 0.725241 0.822454 0.659841
484 1 0.701813 0.848964 0.634347
485 1 0.818832 0.755227 0.755785
486 2 0.730449 0.784438 0.647016
487 2 0.76481 0.7838 0.649551
488 2 0.756648 0.824884 0.706705
489 2 0.761825 0.803485 0.652004
490 2 0.735218 0.849537 0.68542
491 2 0.739526 0.791546 0.666607
492 2 0.761445 0.791932 0.743969
493 2 0.758028 0.840111 0.690636
494 2 0.719936 0.779136 0.714321
495 2 0.718669 0.744279 0.686101
496 2 0.720941 0.857868 0.695122
497 2 0.818245 0.538361 0.820669
498 1 0.819996 0.793554 0.730558
499 2 0.709523 0.806514 0.701775
500 2 0.742826 0.832848 0.673897
501 1 0.79731 0.750632 0.675332
502 2 0.754745 0.792892 0.660214
503 2 0.719496 0.835074 0.691082
504 1 0.665749 0.807628 0.591291
505 2 0.710162 0.845017 0.729484
506 2 0.763101 0.816713 0.728123
507 2 0.736578 0.810284 0.739632
508 2 0.725328 0.761233 0.681747
509 1 0.697158 0.744143 0.760785
510 2 0.69613 0.787305 0.65468
511 2 0.690925 0.773317 0.737676
512 2 0.744805 0.807825 0.702675
513 1 0.354331 0.395388 0.537636
514 2 0.687761 0.81504 0.68473
515 1 0.789546 0.688415 0.694767
516 2 0.704791 0.79069 0.722496
517 1 0.707188 0.820601 0.581771
518 2 0.758204 0.807524 0.694257
519 2 0.717902 0.814946 0.720781
520 2 0.695196 0.797608 0.729993
521 2 0.0499868 0.872206 0.553113
522 2 0.768942 0.780518 0.724739
523 2 0.705546 0.816201 0.685606
524 2 0.742219 0.77076 0.741186
525 2 0.768869 0.805391 0.737491
526 2 0.214301 0.719393 0.378919
527 2 0.724727 0.831353 0.691908
528 1 0.564177 0.426068 0.107146
529 2 0.757629 0.810833 0.737623
530 2 0.750568 0.775048 0.695249
531 2 0.719589 0.772769 0.685409
532 2 0.782722 0.807943 0.728339
533 2 0.713001 0.721914 0.489929
534 1 0.720572 0.873594 0.603788
535 2 0.738761 0.82025 0.699927
536 1 0.681699 0.861318 0.66853
537 1 0.665896 0.823134 0.748479
538 2 0.724418 0.832276 0.745638
539 2 0.760048 0.81896 0.696588
540 2 0.369369 0.517505 0.269991
541 1 0.761617 0.72364 0.6595
542 2 0.733464 0.746099 0.683185
543 1 0.0426737 0.190421 0.846102
544 1 0.785991 0.799024 0.630662
545 2 0.771991 0.819396 0.704934
546 2 0.785017 0.805152 0.71668
547 2 0.27262 0.501784 0.606825
548 2 0.761845 0.785658 0.758635
549 2 0.745445 0.74294 0.698043
550 2 0.289376 0.275401 0.182779
551 1 0.784104 0.874741 0.672463
552 2 0.537273 0.941976 0.781694
553 2 0.761459 0.785122 0.699522
554 2 0.719059 0.822988 0.713147
555 1 0.156153 0.414747 0.993521
556 2 0.904883 0.341697 0.21042
557 2 0.782218 0.818402 0.713175
558 1 0.660177 0.89319 0.678129
559 2 0.741856 0.803653 0.659164
560 2 0.696586 0.836925 0.681387
561 2 0.746354 0.791301 0.6639
562 1 0.730183 0.866444 0.644268
563 2 0.774659 0.829165 0.737406
564 2 0.984875 0.474326 0.835397
565 2 0.713504 0.816708 0.668876
566 2 0.444149 0.524399 0.0753803
567 2 0.725492 0.83431 0.656417
568 2 0.733753 0.860107 0.715929
569 1 0.64475 0.856437 0.698756
570 2 0.778277 0.824645 0.669638
571 2 0.739379 0.708468 0.0116021
572 2 0.689723 0.781964 0.731232
573 2 0.717793 0.839111 0.711499
574 2 0.0496918 0.924014 0.12422
575 1 0.257131 0.891268 0.521959
576 2 0.769207 0.804946 0.683935
577 2 0.734186 0.794226 0.72567
578 1 0.649902 0.700848 0.70828
579 2 0.781689 0.787165 0.718326
580 1 0.659973 0.718794 0.666986
581 2 0.125933 0.057147 0.77904
582 2 0.697761 0.813624 0.694536
583 1 0.76055 0.883473 0.786345
584 2 0.72319 0.803244 0.736738
585 1 0.702473 0.877898 0.783251
586 2 0.751221 0.768511 0.718359
587 2 0.721204 0.785581 0.672369
588 2 0.0323615 0.0619591 0.844577
589 1 0.826808 0.752203 0.632086
590 1 0.67316 0.750496 0.656235
591 1 0.755047 0.730496 0.744249
592 2 0.734145 0.281646 0.9997
593 2 0.723733 0.793844 0.704221
594 1 0.855146 0.766995 0.0728599
595 1 0.761445 0.473294 0.88609
596 2 0.753641 0.825967 0.75112
597 1 0.378742 0.826002 0.866004
598 2 0.711094 0.789752 0.749445
599 2 0.715069 0.812818 0.695319
600 2 0.713277 0.847648 0.689431
601 2 0.737395 0.809106 0.720695
602 1 0.763415 0.876622 0.633207
603 2 0.723501 0.793965 0.690447
604 1 0.252855 0.245671 0.218297
605 2 0.893565 0.512309 0.514388
606 2 0.281139 0.724345 0.359108
607 1 0.814365 0.822786 0.677879
608 2 0.20778 0.669443 0.711843
609 2 0.724596 0.808038 0.652847
610 2 0.721627 0.85161 0.680167
611 2 0.723527 0.768247 0.748666
612 1 0.855537 0.0882642 0.963881
613 2 0.802043 0.815217 0.707987
614 1 0.888228 0.0530794 0.449262
615 2 0.0888055 0.686616 0.00317831
616 1 0.69733 0.708868 0.63713
617 2 0.699249 0.800176 0.710795
618 2 0.80141 0.630692 0.081861
619 2 0.346416 0.613258 0.880332
620 2 0.712715 0.711161 0.101796
621 2 0.753255 0.800771 0.645659
622 2 0.73068 0.794375 0.659793
623 1 0.475683 0.319786 0.112185
624 2 0.73867 0.777869 0.7343
625 2 0.0487274 0.657924 0.398412
626 2 0.421106 0.413728 0.0557071
627 2 0.718833 0.774398 0.675229
628 2 0.164009 0.40221 0.125302
629 2 0.790156 0.806719 0.67385
630 1 0.668037 0.851067 0.728717
631 2 0.70479 0.849375 0.674221
632 2 0.748259 0.784031 0.669781
633 2 0.739506 0.777768 0.681138
634 2 0.678537 0.948298 0.0420458
635 2 0.580349 0.324802 0.149715
636 2 0.706885 0.777198 0.726049
637 2 0.732073 0.742975 0.693897
638 1 0.0518825 0.312169 0.265125
639 2 0.739427 0.774531 0.711565
640 2 0.753143 0.758655 0.714517
641 2 0.732871 0.843631 0.657896
642 2 0.789309 0.79618 0.678057
643 2 0.732435 0.381427 0.368667
644 2 0.688729 0.758886 0.679375
645 1 0.803286 0.817161 0.764295
646 2 0.696412 0.803004 0.701194
647 1 0.671937 0.76179 0.749428
648 2 0.33529 0.998354 0.348545
649 2 0.744857 0.786705 0.707247
650 2 0.710475 0.795905 0.747662
651 2 0.744854 0.853299 0.698943
652 2 0.767045 0.82471 0.695025
653 2 0.732413 0.835493 0.742318
654 1 0.798388 0.779024 0.655756
655 2 0.110997 0.0404426 0.851922
656 2 0.693694 0.805786 0.678129
657 2 0.105413 0.473308 0.358368
658 2 0.765668 0.851611 0.715953
659 2 0.688039 0.773181 0.659516
660 2 0.389933 0.970304 0.301356
661 1 0.956444 0.555554 0.431936
662 2 0.764291 0.792574 0.726154
663 2 0.713726 0.757072 0.734754
664 1 0.275078 0.858439 0.293618
665 2 0.16319 0.0968052 0.321233
666 2 0.709269 0.811067 0.643453
667 2 0.712338 0.773382 0.720478
668 2 0.692419 0.793967 0.68862
669 2 0.052829 0.255327 0.0689941
670 1 0.395596 0.631023 0.980583
671 2 0.492217 0.164976 0.134369
672 1 0.738853 0.84306 0.620443
673 2 0.75731 0.815711 0.684564
674 2 0.721237 0.805076 0.713814
675 2 0.72612 0.260097 0.998665
676 1 0.740484 0.914537 0.730052
677 2 0.720372 0.745082 0.720909
678 2 0.718244 0.802013 0.713559
679 1 0.554536 0.948159 0.909742
680 2 0.727212 0.814774 0.714494
681 1 0.707311 0.822421 0.617869
682 1 0.796491 0.722359 0.666888
683 2 0.514367 0.0957459 0.203265
684 2 0.268492 0.63562 0.307284
685 2 0.687099 0.815096 0.698405
686 2 0.987141 0.1596 0.446447
687 1 0.723915 0.687782 0.669517
688 2 0.194167 0.331075 0.190866
689 2 0.773134 0.810038 0.715532
690 2 0.752775 0.767885 0.702735
691 2 0.695148 0.809279 0.742947
692 1 0.6619 0.78973 0.736907
693 2 0.732474 0.820279 0.648041
694 2 0.719881 0.753123 0.724048
695 1 0.630803 0.764459 0.741058
696 2 0.700038 0.209365 0.38758
697 2 0.0983664 0.574945 0.396115
698 2 0.745448 0.778388 0.724997
699 2 0.713735 0.80488 0.691305
700 1 0.681379 0.714589 0.743119
701 2 0.767165 0.787796 0.708393
702 2 0.718405 0.796953 0.747076
703 2 0.778225 0.762689 0.677128
704 2 0.04789 0.308877 0.496047
705 2 0.744162 0.80028 0.723754
706 2 0.78694 0.797159 0.691373
707 2 0.767016 0.181914 0.971197
708 1 0.800874 0.83915 0.739605
709 2 0.433877 0.460455 0.0711741
710 2 0.777889 0.813447 0.720845
711 2 0.69471 0.80339 0.653446
712 1 0.797958 0.847919 0.670692
713 2 0.759518 0.830986 0.674495
714 1 0.78325 0.854316 0.645306
715 2 0.694199 0.779139 0.693294
716 1 0.659051 0.746577 0.780288
717 2 0.727 0.758514 0.705494
718 2 0.802274 0.512561 0.248989
719 2 0.708397 0.797746 0.690254
720 2 0.752043 0.841696 0.698469
721 2 0.73429 0.821715 0.725272
722 1 0.0426545 0.777004 0.684719
723 2 0.204779 0.413072 0.0688183
724 2 0.709453 0.764237 0.712277
725 2 0.17863 0.794308 0.127699
726 2 0.721434 0.835651 0.673932
727 1 0.156688 0.328951 0.909989
728 1 0.713476 0.279031 0.149418
729 1 0.749179 0.806319 0.7868
730 1 0.689792 0.80579 0.77279
731 2 0.770694 0.812341 0.744462
732 1 0.543885 0.894638 0.177568
733 2 0.691487 0.843496 0.69529
734 2 0.703388 0.776163 0.736564
735 2 0.781324 0.834004 0.709198
736 1 0.768096 0.730488 0.791229
737 2 0.739371 0.769797 0.707842
738 2 0.700662 0.765125 0.671511
739 2 0.766692 0.785242 0.742028
740 2 0.771037 0.799827 0.687676
741 2 0.72331 0.776456 0.742998
742 1 0.658216 0.842576 0.660767
743 2 0.760891 0.796834 0.694657
744 2 0.731328 0.787399 0.678205
745 2 0.687798 0.80773 0.69326
746 1 0.707161 0.694909 0.697929
747 2 0.55293 0.136192 0.168659
748 2 0.749551 0.812417 0.713812
749 2 0.761775 0.849193 0.704907
750 2 0.602555 0.066538 0.254068
751 2 0.699059 0.791624 0.73534
752 2 0.701632 0.761092 0.705938
753 2 0.783369 0.778573 0.728954
754 2 0.39215 0.505338 0.523363
755 2 0.747835 0.781897 0.713392
756 2 0.759804 0.827506 0.664787
757 2 0.761238 0.82397 0.718062
758 2 0.702295 0.839932 0.709536
759 2 0.68764 0.781148 0.701935
760 1 0.277642 0.889627 0.0738723
761 2 0.728123 0.775056 0.719736
762 2 0.730128 0.773471 0.649408
763 1 0.5181 0.9456 0.514739
764 2 0.72641 0.760107 0.689633
765 2 0.700467 0.781004 0.662992
766 2 0.710388 0.839148 0.703191
767 2 0.00192765 0.101377 0.756783
768 2 0.741172 0.746441 0.719407
769 2 0.718624 0.809568 0.701794
770 2 0.736235 0.830406 0.732584
771 2 0.1404 0.759368 0.338232
772 2 0.357596 0.863211 0.630607
773 1 0.826622 0.741557 0.675689
774 2 0.238392 0.0737181 0.575982
775 2 0.653045 0.31704 0.751505
776 2 0.72837 0.80228 0.669599
777 1 0.660555 0.761866 0.691707
778 2 0.745372 0.841749 0.728119
779 2 0.99518 0.194168 0.809724
780 1 0.731278 0.797015 0.606355
781 2 0.690259 0.765948 0.705216
782 2 0.821126 0.140956 0.179078
783 1 0.741358 0.715805 0.680807
784 2 0.741418 0.813266 0.648621
785 2 0.726202 0.838041 0.693195
786 1 0.802297 0.789139 0.753318
787 2 0.781525 0.76698 0.686923
788 2 0.748503 0.830492 0.713331
789 2 0.00278102 0.815753 0.339677
790 2 0.670802 0.809224 0.705942
791 1 0.80442 0.759217 0.732691
792 2 0.775774 0.781537 0.718536
793 2 0.039297 0.555484 0.226539
794 2 0.756812 0.781057 0.701647
795 2 0.726224 0.79606 0.695004
796 2 0.688451 0.756447 0.71679
797 2 0.750987 0.796193 0.657876
798 2 0.808145 0.760531 0.600905
799 2 0.736154 0.785168 0.703077
800 2 0.963384 0.353911 0.147322
801 2 0.702332 0.789311 0.70211
802 2 0.673793 0.793591 0.70816
803 2 0.766055 0.800505 0.725332
804 2 0.444004 0.541395 0.699985
805 2 0.965439 0.75491 0.534805
806 1 0.0434681 0.987398 0.476605
807 2 0.724603 0.773372 0.729268
808 2 0.712143 0.793111 0.719296
809 1 0.794328 0.742015 0.708257
810 2 0.719388 0.795196 0.640338
811 2 0.743574 0.788149 0.65142
812 2 0.761241 0.802623 0.752572
813 1 0.419715 0.28317 0.014782
814 2 0.78427 0.788193 0.697231
815 2 0.725744 0.78859 0.665936
816 1 0.818236 0.80292 0.641704
817 1 0.72098 0.82568 0.775318
818 2 0.774403 0.829875 0.704459
819 1 0.732479 0.887521 0.696646
820 1 0.636047 0.770393 0.644473
821 2 0.694532 0.796575 0.680386
822 2 0.707825 0.768978 0.661657
823 1 0.797431 0.832502 0.635767
824 2 0.813318 0.743706 0.0144385
825 2 0.714853 0.82949 0.685224
826 2 0.755985 0.412023 0.186957
827 1 0.623307 0.821959 0.669514
828 2 0.76819 0.837187 0.663761
829 2 0.755534 0.747933 0.689322
830 2 0.695868 0.275368 0.38488
831 1 0.678332 0.762465 0.601659
832 2 0.767457 0.766064 0.657826
833 1 0.75041 0.885548 0.667346
834 2 0.721374 0.81566 0.654362
835 2 0.852384 0.154344 0.0823574
836 2 0.73353 0.81492 0.7256
837 2 0.757264 0.77152 0.739373
838 2 0.730285 0.78179 0.703259
839 2 0.636247 0.662393 0.348443
840 2 0.705573 0.764711 0.694637
841 2 0.687361 0.831936 0.698779
842 2 0.710639 0.0574522 0.601116
843 2 0.751729 0.824966 0.695117
844 2 0.750687 0.774618 0.681547
845 2 0.76043 0.794914 0.670394
846 2 0.769968 0.795873 0.717579
847 2 0.77487 0.794282 0.65884
848 2 0.737489 0.7745 0.644452
849 1 0.692179 0.76738 0.806001
850 2 0.750589 0.848776 0.654745
851 2 0.690865 0.788051 0.6958
852 2 0.720437 0.759453 0.667725
853 1 0.659142 0.747209 0.720866
854 2 0.0798978 0.184524 0.882356
855 2 0.781813 0.783742 0.677743
856 2 0.697815 0.825226 0.659582
857 2 0.693585 0.774191 0.684083
858 2 0.749015 0.806486 0.649353
859 2 0.706012 0.830984 0.669138
860 2 0.395879 0.0807409 0.58521
861 2 0.740558 0.830512 0.720421
862 2 0.681496 0.0746478 0.477934
863 2 0.732226 0.808914 0.694879
864 2 0.7119 0.812178 0.756058
865 2 0.757353 0.797391 0.709173
866 2 0.743533 0.794634 0.690407
867 2 0.18386 0.289398 0.0539485
868 2 0.774459 0.801373 0.739754
869 2 0.743873 0.837869 0.702409
870 2 0.725817 0.799595 0.639138
871 2 0.718762 0.76628 0.713016
872 2 0.682991 0.775072 0.682804
873 2 0.774814 0.764301 0.722301
874 2 0.779544 0.826047 0.688574
875 2 0.640391 0.673117 0.700648
876 2 0.675018 0.815721 0.690075
877 2 0.688622 0.792988 0.725893
878 2 0.708573 0.805377 0.712749
879 2 0.717033 0.786904 0.665796
880 2 0.407193 0.494814 0.0662057
881 2 0.748461 0.807805 0.677659
882 1 0.211429 0.370801 0.949464
883 1 0.488124 0.763887 0.174913
884 2 0.465944 0.179187 0.679909
885 2 0.733622 0.797967 0.747041
886 2 0.776233 0.779354 0.700904
887 1 0.746793 0.251127 0.0927364
888 2 0.966684 0.886346 0.503552
889 2 0.532117 0.203497 0.639192
890 1 0.619339 0.763386 0.687184
891 2 0.472928 0.631378 0.816965
892 2 0.778832 0.840369 0.689985
893 2 0.726891 0.769674 0.713321
894 2 0.691446 0.786974 0.661194
895 1 0.818752 0.790598 0.678639
896 2 0.700525 0.841213 0.659736
897 2 0.737038 0.853887 0.708504
898 2 0.738362 0.752257 0.711963
899 2 0.935236 0.600928 0.865312
900 2 0.72498 0.772578 0.706664
901 2 0.74081 0.765571 0.69372
902 2 0.763164 0.799283 0.713616
903 2 0.707663 0.813221 0.74366
904 2 0.722207 0.779948 0.728073
905 2 0.728396 0.836746 0.646299
906 2 0.750669 0.817529 0.755037
907 2 0.769375 0.827746 0.726121
908 1 0.776906 0.708671 0.729589
909 2 0.744577 0.784943 0.636477