ITEM: TIMESTEP
18900
ITEM: NUMBER OF ATOMS
1000
ITEM: BOX BOUNDS xy xz yz pp pp pp
0.0000000000000000e+00 1.3572088000000001e+01 0.0000000000000000e+00
0.0000000000000000e+00 1.3572088000000001e+01 0.0000000000000000e+00
0.0000000000000000e+00 1.3572088000000001e+01 0.0000000000000000e+00
ITEM: ATOMS id type xs ys zs
1 2 0.851876 0.881097 0.969065
2 2 0.955842 0.895823 0.628148
3 1 0.634526 0.882656 0.757955
4 2 0.214652 0.461304 0.64874
5 2 0.498974 0.580544 0.484092
6 1 0.377781 0.067965 0.337996
7 2 0.580808 0.805116 0.0178202
8 2 0.585486 0.871489 0.970093
9 2 0.307106 0.141714 0.842803
10 2 0.681942 0.935712 0.0259346
11 2 0.134587 0.918241 0.505804
12 2 0.81069 0.599205 0.879468
13 2 0.879664 0.856531 0.0304105
14 1 0.718943 0.887461 0.88182
15 2 0.985422 0.904576 0.395966
16 2 0.00421654 0.0986456 0.121863
17 1 0.165883 0.696551 0.533966
18 2 0.68374 0.162295 0.618331
19 2 0.298403 0.760475 0.982516
20 2 0.542735 0.772992 0.0531215
21 2 0.0799512 0.462079 0.348331
22 2 0.265841 0.00898499 0.169714
23 2 0.685624 0.638003 0.69485
24 2 0.0905247 0.518732 0.162404
25 1 0.446883 0.190659 0.234832
26 2 0.77012 0.738956 0.750533
27 2 0.667091 0.482776 0.594488
28 2 0.57138 0.582409 0.856149
29 2 0.442483 0.908078 0.432979
30 2 0.75692 0.712928 0.9
31 1 0.221192 0.122551 0.594229
32 1 0.211934 0.459003 0.388067
33 1 0.309592 0.444659 0.807941
34 2 0.0461756 0.500187 0.14004
35 2 0.903691 0.0921464 0.0539486
36 1 0.825887 0.899572 0.998055
37 2 0.172887 0.531242 0.780603
38 2 0.893887 0.239901 0.997542
39 2 0.780829 0.644621 0.759457
40 2 0.945523 0.492278 0.0576487
41 2 0.26193 0.812733 0.612884
42 2 0.601242 0.0269483 0.686007
43 2 0.82243 0.428407 0.271884
44 2 0.350156 0.334384 0.976152
45 2 0.722561 0.543344 0.468885
46 1 0.0239521 0.770788 0.933509
47 2 0.557766 0.823819 0.955651
48 2 0.523295 0.371822 0.0561259
49 2 0.437523 0.215196 0.0958611
50 2 0.0935891 0.842814 0.392893
51 2 0.617019 0.286313 0.478965
52 2 0.233859 0.737206 0.233101
53 2 0.758083 0.254299 0.315649
54 2 0.804395 0.588222 0.00559982
55 1 0.745521 0.620738 0.878398
56 1 0.631069 0.901327 0.142677
57 2 0.173162 0.60814 0.350073
58 2 0.863046 0.909471 0.0240646
59 2 0.370367 0.0556599 0.799314
60 2 0.475505 0.659255 0.209421
61 2 0.955881 0.763452 0.80044
62 2 0.80187 0.190333 0.443433
63 2 0.437561 0.0538608 0.627273
64 2 0.400894 0.484381 0.797125
65 2 0.252671 0.622278 0.821143
66 1 0.952434 0.369352 0.410757
67 2 0.611085 0.94561 0.465377
68 2 0.316309 0.87535 0.0637226
69 1 0.784352 0.244218 0.701449
70 2 0.329172 0.71648 0.701308
71 1 0.673215 0.379716 0.421468
72 2 0.734722 0.295772 0.548616
73 2 0.758275 0.0647965 0.241425
74 2 0.10753 0.588614 0.589762
75 2 0.107478 0.860517 0.445273
76 2 0.795085 0.352305 0.637554
77 1 0.550537 0.718688 0.163101
78 2 0.847623 0.0477975 0.100665
79 2 0.27656 0.759948 0.668524
80 2 0.0451665 0.0968861 0.471822
81 2 0.960184 0.931975 0.0182096
82 2 0.00272165 0.263852 0.536485
83 2 0.884513 0.364342 0.184248
84 2 0.148382 0.0515613 0.619912
85 1 0.615904 0.216082 0.31308
86 2 0.20983 0.826279 0.529398
87 2 0.235668 0.0206106 0.645697
88 2 0.332748 0.526243 0.370564
89 2 0.938308 0.501372 0.861638
90 2 0.473565 0.542854 0.428188
91 2 0.268411 0.349342 0.477053
92 2 0.230825 0.703212 0.486742
93 2 0.28901 0.475224 0.176719
94 1 0.285449 0.831116 0.805467
95 2 0.0629283 0.00991005 0.393202
96 2 0.499793 0.406456 0.359054
97 2 0.613266 0.46958 0.817367
98 2 0.0598332 0.758312 0.313851
99 2 0.854592 0.875141 0.740015
100 2 0.137012 0.83358 0.096977
101 1 0.92728 0.173627 0.83394
102 2 0.895101 0.515037 0.77837
103 2 0.718347 0.55609 0.695479
104 2 0.0799224 0.454205 0.745101
105 2 0.658868 0.574873 0.595419
106 2 0.397361 0.583033 0.937704
107 2 0.895717 0.868782 0.227284
108 2 0.503194 0.209345 0.890563
109 2 0.679732 0.841344 0.454872
110 2 0.972798 0.00576209 0.386074
111 2 0.302254 0.481623 0.891909
112 1 0.95315 0.943073 0.237324
113 1 0.892136 0.48016 0.580083
114 2 0.49779 0.796693 0.0188297
115 2 0.671319 0.55487 0.97505
116 2 0.362244 0.210043 0.69515
117 2 0.737149 0.741778 0.309178
118 2 0.0712232 0.390423 0.504099
119 2 0.458618 0.768133 0.034837
120 2 0.34579 0.41818 0.222903
121 2 0.89033 0.532991 0.187996
122 2 0.841537 0.722955 0.379687
123 2 0.243412 0.0904572 0.461768
124 2 0.919675 0.216105 0.516269
125 1 0.811361 0.0644579 0.807276
126 2 0.619357 0.936152 0.429098
127 2 0.593644 0.657628 0.198872
128 2 0.11677 0.283404 0.844329
129 1 0.989968 0.879133 0.807035
130 2 0.440691 0.479615 0.819438
131 2 0.82281 0.150378 0.898946
132 2 0.164871 0.964171 0.87181
133 2 0.468185 0.236384 0.148598
134 2 0.952305 0.390645 0.670793
135 2 0.223901 0.0889239 0.311112
136 2 0.987613 0.184685 0.0325588
137 1 0.507175 0.860138 0.530767
138 2 0.0568535 0.0593468 0.935446
139 2 0.942851 0.00133986 0.408471
140 1 0.440091 0.958172 0.495757
141 2 0.759791 0.0793768 0.991653
142 2 0.662913 0.827309 0.832711
143 2 0.433884 0.818228 0.403228
144 2 0.0403803 0.153197 0.216308
145 2 0.573817 0.289823 0.670196
146 2 0.910718 0.788881 0.996215
147 1 0.722951 0.40164 0.592162
148 1 0.795982 0.779148 0.926325
149 2 0.165604 0.965694 0.0698671
150 1 0.565998 0.659679 0.565389
151 2 0.247142 0.294284 0.823601
152 2 0.720308 0.531887 0.21615
153 1 0.49063 0.881073 0.429781
154 1 0.151497 0.796915 0.184247
155 2 0.541044 0.912521 0.546755
156 2 0.032315 0.176203 0.871202
157 2 0.750108 0.227844 0.0648243
158 2 0.603668 0.390056 0.256133
159 2 0.762691 0.852985 0.940397
160 2 0.803223 0.0793866 0.348285
161 2 0.117316 0.600915 0.165662
162 2 0.384033 0.558228 0.112371
163 2 0.777621 0.752336 0.0864137
164 2 0.235219 0.404675 0.512552
165 2 0.141691 0.342461 0.0993777
166 2 0.795044 0.79082 0.862241
167 2 0.449836 0.1293 0.754727
168 2 0.39386 0.0433201 0.625079
169 2 0.226713 0.156389 0.764794
170 2 0.622269 0.803141 0.536009
171 2 0.726582 0.792262 0.164687
172 2 0.382269 0.873993 0.366798
173 1 0.638706 0.850127 0.661148
174 2 0.578082 0.11749 0.416923
175 2 0.916214 0.899217 0.215613
176 2 0.344894 0.528796 0.954328
177 1 0.555041 0.959206 0.378979
178 2 0.374643 0.93705 0.66563
179 2 0.8562 0.42066 0.82874
180 2 0.626534 0.0987352 0.433083
181 2 0.824667 0.57827 0.843338
182 2 0.920408 0.621194 0.233177
183 2 0.10526 0.515234 0.892265
184 2 0.494244 0.363884 0.915889
185 2 0.634609 0.460098 0.307714
186 2 0.649693 0.794366 0.412283
187 2 0.555673 0.256307 0.201357
188 1 0.898249 0.381014 0.486145
189 2 0.659617 0.892197 0.208116
190 2 0.51649 0.412109 0.60723
191 2 0.128401 0.669939 0.137899
192 2 0.29669 0.533946 0.52958
193 2 0.397386 0.975801 0.314582
194 2 0.66279 0.0663765 0.290015
195 2 0.672948 0.778752 0.380826
196 2 0.553718 0.353058 0.014844
197 2 0.641736 0.155253 0.226517
198 2 0.985283 0.820857 0.679635
199 2 0.253975 0.485011 0.427755
200 1 0.601262 0.883602 0.60314
201 2 0.370814 0.475157 0.932993
202 2 0.655951 0.713759 0.698976
203 2 0.882935 0.504851 0.744898
204 2 0.693863 0.122708 0.486905
205 2 0.751473 0.456962 0.679583
206 2 0.108405 0.813095 0.421182
207 2 0.532269 0.39115 0.831305
208 2 0.44341 0.174332 0.754806
209 2 0.755374 0.421416 0.53491
210 2 0.140844 0.906544 0.226516
211 2 0.889766 0.773818 0.897678
212 1 0.649731 0.330345 0.385568
213 2 0.666018 0.561431 0.569839
214 2 0.555731 0.898463 0.168463
215 2 0.741337 0.425774 0.985744
216 2 0.0115034 0.449514 0.288744
217 2 0.332632 0.748063 0.229356
218 2 0.688592 0.696493 0.916449
219 2 0.926283 0.785636 0.969929
220 2 0.131746 0.9585 0.768198
221 2 0.927256 0.579356 0.166986
222 2 0.0172804 0.706737 0.306894
223 2 0.361682 0.75388 0.117291
224 2 0.139421 0.387361 0.395173
225 1 0.265407 0.41645 0.369397
226 2 0.511289 0.0520361 0.950126
227 2 0.762359 0.204281 0.678603
228 2 0.447818 0.330595 0.905958
229 2 0.231297 0.282285 0.543322
230 1 0.293879 0.609455 0.750278
231 2 0.440223 0.413027 0.405374
232 2 0.833652 0.614753 0.854912
233 1 0.251594 0.0445623 0.341078
234 2 0.582888 0.302189 0.599645
235 2 0.221974 0.592057 0.965421
236 2 0.805311 0.78874 0.962674
237 2 0.489204 0.80958 0.643341
238 1 0.657396 0.211729 0.49187
239 1 0.705222 0.222403 0.303784
240 2 0.549976 0.617398 0.0919266
241 2 0.525177 0.293808 0.311445
242 1 0.561751 0.277239 0.485258
243 1 0.757615 0.599012 0.455139
244 2 0.171251 0.0213301 0.658622
245 2 0.628811 0.707451 0.0670254
246 1 0.23465 0.452349 0.679897
247 2 0.860472 0.83286 0.000568947
248 2 0.22682 0.507718 0.147071
249 2 0.795825 0.44556 0.794569
250 2 0.758919 0.460536 0.19998
251 2 0.235646 0.210261 0.637958
252 2 0.627195 0.0432836 0.158005
253 2 0.925074 0.248975 0.038402
254 2 0.767549 0.657941 0.490003
255 2 0.100659 0.266843 0.744435
256 2 0.826605 0.879602 0.738748
257 2 0.810988 0.338155 0.686723
258 2 0.377337 0.368344 0.49333
259 1 0.0693032 0.105046 0.143976
260 2 0.345113 0.86157 0.72561
261 1 0.738566 0.843802 0.675315
262 2 0.675212 0.902919 0.660938
263 2 0.933382 0.598788 0.791854
264 2 0.799709 0.855112 0.628885
265 1 0.941217 0.495091 0.336687
266 2 0.755527 0.271142 0.76175
267 2 0.581399 0.0220245 0.375481
268 1 0.0126087 0.758063 0.360579
269 1 0.14928 0.460155 0.380021
270 2 0.834885 0.531497 0.261388
271 2 0.627781 0.442223 0.521269
272 2 0.0219049 0.517688 0.014839
273 1 0.533857 0.865941 0.306859
274 2 0.70482 0.790484 0.479596
275 2 0.914903 0.27406 -0.00253631
276 2 0.230604 0.541536 0.434167
277 2 0.12213 0.82569 0.537392
278 2 0.293261 0.642193 0.430042
279 2 0.934294 0.545313 0.875412
280 1 0.93734 0.434447 0.308696
281 2 0.432595 0.33068 0.483638
282 2 0.742218 0.103998 0.481089
283 2 0.842929 0.787894 0.702394
284 1 0.665878 0.549054 0.823846
285 2 0.0764754 0.657009 0.544949
286 2 0.981469 0.750645 0.654357
287 1 0.383523 0.821043 0.742269
288 2 0.420944 0.428093 0.465772
289 2 0.121189 0.714583 0.607438
290 2 0.00042252 0.957231 -0.000684092
291 2 0.473448 0.848651 0.00146742
292 2 0.0642344 0.228572 0.168797
293 2 0.728903 0.916909 0.707692
294 2 0.67826 0.443214 0.163517
295 2 0.941292 0.827469 0.235017
296 2 0.185673 0.812081 0.622478
297 2 0.0149929 0.536763 0.308701
298 2 0.363389 0.973943 0.644675
299 1 0.140489 0.347197 0.352998
300 2 0.753608 0.357398 0.695241
301 2 0.630501 0.430711 0.830529
302 2 0.404737 0.438118 0.18956
303 2 0.828821 0.0812158 0.976813
304 1 0.385562 0.355089 0.182434
305 2 0.762557 0.972116 0.51986
306 2 0.285107 0.672057 0.927108
307 2 0.894789 0.248863 0.934906
308 2 0.389024 0.189385 0.724795
309 2 0.447938 0.950625 0.580556
310 2 0.591594 0.331134 0.453737
311 2 0.250971 0.67864 0.5307
312 2 0.300776 0.801169 0.641618
313 2 0.194676 0.364031 0.757443
314 2 0.755642 0.405142 0.556247
315 2 0.474862 0.402841 0.467385
316 2 0.601957 0.902486 0.307755
317 2 0.20928 0.271857 0.282564
318 2 0.0347076 0.123991 0.922027
319 2 0.704665 0.87356 0.934454
320 2 0.972673 0.706123 0.327341
321 2 0.337123 0.97931 0.91678
322 2 0.670786 0.543743 0.396071
323 2 0.318211 0.016245 0.289711
324 2 0.303491 0.806248 0.0912303
325 2 0.315209 0.98871 0.372804
326 2 0.540069 0.500798 0.0668858
327 2 0.119106 0.280497 0.385688
328 2 0.76125 0.542774 0.489168
329 1 0.20833 0.642252 0.504285
330 2 0.313342 0.385882 0.0768506
331 2 0.592656 0.775925 0.636959
332 2 0.527793 0.262645 0.182986
333 2 0.803708 0.262093 0.645765
334 2 0.897275 0.328005 0.654943
335 1 0.64404 0.846273 0.0298186
336 2 0.0504549 0.960972 0.370857
337 2 0.0752709 0.487569 0.335574
338 1 0.805019 0.384482 0.894376
339 2 0.335806 0.867223 0.326025
340 2 0.0683582 0.86361 0.489803
341 2 0.0759113 0.12108 0.960438
342 2 0.0514577 0.965262 0.0433468
343 2 0.320369 0.155703 0.258669
344 1 0.692824 0.943712 0.27663
345 1 0.595766 0.119664 0.780871
346 1 0.803102 0.858674 0.875629
347 1 0.837485 0.592708 0.798084
348 2 0.87941 0.980232 0.616549
349 2 0.428118 0.841383 0.339637
350 2 0.279148 0.387537 0.871166
351 2 0.837814 0.851872 0.0980861
352 2 0.989905 0.308725 0.9221
353 1 0.119196 0.526607 0.0898759
354 1 0.243558 0.00614479 0.905111
355 2 0.158556 0.309985 0.955015
356 2 0.453848 0.832415 0.335413
357 2 0.339846 0.728235 0.728606
358 2 0.652396 0.773862 0.753608
359 2 0.554957 0.295794 0.211991
360 2 0.435498 0.55193 0.768361
361 1 0.290985 0.86128 0.11139
362 2 0.991743 0.337529 0.0193499
363 1 0.114294 0.823243 0.72915
364 2 0.753329 0.324803 0.547954
365 2 0.639828 0.943923 0.751934
366 2 0.64164 0.948667 0.507182
367 1 0.556425 0.845662 0.554569
368 1 0.0136025 0.236682 0.0706929
369 2 0.0877448 0.599083 0.0843726
370 2 0.413695 0.91566 0.506191
371 2 0.703691 0.873966 0.405649
372 1 0.204803 0.350588 0.309741
373 2 0.0921585 0.729913 0.378045
374 2 0.542057 0.331811 0.0281996
375 2 0.632195 0.426813 0.325863
376 2 0.162347 0.0672011 0.806136
377 2 0.248498 0.973534 0.98555
378 2 0.504115 0.0107302 0.851289
379 2 0.625628 0.0978822 0.527415
380 2 0.00937347 0.815842 0.28432
381 2 0.624011 0.0816942 0.919944
382 2 0.552957 0.903345 0.664067
383 2 0.651714 0.793696 0.320011
384 1 0.46518 0.784625 0.753866
385 2 0.812408 0.363439 0.688035
386 2 0.635764 0.517773 0.57493
387 1 0.756164 0.843251 0.0272822
388 2 0.341708 0.705905 0.648077
389 2 0.889928 0.0628507 0.479703
390 2 0.588464 0.319735 0.241953
391 2 0.710807 0.0394016 0.336081
392 1 0.822713 0.391189 0.736874
393 2 0.166973 0.647741 0.0149625
394 2 0.297261 0.0604361 0.28561
395 2 0.0248079 0.597325 0.224052
396 2 0.586928 0.121239 0.557504
397 2 0.408636 0.666769 0.518571
398 1 0.477746 0.322199 0.0341206
399 1 0.0118231 0.288545 0.481719
400 1 0.829724 0.108059 0.383542
401 2 0.866019 0.828631 0.292093
402 2 0.0144352 0.545625 0.723469
403 2 0.613453 0.141687 0.187245
404 2 0.136285 0.590277 0.108111
405 2 0.420291 0.156776 0.472053
406 2 0.478787 0.191215 0.13373
407 2 0.707936 0.294179 0.439058
408 2 0.847303 0.0520116 0.320114
409 2 0.763452 0.26775 0.194968
410 2 0.222292 0.272825 0.302767
411 2 0.159409 0.84997 0.240262
412 2 0.38592 0.162016 0.996447
413 2 0.618688 0.257507 0.954948
414 2 0.798567 0.544143 0.542191
415 2 0.69014 0.336729 0.778437
416 1 0.351026 0.562402 0.660839
417 2 0.859411 0.576187 0.166882
418 2 0.780524 0.262311 0.523112
419 2 0.318329 0.871292 0.483846
420 2 0.111251 0.23575 0.505821
421 1 0.564791 0.966606 0.707135
422 1 0.254511 0.878842 0.659059
423 2 0.867574 0.529109 0.160438
424 2 0.763431 0.412159 0.4374
425 1 0.224833 0.57904 0.680161
426 2 0.678951 0.563383 0.891463
427 2 0.0659557 0.863098 0.724547
428 2 0.297068 0.464549 0.275105
429 2 0.787621 0.497042 0.81442
430 2 0.614194 0.373649 0.543199
431 2 0.373234 0.795903 0.288851
432 1 0.494194 0.643607 0.0852279
433 2 0.291346 0.343833 0.131699
434 1 0.514005 0.0855486 0.57488
435 2 0.118685 0.144404 0.282733
436 2 0.529985 0.89773 0.680336
437 2 0.090754 0.97467 0.803133
438 2 0.355207 0.279568 0.172487
439 1 0.489467 0.942267 0.566676
440 2 0.670004 0.0785076 0.451711
441 1 0.634411 0.585085 0.292545
442 1 0.564236 0.279878 0.0734538
443 1 0.214404 0.60437 0.100996
444 2 0.297861 0.716939 0.644477
445 2 0.746196 0.698414 0.255469
446 2 0.528256 0.924583 0.399094
447 2 0.577678 0.478453 0.571984
448 2 0.349405 0.824775 0.420226
449 1 0.925951 0.545514 0.756549
450 2 0.477535 0.375275 0.32841
451 2 0.671297 0.630984 0.834101
452 2 0.172392 0.377257 0.312414
453 1 0.0418244 0.0557795 0.369557
454 2 0.795175 0.572849 0.945337
455 2 0.656155 0.119926 0.450523
456 2 0.963049 0.0600379 0.369312
457 2 0.454199 0.606534 0.475884
458 2 0.777955 0.173679 0.235478
459 2 0.668043 0.487576 0.557756
460 2 0.308932 0.271424 0.141522
461 2 0.888336 0.377173 0.046021
462 2 0.583298 0.704616 0.683267
463 1 0.463226 0.44302 0.575824
464 2 0.795722 0.421768 0.739488
465 2 0.957833 0.5384 0.81794
466 2 0.168085 0.829004 0.813691
467 1 0.528141 0.307346 0.271296
468 2 0.879446 0.735758 0.427662
469 2 0.124975 0.204027 0.912394
470 2 0.311517 0.626875 0.817195
471 2 0.161215 0.425927 0.968371
472 2 0.391292 0.99471 0.769231
473 1 0.192313 0.628492 0.788668
474 1 0.104625 0.992859 0.656396
475 1 0.240905 0.586006 0.843261
476 2 0.25598 0.625815 0.202304
477 2 0.790071 0.593242 0.524898
478 2 0.591087 0.632147 0.271715
479 2 0.70965 0.80688 0.843574
480 2 0.677712 0.21198 0.260881
481 2 0.207641 0.899632 0.860234
482 2 0.351303 0.367278 0.816934
483 2 0.681925 0.433918 0.28237
484 1 0.691298 0.213936 0.363403
485 1 0.812142 0.00296363 0.923508
486 2 0.0985665 0.311565 0.828194
487 2 0.807544 0.713069 0.767891
488 2 0.215881 0.491855 0.249004
489 2 0.059204 0.415366 0.380455
490 2 0.00959805 0.727217 0.399342
491 2 0.452274 0.874713 0.397689
492 2 0.34052 0.880947 0.326184
493 2 0.414641 0.0755834 0.868508
494 2 0.1373 0.865471 0.66973
495 2 0.462299 0.405144 0.190312
496 2 0.606984 0.19057 0.65831
497 2 0.0541511 0.455798 0.205185
498 1 0.438997 0.797481 0.22548
499 2 0.201483 0.563704 0.803078
500 2 0.96131 0.336777 0.741508
501 1 0.849795 0.0968099 0.158079
502 2 0.907538 0.246717 0.990583
503 2 0.14992 0.512774 0.953524
504 1 0.800119 0.839431 0.178741
505 2 0.992667 0.298412 0.281522
506 2 0.381884 0.610112 0.994104
507 2 0.841607 0.760562 0.315342
508 2 0.233324 0.911764 0.79822
509 1 0.0675895 0.522475 0.427594
510 2 0.597374 0.0960433 0.0545142
511 2 0.630425 0.400357 0.908952
512 2 0.999174 0.99808 0.969841
513 1 0.207108 0.0765521 0.377584
514 2 0.513761 0.967206 0.521747
515 1 0.54791 0.249234 0.365242
516 2 0.365188 0.0147117 0.36884
517 1 0.656241 0.124168 0.611245
518 2 0.303209 0.955638 0.911148
519 2 0.690963 0.405269 0.685571
520 2 0.470388 0.633957 0.494583
521 2 0.856141 0.0920903 0.114495
522 2 0.0409266 0.763566 0.881048
523 2 0.873328 0.340307 0.956296
524 2 0.604203 0.0714961 0.0051987
525 2 0.758679 0.180558 0.248232
526 2 0.316664 0.647315 0.696312
527 2 0.461575 0.843321 0.25494
528 1 0.136227 0.410302 0.554616
529 2 0.218292 0.969663 0.940765
530 2 0.353077 0.846122 0.605383
531 2 0.377331 0.948572 0.922825
532 2 0.618671 0.657407 0.119193
533 2 0.568629 0.337798 0.0235202
534 1 0.445034 0.0739056 0.962273
535 2 0.516992 0.264503 0.0652953
536 1 0.215907 0.131044 0.0261775
537 1 0.916359 0.353353 0.974967
538 2 0.29013 0.0415685 0.340178
539 2 0.888408 0.434017 0.606039
540 2 0.798884 0.447184 0.621952
541 1 0.493209 0.0401946 0.526623
542 2 0.782995 0.120377 0.00402317
543 1 0.501076 0.148888 0.146338
544 1 0.526971 0.21922 0.125514
545 2 0.179611 0.0573454 0.857552
546 2 0.240263 0.390163 0.726689
547 2 0.494466 0.822606 0.700405
548 2 0.465577 0.817453 0.729768
549 2 0.478389 0.299541 0.874166
550 2 0.582441 0.550924 0.69759
551 1 0.754341 0.0265201 0.43668
552 2 0.984398 0.537825 0.655282
553 2 0.419479 0.404502 0.774752
554 2 0.480088 0.579566 0.904742
555 1 0.773035 0.466288 0.90376
556 2 0.255643 0.409326 0.777588
557 2 0.772528 0.182759 0.799811
558 1 0.352449 0.929901 0.137902
559 2 0.143961 1.00042 0.523075
560 2 0.890923 0.817352 0.0116568
561 2 0.600369 0.335845 0.34808
562 1 0.463759 0.456974 0.705352
563 2 0.101456 0.500822 0.254549
564 2 0.485003 0.68574 0.505079
565 2 0.266143 0.256815 0.83746
566 2 0.0832018 0.875828 0.414353
567 2 0.00205859 0.893329 0.0575061
568 2 0.134131 0.59533 0.588736
569 1 0.786856 0.510023 0.032388
570 2 0.961815 0.292679 0.996676
571 2 0.914045 0.506966 0.105726
572 2 0.987318 0.342292 0.281355
573 2 0.616197 -0.00171967 0.720012
574 2 0.647536 0.864612 0.942145
575 1 0.054356 0.00260668 0.735762
576 2 0.163959 0.533311 0.301575
577 2 0.277407 0.871597 0.0153751
578 1 0.465031 0.389304 0.561509
579 2 0.594 0.80188 0.913953
580 1 0.312509 0.433183 0.37098
581 2 0.810535 0.891294 0.687076
582 2 0.382165 0.656342 0.0910262
583 1 0.415134 0.513274 0.649075
584 2 0.887513 0.883087 0.99657
585 1 0.346197 0.234293 0.206558
586 2 0.347331 0.318171 0.608248
587 2 0.104223 0.854986 0.925422
588 2 0.817743 0.10215 0.00199216
589 1 0.205064 0.356845 0.947049
590 1 0.857556 0.0864771 0.462468
591 1 0.75506 0.140941 0.365261
592 2 0.817617 0.477051 0.824562
593 2 0.230877 0.274637 0.883069
594 1 0.562868 0.383311 0.159346
595 1 0.976656 0.197312 0.987711
596 2 0.514913 0.807426 0.442891
597 1 0.628078 0.877268 0.248122
598 2 0.619235 0.798518 0.455006
599 2 0.625572 0.769851 0.70927
600 2 0.998813 0.834293 0.842305
601 2 0.981444 0.321037 0.957267
602 1 0.599117 0.372142 0.396221
603 2 0.964541 0.00828255 0.821508
604 1 0.52458 0.334155 0.841221
605 2 0.628564 0.520533 0.614544
606 2 0.397907 0.582845 0.182598
607 1 0.233275 0.603462 0.578232
608 2 0.483367 0.220711 0.419525
609 2 0.0766374 0.18492 0.944528
610 2 0.640038 0.853381 0.894153
611 2 0.884852 0.37585 0.53838
612 1 0.626432 0.149011 0.0828733
613 2 0.668068 0.188079 0.292845
614 1 0.723951 0.131615 0.442641
615 2 0.572305 0.0562293 0.832513
616 1 0.110167 0.0979119 0.559912
617 2 0.130418 0.289133 0.989765
618 2 0.867361 0.0828898 0.625811
619 2 0.407422 0.598257 0.725994
620 2 0.657918 0.942684 0.147353
621 2 0.516716 0.468903 0.703652
622 2 0.760916 0.941499 0.434654
623 1 0.408055 0.794801 0.338342
624 2 0.565716 0.331264 0.677632
625 2 0.343499 0.875395 0.129097
626 2 0.363964 0.0454992 0.297976
627 2 0.392354 0.481606 0.487712
628 2 0.200248 0.426642 0.691601
629 2 0.318776 0.624039 0.956326
630 1 0.937223 0.234357 0.169679
631 2 0.819063 0.291037 0.49672
632 2 0.0243316 0.221409 0.605142
633 2 0.191671 0.972389 0.830463
634 2 0.265991 0.739395 0.149073
635 2 0.195486 0.762062 0.372081
636 2 0.431247 0.430516 0.852937
637 2 0.161987 0.934926 0.723429
638 1 0.540047 0.942379 0.670022
639 2 0.661096 0.823351 0.770596
640 2 0.15572 0.384782 0.725225
641 2 0.49368 0.234567 0.92363
642 2 0.597928 0.521134 0.290624
643 2 0.89191 0.483238 0.825538
644 2 0.362636 0.775833 0.00495342
645 1 0.698732 0.953677 0.392123
646 2 0.941164 0.809323 0.296318
647 1 0.25101 0.0216889 0.127864
648 2 0.746418 0.420903 0.685821
649 2 0.635069 0.182527 0.250071
650 2 0.769203 0.659003 0.0344909
651 2 0.671114 0.767366 0.653196
652 2 0.57863 0.287679 0.219715
653 2 0.989515 0.0847203 0.926622
654 1 0.580162 0.272249 0.992929
655 2 0.193844 0.981052 0.453009
656 2 0.0257771 0.659722 0.0992857
657 2 0.478137 0.928074 0.388663
658 2 0.933349 0.0588809 0.448322
659 2 0.39459 0.155184 0.692521
660 2 0.197774 0.842266 0.126382
661 1 0.622698 0.22587 0.399547
662 2 0.659029 0.636697 0.458595
663 2 0.237741 0.140376 0.46948
664 1 0.0411772 0.492327 0.347048
665 2 0.321332 0.78377 0.3546
666 2 0.59578 0.75229 0.828393
667 2 0.290406 0.474852 0.15503
668 2 0.35489 0.299164 0.177215
669 2 0.522175 0.320831 0.195825
670 1 0.56516 0.666346 0.158573
671 2 0.818587 0.504043 0.123525
672 1 0.673936 0.889479 0.440276
673 2 0.757221 0.363542 0.761478
674 2 0.568123 0.936162 0.472818
675 2 0.980174 0.393815 0.639822
676 1 0.108437 0.966286 0.584918
677 2 0.903514 0.146586 0.560683
678 2 0.778931 0.123413 0.428331
679 1 0.968662 0.916089 0.778241
680 2 0.168089 0.820761 0.975601
681 1 0.383503 0.394571 0.657289
682 1 0.922798 0.909069 0.841404
683 2 0.481419 0.378774 0.516516
684 2 0.157037 0.67733 0.824774
685 2 0.426672 0.911635 0.205746
686 2 0.70504 0.905508 0.929184
687 1 0.00330475 0.154697 0.132835
688 2 0.474281 0.526867 0.262554
689 2 0.592801 0.791624 0.32224
690 2 0.0559152 0.66388 0.760028
691 2 0.523292 0.975753 0.576586
692 1 0.885315 0.535133 0.944722
693 2 0.438515 0.333384 0.44527
694 2 0.845175 0.955735 0.347215
695 1 0.587472 0.827816 0.0651446
696 2 0.987651 0.300766 0.248592
697 2 0.923053 0.286879 0.0366089
698 2 0.781774 0.819162 0.530472
699 2 0.0295446 0.188459 0.927982
700 1 0.45538 0.520388 0.872086
701 2 0.458764 0.202216 0.964351
702 2 0.832958 0.190911 0.464896
703 2 0.403474 0.42306 0.868742
704 2 0.25755 0.657321 0.920387
705 2 0.842068 0.639734 0.0550019
706 2 0.454381 0.198729 0.428465
707 2 0.376706 0.442651 0.52156
708 1 0.64036 0.144014 0.835882
709 2 0.678949 0.54178 0.758097
710 2 0.265135 0.502797 0.247223
711 2 0.00447331 0.925378 0.394076
712 1 0.991281 0.0500845 0.0777554
713 2 0.0726784 0.777197 0.60942
714 1 0.750302 0.334023 0.22882
715 2 0.255716 0.0145634 0.975291
716 1 0.55558 0.795962 0.772928
717 2 0.287163 0.0844804 0.373697
718 2 0.340494 0.811657 0.257232
719 2 0.525768 0.476525 0.776622
720 2 0.185721 0.919552 0.446279
721 2 0.180828 0.422215 0.0475518
722 1 0.0156854 0.455032 0.636859
723 2 0.478081 0.628086 0.420152
724 2 0.203705 0.779909 0.801976
725 2 0.650336 0.808614 0.456793
726 2 0.201801 0.665387 0.856054
727 1 0.55262 0.8077 0.711083
728 1 0.818177 0.586192 0.415955
729 1 0.475864 0.283738 0.979547
730 1 0.416053 0.967685 0.571478
731 2 0.422053 0.473691 0.388766
732 1 0.699154 0.787771 0.780948
733 2 0.852225 0.474571 0.738398
734 2 0.886215 0.552764 0.703087
735 2 0.204278 0.981654 0.0943773
736 1 0.504864 0.511352 0.819729
737 2 0.311967 0.881883 0.331593
738 2 0.550459 0.64746 0.25047
739 2 0.210586 0.663753 0.567225
740 2 0.115594 0.665789 0.0424344
741 2 0.272283 0.470294 0.31891
742 1 0.746541 0.908052 0.934142
743 2 0.735215 0.0131969 0.513762
744 2 0.421483 0.0152845 0.636856
745 2 0.334622 0.381015 0.354568
746 1 0.938172 0.608027 0.854489
747 2 0.449492 0.420619 0.0639008
748 2 0.752347 0.67278 0.907069
749 2 0.58588 0.542599 0.0741461
750 2 0.141045 0.493644 0.356224
751 2 0.210223 0.951206 0.443733
752 2 0.217755 0.114562 0.446518
753 2 0.463008 0.00700931 0.824255
754 2 0.108 0.0931514 0.391381
755 2 0.839725 0.400718 0.608822
756 2 0.537412 0.360162 0.411906
757 2 0.866783 0.56554 0.411428
758 2 0.537313 0.0979122 0.0157161
759 2 0.525755 0.409091 0.906498
760 1 0.495172 0.659 0.555729
761 2 0.992987 0.0692135 0.901205
762 2 0.485669 0.313423 0.695931
763 1 0.445997 0.240181 0.953853
764 2 0.597215 0.491922 0.0379573
765 2 0.46825 0.234882 0.992218
766 2 0.604853 0.204078 0.981516
767 2 0.804395 0.0458589 0.957334
768 2 0.0939414 0.625411 0.0412375
769 2 0.987245 0.699201 0.343815
770 2 0.492605 0.969147 0.823432
771 2 0.94377 0.814446 0.751831
772 2 0.369061 0.194833 0.219811
773 1 0.816956 0.782514 0.345938
774 2 0.354417 0.83028 0.300676
775 2 0.630796 0.0403444 0.572165
776 2 0.467396 0.445944 0.631893
777 1 0.581101 0.227513 0.137701
778 2 0.41562 0.500206 0.803287
779 2 0.465101 0.263366 0.931737
780 1 0.224147 0.425642 0.2914
781 2 0.122598 0.3341 0.301107
782 2 0.584814 0.818018 0.939815
783 1 0.309869 0.874155 0.68418
784 2 0.528409 0.880654 0.742145
785 2 0.788823 0.344796 0.211859
786 1 0.430857 0.407581 0.440354
787 2 0.0732335 0.733552 0.366727
788 2 0.529276 0.563167 0.436767
789 2 0.554461 0.343223 0.385608
790 2 0.862674 0.146318 0.213344
791 1 0.26493 0.537094 0.608504
792 2 0.995172 0.246674 0.965475
793 2 0.0872711 0.26694 0.534624
794 2 0.516037 0.564215 0.133388
795 2 0.234407 0.458057 0.452509
796 2 0.245324 0.595012 0.434534
797 2 0.407371 0.761776 0.656306
798 2 0.00699225 0.806916 0.79065
799 2 0.0275462 0.681541 0.655141
800 2 0.534149 0.31413 0.39574
801 2 0.649933 0.252075 0.857907
802 2 0.482808 0.551548 0.833327
803 2 0.143302 0.0384149 0.890291
804 2 0.973561 0.164147 0.0485588
805 2 0.226224 0.711241 0.46125
806 1 0.584531 0.968837 0.890628
807 2 0.0134533 0.75859 0.274448
808 2 0.304052 0.179798 0.356891
809 1 0.545992 0.135946 0.450504
810 2 0.548214 0.894598 0.632689
811 2 0.644401 0.280553 0.0782907
812 2 0.788457 0.624465 0.282583
813 1 0.783453 0.272042 0.588141
814 2 0.446062 0.189473 0.511665
815 2 0.705675 0.616726 0.408418
816 1 0.346325 0.916935 0.332323
817 1 0.570216 0.181225 0.699391
818 2 0.680738 0.786788 0.110193
819 1 0.444053 0.645418 0.104047
820 1 0.428072 0.829255 0.489761
821 2 0.575261 0.281283 0.78984
822 2 0.50512 0.42562 0.659682
823 1 0.82526 0.467275 0.583203
824 2 0.781211 0.333464 0.0728166
825 2 1.00083 0.444716 0.321092
826 2 0.477908 0.340039 0.218397
827 1 0.819982 0.564559 0.482837
828 2 0.459365 0.572343 0.642148
829 2 0.533892 0.911581 0.89995
830 2 0.480592 0.352433 0.879447
831 1 0.0502423 0.123696 0.329621
832 2 0.116128 0.190363 0.720303
833 1 0.895249 0.466398 0.310995
834 2 0.584679 0.87409 0.524486
835 2 0.77593 0.072704 0.44726
836 2 0.946103 0.675545 0.0866108
837 2 0.800418 0.244972 0.252098
838 2 0.806231 0.915777 0.042985
839 2 0.226215 0.816486 0.635326
840 2 0.479201 0.70092 0.885194
841 2 0.496328 0.908698 0.681306
842 2 0.0927859 0.114506 0.739926
843 2 0.955781 0.490962 0.4113
844 2 0.214706 0.201322 0.521443
845 2 0.752195 0.487623 0.0587775
846 2 0.444636 1.00022 0.298674
847 2 0.779865 0.654724 0.928867
848 2 0.201601 0.922248 0.401083
849 1 0.55091 0.18687 0.0208913
850 2 0.591578 0.414901 0.826018
851 2 0.436341 0.991747 0.419737
852 2 0.682868 0.703837 0.512621
853 1 0.0627992 0.577838 0.572312
854 2 0.639382 0.782939 0.874229
855 2 0.152314 0.849615 0.625636
856 2 0.49541 0.984128 0.597694
857 2 0.448342 0.412712 0.0937767
858 2 0.570405 0.359317 0.831357
859 2 0.577353 0.549037 0.229699
860 2 0.408236 0.904923 0.849594
861 2 0.341498 0.841872 0.154409
862 2 0.455838 0.595069 0.930116
863 2 0.204839 0.484205 0.840788
864 2 0.26202 0.583488 0.797903
865 2 0.0710191 0.569738 0.276384
866 2 0.227518 0.0290205 0.874106
867 2 0.69034 0.364766 0.27002
868 2 0.433381 0.162976 0.995812
869 2 0.612835 0.139918 0.595324
870 2 0.647265 0.62829 0.829637
871 2 0.164114 0.370478 0.678948
872 2 0.454588 0.675197 0.0180783
873 2 0.600497 0.218279 0.190607
874 2 0.166511 0.11977 0.270925
875 2 0.561163 0.0818508 0.640983
876 2 0.795947 0.599798 0.949309
877 2 0.777268 0.720465 0.390449
878 2 0.10034 0.146612 0.449662
879 2 0.959174 0.408997 0.641492
880 2 0.499641 0.908092 0.654932
881 2 0.940489 0.590185 0.304983
882 1 0.72473 0.256988 0.443877
883 1 0.268604 0.582322 0.378701
884 2 0.397035 0.323759 0.581499
885 2 0.631492 0.274554 0.99452
886 2 0.190171 0.430182 0.852235
887 1 0.898606 0.738214 0.0500716
888 2 0.353882 0.781113 0.311611
889 2 0.097505 0.481656 0.319279
890 1 0.894107 0.688325 0.619911
891 2 0.847856 0.455856 0.886267
892 2 0.968125 0.91177 0.546397
893 2 0.454133 0.771902 0.692098
894 2 0.457002 0.823975 0.451085
895 1 0.545651 0.928198 0.595262
896 2 0.870843 0.394678 0.0505842
897 2 0.0282874 0.445075 0.727776
898 2 0.666383 0.501467 0.49968
899 2 0.855206 0.445177 0.840689
900 2 0.916352 0.561131 0.860396
901 2 0.0388149 0.485094 0.204721
902 2 0.249402 0.451202 0.431691
903 2 0.0768068 0.394306 0.652019