ITEM: TIMESTEP
25900
ITEM: NUMBER OF ATOMS
1000
ITEM: BOX BOUNDS xy xz yz pp pp pp
0.0000000000000000e+00 1.3572088000000001e+01 0.0000000000000000e+00
0.0000000000000000e+00 1.3572088000000001e+01 0.0000000000000000e+00
0.0000000000000000e+00 1.3572088000000001e+01 0.0000000000000000e+00
ITEM: ATOMS id type xs ys zs
1 2 0.617529 0.412308 0.654423
2 2 0.0154694 0.982337 0.364198
3 1 0.928227 0.239442 0.504171
4 2 0.102137 0.0153127 0.0429679
5 2 0.585724 0.675726 0.505414
6 1 0.479665 0.977143 0.16751
7 2 0.471741 0.68208 0.187453
8 2 0.852981 0.968088 0.297809
9 2 0.407724 0.762522 0.278209
10 2 0.0400164 0.979016 0.257432
11 2 0.868406 0.172238 0.76483
12 2 0.764647 0.676868 0.984056
13 2 0.569176 0.196512 0.607816
14 1 0.874077 0.28483 0.476028
15 2 0.0602924 0.168946 0.318149
16 2 0.428541 0.149745 0.452499
17 1 0.896564 0.446564 0.111475
18 2 0.0469853 0.961663 0.345832
19 2 0.487866 0.027692 0.367154
20 2 0.258137 0.774616 0.37461
21 2 0.213881 0.545267 0.682825
22 2 0.459765 0.116082 0.996071
23 2 0.49547 0.798991 0.484176
24 2 0.641351 0.731979 0.945509
25 1 0.461779 0.867386 0.0231606
26 2 0.598445 0.816784 0.985894
27 2 0.650002 0.848896 0.605793
28 2 0.451379 0.808134 0.547718
29 2 0.419669 0.354527 0.63946
30 2 0.467149 0.493726 0.334322
31 1 0.0662618 0.880213 0.262118
32 1 0.148321 0.836965 0.2714
33 1 0.607781 0.467462 0.659673
34 2 0.0802923 0.774018 0.30292
35 2 0.94408 0.652141 0.345091
36 1 0.650025 0.136616 0.73833
37 2 0.00577563 0.176536 0.3716
38 2 0.517153 0.0278461 0.584471
39 2 0.574989 0.48905 0.266629
40 2 0.0967791 0.640125 0.571249
41 2 0.161093 0.523937 0.733719
42 2 0.377797 0.275318 0.882159
43 2 0.558492 0.350045 0.718648
44 2 0.638492 0.346129 0.737418
45 2 0.480042 0.838589 0.603498
46 1 0.293263 0.0299318 0.959796
47 2 0.409671 0.390107 0.775179
48 2 0.417466 0.400785 0.428094
49 2 0.425629 0.618766 0.639485
50 2 0.472895 0.477705 0.705623
51 2 0.787757 0.2712 0.101285
52 2 0.684062 0.923771 0.519107
53 2 0.811863 0.615298 0.10147
54 2 0.512302 0.291375 0.056353
55 1 0.322404 0.661557 0.641556
56 1 0.556163 0.27715 0.718817
57 2 0.863338 0.569046 0.588218
58 2 0.90405 0.96475 0.606175
59 2 0.289508 0.842706 0.946922
60 2 0.10131 0.417065 0.0460706
61 2 0.760203 0.589446 0.837795
62 2 0.545027 0.767376 0.789912
63 2 0.481402 0.749284 0.593593
64 2 0.910515 0.263669 0.418315
65 2 0.278848 0.971667 0.949631
66 1 0.408006 0.310245 0.165314
67 2 0.444857 0.506949 0.644215
68 2 0.0551549 0.276291 0.414881
69 1 0.900393 0.227284 0.451473
70 2 0.054444 0.448938 0.508693
71 1 0.556349 0.852799 0.0437266
72 2 0.647921 0.246089 0.971038
73 2 0.845589 0.767104 0.0780928
74 2 0.288529 0.332348 0.764468
75 2 0.056873 0.963748 0.62131
76 2 0.735659 0.173737 0.503703
77 1 0.496614 0.448061 0.963672
78 2 0.262235 0.334678 0.691668
79 2 0.794595 0.27291 0.787989
80 2 0.264357 0.439555 0.102094
81 2 0.470933 0.084051 0.196983
82 2 0.840039 0.316661 0.538311
83 2 0.199426 0.155615 0.491851
84 2 0.0542383 0.679721 0.387843
85 1 0.705118 0.338896 0.808866
86 2 0.382906 0.11949 0.177981
87 2 0.933142 0.180589 0.0260205
88 2 0.224376 0.202672 0.763643
89 2 0.605453 0.90762 0.650496
90 2 0.256517 0.803783 0.970414
91 2 0.669133 0.841061 0.217378
92 2 0.98552 0.278343 0.110946
93 2 0.673403 0.980389 0.823003
94 1 0.183172 0.71431 0.398867
95 2 0.8908 0.376609 0.563958
96 2 0.407118 0.72384 0.926403
97 2 0.425902 0.00554103 0.326932
98 2 0.978019 0.04171 0.889966
99 2 0.422366 0.00238616 0.8713
100 2 0.517692 0.83915 0.12932
101 1 0.427465 0.824898 0.40423
102 2 0.392848 0.40546 0.686419
103 2 0.923073 0.973159 0.652196
104 2 0.925014 0.912674 0.118913
105 2 0.641332 0.830392 0.243259
106 2 0.104122 0.817892 0.637931
107 2 0.669571 0.522286 0.598447
108 2 0.415617 0.398435 0.496573
109 2 0.179409 0.673939 0.341683
110 2 0.559004 0.584411 0.204586
111 2 0.0221041 0.239037 0.61045
112 1 0.424753 0.636926 0.480201
113 1 0.716939 0.184742 0.394195
114 2 0.175588 0.98587 0.76273
115 2 0.568337 0.114154 0.752145
116 2 0.937647 0.417202 0.675765
117 2 0.237926 0.0577305 0.0863355
118 2 0.215703 0.661328 0.889416
119 2 0.522656 0.447716 0.0112303
120 2 0.981556 0.634835 0.487604
121 2 0.427198 0.926213 0.605318
122 2 0.697714 0.980017 0.429898
123 2 0.0221392 0.947884 0.872684
124 2 0.158298 0.0609296 0.89727
125 1 0.505516 0.270955 0.775005
126 2 0.546578 0.00318522 0.692722
127 2 0.472058 0.397994 0.660028
128 2 0.285353 0.126768 0.907319
129 1 0.974913 0.62857 0.259184
130 2 0.549039 0.142774 0.47901
131 2 0.704227 0.237162 0.420435
132 2 0.54714 0.565295 0.0169437
133 2 0.3686 0.856913 0.455146
134 2 0.908415 0.247213 0.0877788
135 2 0.861656 0.168332 0.880299
136 2 0.272401 0.0842517 0.934068
137 1 0.911474 0.853656 0.367581
138 2 0.619534 0.593864 0.370411
139 2 0.77494 0.746786 0.497578
140 1 0.665403 0.783015 0.688935
141 2 0.757691 0.499642 0.931266
142 2 0.3704 0.20837 0.23863
143 2 0.100077 0.635604 0.905712
144 2 0.0250887 0.369767 0.224755
145 2 0.77414 0.272096 0.46486
146 2 0.309447 0.566007 0.393722
147 1 0.573799 0.501232 0.187216
148 1 0.701806 0.605857 0.882235
149 2 0.384765 0.63289 0.458135
150 1 0.553071 0.00868203 0.631007
151 2 0.621096 0.432896 0.048841
152 2 0.937034 0.378239 0.504628
153 1 0.556913 0.729159 0.43263
154 1 0.546488 0.171388 0.626499
155 2 0.258518 0.41992 0.20405
156 2 0.608574 0.217729 0.253564
157 2 0.270761 0.723884 0.813671
158 2 0.450206 0.306567 0.583973
159 2 0.871353 0.371211 0.238552
160 2 0.261674 0.23793 0.625306
161 2 0.620594 0.448576 0.615211
162 2 0.45378 0.393389 0.36911
163 2 0.542541 0.316416 0.0877985
164 2 0.0241695 0.466194 0.553946
165 2 0.402922 0.096334 0.759693
166 2 0.0854724 0.843765 0.880966
167 2 0.810739 0.00168009 0.879792
168 2 0.325548 0.652667 0.120988
169 2 0.691042 0.691283 0.687263
170 2 0.735711 0.283307 0.850799
171 2 0.961772 0.594374 0.997038
172 2 0.423148 0.120104 0.481399
173 1 0.53309 0.623769 0.605026
174 2 0.789268 0.888598 0.171217
175 2 0.926478 0.104339 0.823875
176 2 0.450114 0.767581 0.812201
177 1 0.713479 0.973732 0.227013
178 2 0.60865 0.596758 0.821712
179 2 0.98446 0.988718 0.339935
180 2 0.550707 0.648237 0.452501
181 2 0.913679 0.710724 0.304821
182 2 0.491649 0.510599 0.659765
183 2 0.189727 0.362326 0.181936
184 2 0.593013 0.314746 0.167964
185 2 0.448302 0.57837 0.617655
186 2 0.448264 0.0766368 0.395687
187 2 0.218625 0.661593 0.50102
188 1 0.991353 0.0848283 0.814028
189 2 0.513701 0.37039 0.328375
190 2 0.101445 0.14155 0.784693
191 2 0.982976 0.985775 0.173911
192 2 0.520936 0.373423 0.658062
193 2 0.735235 0.496792 0.960808
194 2 0.502795 0.181492 0.31305
195 2 0.511061 0.970077 0.586875
196 2 0.00906676 0.897882 0.867229
197 2 0.112543 0.500907 0.80536
198 2 0.1798 0.308322 0.945193
199 2 0.108513 0.719993 0.0576161
200 1 0.610641 0.998014 0.452999
201 2 0.249951 0.771007 0.190711
202 2 0.647396 0.822834 0.294552
203 2 0.0234544 0.719247 0.403592
204 2 0.555875 0.669489 0.431887
205 2 0.237519 0.118 0.205532
206 2 0.339361 0.799156 0.0745608
207 2 0.959654 0.669387 0.710317
208 2 0.203592 0.0415728 0.782617
209 2 0.311772 0.252845 0.731998
210 2 0.867161 0.263471 0.593747
211 2 0.546987 0.162103 0.472126
212 1 0.620181 0.148903 0.905448
213 2 0.937923 0.37944 0.456653
214 2 0.941583 0.129015 0.194804
215 2 0.417392 0.957969 0.186435
216 2 0.315091 0.0633545 0.392452
217 2 0.108525 0.790674 0.588196
218 2 0.464859 0.228389 0.638619
219 2 0.380047 0.852509 0.101909
220 2 0.332708 0.329321 0.94787
221 2 0.525983 0.0102766 0.429284
222 2 0.837793 0.575548 0.520323
223 2 0.248218 0.717051 0.106787
224 2 0.984629 0.545645 0.911235
225 1 0.99279 0.0793811 0.0317006
226 2 0.524983 0.314655 0.363226
227 2 0.98978 0.379632 0.0114273
228 2 0.50102 0.66866 0.528997
229 2 0.768943 0.0371031 0.468377
230 1 0.134167 0.397855 0.295571
231 2 0.143774 0.209848 0.287479
232 2 0.204106 0.382852 0.688959
233 1 0.159134 0.703123 0.57893
234 2 0.570458 0.0952671 0.667554
235 2 0.552273 0.174489 0.923312
236 2 0.545671 0.961224 0.627307
237 2 0.460425 0.596556 0.845371
238 1 0.503978 0.410229 0.709666
239 1 0.915271 0.914713 0.192398
240 2 0.656648 0.781699 0.10608
241 2 0.625766 0.791845 0.337032
242 1 0.881861 0.175108 0.0319911
243 1 0.452576 0.0439509 0.438072
244 2 0.607751 0.437859 0.311451
245 2 0.210964 0.408313 0.715146
246 1 0.406521 0.454041 0.636509
247 2 0.479402 0.352664 0.594322
248 2 0.895214 0.167121 0.576249
249 2 0.966772 0.457922 0.0962869
250 2 0.888085 0.134935 0.468769
251 2 0.808389 0.136192 0.251285
252 2 0.658764 0.504457 0.337483
253 2 0.768955 0.207928 0.292755
254 2 0.0451905 0.598499 0.578166
255 2 0.730722 0.169862 0.709657
256 2 0.472167 0.29696 0.556154
257 2 0.604031 0.175154 0.612841
258 2 0.527778 0.99965 0.891098
259 1 0.422281 0.382093 0.569276
260 2 0.813073 0.188061 0.617239
261 1 0.873821 0.218141 0.359103
262 2 0.243393 0.855137 0.786324
263 2 0.269984 0.445415 0.96128
264 2 0.384481 0.623903 0.941382
265 1 0.0673366 0.510247 0.0823284
266 2 0.524309 0.130857 0.575965
267 2 0.356394 0.516879 0.367006
268 1 0.377238 0.607006 0.623777
269 1 0.492165 0.413356 0.605819
270 2 0.13166 0.762493 0.800276
271 2 0.559011 0.400005 0.693202
272 2 0.0773483 0.941169 0.640492
273 1 0.730816 0.413909 0.799688
274 2 0.867666 0.0426446 0.390032
275 2 0.104217 0.679092 0.104097
276 2 0.117027 0.83111 0.713292
277 2 0.521864 0.413262 0.891483
278 2 0.592767 0.614869 0.62971
279 2 0.623807 0.352169 0.937052
280 1 0.276698 0.0682975 0.430792
281 2 0.518878 0.165511 0.483561
282 2 0.519196 0.553816 0.508859
283 2 0.786671 0.279722 0.95841
284 1 0.708825 0.231036 0.216002
285 2 0.941146 0.941473 0.227648
286 2 0.381272 0.713074 0.460926
287 1 0.552405 0.698126 0.521324
288 2 0.269359 0.768898 0.10513
289 2 0.454509 0.597147 0.564815
290 2 0.954896 0.605853 0.860242
291 2 0.925467 0.414363 0.32351
292 2 0.770382 0.478431 0.603139
293 2 0.799059 0.378956 0.260057
294 2 0.0942337 0.665912 0.28108
295 2 0.845728 0.140236 0.0479217
296 2 0.940904 0.265475 0.223176
297 2 0.294673 0.24503 0.418573
298 2 0.816476 0.544594 0.48783
299 1 0.491329 0.436671 0.360965
300 2 0.278902 0.54188 0.0729428
301 2 0.595902 0.881283 0.68981
302 2 0.0605254 0.449558 0.657292
303 2 0.953376 0.348185 0.310499
304 1 0.302751 0.452832 0.129935
305 2 0.309921 0.984348 0.924472
306 2 0.88289 0.522609 0.828092
307 2 0.364998 0.458256 0.635862
308 2 0.699671 0.509649 0.690286
309 2 0.810184 0.662941 0.527719
310 2 0.594004 0.702312 0.701789
311 2 0.740054 0.330848 0.686623
312 2 0.795843 0.180413 0.248097
313 2 0.572089 0.039969 0.199986
314 2 0.694694 0.0872793 0.829466
315 2 0.512137 0.969808 0.286871
316 2 0.592834 0.569902 0.90738
317 2 0.909228 0.618952 0.717354
318 2 0.322634 0.00185751 0.779302
319 2 0.961652 0.961914 0.906381
320 2 0.308202 0.777952 0.0322387
321 2 0.539421 0.0094276 0.23639
322 2 0.495788 0.617522 0.519821
323 2 0.565326 0.914705 0.527844
324 2 0.294266 0.872312 0.793538
325 2 0.0880405 0.739076 0.924384
326 2 0.378642 0.88681 0.376122
327 2 0.387016 0.268195 0.928091
328 2 0.305205 0.194052 0.50155
329 1 0.960336 0.711223 0.267086
330 2 0.737723 0.173697 0.137409
331 2 0.0390057 0.986401 0.944173
332 2 0.161286 0.027759 0.956546
333 2 0.36663 0.97883 0.22522
334 2 0.22733 0.298849 0.600964
335 1 0.735154 0.867401 0.142937
336 2 0.704171 0.226315 0.278325
337 2 0.20745 0.346033 0.459722
338 1 0.767312 0.337947 0.746464
339 2 0.136068 0.868611 0.444718
340 2 0.517646 0.68706 0.488943
341 2 0.359359 0.95489 0.0997637
342 2 0.793826 0.758257 0.0447857
343 2 0.875164 0.854098 0.317894
344 1 0.827218 0.97543 0.912048
345 1 0.40373 0.58056 0.580617
346 1 0.259574 0.0627291 0.0206062
347 1 0.877976 0.644872 0.0533368
348 2 0.0381907 0.619626 0.542847
349 2 0.610307 0.494584 0.755542
350 2 0.941148 0.375407 0.572516
351 2 0.917382 0.931453 0.864009
352 2 0.328749 0.465677 0.194317
353 1 0.0908058 0.752299 0.259214
354 1 0.0150258 0.568963 0.964935
355 2 0.473307 0.840559 0.557189
356 2 0.545016 0.598975 0.0365104
357 2 0.244781 0.360028 0.719529
358 2 0.952542 0.0566243 0.851603
359 2 0.455532 0.164514 0.521844
360 2 0.131314 0.987121 0.23964
361 1 0.0374987 0.660461 0.0891706
362 2 0.079831 0.214651 0.861773
363 1 0.326363 0.681902 0.732027
364 2 0.656087 0.822244 0.0992073
365 2 0.889131 0.307731 0.572305
366 2 0.176291 0.161297 0.628131
367 1 0.563433 0.943794 0.429356
368 1 0.804304 0.739865 0.921063
369 2 0.682602 0.186813 0.19572
370 2 0.251982 0.293667 0.539242
371 2 0.186963 0.447301 0.732
372 1 0.800166 0.239068 0.495424
373 2 0.428652 0.899103 0.633683
374 2 0.448755 0.776496 0.217334
375 2 0.187633 0.482796 0.863449
376 2 0.978275 0.102259 0.623883
377 2 0.539717 0.692663 0.441049
378 2 0.864605 0.516843 0.920818
379 2 0.680764 0.446992 0.38955
380 2 0.706146 0.497616 0.181196
381 2 0.509731 0.760878 0.389387
382 2 0.219106 0.418835 0.682286
383 2 0.901263 0.251798 0.605332
384 1 0.810321 0.940249 0.242151
385 2 0.586283 0.29697 0.746107
386 2 0.328822 0.333582 0.102505
387 1 0.707768 0.944507 0.830971
388 2 0.027691 0.442003 0.654031
389 2 0.727096 0.564466 0.656752
390 2 0.586307 0.391948 0.663836
391 2 0.0699172 0.968712 0.510073
392 1 0.293315 0.489672 0.640154
393 2 0.545607 0.550204 0.83174
394 2 0.633476 0.792571 0.579414
395 2 0.910834 0.700851 0.285136
396 2 0.585297 0.90595 0.0272989
397 2 0.342444 0.463442 0.429384
398 1 0.796539 0.578191 0.104992
399 1 0.593682 0.286368 0.574582
400 1 0.945582 0.1771 0.935596
401 2 0.134389 0.681373 0.94717
402 2 0.435573 0.16831 0.889636
403 2 0.190635 0.771276 0.414738
404 2 0.687272 0.604798 0.990081
405 2 0.504114 0.00889765 0.209602
406 2 0.299904 0.653321 0.906936
407 2 0.738086 0.757694 0.0936972
408 2 0.164345 0.446091 0.960568
409 2 0.0860596 0.701747 0.48616
410 2 0.186517 0.823846 0.418316
411 2 0.383867 0.942258 0.138927
412 2 0.182944 0.827215 0.552324
413 2 0.786738 0.402042 0.470053
414 2 0.908449 0.52434 0.805573
415 2 0.375142 0.660898 0.615517
416 1 0.475499 0.587501 0.428397
417 2 0.597345 0.259433 0.0488311
418 2 0.717221 0.943577 0.544595
419 2 0.976348 0.263121 0.980428
420 2 0.570963 0.650907 0.592471
421 1 0.494058 0.484732 0.607663
422 1 0.303541 0.781889 0.498535
423 2 0.352093 0.148357 0.766642
424 2 0.298731 0.361703 0.114647
425 1 0.366154 0.577549 0.550468
426 2 0.21016 0.778754 0.443229
427 2 0.32264 0.820353 0.829601
428 2 0.734177 0.673443 0.587004
429 2 0.0744452 0.158985 0.272063
430 2 0.0659449 0.76955 0.959871
431 2 0.659036 0.206638 0.259553
432 1 0.475672 0.260512 0.0995489
433 2 0.810878 0.374462 0.0719182
434 1 0.27903 0.543815 0.462956
435 2 0.439093 0.924052 0.383736
436 2 0.901174 0.399455 0.529781
437 2 0.552285 0.845752 0.0887569
438 2 0.953451 0.0887161 0.99381
439 1 0.614877 0.725784 0.471273
440 2 0.437312 0.472015 0.0254293
441 1 0.867613 0.515619 0.5979
442 1 0.332208 0.8156 0.187876
443 1 0.410721 0.94798 0.844794
444 2 0.421353 0.703772 0.415634
445 2 0.864707 0.781061 0.220046
446 2 0.559368 0.187144 0.494848
447 2 0.473203 0.515834 0.479875
448 2 0.525115 0.0259478 0.546126
449 1 0.61749 0.170999 0.548235
450 2 0.414614 0.632707 0.579188
451 2 0.537802 0.38812 0.261972
452 2 0.285425 0.798079 0.826369
453 1 0.0421169 0.173944 0.863311
454 2 0.431194 0.896568 0.770353
455 2 0.103242 0.506271 0.337606
456 2 0.861375 0.744265 0.944036
457 2 0.555091 0.948347 0.0444941
458 2 0.632154 0.574322 0.280931
459 2 0.377762 0.560812 0.442098
460 2 0.721905 0.490389 0.13979
461 2 0.384684 0.702095 0.777391
462 2 0.715711 0.355792 0.411654
463 1 0.282671 0.472333 0.759772
464 2 0.482382 0.761578 0.232351
465 2 0.0572947 0.16719 0.562268
466 2 0.745358 0.449978 0.654485
467 1 0.631187 0.105339 0.492582
468 2 0.139582 0.647318 0.896372
469 2 0.221326 0.537024 0.342721
470 2 0.506628 0.860361 0.961195
471 2 0.132425 0.743617 0.295345
472 2 0.273475 0.515611 0.7454
473 1 0.192885 0.491373 0.744784
474 1 0.970473 0.951417 0.657332
475 1 0.25437 0.797408 0.90036
476 2 0.954935 0.0520097 0.62006
477 2 0.645763 0.156194 0.0271231
478 2 0.271686 0.306722 0.827601
479 2 0.750576 0.617831 0.87595
480 2 0.137616 0.957143 0.71017
481 2 0.320059 0.56063 0.847282
482 2 0.838489 0.943357 0.216541
483 2 0.634654 0.311246 0.100584
484 1 0.591573 0.353739 0.589584
485 1 0.682842 0.32442 0.505102
486 2 0.993273 0.812224 0.989412
487 2 0.884675 0.231135 0.519229
488 2 0.581208 0.636869 0.018173
489 2 0.0172899 0.515249 0.25773
490 2 0.33006 0.0561351 0.62113
491 2 0.194087 0.542047 0.700375
492 2 0.986848 0.0554628 0.660213
493 2 0.844563 0.699487 0.0447653
494 2 0.349362 0.839554 0.838741
495 2 0.429705 0.199142 0.493348
496 2 0.396671 0.799526 0.375571
497 2 0.724829 0.203254 0.24876
498 1 0.605599 0.912943 0.532682
499 2 0.347879 0.397981 0.381908
500 2 0.541346 0.71964 0.611162
501 1 0.510362 0.553413 0.212125
502 2 0.00577801 0.284599 0.158725
503 2 0.486762 0.937311 0.617435
504 1 0.790908 0.0115894 0.808067
505 2 0.921955 0.544331 0.207142
506 2 0.432151 0.0392448 0.287421
507 2 0.613799 0.800515 0.731968
508 2 0.233339 0.0479883 0.216079
509 1 0.863897 0.181473 0.66246
510 2 0.736614 0.347879 0.0497442
511 2 0.133948 0.16108 0.897688
512 2 0.139252 0.236313 0.890032
513 1 0.94687 0.296852 0.67036
514 2 0.651882 0.314289 0.641356
515 1 0.602559 0.427686 0.703765
516 2 0.589899 0.0292669 0.988678
517 1 0.732528 0.508607 0.725433
518 2 0.731911 0.127015 0.156441
519 2 0.119192 0.42724 0.606529
520 2 0.193647 0.753402 0.476285
521 2 0.851047 0.138525 0.515265
522 2 0.43167 0.502398 0.517947
523 2 0.366567 0.352946 0.647157
524 2 0.626152 0.494271 0.869337
525 2 0.0408465 0.750385 0.909369
526 2 0.528628 0.310972 0.967825
527 2 0.325218 0.729754 0.82014
528 1 0.690244 0.658908 0.107988
529 2 0.168771 0.931065 0.201175
530 2 0.350107 0.802355 0.520592
531 2 0.17377 0.893767 0.654139
532 2 0.969002 0.951719 0.353829
533 2 0.0716344 0.256689 0.471092
534 1 0.0666567 0.568747 0.877308
535 2 0.899249 0.19389 0.556689
536 1 0.11926 0.625705 0.00926106
537 1 0.160904 0.583136 0.250093
538 2 0.112188 0.960279 0.200284
539 2 0.57695 0.257551 0.800316
540 2 0.900597 0.181213 0.636473
541 1 0.522163 0.481527 0.665338
542 2 0.322167 0.764096 0.680421
543 1 0.961106 0.840928 0.0519644
544 1 0.67773 0.811022 0.917156
545 2 0.0434561 0.011504 0.861687
546 2 0.577575 0.227607 0.492453
547 2 0.242739 0.686437 0.589897
548 2 0.673665 0.538513 0.685911
549 2 0.691133 0.357957 0.93448
550 2 0.753899 0.179382 0.25072
551 1 0.589633 0.414193 0.181392
552 2 0.185318 0.108344 0.870653
553 2 0.225947 0.346136 0.108313
554 2 0.0336376 0.263503 0.0546337
555 1 0.0386745 0.122134 0.825523
556 2 0.323897 0.0762084 0.468811
557 2 0.682074 0.866408 0.212722
558 1 0.500012 0.985994 0.10109
559 2 0.243946 0.629058 0.474412
560 2 0.469152 0.634226 0.548236
561 2 0.505732 0.131909 0.900361
562 1 0.568339 0.51112 0.848726
563 2 0.199964 0.939732 0.119888
564 2 0.663276 0.129174 0.236325
565 2 0.460747 0.450642 0.627501
566 2 0.818134 0.291638 0.936965
567 2 0.206795 0.963114 0.778629
568 2 0.928344 0.539408 0.6898
569 1 0.0371676 0.526105 0.156823
570 2 0.504669 0.0199275 0.181179
571 2 0.060341 0.273384 0.722424
572 2 0.52699 0.50904 0.724405
573 2 0.766666 0.0573498 0.754267
574 2 0.539777 0.222963 0.933713
575 1 0.856644 0.352527 -0.00130955
576 2 0.27075 0.967067 0.152514
577 2 0.9707 0.650686 0.911099
578 1 0.468931 0.495134 0.542487
579 2 0.89544 0.183027 0.727483
580 1 0.288413 0.758293 0.852072
581 2 0.825005 0.049688 0.514586
582 2 0.586005 0.47091 0.531561
583 1 0.481733 0.565205 0.562168
584 2 0.237602 0.31288 0.279407
585 1 0.865109 0.159375 0.335685
586 2 0.68745 0.73367 0.929022
587 2 0.112228 0.561024 0.86399
588 2 0.687895 0.388306 0.61207
589 1 0.996644 0.636837 0.933863
590 1 0.855629 0.204407 0.107195
591 1 0.758853 0.492207 0.66555
592 2 0.318199 0.72894 0.884037
593 2 0.449657 0.470245 0.28959
594 1 0.85129 0.370451 0.874475
595 1 0.714079 0.075283 0.722681
596 2 0.106556 0.972606 0.998544
597 1 0.618384 0.0575798 0.21403
598 2 0.65184 0.38211 0.876151
599 2 0.703962 0.204004 0.450667
600 2 0.618453 0.908419 0.490956
601 2 0.288456 0.522541 0.39279
602 1 0.578036 0.981314 0.902219
603 2 0.161029 0.115448 0.407648
604 1 0.200499 0.670583 0.088841
605 2 0.279002 0.271724 0.228461
606 2 0.157929 0.495538 0.712334
607 1 0.497996 0.913917 0.974239
608 2 0.577538 0.130086 0.50134
609 2 0.371084 0.197498 0.4359
610 2 0.527388 0.346899 0.282562
611 2 0.154164 0.469324 0.761296
612 1 0.622585 0.0178015 0.71544
613 2 0.470635 0.99138 0.503622
614 1 0.561681 0.0367754 0.575343
615 2 0.224584 0.257641 0.911011
616 1 0.0345123 0.717149 0.964604
617 2 0.341279 0.536528 0.442628
618 2 0.693364 0.041127 0.0792165
619 2 0.478385 0.0038229 0.9489
620 2 0.56725 0.933214 0.675325
621 2 0.179125 0.77572 0.739548
622 2 0.623797 0.435276 0.952161
623 1 0.308245 0.0197649 0.453004
624 2 0.42918 0.593797 0.635196
625 2 0.629503 0.0689583 0.394209
626 2 0.286022 0.615801 1.00043
627 2 0.358714 0.93947 0.347944
628 2 0.396572 0.208791 0.976234
629 2 0.13615 0.25546 0.0458467
630 1 0.332573 0.305092 0.730958
631 2 0.353941 0.851582 0.217811
632 2 0.942606 0.479748 0.592311
633 2 0.6136 0.655959 0.60303
634 2 0.5582 0.582772 0.582227
635 2 0.291227 0.647609 0.0751103
636 2 0.309588 0.0287305 0.777687
637 2 0.525855 0.345512 0.63919
638 1 0.186277 0.22684 0.805936
639 2 0.00672261 0.296711 0.632039
640 2 0.365019 0.200265 0.759961
641 2 0.231049 0.75209 0.473117
642 2 0.820409 0.455363 0.636701
643 2 0.41053 0.676551 0.025862
644 2 0.250245 0.197898 0.4113
645 1 0.635299 0.752278 0.0454085
646 2 0.824374 0.286345 0.703821
647 1 0.472531 0.45359 0.524793
648 2 0.712708 0.387517 0.959626
649 2 0.273108 0.688831 0.858865
650 2 0.598741 0.920855 0.38446
651 2 0.391231 0.496987 0.262446
652 2 0.233321 0.859399 0.336475
653 2 0.706495 0.890885 0.165407
654 1 0.459816 0.721694 0.443756
655 2 0.123676 0.379676 0.819437
656 2 0.557018 0.0127736 0.455644
657 2 0.231318 0.6263 0.356195
658 2 0.405449 0.155321 0.579092
659 2 0.48513 0.411242 0.921487
660 2 0.311983 0.818655 0.94034
661 1 0.955083 0.275308 0.754384
662 2 0.0171691 0.651839 0.225329
663 2 0.68309 0.156543 0.682
664 1 0.940909 0.165103 0.545105
665 2 0.491473 0.37562 0.301816
666 2 0.185759 0.445914 0.595056
667 2 0.655493 0.247629 0.445714
668 2 0.672623 0.120575 0.0473037
669 2 0.0819441 0.125233 0.921156
670 1 0.365228 0.394928 0.751537
671 2 0.292711 0.690697 0.837977
672 1 0.605035 0.599173 0.466291
673 2 0.768578 0.137636 0.186994
674 2 0.728651 0.2761 0.666913
675 2 0.467572 0.804412 0.37831
676 1 0.134646 0.961371 0.47095
677 2 0.827706 0.181164 0.0785965
678 2 0.0459902 0.934638 0.640265
679 1 0.995851 0.609465 0.339073
680 2 0.387939 0.588536 0.260453
681 1 0.65147 0.26832 0.0727421
682 1 0.317723 0.7169 0.218552
683 2 0.934376 0.382495 0.984199
684 2 0.180509 0.99064 0.923947
685 2 0.30557 0.610807 0.576036
686 2 0.31698 0.811231 0.797324
687 1 0.607112 0.374855 0.719747
688 2 0.48834 0.165058 0.982095
689 2 0.647637 0.939017 0.545434
690 2 0.423168 0.0281212 0.442502
691 2 0.769103 0.909759 0.819167
692 1 0.157361 0.676687 0.529295
693 2 0.56416 0.270591 0.0778687
694 2 0.611602 0.460527 0.00825332
695 1 0.153288 0.172531 0.0624899
696 2 0.108912 0.806944 0.146109
697 2 0.917574 0.948773 0.36368
698 2 0.592055 0.525487 0.897844
699 2 0.907594 0.129728 0.638516
700 1 0.387283 0.563162 0.709754
701 2 0.96 0.0968554 0.665203
702 2 0.514978 0.232084 0.176144
703 2 0.64033 0.0152844 0.605102
704 2 0.360649 0.431971 0.732922
705 2 0.0571974 0.209482 0.943143
706 2 0.183409 0.150507 0.696034
707 2 0.345966 0.604369 0.580329
708 1 0.364441 0.0279528 0.678402
709 2 0.377272 0.671292 0.35043
710 2 0.294092 0.719882 0.783342
711 2 0.781827 0.965248 0.0655523
712 1 0.840717 0.244155 0.0347991
713 2 0.623452 0.429006 0.752782
714 1 0.661974 0.943835 0.922236
715 2 0.448655 0.860745 0.899437
716 1 0.642326 0.659457 0.542867
717 2 0.26149 0.192522 0.507532
718 2 0.661858 0.916218 0.505314
719 2 0.12833 0.732826 0.691876
720 2 0.375627 0.381655 0.959046
721 2 0.355058 0.239593 0.864721
722 1 0.280325 0.722778 0.635775
723 2 0.397155 0.775214 0.215814
724 2 0.0560974 0.685013 0.163869
725 2 0.901609 0.672884 0.869304
726 2 0.215774 0.174257 0.653757
727 1 0.363986 0.220865 0.642283
728 1 0.810457 0.710584 0.596367
729 1 0.718378 0.361543 0.745178
730 1 0.926339 0.637749 0.287953
731 2 0.61714 0.673096 0.458448
732 1 0.474892 0.000935768 0.572238
733 2 0.976383 0.344996 0.656942
734 2 0.982707 0.140449 0.925443
735 2 0.972552 0.375247 0.534951
736 1 0.380594 0.539678 0.645212
737 2 0.0290569 0.857655 0.85949
738 2 0.724058 0.374873 0.596315
739 2 0.409272 0.342114 0.172715
740 2 0.552698 0.978707 0.472085
741 2 0.239959 0.359469 0.35621
742 1 0.163462 0.726683 0.283834
743 2 0.725826 0.918742 0.222965
744 2 0.46903 0.234483 0.0582756
745 2 0.588189 0.340973 0.236588
746 1 0.845029 0.31873 0.915497
747 2 0.754026 0.877214 0.608142
748 2 0.3849 0.99531 0.557817
749 2 0.634743 0.677813 0.0888888
750 2 0.72497 0.850058 0.556637
751 2 0.545148 0.281871 0.420745
752 2 0.578049 0.561596 0.41052
753 2 0.968953 0.486615 0.27834
754 2 0.384942 0.662188 0.757849
755 2 0.300678 0.0808514 0.129341
756 2 0.606637 0.292122 0.299955
757 2 0.552117 0.153408 0.207896
758 2 0.902594 0.49147 0.255012
759 2 0.796415 0.353222 0.706366
760 1 0.349818 0.0691048 0.767156
761 2 0.668354 0.172082 0.316119
762 2 0.0658684 0.0749381 0.954263
763 1 0.637119 0.307466 0.872278
764 2 0.456787 0.0830187 0.345673
765 2 0.0402666 0.416942 0.668821
766 2 0.487282 0.683764 0.231431
767 2 0.370634 0.473998 0.244658
768 2 0.437543 0.520264 0.848027
769 2 0.579905 0.650557 0.533503
770 2 0.650463 0.699265 0.768757
771 2 0.44772 0.129691 0.807144
772 2 0.641417 0.88713 0.245758
773 1 0.186605 0.891127 0.904126
774 2 0.963472 0.557761 0.61614
775 2 0.874657 0.920276 0.643763
776 2 0.355354 0.282436 0.104612
777 1 0.71218 0.0351352 0.799214
778 2 0.34977 0.746373 0.431287
779 2 0.621092 0.959515 0.647235
780 1 0.138194 0.74029 0.978962
781 2 0.0411718 0.406378 0.18862
782 2 0.0219129 0.274616 0.844641
783 1 0.647045 0.578618 0.391825
784 2 0.527248 0.0163616 0.378498
785 2 0.470995 0.675441 0.515252
786 1 0.812063 0.230867 0.547303
787 2 0.281538 0.591649 0.436672
788 2 0.887596 0.167602 0.815991
789 2 0.0630644 0.214844 0.799485
790 2 0.490194 0.88378 0.0606804
791 1 0.0941718 0.0133678 0.247747
792 2 0.26203 0.696543 0.455088
793 2 0.0885778 0.599483 0.18592
794 2 0.684533 0.213757 1.00036
795 2 0.74227 0.860818 0.0557783
796 2 0.353523 0.722972 0.219588
797 2 0.178301 0.269916 0.242664
798 2 0.478255 0.105751 0.487316
799 2 0.17185 0.660518 0.16873
800 2 0.689292 0.569636 0.765633
801 2 0.540982 0.548479 0.460741
802 2 0.892968 0.365494 0.950088
803 2 0.156586 0.9611 0.206569
804 2 0.54082 0.391047 0.623389
805 2 0.0591186 0.354554 0.399181
806 1 0.54052 0.817773 0.454409
807 2 0.938775 0.29629 0.604401
808 2 0.0631996 0.534035 0.349012
809 1 0.771694 0.720309 0.439752
810 2 0.459972 0.0504703 0.315039
811 2 0.566037 0.48008 0.226963
812 2 0.451419 0.386487 0.729942
813 1 0.660876 0.381526 0.633349
814 2 0.178456 0.0953748 0.155232
815 2 0.0718731 0.439207 0.108747
816 1 0.749664 0.778256 0.197072
817 1 0.450118 0.431616 0.727651
818 2 0.97149 0.163514 0.810817
819 1 0.948757 0.662407 0.970945
820 1 0.573352 0.808923 0.370057
821 2 0.710755 0.459078 0.997222
822 2 0.670222 0.671211 0.966762
823 1 0.504029 0.32063 0.244051
824 2 0.466188 0.147663 0.777855
825 2 0.103371 0.9458 0.324061
826 2 0.314017 0.802324 0.883146
827 1 0.276982 0.459395 0.521093
828 2 0.0256428 0.646826 0.882145
829 2 0.743829 0.849382 0.395344
830 2 0.831091 0.0477863 0.929078
831 1 0.61176 0.360126 0.141587
832 2 0.765281 0.250967 0.413383
833 1 0.676558 0.291137 0.714697
834 2 0.677346 0.529728 0.378425
835 2 0.742506 0.24401 0.270118
836 2 0.729058 0.938135 0.588457
837 2 0.799794 0.0111673 0.0476939
838 2 0.107517 0.973191 0.153045
839 2 0.241535 0.846768 0.963611
840 2 0.938172 0.470826 0.740032
841 2 0.563312 0.398702 0.66338
842 2 0.355157 0.645908 0.906372
843 2 0.555533 0.535499 0.55054
844 2 0.745241 0.838725 0.885781
845 2 0.0277404 0.68144 0.166642
846 2 0.578616 0.50962 0.636758
847 2 0.562008 0.221819 0.453565
848 2 0.905056 0.188222 0.615672
849 1 0.657587 0.0973164 0.785678
850 2 0.23433 0.684282 0.852388
851 2 0.98423 0.254043 0.459937
852 2 0.196191 0.908622 0.201267
853 1 0.13867 0.553982 0.796368
854 2 0.450886 0.959742 0.992145
855 2 0.92524 0.390099 0.550898
856 2 0.649789 0.0941986 0.612727
857 2 0.513394 0.775186 0.98591
858 2 0.3067 0.237711 0.666509
859 2 0.716748 0.964995 0.498278
860 2 0.924064 0.999457 0.421898
861 2 0.90519 0.0980994 0.609372
862 2 0.551917 0.840807 0.790363
863 2 0.215571 0.0532141 0.867471
864 2 0.550281 0.26106 0.243432
865 2 0.507284 0.895286 0.418374
866 2 0.097803 0.500596 0.857243
867 2 0.312342 0.206175 0.6322
868 2 0.0377216 0.853905 0.529291
869 2 0.727824 0.918812 0.928899
870 2 0.117778 0.7445 0.923479
871 2 0.173062 0.924242 0.872851
872 2 0.911755 0.271617 0.52124
873 2 0.0237165 0.359537 0.619239
874 2 0.487785 0.332235 0.965586
875 2 0.631069 0.693069 0.140991
876 2 0.726458 0.00639889 0.837507
877 2 0.595327 0.802721 0.128088
878 2 0.5465 0.656213 0.569971
879 2 0.506107 0.401487 0.0997207
880 2 0.388044 0.46955 0.454295
881 2 0.209234 0.410547 0.627738
882 1 0.967019 0.498299 0.697969
883 1 0.995847 0.00564596 0.438654
884 2 0.141567 0.766878 0.0601259
885 2 0.193049 0.178249 0.327011
886 2 0.51062 0.635029 0.00307622
887 1 0.63027 0.988045 0.0788842
888 2 0.599236 0.387031 0.629029
889 2 0.0471538 0.958062 0.907138
890 1 0.473866 0.496544 0.797073
891 2 0.584602 0.457516 0.709154
892 2 0.561754 0.13878 0.175852
893 2 0.692561 0.447903 0.597528
894 2 0.985401 0.946969 0.762279
895 1 0.587585 0.702945 0.750948
896 2 0.210478 0.75232 0.860193
897 2 0.774738 0.608528 0.133661
898 2 0.137953 0.106724 0.196186
899 2 0.191582 0.968481 0.862014
900 2 0.220038 0.983424 0.215679
901 2 0.637441 0.258983 0.800755
902 2 0.616074 0.35842 0.658617
903 2 0.91997 0.352629 0.586545
904 2 0.586518 0.211649 0.220711
905 2 0.280103 0.233056 0.429688