ITEM: TIMESTEP
26600
ITEM: NUMBER OF ATOMS
1000
ITEM: BOX BOUNDS xy xz yz pp pp pp
0.0000000000000000e+00 1.3572088000000001e+01 0.0000000000000000e+00
0.0000000000000000e+00 1.3572088000000001e+01 0.0000000000000000e+00
0.0000000000000000e+00 1.3572088000000001e+01 0.0000000000000000e+00
ITEM: ATOMS id type xs ys zs
1 2 0.574944 0.501255 0.648089
2 2 0.871358 0.995386 0.51655
3 1 0.983101 0.28374 0.51607
4 2 0.0899037 0.912101 0.0023177
5 2 0.534866 0.648871 0.371483
6 1 0.522566 0.921088 0.134226
7 2 0.516144 0.693333 0.309718
8 2 0.824725 0.0189145 0.181902
9 2 0.4623 0.748678 0.201639
10 2 0.857205 0.0333615 0.248283
11 2 0.818226 0.0232329 0.614531
12 2 0.699716 0.758059 0.999884
13 2 0.694361 0.337936 0.536177
14 1 0.972788 0.256863 0.426241
15 2 0.205343 0.117011 0.218306
16 2 0.435315 0.309285 0.29122
17 1 0.873041 0.427728 0.143263
18 2 0.0536709 0.994112 0.43012
19 2 0.396752 0.0597191 0.40271
20 2 0.311498 0.79157 0.442583
21 2 0.238508 0.52195 0.780506
22 2 0.5275 0.0964089 0.0786888
23 2 0.499942 0.815274 0.557819
24 2 0.701299 0.73994 0.966792
25 1 0.431767 0.811951 0.0312921
26 2 0.648909 0.679193 0.979108
27 2 0.617555 0.788722 0.495509
28 2 0.510637 0.915799 0.688841
29 2 0.414478 0.45355 0.628855
30 2 0.521428 0.522593 0.405458
31 1 0.095293 0.826742 0.164971
32 1 0.0897241 0.833863 0.253396
33 1 0.599545 0.463682 0.703271
34 2 0.145498 0.905835 0.3324
35 2 0.929373 0.766118 0.358516
36 1 0.627348 0.137377 0.741287
37 2 0.888986 0.112659 0.40281
38 2 0.48756 0.0135965 0.603005
39 2 0.455127 0.54237 0.102985
40 2 0.207437 0.503377 0.455811
41 2 0.127359 0.544655 0.736192
42 2 0.488897 0.385457 0.794843
43 2 0.32726 0.362664 0.683703
44 2 0.660038 0.38799 0.763714
45 2 0.558053 0.894472 0.597152
46 1 0.151165 0.0629567 0.98161
47 2 0.403804 0.418033 0.777722
48 2 0.427018 0.358272 0.356068
49 2 0.558324 0.59422 0.715021
50 2 0.387177 0.646352 0.552064
51 2 0.000948119 0.216275 0.346144
52 2 0.659697 0.771322 0.464993
53 2 0.0249384 0.537907 0.029363
54 2 0.458433 0.2909 0.0751927
55 1 0.353051 0.666529 0.604075
56 1 0.580224 0.2751 0.759866
57 2 0.915847 0.573478 0.602694
58 2 0.856741 0.891795 0.457376
59 2 0.201478 0.813487 0.0962056
60 2 0.990427 0.702643 0.994946
61 2 0.686911 0.550784 0.771433
62 2 0.405277 0.696342 0.813232
63 2 0.407942 0.757889 0.544437
64 2 0.959557 0.153319 0.416746
65 2 0.242942 0.00924703 0.0327903
66 1 0.403965 0.331828 0.237212
67 2 0.395126 0.525961 0.625079
68 2 0.055725 0.240863 0.424159
69 1 0.872294 0.144864 0.46206
70 2 0.997499 0.435901 0.673321
71 1 0.51663 0.83843 0.026883
72 2 0.618349 0.105128 0.90268
73 2 0.0718406 0.923377 0.00786243
74 2 0.336206 0.37491 0.806771
75 2 0.0365 0.906688 0.699163
76 2 0.765607 0.282655 0.52568
77 1 0.508514 0.425772 0.957854
78 2 0.318717 0.267211 0.697606
79 2 0.717718 0.350307 0.927345
80 2 0.309784 0.534472 0.952789
81 2 0.285478 0.0152521 0.15733
82 2 0.929132 0.303454 0.490464
83 2 0.273746 0.133216 0.605892
84 2 0.0157928 0.646631 0.309252
85 1 0.685821 0.352805 0.809351
86 2 0.378519 0.198993 0.150379
87 2 0.897925 0.0752516 0.0497878
88 2 0.235366 0.0931261 0.662572
89 2 0.639716 0.00529099 0.613362
90 2 0.282553 0.970021 0.883977
91 2 0.747372 0.888687 0.213441
92 2 0.872283 0.244175 0.144572
93 2 0.61565 0.968211 0.767457
94 1 0.147413 0.689078 0.470447
95 2 0.920972 0.249272 0.5486
96 2 0.41857 0.829798 0.839767
97 2 0.55013 0.0732911 0.275626
98 2 0.138697 0.113695 0.934737
99 2 0.45142 0.961443 0.778682
100 2 0.61958 0.75949 0.0468485
101 1 0.491198 0.816831 0.391939
102 2 0.292895 0.359466 0.73504
103 2 0.131868 0.0279193 0.597352
104 2 0.908572 0.889496 0.178495
105 2 0.59241 0.979392 0.238322
106 2 0.13649 0.991839 0.593141
107 2 0.603436 0.608488 0.638764
108 2 0.379063 0.255757 0.401664
109 2 0.29346 0.613862 0.346042
110 2 0.73227 0.494903 0.367258
111 2 0.992055 0.410976 0.706767
112 1 0.406878 0.606921 0.517839
113 1 0.799037 0.163006 0.350838
114 2 0.975964 0.0811028 0.821758
115 2 0.693826 0.0085917 0.713845
116 2 0.911298 0.45678 0.617329
117 2 0.337949 0.141335 0.0930623
118 2 0.137894 0.592107 0.804034
119 2 0.529186 0.455354 0.0304308
120 2 0.0705465 0.697459 0.462031
121 2 0.537722 0.896133 0.596816
122 2 0.716379 0.875755 0.549654
123 2 0.0464198 0.935871 0.849604
124 2 0.170381 0.114181 0.902534
125 1 0.470835 0.279236 0.829081
126 2 0.527563 0.0268758 0.734476
127 2 0.491218 0.427379 0.711979
128 2 0.367984 0.146622 0.8227
129 1 0.0458622 0.598389 0.252908
130 2 0.531047 0.130522 0.551481
131 2 0.834106 0.311229 0.470987
132 2 0.621524 0.460136 0.0199152
133 2 0.354509 0.924637 0.331118
134 2 0.892783 0.266273 0.0241264
135 2 0.800289 0.205019 0.0164884
136 2 0.380317 0.853324 0.77037
137 1 0.957733 0.823292 0.355312
138 2 0.660244 0.654111 0.279568
139 2 0.803785 0.998722 0.613046
140 1 0.616667 0.707363 0.663597
141 2 0.810603 0.478562 0.953502
142 2 0.382914 0.217929 0.215576
143 2 0.219212 0.481521 0.849442
144 2 0.202372 0.385833 0.169365
145 2 0.885069 0.212926 0.274828
146 2 0.380362 0.558841 0.150212
147 1 0.561542 0.564889 0.126975
148 1 0.654785 0.528367 0.957609
149 2 0.405369 0.457522 0.300365
150 1 0.546422 0.0307774 0.644938
151 2 0.468196 0.381172 0.0611283
152 2 0.896981 0.380951 0.513513
153 1 0.616109 0.691667 0.419455
154 1 0.474622 0.133817 0.632797
155 2 0.126834 0.608478 0.263669
156 2 0.572178 0.0690315 0.174332
157 2 0.409251 0.551323 0.783157
158 2 0.469219 0.42903 0.725635
159 2 0.830154 0.482671 0.306262
160 2 0.309344 0.385974 0.719808
161 2 0.542412 0.371253 0.654358
162 2 0.410453 0.434064 0.418207
163 2 0.512979 0.316781 0.122918
164 2 0.972629 0.477785 0.604638
165 2 0.376227 0.0615197 0.733611
166 2 0.133499 0.72014 0.955954
167 2 0.821585 0.055639 0.764365
168 2 0.242808 0.583836 0.185417
169 2 0.738788 0.561638 0.879306
170 2 0.668356 0.108756 0.750778
171 2 0.901124 0.568824 0.0313343
172 2 0.364112 0.217067 0.476834
173 1 0.539589 0.619437 0.614238
174 2 0.0201 0.963145 0.298651
175 2 0.869837 0.0826426 0.860424
176 2 0.539501 0.777317 0.77991
177 1 0.740429 0.0345104 0.225677
178 2 0.499184 0.646618 0.69933
179 2 0.0325099 0.971476 0.427714
180 2 0.689064 0.587893 0.497739
181 2 0.938418 0.643379 0.408116
182 2 0.532824 0.579375 0.622375
183 2 0.138436 0.568807 0.0852713
184 2 0.589783 0.344903 0.0515802
185 2 0.519008 0.543711 0.642234
186 2 0.513666 0.178143 0.447859
187 2 0.244662 0.731388 0.517879
188 1 0.0105068 0.0486838 0.873662
189 2 0.51824 0.503133 0.388484
190 2 0.994683 0.163603 0.916129
191 2 0.989859 0.0461449 0.202936
192 2 0.529383 0.377312 0.583891
193 2 0.846716 0.466379 0.957407
194 2 0.420988 0.243098 0.377397
195 2 0.580759 0.96573 0.573903
196 2 0.963735 0.909174 0.833543
197 2 0.113437 0.567665 0.772461
198 2 0.0659714 0.309946 0.982523
199 2 0.0505535 0.714001 0.262097
200 1 0.628434 0.00358216 0.463176
201 2 0.273695 0.751388 0.229878
202 2 0.683732 0.681583 0.354978
203 2 0.94578 0.7567 0.255882
204 2 0.575965 0.667012 0.477371
205 2 0.122924 0.0307941 0.258937
206 2 0.388965 0.739394 0.154324
207 2 0.0088261 0.730739 0.668192
208 2 0.125502 0.180159 0.814212
209 2 0.350259 0.215636 0.720526
210 2 0.950472 0.251502 0.499373
211 2 0.595694 0.359593 0.399782
212 1 0.619159 0.142886 0.859256
213 2 0.888719 0.424635 0.418785
214 2 0.934649 0.0507235 0.148941
215 2 0.333021 0.0191268 0.175794
216 2 0.396317 0.992052 0.561061
217 2 0.0284669 0.691664 0.487662
218 2 0.468827 0.288176 0.679689
219 2 0.271212 0.0105393 0.123947
220 2 0.207282 0.320657 0.0323949
221 2 0.674155 0.94773 0.278463
222 2 0.962702 0.714756 0.533709
223 2 0.2958 0.713384 0.125153
224 2 0.969517 0.462402 0.011342
225 1 0.957258 0.0853809 0.0213347
226 2 0.495028 0.290406 0.382168
227 2 0.969353 0.383666 0.035688
228 2 0.621148 0.579274 0.657975
229 2 0.660756 0.927799 0.554366
230 1 0.149219 0.365441 0.281753
231 2 0.339937 0.121556 0.140666
232 2 0.21439 0.454657 0.784471
233 1 0.0931625 0.78766 0.57342
234 2 0.51352 0.0857201 0.660521
235 2 0.609098 0.994186 0.96081
236 2 0.719264 0.855138 0.607786
237 2 0.561083 0.636318 0.796572
238 1 0.473649 0.3911 0.760822
239 1 0.80706 0.83162 0.248702
240 2 0.652332 0.798102 0.166995
241 2 0.690981 0.975335 0.324368
242 1 0.860174 0.227495 0.997763
243 1 0.501269 0.00110261 0.46236
244 2 0.727824 0.28787 0.131577
245 2 0.198511 0.420949 0.65788
246 1 0.358007 0.514763 0.690455
247 2 0.517013 0.290712 0.650346
248 2 0.831385 0.129715 0.492554
249 2 0.810366 0.531883 0.97679
250 2 0.897135 0.124733 0.542393
251 2 0.761857 0.239812 0.342104
252 2 0.701098 0.487335 0.317756
253 2 0.637891 0.187904 0.333209
254 2 0.201718 0.619315 0.591272
255 2 0.863224 0.126289 0.694336
256 2 0.373791 0.204714 0.628212
257 2 0.715749 0.0733858 0.583711
258 2 0.601236 0.942043 0.977062
259 1 0.468709 0.425592 0.523745
260 2 0.933252 0.128685 0.529339
261 1 0.915692 0.250169 0.379931
262 2 0.406077 0.816646 0.764844
263 2 0.204824 0.626822 0.908944
264 2 0.316901 0.598209 0.928434
265 1 0.0966962 0.492445 0.124038
266 2 0.561704 0.15462 0.591962
267 2 0.291083 0.416792 0.363961
268 1 0.424001 0.625493 0.633862
269 1 0.485778 0.445003 0.618533
270 2 0.984125 0.717639 0.744456
271 2 0.593612 0.404523 0.57696
272 2 0.0182315 0.855908 0.667575
273 1 0.7884 0.466407 0.761379
274 2 0.99885 0.0408398 0.473018
275 2 0.9707 0.660509 0.220996
276 2 0.194563 0.0683052 0.718407
277 2 0.436689 0.457455 0.989947
278 2 0.481384 0.447876 0.708818
279 2 0.552265 0.361558 0.918287
280 1 0.277318 0.0901362 0.418129
281 2 0.412301 0.247501 0.509019
282 2 0.65983 0.570614 0.590102
283 2 0.68826 0.318423 0.878614
284 1 0.811013 0.219475 0.249619
285 2 0.0105929 0.765014 0.163852
286 2 0.546651 0.609078 0.408514
287 1 0.597952 0.635177 0.518689
288 2 0.279093 0.866591 0.206602
289 2 0.482708 0.644856 0.607688
290 2 0.0056576 0.617742 0.765622
291 2 0.918664 0.433182 0.214372
292 2 0.816522 0.468581 0.610578
293 2 0.527764 0.487591 0.300196
294 2 0.273449 0.577191 0.439232
295 2 0.687386 0.112711 0.959342
296 2 0.89341 0.400323 0.214644
297 2 0.282094 0.167311 0.26049
298 2 0.759992 0.435548 0.460584
299 1 0.522911 0.425989 0.304343
300 2 0.348072 0.652973 0.00683896
301 2 0.632412 0.0262054 0.592945
302 2 0.135148 0.456551 0.676884
303 2 0.0403435 0.522948 0.241818
304 1 0.22457 0.445634 0.136174
305 2 0.280197 0.997621 0.058531
306 2 0.921426 0.643723 0.603276
307 2 0.333421 0.493467 0.749201
308 2 0.588787 0.313083 0.665884
309 2 0.664304 0.711576 0.58222
310 2 0.602218 0.852275 0.698816
311 2 0.72322 0.288801 0.694671
312 2 0.867074 0.193822 0.28311
313 2 0.544591 0.17489 0.211486
314 2 0.709105 0.0917136 0.878731
315 2 0.526312 0.942626 0.267403
316 2 0.615336 0.640788 0.812993
317 2 0.959552 0.732393 0.695798
318 2 0.411426 0.0151434 0.787527
319 2 0.849195 0.937225 0.925206
320 2 0.389687 0.781664 0.208457
321 2 0.692207 0.997248 0.112369
322 2 0.567214 0.64996 0.365377
323 2 0.548988 0.902545 0.7129
324 2 0.41517 0.877134 0.86566
325 2 0.0188495 0.725734 0.0330387
326 2 0.451275 0.977374 0.559487
327 2 0.483182 0.286704 0.980765
328 2 0.279059 0.281176 0.409894
329 1 0.922284 0.701857 0.284649
330 2 0.765729 0.267975 0.198859
331 2 0.927793 0.0322699 0.883582
332 2 0.110103 0.0473749 0.0538223
333 2 0.20321 0.968078 0.254521
334 2 0.134154 0.139814 0.472438
335 1 0.723075 0.842847 0.141051
336 2 0.734133 0.255616 0.292338
337 2 0.272971 0.428338 0.469343
338 1 0.768004 0.368256 0.746226
339 2 0.321263 0.882029 0.541105
340 2 0.471263 0.761399 0.580748
341 2 0.386865 0.964333 0.0551203
342 2 0.641225 0.823143 0.997498
343 2 0.891423 0.6869 0.480469
344 1 0.953262 0.944297 0.868012
345 1 0.487413 0.553309 0.563998
346 1 0.2941 0.0829679 0.0351455
347 1 0.867647 0.669864 0.107802
348 2 0.131636 0.505528 0.650796
349 2 0.646684 0.373275 0.714458
350 2 0.855983 0.408571 0.639384
351 2 0.905388 0.988756 0.941892
352 2 0.323296 0.289486 0.13235
353 1 0.107772 0.683118 0.285853
354 1 0.980421 0.555809 0.956103
355 2 0.587049 0.845582 0.557701
356 2 0.612858 0.511854 0.0614007
357 2 0.313457 0.365619 0.855194
358 2 0.0321107 0.194966 0.80968
359 2 0.415695 0.961892 0.51858
360 2 0.0466858 0.0143494 0.0805607
361 1 0.0359763 0.611366 0.133472
362 2 0.00122781 0.250666 0.0994322
363 1 0.318895 0.7101 0.68161
364 2 0.749776 0.992739 0.033292
365 2 0.942198 0.238538 0.806152
366 2 0.0520659 0.201523 0.756877
367 1 0.555253 0.979837 0.418676
368 1 0.737774 0.754655 0.871832
369 2 0.778309 0.0332083 0.231598
370 2 0.217928 0.159905 0.559699
371 2 0.13293 0.493636 0.707492
372 1 0.711026 0.204882 0.465403
373 2 0.467693 0.882999 0.556867
374 2 0.43339 0.772107 0.200961
375 2 0.196591 0.512279 0.80087
376 2 0.958337 0.176595 0.543533
377 2 0.533198 0.615146 0.487165
378 2 0.71366 0.520749 0.0243895
379 2 0.538462 0.455741 0.263588
380 2 0.82059 0.379634 0.0949765
381 2 0.561728 0.72854 0.503437
382 2 0.221072 0.422159 0.710911
383 2 0.964024 0.111862 0.524528
384 1 0.786154 0.940518 0.304859
385 2 0.551516 0.297416 0.834471
386 2 0.490441 0.486619 0.0206845
387 1 0.678554 0.97123 0.836037
388 2 0.917818 0.342278 0.687025
389 2 0.638086 0.542201 0.701134
390 2 0.593127 0.40562 0.639105
391 2 0.0845718 0.970885 0.568085
392 1 0.23794 0.531091 0.630394
393 2 0.493929 0.549199 0.844969
394 2 0.723481 0.678063 0.511329
395 2 0.866811 0.566424 0.0913593
396 2 0.579889 0.913207 0.0222429
397 2 0.354347 0.616524 0.514168
398 1 0.757561 0.474396 0.118658
399 1 0.552098 0.297631 0.551241
400 1 0.941075 0.223811 0.926958
401 2 0.127247 0.616545 0.973796
402 2 0.496541 0.177235 0.0315193
403 2 0.148649 0.740705 0.484319
404 2 0.66612 0.639663 0.0452834
405 2 0.613681 0.16496 0.287723
406 2 0.287651 0.776536 0.91162
407 2 0.868198 0.891097 0.0424148
408 2 0.175248 0.522004 0.963533
409 2 0.92608 0.79555 0.482345
410 2 0.294213 0.552373 0.337733
411 2 0.379143 0.921719 0.194774
412 2 0.152544 0.810586 0.609381
413 2 0.959672 0.396464 0.475169
414 2 0.723243 0.393244 0.783063
415 2 0.384712 0.745962 0.589652
416 1 0.418976 0.603214 0.452749
417 2 0.633584 0.412665 0.107479
418 2 0.718305 0.874633 0.609209
419 2 0.0284671 0.194897 0.938245
420 2 0.574968 0.532427 0.506282
421 1 0.439941 0.501087 0.610122
422 1 0.312904 0.84701 0.454909
423 2 0.422789 0.132021 0.759336
424 2 0.143368 0.291531 0.0497869
425 1 0.292284 0.582026 0.543882
426 2 0.279855 0.779972 0.528248
427 2 0.179968 0.918113 0.956547
428 2 0.944683 0.825059 0.419596
429 2 0.18174 0.145526 0.181004
430 2 0.0680423 0.759129 0.990307
431 2 0.722155 0.138907 0.161455
432 1 0.460335 0.265041 0.159501
433 2 0.608234 0.336129 0.102779
434 1 0.250341 0.515109 0.425041
435 2 0.573914 0.818442 0.388407
436 2 0.0166913 0.396645 0.62035
437 2 0.609437 0.779547 0.956798
438 2 0.894326 0.112072 0.794225
439 1 0.613348 0.716957 0.524903
440 2 0.377864 0.60808 0.981611
441 1 0.891502 0.476598 0.597881
442 1 0.317356 0.757238 0.184918
443 1 0.377773 0.970669 0.79196
444 2 0.60897 0.597691 0.447552
445 2 0.810976 0.874441 0.151323
446 2 0.510327 0.249888 0.403676
447 2 0.347398 0.580256 0.527703
448 2 0.608528 0.807291 0.570137
449 1 0.567199 0.214132 0.543329
450 2 0.300206 0.628746 0.761034
451 2 0.583257 0.376693 0.353836
452 2 0.279121 0.870843 0.890658
453 1 0.0677257 0.189739 0.807903
454 2 0.370956 0.0532898 0.697484
455 2 0.0447031 0.473114 0.285946
456 2 0.85562 0.758981 0.982111
457 2 0.619868 0.00449561 0.0514473
458 2 0.564806 0.618314 0.343048
459 2 0.382107 0.673289 0.522788
460 2 0.849751 0.617831 0.244402
461 2 0.42236 0.554015 0.668091
462 2 0.787892 0.382848 0.433794
463 1 0.256621 0.432072 0.742965
464 2 0.371475 0.735775 0.233257
465 2 0.134053 0.135946 0.507835
466 2 0.701222 0.468039 0.634761
467 1 0.620224 0.109229 0.594364
468 2 0.122278 0.698161 0.995348
469 2 0.106289 0.568369 0.396061
470 2 0.483389 0.749343 0.89354
471 2 0.155042 0.74929 0.272264
472 2 0.349579 0.729014 0.643672
473 1 0.173909 0.474329 0.758638
474 1 0.00840694 0.936318 0.693942
475 1 0.20726 0.771342 0.903804
476 2 0.922871 0.929801 0.617698
477 2 0.622699 0.229513 0.868761
478 2 0.250887 0.380939 0.742601
479 2 0.791915 0.479505 0.897268
480 2 0.207335 0.984019 0.619008
481 2 0.394521 0.603025 0.914273
482 2 0.844786 0.057503 0.32598
483 2 0.58489 0.318727 0.235824
484 1 0.500779 0.345844 0.662828
485 1 0.706906 0.36768 0.387523
486 2 0.148011 0.844827 0.00368588
487 2 0.791845 0.34516 0.456068
488 2 0.579887 0.602626 0.887099
489 2 0.0387618 0.560401 0.322816
490 2 0.354041 0.938709 0.56826
491 2 0.183846 0.484463 0.716522
492 2 0.923187 0.100362 0.664076
493 2 0.806444 0.688177 0.264475
494 2 0.373996 0.818038 0.832393
495 2 0.407428 0.0571692 0.661015
496 2 0.295563 0.75877 0.40586
497 2 0.682607 0.192018 0.301109
498 1 0.640654 0.868931 0.458343
499 2 0.253468 0.260456 0.569551
500 2 0.743321 0.700346 0.642561
501 1 0.531911 0.431226 0.239293
502 2 0.948705 0.192872 0.123968
503 2 0.579907 0.90768 0.70921
504 1 0.746504 0.98196 0.808833
505 2 0.810742 0.554416 0.138319
506 2 0.382139 0.924476 0.140076
507 2 0.686059 0.720985 0.94937
508 2 0.298889 0.00821058 0.185592
509 1 0.90486 0.0984699 0.737767
510 2 0.751773 0.226499 0.0337663
511 2 0.94035 0.152306 0.989507
512 2 0.240289 0.213662 0.757098
513 1 0.954082 0.306403 0.687125
514 2 0.784583 0.268098 0.627981
515 1 0.566755 0.368438 0.68082
516 2 0.48748 0.92549 0.853163
517 1 0.665842 0.614792 0.770069
518 2 0.818304 0.987191 0.213421
519 2 0.0589118 0.460323 0.687898
520 2 0.0757884 0.724634 0.489349
521 2 0.0248279 0.0448402 0.538092
522 2 0.474068 0.450439 0.565874
523 2 0.162695 0.169617 0.682603
524 2 0.554866 0.517424 0.919404
525 2 0.148097 0.633302 0.90101
526 2 0.324686 0.4705 0.00923849
527 2 0.328842 0.898918 0.992554
528 1 0.700572 0.632861 0.124621
529 2 0.185897 0.0204212 0.237705
530 2 0.347149 0.830493 0.685026
531 2 0.988997 0.893946 0.860408
532 2 0.0043869 0.0166164 0.38725
533 2 0.0925688 0.0822997 0.555646
534 1 0.0810261 0.489446 0.849817
535 2 0.870426 0.18548 0.509157
536 1 0.124857 0.645053 0.0286324
537 1 0.239275 0.603349 0.233811
538 2 0.0659069 0.00697963 0.280706
539 2 0.695452 0.360127 0.763141
540 2 0.943305 0.130414 0.645333
541 1 0.557449 0.434493 0.643846
542 2 0.388782 0.653688 0.659987
543 1 0.0488526 0.87207 0.0764913
544 1 0.69213 0.842316 0.921729
545 2 0.0240708 0.928041 0.834917
546 2 0.590947 0.138666 0.45571
547 2 0.142811 0.761499 0.548673
548 2 0.604897 0.645095 0.687284
549 2 0.705057 0.294233 0.828539
550 2 0.665227 0.251622 0.340821
551 1 0.564485 0.429479 0.177552
552 2 0.292941 0.013055 0.882183
553 2 0.252022 0.360551 0.0568755
554 2 0.807525 0.289334 0.213679
555 1 0.101446 0.0765922 0.76372
556 2 0.351975 0.096799 0.415344
557 2 0.700131 0.784128 0.141019
558 1 0.422344 0.914254 0.0251299
559 2 0.102276 0.714271 0.48703
560 2 0.438289 0.552286 0.421638
561 2 0.5062 0.108916 0.104773
562 1 0.554745 0.507737 0.820588
563 2 0.372727 0.840548 0.0555118
564 2 0.673711 0.110821 0.219905
565 2 0.448048 0.44487 0.782601
566 2 0.73816 0.363824 0.97737
567 2 0.207635 0.909412 0.902872
568 2 0.73819 0.509344 0.630138
569 1 0.0182055 0.568366 0.101387
570 2 0.61384 0.968547 0.00746242
571 2 0.0276526 0.363816 0.685508
572 2 0.579212 0.420445 0.714919
573 2 0.706918 0.172517 0.856309
574 2 0.597063 0.295391 0.0448873
575 1 0.840298 0.432277 0.92725
576 2 0.28597 0.940593 0.210763
577 2 0.989401 0.596312 0.741161
578 1 0.514078 0.527621 0.519627
579 2 0.946933 0.200224 0.597822
580 1 0.259288 0.791463 0.829733
581 2 0.88253 0.0753104 0.621801
582 2 0.441684 0.390442 0.389006
583 1 0.601959 0.57274 0.547975
584 2 0.337291 0.434135 0.296468
585 1 0.878973 0.128845 0.259964
586 2 0.761835 0.804211 0.849681
587 2 0.093957 0.333226 0.00686216
588 2 0.638612 0.494722 0.397375
589 1 0.0616607 0.674658 0.86698
590 1 0.864987 0.257895 0.104036
591 1 0.761308 0.523373 0.750941
592 2 0.318406 0.842431 0.82662
593 2 0.462893 0.605786 0.217753
594 1 0.905233 0.359891 0.870579
595 1 0.624759 0.0927653 0.692791
596 2 0.150121 0.996394 0.0428742
597 1 0.633133 0.0355961 0.146951
598 2 0.527361 0.429703 0.80247
599 2 0.765687 0.387905 0.494033
600 2 0.72039 0.8568 0.561476
601 2 0.387428 0.618005 0.367652
602 1 0.569062 0.909827 0.855163
603 2 0.163425 0.0811002 0.424763
604 1 0.236399 0.728549 0.0592498
605 2 0.367136 0.350346 0.281548
606 2 0.100067 0.510545 0.67352
607 1 0.501799 0.953305 0.0021481
608 2 0.508354 0.283819 0.683033
609 2 0.406999 0.158599 0.393083
610 2 0.461589 0.373288 0.302464
611 2 0.0797887 0.498292 0.75903
612 1 0.609011 0.0383049 0.646656
613 2 0.464723 0.0983362 0.526559
614 1 0.534549 0.0745592 0.568957
615 2 0.15693 0.256992 0.959883
616 1 0.0190472 0.678075 0.0631015
617 2 0.366005 0.455734 0.332879
618 2 0.67103 0.073144 0.140438
619 2 0.476737 0.041182 0.963875
620 2 0.53043 0.871478 0.640874
621 2 0.161496 0.719519 0.677029
622 2 0.565611 0.43502 0.791594
623 1 0.271941 0.0129742 0.496018
624 2 0.521933 0.574227 0.57573
625 2 0.654837 0.98205 0.419822
626 2 0.287223 0.696332 0.0646244
627 2 0.300257 0.794035 0.212034
628 2 0.23495 0.180639 0.963218
629 2 0.986083 0.162554 0.145262
630 1 0.351606 0.304919 0.716785
631 2 0.475424 0.850197 0.20335
632 2 0.0271287 0.396235 0.550952
633 2 0.608354 0.700472 0.57249
634 2 0.493951 0.487943 0.591413
635 2 0.296903 0.718883 0.00584248
636 2 0.361431 0.0142341 0.815945
637 2 0.458663 0.361888 0.662709
638 1 0.206944 0.174256 0.754914
639 2 0.918698 0.263961 0.795463
640 2 0.330196 0.11055 0.59692
641 2 0.161534 0.698676 0.606702
642 2 0.812635 0.426004 0.623285
643 2 0.285864 0.66175 0.853465
644 2 0.204439 0.407066 0.603387
645 1 0.586631 0.753006 0.98654
646 2 0.811565 0.361902 0.633591
647 1 0.52406 0.468437 0.512441
648 2 0.670622 0.348217 0.117299
649 2 0.319926 0.685787 0.739837
650 2 0.643179 0.975633 0.364528
651 2 0.366875 0.461588 0.277715
652 2 0.351634 0.971463 0.471172
653 2 0.715791 0.901719 0.243875
654 1 0.410495 0.6947 0.530553
655 2 0.270586 0.551223 0.936815
656 2 0.543234 0.0414474 0.433676
657 2 0.120328 0.801937 0.40454
658 2 0.549902 0.250551 0.637618
659 2 0.432661 0.416644 0.987179
660 2 0.392761 0.777754 0.828855
661 1 0.996275 0.224327 0.85832
662 2 0.151897 0.619057 0.0660835
663 2 0.472831 0.159891 0.68488
664 1 0.928041 0.0693758 0.614052
665 2 0.469903 0.342728 0.321403
666 2 0.0803859 0.40995 0.662325
667 2 0.604591 0.348675 0.516812
668 2 0.718836 0.121685 0.00983809
669 2 0.137071 0.0868587 0.784773
670 1 0.306438 0.419202 0.751227
671 2 0.221963 0.751765 0.852887
672 1 0.565404 0.564147 0.434928
673 2 0.727838 0.193105 0.115861
674 2 0.738904 0.341782 0.669653
675 2 0.542513 0.815766 0.321354
676 1 0.102162 0.996383 0.454495
677 2 0.866025 0.317394 0.0525079
678 2 0.0891797 0.938149 0.712713
679 1 0.936712 0.551961 0.26334
680 2 0.382332 0.484892 0.30806
681 1 0.719338 0.270064 0.0806336
682 1 0.320167 0.736744 0.278626
683 2 0.0693163 0.225942 0.860589
684 2 0.288049 0.97822 0.921595
685 2 0.290583 0.592998 0.60993
686 2 0.315563 0.763229 0.773541
687 1 0.592911 0.347257 0.739265
688 2 0.701399 0.247585 0.889223
689 2 0.524125 0.0229947 0.508124
690 2 0.374325 0.0120275 0.36234
691 2 0.746732 0.869079 0.805055
692 1 0.160389 0.664773 0.548928
693 2 0.670264 0.270171 0.123494
694 2 0.647035 0.3985 0.071258
695 1 0.250629 0.180029 0.0574544
696 2 0.0568444 0.810406 0.12261
697 2 0.977671 0.792735 0.484307
698 2 0.610246 0.544238 0.852885
699 2 0.80248 0.225331 0.480858
700 1 0.398041 0.589507 0.754788
701 2 0.91803 0.154072 0.725368
702 2 0.652645 0.0958569 0.109144
703 2 0.512482 0.991003 0.623979
704 2 0.349067 0.457975 0.686492
705 2 0.907654 0.265939 0.93571
706 2 0.159973 0.13346 0.77504
707 2 0.232677 0.608493 0.588957
708 1 0.406168 0.972408 0.719106
709 2 0.258612 0.593617 0.36766
710 2 0.318951 0.79163 0.873046
711 2 0.711972 0.945516 0.93091
712 1 0.81211 0.277788 0.0205369
713 2 0.594635 0.410449 0.761497
714 1 0.684044 0.899848 0.906822
715 2 0.495041 0.901574 0.869974
716 1 0.653108 0.628544 0.516568
717 2 0.21949 0.179879 0.629083
718 2 0.696783 0.935542 0.6386
719 2 0.15905 0.74515 0.634393
720 2 0.179729 0.297836 0.0484467
721 2 0.295353 0.28599 0.880101
722 1 0.259797 0.720556 0.633243
723 2 0.477777 0.766273 0.180029
724 2 0.104093 0.717045 0.193117
725 2 0.815717 0.804362 0.00326898
726 2 0.0818904 0.123648 0.605017
727 1 0.417109 0.125663 0.616334
728 1 0.762463 0.687429 0.598201
729 1 0.689729 0.422701 0.721982
730 1 0.941801 0.656994 0.33991
731 2 0.628301 0.634527 0.435495
732 1 0.404073 0.920573 0.607952
733 2 0.892916 0.368587 0.72505
734 2 0.0720921 0.0915229 0.7989
735 2 0.971017 0.351134 0.679911
736 1 0.352379 0.561033 0.617908
737 2 0.9507 0.906247 0.949403
738 2 0.669035 0.36741 0.439747
739 2 0.415073 0.506511 0.167915
740 2 0.491836 0.108343 0.50013
741 2 0.204531 0.461434 0.49767
742 1 0.211571 0.695781 0.331208
743 2 0.806493 0.777234 0.178392
744 2 0.582625 0.105318 0.0439102
745 2 0.652926 0.484887 0.172132
746 1 0.949741 0.330218 0.986474
747 2 0.759734 0.841983 0.539934
748 2 0.196882 0.100603 0.536831
749 2 0.662624 0.589908 0.0195081
750 2 0.715794 0.688065 0.655817
751 2 0.549144 0.271787 0.420727
752 2 0.569562 0.49173 0.432481
753 2 0.0352687 0.500956 0.116261
754 2 0.412871 0.667037 0.828472
755 2 0.216939 0.0357064 0.00424969
756 2 0.725377 0.257946 0.24722
757 2 0.584843 0.110411 0.174958
758 2 0.982165 0.426137 0.136007
759 2 0.652958 0.229177 0.57578
760 1 0.335698 0.0897006 0.793923
761 2 0.715176 0.0956873 0.40241
762 2 0.143149 0.0787491 0.807626
763 1 0.629056 0.331692 0.823101
764 2 0.355593 0.940143 0.247776
765 2 0.209606 0.291323 0.742687
766 2 0.486263 0.717204 0.417149
767 2 0.441323 0.562857 0.168578
768 2 0.454673 0.587272 0.0274364
769 2 0.628079 0.662655 0.446603
770 2 0.613911 0.639935 0.58418
771 2 0.403732 0.201898 0.707359
772 2 0.688177 0.0638308 0.317467
773 1 0.250217 0.938963 0.943663
774 2 0.951322 0.575001 0.682254
775 2 0.938377 0.819768 0.620642
776 2 0.304594 0.0325677 0.0788885
777 1 0.692265 0.0387672 0.803236
778 2 0.360334 0.700178 0.545149
779 2 0.766359 0.927717 0.794667
780 1 0.0812117 0.706371 0.940366
781 2 0.0315523 0.463298 0.979667
782 2 0.959729 0.373047 0.739832
783 1 0.640504 0.521288 0.379513
784 2 0.629245 0.0265104 0.383589
785 2 0.588715 0.646432 0.630308
786 1 0.761645 0.132054 0.544575
787 2 0.305252 0.621049 0.428663
788 2 0.92711 0.0521587 0.827096
789 2 0.197352 0.219392 0.819336
790 2 0.549453 0.906764 0.819533
791 1 0.068227 0.10667 0.248919
792 2 0.277521 0.989992 0.235208
793 2 0.203675 0.677893 0.0854566
794 2 0.72717 0.041695 0.0824126
795 2 0.813654 0.867942 0.109702
796 2 0.388934 0.700945 0.0429862
797 2 0.160448 0.344438 0.954266
798 2 0.613732 0.169709 0.577585
799 2 0.229295 0.692566 0.0980161
800 2 0.649196 0.656537 0.606826
801 2 0.541181 0.545049 0.343246
802 2 0.0241376 0.358668 0.995032
803 2 0.0568855 0.0143347 0.302271
804 2 0.432456 0.341407 0.764436
805 2 0.941915 0.418909 0.438413
806 1 0.533459 0.798135 0.429259
807 2 0.941315 0.307911 0.574722
808 2 0.0586123 0.552657 0.215331
809 1 0.689973 0.820978 0.483031
810 2 0.497376 0.977701 0.390735
811 2 0.593976 0.521255 0.231542
812 2 0.437073 0.402647 0.863206
813 1 0.642865 0.409406 0.654792
814 2 0.147159 0.957732 0.206788
815 2 0.0188646 0.480352 0.128901
816 1 0.777408 0.813134 0.141387
817 1 0.426444 0.468715 0.682771
818 2 0.988246 0.0436217 0.796177
819 1 0.979584 0.704358 0.943183
820 1 0.602342 0.868104 0.381452
821 2 0.790334 0.561529 0.019523
822 2 0.711919 0.786557 0.0608507
823 1 0.459194 0.323548 0.268769
824 2 0.401034 0.0835088 0.743845
825 2 0.0834169 0.957537 0.200634
826 2 0.177581 0.838733 0.860473
827 1 0.279875 0.362942 0.514021
828 2 0.168983 0.457364 0.854596
829 2 0.742397 0.896777 0.512098
830 2 0.999208 0.0110145 0.791965
831 1 0.634289 0.274584 0.135731
832 2 0.625859 0.174354 0.45231
833 1 0.672821 0.311567 0.718273
834 2 0.698252 0.601475 0.27161
835 2 0.675937 0.128382 0.353857
836 2 0.77937 0.0751603 0.587616
837 2 0.885898 0.126113 0.0119611
838 2 0.969023 0.976854 0.159852
839 2 0.361211 0.881786 0.116358
840 2 0.0325312 0.537477 0.806774
841 2 0.604007 0.410402 0.612521
842 2 0.29793 0.738656 0.912141
843 2 0.536942 0.472961 0.642682
844 2 0.680056 0.639431 0.955831
845 2 0.0517828 0.672556 0.27062
846 2 0.567732 0.45499 0.671668
847 2 0.4128 0.342907 0.300917
848 2 0.952748 0.154857 0.564344
849 1 0.719902 0.101937 0.788181
850 2 0.225657 0.647816 0.759804
851 2 0.905264 0.336246 0.510104
852 2 0.166017 0.120727 0.00665383
853 1 0.202586 0.55271 0.761359
854 2 0.498976 0.888053 0.879984
855 2 0.918369 0.397714 0.733391
856 2 0.875345 0.187814 0.557912
857 2 0.547032 0.783387 0.0429897
858 2 0.39583 0.31491 0.625165
859 2 0.709214 0.965046 0.378795
860 2 0.0687507 0.168659 0.286303
861 2 0.973618 0.0227704 0.57512
862 2 0.677179 0.78735 0.624898
863 2 0.166391 0.908431 0.893011
864 2 0.558805 0.304009 0.103379
865 2 0.581528 0.860623 0.33516
866 2 0.06325 0.375287 0.865569
867 2 0.37339 0.292104 0.674078
868 2 0.961015 0.864417 0.517503
869 2 0.812189 0.95642 0.951463
870 2 0.983461 0.818398 0.850259
871 2 0.123879 0.887708 0.832757
872 2 0.870624 0.329774 0.602976
873 2 0.0912016 0.389625 0.740021
874 2 0.37929 0.457044 0.923272
875 2 0.756029 0.868072 0.0778852
876 2 0.707996 0.908512 0.871424
877 2 0.649534 0.873378 0.88134
878 2 0.647772 0.644901 0.582055
879 2 0.551543 0.397436 0.113003
880 2 0.324174 0.636825 0.488311
881 2 0.145423 0.261076 0.651035
882 1 0.882929 0.528711 0.66227
883 1 0.0307921 0.0309627 0.434754
884 2 0.262299 0.751572 0.207738
885 2 0.325481 0.221416 0.468184
886 2 0.524557 0.56393 0.968583
887 1 0.647332 0.0683571 0.0801915
888 2 0.561162 0.374687 0.620831
889 2 0.97847 0.0727384 0.926933
890 1 0.417194 0.463693 0.753766
891 2 0.425736 0.40686 0.830507
892 2 0.703366 0.208656 0.071562
893 2 0.704695 0.438063 0.49011
894 2 0.883833 0.872989 0.605505
895 1 0.629444 0.733483 0.809721
896 2 0.318651 0.680101 0.852343
897 2 0.0362474 0.717415 0.146045
898 2 0.141464 0.0784208 0.208324
899 2 0.112415 0.0426687 0.717292
900 2 0.230213 0.987092 0.0989004
901 2 0.505518 0.145065 0.694715
902 2 0.675546 0.48386 0.720791