ITEM: TIMESTEP
39200
ITEM: NUMBER OF ATOMS
1000
ITEM: BOX BOUNDS xy xz yz pp pp pp
0.0000000000000000e+00 1.3572088000000001e+01 0.0000000000000000e+00
0.0000000000000000e+00 1.3572088000000001e+01 0.0000000000000000e+00
0.0000000000000000e+00 1.3572088000000001e+01 0.0000000000000000e+00
ITEM: ATOMS id type xs ys zs
1 2 0.801154 0.719025 0.531621
2 2 0.126206 0.142756 0.510349
3 1 0.538524 0.22506 0.741124
4 2 0.200569 0.225624 0.1696
5 2 0.0390995 0.883384 0.514413
6 1 0.515925 0.90434 0.846042
7 2 0.561096 0.213244 0.811188
8 2 0.978255 0.253748 0.703907
9 2 0.717329 0.0462615 0.0622417
10 2 0.636386 0.945221 0.694084
11 2 0.0282248 0.273293 0.723303
12 2 0.26237 0.801984 0.837003
13 2 0.485454 0.385811 0.844201
14 1 0.638894 0.967197 0.0756933
15 2 0.701061 0.563517 0.55399
16 2 0.0236559 0.448748 0.98353
17 1 0.707143 0.541737 0.365875
18 2 0.187499 0.0217763 0.107818
19 2 0.955703 0.260241 0.784884
20 2 0.830424 0.234603 0.065987
21 2 0.606031 0.877271 0.749969
22 2 0.307014 0.340887 0.565109
23 2 0.262031 0.191313 0.543315
24 2 0.723064 0.42369 0.823023
25 1 0.303647 0.277718 0.607451
26 2 0.26999 0.25418 0.356673
27 2 0.50419 0.941417 0.62202
28 2 0.542852 0.954338 0.763937
29 2 0.222978 0.854222 0.835453
30 2 0.600473 0.369839 0.378925
31 1 0.497055 0.919881 0.292727
32 1 0.907666 0.204796 0.0712901
33 1 0.744777 0.991459 0.63939
34 2 0.634368 0.595959 0.0389156
35 2 0.0380073 0.508437 0.691407
36 1 0.544874 0.969374 0.630286
37 2 0.676823 0.136978 0.647959
38 2 0.557179 0.967715 0.846622
39 2 0.790504 0.157212 0.387323
40 2 0.0059489 0.834723 0.56826
41 2 0.364164 0.401736 0.75965
42 2 0.503738 0.642946 0.578744
43 2 0.756595 0.689526 0.950559
44 2 0.955539 0.289696 0.254412
45 2 0.0527257 0.141404 0.168906
46 1 0.129317 0.580632 0.338868
47 2 0.656014 0.252175 0.871991
48 2 0.106415 0.229074 0.666461
49 2 0.446995 0.862558 0.484248
50 2 0.39539 0.528842 0.0353454
51 2 0.285707 0.0189948 0.215618
52 2 0.344618 0.711577 0.296683
53 2 0.892381 0.68331 0.579402
54 2 0.558611 0.906448 0.799579
55 1 0.430134 0.928346 0.375457
56 1 0.381864 0.69 0.788852
57 2 0.357601 0.0831828 0.254085
58 2 0.989952 0.940496 0.118308
59 2 0.493832 0.65682 0.121519
60 2 0.708738 0.110658 0.826736
61 2 0.176201 0.551153 0.407083
62 2 0.321392 0.503014 0.0293384
63 2 0.844971 0.406932 0.288795
64 2 0.541887 0.0391997 0.334032
65 2 0.785149 0.548446 0.510366
66 1 0.474572 0.836977 0.990625
67 2 0.606259 0.747112 0.226228
68 2 0.52347 0.92355 0.672382
69 1 0.32359 0.177416 0.537858
70 2 0.707662 0.176298 0.812706
71 1 0.474282 0.976571 0.793053
72 2 0.192596 0.995075 0.976496
73 2 0.472437 0.0965926 0.0171152
74 2 0.263329 0.110388 0.13682
75 2 0.100307 0.693488 0.542356
76 2 0.893215 0.718068 0.622133
77 1 0.65924 0.777985 0.841759
78 2 0.931282 0.185247 0.623572
79 2 0.538604 0.631996 0.00458109
80 2 0.936164 0.327951 0.822302
81 2 0.561632 0.981782 0.71927
82 2 0.0671601 0.0148282 0.480876
83 2 0.253764 0.965065 0.673287
84 2 0.686484 0.270011 0.940153
85 1 0.829015 0.414358 0.0733815
86 2 0.460014 0.139421 0.062877
87 2 0.458579 0.243227 0.260503
88 2 0.353467 0.797451 0.116984
89 2 0.825892 0.167631 0.0805073
90 2 0.925563 0.363622 0.0757566
91 2 0.243131 0.222948 0.600001
92 2 0.407271 0.865192 0.0291743
93 2 0.928023 0.714848 0.411077
94 1 0.532572 0.782716 0.267361
95 2 0.538854 0.98337 0.474279
96 2 0.187512 0.969099 0.0742482
97 2 0.865005 0.919561 0.0493322
98 2 0.756805 0.727653 0.743431
99 2 0.706675 0.393497 0.727889
100 2 0.26591 0.090113 0.172981
101 1 0.393088 0.789966 0.831155
102 2 0.415178 0.178438 0.131351
103 2 0.596195 0.515211 0.515224
104 2 0.69859 0.603813 0.841603
105 2 0.375669 0.740498 0.820685
106 2 0.0737088 0.225292 0.554276
107 2 0.358643 0.424124 0.712052
108 2 0.841011 0.667824 0.534529
109 2 0.670216 0.607181 0.5363
110 2 0.530702 0.928681 0.438648
111 2 0.505395 0.373899 0.571762
112 1 0.0799025 0.260253 0.59231
113 1 0.994716 0.514952 0.291813
114 2 0.798158 0.544933 0.545732
115 2 0.441099 0.13288 0.867364
116 2 0.289355 0.945037 0.372752
117 2 0.215216 0.205953 0.405217
118 2 0.791006 0.651437 0.532789
119 2 0.488643 0.709875 0.312443
120 2 0.80661 0.488481 0.484173
121 2 0.733122 0.384991 0.702911
122 2 0.0467889 0.939946 0.610177
123 2 0.504232 0.691318 0.13796
124 2 0.906048 0.398184 0.602586
125 1 0.00447714 0.0579338 0.00110427
126 2 0.995944 0.396763 0.706872
127 2 0.805399 0.495839 0.589243
128 2 0.574798 0.527173 0.53202
129 1 0.145016 0.00823388 0.530387
130 2 0.304611 0.334428 0.029577
131 2 0.218561 0.7473 0.02193
132 2 0.209845 0.674882 0.154661
133 2 0.770446 0.509301 0.514087
134 2 0.184372 0.32638 0.541257
135 2 0.587755 0.0130018 0.729149
136 2 0.363055 0.749424 0.082897
137 1 0.330138 0.133715 0.885081
138 2 0.539148 0.981453 0.767551
139 2 0.842126 0.882142 0.0899531
140 1 0.708299 0.497712 0.754919
141 2 0.298261 0.131501 0.57509
142 2 0.497286 0.811055 0.706646
143 2 0.528651 0.342113 0.203172
144 2 0.519605 0.0683794 0.00838219
145 2 0.507379 0.958135 0.0461992
146 2 0.272771 0.644763 0.824305
147 1 0.626488 0.983471 0.743452
148 1 0.551238 0.548118 0.496996
149 2 0.872617 0.776612 0.638889
150 1 0.567138 0.707535 0.599878
151 2 0.433047 0.703691 0.4922
152 2 0.446819 0.978893 0.71288
153 1 0.0443575 0.563617 0.620003
154 1 0.399818 0.957781 0.865217
155 2 0.128966 0.479214 0.377764
156 2 0.776725 0.438023 0.356092
157 2 0.631752 0.704544 0.0583107
158 2 0.507768 0.251785 0.527623
159 2 0.333852 0.428306 0.379383
160 2 0.870867 0.705155 0.436953
161 2 0.749658 0.0808267 0.902405
162 2 0.613767 0.963264 0.779305
163 2 0.264204 0.356066 0.570815
164 2 0.24857 0.314693 0.606751
165 2 0.00778917 0.961872 0.61695
166 2 0.991494 0.901795 0.572093
167 2 0.127978 0.692106 0.867491
168 2 0.411499 0.0172899 0.648892
169 2 0.155518 0.543434 0.386416
170 2 0.798078 0.203578 0.532005
171 2 0.45374 0.472135 0.776722
172 2 0.792982 0.608318 0.378803
173 1 0.713081 0.538079 0.664664
174 2 0.195803 0.804263 0.966393
175 2 0.896761 0.904043 0.318399
176 2 0.870776 0.0817386 0.60255
177 1 0.18612 0.72765 0.793464
178 2 0.364294 0.51314 0.608443
179 2 0.81903 0.418423 0.886503
180 2 0.79519 0.476062 0.626797
181 2 0.78794 0.238217 0.0246983
182 2 0.414353 0.775212 0.366437
183 2 0.0573076 0.493338 0.253697
184 2 0.899835 0.842594 0.243763
185 2 0.998295 0.825395 0.325562
186 2 0.703469 0.954814 0.0779485
187 2 0.226386 0.771886 0.923161
188 1 0.768326 0.653898 0.832217
189 2 0.259256 0.317274 0.854782
190 2 0.836674 0.933465 0.152005
191 2 0.84198 0.192783 0.95972
192 2 0.670294 0.852421 0.991614
193 2 0.841585 0.914 0.961577
194 2 0.70356 0.116182 0.582286
195 2 0.319621 0.147377 0.329949
196 2 0.0995837 0.466011 0.861552
197 2 0.16332 0.0883389 0.104856
198 2 0.792269 0.926371 0.693521
199 2 0.280075 0.856718 0.239399
200 1 0.906043 0.576722 0.444023
201 2 0.320836 0.490804 0.50708
202 2 0.041655 0.836219 0.771406
203 2 0.648424 0.0103161 0.510738
204 2 0.934148 0.286397 0.818173
205 2 0.742183 0.0814321 0.855105
206 2 0.835018 0.633048 0.297097
207 2 0.0565208 0.355341 0.96777
208 2 0.938169 0.428029 0.249405
209 2 0.128177 0.828596 0.175072
210 2 0.986377 0.97692 0.55004
211 2 0.224289 0.456198 0.85779
212 1 0.629444 0.977352 0.640994
213 2 0.624083 0.375844 0.713627
214 2 0.7895 0.428337 0.559713
215 2 0.751915 0.731964 0.336221
216 2 0.88188 0.903216 0.537717
217 2 0.738911 0.933943 0.314812
218 2 0.0401774 0.982648 0.0974041
219 2 0.760805 0.771632 0.0229079
220 2 0.641863 0.595214 0.432373
221 2 0.041839 0.195865 0.687889
222 2 0.727243 0.356476 0.351636
223 2 0.118491 0.306165 0.654222
224 2 0.109005 0.185948 0.0260923
225 1 0.453799 0.30693 0.248902
226 2 0.193922 0.034288 0.600324
227 2 0.301545 0.0233924 0.686855
228 2 0.948631 0.962744 0.596921
229 2 0.201645 0.91537 0.539959
230 1 0.579977 0.556984 0.578577
231 2 0.3445 0.281936 0.951183
232 2 0.940958 0.297523 0.414947
233 1 0.194141 0.714057 0.0259245
234 2 0.374353 0.715493 0.378613
235 2 0.926631 0.520407 0.539892
236 2 0.376005 0.163567 0.508719
237 2 0.0441649 0.564343 0.215858
238 1 0.958259 0.462459 0.212535
239 1 0.402452 0.705928 0.699349
240 2 0.756732 0.681633 0.73605
241 2 0.349451 0.247646 0.689709
242 1 0.301621 0.825208 0.182714
243 1 0.70815 0.515664 0.42694
244 2 0.069493 0.757265 0.816663
245 2 0.360524 0.856184 0.0374325
246 1 0.896028 0.0445382 0.517993
247 2 0.441379 0.998425 0.608653
248 2 0.857631 0.985101 0.424128
249 2 0.698928 0.697886 0.178922
250 2 0.697493 0.0972734 0.0669367
251 2 0.163623 0.0502389 0.58445
252 2 0.226236 0.556038 0.597337
253 2 0.143897 0.785892 0.700938
254 2 0.719578 0.0736382 0.336571
255 2 0.224195 0.616578 0.476856
256 2 0.601243 0.180156 0.733301
257 2 0.48076 0.253845 0.230699
258 2 0.780519 0.963688 0.913848
259 1 0.947773 0.808143 0.408711
260 2 0.9611 0.478644 0.272497
261 1 0.215189 0.424212 0.629765
262 2 0.872794 0.257674 0.314253
263 2 0.341481 0.35069 0.663321
264 2 0.798334 0.839026 0.997785
265 1 0.195462 0.983491 0.621365
266 2 0.0424057 0.127025 0.608524
267 2 0.732029 0.971439 0.58736
268 1 0.985085 0.113981 0.632432
269 1 0.970283 0.140721 0.444033
270 2 0.364502 0.551078 0.474784
271 2 0.03775 0.844665 0.873089
272 2 0.417756 0.252612 0.775482
273 1 0.602449 0.572975 0.537174
274 2 0.169637 0.384067 0.0753906
275 2 0.517865 0.984928 0.790008
276 2 0.817665 0.290632 0.555071
277 2 0.400206 0.385174 0.774478
278 2 0.592908 0.194522 0.27117
279 2 0.487631 0.0840215 0.958125
280 1 0.004516 0.598802 0.912551
281 2 0.197091 0.964253 0.370034
282 2 0.998629 0.497545 0.125348
283 2 0.370492 0.103163 0.999559
284 1 0.118286 0.756141 0.657317
285 2 0.984169 0.807392 0.909145
286 2 0.499238 0.975807 0.771173
287 1 0.865536 0.946455 0.364731
288 2 0.555746 0.0221757 0.723996
289 2 0.472519 0.134161 0.055946
290 2 0.464493 0.665545 0.45941
291 2 0.172651 0.512716 0.718647
292 2 0.169802 0.109726 0.904657
293 2 0.367873 0.270027 0.229457
294 2 0.587382 0.645995 0.622736
295 2 0.727745 0.492658 0.585828
296 2 0.564258 0.598032 0.061456
297 2 0.48751 0.432224 0.387693
298 2 0.102811 0.462097 0.643013
299 1 0.568963 0.0928949 0.804983
300 2 0.562912 0.958774 0.693353
301 2 0.180774 0.449884 0.132789
302 2 0.153134 0.276248 0.288019
303 2 0.48358 0.402524 0.363734
304 1 0.922004 0.624397 0.960304
305 2 0.0495687 0.7357 0.463907
306 2 0.00575434 0.7017 0.882708
307 2 0.768558 0.797919 0.910271
308 2 0.601112 0.306222 0.317505
309 2 0.403704 0.558748 0.033947
310 2 0.0271836 0.155252 0.260499
311 2 0.474614 0.913694 0.964317
312 2 0.0109555 0.141923 0.65118
313 2 0.548213 0.994901 0.232632
314 2 0.888414 0.361952 0.231151
315 2 0.73094 0.564491 0.248208
316 2 0.889354 0.975908 0.027943
317 2 0.365014 0.223744 0.31473
318 2 0.847646 0.913162 0.908744
319 2 0.161809 0.0458844 0.694927
320 2 0.590295 0.613471 0.482683
321 2 0.608869 0.481572 0.50566
322 2 0.234064 0.274733 0.143734
323 2 0.207726 0.57371 0.0223441
324 2 0.264255 0.773614 0.25757
325 2 0.819043 0.437797 0.511365
326 2 0.772539 0.978647 0.696901
327 2 0.907171 0.375825 0.48718
328 2 0.727679 0.530255 0.509459
329 1 0.0467522 0.776639 0.758547
330 2 0.706382 0.603045 0.574128
331 2 0.848798 0.681422 0.890999
332 2 0.111252 0.951128 0.452697
333 2 0.885103 0.196004 0.0122594
334 2 0.539368 0.947898 0.858128
335 1 0.753487 0.168504 0.119988
336 2 0.354931 0.658083 0.749452
337 2 0.627749 0.96485 0.954373
338 1 0.643942 0.0862348 0.209255
339 2 0.831153 0.280016 0.868783
340 2 0.446057 0.951272 0.420725
341 2 0.185807 0.590431 0.599201
342 2 0.470786 0.734815 0.28343
343 2 0.217469 0.954923 0.103836
344 1 0.997288 0.936945 0.881527
345 1 0.733957 0.55238 0.597859
346 1 0.592837 0.0510267 0.859351
347 1 0.856937 0.864751 0.00785001
348 2 0.0609414 0.815603 0.822594
349 2 0.952811 0.0280228 0.212568
350 2 0.0714234 0.142581 0.411642
351 2 0.542576 0.688342 0.0539916
352 2 0.661943 0.579116 0.311999
353 1 0.774919 0.504145 0.475775
354 1 0.904818 0.343939 0.488462
355 2 0.756623 0.523341 0.525381
356 2 0.292162 0.785141 0.78044
357 2 0.245075 0.162587 0.578438
358 2 0.963594 0.253903 0.809028
359 2 0.859778 0.348894 0.438398
360 2 0.434456 0.977066 0.642418
361 1 0.598677 0.501391 0.54787
362 2 0.835271 0.808481 0.324662
363 1 0.868568 0.367958 0.113649
364 2 0.480982 0.0075261 0.820409
365 2 0.226097 0.762355 0.0476107
366 2 0.707906 0.872129 0.0254859
367 1 0.464363 0.695354 0.351061
368 1 0.926393 0.294513 0.894299
369 2 0.269321 0.428929 0.516213
370 2 0.757039 0.306596 0.723743
371 2 0.668542 0.568493 0.500499
372 1 0.197004 0.951396 0.454226
373 2 0.904824 0.0736813 0.959928
374 2 0.0707517 0.0725367 0.470202
375 2 0.0139133 0.824142 0.454433
376 2 0.0351385 0.812894 0.588647
377 2 0.541752 0.863546 0.218162
378 2 0.167953 0.792113 0.748787
379 2 0.189133 0.0594123 0.32205
380 2 0.644877 0.0784838 0.844577
381 2 0.099175 0.854676 0.443013
382 2 0.333566 0.267778 0.386433
383 2 0.114541 0.167002 0.494407
384 1 0.367642 0.460813 0.710444
385 2 0.0419897 0.272325 0.256337
386 2 0.840178 0.895893 0.561296
387 1 0.960784 0.616025 0.277124
388 2 0.611331 0.298561 0.750553
389 2 0.680137 0.591099 0.380026
390 2 0.0614888 0.189172 0.0895213
391 2 0.253392 0.44941 0.297129
392 1 0.659704 0.3781 0.280433
393 2 0.90915 0.217498 0.00217788
394 2 0.64008 0.249279 0.0443098
395 2 0.567007 0.911716 0.781192
396 2 0.497209 0.983896 0.726866
397 2 0.561013 0.564681 0.0661377
398 1 0.760985 0.258024 0.927337
399 1 0.726732 0.415045 0.370463
400 1 0.0561376 0.377467 0.53131
401 2 0.498996 0.94181 0.831169
402 2 0.854897 0.935103 0.99522
403 2 0.521226 0.977859 0.834892
404 2 0.821722 0.355665 0.848688
405 2 0.923075 0.234362 0.165088
406 2 0.641933 0.134875 0.595932
407 2 0.52168 0.752467 0.387916
408 2 0.755728 0.427987 0.210895
409 2 0.451838 0.966041 0.892603
410 2 0.951919 0.81899 0.193808
411 2 0.287581 0.135224 0.427093
412 2 0.40182 0.740682 0.601942
413 2 0.0485224 0.556633 0.186551
414 2 0.316106 0.416075 0.630189
415 2 0.297758 0.31027 0.975514
416 1 0.854565 0.490882 0.566979
417 2 0.321298 0.751262 0.163614
418 2 0.387761 0.518614 0.429218
419 2 0.372544 0.99853 0.0732482
420 2 0.676991 0.17592 0.340456
421 1 0.139992 0.402646 0.595256
422 1 0.883553 0.73125 0.395974
423 2 0.656401 0.253808 0.935991
424 2 0.288076 0.364842 0.404504
425 1 0.918392 0.543067 0.346574
426 2 0.406144 0.849599 0.0653681
427 2 0.752303 0.446739 0.707272
428 2 0.15128 0.284943 0.494155
429 2 0.881612 0.0304131 0.743688
430 2 0.404149 0.154517 0.132305
431 2 0.820497 0.536864 0.566402
432 1 0.120078 0.221319 0.624801
433 2 0.678208 0.165072 0.426753
434 1 0.797537 0.659218 0.956586
435 2 0.51301 0.644717 0.877909
436 2 0.885893 0.752385 0.564275
437 2 0.753433 0.35294 0.368464
438 2 0.947169 0.760764 0.901243
439 1 0.259214 0.621276 0.307821
440 2 0.555254 0.0620403 0.360704
441 1 0.0675135 0.443289 0.78457
442 1 0.662439 0.518209 0.512986
443 1 0.559128 0.695196 0.395473
444 2 0.715968 0.547401 0.505938
445 2 0.393419 0.480467 0.0270857
446 2 0.577174 0.544839 0.68623
447 2 0.207559 0.489356 0.0823531
448 2 0.948797 0.496238 0.340344
449 1 0.611051 0.139224 0.718227
450 2 0.00896969 0.265763 0.321778
451 2 0.555134 0.982123 0.744439
452 2 0.126481 0.703495 0.275341
453 1 0.4852 0.263296 0.956307
454 2 0.576406 0.520556 0.358086
455 2 0.327326 0.635757 0.827147
456 2 0.0190025 0.236843 0.656363
457 2 0.581499 0.956987 0.78544
458 2 0.700084 0.757595 0.872642
459 2 0.289475 0.0918079 0.226085
460 2 0.820027 0.589525 0.539021
461 2 0.186531 0.245145 0.478905
462 2 0.657479 0.706909 0.130584
463 1 0.961401 0.325628 0.733065
464 2 0.597174 0.537448 0.173995
465 2 0.48085 0.779465 0.883887
466 2 0.608608 0.624379 0.0266595
467 1 0.594431 0.373145 0.229882
468 2 0.577949 0.253462 0.737314
469 2 0.454655 0.742529 0.932619
470 2 0.0924618 0.0360773 0.337257
471 2 0.0401316 0.31297 0.269709
472 2 0.451294 0.770139 0.316961
473 1 0.67197 0.426646 0.577482
474 1 0.876569 0.437169 0.38598
475 1 0.922635 0.918739 0.0397544
476 2 0.842182 0.803763 0.121868
477 2 0.68923 0.0414798 0.752815
478 2 0.342645 0.122543 0.298841
479 2 0.293961 0.417264 0.137136
480 2 0.49622 0.743028 0.205879
481 2 0.248228 0.112464 0.21109
482 2 0.0698507 0.839648 0.142556
483 2 0.886089 0.143438 0.579513
484 1 0.543702 0.220083 0.464903
485 1 0.783031 0.434976 0.156024
486 2 0.592247 0.766362 0.073436
487 2 0.614087 0.222463 0.104638
488 2 0.679024 0.390804 0.429619
489 2 0.577163 0.09269 0.425493
490 2 0.143245 0.538248 0.0556697
491 2 0.760978 0.55573 0.476305
492 2 0.0760069 0.623224 0.668085
493 2 0.714869 0.882885 0.985944
494 2 0.71914 0.266143 0.868699
495 2 0.748398 0.794517 0.20297
496 2 0.661955 0.414472 0.422294
497 2 0.266707 0.441024 0.558585
498 1 0.792562 0.209365 0.887241
499 2 0.87412 0.279553 0.0769807
500 2 0.207944 0.0644815 0.621112
501 1 0.642684 0.514286 0.464531
502 2 0.719865 0.751283 0.301895
503 2 0.717687 0.510097 0.491329
504 1 0.680673 0.907162 0.86954
505 2 0.806772 0.892275 0.348292
506 2 0.757404 0.201295 0.987196
507 2 0.126053 0.582221 0.802753
508 2 0.302699 0.297803 0.95552
509 1 0.672668 0.31498 0.885927
510 2 0.232978 0.707274 0.73742
511 2 0.955063 0.807657 0.844461
512 2 0.649345 0.620037 0.502513
513 1 0.421758 0.714953 0.299918
514 2 0.0719157 0.73302 0.876717
515 1 0.519169 0.00151538 0.681723
516 2 0.589922 0.941823 0.816511
517 1 0.899285 0.941765 0.979437
518 2 0.55176 0.869836 0.352064
519 2 0.27146 0.256597 0.9609
520 2 0.381707 0.88486 0.506546
521 2 0.0253086 0.732761 0.803171
522 2 0.326286 0.262768 0.780977
523 2 0.836478 0.783185 0.184247
524 2 0.381437 0.728445 0.990822
525 2 0.56775 0.605483 0.0105934
526 2 0.421109 0.903047 0.606266
527 2 0.597894 0.745142 0.00866181
528 1 0.400344 0.939087 0.972728
529 2 0.564755 0.981948 0.979142
530 2 0.721018 0.698364 0.257834
531 2 0.512477 0.0249142 0.755607
532 2 0.232584 0.324257 0.855429
533 2 0.530025 0.994431 0.751065
534 1 0.985248 0.333206 0.0810128
535 2 0.724157 0.240154 0.0851764
536 1 0.28229 0.293436 0.5221
537 1 0.505235 0.943874 0.742241
538 2 0.931638 0.895432 0.280779
539 2 0.189473 0.798708 0.471203
540 2 0.949453 0.64569 0.842376
541 1 0.465111 0.59586 0.599538
542 2 0.26611 0.340066 0.938248
543 1 0.157511 0.162787 0.323498
544 1 0.773266 0.627068 0.498082
545 2 0.203603 0.5423 0.774764
546 2 0.369235 0.0437238 0.132772
547 2 0.535691 0.363442 0.987842
548 2 0.0778861 0.21003 0.702707
549 2 0.438124 0.0538081 0.112766
550 2 0.54842 0.939386 0.775061
551 1 0.755295 0.569869 0.535641
552 2 0.553378 0.195746 0.310168
553 2 0.0624338 0.297798 0.377783
554 2 0.256466 0.316408 0.146892
555 1 0.233961 0.222036 0.665611
556 2 0.262855 0.797231 0.478125
557 2 0.945779 0.429353 0.170368
558 1 0.468487 0.0782763 0.360306
559 2 0.230665 0.38301 0.303957
560 2 0.704816 0.946547 0.587318
561 2 0.276089 0.616108 0.844635
562 1 0.5292 0.639561 0.619826
563 2 0.0447874 0.103095 0.806983
564 2 0.408337 0.272069 0.283812
565 2 0.448052 0.362868 0.52731
566 2 0.494569 0.686127 0.753334
567 2 0.969301 0.701409 0.473153
568 2 0.897108 0.438457 0.279589
569 1 0.0149204 0.537968 0.146196
570 2 0.435646 0.667569 0.567707
571 2 0.852172 0.947561 0.941013
572 2 0.180692 0.154323 0.899389
573 2 0.610096 0.523969 0.618658
574 2 0.776045 0.906596 0.588632
575 1 0.216475 0.0964833 0.133928
576 2 0.437841 0.7413 0.638472
577 2 0.204726 0.389868 0.718977
578 1 0.218697 0.560513 0.0947717
579 2 0.593084 0.893791 0.761536
580 1 0.0404335 0.654037 0.882995
581 2 0.855911 0.576695 0.146264
582 2 0.0275369 0.491308 0.497986
583 1 0.00507497 0.242945 0.391071
584 2 0.450599 0.48228 0.5231
585 1 0.0362535 0.296646 0.81351
586 2 0.781561 0.532996 0.578331
587 2 0.076717 0.821094 0.771834
588 2 0.0811359 0.584783 0.825668
589 1 0.731295 0.312937 0.0128469
590 1 0.733602 0.142156 0.845742
591 1 0.678419 0.975475 0.911382
592 2 0.843923 0.5403 0.440126
593 2 0.538641 0.96581 0.796583
594 1 0.308993 0.399863 0.552916
595 1 0.380634 0.217662 0.5649
596 2 0.372845 0.144094 0.48208
597 1 0.437598 0.101358 0.526545
598 2 0.475161 0.896463 0.202305
599 2 0.77423 0.554197 0.452764
600 2 0.892164 0.89949 0.652518
601 2 0.741054 0.518601 0.605165
602 1 0.689075 0.204062 0.915372
603 2 0.285482 0.213775 0.584161
604 1 0.692394 0.363685 0.795232
605 2 0.983648 0.298721 0.696377
606 2 0.241039 0.620061 0.110034
607 1 0.681625 0.473004 0.555648
608 2 0.897133 0.766525 0.106088
609 2 0.220455 0.508707 0.575027
610 2 0.773199 0.478776 0.436797
611 2 0.531584 0.922859 0.920071
612 1 0.77137 0.483822 0.543417
613 2 0.518781 0.476644 0.704549
614 1 0.359489 0.428556 0.482503
615 2 0.646464 0.72815 0.169681
616 1 0.611154 0.932157 0.738997
617 2 0.690917 0.218364 0.832606
618 2 0.0767146 0.589638 0.935759
619 2 0.36504 0.521644 0.707467
620 2 0.681271 0.799788 0.899463
621 2 0.380302 0.591042 0.482081
622 2 0.725373 0.545108 0.461906
623 1 0.663326 0.215974 0.111122
624 2 0.37599 0.304128 0.364778
625 2 0.231781 0.570548 0.37115
626 2 0.67423 0.722173 0.196552
627 2 0.54773 0.947068 0.735304
628 2 0.287019 0.224998 0.0323881
629 2 0.334057 0.978953 0.116412
630 1 0.359351 0.23259 0.728741
631 2 0.179763 0.164734 0.216224
632 2 0.603072 0.776012 0.454155
633 2 0.650708 0.572729 0.165885
634 2 0.318593 0.222216 0.389807
635 2 0.443736 0.405869 0.44228
636 2 0.907753 0.314507 -0.00185529
637 2 0.893941 0.904865 0.014667
638 1 0.221523 0.0283278 0.174904
639 2 0.604772 0.141512 0.211608
640 2 0.264782 0.367141 0.666482
641 2 0.659398 0.405123 0.384068
642 2 0.195547 0.921263 0.51221
643 2 0.133866 0.718685 0.817513
644 2 0.573188 -0.000206417 0.689488
645 1 0.55758 0.151003 0.759318
646 2 0.922602 0.563176 0.918039
647 1 0.662251 0.448269 0.285171
648 2 0.923663 0.972405 0.975125
649 2 0.780221 0.463208 0.608565
650 2 0.614554 0.244379 0.211354
651 2 0.742892 0.666234 0.462412
652 2 0.388698 0.232533 0.230459
653 2 0.920954 0.34673 0.0106553
654 1 0.0350307 0.628207 0.665503
655 2 0.790524 0.280308 0.987321
656 2 0.0863956 0.795946 0.695426
657 2 0.258881 0.859306 0.557105
658 2 0.752439 0.178873 0.0319864
659 2 0.692164 0.217789 0.0613541
660 2 0.0207158 0.927216 0.119926
661 1 0.516755 0.145893 0.115713
662 2 0.809233 0.21877 0.975553
663 2 0.444554 0.894393 0.182343
664 1 0.554448 0.561307 1.0005
665 2 0.859286 0.122499 0.0368468
666 2 0.706765 0.0872483 0.702122
667 2 0.680028 0.0254989 0.581233
668 2 0.120841 0.377077 0.946789
669 2 0.858623 0.0216298 0.0687372
670 1 0.63725 0.550741 0.672597
671 2 0.221372 0.967876 0.0643761
672 1 0.678027 0.587233 0.43485
673 2 0.47105 0.19543 0.543122
674 2 0.712084 0.885057 0.564697
675 2 0.111346 0.81538 0.717096
676 1 0.361558 0.121811 0.545926
677 2 0.824673 0.886306 0.722534
678 2 0.0181078 0.874401 0.48205
679 1 0.885124 0.849538 0.681365
680 2 0.0493868 0.882173 0.710924
681 1 0.251198 0.756878 0.161688
682 1 0.275105 0.13919 0.0453703
683 2 0.965254 0.0673202 0.89013
684 2 0.960205 0.661252 0.610837
685 2 0.732444 0.492442 0.848023
686 2 0.993811 0.525197 0.558719
687 1 0.573956 0.971897 0.911967
688 2 0.800005 0.258132 0.183393
689 2 0.728859 0.486595 0.469797
690 2 0.0127585 0.0341118 0.0452535
691 2 0.856925 0.64711 0.97051
692 1 0.50973 0.133688 0.694455
693 2 0.214138 0.13867 0.189261
694 2 0.936095 0.883917 0.561507
695 1 0.610127 0.93715 0.488363
696 2 0.855343 0.935845 0.400312
697 2 0.214337 0.944623 0.696463
698 2 0.0660828 0.49683 0.493578
699 2 0.997462 0.170551 0.115512
700 1 0.963266 0.121779 0.0631728
701 2 0.100454 0.27755 0.225149
702 2 0.162233 0.766589 0.61687
703 2 0.149552 0.509914 0.590413
704 2 0.803551 0.590146 0.739553
705 2 0.13152 0.139152 0.405796
706 2 0.754788 0.635683 0.402462
707 2 0.336063 0.479019 0.596431
708 1 0.0253739 0.578368 0.521039
709 2 0.0964476 0.68223 0.880844
710 2 0.577334 0.429795 0.396624
711 2 0.67812 0.338748 0.394808
712 1 0.847321 0.104842 0.696308
713 2 0.796309 0.968273 0.430372
714 1 0.728811 0.625439 0.606782
715 2 0.818392 0.435185 0.551408
716 1 0.399844 0.170054 0.974711
717 2 0.651546 0.180095 0.654302
718 2 0.985371 0.0721634 0.972131
719 2 0.743164 0.467989 0.332131
720 2 0.755415 0.964253 0.447334
721 2 0.613493 0.163375 0.891643
722 1 0.103128 0.062764 0.604306
723 2 0.566887 0.979501 0.504384
724 2 0.544082 0.0027697 0.739036
725 2 0.580584 0.0696332 0.152641
726 2 0.896161 0.593017 0.873497
727 1 0.891725 0.407415 0.209671
728 1 0.98701 0.921449 0.50077
729 1 0.804892 0.321555 0.905509
730 1 0.585652 0.997479 0.10618
731 2 0.952028 0.13645 0.656371
732 1 0.0954176 0.430275 0.93819
733 2 0.838181 0.827519 0.68808
734 2 0.1023 0.360679 0.36243
735 2 0.872092 0.740652 0.853056
736 1 0.506554 0.0364033 0.817262
737 2 0.911376 0.408735 0.69349
738 2 0.776931 0.242734 0.648764
739 2 0.464274 0.148732 0.715492
740 2 0.916645 0.548633 0.995711
741 2 0.509846 0.94658 0.809118
742 1 0.613311 0.90796 0.789526
743 2 0.670699 0.115053 0.160481
744 2 0.269789 0.759756 0.430642
745 2 0.65914 0.647767 0.0303783
746 1 0.661635 0.487846 0.373415
747 2 0.745288 0.668136 0.547996
748 2 0.809517 0.455498 0.00610814
749 2 0.725601 0.404068 0.774196
750 2 0.322254 0.28234 0.572588
751 2 0.605477 0.00779878 0.237956
752 2 0.414173 0.239973 0.274256
753 2 0.123729 0.788596 0.948383
754 2 0.235697 0.553867 0.837357
755 2 0.843814 0.664484 0.997707
756 2 0.866162 0.0168366 0.414711
757 2 0.72746 0.481256 0.639221
758 2 0.610177 0.688048 0.94391
759 2 0.131045 0.00394888 0.573989
760 1 0.663467 0.116613 0.805883
761 2 0.0824054 0.402557 0.348518
762 2 -0.000502935 0.520168 0.832171
763 1 0.410153 0.213065 0.339161
764 2 0.0216743 0.893511 0.950792
765 2 0.358732 0.494282 0.77091
766 2 0.350367 0.936754 0.931736
767 2 0.904447 0.242861 0.112181
768 2 0.547456 0.992965 0.861812
769 2 0.573138 0.640954 0.00439397
770 2 0.523208 0.317502 0.842567
771 2 0.535342 0.267993 0.56893
772 2 0.842093 0.346643 0.921731
773 1 0.720102 0.618864 0.442238
774 2 0.648801 0.647753 0.447712
775 2 0.090306 0.375026 0.489528
776 2 0.0640704 0.553938 0.864798
777 1 0.548463 0.0142244 0.821676
778 2 0.734952 0.590425 0.485385
779 2 0.569729 0.806689 0.971623
780 1 0.785021 0.422963 0.287941
781 2 0.956729 0.877661 0.321052
782 2 0.540521 0.718733 0.891873
783 1 0.920665 0.823932 0.584922
784 2 0.765657 0.323084 0.783373
785 2 0.565734 0.536049 0.134476
786 1 0.669029 0.632569 0.578688
787 2 0.343496 0.891168 0.676008
788 2 0.620376 0.179572 0.0187807
789 2 0.372389 0.49186 0.0380851
790 2 0.528918 0.0477744 0.601113
791 1 0.240186 0.398362 0.269786
792 2 0.383049 0.726145 0.514377
793 2 0.940747 0.966345 0.0586892
794 2 0.336578 0.028264 0.430149
795 2 0.506405 0.601602 0.946386
796 2 0.367774 0.252829 0.894102
797 2 0.669168 0.385555 0.371159
798 2 0.678351 0.183828 0.386565
799 2 0.174745 0.876718 0.266599
800 2 0.824321 0.765844 0.897602
801 2 0.94755 0.214463 0.940013
802 2 0.941887 0.648458 0.906644
803 2 0.000817845 0.370633 0.733865
804 2 0.659696 0.617369 0.208599
805 2 0.563707 0.0136384 0.425933
806 1 0.252441 0.644539 0.5276
807 2 0.614441 0.733552 0.126285
808 2 0.484132 0.126246 0.00544085
809 1 0.824654 0.26489 0.298786
810 2 0.974215 0.996055 0.859653
811 2 0.982779 0.0768693 0.0567521
812 2 0.826407 0.597596 0.6363
813 1 0.598438 0.136093 0.43053
814 2 0.229994 0.314317 0.740787
815 2 0.525648 0.6441 0.110561
816 1 0.847639 0.464599 0.241525
817 1 0.508489 0.0432556 0.698077
818 2 0.437526 0.542341 0.0906095
819 1 0.593513 0.63996 0.573303
820 1 0.714826 0.757587 0.946137
821 2 0.51688 0.897473 0.793702
822 2 0.546951 0.899236 0.749725
823 1 0.132836 0.505346 0.779728
824 2 0.323845 0.547835 0.558281
825 2 0.762553 0.542196 0.450181
826 2 0.516871 0.821277 0.610801
827 1 0.951181 0.037712 0.0491151
828 2 0.129603 0.538667 0.24248
829 2 0.637269 0.461256 0.48554
830 2 0.390891 0.411212 0.841199
831 1 0.111102 0.654444 0.833918
832 2 0.519572 0.811896 0.178825
833 1 0.962209 0.662581 0.143889
834 2 0.131725 0.7017 0.554075
835 2 0.0834199 0.653208 0.286329
836 2 0.0210513 0.203866 0.188137
837 2 0.312811 0.144888 0.407433
838 2 0.920866 0.269855 0.11442
839 2 0.115767 0.869387 0.785455
840 2 0.913681 0.815875 0.000496816
841 2 0.309951 0.781954 0.248648
842 2 0.723037 0.300777 0.200323
843 2 0.908859 0.419971 0.555419
844 2 0.754711 0.961805 0.278606
845 2 0.80672 0.859374 0.0548901
846 2 0.389106 0.479628 0.1794
847 2 0.198968 0.972956 0.997503
848 2 0.968546 0.230304 0.441052
849 1 0.327587 0.139616 0.644645
850 2 0.808532 0.451695 0.712609
851 2 0.648649 0.967958 0.799899
852 2 0.757903 0.440906 0.961759
853 1 0.462133 0.500704 0.026239
854 2 0.871584 0.403512 0.674754
855 2 0.46178 0.293372 0.79769
856 2 0.787531 0.856849 0.766631
857 2 0.566761 0.904268 0.596862
858 2 0.867317 0.153171 0.970614
859 2 0.571239 0.84163 0.37839
860 2 0.91758 0.829782 0.77904
861 2 0.773311 0.517254 0.612895
862 2 0.87937 0.58073 0.279307
863 2 0.451816 0.775441 0.069838
864 2 0.755004 0.161747 0.269688
865 2 0.770223 0.511697 0.901812
866 2 0.702608 0.612215 0.485474
867 2 0.246889 0.753353 0.400615
868 2 0.680535 0.765122 0.179416
869 2 0.218129 0.631271 0.747287
870 2 0.0631503 0.831111 0.464948
871 2 0.417802 0.00504816 0.0215108
872 2 0.626861 0.893438 0.831378
873 2 0.319592 0.691971 0.323312
874 2 0.689246 0.528713 0.557594
875 2 0.440285 0.691476 0.197691
876 2 0.028074 0.165916 0.936472
877 2 0.329802 0.172077 0.438708
878 2 0.975502 0.352499 0.596011
879 2 0.913299 0.75642 0.619973
880 2 0.978573 0.206983 0.47671
881 2 0.150505 0.217763 0.694831
882 1 0.811871 0.158963 0.346034
883 1 0.607129 0.184693 0.835359
884 2 0.750323 0.928011 0.40857
885 2 0.958934 0.0798506 0.409068
886 2 0.0113182 0.806404 0.820213
887 1 0.272535 0.935135 0.502359
888 2 0.386797 0.113249 0.723966
889 2 0.92443 0.482695 0.281449
890 1 0.353006 0.409873 0.883781
891 2 0.801274 0.584589 0.410079
892 2 0.715912 0.618016 0.508838
893 2 0.319643 0.299899 0.408494
894 2 0.560167 0.908431 0.7208
895 1 0.797176 0.424115 0.224963
896 2 0.8609 0.162958 0.890434
897 2 0.880429 0.297836 0.345243
898 2 0.44887 0.210939 0.956486
899 2 0.843336 0.710205 0.161931
900 2 0.520308 0.944152 0.780027
901 2 0.81122 0.433465 0.673814
902 2 0.206549 0.567624 0.222213
903 2 0.610558 0.0847603 0.185479