ITEM: TIMESTEP
44100
ITEM: NUMBER OF ATOMS
1000
ITEM: BOX BOUNDS xy xz yz pp pp pp
0.0000000000000000e+00 1.3572088000000001e+01 0.0000000000000000e+00
0.0000000000000000e+00 1.3572088000000001e+01 0.0000000000000000e+00
0.0000000000000000e+00 1.3572088000000001e+01 0.0000000000000000e+00
ITEM: ATOMS id type xs ys zs
1 2 0.153434 0.357177 0.44856
2 2 0.984788 0.413696 -0.00319208
3 1 0.666345 0.0594482 0.765865
4 2 0.055015 0.0475432 0.557907
5 2 0.568252 0.119197 0.39645
6 1 0.323524 0.0704421 0.762552
7 2 0.661367 0.0192744 0.784219
8 2 0.07769 0.42559 0.334145
9 2 0.700354 0.672319 0.121554
10 2 0.619611 0.938963 0.744558
11 2 0.236509 0.053032 0.915522
12 2 0.667661 0.843416 0.832153
13 2 0.219812 0.349225 0.490596
14 1 0.344702 0.242095 0.102741
15 2 0.767947 0.614352 0.509151
16 2 0.0949991 0.296278 0.906952
17 1 0.712963 0.568824 0.589223
18 2 0.829115 0.564165 0.698344
19 2 0.905528 0.120092 0.243001
20 2 0.846479 0.876547 0.77253
21 2 0.632862 0.97625 0.781918
22 2 0.479499 0.0410447 0.568748
23 2 0.5914 0.366516 0.785484
24 2 0.748584 0.610089 0.460813
25 1 0.577871 0.426209 0.305964
26 2 0.41906 0.435406 0.650742
27 2 0.640096 0.968673 0.793226
28 2 0.614005 0.990532 0.761459
29 2 0.927371 0.262041 0.107443
30 2 0.953803 0.676822 0.725316
31 1 0.725808 0.0875637 0.296569
32 1 0.468007 0.176334 0.292825
33 1 0.673617 0.375045 0.153551
34 2 0.764742 0.525579 0.536655
35 2 0.764714 0.189559 0.668081
36 1 0.693907 0.980124 0.737118
37 2 0.82174 0.554379 0.550768
38 2 0.607204 0.957158 0.820267
39 2 0.0594553 0.470025 0.370111
40 2 0.619215 0.285144 0.576867
41 2 0.793372 0.917807 0.78605
42 2 0.633155 0.982728 0.806963
43 2 0.326379 0.385082 0.00362868
44 2 0.810676 0.244914 0.500991
45 2 0.364701 0.945465 0.262104
46 1 0.0785212 0.822988 0.133962
47 2 0.983895 0.546002 0.867547
48 2 0.454058 0.971691 0.494593
49 2 0.493305 0.750479 0.826195
50 2 0.605831 0.64047 0.623483
51 2 0.801593 0.383021 0.804415
52 2 0.384879 0.532404 0.184925
53 2 0.717744 0.384672 0.049502
54 2 0.619628 0.0199148 0.779355
55 1 0.490452 0.565742 0.410881
56 1 0.473116 0.782104 0.886447
57 2 0.992805 0.669931 0.224173
58 2 0.72411 0.0543915 0.358666
59 2 0.848563 0.289695 0.591926
60 2 0.652791 0.273111 0.472599
61 2 0.953082 0.478351 0.924904
62 2 0.354886 0.626236 0.144727
63 2 0.366858 0.0087159 0.800625
64 2 0.230408 0.64279 0.991449
65 2 0.804545 0.564595 0.541311
66 1 0.269363 0.535984 0.705954
67 2 0.290805 0.433353 0.352748
68 2 0.612574 0.989786 0.809567
69 1 0.0933492 0.0210231 0.840033
70 2 0.418407 0.264924 0.0316176
71 1 0.558426 0.0418826 0.781104
72 2 0.349413 0.00187064 0.630631
73 2 0.658201 0.138164 0.571682
74 2 0.362355 0.646669 0.517019
75 2 0.875624 0.176167 0.0883453
76 2 0.469376 0.102925 0.385802
77 1 0.391157 0.917712 0.216755
78 2 0.294705 0.12942 0.824195
79 2 0.125498 0.382647 0.535783
80 2 0.0303036 0.114367 0.522118
81 2 0.665892 0.999154 0.78722
82 2 0.204304 0.35589 0.943804
83 2 0.26055 0.995106 0.506192
84 2 0.822304 0.151223 0.471628
85 1 0.840468 0.932783 0.648048
86 2 0.746563 0.488263 0.519256
87 2 0.754931 0.921009 0.165243
88 2 0.639127 0.660562 0.619638
89 2 0.344761 0.972001 0.795492
90 2 0.676054 0.684824 0.867561
91 2 0.279377 0.131611 0.514356
92 2 0.665295 0.324711 0.652946
93 2 0.864078 0.737677 0.749984
94 1 0.373712 0.585406 0.446153
95 2 0.494898 0.317353 0.976136
96 2 0.170402 0.210634 0.922856
97 2 0.970429 0.507154 0.355591
98 2 0.870284 0.738035 0.902945
99 2 0.37164 0.436948 0.816566
100 2 0.359422 0.107849 0.420544
101 1 0.381454 0.694951 0.7335
102 2 0.294472 0.966624 0.530134
103 2 0.754913 0.564917 0.536292
104 2 0.68248 0.534591 0.0227825
105 2 0.870535 0.132178 0.00149898
106 2 0.332112 0.543962 0.65392
107 2 0.446059 0.877836 0.454534
108 2 0.776835 0.543798 0.466574
109 2 0.792196 0.551229 0.518488
110 2 0.929971 0.396673 0.670566
111 2 0.365378 0.526412 0.609355
112 1 0.995224 0.151203 0.781468
113 1 0.0440021 0.597097 0.226249
114 2 0.792065 0.556211 0.534275
115 2 0.153047 0.0963348 0.396102
116 2 0.965989 0.143141 0.28735
117 2 0.144461 0.46918 0.218637
118 2 0.773355 0.533367 0.507307
119 2 0.278281 0.196892 0.320223
120 2 0.748453 0.581707 0.582095
121 2 0.676757 0.221203 0.813032
122 2 0.130088 0.276302 0.899423
123 2 0.676307 0.602682 0.617216
124 2 -0.00351776 0.484818 0.477137
125 1 0.990095 0.415895 0.826233
126 2 0.472086 0.757676 0.844172
127 2 0.78578 0.61607 0.549716
128 2 0.173889 0.142605 0.868611
129 1 0.29793 0.962496 0.41095
130 2 0.461347 0.819115 0.579011
131 2 0.0348422 0.247706 0.144178
132 2 0.116642 0.480182 0.154656
133 2 0.7803 0.631847 0.535358
134 2 0.587597 0.434727 0.925625
135 2 0.630991 0.974968 0.777729
136 2 0.971564 0.390584 0.0810641
137 1 0.612502 0.233392 0.140986
138 2 0.64232 0.0308154 0.790838
139 2 0.662291 0.945985 0.808904
140 1 0.847748 0.597331 0.612514
141 2 0.415571 0.618471 0.849263
142 2 0.260609 0.915547 0.728749
143 2 0.356797 0.595828 0.995395
144 2 0.739598 0.0947829 0.813452
145 2 0.685005 0.23303 0.831087
146 2 0.233351 0.765489 0.0836092
147 1 0.623887 0.945698 0.870356
148 1 0.864514 0.656841 0.479577
149 2 0.0294182 0.652281 0.897436
150 1 0.739709 0.635352 0.552628
151 2 0.646076 0.0699307 0.402997
152 2 0.338261 0.883586 0.911343
153 1 0.965363 0.753995 0.316193
154 1 0.203166 0.138047 0.788039
155 2 0.323802 0.965813 0.334904
156 2 0.526451 0.0516275 0.332426
157 2 0.0228165 0.530379 0.876584
158 2 0.659939 0.718196 0.708914
159 2 0.745665 0.852803 0.430943
160 2 0.674544 0.992526 0.774431
161 2 0.655867 0.994944 0.770656
162 2 0.589095 0.959451 0.733965
163 2 0.275967 0.833555 0.746124
164 2 0.116994 0.859668 0.418084
165 2 0.818476 0.536377 0.498405
166 2 0.460231 0.540774 0.451368
167 2 0.574516 0.98555 0.477891
168 2 0.589742 0.00620074 0.789927
169 2 0.669217 0.958623 0.173952
170 2 0.964226 0.0443502 0.957347
171 2 0.662512 0.679115 0.814934
172 2 0.233041 0.104142 0.261614
173 1 0.855188 0.533007 0.52294
174 2 0.0169401 0.558179 0.839858
175 2 0.126216 0.299846 0.725748
176 2 0.569073 0.245554 0.131125
177 1 0.410835 0.736902 0.949905
178 2 0.0255401 0.508177 0.844233
179 2 0.383834 0.763187 0.973187
180 2 0.753546 0.577547 0.551136
181 2 0.340617 -0.0013868 0.223993
182 2 0.176205 0.224948 0.378669
183 2 0.320061 0.736054 0.9556
184 2 0.16672 0.102346 0.433212
185 2 0.788816 0.608049 0.573538
186 2 0.199998 0.0469148 0.984468
187 2 0.525705 0.775303 0.226484
188 1 0.564787 0.162057 0.843791
189 2 0.460367 0.111882 0.190064
190 2 0.881655 0.957906 0.215776
191 2 0.844435 0.167082 0.234237
192 2 0.609205 0.013135 0.771205
193 2 0.758727 0.0941969 0.407015
194 2 0.516577 0.174793 0.18748
195 2 0.93025 0.038338 0.390814
196 2 0.658904 0.0101908 0.755645
197 2 0.11872 0.205048 0.818564
198 2 0.434508 0.0384683 0.386993
199 2 0.93376 0.0838332 0.432764
200 1 0.77966 0.543436 0.630078
201 2 0.0793418 0.153328 0.48164
202 2 0.389463 0.699693 0.865275
203 2 0.608179 0.306549 0.588947
204 2 0.079284 0.719657 0.400844
205 2 0.560622 0.00672894 0.892294
206 2 0.171041 0.839449 0.142478
207 2 0.356277 0.997807 0.278729
208 2 0.0521645 0.567365 0.383412
209 2 0.683224 0.505897 0.375661
210 2 0.939049 0.711086 0.342557
211 2 0.295069 0.369712 0.27241
212 1 0.668322 0.912447 0.736153
213 2 0.632297 0.0734111 0.536568
214 2 0.786227 0.568023 0.549893
215 2 0.758586 0.54796 0.532408
216 2 0.853462 0.923141 0.35448
217 2 0.82763 0.847923 0.0386401
218 2 0.478125 0.179342 0.46915
219 2 0.686705 0.577158 0.555824
220 2 0.32259 0.223329 0.73023
221 2 0.0302745 0.436633 0.395505
222 2 0.130237 0.726231 0.924294
223 2 0.0592524 0.879895 0.205132
224 2 0.658425 0.996488 0.747842
225 1 0.247176 0.719597 0.28664
226 2 0.624088 0.00850934 0.74884
227 2 0.202774 0.723243 0.295091
228 2 0.6338 0.457224 0.579712
229 2 0.981917 0.563263 0.594437
230 1 0.4967 0.486459 0.742345
231 2 0.784049 0.0531848 0.949842
232 2 0.192031 0.246111 0.320843
233 1 0.0207636 0.942537 0.319714
234 2 0.507141 0.635406 0.245553
235 2 0.778559 0.532853 0.566437
236 2 0.723377 0.057903 0.883259
237 2 0.577198 0.381882 0.934528
238 1 0.0639297 0.361191 0.458743
239 1 0.910695 0.863594 0.0990426
240 2 0.599411 0.689116 0.669162
241 2 0.4414 0.426649 0.973681
242 1 0.653517 0.630786 0.594103
243 1 0.683019 0.467672 0.47083
244 2 0.0669362 0.0834377 0.390545
245 2 0.646006 0.912713 0.204907
246 1 0.564665 0.80158 0.510905
247 2 0.843225 0.729011 0.110368
248 2 0.233462 0.357614 0.739044
249 2 0.587334 0.293893 0.965831
250 2 0.590965 0.963668 0.805308
251 2 0.710032 0.333277 0.0370952
252 2 0.565219 0.300058 0.175739
253 2 0.783097 0.862371 0.205467
254 2 0.227157 0.27471 0.335155
255 2 0.495779 0.972404 0.258943
256 2 0.607986 0.992862 0.738323
257 2 0.3712 0.817337 0.901712
258 2 0.194428 1.00047 0.484967
259 1 0.939276 0.544046 0.959651
260 2 0.723344 0.56826 0.562451
261 1 0.0533316 0.300472 0.44048
262 2 0.0811625 0.277785 0.208565
263 2 0.655084 0.684655 0.683057
264 2 0.723917 0.298901 0.383924
265 1 0.314357 0.0269322 0.432158
266 2 0.939601 0.766889 0.22393
267 2 0.240138 0.61091 0.0866469
268 1 0.95354 0.102713 0.141839
269 1 0.947438 0.384893 0.3611
270 2 0.970353 0.419156 0.280244
271 2 0.709356 0.858578 0.469776
272 2 0.0902292 0.881531 0.541858
273 1 0.734156 0.509433 0.601405
274 2 0.839587 0.625609 0.416563
275 2 0.904672 0.930189 0.0595022
276 2 0.575752 0.20459 0.367911
277 2 0.251521 0.982828 0.545835
278 2 0.654574 0.572203 0.948438
279 2 0.415437 0.263299 0.854543
280 1 0.407197 0.569742 0.229654
281 2 0.7465 0.996734 0.220968
282 2 0.922717 0.0893869 0.199712
283 2 0.0966993 0.940877 0.769946
284 1 0.792683 0.92437 0.71328
285 2 0.780529 0.896066 0.931914
286 2 0.632214 0.0362656 0.802701
287 1 0.939217 0.207545 0.434467
288 2 0.643157 0.0232362 0.736326
289 2 0.77069 0.836623 0.415248
290 2 0.937388 0.225551 0.724332
291 2 0.265737 0.796138 0.844741
292 2 0.425442 0.958487 0.252105
293 2 0.773364 0.55309 0.566141
294 2 0.834844 0.717202 0.684222
295 2 0.756197 0.57647 0.50475
296 2 0.543741 0.170527 0.247309
297 2 0.638471 0.940945 0.242583
298 2 0.796747 0.577304 0.687137
299 1 0.719631 0.967222 0.807094
300 2 0.672231 0.975358 0.773205
301 2 0.857561 0.913678 0.390826
302 2 0.221123 0.310586 0.52781
303 2 0.247 0.593428 0.2919
304 1 0.993086 0.322095 0.306484
305 2 0.609134 0.200746 0.0946855
306 2 0.465097 0.540364 0.0608851
307 2 0.869045 0.394549 0.321812
308 2 0.439357 0.360429 0.982998
309 2 0.793929 0.328475 0.964293
310 2 0.671635 0.8335 0.104284
311 2 0.565636 0.0887076 0.407495
312 2 0.880489 0.907241 0.958478
313 2 0.947642 0.605334 0.917342
314 2 0.0875632 0.181485 0.342217
315 2 0.91283 0.735365 0.308728
316 2 0.161142 0.842684 0.0616555
317 2 0.133131 0.964577 0.738408
318 2 0.488134 0.72383 0.747577
319 2 0.108537 0.521033 0.643068
320 2 0.663676 0.69056 0.626703
321 2 0.752391 0.586721 0.538982
322 2 -0.000632071 0.587587 0.851535
323 2 0.694145 0.769321 0.222619
324 2 0.913432 0.369474 0.135634
325 2 0.717678 0.640067 0.621987
326 2 0.605281 0.940462 0.777365
327 2 0.660008 0.444615 0.377059
328 2 0.798743 0.588246 0.505516
329 1 0.0847791 0.731589 0.901054
330 2 0.772845 0.584848 0.51558
331 2 0.821158 0.743438 0.216172
332 2 0.203973 0.856369 0.953012
333 2 0.496764 0.849092 0.162556
334 2 0.620805 0.954398 0.757365
335 1 0.170239 0.181756 0.807163
336 2 0.743385 0.848117 0.146155
337 2 0.4339 0.265399 0.983392
338 1 0.664378 0.0494722 0.323744
339 2 0.898495 0.717468 0.430374
340 2 0.17284 0.244123 0.79497
341 2 0.658607 0.973183 0.734005
342 2 0.828097 0.478042 0.339559
343 2 0.981965 0.81304 0.626586
344 1 0.838445 0.134325 0.209346
345 1 0.818991 0.6709 0.534681
346 1 0.560222 0.972524 0.756611
347 1 0.322851 0.672947 0.9774
348 2 0.494215 0.80964 0.1722
349 2 0.528659 0.0623501 0.291651
350 2 0.426888 0.395482 0.270813
351 2 0.0725686 0.788821 0.194185
352 2 0.919159 0.11625 0.499479
353 1 0.831701 0.536095 0.57825
354 1 0.631652 0.340398 0.275954
355 2 0.297906 0.431362 0.139586
356 2 0.746618 0.0372133 0.33963
357 2 0.414334 0.215212 0.320589
358 2 0.588972 0.388192 0.00605465
359 2 0.98352 0.0196116 0.472658
360 2 0.636254 0.963171 0.820375
361 1 0.606469 0.452575 0.693833
362 2 0.260758 0.972343 0.399671
363 1 0.527394 0.230419 0.936159
364 2 0.663297 0.988181 0.764457
365 2 0.567577 0.605168 0.56726
366 2 0.047847 0.381387 0.766482
367 1 0.202392 0.798135 0.333306
368 1 0.264916 0.784322 0.0313101
369 2 0.419043 0.0105578 0.341121
370 2 0.215279 0.677722 0.310258
371 2 0.807268 0.563413 0.578135
372 1 0.63261 0.967707 0.496325
373 2 0.242527 0.937778 0.121726
374 2 0.644219 0.563061 0.862872
375 2 0.599784 0.970675 0.793718
376 2 0.0661928 0.20924 0.876073
377 2 0.299052 0.438563 0.884464
378 2 0.186033 0.609018 0.122245
379 2 0.810995 0.904717 0.176165
380 2 0.61286 0.97402 0.817056
381 2 0.780821 0.718724 0.221718
382 2 0.336243 0.764725 0.967032
383 2 0.420029 0.277915 0.578049
384 1 0.999575 0.592708 0.777404
385 2 0.945303 0.886579 0.350056
386 2 0.303545 0.168617 0.606145
387 1 0.978026 0.562238 0.67531
388 2 0.760008 0.947205 0.680711
389 2 0.799811 0.584004 0.52984
390 2 0.0453149 0.804538 0.0339787
391 2 0.370593 0.216003 0.0145193
392 1 0.796197 0.528455 0.449585
393 2 0.098933 0.00356384 0.542521
394 2 0.376632 0.181491 0.755285
395 2 0.654928 0.977839 0.792634
396 2 0.590344 0.988146 0.808341
397 2 0.588607 0.671748 0.570512
398 1 0.930151 0.11969 0.89795
399 1 0.827742 0.595555 0.469644
400 1 0.0786028 0.293735 0.082234
401 2 0.670407 0.0142623 0.810509
402 2 0.125932 0.987388 0.46912
403 2 0.278786 0.943148 0.266209
404 2 0.320986 0.575711 0.706721
405 2 0.727748 0.441599 0.0863677
406 2 0.060015 0.727283 0.133979
407 2 0.350034 0.945639 0.454312
408 2 0.0290872 0.583952 0.440514
409 2 0.622152 0.939954 0.774712
410 2 0.95373 0.0494631 0.650011
411 2 1.00233 0.21551 0.686677
412 2 0.425344 0.420054 0.0556495
413 2 0.780163 0.553108 0.475666
414 2 0.325191 0.0396426 0.920403
415 2 0.971403 0.303232 0.838221
416 1 0.742544 0.633542 0.483301
417 2 0.66889 0.299211 0.169639
418 2 0.508509 0.701483 0.970746
419 2 0.875187 0.338395 0.178189
420 2 0.0995985 0.638707 0.502851
421 1 0.20431 0.445714 0.60888
422 1 0.660372 0.802674 0.146451
423 2 0.517931 0.395745 0.11017
424 2 0.673107 0.957876 0.768775
425 1 0.967087 0.42714 0.403242
426 2 0.264407 0.949829 0.563903
427 2 0.860161 0.233187 0.40018
428 2 0.457636 0.74474 0.783226
429 2 0.65878 0.942163 0.745363
430 2 0.0198368 0.668606 0.252157
431 2 0.795185 0.596323 0.550863
432 1 0.23672 0.304579 0.377197
433 2 0.261472 0.994643 0.876874
434 1 0.853379 0.768864 0.551394
435 2 0.975091 0.532089 0.0909833
436 2 0.894867 0.161718 0.457309
437 2 0.157576 0.638179 0.775887
438 2 0.832517 0.814739 0.296997
439 1 0.150378 0.846302 0.358791
440 2 0.394778 0.565913 0.280552
441 1 0.822032 0.221884 0.800157
442 1 0.707556 0.53396 0.531161
443 1 0.463824 0.748798 0.702754
444 2 0.749487 0.600564 0.528844
445 2 0.076657 0.185053 0.575616
446 2 0.328084 0.171092 0.758858
447 2 0.258908 0.398142 0.916415
448 2 0.0323882 0.242643 0.940006
449 1 0.386026 0.34899 0.741165
450 2 0.245869 0.999466 0.443672
451 2 0.623505 0.940419 0.808241
452 2 0.389522 0.214687 0.443503
453 1 0.463664 0.24934 0.570589
454 2 0.775954 0.571317 0.531613
455 2 0.864246 0.574166 0.110186
456 2 0.28304 0.589903 0.672355
457 2 0.606416 0.033672 0.798038
458 2 0.52783 0.107873 0.359712
459 2 0.221815 0.15378 0.855001
460 2 0.783419 0.547671 0.551517
461 2 0.393953 0.819023 0.512927
462 2 0.767478 0.553736 0.455877
463 1 0.976473 0.365442 0.863197
464 2 0.718105 0.93853 0.207053
465 2 0.650348 0.969074 0.202053
466 2 0.0332559 0.566174 0.280725
467 1 0.620487 0.531969 0.0592384
468 2 0.531696 0.261355 0.449707
469 2 0.816297 0.524854 0.135698
470 2 0.182464 0.193973 0.293892
471 2 0.731208 0.576624 0.550467
472 2 0.740179 0.601472 0.507758
473 1 0.753872 0.509391 0.456906
474 1 0.120216 0.430489 0.23702
475 1 0.379885 0.703306 0.0707381
476 2 0.98657 0.997413 0.145545
477 2 0.618611 0.00347834 0.792964
478 2 0.0655976 0.714174 0.723541
479 2 0.0109522 0.89246 0.242364
480 2 0.584176 0.174231 0.697299
481 2 0.613303 0.655202 0.564538
482 2 0.131625 0.966372 0.842219
483 2 0.671654 0.51805 0.56225
484 1 0.0571295 0.38767 0.714536
485 1 0.159578 0.893226 0.809389
486 2 0.678335 0.0568761 0.397534
487 2 0.725701 0.178437 0.669123
488 2 0.804829 0.584096 0.585791
489 2 0.677797 0.420453 0.929779
490 2 0.26503 0.905848 0.596186
491 2 0.768782 0.603822 0.481466
492 2 0.915851 0.58902 0.585187
493 2 0.165321 0.486912 0.801915
494 2 0.641047 0.940752 0.799678
495 2 0.0846705 0.198505 0.0727016
496 2 0.800026 0.536358 0.507066
497 2 0.272689 0.687275 0.589298
498 1 0.895317 0.305022 0.898626
499 2 0.0664934 0.262691 0.368166
500 2 0.966027 0.883323 0.446289
501 1 0.792312 0.593411 0.451831
502 2 0.256901 0.872464 0.697083
503 2 0.815478 0.588428 0.585257
504 1 0.686673 0.958796 0.859952
505 2 0.825612 0.603032 0.333515
506 2 0.652708 0.56964 0.922917
507 2 0.0919147 0.218247 0.424566
508 2 0.657775 0.996625 0.814792
509 1 0.596489 0.185115 0.931288
510 2 0.775996 0.517792 0.498459
511 2 0.633388 0.988989 0.750908
512 2 0.81165 0.599207 0.520644
513 1 0.487583 0.572529 0.530855
514 2 0.114807 0.825769 0.691887
515 1 0.586468 0.911267 0.733222
516 2 0.656586 0.963148 0.767756
517 1 0.857227 0.796638 0.671226
518 2 0.486778 0.62654 0.183829
519 2 0.263205 0.476664 0.88136
520 2 0.0967724 0.250827 0.729016
521 2 0.728382 0.865584 0.13528
522 2 0.108174 0.879893 0.769811
523 2 0.776176 0.542055 0.543115
524 2 0.0554928 0.868144 0.794634
525 2 0.0941918 0.784266 0.0212981
526 2 0.145703 0.99219 0.759661
527 2 0.672586 0.850473 0.276983
528 1 0.420245 0.769074 0.848871
529 2 0.902029 0.0658634 0.210852
530 2 0.631453 0.845316 0.507362
531 2 0.644879 0.972938 0.836197
532 2 0.660182 0.516442 0.974199
533 2 0.983998 0.42143 0.732266
534 1 0.403779 0.0969781 0.783061
535 2 0.927579 0.46787 0.201054
536 1 0.242581 0.497614 0.566397
537 1 0.552975 0.977054 0.816656
538 2 0.308143 0.583811 0.352167
539 2 0.181045 0.448293 0.971945
540 2 0.822204 0.736351 0.937489
541 1 0.0621734 0.595088 0.269272
542 2 0.0143452 0.524322 0.0107608
543 1 0.776685 0.347139 0.436409
544 1 0.696434 0.628729 0.536361
545 2 0.428352 0.973832 0.511545
546 2 0.0752141 0.790896 0.277563
547 2 0.780797 0.436389 0.817114
548 2 0.938519 0.573378 0.0440573
549 2 0.403264 0.614675 0.311957
550 2 0.786045 0.435239 0.614441
551 1 0.810081 0.63486 0.497334
552 2 0.873201 0.528822 0.824562
553 2 0.705303 0.0428074 0.266977
554 2 0.963017 0.816869 0.0104562
555 1 0.349094 0.652475 0.180537
556 2 0.358215 0.259465 0.879886
557 2 0.185554 0.0556071 0.626665
558 1 0.56614 0.1155 0.291215
559 2 0.0286486 0.23755 0.719241
560 2 0.698978 0.464087 0.10446
561 2 0.917766 0.265124 0.833691
562 1 0.493371 0.473254 0.939495
563 2 0.534153 0.75547 0.337607
564 2 0.480659 0.424155 0.00360756
565 2 0.593265 0.261676 0.191035
566 2 0.526687 0.845648 0.359696
567 2 0.102301 0.738598 0.01961
568 2 0.137064 0.532105 0.198499
569 1 0.502771 0.399614 0.394362
570 2 0.218693 0.988933 0.125648
571 2 0.71428 0.844672 0.304904
572 2 0.985857 0.0656524 0.64655
573 2 0.767637 0.554398 0.498296
574 2 0.924269 0.0306311 0.215162
575 1 0.00775372 0.0454392 0.790684
576 2 0.727409 0.994355 0.199032
577 2 0.332693 0.12074 0.789379
578 1 0.316892 0.397784 0.763027
579 2 0.633526 0.98249 0.766415
580 1 0.111078 0.690719 0.789021
581 2 0.280197 0.23467 0.114805
582 2 0.140355 0.921001 0.669955
583 1 0.545191 0.913313 0.0550582
584 2 0.728196 0.0718788 0.564318
585 1 0.792445 0.494817 0.555112
586 2 0.794968 0.556305 0.49232
587 2 0.640886 0.00214548 0.787103
588 2 0.378679 0.437317 0.68414
589 1 0.730561 0.414125 0.872218
590 1 0.443082 0.298203 0.113426
591 1 0.578811 0.0168793 0.739438
592 2 0.0843702 0.385708 0.772268
593 2 0.683187 0.0131528 0.777105
594 1 0.827152 0.630048 0.279268
595 1 0.303065 0.460068 0.551899
596 2 0.209008 0.737902 0.86099
597 1 0.418821 0.762079 0.993916
598 2 0.345408 0.206797 0.614383
599 2 0.785354 0.566357 0.566471
600 2 0.225557 0.640429 0.696376
601 2 0.816782 0.558163 0.506067
602 1 0.481583 0.254317 0.766421
603 2 0.853334 0.858615 0.0878629
604 1 0.203664 0.193531 0.577876
605 2 0.806649 0.897747 0.236321
606 2 0.426383 0.0415459 0.326725
607 1 0.831328 0.604687 0.0302244
608 2 0.0165401 0.274765 0.250133
609 2 0.814057 0.754691 0.348562
610 2 0.771102 0.588277 0.494358
611 2 0.679167 0.98921 0.818032
612 1 0.950794 0.202622 0.764631
613 2 0.633403 0.680378 0.236093
614 1 0.411365 0.778405 0.583196
615 2 0.245646 0.647467 0.0172322
616 1 0.488783 0.961848 0.807973
617 2 0.667176 0.984354 0.805166
618 2 0.0741861 0.0295291 -0.00106515
619 2 0.73821 0.274846 0.267226
620 2 0.0775856 0.537082 0.352769
621 2 0.768648 0.149448 0.876146
622 2 0.794402 0.524465 0.527688
623 1 0.694567 0.235839 0.1404
624 2 0.135385 0.701829 0.0199501
625 2 0.27199 0.629924 0.746961
626 2 0.782622 0.523446 0.0964079
627 2 0.632429 0.941488 0.835122
628 2 0.229474 0.999475 0.528741
629 2 0.554139 0.139867 0.349775
630 1 0.0535731 0.13842 0.555936
631 2 0.173092 0.0486266 0.518335
632 2 0.781764 0.571459 0.505216
633 2 0.216477 0.643676 0.453871
634 2 0.232028 0.386004 0.242928
635 2 0.572865 0.536354 0.7625
636 2 0.729156 0.958425 0.750782
637 2 0.681387 0.951119 0.790914
638 1 0.604126 0.169794 0.334921
639 2 0.657079 0.997518 0.838595
640 2 0.491378 0.518807 0.0800275
641 2 0.797544 0.568909 0.524359
642 2 0.079212 0.994829 0.192412
643 2 0.925757 0.160432 0.652857
644 2 0.177378 0.861811 0.829998
645 1 0.738306 0.411438 0.990753
646 2 0.694798 0.0105928 0.754117
647 1 0.999317 0.460276 0.343095
648 2 0.509105 0.17734 0.609046
649 2 0.787841 0.585795 0.534844
650 2 0.0471918 0.900329 0.190255
651 2 0.228381 0.863011 0.7649
652 2 0.674915 0.884336 0.100773
653 2 0.788952 0.600393 0.511019
654 1 0.641375 0.587446 0.543666
655 2 0.80858 0.840653 0.393234
656 2 0.799069 0.501643 0.957277
657 2 0.0511884 0.690747 0.220537
658 2 0.931888 0.418136 0.420477
659 2 0.514618 0.147171 0.0515294
660 2 0.167677 0.692561 0.0515709
661 1 0.0359652 0.585499 0.171246
662 2 0.0690735 0.567698 0.663981
663 2 0.0947546 0.689134 0.909179
664 1 0.178394 0.20091 0.877905
665 2 0.52512 0.836563 0.520778
666 2 0.763305 0.567142 0.0846237
667 2 0.280195 0.609868 0.765656
668 2 0.644493 0.0231564 0.81349
669 2 0.908898 0.0591727 0.301205
670 1 0.0655971 0.322147 0.638223
671 2 0.953805 0.171378 0.566414
672 1 0.724796 0.565763 0.473401
673 2 0.605253 0.777584 0.133828
674 2 0.491914 0.790687 0.355722
675 2 0.424091 0.815852 0.503054
676 1 0.446322 0.28757 0.451497
677 2 0.456501 0.887237 0.655058
678 2 0.624785 0.0112765 0.812517
679 1 0.988575 0.870373 0.0294562
680 2 0.969584 0.0480273 0.217949
681 1 0.0276969 0.685907 0.0909606
682 1 0.184814 0.720894 0.353135
683 2 0.524642 0.382561 0.506412
684 2 0.434943 0.211123 0.842587
685 2 0.263884 0.428093 0.326284
686 2 0.966078 0.598727 0.886972
687 1 0.64124 0.910863 0.819876
688 2 0.651787 0.903452 0.135001
689 2 0.729812 0.590869 0.536826
690 2 0.127563 0.773406 0.986416
691 2 0.10977 0.874666 0.856571
692 1 0.645965 0.989081 0.70432
693 2 0.551826 0.434076 4.56853e-05
694 2 0.611868 0.336783 0.874344
695 1 0.0379052 0.439855 0.504301
696 2 0.432033 0.822284 0.0955995
697 2 0.70405 0.71972 0.0334708
698 2 0.783608 0.562609 0.589836
699 2 0.208963 0.820448 0.991013
700 1 0.882146 0.164818 0.170247
701 2 0.775044 0.5529 0.491814
702 2 0.437922 0.162826 0.376743
703 2 0.632263 0.00723717 0.319199
704 2 0.00101654 0.782125 0.164168
705 2 0.706742 0.274309 0.219631
706 2 0.773718 0.589574 0.580326
707 2 0.395212 0.299744 0.947727
708 1 0.732085 0.47889 0.55309
709 2 0.934511 0.332595 0.923445
710 2 0.728709 0.10851 0.34103
711 2 0.677359 0.20596 0.315642
712 1 0.553649 0.89586 0.410241
713 2 0.751853 0.585503 0.476616
714 1 0.799508 0.486784 0.480374
715 2 0.0675886 0.969142 0.955198
716 1 0.922584 0.221072 0.0641457
717 2 0.650429 0.962803 0.801973
718 2 0.556722 0.225529 0.440484
719 2 0.835285 0.58476 0.548617
720 2 0.623876 0.777072 0.377552
721 2 0.766395 0.413381 0.201242
722 1 0.447831 0.585028 0.0680587
723 2 0.620999 0.00986147 0.360897
724 2 0.614856 0.960096 0.794762
725 2 0.168953 0.0705415 0.459802
726 2 0.7154 0.67787 0.491775
727 1 0.846955 0.204134 0.662586
728 1 0.214261 0.112361 0.451487
729 1 0.590388 0.0603814 0.837372
730 1 0.521035 0.497445 0.993603
731 2 0.473554 0.378805 0.528899
732 1 0.120597 0.56325 0.672192
733 2 0.0523255 0.923144 0.267332
734 2 0.27898 0.732552 0.611001
735 2 0.34042 0.854674 0.0115765
736 1 0.59791 0.980433 0.695323
737 2 0.0326815 0.481626 0.154105
738 2 0.372683 0.258548 0.850837
739 2 0.502959 0.871368 0.838597
740 2 0.55949 0.143667 0.535931
741 2 0.650968 0.981292 0.818748
742 1 0.704637 0.930052 0.788189
743 2 0.335236 0.807328 0.273446
744 2 0.321946 0.422431 0.746629
745 2 0.9382 0.78302 0.185183
746 1 0.680626 0.759537 0.419863
747 2 0.295445 0.125993 0.0789245
748 2 0.374212 0.45879 0.874471
749 2 0.768099 0.532073 0.526476
750 2 0.131418 0.213337 0.609489
751 2 0.604196 0.991316 0.775695
752 2 0.90089 0.170864 0.772661
753 2 0.293525 0.413907 0.427496
754 2 0.917457 0.907627 0.572494
755 2 0.942126 0.524808 0.0460577
756 2 0.620512 0.0676127 0.336956
757 2 0.77476 0.589591 0.554085
758 2 0.71198 0.4017 0.819909
759 2 0.489168 0.363235 0.452725
760 1 0.72607 0.352502 0.831326
761 2 0.350166 0.194156 0.768774
762 2 0.72659 0.899153 0.798092
763 1 0.514894 0.172216 0.407943
764 2 0.66665 0.186165 0.280598
765 2 0.263912 0.34827 0.68369
766 2 0.689654 0.611719 0.11782
767 2 0.411698 0.857677 0.126988
768 2 0.345774 0.344778 0.827843
769 2 0.370125 0.179948 0.249786
770 2 0.631429 0.241581 0.563853
771 2 0.346353 0.605401 0.084696
772 2 0.570927 0.875839 0.671941
773 1 0.757713 0.606976 0.601216
774 2 0.337873 0.346014 0.56784
775 2 0.0333524 0.605077 0.839764
776 2 0.720205 0.409536 0.69418
777 1 0.621999 0.0631456 0.725412
778 2 0.759583 0.556289 0.517532
779 2 0.817191 0.89509 0.655255
780 1 0.703668 0.571468 0.413425
781 2 0.826559 0.266402 0.58277
782 2 0.832251 0.888197 0.83317
783 1 0.711404 0.0350135 0.787171
784 2 0.986694 0.57832 0.86591
785 2 0.430354 0.59395 0.898323
786 1 0.806879 0.582067 0.633979
787 2 0.387205 0.422328 0.782633
788 2 0.407476 0.842384 0.627039
789 2 0.528435 0.397968 0.352644
790 2 0.0545153 0.635861 0.820082
791 1 0.404777 0.0327476 0.5262
792 2 0.524484 0.133453 0.256786
793 2 0.0220849 0.512602 0.6338
794 2 0.351688 0.962299 0.42264
795 2 0.576133 0.184716 0.00873958
796 2 0.00895455 0.542239 0.736661
797 2 0.736087 0.665751 0.551065
798 2 0.888579 0.666312 0.785723
799 2 0.463823 0.794634 0.222202
800 2 0.98259 0.0554668 0.074458
801 2 0.435112 0.804955 0.93283
802 2 0.863264 0.732595 0.714914
803 2 0.122931 0.0484496 0.620717
804 2 0.836452 0.463812 0.413953
805 2 0.202173 0.0646244 0.421151
806 1 0.542225 0.687467 0.165215
807 2 0.369154 0.741748 0.994877
808 2 0.254216 0.379671 0.826934
809 1 0.850821 0.587938 0.508938
810 2 0.362928 0.135048 0.774863
811 2 0.39377 0.274679 0.23682
812 2 0.743777 0.537193 0.492585
813 1 0.285246 0.178158 0.717997
814 2 0.886486 0.241773 0.553106
815 2 0.744091 0.566993 0.442075
816 1 0.711998 0.579194 0.507869
817 1 0.612391 0.0849219 0.785394
818 2 0.89588 0.0493387 0.327753
819 1 0.768521 0.673576 0.522076
820 1 0.635214 0.940656 0.711668
821 2 0.603747 0.0329662 0.778971
822 2 0.646789 0.996577 0.807511
823 1 0.0576819 0.180749 0.982268
824 2 0.792978 0.339655 0.785248
825 2 0.748492 0.585939 0.512725
826 2 0.799797 0.578418 0.152982
827 1 0.952442 0.936138 0.218819
828 2 0.252409 0.834071 0.734369
829 2 0.751097 0.526093 0.49832
830 2 0.241755 0.137965 0.548098
831 1 0.455077 0.298674 0.837259
832 2 0.334471 1.00017 0.2702
833 1 0.283869 0.66863 0.376287
834 2 0.869196 0.532934 0.720341
835 2 0.708206 0.114216 0.226105
836 2 0.768558 0.239195 0.832217
837 2 0.0391595 0.111558 0.139965
838 2 0.585642 0.581519 0.0733323
839 2 0.128211 0.21407 0.248993
840 2 0.648764 0.946371 0.761131
841 2 0.295625 0.326021 0.0778438
842 2 0.121065 0.799363 0.808585
843 2 0.452301 0.00556721 0.385316
844 2 0.504231 0.247262 0.295515
845 2 0.104519 0.870419 0.717852
846 2 0.440702 0.68783 0.238637
847 2 0.0299076 0.942404 0.986665
848 2 0.666849 0.747537 0.786165
849 1 0.87026 0.379648 0.175992
850 2 0.356219 0.489064 0.291543
851 2 0.626243 0.991732 0.825808
852 2 0.344704 0.291825 0.757209
853 1 0.472499 0.718863 0.979349
854 2 0.829321 0.18514 0.445936
855 2 0.829084 0.0848709 0.144392
856 2 0.984902 0.54884 0.366334
857 2 0.384726 0.331399 0.0993465
858 2 0.998693 0.707162 0.499463
859 2 0.917169 0.850637 0.582153
860 2 0.892321 0.0328361 0.105806
861 2 0.56073 0.279179 0.160176
862 2 0.446567 0.610484 0.0195989
863 2 0.537116 0.5543 0.22503
864 2 0.699384 0.108955 0.76945
865 2 0.0863428 0.281236 0.730708
866 2 0.752128 0.534965 0.51541
867 2 0.191157 0.538043 0.576744
868 2 0.489193 0.364612 0.0119333
869 2 0.22611 0.328012 0.453224
870 2 0.103324 0.644534 0.832691
871 2 0.799943 0.553661 0.873011
872 2 0.674845 0.965993 0.81858
873 2 0.515968 0.815661 0.31246
874 2 0.829896 0.6222 0.539442
875 2 0.503503 0.191981 0.346003
876 2 0.986596 0.885496 0.242106
877 2 0.850026 0.166027 0.901229
878 2 0.0533102 0.104917 0.527687
879 2 0.995297 0.585183 0.393014
880 2 0.087195 0.029799 0.276464
881 2 0.438169 0.894168 0.60852
882 1 0.305363 0.372132 0.0990196
883 1 0.635148 0.0179471 0.866687
884 2 0.453499 0.102534 0.338963
885 2 0.91254 0.103043 0.286828
886 2 0.422493 0.89878 0.632302
887 1 0.977304 0.0720978 0.366161
888 2 0.340771 0.453027 0.121735
889 2 0.221844 0.353096 0.403863
890 1 0.647851 0.384488 0.683411
891 2 0.613852 0.92159 0.433841
892 2 0.773136 0.593654 0.533979
893 2 0.673129 0.243787 0.24065
894 2 0.607348 0.964942 0.745457
895 1 0.142248 0.437959 0.547139
896 2 0.0911608 0.814761 0.281092
897 2 0.908561 0.295732 0.0799478
898 2 0.60557 0.57349 0.0208591
899 2 0.612214 0.733141 0.991867
900 2 0.614532 0.977342 0.777853
901 2 0.00638721 0.141231 0.241185
902 2 0.946155 0.633776 0.480645
903 2 0.658244 0.0323299 0.773544