ITEM: TIMESTEP
33600
ITEM: NUMBER OF ATOMS
1000
ITEM: BOX BOUNDS xy xz yz pp pp pp
0.0000000000000000e+00 1.3572088000000001e+01 0.0000000000000000e+00
0.0000000000000000e+00 1.3572088000000001e+01 0.0000000000000000e+00
0.0000000000000000e+00 1.3572088000000001e+01 0.0000000000000000e+00
ITEM: ATOMS id type xs ys zs
1 2 0.204747 0.0766586 0.516678
2 2 0.272112 0.624341 0.615448
3 1 0.131942 0.141295 0.616465
4 2 0.295228 0.928651 0.714233
5 2 0.0752461 0.130356 0.483203
6 1 0.903205 0.802771 0.689349
7 2 0.473789 0.844581 0.467314
8 2 0.206156 0.983867 0.8107
9 2 0.580173 0.956993 0.916308
10 2 0.532717 0.983509 0.501585
11 2 0.220999 0.257866 0.208961
12 2 0.56952 0.801696 0.606986
13 2 0.614167 0.982813 0.951903
14 1 0.404624 0.00627046 0.68408
15 2 0.67808 0.761747 0.21396
16 2 0.592539 0.479959 0.906059
17 1 0.725226 0.843858 0.266198
18 2 0.648706 0.880829 0.0400359
19 2 0.674073 0.675298 0.572679
20 2 0.753506 0.719358 0.596534
21 2 0.0149992 0.32578 0.570686
22 2 0.950047 0.111519 0.220018
23 2 0.940438 0.281827 0.259289
24 2 0.890666 0.757356 0.222083
25 1 0.305291 0.322122 0.792059
26 2 0.446903 0.418989 0.282944
27 2 0.488956 0.111729 0.850524
28 2 0.546136 0.0950362 0.710551
29 2 0.637067 0.966257 0.666325
30 2 0.509349 0.474254 0.0965729
31 1 0.125568 0.386446 0.181389
32 1 0.944833 0.459706 0.21279
33 1 0.465689 0.213134 0.722329
34 2 0.0590703 0.0704756 0.646371
35 2 0.284823 0.612256 0.0612926
36 1 0.484124 0.0357232 0.737272
37 2 0.643991 0.846226 0.0916421
38 2 0.585663 0.24117 0.23628
39 2 0.195884 0.202111 0.260209
40 2 0.221459 0.0587688 0.183523
41 2 0.526576 0.385895 0.183796
42 2 0.980218 0.291415 0.0565601
43 2 0.562806 0.992284 0.63218
44 2 0.219816 0.608137 0.310757
45 2 0.608118 0.899469 0.149156
46 1 0.202838 0.77169 0.679875
47 2 0.447519 0.653675 0.823255
48 2 0.646119 0.964877 0.247687
49 2 0.13723 0.736774 0.481566
50 2 0.610005 0.503603 0.148853
51 2 0.260804 0.0823555 0.701875
52 2 0.883986 0.877244 0.427295
53 2 0.805539 0.873465 0.316931
54 2 0.596646 0.968248 0.802775
55 1 0.184136 0.802053 0.442777
56 1 0.499829 0.735835 0.58577
57 2 0.345422 0.128295 0.705064
58 2 0.725843 0.951939 0.50274
59 2 0.478048 0.665052 0.383857
60 2 0.927988 0.111999 0.385583
61 2 0.644598 0.959644 0.583609
62 2 0.125007 0.71527 0.519311
63 2 0.487737 0.743121 0.0539056
64 2 0.011631 0.904265 0.678975
65 2 0.219111 0.833988 0.413334
66 1 0.450702 0.603816 0.197382
67 2 0.345121 0.365338 0.61826
68 2 0.97277 0.491515 0.911428
69 1 0.0302884 0.652132 0.600768
70 2 0.647383 0.504007 0.383706
71 1 0.439901 0.910425 0.754746
72 2 0.330835 0.522355 0.801032
73 2 0.488577 0.85567 0.493742
74 2 0.382716 0.601168 0.987119
75 2 0.625109 0.117739 0.0369567
76 2 0.115163 0.0881261 0.929428
77 1 0.807175 0.227296 0.383603
78 2 0.294116 0.593124 0.590347
79 2 0.0777796 0.118345 0.642756
80 2 0.125033 0.166547 0.84486
81 2 0.553099 0.830558 0.481319
82 2 0.70652 0.76593 0.593447
83 2 0.262553 0.0866656 0.190566
84 2 0.645036 0.667874 0.467083
85 1 0.613332 0.585729 0.650557
86 2 0.679087 0.941816 0.632875
87 2 0.945297 0.975798 0.0399463
88 2 0.261592 0.26851 0.542694
89 2 0.782715 0.52402 0.585863
90 2 0.108256 0.134014 0.271294
91 2 0.331618 0.497541 0.0773373
92 2 0.713705 0.357354 0.491448
93 2 0.583628 0.0860566 0.770255
94 1 0.977292 0.780835 0.682658
95 2 0.759214 0.82937 0.130251
96 2 0.474408 0.0698942 0.444801
97 2 0.0365361 0.985616 0.156901
98 2 0.743774 0.590686 0.349915
99 2 0.334163 0.501777 0.643826
100 2 0.332174 0.161084 0.396473
101 1 0.58657 0.633204 0.968932
102 2 0.228451 0.798646 0.748483
103 2 0.644993 0.584624 0.598287
104 2 0.129841 0.599029 0.35031
105 2 0.894394 0.689733 0.562422
106 2 0.903705 0.8804 0.714483
107 2 0.979681 0.926967 0.425661
108 2 0.0326777 0.334739 0.745996
109 2 0.500812 0.126568 0.818463
110 2 0.454507 0.0373936 0.781077
111 2 0.617462 0.126502 0.978502
112 1 0.330334 0.242134 0.745138
113 1 0.954231 0.336264 0.246256
114 2 0.623351 0.084176 0.365283
115 2 0.381229 0.449301 0.416421
116 2 0.984508 0.752277 0.793633
117 2 0.701092 0.979566 0.119997
118 2 0.668525 0.624183 0.48756
119 2 0.530846 0.303094 0.150793
120 2 0.592027 0.677663 0.578815
121 2 0.781827 0.646926 0.552548
122 2 0.0545349 0.214671 0.0336658
123 2 0.413681 0.313132 0.862553
124 2 0.146644 0.767686 0.569279
125 1 0.247933 0.171262 0.209468
126 2 0.987477 0.839251 0.936828
127 2 0.652376 0.761102 0.103725
128 2 0.0671201 0.989276 0.766951
129 1 0.283794 0.590583 0.551814
130 2 0.535062 0.127656 0.798327
131 2 0.8554 0.942958 0.259802
132 2 0.170091 0.172834 0.878325
133 2 0.722396 0.821277 0.779636
134 2 0.106738 0.354107 0.635479
135 2 0.654443 0.157558 0.392036
136 2 0.710404 0.678176 0.590292
137 1 0.687068 0.755563 0.973348
138 2 0.121896 0.570459 0.739858
139 2 0.748799 0.549115 0.123662
140 1 0.471512 0.606102 0.593277
141 2 0.02908 0.728525 0.525084
142 2 0.190794 0.688055 0.267376
143 2 0.275734 0.960828 0.822645
144 2 0.0894462 0.379195 0.694383
145 2 0.281325 0.80045 0.711394
146 2 0.353699 0.596414 0.0131462
147 1 0.548004 0.931231 0.849703
148 1 0.634602 0.235501 0.454871
149 2 0.891477 0.0225788 0.680918
150 1 0.511628 0.975271 0.648712
151 2 0.911512 0.61176 0.783759
152 2 0.252781 0.15133 0.0774076
153 1 0.756253 0.445564 0.631832
154 1 0.525566 0.0683951 0.749176
155 2 0.496017 0.808387 0.784108
156 2 0.677265 0.0325339 0.367589
157 2 0.871123 0.847136 0.508626
158 2 0.316306 0.67825 0.505424
159 2 0.598719 0.543649 0.549685
160 2 0.275936 0.54038 0.983832
161 2 0.385368 0.459941 0.541254
162 2 0.0320153 0.517621 0.880364
163 2 0.83364 0.807001 0.222791
164 2 0.588424 0.731446 0.787195
165 2 0.737299 0.499368 0.312144
166 2 0.529528 0.966299 0.170818
167 2 0.57993 0.0097121 0.118556
168 2 0.424799 0.711037 0.377204
169 2 0.135954 0.610332 0.31615
170 2 0.524994 0.854384 0.201734
171 2 0.854558 0.727479 0.790782
172 2 0.172665 0.884668 0.663473
173 1 0.60886 0.670049 0.508479
174 2 0.801475 0.161439 0.487866
175 2 0.933311 0.919511 0.0574261
176 2 0.637051 0.184379 0.585992
177 1 0.883516 0.0418818 0.629396
178 2 0.93607 0.981981 0.797634
179 2 0.332003 0.489833 0.0455415
180 2 0.35025 0.533746 0.726218
181 2 0.460962 0.0666435 0.819654
182 2 0.525689 0.234353 0.133516
183 2 0.676752 0.395778 0.275887
184 2 0.296096 0.529839 0.497889
185 2 0.772936 0.79648 0.592572
186 2 0.659612 0.571942 0.141088
187 2 0.37715 0.479465 0.331031
188 1 0.979772 0.908101 0.816056
189 2 0.205756 0.363032 0.28898
190 2 0.666208 0.653211 0.464989
191 2 0.580352 0.48848 0.43236
192 2 0.569872 0.0170091 0.792731
193 2 0.679747 0.818517 0.376068
194 2 0.229811 0.147419 0.0562045
195 2 0.111103 0.841503 0.116145
196 2 0.605836 0.836158 0.0825721
197 2 0.831585 0.271225 0.901483
198 2 0.194868 0.54953 0.930758
199 2 0.876988 0.00464042 0.0598089
200 1 0.646957 0.479399 0.418222
201 2 0.373997 0.437776 0.644917
202 2 0.655994 0.419956 0.799617
203 2 0.613343 0.351416 0.489291
204 2 0.793281 0.379686 0.426645
205 2 0.482783 0.296873 0.597858
206 2 0.261629 0.766485 0.983187
207 2 0.14748 0.839503 0.310413
208 2 0.715193 0.444641 0.438404
209 2 0.513535 0.199183 0.856102
210 2 0.797811 0.355694 0.753279
211 2 0.783656 0.101323 0.0181278
212 1 0.24587 0.0780064 0.749393
213 2 0.0856021 0.801528 0.313736
214 2 0.387968 0.427468 0.302805
215 2 0.690638 0.028857 0.50066
216 2 0.424462 0.072729 0.601883
217 2 0.475585 0.380225 0.957105
218 2 0.676341 0.0333611 0.78614
219 2 0.197507 0.806295 0.883984
220 2 0.811234 0.969399 0.31264
221 2 0.827359 0.729463 0.124034
222 2 0.324195 0.0178013 0.216548
223 2 0.576864 0.308947 0.564631
224 2 0.878627 0.373714 0.12155
225 1 0.484105 0.303802 0.69962
226 2 0.704291 0.257146 0.659571
227 2 0.430301 0.111362 0.856639
228 2 0.708143 0.651139 0.428784
229 2 0.727448 0.683687 0.427167
230 1 0.41466 0.520103 0.383378
231 2 0.883909 0.961272 0.889832
232 2 0.176299 0.918291 0.663321
233 1 0.482675 0.866363 0.664227
234 2 0.97699 0.60138 0.612127
235 2 0.581077 0.70477 0.946989
236 2 0.313661 0.579568 0.0558103
237 2 0.282098 0.790411 0.240689
238 1 1.00022 0.36099 0.18522
239 1 0.674529 0.587426 0.411506
240 2 0.378021 0.00482683 0.612989
241 2 0.409832 0.240029 0.784682
242 1 0.969159 0.915473 0.16477
243 1 0.740688 0.854721 0.0479335
244 2 0.684 0.575008 0.0931701
245 2 0.389503 0.290592 0.782778
246 1 0.0593103 0.866185 0.47644
247 2 0.318015 0.103588 0.638698
248 2 0.0977358 0.853629 0.27061
249 2 0.197423 0.351193 0.391713
250 2 0.0153498 0.932299 0.193231
251 2 0.464852 0.656686 0.193999
252 2 0.71155 0.586172 0.541584
253 2 0.366742 0.637549 0.283585
254 2 0.512658 0.905589 0.610983
255 2 0.760983 0.223458 0.265202
256 2 0.897962 0.648208 0.443862
257 2 0.942786 0.0345975 0.651121
258 2 0.723118 0.828977 0.841864
259 1 0.713933 0.845083 0.689956
260 2 0.917387 0.00231212 0.305292
261 1 0.0138686 0.35393 0.553756
262 2 0.61896 0.645343 0.590553
263 2 0.765633 0.413975 0.436959
264 2 0.189978 0.173914 0.699599
265 1 0.159082 0.650667 0.722573
266 2 0.420871 0.456393 0.797568
267 2 0.115774 0.9905 0.494131
268 1 0.397016 0.940934 0.236175
269 1 0.148265 0.758969 0.629251
270 2 0.106764 0.140604 0.469356
271 2 0.202871 0.528679 0.336901
272 2 0.281032 0.0717845 0.71874
273 1 0.732581 0.652167 0.465161
274 2 0.895755 0.879811 0.156003
275 2 0.249983 0.364205 0.932651
276 2 0.808746 0.737461 0.134742
277 2 0.573453 0.147702 0.655061
278 2 0.275029 0.378159 0.119631
279 2 0.141819 0.959397 0.116702
280 1 0.591093 0.209825 0.600151
281 2 0.252519 0.227314 0.974977
282 2 0.0034624 0.752644 0.958763
283 2 0.469838 0.221671 0.0709687
284 1 0.112419 0.679197 0.643443
285 2 0.587138 0.502336 0.88993
286 2 0.555036 0.953032 0.888771
287 1 0.829402 0.175916 0.209857
288 2 0.0865033 0.719697 0.99865
289 2 0.610922 0.610396 0.105744
290 2 0.202285 0.776682 0.781561
291 2 0.637612 0.669408 0.949241
292 2 0.565041 0.919719 0.551574
293 2 0.274147 0.800523 0.914297
294 2 0.769143 0.589914 0.533022
295 2 0.84108 0.822649 0.903574
296 2 0.675124 0.405238 0.33663
297 2 0.689384 0.872739 0.982441
298 2 0.655143 0.118963 0.0710497
299 1 0.398306 0.0492727 0.897726
300 2 0.721366 0.58009 0.942285
301 2 0.702577 0.142821 0.159828
302 2 0.525879 0.65742 0.330183
303 2 0.0773588 0.108386 0.376291
304 1 0.886658 0.953478 0.0797674
305 2 0.207785 0.883799 0.227422
306 2 0.185705 0.942876 0.573797
307 2 0.964109 0.124373 0.312997
308 2 0.742508 0.582313 0.452814
309 2 0.200895 0.0774077 0.90628
310 2 0.839757 0.665742 0.103488
311 2 0.9511 0.399391 0.14159
312 2 0.108659 0.343 0.321334
313 2 0.791542 0.489165 0.540612
314 2 0.358751 0.384945 0.426335
315 2 0.0705507 0.615769 0.724285
316 2 0.186558 0.880581 0.878068
317 2 0.670974 0.630607 0.460316
318 2 0.464286 0.965785 0.958878
319 2 0.173935 0.8475 0.837621
320 2 0.146455 0.388351 0.309594
321 2 0.607451 0.448389 0.459191
322 2 0.236627 0.669716 0.4347
323 2 0.633768 0.388751 0.67912
324 2 0.724047 0.677428 0.860612
325 2 0.975935 0.952678 0.0138828
326 2 0.217106 0.119587 0.156506
327 2 0.22859 0.114402 0.460479
328 2 0.295774 0.392941 0.249094
329 1 0.832745 0.805741 0.62018
330 2 0.618262 0.744063 0.833034
331 2 0.019143 0.0289214 0.562767
332 2 0.127133 0.743503 0.412198
333 2 0.889437 0.721511 0.71497
334 2 0.611822 0.520896 0.884265
335 1 0.0512927 0.00165131 0.252304
336 2 0.766895 0.61424 0.477978
337 2 0.710821 0.0113129 0.500816
338 1 0.287775 0.327421 0.0879119
339 2 0.530038 0.0932047 0.542326
340 2 0.548471 0.285678 0.190702
341 2 0.0781805 -0.000252325 0.15167
342 2 0.418262 0.810277 0.0582938
343 2 0.356196 0.221892 0.358421
344 1 0.60096 0.0095507 0.585222
345 1 0.709548 0.562729 0.487414
346 1 0.308723 0.744833 0.702162
347 1 0.802018 0.500691 0.13485
348 2 0.117354 0.548948 0.10028
349 2 0.830116 0.825069 0.0219118
350 2 0.191526 0.20897 0.38046
351 2 0.187127 0.82553 0.615833
352 2 0.753286 0.91953 0.307901
353 1 0.60946 0.741473 0.599266
354 1 0.712341 0.330297 0.290102
355 2 0.355568 0.559845 0.696463
356 2 0.648517 0.559405 0.490118
357 2 0.619192 0.30551 0.804893
358 2 0.872488 0.999237 0.655138
359 2 0.40362 0.727366 0.817759
360 2 0.634046 0.480476 0.200542
361 1 0.721916 0.486501 0.464836
362 2 0.234443 0.52726 0.104442
363 1 0.157807 0.771798 0.526244
364 2 0.844423 0.927105 0.417747
365 2 0.360636 0.647282 0.705486
366 2 0.13198 0.340731 0.33878
367 1 0.633383 0.627362 0.686793
368 1 0.260072 0.153669 0.0217257
369 2 0.157347 0.85753 0.794073
370 2 0.780462 0.396267 0.174981
371 2 0.364868 0.626675 0.985303
372 1 0.654519 0.448288 0.351625
373 2 0.605048 0.00526184 0.53788
374 2 0.732877 0.198901 0.116577
375 2 0.163933 0.729377 0.664916
376 2 0.493932 0.387496 0.776543
377 2 0.786455 0.640254 0.498988
378 2 0.202727 0.667069 0.992465
379 2 0.91912 0.354743 0.820626
380 2 0.927433 0.385216 0.135221
381 2 0.48039 0.808421 0.0236742
382 2 0.062496 0.00407006 0.0878312
383 2 0.823634 0.486644 0.558596
384 1 0.364232 0.506817 0.262358
385 2 0.1201 0.0978928 0.755886
386 2 0.63455 0.0274565 0.615217
387 1 0.63982 0.776264 0.804387
388 2 0.372124 0.458207 0.324896
389 2 0.411682 0.819662 1.00076
390 2 0.774494 0.973478 0.160227
391 2 0.165301 0.223034 0.557841
392 1 0.515053 0.337809 0.500746
393 2 0.342549 0.565308 0.60092
394 2 0.987678 0.215161 0.741526
395 2 0.587071 0.259735 0.624836
396 2 0.526663 0.967681 0.822689
397 2 0.562129 0.180353 0.93216
398 1 0.718154 0.557249 0.0308946
399 1 0.591275 0.289704 0.241917
400 1 0.879653 0.636483 0.671304
401 2 0.426788 0.503951 0.285157
402 2 0.127706 0.670549 0.499455
403 2 0.867902 0.107116 0.345132
404 2 0.245132 0.659593 0.672644
405 2 0.890428 0.639867 0.865233
406 2 0.183484 0.155976 0.201497
407 2 0.348321 0.200894 0.348855
408 2 0.600931 0.478528 0.954509
409 2 0.999912 0.304712 0.0817482
410 2 0.615794 0.151712 0.965386
411 2 0.475917 0.706908 0.316678
412 2 0.865831 0.710117 0.444246
413 2 0.821225 0.622545 0.485196
414 2 0.806117 0.065683 0.744949
415 2 0.246897 0.519466 0.606543
416 1 0.835323 0.512966 0.615809
417 2 0.117082 0.782463 0.725157
418 2 0.393109 0.258575 0.838378
419 2 0.331727 0.102542 0.369717
420 2 0.134153 0.0723426 0.958882
421 1 0.958893 0.0274298 -0.00059332
422 1 0.170971 0.931123 0.473868
423 2 0.548561 0.161071 0.540766
424 2 0.394838 0.670624 0.675472
425 1 0.111617 0.956349 0.569914
426 2 0.495453 0.0636627 0.80075
427 2 0.10787 0.381538 0.658213
428 2 0.602032 0.752835 0.122411
429 2 0.901555 0.893831 0.0221105
430 2 0.676549 0.434109 0.308378
431 2 0.86444 0.851481 0.62315
432 1 0.405657 0.582033 0.602315
433 2 0.621912 0.483269 0.803287
434 1 0.633291 0.252754 0.360771
435 2 0.658123 0.479168 0.24371
436 2 0.721196 0.299543 0.375948
437 2 0.844672 0.845331 0.877257
438 2 0.126249 0.196417 0.19176
439 1 0.353087 0.37054 0.549601
440 2 0.521765 0.452286 0.752185
441 1 0.667427 0.0298537 0.0288855
442 1 0.331105 0.492597 0.330578
443 1 0.540231 0.436561 0.437862
444 2 0.729277 0.603782 0.42398
445 2 0.13929 0.339727 0.438893
446 2 0.68841 0.474133 0.32676
447 2 0.631647 0.801599 0.729418
448 2 0.278617 0.74869 0.153765
449 1 0.4501 0.106075 0.63693
450 2 0.104247 0.532058 0.628098
451 2 0.307835 0.0863192 0.746351
452 2 0.3685 0.934145 0.520412
453 1 0.656554 0.038805 0.544648
454 2 0.470651 0.344576 0.568869
455 2 0.319518 0.246678 0.374991
456 2 0.602283 0.309738 0.633748
457 2 0.53435 0.974184 0.787811
458 2 0.962295 0.812775 0.0531175
459 2 0.845864 0.0919216 0.655016
460 2 0.370964 0.00992848 0.205138
461 2 0.61079 0.765341 0.0334573
462 2 0.516726 0.124047 0.705741
463 1 0.0111291 0.384719 0.639689
464 2 0.316042 0.297041 0.715357
465 2 0.982322 0.84102 0.974242
466 2 0.67626 0.872643 0.79295
467 1 0.650445 0.646344 0.777361
468 2 0.348251 0.990633 0.561231
469 2 0.850187 0.415159 0.142521
470 2 0.944834 0.633301 0.661274
471 2 0.780264 0.982665 0.823836
472 2 0.312089 0.404846 0.776918
473 1 0.919088 0.999519 0.871334
474 1 0.832405 0.762334 0.949239
475 1 0.880878 0.897319 0.0565471
476 2 0.473159 0.942754 0.583477
477 2 0.678504 0.250756 0.900795
478 2 0.999852 0.942548 0.445594
479 2 0.448494 0.421391 0.675968
480 2 0.186214 0.223054 0.281982
481 2 0.429685 0.135007 0.686747
482 2 0.530375 0.988477 0.680499
483 2 0.957467 0.916611 0.202117
484 1 0.902735 0.0262227 0.283062
485 1 0.865293 0.951268 0.984578
486 2 0.423032 0.923317 0.395762
487 2 0.913989 0.180733 0.584308
488 2 0.685912 0.10065 0.161092
489 2 0.317896 0.384327 0.427239
490 2 0.651566 0.60773 0.487373
491 2 0.209547 0.229587 0.210985
492 2 0.828323 0.93129 0.234562
493 2 0.116577 0.055681 0.875494
494 2 0.183537 0.33963 0.530761
495 2 0.559758 0.324726 0.960657
496 2 0.783594 0.940047 0.790828
497 2 0.237897 0.954717 0.812917
498 1 0.97634 0.910139 0.955019
499 2 0.094334 0.205242 0.939332
500 2 0.669944 0.218042 0.566201
501 1 0.810344 0.641035 0.652751
502 2 0.855388 0.291624 0.625029
503 2 0.469021 0.06486 0.708325
504 1 0.493381 0.97321 0.766464
505 2 0.181271 0.827153 0.812495
506 2 0.113994 0.40298 0.0940185
507 2 0.671293 0.485217 0.0448837
508 2 0.0139855 0.583204 0.0053276
509 1 0.350776 0.565779 0.752002
510 2 0.773647 0.641342 0.503852
511 2 0.497537 0.751087 0.719091
512 2 0.974081 0.306199 0.330091
513 1 0.0473354 0.130938 0.359425
514 2 0.632419 0.443567 0.47885
515 1 0.523793 0.706434 0.840104
516 2 0.473023 0.342613 0.730284
517 1 0.00115926 0.00144521 0.0195962
518 2 0.631743 0.435054 0.771478
519 2 0.530837 0.859019 0.756701
520 2 0.737997 0.863541 0.397134
521 2 0.734414 0.307742 0.0921437
522 2 0.266356 0.522445 0.917865
523 2 0.898282 0.515599 0.748114
524 2 0.283497 0.580062 0.72069
525 2 0.921244 0.853736 0.719614
526 2 0.0353689 0.903954 0.181395
527 2 0.14281 0.66805 0.321768
528 1 0.445754 0.0254642 0.855596
529 2 0.557145 0.277933 0.118576
530 2 0.897171 0.629366 0.342947
531 2 0.527274 0.111385 0.691054
532 2 0.163148 0.375222 0.482076
533 2 0.522992 0.879526 0.91098
534 1 0.607625 0.617623 0.588354
535 2 0.90931 0.473071 0.463239
536 1 0.480062 0.647342 0.649705
537 1 0.456728 0.779503 0.52541
538 2 0.993499 0.0145703 0.57301
539 2 0.346719 0.511674 0.732848
540 2 0.517199 0.0569918 0.408848
541 1 0.410484 0.674764 0.602681
542 2 0.534236 0.6526 0.0356139
543 1 0.102616 0.921873 0.114472
544 1 0.669193 0.700386 0.468306
545 2 0.438125 0.571348 0.663032
546 2 0.11245 0.754971 0.161247
547 2 0.564753 0.0328771 0.74053
548 2 0.458366 0.190059 0.477906
549 2 0.299913 0.87769 0.20495
550 2 0.546898 0.128283 0.283218
551 1 0.660187 0.316868 0.298786
552 2 0.274946 0.149633 0.326672
553 2 0.745873 0.795813 0.923349
554 2 0.102661 0.146453 0.702497
555 1 0.466261 0.0184657 0.63959
556 2 0.629204 0.143944 0.639713
557 2 0.623626 0.110174 0.162216
558 1 0.301564 0.254085 0.458112
559 2 0.26077 0.838765 0.489455
560 2 0.872507 0.809614 0.11397
561 2 0.32738 0.0920747 0.167381
562 1 0.325792 0.626109 0.569614
563 2 0.53376 0.509167 0.0922057
564 2 0.232046 0.694872 0.82891
565 2 0.147144 0.552524 0.886926
566 2 0.364572 0.388112 0.827086
567 2 0.271867 0.569133 0.990415
568 2 0.888519 0.655626 0.0698302
569 1 0.623515 0.921014 0.983215
570 2 0.875022 0.713124 0.544358
571 2 0.787675 0.894192 0.28244
572 2 0.376148 0.510281 0.0777065
573 2 0.706596 0.390891 0.345235
574 2 0.906619 0.928108 0.633109
575 1 0.893256 0.93658 0.140816
576 2 0.761536 0.450878 0.856621
577 2 0.591158 0.0578424 0.574289
578 1 0.389159 0.561731 0.339236
579 2 0.363995 0.11379 0.0198422
580 1 0.030187 0.878829 0.943042
581 2 0.510495 0.426539 0.702205
582 2 0.446972 0.44505 0.278717
583 1 0.737875 0.646768 0.569968
584 2 0.701114 0.540962 0.634556
585 1 0.923611 0.427254 0.0426231
586 2 0.391415 0.808154 0.965693
587 2 0.109225 0.549417 0.267113
588 2 0.820493 0.0258702 0.312399
589 1 0.925108 0.528783 0.566804
590 1 0.815966 0.00549541 0.695746
591 1 0.801399 0.562802 0.477544
592 2 0.130262 0.509518 0.498874
593 2 0.186548 0.703997 0.0734888
594 1 0.217739 0.161452 0.74517
595 1 0.467899 0.103903 0.761834
596 2 0.772374 0.468836 0.753753
597 1 0.547928 0.0502995 0.665473
598 2 0.579154 0.0184054 0.869197
599 2 0.181262 0.651286 0.464634
600 2 0.849321 0.828562 0.42012
601 2 0.583686 0.970928 0.115041
602 1 0.632693 0.303698 0.117504
603 2 0.309496 0.208714 0.750288
604 1 0.713082 0.242748 0.998816
605 2 0.219336 0.206969 0.314387
606 2 0.825961 0.063185 0.0969771
607 1 0.050644 0.310195 0.257391
608 2 0.537161 0.665355 0.777641
609 2 0.146744 0.00138708 0.545393
610 2 0.803612 0.568948 0.664618
611 2 0.249281 0.119015 0.253414
612 1 0.61211 0.556249 0.436016
613 2 0.941002 0.703947 0.609101
614 1 0.445258 0.693636 0.801841
615 2 0.97476 0.852211 0.253173
616 1 0.378452 0.0645292 0.628043
617 2 0.967646 0.285866 0.76927
618 2 0.805347 0.390165 0.772417
619 2 0.515746 0.0840192 0.670889
620 2 0.906895 0.383083 0.103421
621 2 0.945336 0.803076 0.161874
622 2 0.285781 0.344125 0.682267
623 1 0.0880913 0.971915 0.0314698
624 2 0.963913 0.403443 0.626771
625 2 0.264746 0.989976 0.768065
626 2 0.150959 0.314696 0.241403
627 2 0.753709 0.0324683 0.492713
628 2 0.860634 0.112732 0.16536
629 2 0.00317841 0.256044 0.145733
630 1 0.367769 0.396617 0.784642
631 2 0.972583 0.143976 0.123324
632 2 0.432754 0.78908 0.0784884
633 2 0.32465 0.671022 0.633172
634 2 0.802088 0.749423 0.44592
635 2 0.498036 0.150044 0.281874
636 2 0.896249 0.776922 0.598234
637 2 0.237607 0.598036 0.927297
638 1 0.00540688 0.944471 0.0485957
639 2 0.431423 0.0233731 0.91961
640 2 0.675562 0.681774 0.411012
641 2 0.118233 0.547277 0.745828
642 2 0.423594 0.922255 0.939865
643 2 0.219427 0.990018 0.210998
644 2 0.135461 0.020514 0.744152
645 1 0.419656 0.00147698 0.806413
646 2 0.798526 0.8178 0.957397
647 1 0.711875 0.616769 0.52181
648 2 0.982292 0.144373 0.344884
649 2 0.0790382 0.1133 0.786394
650 2 0.763123 0.778364 0.868058
651 2 0.935596 0.199726 0.708
652 2 0.543959 0.332024 0.273445
653 2 0.718976 0.934127 0.943473
654 1 0.365396 0.597557 0.641331
655 2 0.965036 0.651013 0.304156
656 2 0.509407 0.673001 0.602177
657 2 0.563013 0.28651 0.952877
658 2 0.703495 0.662485 0.143232
659 2 0.717027 0.0618849 0.187131
660 2 0.7957 0.87522 0.626029
661 1 0.638461 0.0540485 0.158761
662 2 0.0416874 0.378811 0.0351232
663 2 0.562337 0.852271 0.330413
664 1 0.693835 0.593702 0.802475
665 2 0.1886 0.342592 0.99031
666 2 0.43853 0.0788028 0.708051
667 2 0.360508 0.753663 0.779387
668 2 0.475708 0.0889797 0.606017
669 2 0.506018 0.325762 0.597477
670 1 0.489108 0.463898 0.467765
671 2 0.976079 0.533503 0.118623
672 1 0.731677 0.538418 0.421832
673 2 0.0108763 0.491063 0.580359
674 2 0.228636 0.67783 0.499511
675 2 0.682652 0.584074 0.478404
676 1 0.200015 0.984495 0.558894
677 2 0.710068 0.469146 0.631437
678 2 0.910702 0.965325 0.830412
679 1 0.340319 0.392209 0.202896
680 2 0.278377 0.435087 0.527489
681 1 0.32347 0.58241 0.978759
682 1 0.516523 0.0172024 0.809956
683 2 0.923274 0.755803 0.965384
684 2 0.0552798 0.547165 0.865846
685 2 0.19254 0.849596 0.421372
686 2 0.173776 0.922524 0.547872
687 1 0.605741 0.186658 0.747695
688 2 0.727995 0.670569 0.520247
689 2 0.856413 0.244716 0.0836517
690 2 0.995896 0.603753 0.219489
691 2 0.713568 0.0140258 0.301483
692 1 0.506096 0.97489 0.550937
693 2 0.957043 0.645952 0.888845
694 2 0.159798 0.507656 0.734803
695 1 0.0327152 0.600761 0.663216
696 2 0.245177 0.664293 0.566464
697 2 0.687476 0.645671 0.49457
698 2 0.530934 0.0974487 0.0554799
699 2 0.643875 0.196989 0.0995833
700 1 0.50695 0.923962 0.812627
701 2 0.0536041 -0.00168068 0.192971
702 2 0.927422 0.960237 0.94163
703 2 0.735005 0.862522 0.507031
704 2 0.12861 0.424671 0.888593
705 2 0.368688 0.212562 0.849026
706 2 0.846239 0.979082 0.914743
707 2 0.270732 0.575031 0.0175369
708 1 0.129355 0.828588 0.468683
709 2 0.979496 0.101545 0.912163
710 2 0.0713374 0.620419 0.647584
711 2 0.925173 0.0652804 0.674757
712 1 0.690388 0.694337 0.799617
713 2 0.605921 0.485036 0.868826
714 1 0.59867 0.730804 0.00812345
715 2 0.804407 0.429787 0.452726
716 1 0.812662 0.818525 0.506114
717 2 0.0371713 0.203874 0.727403
718 2 0.38066 0.685596 0.936699
719 2 0.683752 0.00676969 0.562503
720 2 0.452201 0.428942 0.7907
721 2 0.333238 0.552413 0.243321
722 1 0.311215 0.67994 0.700968
723 2 0.321148 0.680488 -0.00186595
724 2 0.515545 0.189698 0.19458
725 2 0.684158 0.284795 0.59265
726 2 0.927868 0.0331383 0.693814
727 1 0.653514 0.653445 0.324575
728 1 0.661361 0.928811 0.586383
729 1 0.845705 0.315825 0.774617
730 1 0.616055 0.816056 0.607107
731 2 0.390797 0.676671 0.451549
732 1 0.254375 0.962805 0.339287
733 2 0.597923 0.729613 0.140323
734 2 0.0399663 0.8773 0.441281
735 2 0.735667 0.580301 0.409098
736 1 0.773691 0.698715 0.561226
737 2 0.442464 0.338046 0.615853
738 2 0.415966 0.0776086 0.354529
739 2 0.585526 0.00869311 0.994885
740 2 0.884769 0.388542 0.156588
741 2 0.90676 0.549283 0.116509
742 1 0.326768 0.754513 0.577837
743 2 0.672644 0.841663 0.996958
744 2 0.0124175 0.625002 0.920637
745 2 0.674285 0.482208 0.000720094
746 1 0.574926 0.240777 0.506583
747 2 0.19217 0.284601 0.0778666
748 2 0.563341 0.313984 0.490867
749 2 0.706719 0.399576 0.674481
750 2 0.703497 0.635921 0.434022
751 2 0.426288 0.025604 0.727836
752 2 0.489469 0.0968323 0.807454
753 2 0.2281 0.352955 0.171141
754 2 0.0369193 0.911329 0.764792
755 2 0.357175 0.650881 0.871759
756 2 0.951398 0.848489 0.720837
757 2 0.970959 0.896843 0.518311
758 2 0.988118 0.126652 0.741926
759 2 0.419477 0.235237 0.910507
760 1 0.536647 0.00791473 0.859208
761 2 0.0506126 0.0758093 0.377685
762 2 0.443234 0.891544 0.95228
763 1 0.570817 0.34905 0.040341
764 2 0.504105 0.152829 0.78146
765 2 0.68398 0.836446 0.931812
766 2 0.85244 0.780535 0.156436
767 2 0.956484 0.716268 0.989746
768 2 0.447331 0.0367021 0.0295005
769 2 0.454634 0.816759 0.0998573
770 2 -0.000431923 0.0382058 0.87126
771 2 0.624975 0.392197 0.92205
772 2 0.204535 0.204887 0.172888
773 1 0.694036 0.541172 0.366372
774 2 0.436228 0.804762 0.980941
775 2 0.763343 0.182024 0.333043
776 2 0.478612 0.031966 0.845193
777 1 0.570538 0.098847 0.823488
778 2 0.888557 0.730929 0.17193
779 2 0.450562 0.922991 0.0662336
780 1 0.177975 0.222348 0.510626
781 2 0.834685 0.582782 0.443617
782 2 0.768985 0.565226 0.39707
783 1 0.797995 0.856383 0.67725
784 2 0.450491 0.454074 0.717656
785 2 0.0194506 0.525528 0.859128
786 1 0.334298 0.872352 0.594786
787 2 0.853724 0.891922 0.654121
788 2 0.904856 0.694109 0.278507
789 2 0.667324 0.247345 0.124756
790 2 0.835759 0.271017 0.301617
791 1 0.128436 0.540536 0.027452
792 2 0.982762 0.915579 0.229997
793 2 0.765184 0.140846 0.566086
794 2 0.752599 0.106713 0.208998
795 2 0.719826 0.0513122 0.553091
796 2 0.130588 0.555783 0.50439
797 2 0.17044 0.810558 0.163476
798 2 0.564156 0.0369476 0.0726201
799 2 0.981851 0.941675 0.389799
800 2 0.790804 0.581326 0.426869
801 2 0.264646 0.839079 0.829682
802 2 0.873387 0.472209 0.906294
803 2 0.610075 0.071891 0.904408
804 2 0.969163 0.448379 0.389714
805 2 0.239339 0.154353 0.18421
806 1 0.362917 0.427196 0.062343
807 2 0.419098 0.959162 0.846015
808 2 0.0610205 0.385377 0.0207674
809 1 0.561867 0.838786 0.0244319
810 2 0.956045 0.0622243 0.747493
811 2 0.0345373 0.579666 0.903139
812 2 0.994173 0.135899 0.633271
813 1 0.955299 0.427036 0.869691
814 2 0.420888 0.0311402 0.0685562
815 2 0.160589 0.413306 0.130449
816 1 0.701264 0.486867 0.124023
817 1 0.87437 0.707014 0.0992256
818 2 0.0548052 0.587569 0.620103
819 1 0.156578 0.611751 0.046509
820 1 0.596664 0.472987 0.259101
821 2 0.35307 0.205309 0.285955
822 2 0.535078 0.311915 0.964245
823 1 0.365633 0.532335 0.991915
824 2 0.75394 0.535904 0.478635
825 2 0.852326 0.859372 0.528106
826 2 0.163883 0.770414 0.327075
827 1 0.0809694 0.175613 0.144691
828 2 0.369763 0.30219 0.822633
829 2 0.290326 0.0542756 0.958846
830 2 0.809856 0.293867 0.896055
831 1 0.46931 0.838591 0.26706
832 2 0.138862 0.866308 0.0488909
833 1 0.758598 0.399488 0.389876
834 2 0.612764 0.303678 0.961558
835 2 0.494285 0.0699305 0.841208
836 2 0.154725 0.642935 0.311618
837 2 0.346123 0.329796 0.587572
838 2 0.834561 0.935593 0.0452462
839 2 0.415435 0.835277 0.899203
840 2 0.488162 0.380806 0.417981
841 2 0.517688 0.482919 0.177811
842 2 0.92871 0.906409 0.663059
843 2 0.513393 0.982225 0.720376
844 2 0.21501 0.51564 0.129406
845 2 0.633175 0.861987 0.932965
846 2 0.709232 0.0601455 0.513413
847 2 0.993574 0.123743 0.327466
848 2 0.253495 0.504616 0.0317294
849 1 0.615864 0.0496422 0.958708
850 2 0.391047 0.838755 0.216271
851 2 0.748768 0.579742 0.0628285
852 2 0.177013 0.854601 0.146575
853 1 0.103669 0.634956 0.787995
854 2 0.922765 0.546167 0.314752
855 2 0.244044 0.722779 0.789451
856 2 0.383311 0.679509 0.750777
857 2 0.680337 0.535215 0.529865
858 2 0.534605 0.759503 0.771329
859 2 0.672994 0.942277 0.868583
860 2 0.872769 0.265713 0.691064
861 2 0.912809 0.858796 0.0774877
862 2 0.967435 0.877208 0.139294
863 2 0.293279 0.530829 0.571368
864 2 0.195298 0.00442714 0.740037
865 2 0.207412 0.686752 0.606779
866 2 0.666744 0.866173 0.630752
867 2 0.0793819 0.470115 0.391011
868 2 0.0568096 0.903464 0.427294
869 2 0.671417 0.544014 0.454209
870 2 0.336274 0.165369 0.990885
871 2 0.0562034 0.222599 0.838796
872 2 0.0402331 0.498999 0.703951
873 2 0.744379 0.0828546 0.109964
874 2 0.401181 0.519599 0.654975
875 2 0.257878 0.197796 0.177566
876 2 0.172766 0.264865 0.237647
877 2 0.0206834 0.926337 0.406647
878 2 0.383971 0.0950025 0.675803
879 2 0.621752 0.890803 0.0272361
880 2 0.417083 0.500745 0.468893
881 2 0.0650323 0.157361 0.78176
882 1 0.778428 0.853616 0.591362
883 1 0.496913 0.984679 0.917966
884 2 0.563708 0.883537 0.373668
885 2 0.186555 0.721448 0.96031
886 2 0.459355 0.56791 0.421496
887 1 0.395277 0.809332 0.716986
888 2 0.674316 0.587542 0.518784
889 2 0.934537 0.208599 0.268559
890 1 0.456865 0.382169 0.69605
891 2 0.5411 0.548214 0.438184
892 2 0.827014 0.00674301 0.811441
893 2 0.749542 0.182678 0.709453
894 2 0.428529 0.80189 0.442256
895 1 0.78359 0.319771 0.208466
896 2 0.477944 0.869839 0.837194
897 2 0.612768 0.287073 0.439015
898 2 0.936265 0.559435 0.726577
899 2 0.0246351 0.980802 0.612621
900 2 0.590969 0.830149 0.119975
901 2 0.68657 0.416619 0.35776
902 2 0.991409 0.995654 0.410578