ITEM: TIMESTEP
22400
ITEM: NUMBER OF ATOMS
1000
ITEM: BOX BOUNDS xy xz yz pp pp pp
0.0000000000000000e+00 1.3572088000000001e+01 0.0000000000000000e+00
0.0000000000000000e+00 1.3572088000000001e+01 0.0000000000000000e+00
0.0000000000000000e+00 1.3572088000000001e+01 0.0000000000000000e+00
ITEM: ATOMS id type xs ys zs
1 2 0.764354 0.576885 0.704791
2 2 0.513332 0.0242722 0.294264
3 1 0.656172 0.970951 0.625613
4 2 0.863153 0.662388 0.265514
5 2 0.615643 0.88319 0.442411
6 1 0.36288 0.968049 0.181134
7 2 0.0987916 0.853444 0.967012
8 2 0.822452 0.385124 0.438537
9 2 0.641276 0.511581 0.15342
10 2 0.913132 0.879229 0.112725
11 2 0.716694 0.782912 0.722109
12 2 0.802197 0.525198 0.943767
13 2 0.648821 0.453043 0.00669253
14 1 0.777655 0.68793 0.79967
15 2 0.168387 0.887893 0.636293
16 2 0.196114 0.470913 0.99736
17 1 0.100873 0.572736 0.179751
18 2 0.267766 0.095068 0.911169
19 2 0.393188 0.999651 0.445621
20 2 0.568029 0.829202 0.508065
21 2 0.727902 0.869003 0.934549
22 2 0.111363 0.244123 0.196448
23 2 0.356135 0.496588 0.700193
24 2 0.530098 0.74797 0.896625
25 1 0.451073 0.0951739 0.152375
26 2 0.192554 0.220297 0.124799
27 2 0.364995 0.399739 0.759259
28 2 0.627744 0.713512 0.143188
29 2 0.607238 0.268943 0.728294
30 2 0.773359 0.712577 0.339411
31 1 0.067156 0.0670471 0.615524
32 1 0.241171 0.503896 0.332543
33 1 0.544266 0.484366 0.636995
34 2 0.349949 0.731075 0.259186
35 2 0.296684 0.356447 0.149509
36 1 0.823343 0.0349522 0.884083
37 2 0.367511 0.857515 0.654099
38 2 0.673928 0.204316 0.359431
39 2 0.501049 0.304442 0.0592611
40 2 0.462124 0.875812 0.0280447
41 2 0.771356 0.603882 0.777674
42 2 0.303712 0.0579157 0.725566
43 2 0.42123 0.377572 0.121098
44 2 0.792549 0.15329 0.60834
45 2 0.40157 0.292281 0.615577
46 1 0.780239 0.770784 0.0661513
47 2 0.574024 0.0840822 0.820914
48 2 0.369847 0.257238 0.161083
49 2 0.569471 0.163752 0.786806
50 2 0.308656 0.594695 0.71793
51 2 0.665307 0.286952 0.128471
52 2 0.125966 0.00165111 0.290873
53 2 0.0275491 0.411196 0.391793
54 2 0.365202 0.341917 0.810759
55 1 0.417554 0.56219 0.729593
56 1 0.537604 0.373584 0.81909
57 2 0.117716 0.8416 0.413462
58 2 0.397263 0.489664 0.928447
59 2 0.274699 0.126844 0.63508
60 2 0.914264 0.996214 0.657954
61 2 0.926556 0.599564 0.364409
62 2 0.930292 0.231654 0.44121
63 2 0.500597 0.333748 0.769569
64 2 0.582506 0.427179 0.505657
65 2 0.588759 0.814905 0.0757681
66 1 0.283843 0.232179 0.861319
67 2 0.727542 0.519355 0.509031
68 2 0.008682 0.362634 0.849131
69 1 0.898398 0.333652 0.37024
70 2 0.307532 0.3261 0.565255
71 1 0.692924 0.689534 0.247846
72 2 0.862501 0.8791 0.851376
73 2 0.645873 0.449628 0.431669
74 2 0.271588 0.450648 0.521217
75 2 0.542749 0.920794 0.280347
76 2 0.737402 0.0448364 0.538144
77 1 0.505288 0.550315 0.965381
78 2 0.59826 0.216236 0.731358
79 2 0.727684 0.43095 0.648621
80 2 0.240154 0.919732 0.695441
81 2 0.865437 0.722007 0.087522
82 2 0.781498 0.322052 0.69779
83 2 0.943456 0.0515811 0.574383
84 2 0.147138 0.176969 0.501474
85 1 0.742071 0.298179 0.631451
86 2 0.267063 0.151604 0.345014
87 2 0.84743 0.436192 0.829416
88 2 0.149935 0.472934 0.339764
89 2 0.814303 0.730097 0.552861
90 2 0.43374 0.647245 0.741792
91 2 0.794226 0.211615 0.478697
92 2 0.683212 0.35299 0.629321
93 2 0.899774 0.322491 0.241068
94 1 0.202312 0.85628 0.896569
95 2 0.921092 0.31697 0.221678
96 2 0.705938 0.440103 0.745455
97 2 0.228871 0.725048 0.0704216
98 2 0.740537 0.876088 0.739042
99 2 0.534255 0.700813 0.803788
100 2 0.62425 0.800786 0.971107
101 1 0.0962573 0.935966 0.605203
102 2 0.29754 0.78583 0.517872
103 2 0.993345 0.679684 0.556423
104 2 0.935217 0.827536 0.657768
105 2 0.0137464 0.859344 0.146527
106 2 0.970451 0.803096 0.842735
107 2 0.871361 0.386878 0.102329
108 2 0.488521 0.0964279 0.746489
109 2 0.686729 0.79229 0.341791
110 2 0.363746 0.442976 0.833466
111 2 0.802559 0.760088 0.558271
112 1 0.717871 0.786687 0.413876
113 1 0.803959 0.331692 0.403837
114 2 0.140275 0.696207 0.999183
115 2 0.565768 0.918102 0.123172
116 2 0.166254 0.270428 0.129382
117 2 0.977965 0.744917 0.00958484
118 2 0.0291511 0.259133 0.234525
119 2 0.705276 0.288925 0.14224
120 2 0.939218 0.85179 0.185981
121 2 0.944977 0.0800397 0.596283
122 2 0.865424 0.423056 0.35934
123 2 0.373097 0.0126667 0.59637
124 2 0.653506 0.077778 0.164456
125 1 0.67107 0.13554 0.627424
126 2 0.661312 0.237884 0.987255
127 2 0.431778 0.275849 0.550705
128 2 0.74383 0.975045 0.523815
129 1 0.95487 0.804782 0.981139
130 2 0.319208 0.213479 0.615111
131 2 0.499627 0.675546 0.295278
132 2 0.444161 0.609457 0.147897
133 2 0.435314 0.606673 0.192578
134 2 0.94206 0.962218 0.563561
135 2 0.073915 0.076082 0.327612
136 2 0.893445 0.456039 0.260859
137 1 0.607243 0.0314716 0.321567
138 2 0.648786 0.490717 0.14388
139 2 0.670419 0.329985 0.453992
140 1 0.690342 0.130699 0.723093
141 2 0.833018 0.107709 0.496683
142 2 0.576159 0.0391783 0.321835
143 2 0.589734 0.775915 0.304678
144 2 0.450859 0.0966829 0.400058
145 2 0.629952 0.166092 0.732582
146 2 0.629635 0.205826 0.763703
147 1 0.702328 0.294008 0.272785
148 1 0.615573 0.698163 0.65141
149 2 0.510091 0.899443 0.632004
150 1 0.539645 0.888822 0.406281
151 2 0.874619 0.279173 0.384212
152 2 0.899061 0.365679 0.242643
153 1 0.433552 0.762383 0.436925
154 1 0.423252 0.00899285 0.817508
155 2 0.564274 0.202706 0.276874
156 2 0.771841 0.312367 0.340257
157 2 0.550253 0.918038 0.0603414
158 2 0.0670371 0.928734 0.625874
159 2 0.233263 0.610953 0.975925
160 2 0.217135 0.250681 0.152409
161 2 0.757648 0.715003 0.390918
162 2 0.294538 0.420474 0.209685
163 2 0.571414 0.578694 0.989955
164 2 0.517913 0.841404 0.407022
165 2 0.236297 0.959608 0.551937
166 2 0.717888 0.723486 0.715635
167 2 0.805724 0.0448095 0.0741481
168 2 0.458315 0.338892 0.0049974
169 2 0.674424 0.0776618 0.338442
170 2 0.474241 0.921841 0.930933
171 2 0.63097 0.299782 0.87997
172 2 0.478914 0.555135 0.489753
173 1 0.549557 0.711635 0.593954
174 2 0.664833 0.525908 0.905937
175 2 0.04623 0.265201 0.519175
176 2 0.0499339 0.560553 0.0199464
177 1 0.639046 0.736721 0.249048
178 2 0.276472 0.761793 0.677466
179 2 0.465391 0.426387 0.206527
180 2 0.624896 0.54486 0.522295
181 2 0.0597612 0.61486 0.129479
182 2 0.0515137 0.294731 0.795711
183 2 0.245235 0.0165566 0.0143293
184 2 0.759171 0.223975 0.504613
185 2 0.660166 0.14124 0.267547
186 2 0.0478295 0.717771 0.43225
187 2 0.593051 0.112316 0.3942
188 1 0.00851564 0.318366 0.628898
189 2 0.422236 0.509777 0.460772
190 2 0.81853 0.885283 0.133601
191 2 0.133256 0.751389 0.0935719
192 2 0.0967006 0.653181 0.719417
193 2 0.877895 0.512743 0.231094
194 2 0.136457 0.542333 0.159505
195 2 0.514252 0.749781 0.566039
196 2 0.423347 0.615005 0.71818
197 2 0.288953 0.513427 0.45989
198 2 0.157485 0.272489 0.700341
199 2 0.173449 0.672744 0.782838
200 1 0.507022 0.781528 0.529957
201 2 0.181817 0.812263 0.924825
202 2 0.560522 0.82549 0.518639
203 2 0.0903199 0.727236 0.809147
204 2 0.631383 0.415324 0.0778677
205 2 0.4069 0.377648 0.198883
206 2 0.539003 0.710692 0.219626
207 2 0.837768 0.340742 0.0093431
208 2 0.581834 0.824371 0.0173307
209 2 0.00480126 0.344309 0.979864
210 2 0.942428 0.995131 0.58152
211 2 0.890913 0.371213 0.196832
212 1 0.591649 0.359707 0.195045
213 2 0.852625 0.377943 0.187803
214 2 0.130487 0.45032 0.30551
215 2 0.442661 0.134594 0.705498
216 2 0.178088 0.110903 0.637033
217 2 0.816284 0.875009 0.923229
218 2 0.546979 0.790484 0.53538
219 2 0.995706 0.77702 0.11409
220 2 0.976023 0.18197 0.0436685
221 2 0.370238 0.73758 0.380406
222 2 0.697966 0.377893 0.393198
223 2 0.763561 0.75279 0.633428
224 2 0.28832 0.126884 0.104706
225 1 0.230688 0.161501 0.290315
226 2 0.407991 0.256515 0.306881
227 2 0.990349 0.863465 0.984201
228 2 0.778252 0.303427 0.618292
229 2 0.572467 0.874105 0.331895
230 1 0.154959 0.54801 0.520109
231 2 0.194251 0.061735 0.300319
232 2 0.518141 0.789352 0.666694
233 1 0.331237 0.658175 0.579633
234 2 0.863356 0.331333 0.971401
235 2 0.206899 0.432845 0.229249
236 2 0.98859 0.0957765 0.828791
237 2 0.520075 0.721991 0.159391
238 1 0.463812 0.488462 0.469993
239 1 0.109731 0.180697 0.105196
240 2 0.809153 0.936328 0.99428
241 2 0.371693 0.763968 0.312301
242 1 0.869267 0.113939 0.312157
243 1 0.590807 0.367062 0.614509
244 2 0.596126 0.769337 0.65159
245 2 0.749005 0.668225 0.849583
246 1 0.531217 0.402269 0.531645
247 2 0.922179 0.181566 0.0661925
248 2 0.384127 0.249814 0.610103
249 2 0.0260579 0.470854 0.0391614
250 2 0.892186 0.157171 0.230258
251 2 0.662714 0.914674 0.956545
252 2 0.404994 0.218906 0.914167
253 2 0.853923 0.296197 0.711088
254 2 0.980697 0.773303 0.63224
255 2 0.73362 0.903137 0.581332
256 2 0.333481 0.336868 0.0058966
257 2 0.814717 0.414512 0.683037
258 2 0.344381 0.713243 0.725034
259 1 0.250745 0.327153 0.868212
260 2 0.3569 0.741804 0.328125
261 1 0.703792 0.583547 0.504172
262 2 0.701118 0.0272163 0.617701
263 2 0.625141 0.324667 0.468092
264 2 0.678405 0.5804 0.539559
265 1 0.0337913 0.607293 0.671402
266 2 0.812979 0.431902 0.654514
267 2 0.56548 0.802379 0.468451
268 1 0.0996017 0.234738 0.644615
269 1 0.851938 0.423624 0.436311
270 2 0.999819 0.479763 0.000344586
271 2 0.524385 0.512894 0.549803
272 2 0.0561483 0.104125 0.30072
273 1 0.61134 0.129179 0.115056
274 2 0.74671 0.0957415 0.328769
275 2 0.380861 0.474817 0.964385
276 2 0.105995 0.0875999 0.444352
277 2 0.839087 0.276229 0.674926
278 2 0.617552 0.722284 0.593037
279 2 0.948156 0.55077 0.106988
280 1 0.261398 0.718846 0.412652
281 2 0.622186 0.979147 0.419555
282 2 0.910089 0.472459 0.230336
283 2 0.615945 0.418507 0.733053
284 1 0.492157 0.2917 0.197427
285 2 0.556725 0.601867 0.96124
286 2 0.865541 0.193819 0.470107
287 1 0.364183 0.868952 0.583398
288 2 0.0719518 0.100372 0.157548
289 2 0.232919 0.71972 0.552452
290 2 0.218248 0.595199 0.187845
291 2 0.0427567 0.588533 0.431732
292 2 0.633339 0.532072 0.329914
293 2 0.280382 0.236799 0.485035
294 2 0.0181653 0.935075 0.154971
295 2 0.0951792 0.0615697 0.988712
296 2 0.097899 0.208543 0.19021
297 2 0.0218121 0.655386 0.412327
298 2 0.252071 0.694111 0.726862
299 1 0.172656 0.375034 0.505219
300 2 0.474618 0.98135 0.340283
301 2 0.574442 0.855478 0.971127
302 2 0.384227 0.754803 0.369392
303 2 0.663253 0.0138502 0.661571
304 1 0.371986 0.405496 0.0985781
305 2 0.917754 0.0778516 0.309977
306 2 0.0174946 0.409336 0.303277
307 2 0.400864 0.0201978 0.467856
308 2 0.713012 0.33705 0.371396
309 2 0.947817 0.143443 0.432964
310 2 0.736624 0.733861 0.653793
311 2 0.712154 0.352297 0.454009
312 2 0.656578 0.0508691 0.540853
313 2 0.742326 0.704023 0.752278
314 2 0.791445 0.0817621 0.0318055
315 2 0.819018 0.956001 0.112484
316 2 0.666218 0.965443 0.410964
317 2 0.812094 0.424287 0.469794
318 2 0.219229 0.708476 0.27039
319 2 0.717784 0.896537 0.943804
320 2 0.949066 0.470545 0.243792
321 2 0.246503 0.832709 0.613638
322 2 0.427028 0.700854 0.782874
323 2 0.925481 0.0250109 0.180059
324 2 0.549183 0.236128 0.0960854
325 2 0.26952 0.179051 0.598175
326 2 0.37409 0.510314 0.712317
327 2 0.86576 0.417177 0.0211307
328 2 0.22061 0.0311485 0.906955
329 1 0.194538 0.735064 0.307662
330 2 0.643504 0.585551 0.709964
331 2 0.443852 0.626943 0.794272
332 2 0.995883 0.974548 0.326556
333 2 0.765055 0.142639 0.457567
334 2 0.351507 0.145399 0.978471
335 1 0.523693 0.962076 0.121125
336 2 0.71547 0.849501 0.0297089
337 2 0.00466724 0.472382 0.387385
338 1 0.690602 0.280385 0.978543
339 2 0.612671 0.934518 0.28407
340 2 0.971448 0.819657 0.579623
341 2 0.636873 0.074547 0.378586
342 2 0.81943 0.0465665 0.0333873
343 2 0.249698 0.866068 0.990893
344 1 0.160213 0.911593 0.119902
345 1 0.450246 0.383223 0.726594
346 1 0.0706058 0.971409 0.97973
347 1 0.774239 0.565501 0.894909
348 2 0.793319 0.999143 0.471776
349 2 0.889884 0.863133 0.149535
350 2 0.190094 0.662089 0.970341
351 2 0.806457 0.476745 0.465331
352 2 0.548328 0.860012 0.466188
353 1 0.117422 0.657356 0.146321
354 1 0.139659 0.667368 0.973258
355 2 0.759555 0.0371246 0.639134
356 2 0.525239 0.647202 0.615881
357 2 0.359074 0.467468 0.760723
358 2 0.865087 0.820967 0.050658
359 2 0.410224 0.30436 0.547764
360 2 0.546426 0.758767 0.719804
361 1 0.214334 0.845889 0.132775
362 2 0.699982 0.162426 0.589835
363 1 0.0825331 0.622263 0.64542
364 2 0.585284 0.0183346 0.223535
365 2 0.87464 0.394645 0.226702
366 2 0.316269 0.175643 0.250862
367 1 0.653425 0.81006 0.392129
368 1 0.938476 0.416661 0.080578
369 2 0.104602 0.721976 0.532268
370 2 0.350684 0.577775 0.200702
371 2 0.534623 0.954506 0.350059
372 1 0.955805 0.400611 0.385167
373 2 0.183311 0.864767 0.680193
374 2 0.398677 0.577159 0.264716
375 2 0.126738 0.599541 0.0382004
376 2 0.437595 0.965131 0.00736696
377 2 0.394046 0.781761 0.967317
378 2 0.150278 0.657689 0.0189662
379 2 0.533627 0.354168 0.558263
380 2 0.600649 0.861468 0.373202
381 2 0.599747 0.660803 0.226859
382 2 0.318646 0.175418 0.283029
383 2 0.662265 0.931877 0.304599
384 1 0.536893 0.876986 0.98033
385 2 0.524196 0.575277 0.663944
386 2 0.440647 0.0504001 0.888599
387 1 0.856823 0.413715 0.958829
388 2 0.578148 0.823804 0.323549
389 2 0.406317 0.531782 0.155118
390 2 0.523131 0.138572 0.838603
391 2 0.796144 0.205094 0.558787
392 1 0.652986 0.4674 0.859741
393 2 0.588297 0.39018 0.843751
394 2 0.571233 0.909115 0.384271
395 2 0.00745996 0.645049 0.90576
396 2 0.789169 0.156522 0.494809
397 2 0.94869 0.68478 0.284891
398 1 0.840644 0.15695 0.922681
399 1 0.748974 0.160122 0.646639
400 1 0.762501 0.137272 0.16371
401 2 0.44961 0.889495 0.998307
402 2 0.441197 0.305362 0.818407
403 2 0.871047 0.490582 0.394708
404 2 0.0932307 0.597686 0.988028
405 2 0.699742 0.717315 0.50322
406 2 0.487338 0.173155 0.0910751
407 2 0.812486 0.0428213 0.465331
408 2 0.300837 0.448558 0.988218
409 2 0.103344 0.351475 0.441548
410 2 0.894754 0.949939 0.627977
411 2 0.061986 0.964691 0.908127
412 2 0.0848736 0.0326899 0.289326
413 2 0.513123 0.937138 0.388706
414 2 0.942088 0.352971 0.620305
415 2 0.574388 0.542909 0.286448
416 1 0.423454 0.650987 0.636022
417 2 0.714145 0.0980534 0.0990075
418 2 0.239813 0.264955 0.504707
419 2 0.374978 0.0547536 0.489227
420 2 0.833206 0.244666 0.689789
421 1 0.646997 0.663221 0.541325
422 1 0.24295 0.792992 0.491905
423 2 0.373172 0.506658 0.355343
424 2 0.721107 0.242465 0.301673
425 1 0.399728 0.526614 0.204725
426 2 0.255222 0.752078 0.0761111
427 2 0.188938 0.942515 0.842404
428 2 0.216648 0.799045 0.0893585
429 2 0.115578 0.407848 0.132478
430 2 0.385939 0.195678 0.146199
431 2 0.298165 0.980567 0.296845
432 1 0.518433 0.366849 0.204254
433 2 0.549733 0.453116 0.516899
434 1 0.56938 0.520121 0.52616
435 2 0.45366 0.576899 0.255375
436 2 0.630225 0.916402 0.425953
437 2 0.4407 0.913197 0.149191
438 2 0.951266 0.147484 0.29028
439 1 0.579134 0.836995 0.42152
440 2 0.388956 0.00517297 0.922622
441 1 0.689969 0.463649 0.564511
442 1 0.461624 0.959213 0.0495335
443 1 0.52082 0.817575 0.879402
444 2 0.13497 0.802973 0.930166
445 2 0.91738 0.291331 0.462488
446 2 0.707494 0.958237 0.575087
447 2 0.528374 0.821157 0.482898
448 2 0.724642 0.717055 0.479598
449 1 0.79445 0.996584 0.695513
450 2 0.732286 0.9649 0.699784
451 2 0.45813 0.371732 0.0979229
452 2 0.199684 0.669423 0.226959
453 1 0.877106 0.236292 0.18951
454 2 0.598666 0.43529 0.836122
455 2 0.731137 0.131658 0.732142
456 2 0.0851429 0.958787 0.524194
457 2 0.539161 0.847403 0.100869
458 2 0.659051 0.900351 0.0423253
459 2 0.0710412 0.882018 0.305986
460 2 0.857306 0.445474 0.0852893
461 2 0.177887 0.61209 0.850657
462 2 0.729696 0.0119597 0.812427
463 1 0.305999 0.410908 0.731227
464 2 0.668594 0.366191 0.265596
465 2 0.807405 0.0933396 0.259141
466 2 0.599822 0.0633777 0.251131
467 1 0.550748 0.0960926 0.258334
468 2 0.80269 0.739823 0.0490693
469 2 0.595627 0.460724 0.825579
470 2 0.507051 0.597726 0.926626
471 2 0.978077 0.604101 0.200763
472 2 0.199106 0.59212 0.815267
473 1 0.225365 0.506794 0.510463
474 1 0.163332 0.0969438 0.538225
475 1 0.269519 0.668396 0.924208
476 2 0.554091 0.987674 0.272932
477 2 0.92133 0.632577 0.483653
478 2 0.520873 0.0303851 0.0568424
479 2 0.409314 0.796243 0.95573
480 2 0.14002 0.585241 0.565791
481 2 0.300176 0.668525 0.652508
482 2 0.321786 0.562856 0.786574
483 2 0.929234 0.489768 0.859657
484 1 0.72984 0.327125 0.408611
485 1 0.764799 0.0787928 0.849962
486 2 0.733556 0.502579 0.59086
487 2 0.99631 0.297541 0.131636
488 2 0.209991 0.664494 0.256656
489 2 0.569149 0.437237 0.215502
490 2 0.865979 0.0494845 0.903749
491 2 0.561271 0.037254 0.242549
492 2 0.42484 0.690117 0.744673
493 2 0.887668 0.633913 0.68439
494 2 0.285553 0.911682 0.18781
495 2 0.71905 0.0766981 0.30206
496 2 0.616608 0.529349 0.463041
497 2 0.608227 0.192506 0.483488
498 1 0.442586 0.88073 0.573632
499 2 0.46649 0.604946 0.732772
500 2 0.643883 0.679554 0.140516
501 1 0.643353 0.0428217 0.871484
502 2 0.233699 0.745737 0.330497
503 2 0.617614 0.00996499 0.988782
504 1 0.797854 0.995317 0.0201016
505 2 0.42049 0.716742 0.350116
506 2 0.57526 0.0157473 0.301614
507 2 0.0533762 0.238316 0.231803
508 2 0.174645 0.2698 0.779685
509 1 0.966091 0.37329 0.49313
510 2 0.535707 0.775606 0.815288
511 2 0.606008 0.768228 0.60193
512 2 0.254915 0.990245 0.0114677
513 1 0.890741 0.117043 0.512353
514 2 0.689085 0.727041 0.730332
515 1 0.624124 0.362135 0.523451
516 2 0.602464 0.937733 0.140372
517 1 0.860885 0.186074 0.651823
518 2 0.394808 0.603971 0.644137
519 2 0.591591 0.200993 0.466623
520 2 0.377495 0.0270373 0.48524
521 2 0.934856 0.0193606 0.344281
522 2 0.442093 0.619292 0.661561
523 2 0.00155052 0.061384 0.6007
524 2 0.615804 0.0957933 0.742827
525 2 0.243822 0.743886 0.359875
526 2 0.866834 0.150795 0.77982
527 2 0.478652 0.74979 0.605526
528 1 0.312127 0.533082 0.299446
529 2 0.95162 0.850057 0.0238329
530 2 0.580014 0.925288 0.448133
531 2 0.744221 0.901289 0.984991
532 2 0.535545 0.0447723 0.254773
533 2 0.956108 0.513862 0.206379
534 1 0.154409 0.892001 0.943879
535 2 0.940053 0.190452 0.752164
536 1 0.341796 0.966152 0.970161
537 1 0.929866 0.416232 0.270049
538 2 0.217702 0.018404 0.615145
539 2 0.992375 0.117299 0.570672
540 2 0.839439 0.186413 0.766043
541 1 0.624264 0.667578 0.606828
542 2 0.336382 0.442673 0.943632
543 1 0.662144 0.910213 0.105631
544 1 0.519433 0.848368 0.0241926
545 2 0.919962 0.959429 0.818794
546 2 0.900812 0.878832 0.677554
547 2 0.548765 0.789306 0.346815
548 2 0.99609 0.123791 0.515757
549 2 0.752886 0.513862 0.981285
550 2 0.499073 0.529619 0.400113
551 1 0.699016 0.164025 0.413628
552 2 0.82393 0.363176 0.228563
553 2 0.407507 0.984714 0.409405
554 2 0.344761 0.409241 0.800738
555 1 0.789882 0.25183 0.00436205
556 2 0.765852 0.337665 0.254882
557 2 0.949429 0.347735 0.801161
558 1 0.523966 0.0122872 0.21606
559 2 0.25334 0.322215 0.405671
560 2 0.3233 0.447253 0.0248987
561 2 0.202374 0.186678 0.579984
562 1 0.515314 0.424153 0.834079
563 2 0.375117 0.108968 0.690349
564 2 0.9846 0.0571259 0.471165
565 2 0.322898 0.489466 0.98925
566 2 0.990819 0.651948 0.0970096
567 2 0.332004 0.121947 0.770153
568 2 0.421697 0.75192 0.0933946
569 1 0.911067 0.531426 0.251727
570 2 0.681135 0.215675 0.477072
571 2 0.932964 0.586108 0.254754
572 2 0.753028 0.938602 0.236594
573 2 0.902673 0.564964 0.99942
574 2 0.36063 0.984102 0.923578
575 1 0.98026 0.109874 0.398127
576 2 0.120797 0.106132 0.137204
577 2 0.969 0.922752 0.384548
578 1 0.514205 0.262821 0.521045
579 2 0.0964034 0.106161 0.541308
580 1 0.412651 0.499649 0.744379
581 2 0.818308 0.8961 0.798294
582 2 0.222412 0.247105 0.771013
583 1 0.549402 0.550758 0.740661
584 2 0.99649 0.81883 0.261883
585 1 0.646312 0.109 0.316053
586 2 0.206838 0.287872 0.831504
587 2 0.26804 0.343853 0.0992942
588 2 0.727961 0.0671374 0.563862
589 1 0.934193 0.388406 0.969152
590 1 0.796597 0.213238 0.318333
591 1 0.732441 0.294932 0.565688
592 2 0.0296834 0.903122 0.390935
593 2 0.107787 0.471485 0.198402
594 1 0.603626 0.443746 0.585887
595 1 0.942594 0.198965 0.908861
596 2 0.974657 0.538202 0.160098
597 1 0.470738 0.0883831 0.254478
598 2 0.470656 0.322332 0.0129395
599 2 0.633647 0.424002 0.611958
600 2 0.585541 0.887966 0.437277
601 2 0.112681 0.010029 0.410457
602 1 0.654659 0.356555 0.154551
603 2 0.682755 0.13067 0.532655
604 1 0.968431 0.458399 0.0331161
605 2 0.384862 0.702997 0.737101
606 2 0.123973 0.226859 0.211
607 1 0.429992 0.751903 0.787286
608 2 0.3928 0.372577 0.158804
609 2 0.8717 0.328457 0.675185
610 2 0.890009 0.467365 0.020482
611 2 0.497054 0.464748 0.723845
612 1 0.741307 0.0435755 0.913032
613 2 0.514402 0.852444 0.561509
614 1 0.629139 0.161899 0.504989
615 2 0.547007 0.79403 0.0696836
616 1 0.171149 0.931122 0.680573
617 2 0.194152 0.714627 0.647493
618 2 0.647737 0.893505 0.805653
619 2 0.700755 0.0373779 0.663622
620 2 0.72419 0.024635 0.986635
621 2 0.698454 0.833967 0.428343
622 2 0.957541 0.579616 0.672702
623 1 0.46033 0.811157 0.5021
624 2 0.0484384 0.755797 0.858704
625 2 0.288512 0.188231 0.304877
626 2 0.319909 0.12319 0.118566
627 2 0.524894 0.846455 0.347874
628 2 0.81474 0.161455 0.82434
629 2 0.466137 0.161795 0.354681
630 1 0.151274 0.338547 0.977569
631 2 0.751369 0.10245 0.472338
632 2 0.0554948 0.476863 0.812301
633 2 0.604322 0.36135 0.560515
634 2 0.743608 0.350519 0.372335
635 2 0.145246 0.537229 0.861091
636 2 0.383511 0.431683 0.79957
637 2 0.807496 0.347152 0.565362
638 1 0.142878 0.249131 0.257114
639 2 0.845676 0.934602 0.341303
640 2 0.206881 0.580307 0.984442
641 2 0.762356 0.357035 0.100511
642 2 0.978767 0.660302 0.981741
643 2 0.502278 0.607141 0.0294976
644 2 0.350618 0.254144 0.867407
645 1 0.755019 0.975588 0.30064
646 2 0.769359 0.282084 0.66295
647 1 0.340383 0.09516 0.840679
648 2 0.586623 0.223623 0.772132
649 2 0.0116046 0.908943 0.259424
650 2 0.553586 0.895604 0.315943
651 2 0.487629 0.793132 0.726723
652 2 0.717416 0.153669 0.148567
653 2 0.730436 0.953007 0.755073
654 1 0.45991 0.390183 0.20055
655 2 0.186947 0.178285 0.377703
656 2 0.230274 0.224571 0.425108
657 2 0.537496 0.449473 0.279016
658 2 0.0656237 0.965832 0.227557
659 2 0.957911 0.329253 0.858397
660 2 0.0297823 0.0369384 0.0864375
661 1 0.645097 0.392179 0.598096
662 2 0.714389 0.366605 0.352241
663 2 0.991214 0.0549533 0.557136
664 1 0.999585 0.449102 0.446327
665 2 0.494384 0.412044 0.293815
666 2 0.499564 0.807647 0.47331
667 2 0.850451 0.0991783 0.833391
668 2 0.47205 0.460431 0.177379
669 2 0.976409 0.196717 0.220455
670 1 0.759089 0.397715 0.450892
671 2 0.792785 0.509623 0.985495
672 1 0.600917 0.958408 0.375096
673 2 0.295641 0.0010178 0.0646759
674 2 0.421675 0.052255 0.515904
675 2 0.0272668 0.651414 0.6916
676 1 0.210533 0.784336 0.600455
677 2 0.0949957 0.252223 0.275845
678 2 0.0841829 0.0932395 0.511712
679 1 0.0307521 0.808695 0.68533
680 2 0.665484 0.972503 0.178387
681 1 0.462255 0.456424 0.767643
682 1 0.0787085 0.812196 0.935317
683 2 0.67393 0.341385 0.333455
684 2 0.886179 0.930129 0.663301
685 2 0.224471 0.640643 0.518047
686 2 0.333168 0.860882 0.465264
687 1 0.131297 0.33537 0.831125
688 2 0.0660627 0.259353 0.923304
689 2 0.984981 0.463227 0.0841759
690 2 0.70127 0.889454 0.576722
691 2 0.585053 0.30794 0.575024
692 1 0.47833 0.452662 0.254472
693 2 0.0167792 0.440965 0.35448
694 2 0.637604 0.268356 0.414197
695 1 0.764087 0.985874 0.079227
696 2 0.212912 0.65577 0.202408
697 2 0.0714371 0.294824 0.393301
698 2 0.863266 0.982406 0.825946
699 2 0.85751 0.945762 0.762262
700 1 0.361791 0.570178 0.640263
701 2 0.262325 0.00583847 0.249002
702 2 0.200783 0.544885 0.902234
703 2 0.908233 0.926104 0.553273
704 2 0.246168 0.536364 0.601689
705 2 0.415013 0.780826 0.32373
706 2 0.501016 0.873399 0.548704
707 2 0.478198 0.5232 0.556605
708 1 0.440542 0.110117 0.627176
709 2 0.513833 0.792881 0.3964
710 2 0.575726 0.50105 0.332558
711 2 0.167911 0.796992 0.309027
712 1 0.992056 0.128505 0.0754295
713 2 0.732339 0.258393 0.152164
714 1 0.617222 0.174348 0.00655461
715 2 0.0607816 0.590591 0.155816
716 1 0.559621 0.69444 0.674731
717 2 0.178848 0.490245 0.54546
718 2 0.771993 0.871433 0.364928
719 2 0.732355 0.354976 0.63557
720 2 0.0762283 0.585942 0.577595
721 2 0.953157 0.757547 0.942652
722 1 0.196651 0.66671 0.737412
723 2 0.370185 0.567641 0.161663
724 2 0.109157 0.686419 0.794675
725 2 0.474414 0.249062 0.0830871
726 2 0.290026 0.675296 0.0325802
727 1 0.237527 0.652117 0.650801
728 1 0.852886 0.661094 0.438637
729 1 0.641947 0.236087 0.955388
730 1 0.670519 0.708453 0.399919
731 2 0.754749 0.356039 0.472038
732 1 0.738731 0.04145 0.667002
733 2 0.805448 0.47827 0.915746
734 2 0.265087 0.737309 0.956643
735 2 0.821285 0.681376 0.0076892
736 1 0.472314 0.663407 0.7827
737 2 0.289463 0.0432177 0.171259
738 2 0.599673 0.834223 0.387953
739 2 0.483512 0.527187 0.94401
740 2 0.30837 0.798293 0.412429
741 2 0.236197 0.0784292 0.572067
742 1 0.928141 0.852104 0.0625878
743 2 0.943367 0.499162 0.683979
744 2 0.448924 0.295407 0.996751
745 2 0.540968 0.470866 0.548406
746 1 0.420289 0.350982 0.86433
747 2 0.622312 0.0156344 0.409623
748 2 0.648063 0.765764 0.300595
749 2 0.397658 0.0788611 0.611383
750 2 0.359493 0.253473 0.253367
751 2 0.33987 0.0191533 0.475333
752 2 0.485361 0.677499 0.526909
753 2 0.611817 0.335985 0.69441
754 2 0.539083 0.522971 0.990136
755 2 0.174888 0.474099 0.499646
756 2 0.67865 0.538928 0.511109
757 2 0.452632 0.356182 0.185654
758 2 0.88361 0.475588 0.153789
759 2 0.862786 0.429642 0.0529465
760 1 0.490322 0.277247 0.61035
761 2 0.0276286 0.0798451 0.172957
762 2 0.793689 0.251441 0.13662
763 1 0.842552 0.215308 0.881583
764 2 0.300013 0.240878 0.777036
765 2 0.533459 0.951784 0.323732
766 2 0.590534 0.855477 0.750924
767 2 0.577757 0.297364 0.531282
768 2 0.31578 0.63117 0.176554
769 2 0.923134 0.473807 0.412333
770 2 0.101733 0.815577 0.203283
771 2 0.886014 0.688947 0.861477
772 2 0.635029 0.850151 0.40358
773 1 0.923725 0.773184 0.557076
774 2 0.553339 0.760717 0.246727
775 2 0.454858 0.915582 0.775778
776 2 0.26421 0.657661 0.215
777 1 0.613929 0.0527347 0.949781
778 2 0.604658 0.196804 0.575904
779 2 0.963667 0.455762 0.140256
780 1 0.143455 0.616223 0.159346
781 2 0.212212 0.337179 0.298288
782 2 0.657809 0.546609 0.810121
783 1 0.458267 0.848003 0.641732
784 2 0.521566 0.854599 0.525007
785 2 0.531513 0.813672 0.561168
786 1 0.32689 0.535606 0.533346
787 2 0.0418086 0.763527 0.182082
788 2 0.852603 0.661158 0.0238149
789 2 0.904849 0.173019 0.1082
790 2 0.389209 0.490128 0.433809
791 1 0.173721 0.627536 0.220646
792 2 0.216029 0.816964 0.362477
793 2 0.0207144 0.360392 0.576801
794 2 0.901465 0.618888 0.33194
795 2 0.891972 0.669976 0.373063
796 2 0.0618725 0.117186 0.275672
797 2 0.572668 0.744807 0.890971
798 2 0.411446 0.941343 0.604463
799 2 0.910202 0.699546 0.481318
800 2 0.752804 0.267792 0.0973773
801 2 0.559835 0.913599 0.572784
802 2 0.465334 0.523089 0.00410275
803 2 0.179355 0.628596 0.35933
804 2 0.260587 0.450706 0.848156
805 2 0.447999 0.241571 0.513916
806 1 0.436504 0.787719 0.549276
807 2 0.749914 0.372601 0.321018
808 2 0.0207459 0.386033 0.174621
809 1 0.306583 0.391493 0.311232
810 2 0.38616 0.0564999 0.410508
811 2 0.538332 0.247695 0.712951
812 2 0.540925 0.497915 0.300696
813 1 0.667013 0.250837 0.09534
814 2 0.70733 0.179595 0.486734
815 2 0.796242 0.445534 0.963907
816 1 0.644186 0.801651 0.281268
817 1 0.541665 0.284551 0.574301
818 2 0.73404 0.139504 0.00417154
819 1 0.720414 0.686761 0.163122
820 1 0.498464 0.724789 0.483993
821 2 0.300248 0.883656 0.900842
822 2 0.502528 0.676268 0.472057
823 1 0.657602 0.348614 0.717696
824 2 0.660393 0.23898 0.296033
825 2 0.665879 0.509183 0.520329
826 2 0.281358 0.632439 0.627728
827 1 0.475117 0.96522 0.776095
828 2 0.75113 0.846133 0.902232
829 2 0.783904 0.201403 0.636654
830 2 0.030774 0.760656 0.44704
831 1 0.436181 0.29683 0.256431
832 2 0.43161 0.490352 0.853033
833 1 0.581655 0.325982 0.705826
834 2 0.577179 0.782275 0.576894
835 2 0.630997 0.949809 0.211093
836 2 0.977313 0.555836 0.122884
837 2 0.641397 0.993934 0.378454
838 2 0.0552418 0.890093 0.81018
839 2 0.687746 0.00991653 0.04488
840 2 0.515247 0.20671 0.632972
841 2 0.595759 0.742058 0.638779
842 2 0.786534 0.303186 0.00915073
843 2 0.17102 0.651092 0.151063
844 2 0.0474893 0.942196 0.731815
845 2 0.0652359 0.580494 0.49076
846 2 0.573358 0.301542 0.733167
847 2 0.224106 0.684211 0.952187
848 2 0.989045 0.53122 0.903911
849 1 0.653655 0.111732 0.850855
850 2 0.321786 0.895986 0.595363
851 2 0.244638 0.0862474 0.542575
852 2 0.0761125 0.849319 0.314614
853 1 0.049062 0.477843 0.851156
854 2 0.804056 0.773547 0.428323
855 2 0.00990819 0.382806 0.247022
856 2 0.588133 0.965239 0.689871
857 2 0.58451 0.185944 0.226914
858 2 0.275801 0.400156 0.551217
859 2 0.972148 0.905542 0.447527
860 2 0.961422 0.180957 0.950448
861 2 0.707209 0.00702567 0.661481
862 2 0.039371 0.0452759 0.276147
863 2 0.545098 0.327143 0.674993
864 2 0.546853 0.217383 0.582399
865 2 0.117952 0.545144 0.625083
866 2 0.45772 0.937054 0.607139
867 2 0.143287 0.680107 0.102876
868 2 0.266301 0.908488 0.556951
869 2 0.545508 0.844406 0.697157
870 2 0.540899 0.43151 0.645459
871 2 0.893756 0.272131 0.753567
872 2 0.270157 0.742567 0.509576
873 2 0.0240335 0.119086 0.20922
874 2 0.0683156 0.0775784 0.281178
875 2 0.164917 0.165392 0.613929
876 2 0.618986 0.243897 0.0525839
877 2 0.253266 0.262676 0.275476
878 2 0.354298 0.945511 0.844231
879 2 0.120197 0.823856 0.902461
880 2 0.449001 0.758614 0.498956
881 2 0.418252 0.623482 0.543353
882 1 0.470294 0.387224 0.656188
883 1 0.112007 0.815765 0.331189
884 2 0.958582 0.109555 0.670641
885 2 0.630973 0.555179 0.56293
886 2 0.0397237 0.823012 0.978797
887 1 0.68101 0.820146 0.096019
888 2 0.658726 0.72309 0.719807
889 2 0.00081828 0.712525 0.167989
890 1 0.880464 0.642436 0.832396
891 2 0.279667 0.899668 0.378326
892 2 0.278651 0.998505 0.502344
893 2 0.504242 0.418908 0.328514
894 2 0.24321 0.82352 0.842335
895 1 0.513147 0.680424 0.573349
896 2 0.344519 0.901037 0.0678409
897 2 0.873247 0.359271 0.221143
898 2 0.905218 0.650175 0.627359
899 2 0.472545 0.0561306 0.251787
900 2 0.514393 0.110862 0.719582
901 2 0.904392 0.147133 0.40464
902 2 0.464666 0.256057 0.168841
903 2 0.357673 0.292123 0.594488
904 2 0.489514 0.922111 0.197474