ITEM: TIMESTEP
58800
ITEM: NUMBER OF ATOMS
1000
ITEM: BOX BOUNDS xy xz yz pp pp pp
0.0000000000000000e+00 1.3572088000000001e+01 0.0000000000000000e+00
0.0000000000000000e+00 1.3572088000000001e+01 0.0000000000000000e+00
0.0000000000000000e+00 1.3572088000000001e+01 0.0000000000000000e+00
ITEM: ATOMS id type xs ys zs
1 2 0.566222 0.542672 0.143795
2 2 0.90162 0.669085 0.627549
3 1 0.603237 0.907932 0.832146
4 2 0.165153 0.5783 0.0685051
5 2 0.54183 0.939096 0.727652
6 1 0.620166 0.953962 0.685644
7 2 0.587287 0.940884 0.7932
8 2 0.825596 0.691364 0.639539
9 2 0.26062 0.293989 0.194689
10 2 0.594088 0.97188 0.728713
11 2 0.80205 0.692621 0.651341
12 2 0.574164 0.8784 0.753758
13 2 0.858331 0.713082 0.672084
14 1 0.997706 0.41216 0.353931
15 2 0.871049 0.678314 0.602333
16 2 0.359253 0.644967 0.961462
17 1 0.821057 0.741475 0.58069
18 2 0.8035 0.683031 0.66869
19 2 0.140692 0.0973677 0.541443
20 2 0.574021 0.897288 0.778119
21 2 0.593054 0.944555 0.717837
22 2 0.552688 0.224065 0.315265
23 2 0.216788 0.627276 0.105502
24 2 0.834389 0.657404 0.672225
25 1 0.076253 0.467749 0.181526
26 2 0.81905 0.699866 0.585141
27 2 0.602977 0.952503 0.804127
28 2 0.625414 0.91254 0.770193
29 2 0.408607 0.413652 0.861758
30 2 0.53887 0.925127 0.756505
31 1 0.577365 0.84691 0.758829
32 1 0.628415 0.993908 0.719923
33 1 0.765358 0.685596 0.669787
34 2 0.839183 0.672008 0.635288
35 2 0.475023 0.467631 0.659564
36 1 0.561072 0.852513 0.796479
37 2 0.809982 0.683535 0.675423
38 2 0.569438 0.962598 0.75327
39 2 0.570665 0.78001 0.408068
40 2 0.639055 0.824466 0.73742
41 2 0.59674 0.937133 0.752602
42 2 0.601438 0.91732 0.777555
43 2 0.276225 0.011088 0.0607697
44 2 0.132749 0.314684 0.939994
45 2 0.865586 0.704622 0.635092
46 1 0.643091 0.144346 0.999147
47 2 0.884847 0.656548 0.670257
48 2 0.602407 0.885149 0.741648
49 2 0.0557612 0.580254 0.0204702
50 2 0.841035 0.720275 0.673405
51 2 0.553641 0.187892 0.00572095
52 2 0.628296 0.9882 0.0788648
53 2 0.21111 0.00868678 0.418298
54 2 0.576917 0.901617 0.739254
55 1 0.920187 0.65106 0.683904
56 1 0.485763 0.863271 0.69579
57 2 0.60156 0.90648 0.75182
58 2 0.589873 0.903091 0.793296
59 2 0.901042 0.712966 0.636082
60 2 0.605085 0.977552 0.739988
61 2 0.424008 0.653003 0.152106
62 2 0.504272 0.891292 0.666404
63 2 0.934297 0.214833 0.317956
64 2 0.851742 0.74291 0.661156
65 2 0.821335 0.698917 0.608212
66 1 0.866332 0.773333 0.614974
67 2 0.58837 0.919761 0.806091
68 2 0.557245 0.950592 0.804698
69 1 0.572006 0.0126459 0.723192
70 2 0.857601 0.6857 0.616421
71 1 0.533653 0.958127 0.692587
72 2 0.323329 0.0485026 0.570574
73 2 0.539388 0.919659 0.800481
74 2 0.538373 0.913215 0.766624
75 2 0.936438 0.368796 0.776515
76 2 0.551152 0.930841 0.752602
77 1 0.94488 0.7719 0.617334
78 2 0.579907 0.874537 0.306929
79 2 0.58132 0.934498 0.79333
80 2 0.680173 0.75708 0.0963625
81 2 0.559244 0.919798 0.78788
82 2 0.855075 0.711467 0.58458
83 2 0.0156216 0.454171 0.0572979
84 2 0.545494 0.875827 0.687105
85 1 0.569345 0.864646 0.674491
86 2 0.842824 0.65912 0.605194
87 2 0.57605 0.93905 0.712329
88 2 0.896317 0.67957 0.594714
89 2 0.826301 0.204071 0.820815
90 2 0.628867 0.932392 0.793417
91 2 0.728609 0.125215 0.0568021
92 2 0.852162 0.821676 0.463036
93 2 0.841442 0.631809 0.647937
94 1 0.0125462 0.0495293 0.80308
95 2 0.0289762 0.18103 0.890758
96 2 0.559375 0.925899 0.770885
97 2 0.808548 0.703966 0.0884388
98 2 0.94356 0.589251 0.279397
99 2 0.204431 0.118243 0.956914
100 2 0.138324 0.706907 0.373862
101 1 0.406437 0.619433 0.314281
102 2 0.582114 0.258614 0.87703
103 2 0.910493 0.678838 0.6389
104 2 0.563943 0.905527 0.760168
105 2 0.801513 0.660439 0.63435
106 2 0.86594 0.46418 0.50054
107 2 0.237407 0.159181 0.356739
108 2 0.83752 0.713204 0.575214
109 2 0.862759 0.670541 0.636707
110 2 0.572434 0.976151 0.777185
111 2 0.233327 0.423928 0.396204
112 1 0.90721 0.636422 0.614795
113 1 0.760328 0.67626 0.622952
114 2 0.877955 0.708669 0.686008
115 2 0.855714 0.465662 0.659498
116 2 0.855032 0.62008 0.642226
117 2 0.636116 0.853924 0.178857
118 2 0.820512 0.681745 0.640091
119 2 0.426729 0.390256 0.0176582
120 2 0.87705 0.710761 0.600774
121 2 0.570151 0.923 0.78261
122 2 0.557471 0.923062 0.741914
123 2 0.849589 0.694952 0.643811
124 2 0.819657 0.672975 0.622194
125 1 0.971779 0.742454 0.662032
126 2 0.558971 0.931668 0.751649
127 2 0.843226 0.711022 0.644245
128 2 0.32496 0.714866 0.610281
129 1 0.36846 0.949534 0.0338485
130 2 0.703603 0.828391 0.20775
131 2 0.580558 0.923617 0.727783
132 2 0.635787 0.928979 0.729974
133 2 0.867902 0.670513 0.649419
134 2 0.116805 0.683416 0.0460212
135 2 0.6406 0.928592 0.767546
136 2 0.895868 0.712613 0.671289
137 1 0.46935 0.959617 0.74204
138 2 0.586169 0.938386 0.757168
139 2 0.617675 0.933347 0.736311
140 1 0.860383 0.715419 0.550405
141 2 0.869129 0.730956 0.633752
142 2 0.0894661 0.91921 0.843474
143 2 0.663474 0.606629 0.0896947
144 2 0.928652 0.466617 0.0683105
145 2 0.558895 0.792326 0.780046
146 2 0.545582 0.0100924 0.832327
147 1 0.189702 0.28951 0.511688
148 1 0.809234 0.668078 0.563387
149 2 0.580552 0.891328 0.784166
150 1 0.941091 0.679968 0.644861
151 2 0.563312 0.943219 0.761489
152 2 0.888629 0.704391 0.639699
153 1 0.788389 0.743342 0.604649
154 1 0.274222 0.0830892 0.477804
155 2 0.537207 0.162467 0.180595
156 2 0.861791 0.839094 0.603656
157 2 0.0374071 0.249682 0.369901
158 2 0.621048 0.524231 0.638932
159 2 0.607234 0.96314 0.710498
160 2 0.603585 0.931105 0.734714
161 2 0.585056 0.880091 0.781149
162 2 0.585435 0.95039 0.73839
163 2 0.600248 0.926336 0.802419
164 2 0.884472 0.67483 0.668181
165 2 0.812902 0.707676 0.653364
166 2 0.593016 0.961262 0.746549
167 2 0.255889 0.464974 0.991814
168 2 0.591145 0.904122 0.746756
169 2 0.167503 0.213362 0.379799
170 2 0.577083 0.585256 0.158772
171 2 0.890357 0.726793 0.642229
172 2 0.650767 0.686061 0.951183
173 1 0.772604 0.715839 0.630326
174 2 0.542577 0.907525 0.735516
175 2 0.173464 0.66635 0.261479
176 2 0.577686 0.937437 0.808981
177 1 0.572221 0.190709 0.942575
178 2 0.00792683 0.451176 0.428691
179 2 0.455441 0.320247 0.845118
180 2 0.853158 0.690244 0.633974
181 2 0.638345 0.906854 0.725379
182 2 0.35686 0.444518 0.909996
183 2 0.544534 0.200534 0.15821
184 2 0.554834 0.951526 0.737877
185 2 0.848385 0.689847 0.667343
186 2 0.820597 0.645125 0.654531
187 2 0.174619 0.258281 0.322553
188 1 0.593666 0.0104095 0.803797
189 2 0.5692 0.880409 0.74125
190 2 0.893069 0.718791 0.626654
191 2 0.625061 0.958655 0.742379
192 2 0.563018 0.972002 0.751131
193 2 0.559264 0.911461 0.709499
194 2 0.353767 0.73681 0.93073
195 2 0.551449 0.95555 0.718214
196 2 0.554195 0.896423 0.770375
197 2 0.893834 0.692271 0.679342
198 2 0.087374 0.65099 0.13682
199 2 0.430352 0.495976 0.713924
200 1 0.906946 0.701516 0.714851
201 2 0.14974 0.215693 0.770646
202 2 0.18826 0.780377 0.34464
203 2 0.594757 0.972384 0.786182
204 2 0.403796 0.672955 0.0807889
205 2 0.602191 0.989662 0.763187
206 2 0.305728 0.107109 0.916498
207 2 0.392521 0.382394 0.427214
208 2 0.548797 0.542678 0.504448
209 2 0.850194 0.677731 0.660391
210 2 0.85388 0.699284 0.586753
211 2 0.214568 0.04847 0.357417
212 1 0.608335 0.927058 0.669747
213 2 0.855008 0.639286 0.66226
214 2 0.824733 0.689666 0.618655
215 2 0.829655 0.659426 0.622399
216 2 0.659557 0.830706 0.788626
217 2 0.627046 0.923561 0.780683
218 2 0.407495 0.271072 0.911219
219 2 0.560412 0.964665 0.724461
220 2 0.164558 0.473769 0.437831
221 2 0.8458 0.681925 0.5862
222 2 0.1815 0.146609 0.0357825
223 2 0.819488 0.799173 0.813571
224 2 0.545742 0.955689 0.796566
225 1 0.871347 0.778061 0.656277
226 2 0.571738 0.940246 0.744915
227 2 0.535452 0.931575 0.734742
228 2 0.902713 0.699736 0.627435
229 2 0.581402 0.961667 0.773547
230 1 0.670195 0.749083 0.805241
231 2 0.617 0.93238 0.721314
232 2 0.826707 0.680462 0.621575
233 1 0.90158 0.609232 0.65157
234 2 0.883434 0.704702 0.656738
235 2 0.889286 0.679438 0.66095
236 2 0.561382 0.925869 0.700093
237 2 0.101401 0.379307 0.949712
238 1 0.649712 0.434877 0.723332
239 1 0.760429 0.698278 0.579509
240 2 0.831956 0.689493 0.681893
241 2 0.562989 0.898869 0.799244
242 1 0.883991 0.736647 0.697226
243 1 0.907507 0.753592 0.626423
244 2 0.897649 0.703291 0.645185
245 2 0.942522 0.0494357 0.463129
246 1 0.767904 0.980642 0.719738
247 2 0.188766 0.857547 0.68156
248 2 0.598556 0.733578 0.346658
249 2 0.607768 0.971883 0.737928
250 2 0.618635 0.967888 0.781141
251 2 0.990663 0.198178 0.336184
252 2 0.362474 0.368867 0.707733
253 2 0.172366 0.1243 0.498164
254 2 0.182254 0.611953 0.337951
255 2 0.621668 0.954439 0.714184
256 2 0.579622 0.911793 0.707293
257 2 0.575976 0.972004 0.724209
258 2 0.897337 0.765759 0.73183
259 1 0.243161 0.426274 0.333032
260 2 0.85953 0.653307 0.615223
261 1 0.649143 0.952566 0.797161
262 2 0.59114 0.00460034 0.192883
263 2 0.822308 0.694699 0.651917
264 2 0.90133 0.887183 0.937321
265 1 0.789039 0.760477 0.69907
266 2 0.827808 0.709451 0.632696
267 2 0.57688 0.921701 0.741795
268 1 0.626587 0.885314 0.809695
269 1 0.228521 0.184768 0.0204235
270 2 0.212622 0.938382 0.0922952
271 2 0.825767 0.620636 0.95406
272 2 0.804414 0.278801 0.47954
273 1 0.827369 0.781261 0.606105
274 2 0.846778 0.690047 0.624063
275 2 0.692019 0.38965 0.495084
276 2 0.615739 0.915418 0.746425
277 2 0.897526 0.681526 0.616587
278 2 0.393282 0.620972 0.858432
279 2 0.579317 0.947038 0.699623
280 1 0.321621 0.873038 0.84383
281 2 0.220202 0.652395 0.534282
282 2 0.588433 0.940721 0.736349
283 2 0.650402 0.644544 0.589628
284 1 0.609536 0.865272 0.688614
285 2 0.583923 0.96515 0.754977
286 2 0.534891 0.94783 0.754024
287 1 0.0870774 0.124053 0.684567
288 2 0.60819 0.946266 0.757555
289 2 0.824968 0.713466 0.661675
290 2 0.736417 0.707635 0.845693
291 2 0.808081 0.719013 0.611692
292 2 0.299075 0.389301 0.656542
293 2 0.856653 0.681252 0.624773
294 2 0.824691 0.715309 0.674733
295 2 0.796118 0.670833 0.638672
296 2 0.0347781 0.780366 0.870228
297 2 0.573699 0.956719 0.721968
298 2 0.889897 0.711556 0.620738
299 1 0.653647 0.879517 0.746851
300 2 0.543583 0.97597 0.762282
301 2 0.534244 0.984538 0.822747
302 2 0.261098 0.691267 0.113484
303 2 0.615928 0.924062 0.75668
304 1 0.98066 0.617795 0.25631
305 2 0.56729 0.907803 0.724426
306 2 0.619057 0.958072 0.799504
307 2 0.647192 0.270266 0.111919
308 2 0.929415 0.120584 0.595002
309 2 0.766723 0.550965 0.721597
310 2 0.78994 0.691373 0.629031
311 2 0.863621 0.729626 0.612681
312 2 0.595844 0.967261 0.76352
313 2 0.812992 0.712721 0.643508
314 2 0.979008 0.712457 0.12567
315 2 0.875614 0.760326 0.733973
316 2 0.832261 0.647196 0.64017
317 2 0.561751 0.919903 0.742358
318 2 0.986838 0.515913 0.151295
319 2 0.853496 0.644281 0.606789
320 2 0.835476 0.709 0.662262
321 2 0.822259 0.728432 0.636213
322 2 0.830582 0.744225 0.623884
323 2 0.977549 0.411796 0.303965
324 2 0.331975 0.436881 0.421014
325 2 0.883325 0.719452 0.610963
326 2 0.557027 0.943842 0.713198
327 2 0.6093 0.657296 0.483632
328 2 0.82888 0.668693 0.640148
329 1 0.26919 0.873226 0.505241
330 2 0.868625 0.702494 0.627743
331 2 0.868746 0.687371 0.62599
332 2 0.597569 0.909569 0.720674
333 2 0.804976 0.238864 0.519296
334 2 0.592567 0.931324 0.71901
335 1 0.403151 0.94083 0.442836
336 2 0.828006 0.643156 0.607901
337 2 0.668555 0.425758 0.838412
338 1 0.510209 0.903552 0.744122
339 2 0.816067 0.738597 0.648181
340 2 0.181388 0.478907 0.152699
341 2 0.533722 0.918218 0.736558
342 2 0.860954 0.697865 0.665135
343 2 0.817416 0.703374 0.636061
344 1 0.57452 0.978923 0.82754
345 1 0.868547 0.611342 0.599511
346 1 0.530178 0.910295 0.700996
347 1 0.84521 0.157502 0.799918
348 2 0.194385 0.969409 0.229134
349 2 0.135081 0.300292 0.542768
350 2 0.264666 0.475406 0.460403
351 2 0.889693 0.68123 0.611197
352 2 0.108704 0.117783 0.953523
353 1 0.942894 0.686287 0.573563
354 1 0.628861 0.909264 0.215808
355 2 0.0346405 0.927053 0.635196
356 2 0.851889 0.734675 0.621334
357 2 0.781564 0.361308 0.663744
358 2 0.242383 0.0300966 0.741527
359 2 0.520823 0.511566 0.254638
360 2 0.590431 0.907986 0.764393
361 1 0.54929 0.999198 0.799982
362 2 0.0173387 0.714419 0.243133
363 1 0.664724 0.934669 0.676591
364 2 0.579311 0.978279 0.736983
365 2 0.849073 0.668192 0.648922
366 2 0.835151 0.6894 0.590853
367 1 0.444759 0.490101 0.49305
368 1 0.529188 0.993929 0.758473
369 2 0.259994 0.932531 0.343408
370 2 0.339304 0.899049 0.0214833
371 2 0.861374 0.631078 0.621992
372 1 0.788548 0.258141 0.84186
373 2 0.751183 0.774381 0.215665
374 2 0.399926 0.111808 0.855303
375 2 0.627073 0.946902 0.753179
376 2 0.113996 0.44004 0.989053
377 2 0.113076 0.711462 0.903804
378 2 0.584433 0.894552 0.747452
379 2 0.857794 0.743289 0.637836
380 2 0.597772 0.874639 0.783381
381 2 0.604107 0.947178 0.783165
382 2 0.176563 0.19936 0.57221
383 2 0.254168 0.438815 0.849257
384 1 0.453007 0.324764 0.0620653
385 2 0.847966 0.72098 0.593079
386 2 -0.0025073 0.774968 0.055906
387 1 0.230704 0.710819 0.968129
388 2 0.63161 0.941095 0.723937
389 2 0.874198 0.690555 0.668681
390 2 0.584369 0.974009 0.75898
391 2 0.795588 0.142791 0.458456
392 1 0.801945 0.666775 0.712941
393 2 0.43138 0.598282 0.872402
394 2 0.597751 0.948624 0.767316
395 2 0.577798 0.944398 0.722867
396 2 0.605173 0.961158 0.722442
397 2 0.878779 0.670694 0.63338
398 1 0.623285 0.3675 0.791186
399 1 0.929878 0.658706 0.717693
400 1 0.962077 0.864659 0.307453
401 2 0.597189 0.934495 0.762898
402 2 0.695394 0.179247 0.531028
403 2 0.404259 0.365945 0.987573
404 2 0.901716 0.692616 0.656953
405 2 0.692066 0.28031 0.175367
406 2 0.474612 0.750434 0.840034
407 2 0.737684 0.18086 0.875014
408 2 0.86668 0.658423 0.628961
409 2 0.599598 0.993235 0.777644
410 2 0.861153 0.657579 0.672847
411 2 0.363032 0.809589 0.345934
412 2 0.0676534 0.461511 0.0575166
413 2 0.885606 0.660589 0.648968
414 2 0.167007 0.953228 0.314465
415 2 0.55741 0.923206 0.722659
416 1 0.830858 0.636966 0.577914
417 2 0.323087 0.93544 0.346383
418 2 0.610584 0.923172 0.715574
419 2 0.920958 0.926229 0.924563
420 2 0.323199 0.359107 0.725636
421 1 0.572552 0.822182 0.480749
422 1 0.6161 0.856602 0.780959
423 2 0.634739 0.908774 0.758589
424 2 0.591427 0.917851 0.785209
425 1 0.512162 0.95977 0.722634
426 2 0.955177 0.609234 0.219328
427 2 0.918326 0.893991 0.765786
428 2 0.0486937 0.719898 0.0381869
429 2 0.573221 0.958077 0.800684
430 2 0.839788 0.717969 0.607498
431 2 0.841422 0.696785 0.593512
432 1 0.669624 0.943168 0.746655
433 2 0.00810155 0.372571 0.196459
434 1 0.255132 9.31861e-05 0.501293
435 2 0.0866665 0.61396 0.416586
436 2 0.874018 0.668685 0.682996
437 2 0.971525 0.282632 0.732375
438 2 0.955307 0.975806 0.354178
439 1 0.58922 0.875234 0.820337
440 2 0.850733 0.727876 0.618198
441 1 0.708188 0.725025 0.0588694
442 1 0.935284 0.719386 0.654022
443 1 0.0744764 0.863762 0.0235425
444 2 0.862007 0.657717 0.659117
445 2 0.494796 0.532698 0.637494
446 2 0.514279 0.630301 0.000441698
447 2 0.889144 0.648636 0.667924
448 2 0.192632 0.756013 0.293983
449 1 0.877245 0.905103 0.13923
450 2 0.822961 0.663694 0.60752
451 2 0.563724 0.910813 0.734237
452 2 0.603022 0.896059 0.757037
453 1 0.641485 0.889481 0.697221
454 2 0.830301 0.710253 0.603913
455 2 0.222067 0.336234 0.935481
456 2 0.297094 0.930259 0.962122
457 2 0.585287 0.882656 0.736325
458 2 0.618482 0.890293 0.722254
459 2 0.476632 0.144764 0.840321
460 2 0.877072 0.693598 0.632099
461 2 0.937695 0.317919 0.912369
462 2 0.8554 0.666523 0.608597
463 1 0.853473 0.598481 0.634925
464 2 0.176133 0.423606 0.29133
465 2 0.547777 0.942487 0.783441
466 2 0.908789 0.695803 0.609085
467 1 0.498663 0.184156 0.833206
468 2 0.148255 0.910495 0.862261
469 2 0.878854 0.731553 0.617079
470 2 0.617768 0.893938 0.739923
471 2 0.845548 0.649309 0.647533
472 2 0.857707 0.71105 0.617445
473 1 0.792091 0.702172 0.69644
474 1 0.412531 0.412253 0.403709
475 1 0.823539 0.333325 0.399197
476 2 0.604183 0.898789 0.731617
477 2 0.559562 0.963463 0.735367
478 2 0.0623714 0.766774 0.671845
479 2 0.423656 0.588201 0.181592
480 2 0.531697 0.950489 0.767951
481 2 0.856794 0.717867 0.642662
482 2 0.229331 0.883422 0.46621
483 2 0.868679 0.702808 0.605214
484 1 0.930998 0.646164 0.631566
485 1 0.490838 0.925975 0.689559
486 2 0.852689 0.647978 0.638832
487 2 0.140328 0.0391348 0.694749
488 2 0.871609 0.69578 0.648385
489 2 0.872459 0.651253 0.662627
490 2 0.845544 0.740234 0.613486
491 2 0.872279 0.646298 0.644508
492 2 0.871751 0.740333 0.661299
493 2 0.903853 0.675618 0.645249
494 2 0.576321 0.950846 0.74584
495 2 0.58561 0.940095 0.776429
496 2 0.876778 0.666663 0.607157
497 2 0.20129 0.83398 0.881842
498 1 0.573183 0.937157 0.340498
499 2 0.617507 0.946727 0.742218
500 2 0.512744 0.533988 0.6176
501 1 0.782705 0.634817 0.630471
502 2 0.690587 0.515886 0.485189
503 2 0.871288 0.721098 0.587475
504 1 0.536824 0.870065 0.730319
505 2 0.859617 0.725618 0.65442
506 2 0.873479 0.645478 0.611985
507 2 0.496284 0.0511856 0.756661
508 2 0.577383 0.933926 0.76078
509 1 0.656142 0.969838 0.71202
510 2 0.832574 0.663073 0.629988
511 2 0.611358 0.970164 0.790654
512 2 0.84401 0.662864 0.627541
513 1 0.193477 0.0665646 0.480577
514 2 0.629789 0.935352 0.757434
515 1 0.621761 0.817829 0.804142
516 2 0.587393 0.910181 0.706332
517 1 0.804321 0.612785 0.651442
518 2 0.0884399 0.485481 0.985842
519 2 0.588289 0.934507 0.705363
520 2 0.567354 0.941736 0.771592
521 2 0.571979 0.137629 0.166163
522 2 0.940684 0.498096 0.0761507
523 2 0.809328 0.717817 0.625403
524 2 0.98464 0.0817682 0.409295
525 2 0.810297 0.707071 0.611069
526 2 0.172119 0.649331 0.975561
527 2 0.865395 0.734852 0.599835
528 1 0.19618 0.39376 0.216603
529 2 0.803617 0.728593 0.641719
530 2 0.796891 0.801232 0.529468
531 2 0.607022 0.903172 0.777117
532 2 0.589044 0.918292 0.736895
533 2 0.336268 0.488321 0.144158
534 1 0.552914 0.989913 0.698555
535 2 0.830811 0.711927 0.647008
536 1 0.811834 0.708787 0.558532
537 1 0.567262 0.967734 0.666102
538 2 0.163717 0.0685473 0.173157
539 2 0.888641 0.687819 0.628609
540 2 0.526435 0.60173 0.183931
541 1 0.812041 0.615229 0.604381
542 2 0.60497 0.897889 0.785187
543 1 0.23539 0.115948 0.0371347
544 1 0.936873 0.700921 0.618337
545 2 0.828724 0.725131 0.620696
546 2 0.95309 0.691289 0.738885
547 2 0.828287 0.0768157 0.822312
548 2 0.6121 0.934395 0.707281
549 2 0.660906 0.992762 0.932972
550 2 0.0951274 0.479004 0.278141
551 1 0.824646 0.745432 0.695742
552 2 0.882112 0.689251 0.11163
553 2 0.820926 0.685217 0.668135
554 2 0.598066 0.943908 0.699379
555 1 0.867266 0.414558 0.225467
556 2 0.133263 0.569467 0.357723
557 2 0.838254 0.702889 0.627038
558 1 0.830944 0.773806 0.654094
559 2 0.896167 0.662508 0.65242
560 2 0.534942 0.975861 0.727266
561 2 0.892015 0.0521493 0.330129
562 1 0.877195 0.64273 0.564269
563 2 0.868637 0.709185 0.646323
564 2 0.239213 0.391188 0.400076
565 2 0.879382 0.695782 0.590266
566 2 0.212246 0.377614 0.937465
567 2 0.874965 0.720857 0.647064
568 2 0.787218 0.631999 0.734577
569 1 0.811488 0.690964 0.512588
570 2 0.852236 0.698813 0.637454
571 2 0.00020841 0.208464 0.227261
572 2 0.622609 0.891589 0.767473
573 2 0.884281 0.66571 0.60841
574 2 0.220943 0.645795 0.109972
575 1 0.254557 0.910036 0.409334
576 2 0.838423 0.664853 0.599912
577 2 0.621581 0.912116 0.709678
578 1 0.608361 0.941402 0.846422
579 2 0.611802 0.953837 0.731477
580 1 0.026191 0.332535 0.282702
581 2 0.71221 0.497733 0.44892
582 2 0.571692 0.909781 0.749728
583 1 0.94999 0.460543 0.347333
584 2 0.610598 0.969986 0.755602
585 1 0.851837 0.788919 0.693911
586 2 0.831966 0.723762 0.632692
587 2 0.548974 0.885365 0.751005
588 2 0.889093 0.09158 0.157938
589 1 0.668669 0.916366 0.780689
590 1 0.486796 0.811782 0.590041
591 1 0.671453 0.854351 0.711523
592 2 0.047224 0.747726 0.605044
593 2 0.605792 0.93549 0.742511
594 1 0.173328 0.876538 0.0392324
595 1 0.795454 0.167852 0.921915
596 2 0.874546 0.368717 0.132791
597 1 0.436228 0.565729 0.845389
598 2 0.681818 0.893351 0.936686
599 2 0.800711 0.691703 0.615627
600 2 0.310934 0.377898 0.380194
601 2 0.803622 0.704743 0.663031
602 1 0.905028 0.614374 0.557315
603 2 0.565934 0.549503 0.637322
604 1 0.981803 0.256085 0.674376
605 2 0.072585 0.700069 0.510011
606 2 0.97329 0.841025 0.133752
607 1 0.790501 0.630021 0.689715
608 2 0.183896 0.717062 0.988292
609 2 0.832796 0.67373 0.614248
610 2 0.878682 0.70837 0.620608
611 2 0.564471 0.957087 0.781792
612 1 0.618536 0.677263 0.410714
613 2 0.055924 0.126794 0.571446
614 1 0.719529 0.0109121 0.206656
615 2 0.484479 0.555431 0.273874
616 1 0.528938 0.871025 0.772065
617 2 0.56687 0.931248 0.794774
618 2 0.116588 0.932592 0.341827
619 2 0.190768 0.913 0.429231
620 2 0.215332 0.0251779 0.0832815
621 2 0.872801 0.683756 0.647914
622 2 0.874154 0.694377 0.642208
623 1 0.396024 0.469071 0.452658
624 2 0.453083 0.96287 0.821744
625 2 0.992132 0.109391 0.686358
626 2 0.24547 0.652786 0.920691
627 2 0.553913 0.903941 0.750951
628 2 0.235993 0.324305 0.376533
629 2 0.556158 0.473326 0.247916
630 1 0.832298 0.70237 0.724104
631 2 0.304526 0.212199 0.352806
632 2 0.832275 0.662124 0.655751
633 2 0.62682 0.916838 0.753547
634 2 0.110403 0.00609925 0.377067
635 2 0.412894 0.357459 0.214812
636 2 0.574038 0.975443 0.7898
637 2 0.613516 0.910906 0.763392
638 1 0.57932 0.946508 0.428365
639 2 0.602132 0.920029 0.762014
640 2 0.590552 0.90021 0.765449
641 2 0.892785 0.707831 0.59885
642 2 0.854246 0.677378 0.637399
643 2 0.76325 0.741527 0.990166
644 2 0.546971 0.943078 0.804417
645 1 0.60992 0.920821 0.631256
646 2 0.544322 0.941835 0.760929
647 1 0.754391 0.390307 0.203728
648 2 0.368451 0.399789 0.393664
649 2 0.814773 0.653576 0.60776
650 2 0.562166 0.988773 0.743034
651 2 0.886334 0.697824 0.602167
652 2 0.880189 0.6811 0.627428
653 2 0.855208 0.714765 0.604711
654 1 0.864714 0.623291 0.687172
655 2 0.892882 0.918444 0.213943
656 2 0.544513 0.961097 0.776128
657 2 0.994518 0.497096 0.420899
658 2 0.831958 0.739829 0.646031
659 2 0.577282 0.907569 0.778569
660 2 0.450375 0.997134 0.279559
661 1 0.457308 0.519829 0.555775
662 2 0.869539 0.709462 0.664796
663 2 0.608398 0.960837 0.746335
664 1 0.42105 0.827402 0.39606
665 2 0.083264 0.517991 0.057737
666 2 0.569262 0.935193 0.730151
667 2 0.54728 0.934573 0.779087
668 2 0.570796 0.948888 0.757695
669 2 0.637796 0.196099 0.436055
670 1 0.141395 0.952903 0.425633
671 2 0.32705 0.608222 0.35778
672 1 0.834935 0.64682 0.535955
673 2 0.857255 0.681802 0.684144
674 2 0.369833 0.550798 0.187153
675 2 0.675568 0.304728 0.877293
676 1 0.152469 0.0983649 0.021071
677 2 0.586569 0.956586 0.763716
678 2 0.628857 0.937382 0.743367
679 1 0.0494168 0.202487 0.663024
680 2 0.576101 0.900753 0.726631
681 1 0.780226 0.65093 0.594457
682 1 0.647247 0.843101 0.495115
683 2 0.410301 0.445229 0.872743
684 2 0.169481 0.102796 0.93351
685 2 0.56029 0.938166 0.709705
686 2 0.0743233 0.950245 0.466652
687 1 0.648234 0.876941 0.783071
688 2 0.455961 0.761998 0.47827
689 2 0.864009 0.704163 0.676422
690 2 0.829848 0.671209 0.680359
691 2 0.620061 0.0989213 0.640658
692 1 0.613146 0.0225667 0.745202
693 2 0.172616 0.360302 0.478197
694 2 0.577738 0.909359 0.796907
695 1 0.501927 0.934469 0.786098
696 2 0.803839 0.148358 0.995105
697 2 0.291365 0.626435 0.27316
698 2 0.833937 0.7111 0.616471
699 2 0.804673 0.679918 0.629282
700 1 0.559502 0.947168 0.842356
701 2 0.84038 0.731601 0.648446
702 2 0.641679 0.942282 0.740825
703 2 0.292374 0.707884 0.22222
704 2 0.791671 0.399974 0.90098
705 2 0.8163 0.66213 0.648502
706 2 0.863588 0.674321 0.6612
707 2 0.490583 0.343583 0.155484
708 1 0.868289 0.710885 0.711762
709 2 0.234716 0.789021 0.335681
710 2 0.839519 0.700557 0.648507
711 2 0.609085 0.865606 0.437804
712 1 0.906972 0.743834 0.669941
713 2 0.835765 0.71445 0.591606
714 1 0.899177 0.715083 0.552841
715 2 0.568601 0.931719 0.761628
716 1 0.259162 0.250392 0.341012
717 2 0.589255 0.927876 0.761609
718 2 0.612304 0.678089 0.579653
719 2 0.859109 0.687824 0.652182
720 2 0.716619 0.680862 0.265007
721 2 0.583696 0.963933 0.706336
722 1 0.286256 0.795641 0.746017
723 2 0.87748 0.253663 0.299656
724 2 0.592533 0.944327 0.812947
725 2 0.97835 0.170771 0.382908
726 2 0.82208 0.677642 0.592863
727 1 0.794999 0.434737 0.859399
728 1 0.17984 0.157599 0.967765
729 1 0.675025 0.910765 0.725025
730 1 0.595184 -2.00807e-05 0.687845
731 2 0.851417 0.720066 0.686534
732 1 0.432236 0.177703 0.633801
733 2 0.1257 0.103533 0.502606
734 2 0.533853 0.921294 0.778231
735 2 0.997079 0.603413 0.757128
736 1 0.544197 0.926198 0.660948
737 2 0.615447 0.935143 0.783359
738 2 0.748079 0.248908 0.838599
739 2 0.607263 0.94256 0.76993
740 2 0.965173 0.519281 0.32205
741 2 0.56509 0.915357 0.802528
742 1 0.504562 0.974898 0.767048
743 2 0.832763 0.691519 0.664189
744 2 0.890688 0.662235 0.632574
745 2 0.574592 0.959496 0.785272
746 1 0.862899 0.596262 0.736729
747 2 0.0977243 -5.96411e-05 0.438951
748 2 0.75135 0.577688 0.740484
749 2 0.859025 0.708585 0.688759
750 2 0.369882 0.371376 0.0627334
751 2 0.569964 0.987785 0.762646
752 2 0.598984 0.962432 0.774802
753 2 0.146187 0.418089 0.143026
754 2 0.0909513 0.99515 0.928822
755 2 0.626193 0.916811 0.793282
756 2 0.812949 0.990628 0.476375
757 2 0.805817 0.689027 0.638325
758 2 0.371878 0.503874 0.623364
759 2 0.552215 0.955979 0.750664
760 1 0.479092 0.807437 0.348626
761 2 0.568752 0.941208 0.783504
762 2 0.614733 0.91147 0.786575
763 1 0.607908 0.430721 0.260906
764 2 0.560394 0.896433 0.743436
765 2 0.551729 0.914831 0.77098
766 2 0.878143 0.740463 0.631624
767 2 0.722055 0.597957 0.258662
768 2 0.304025 0.664525 0.104949
769 2 0.831458 0.661105 0.593651
770 2 0.846274 0.706802 0.654555
771 2 0.530979 0.32587 0.480706
772 2 0.111985 0.515145 0.0778214
773 1 0.863057 0.674866 0.730576
774 2 0.117626 0.0244719 0.353068
775 2 0.179661 0.830384 0.88095
776 2 0.936704 0.597632 0.823828
777 1 0.554502 0.884797 0.856138
778 2 0.853239 0.715833 0.625676
779 2 0.98964 0.523347 0.263905
780 1 0.914036 0.65491 0.579247
781 2 0.589827 0.959647 0.79319
782 2 0.484708 0.534826 0.996565
783 1 0.533155 0.881834 0.807354
784 2 0.881417 0.678676 0.640408
785 2 0.886956 0.626706 0.486762
786 1 0.789841 0.741636 0.750206
787 2 0.812091 0.677398 0.65372
788 2 0.816723 0.644484 0.625741
789 2 0.580312 0.371109 0.741283
790 2 0.614311 0.0196621 0.723564
791 1 0.835361 0.605592 0.675348
792 2 0.868259 0.713906 0.654384
793 2 0.319532 0.684672 0.123698
794 2 0.0206611 0.924059 0.839416
795 2 0.584744 0.930383 0.742198
796 2 0.294308 0.190461 0.405753
797 2 0.83741 0.701465 0.608769
798 2 0.0223813 0.823562 0.838725
799 2 0.581203 0.918038 0.769875
800 2 0.335486 0.387828 0.412146
801 2 0.557416 0.962797 0.768614
802 2 0.568131 0.104581 0.883991
803 2 0.876267 0.724397 0.664167
804 2 0.906752 0.346429 0.993713
805 2 0.580219 0.236548 0.132459
806 1 0.221528 0.873705 0.349165
807 2 0.626282 0.891945 0.749373
808 2 0.817154 0.146268 0.974963
809 1 0.828374 0.640791 0.705956
810 2 0.595997 0.89706 0.71507
811 2 0.860207 0.641242 0.62314
812 2 0.820208 0.662041 0.662119
813 1 0.580536 0.200928 0.0928229
814 2 0.897799 0.670961 0.676611
815 2 0.840885 0.68175 0.620918
816 1 0.78367 0.63687 0.565511
817 1 0.533912 0.923673 0.827746
818 2 0.870493 0.682061 0.672235
819 1 0.857468 0.75429 0.571236
820 1 0.635716 0.00654638 0.788668
821 2 0.525479 0.948434 0.741682
822 2 0.591711 0.977177 0.768634
823 1 0.917495 0.722806 0.59909
824 2 0.708377 0.348054 0.640946
825 2 0.876249 0.716312 0.583928
826 2 0.365007 0.332648 0.403303
827 1 0.910071 0.298421 0.837576
828 2 0.90865 0.771294 0.700632
829 2 0.842933 0.639574 0.624879
830 2 0.439841 0.141765 0.662216
831 1 0.578198 0.903678 0.670668
832 2 0.358301 0.275268 0.87123
833 1 0.889926 0.675408 0.543775
834 2 0.860991 0.667442 0.64249
835 2 0.723417 0.969213 0.132935
836 2 0.844267 0.725109 0.653006
837 2 0.398104 0.882998 0.82864
838 2 0.595281 0.940246 0.737139
839 2 0.662923 0.561068 0.80832
840 2 0.593406 0.92238 0.799423
841 2 0.766154 0.845892 0.629242
842 2 0.313413 0.841669 0.167837
843 2 0.857661 0.675031 0.590406
844 2 0.82511 0.652009 0.670491
845 2 0.810899 0.692758 0.60577
846 2 0.804445 0.669875 0.654764
847 2 0.856629 0.652767 0.670472
848 2 0.334883 0.440697 0.0213209
849 1 0.574054 0.0177147 0.771093
850 2 0.87626 0.652378 0.630775
851 2 0.57657 0.929044 0.780814
852 2 0.548021 0.9414 0.746526
853 1 0.157491 0.130374 0.917702
854 2 0.21228 0.443233 0.00266862
855 2 0.828802 0.687167 0.691982
856 2 0.860084 0.652659 0.642114
857 2 0.566457 0.884642 0.773815
858 2 0.88587 0.710452 0.634019
859 2 0.85273 0.679464 0.606559
860 2 0.577879 0.18211 0.163068
861 2 0.89273 0.720868 0.654109
862 2 0.98378 0.908909 0.0909398
863 2 0.621773 0.914889 0.734179
864 2 0.605046 0.941409 0.798015
865 2 0.794183 0.706519 0.648585
866 2 0.842262 0.676359 0.605564
867 2 0.706746 0.953479 0.206427
868 2 0.631305 0.294821 0.51768
869 2 0.856796 0.678699 0.576797
870 2 0.870899 0.685131 0.600487
871 2 0.607416 0.879774 0.758115
872 2 0.54782 0.907052 0.782992
873 2 0.858694 0.679352 0.700104
874 2 0.886942 0.692399 0.654158
875 2 0.333806 0.974605 0.47981
876 2 0.727663 0.233557 0.616122
877 2 0.575688 0.921388 0.757356
878 2 0.192985 0.00175185 0.384431
879 2 0.338186 0.738994 0.856912
880 2 0.293661 0.179634 0.450741
881 2 0.843881 0.670048 0.674248
882 1 0.667915 0.716534 0.114098
883 1 0.385703 0.162395 0.01246
884 2 0.231094 0.977807 0.0675969
885 2 0.830312 0.945166 0.045053
886 2 0.867067 0.654693 0.597714
887 1 0.143595 0.37985 0.968849
888 2 0.234544 0.332093 0.546212
889 2 0.808368 0.616336 0.413759
890 1 0.772925 0.732582 0.66332
891 2 0.120449 0.0694504 0.95616
892 2 0.865698 0.675286 0.620861
893 2 0.586621 0.92119 0.784361
894 2 0.58212 0.915525 0.71855
895 1 0.880292 0.650936 0.712029
896 2 0.37267 0.00994972 0.555829
897 2 0.774895 0.758513 0.474519
898 2 0.629745 0.951386 0.77794
899 2 0.157074 0.123887 0.117098
900 2 0.598369 0.915773 0.750685
901 2 0.613332 0.894833 0.722786
902 2 0.82807 0.710411 0.622945
903 2 0.595434 0.924692 0.768322
904 2 0.633164 0.960287 0.758695
905 2 0.800204 0.480981 0.00752669
906 2 0.674289 0.780717 0.407643
907 2 0.835532 0.698665 0.665367
908 1 0.610614 0.859928 0.727812