ITEM: TIMESTEP
34300
ITEM: NUMBER OF ATOMS
1000
ITEM: BOX BOUNDS xy xz yz pp pp pp
0.0000000000000000e+00 1.3572088000000001e+01 0.0000000000000000e+00
0.0000000000000000e+00 1.3572088000000001e+01 0.0000000000000000e+00
0.0000000000000000e+00 1.3572088000000001e+01 0.0000000000000000e+00
ITEM: ATOMS id type xs ys zs
1 2 0.0597113 0.0173879 0.383279
2 2 0.327355 0.527324 0.544033
3 1 0.136566 0.169513 0.675917
4 2 0.424495 0.768048 0.834918
5 2 0.230081 0.0509499 0.579132
6 1 0.836647 0.826216 0.741772
7 2 0.5298 0.709998 0.466635
8 2 0.0533662 0.0821856 0.650809
9 2 0.490428 0.886132 0.898251
10 2 0.527234 0.039231 0.431308
11 2 0.162737 0.328128 0.115571
12 2 0.483136 0.762952 0.612739
13 2 0.604121 0.997395 0.940233
14 1 0.294471 0.997589 0.745874
15 2 0.715887 0.722416 0.326059
16 2 0.58489 0.384893 0.891919
17 1 0.686863 0.982949 0.29597
18 2 0.923552 0.891548 0.00482228
19 2 0.591512 0.712348 0.616932
20 2 0.666266 0.578714 0.565494
21 2 0.0129542 0.214009 0.63282
22 2 0.942287 0.980873 0.350524
23 2 0.860393 0.233889 0.332248
24 2 0.871009 0.859302 0.202518
25 1 0.301519 0.283452 0.738613
26 2 0.538796 0.439114 0.325168
27 2 0.406487 0.0806028 0.8151
28 2 0.49286 0.101338 0.628112
29 2 0.664713 0.929548 0.689143
30 2 0.523203 0.467539 0.11144
31 1 0.068987 0.324142 0.217575
32 1 0.924536 0.411938 0.189084
33 1 0.466834 0.172981 0.759506
34 2 0.180277 0.144248 0.530691
35 2 0.460039 0.613818 0.0165851
36 1 0.431383 0.0389029 0.69762
37 2 0.647408 0.986933 0.977535
38 2 0.527238 0.165675 0.133248
39 2 0.136551 0.162034 0.245727
40 2 0.223745 0.168874 0.123786
41 2 0.544824 0.520383 0.124686
42 2 0.027297 0.36261 0.0880345
43 2 0.717658 0.97514 0.613054
44 2 0.166169 0.714252 0.333752
45 2 0.447428 0.920329 0.314265
46 1 0.167917 0.724733 0.578405
47 2 0.615168 0.633282 0.767505
48 2 0.77173 0.0480722 0.3407
49 2 0.090877 0.772898 0.385032
50 2 0.628951 0.525966 0.0866318
51 2 0.381667 0.16149 0.568931
52 2 0.823614 0.895605 0.484941
53 2 0.844412 0.867956 0.381556
54 2 0.559661 0.964109 0.838353
55 1 0.160445 0.822244 0.386161
56 1 0.500085 0.758219 0.55993
57 2 0.251963 0.0796877 0.732604
58 2 0.849022 0.982347 0.573472
59 2 0.51329 0.651319 0.629556
60 2 0.878749 0.17409 0.355372
61 2 0.560339 0.973379 0.564533
62 2 0.13373 0.691025 0.48329
63 2 0.549786 0.689439 0.138415
64 2 0.0224106 0.895061 0.829078
65 2 0.174585 0.909601 0.375609
66 1 0.45776 0.519411 0.231774
67 2 0.284808 0.50975 0.586326
68 2 0.0452801 0.592165 0.863413
69 1 0.0839146 0.586067 0.580215
70 2 0.566524 0.411059 0.501967
71 1 0.407541 0.91697 0.797295
72 2 0.358921 0.401771 0.844826
73 2 0.453854 0.901091 0.504737
74 2 0.240996 0.702083 0.136989
75 2 0.703481 0.976358 0.126601
76 2 0.0552982 0.07267 0.997246
77 1 0.816312 0.19233 0.39616
78 2 0.266746 0.504363 0.645717
79 2 0.213194 0.26615 0.62404
80 2 0.106471 0.34146 0.792403
81 2 0.513456 0.850656 0.61445
82 2 0.889732 0.895762 0.568064
83 2 0.245033 0.0986099 0.219726
84 2 0.66257 0.494674 0.537912
85 1 0.655938 0.520504 0.613141
86 2 0.580462 0.994682 0.615997
87 2 0.962268 0.966799 0.992059
88 2 0.248546 0.331562 0.53502
89 2 0.685338 0.374317 0.623905
90 2 0.903091 0.971305 0.423418
91 2 0.348272 0.46724 0.158472
92 2 0.692006 0.221045 0.450753
93 2 0.595402 0.196064 0.653352
94 1 0.89778 0.788516 0.752285
95 2 0.683182 0.769136 0.131563
96 2 0.47875 0.892108 0.531392
97 2 0.909307 0.00877244 0.118628
98 2 0.789241 0.468635 0.44657
99 2 0.530945 0.549261 0.54957
100 2 0.432887 0.253473 0.41438
101 1 0.577045 0.632874 0.951066
102 2 0.0921259 0.742607 0.633346
103 2 0.711173 0.571899 0.566541
104 2 0.160158 0.658681 0.34376
105 2 0.912064 0.633754 0.462698
106 2 0.923036 0.969175 0.74824
107 2 0.957922 0.912089 0.532354
108 2 0.846209 0.481466 0.756589
109 2 0.492936 0.122992 0.809622
110 2 0.423823 0.162358 0.791389
111 2 0.605143 0.0795022 0.998756
112 1 0.332335 0.214736 0.718479
113 1 0.934026 0.311321 0.288337
114 2 0.841356 0.920887 0.313826
115 2 0.211647 0.547396 0.430779
116 2 0.00736181 0.764853 0.811692
117 2 0.654923 0.823915 0.24451
118 2 0.668509 0.568588 0.388045
119 2 0.496721 0.443055 0.28413
120 2 0.574324 0.6183 0.638342
121 2 0.715479 0.690206 0.466541
122 2 0.97366 0.163488 0.881116
123 2 0.533858 0.291364 0.760091
124 2 0.242467 0.77687 0.669976
125 1 0.186991 0.103329 0.220207
126 2 0.00616206 0.737774 0.834244
127 2 0.649542 0.701789 0.938354
128 2 0.18838 0.856819 0.764318
129 1 0.255865 0.655142 0.582627
130 2 0.432639 0.064281 0.767892
131 2 0.983068 0.867515 0.214969
132 2 0.161352 0.155158 0.848377
133 2 0.693456 0.777753 0.702212
134 2 0.148435 0.221052 0.631617
135 2 0.759578 0.276911 0.367084
136 2 0.546357 0.698831 0.604461
137 1 0.773754 0.799641 0.923115
138 2 0.194797 0.658972 0.69249
139 2 0.851758 0.462498 0.152101
140 1 0.505682 0.568463 0.602833
141 2 0.176967 0.531524 0.564473
142 2 0.132988 0.783114 0.146045
143 2 0.198827 0.901859 0.888396
144 2 0.146772 0.293874 0.562665
145 2 0.154736 0.793748 0.889195
146 2 0.327075 0.740946 0.144762
147 1 0.598449 0.941583 0.809065
148 1 0.606749 0.239048 0.425803
149 2 0.846201 0.948256 0.899916
150 1 0.501821 0.983925 0.658939
151 2 0.90184 0.525941 0.981374
152 2 0.194886 0.203319 0.115301
153 1 0.818589 0.44997 0.68576
154 1 0.552018 0.0639026 0.751171
155 2 0.295165 0.814128 0.794636
156 2 0.783994 0.897475 0.30777
157 2 0.844793 0.770747 0.537733
158 2 0.450521 0.682583 0.502272
159 2 0.651703 0.623674 0.498528
160 2 0.255008 0.509831 0.852826
161 2 0.424716 0.46973 0.336348
162 2 0.0387794 0.521496 0.881572
163 2 0.731622 0.667843 0.0870105
164 2 0.557917 0.588318 0.771504
165 2 0.682351 0.313766 0.36968
166 2 0.46008 0.916306 0.177372
167 2 0.76454 0.994482 0.00264596
168 2 0.308253 0.704301 0.373808
169 2 0.160827 0.668176 0.472996
170 2 0.504057 0.810561 0.296177
171 2 0.767997 0.702541 0.85704
172 2 0.211187 0.821088 0.552052
173 1 0.621129 0.638936 0.575677
174 2 0.896777 0.231432 0.491245
175 2 0.00746197 0.892939 0.183015
176 2 0.581767 0.047257 0.684213
177 1 0.875094 0.0285505 0.659624
178 2 0.061311 0.0123918 0.787307
179 2 0.355233 0.517395 0.103542
180 2 0.29104 0.450012 0.591195
181 2 0.493496 0.0246831 0.759016
182 2 0.659188 0.222749 0.00597971
183 2 0.698901 0.39185 0.346883
184 2 0.179386 0.570276 0.406024
185 2 0.951137 0.850047 0.585545
186 2 0.607874 0.562699 0.143321
187 2 0.401938 0.533039 0.429706
188 1 0.981871 0.896393 0.852213
189 2 0.200247 0.392113 0.188495
190 2 0.720693 0.686585 0.425921
191 2 0.693383 0.46453 0.433074
192 2 0.510286 0.914953 0.767046
193 2 0.643132 0.928404 0.299696
194 2 0.105672 0.112294 0.0800041
195 2 0.190758 0.657313 0.106783
196 2 0.591923 0.625235 0.00344831
197 2 0.852204 0.22578 0.723392
198 2 0.176747 0.469026 0.943606
199 2 0.941259 0.976925 0.995041
200 1 0.696416 0.539114 0.413694
201 2 0.270656 0.464584 0.558211
202 2 0.603623 0.330989 0.807941
203 2 0.540393 0.634814 0.510573
204 2 0.708516 0.422765 0.498082
205 2 0.424337 0.312382 0.519371
206 2 0.252562 0.845876 0.927742
207 2 0.0712664 0.904171 0.320112
208 2 0.729821 0.416501 0.377976
209 2 0.600704 0.140846 0.92402
210 2 0.808263 0.403305 0.848942
211 2 0.848196 0.0967137 0.000902686
212 1 0.185017 0.0442014 0.721406
213 2 0.0915215 0.9859 0.30592
214 2 0.394296 0.435209 0.371684
215 2 0.638071 0.0461104 0.433746
216 2 0.44082 0.125028 0.520539
217 2 0.458187 0.516284 0.0791276
218 2 0.748169 0.175322 0.782307
219 2 0.0939882 0.848891 0.88591
220 2 0.820448 0.93115 0.326477
221 2 0.843495 0.848929 0.148027
222 2 0.358944 0.903505 0.237451
223 2 0.644157 0.300214 0.620345
224 2 0.10692 0.358074 0.163173
225 1 0.450456 0.317025 0.613433
226 2 0.56823 0.210021 0.709605
227 2 0.468835 0.0699634 0.779012
228 2 0.718604 0.592429 0.466844
229 2 0.819258 0.819721 0.368838
230 1 0.497625 0.535085 0.449308
231 2 0.914646 0.997831 0.969176
232 2 0.115757 0.756416 0.591731
233 1 0.482426 0.80361 0.682738
234 2 0.00688647 0.626064 0.50847
235 2 0.515829 0.663206 0.884983
236 2 0.356923 0.550091 0.99433
237 2 0.215286 0.80897 0.206959
238 1 0.0348129 0.390673 0.181303
239 1 0.642935 0.597967 0.364575
240 2 0.507397 0.923029 0.485744
241 2 0.419114 0.341038 0.793018
242 1 0.0412209 0.956294 0.148863
243 1 0.743931 0.820787 0.131021
244 2 0.783443 0.627363 0.994601
245 2 0.42035 0.302137 0.803319
246 1 0.0450161 0.926426 0.511395
247 2 0.295015 0.0813325 0.715605
248 2 0.0579427 0.960648 0.371577
249 2 0.19745 0.25548 0.285446
250 2 0.9317 0.90994 0.267329
251 2 0.546986 0.803565 0.277613
252 2 0.661509 0.496717 0.686403
253 2 0.331811 0.522817 0.186189
254 2 0.612409 0.00453625 0.576619
255 2 0.823976 0.243326 0.35814
256 2 0.913562 0.713171 0.398969
257 2 0.960628 0.0352816 0.697027
258 2 0.706348 0.861432 0.9324
259 1 0.786087 0.861958 0.659427
260 2 0.814332 0.837633 0.33306
261 1 0.0227207 0.362032 0.545088
262 2 0.707209 0.565245 0.548507
263 2 0.826012 0.455931 0.398638
264 2 0.201979 0.153365 0.579225
265 1 0.158721 0.737328 0.718283
266 2 0.467726 0.42968 0.73982
267 2 0.00541109 0.0858911 0.44206
268 1 0.375574 0.974885 0.138353
269 1 0.0726689 0.803774 0.613216
270 2 0.234331 0.0584856 0.454147
271 2 0.399305 0.622129 0.461289
272 2 0.274444 0.915093 0.757663
273 1 0.739532 0.640925 0.436275
274 2 0.869592 0.877899 0.186138
275 2 0.0905212 0.285223 0.917994
276 2 0.910926 0.737815 0.150291
277 2 0.648061 0.219341 0.69258
278 2 0.173005 0.4919 0.171203
279 2 0.232706 0.895029 0.0659092
280 1 0.662458 0.22122 0.60769
281 2 0.223961 0.413934 0.823181
282 2 0.956267 0.685122 0.863887
283 2 0.396342 0.168336 0.221982
284 1 0.133996 0.707967 0.64833
285 2 0.70176 0.614685 0.766144
286 2 0.456742 0.95563 0.903962
287 1 0.816342 0.157149 0.308396
288 2 0.0994305 0.604121 0.101581
289 2 0.683513 0.492701 0.0513075
290 2 0.19604 0.765665 0.628902
291 2 0.626374 0.636966 0.970082
292 2 0.643783 0.0119208 0.485017
293 2 0.349949 0.578025 0.937025
294 2 0.741884 0.717651 0.554369
295 2 0.761298 0.824302 0.882345
296 2 0.694419 0.359143 0.333799
297 2 0.673041 0.946369 0.0148488
298 2 0.69973 0.0500747 0.177252
299 1 0.471661 0.0336631 0.87431
300 2 0.63353 0.844796 0.903986
301 2 0.804771 0.125236 0.0566393
302 2 0.326752 0.815143 0.276247
303 2 0.158155 0.122001 0.519907
304 1 0.950023 0.968514 0.0555998
305 2 0.178347 0.818848 0.217448
306 2 0.176598 0.91962 0.664375
307 2 0.978581 0.130997 0.283761
308 2 0.759815 0.60608 0.462992
309 2 0.188016 0.873649 0.926841
310 2 0.0267906 0.586053 0.0658462
311 2 0.111156 0.45222 0.069177
312 2 0.119291 0.424637 0.383761
313 2 0.847134 0.542757 0.553722
314 2 0.397605 0.535296 0.555389
315 2 0.829181 0.696904 0.855729
316 2 0.0860087 0.906095 0.923069
317 2 0.666507 0.596524 0.443964
318 2 0.453153 0.90901 0.860969
319 2 0.0635481 0.917686 0.922558
320 2 0.136357 0.487033 0.204931
321 2 0.677823 0.5567 0.445618
322 2 0.142851 0.744889 0.488621
323 2 0.582963 0.534137 0.833588
324 2 0.661128 0.835135 0.862103
325 2 0.0656316 0.03144 0.841326
326 2 0.0749591 0.0872267 0.250977
327 2 0.138977 0.935683 0.443913
328 2 0.272797 0.52002 0.222095
329 1 0.84106 0.774894 0.631495
330 2 0.603646 0.692458 0.743313
331 2 0.234019 0.148396 0.526541
332 2 0.163152 0.887917 0.419276
333 2 0.895978 0.798241 0.667105
334 2 0.474764 0.709663 0.921708
335 1 0.0065627 0.0516073 0.195008
336 2 0.842706 0.545234 0.358973
337 2 0.74783 0.894601 0.55683
338 1 0.259321 0.279806 0.122396
339 2 0.612332 0.947997 0.655514
340 2 0.651343 0.526583 0.147147
341 2 0.061423 0.952027 0.196823
342 2 0.371511 0.956189 0.0221306
343 2 0.317507 0.420283 0.246628
344 1 0.664851 0.0424845 0.618119
345 1 0.686928 0.567835 0.481187
346 1 0.352132 0.808451 0.753051
347 1 0.870759 0.397832 0.126785
348 2 0.183027 0.56775 0.123293
349 2 0.702008 0.799263 0.0216968
350 2 0.319685 0.227227 0.369185
351 2 0.226912 0.819983 0.651026
352 2 0.823462 0.978175 0.356688
353 1 0.669931 0.734234 0.603666
354 1 0.729559 0.337517 0.333692
355 2 0.389251 0.637272 0.726055
356 2 0.670556 0.515583 0.475916
357 2 0.694778 0.406005 0.854776
358 2 0.809769 0.0152425 0.646224
359 2 0.279066 0.714841 0.759428
360 2 0.503702 0.597774 0.251035
361 1 0.756445 0.550987 0.493769
362 2 0.189338 0.564067 0.176302
363 1 0.153997 0.7175 0.526375
364 2 0.853914 0.924115 0.353477
365 2 0.324999 0.66674 0.707319
366 2 0.125658 0.406665 0.436686
367 1 0.655601 0.6116 0.65216
368 1 0.22064 0.15737 0.00916858
369 2 0.132731 0.890801 0.84898
370 2 0.922777 0.365241 0.166622
371 2 0.418035 0.673557 0.899294
372 1 0.505908 0.391091 0.387441
373 2 0.554608 0.926145 0.537356
374 2 0.774043 0.287289 0.0987796
375 2 0.18491 0.715318 0.675997
376 2 0.512241 0.405934 0.71935
377 2 0.759347 0.646796 0.47181
378 2 0.231625 0.722967 0.054713
379 2 0.933242 0.412101 0.852219
380 2 0.870015 0.33464 0.0582577
381 2 0.49598 0.844631 0.0664454
382 2 0.107766 0.990586 0.145086
383 2 0.965551 0.528922 0.697595
384 1 0.34473 0.464156 0.221866
385 2 0.128995 0.14195 0.829047
386 2 0.64943 0.977614 0.670121
387 1 0.628526 0.761422 0.864312
388 2 0.309249 0.424826 0.285924
389 2 0.526491 0.754665 0.13436
390 2 0.872118 0.927761 0.207232
391 2 0.174997 0.18847 0.581265
392 1 0.525743 0.298318 0.498809
393 2 0.276179 0.539758 0.577822
394 2 0.96627 0.201575 0.7585
395 2 0.732929 0.39404 0.685076
396 2 0.509679 0.97306 0.8932
397 2 0.667284 0.317786 0.918423
398 1 0.685344 0.505261 0.986921
399 1 0.638141 0.297565 0.208011
400 1 0.926362 0.619455 0.648997
401 2 0.315407 0.591155 0.248958
402 2 0.228719 0.826494 0.421942
403 2 0.864376 0.0890111 0.566394
404 2 0.219382 0.708786 0.699741
405 2 0.868917 0.523742 0.727397
406 2 0.181267 0.0962814 0.308235
407 2 0.218748 0.0692575 0.319089
408 2 0.634006 0.402152 0.101094
409 2 0.160588 0.338916 0.0565134
410 2 0.670202 0.00905465 0.0752599
411 2 0.49521 0.659524 0.2798
412 2 0.881372 0.746307 0.386453
413 2 0.694604 0.684295 0.520398
414 2 0.747566 0.98037 0.657235
415 2 0.298207 0.499651 0.621395
416 1 0.819334 0.490411 0.605246
417 2 0.94949 0.898258 0.701591
418 2 0.431159 0.36412 0.81393
419 2 0.423287 0.163481 0.414761
420 2 0.173458 0.150149 0.94706
421 1 0.922453 0.0812524 0.878336
422 1 0.131774 0.890528 0.465017
423 2 0.577924 0.00868245 0.654492
424 2 0.293534 0.715458 0.634643
425 1 0.111517 0.915969 0.5718
426 2 0.570116 0.0344437 0.928609
427 2 0.086778 0.264793 0.635989
428 2 0.536936 0.6584 0.968732
429 2 0.911061 0.967205 0.0848085
430 2 0.706534 0.397389 0.407094
431 2 0.874963 0.935814 0.582602
432 1 0.359945 0.513271 0.598017
433 2 0.662226 0.597794 0.812646
434 1 0.703597 0.297002 0.405078
435 2 0.646161 0.554405 0.0917178
436 2 0.736909 0.277248 0.333316
437 2 0.999245 0.826497 0.882594
438 2 0.0534038 0.404509 0.091562
439 1 0.293186 0.325118 0.505608
440 2 0.301277 0.372273 0.908825
441 1 0.691087 0.938525 0.934049
442 1 0.368592 0.470698 0.369218
443 1 0.624553 0.526924 0.432627
444 2 0.773231 0.58876 0.488474
445 2 0.125069 0.521451 0.313021
446 2 0.879541 0.422829 0.287379
447 2 0.710147 0.965599 0.729633
448 2 0.262321 0.754641 0.992549
449 1 0.479877 0.108309 0.698916
450 2 0.0824478 0.552023 0.776712
451 2 0.455797 0.101538 0.72741
452 2 0.477796 0.898923 0.702897
453 1 0.643674 0.0538872 0.508471
454 2 0.456314 0.387543 0.612363
455 2 0.411804 0.327718 0.686401
456 2 0.492597 0.381426 0.748257
457 2 0.592685 0.893473 0.740747
458 2 0.997695 0.523094 0.0201083
459 2 0.691209 0.0699641 0.498923
460 2 0.471613 0.0654878 0.0291317
461 2 0.518238 0.765771 0.0911281
462 2 0.54641 0.239374 0.813266
463 1 0.0439322 0.389653 0.669917
464 2 0.304794 0.271523 0.495019
465 2 0.915609 0.855469 0.147116
466 2 0.714706 0.895674 0.850923
467 1 0.626496 0.595017 0.739062
468 2 0.402482 0.819156 0.787025
469 2 0.751887 0.513013 0.134156
470 2 0.0829377 0.603269 0.632388
471 2 0.786259 0.00946981 0.681001
472 2 0.324427 0.47789 0.817792
473 1 0.886844 0.0484883 0.828438
474 1 0.81821 0.73095 0.916102
475 1 0.911423 0.892536 0.068908
476 2 0.475091 0.86782 0.509762
477 2 0.670223 0.274862 0.0146688
478 2 0.964127 0.934926 0.556275
479 2 0.457539 0.434891 0.715046
480 2 0.182071 0.148822 0.245264
481 2 0.439491 0.190802 0.711688
482 2 0.4579 0.928971 0.750105
483 2 0.971332 0.938347 0.154143
484 1 0.963059 0.988909 0.177347
485 1 0.842232 0.972349 0.0373123
486 2 0.534148 0.79635 0.321599
487 2 0.845725 0.254231 0.7137
488 2 0.602846 0.148586 0.112575
489 2 0.239837 0.397976 0.448135
490 2 0.587443 0.645067 0.478506
491 2 0.199101 0.314125 0.0898367
492 2 0.869143 0.941365 0.298246
493 2 0.0460708 0.114777 0.804622
494 2 0.390409 0.3221 0.685212
495 2 0.560172 0.407775 0.0312612
496 2 0.663778 0.895268 0.869088
497 2 0.0773622 0.0638839 0.796827
498 1 0.952587 0.906291 0.897972
499 2 0.425943 0.15273 0.987415
500 2 0.560656 0.324303 0.672929
501 1 0.781022 0.619201 0.594723
502 2 0.862346 0.311296 0.447236
503 2 0.463128 0.155212 0.69534
504 1 0.540234 0.00705232 0.752001
505 2 0.263551 0.841511 0.631739
506 2 0.0206887 0.440139 0.159083
507 2 0.612855 0.420994 0.0196525
508 2 0.893869 0.690448 0.962631
509 1 0.420905 0.525337 0.756305
510 2 0.71126 0.661661 0.59161
511 2 0.546505 0.910338 0.692302
512 2 0.979452 0.241411 0.297456
513 1 0.969798 0.101682 0.374513
514 2 0.614531 0.52998 0.347752
515 1 0.523963 0.730379 0.802076
516 2 0.486865 0.250665 0.808978
517 1 0.954773 0.0274036 0.035457
518 2 0.752462 0.505313 0.815572
519 2 0.578767 0.99262 0.756687
520 2 0.971066 0.834446 0.289422
521 2 0.882438 0.166516 0.0636992
522 2 0.255826 0.529107 0.933642
523 2 0.901509 0.475192 0.776458
524 2 0.251481 0.602654 0.742517
525 2 0.964843 0.737032 0.815494
526 2 0.952276 0.805586 0.11405
527 2 0.195725 0.683055 0.375347
528 1 0.416732 0.989713 0.827653
529 2 0.62193 0.178437 0.044022
530 2 0.945706 0.481049 0.501977
531 2 0.536628 0.114865 0.691764
532 2 0.0729835 0.455722 0.405793
533 2 0.474862 0.00935758 0.818238
534 1 0.625967 0.54125 0.546576
535 2 0.908787 0.444188 0.405387
536 1 0.389262 0.575643 0.660113
537 1 0.484825 0.83979 0.561515
538 2 0.933273 0.868929 0.651732
539 2 0.357942 0.49304 0.79511
540 2 0.461322 0.1735 0.514902
541 1 0.455453 0.690225 0.58965
542 2 0.559448 0.65357 0.927011
543 1 0.0966341 0.946857 0.113993
544 1 0.682336 0.697673 0.497153
545 2 0.507688 0.512882 0.598611
546 2 0.192611 0.970823 0.087871
547 2 0.678811 0.0861449 0.799865
548 2 0.480765 0.238618 0.531176
549 2 0.265127 0.899772 0.159516
550 2 0.585284 0.058849 0.405867
551 1 0.594726 0.316982 0.346448
552 2 0.269481 0.375875 0.487847
553 2 0.846863 0.777879 0.924636
554 2 0.172525 0.0316695 0.626238
555 1 0.469446 0.00873441 0.622891
556 2 0.770419 0.285147 0.705073
557 2 0.660532 0.105938 0.0244507
558 1 0.302767 0.253235 0.433765
559 2 0.136994 0.856281 0.392753
560 2 0.90265 0.781151 0.225447
561 2 0.258505 0.106402 0.10209
562 1 0.35548 0.69132 0.531426
563 2 0.455054 0.532816 0.031255
564 2 0.246381 0.749035 0.935264
565 2 0.212538 0.604655 0.886566
566 2 0.509232 0.462125 1.0029
567 2 0.222625 0.55379 0.0463007
568 2 0.989273 0.632196 0.94366
569 1 0.517129 0.897067 0.975932
570 2 0.884106 0.806848 0.627136
571 2 0.877471 0.804744 0.263841
572 2 0.268768 0.381808 0.121211
573 2 0.670887 0.356618 0.351566
574 2 0.828922 1.00052 0.54496
575 1 0.943858 0.938453 0.199071
576 2 0.838154 0.553811 0.926577
577 2 0.593981 0.0712305 0.525637
578 1 0.413368 0.539233 0.27731
579 2 0.397052 0.0142311 0.90463
580 1 0.990492 0.839427 0.94136
581 2 0.545983 0.408505 0.803378
582 2 0.582684 0.44901 0.256268
583 1 0.727114 0.629975 0.584279
584 2 0.641139 0.47643 0.473448
585 1 0.929417 0.409685 0.102751
586 2 0.550761 0.806256 0.86786
587 2 0.10769 0.57643 0.39327
588 2 0.978377 0.87457 0.234688
589 1 0.883555 0.463465 0.494536
590 1 0.836251 0.0809461 0.676815
591 1 0.770698 0.604655 0.512857
592 2 0.147324 0.545238 0.650468
593 2 0.256496 0.751909 0.0596132
594 1 0.194033 0.17722 0.749952
595 1 0.487367 0.0900301 0.752247
596 2 0.872149 0.355553 0.64986
597 1 0.513704 0.0416965 0.68759
598 2 0.638437 0.953153 0.934853
599 2 0.212977 0.749677 0.423338
600 2 0.787134 0.87769 0.526474
601 2 0.761181 0.974524 0.21294
602 1 0.607963 0.284471 0.0985593
603 2 0.311733 0.168056 0.84259
604 1 0.764621 0.28253 0.945151
605 2 0.100255 0.108589 0.270819
606 2 0.788761 0.0826351 0.884483
607 1 0.00818907 0.389638 0.30927
608 2 0.519455 0.695416 0.710903
609 2 0.0951665 0.957928 0.596793
610 2 0.728528 0.453477 0.658603
611 2 0.163825 0.0326044 0.314189
612 1 0.61349 0.57675 0.412407
613 2 0.884078 0.531464 0.757085
614 1 0.385264 0.825786 0.868922
615 2 0.885983 0.96589 0.0964621
616 1 0.441922 0.0788347 0.613065
617 2 0.0147738 0.348489 0.729538
618 2 0.738126 0.357867 0.72685
619 2 0.469519 0.162026 0.720016
620 2 0.893772 0.299042 0.0236096
621 2 0.820346 0.825205 0.109875
622 2 0.279071 0.426545 0.617051
623 1 0.0552027 0.995404 0.0903798
624 2 0.852481 0.36441 0.801604
625 2 0.20153 0.98723 0.878624
626 2 0.271153 0.286219 0.431255
627 2 0.64887 0.959723 0.634932
628 2 0.827731 0.159459 0.122581
629 2 0.0464722 0.353196 0.0439091
630 1 0.392138 0.370919 0.794716
631 2 0.915208 0.023808 0.0700872
632 2 0.566183 0.829671 0.105623
633 2 0.302718 0.634863 0.63303
634 2 0.79462 0.568828 0.46655
635 2 0.599778 0.273551 0.352589
636 2 0.920128 0.720405 0.721015
637 2 0.100707 0.625603 0.0203348
638 1 0.955129 0.976372 0.134364
639 2 0.314477 0.0297975 0.990893
640 2 0.639028 0.653313 0.415291
641 2 0.243641 0.594245 0.683575
642 2 0.260977 0.886836 0.134239
643 2 0.226489 0.898891 0.116096
644 2 0.246082 0.799048 0.71238
645 1 0.451377 0.00144708 0.775252
646 2 0.710169 0.872619 0.880737
647 1 0.706333 0.612455 0.502944
648 2 0.938111 0.0721057 0.300222
649 2 0.0182263 0.220432 0.712706
650 2 0.656774 0.637631 0.954138
651 2 0.838129 0.196066 0.661163
652 2 0.388865 0.29879 0.204645
653 2 0.630628 0.00509313 0.107389
654 1 0.331738 0.650687 0.651141
655 2 0.86534 0.713375 0.356171
656 2 0.305735 0.532818 0.512191
657 2 0.758392 0.316853 0.846445
658 2 0.705943 0.727087 0.140268
659 2 0.739886 0.0265965 0.328074
660 2 0.915071 0.806838 0.551388
661 1 0.632769 0.0708883 0.105687
662 2 0.969044 0.357915 0.0251836
663 2 0.475431 0.841247 0.151617
664 1 0.694056 0.610525 0.831835
665 2 0.174547 0.240592 0.87916
666 2 0.460302 0.0451584 0.772295
667 2 0.471674 0.91203 0.878262
668 2 0.508095 0.888385 0.574378
669 2 0.468338 0.297375 0.554073
670 1 0.505884 0.469668 0.440535
671 2 0.0866027 0.707947 0.221919
672 1 0.780432 0.566726 0.391098
673 2 0.82775 0.545782 0.644848
674 2 0.186638 0.666933 0.412283
675 2 0.648577 0.554809 0.449039
676 1 0.189055 0.020552 0.589999
677 2 0.569337 0.519641 0.519815
678 2 0.927168 0.045941 0.782151
679 1 0.272453 0.426256 0.231813
680 2 0.241473 0.451321 0.444997
681 1 0.407133 0.651926 0.961073
682 1 0.57547 0.025966 0.812154
683 2 0.942528 0.875352 0.986237
684 2 0.0787108 0.625818 0.767999
685 2 0.364313 0.835487 0.318799
686 2 0.159408 0.873533 0.531149
687 1 0.590791 0.139347 0.748494
688 2 0.689341 0.637532 0.52476
689 2 0.848465 0.269415 0.0130232
690 2 0.123194 0.746595 0.0602199
691 2 0.794489 0.980393 0.347488
692 1 0.506251 0.0514525 0.546738
693 2 0.796118 0.504802 0.919017
694 2 0.157742 0.670286 0.747659
695 1 0.0128123 0.525184 0.613172
696 2 0.347536 0.675194 0.44945
697 2 0.733367 0.708456 0.484031
698 2 0.417553 0.199192 0.039015
699 2 0.712649 0.275311 0.198909
700 1 0.514512 0.959897 0.807524
701 2 0.0747409 0.88336 0.924327
702 2 0.926287 0.943437 0.024282
703 2 0.884471 0.841362 0.434774
704 2 0.137715 0.349233 0.745944
705 2 0.275306 0.233034 0.754707
706 2 0.913725 1.00136 0.88374
707 2 0.272822 0.515286 0.002162
708 1 0.128095 0.822971 0.472015
709 2 0.00184294 0.128493 0.899363
710 2 0.156139 0.637676 0.580951
711 2 0.94731 0.130732 0.638819
712 1 0.681086 0.748895 0.800153
713 2 0.5902 0.584964 0.820306
714 1 0.58867 0.691508 0.925811
715 2 0.764189 0.579645 0.465939
716 1 0.786132 0.805769 0.549393
717 2 0.114604 0.279239 0.736142
718 2 0.380323 0.642613 0.0466442
719 2 0.756853 0.969403 0.631101
720 2 0.46854 0.361842 0.825557
721 2 0.274199 0.646627 0.0717375
722 1 0.242489 0.668633 0.749515
723 2 0.279365 0.535405 0.828662
724 2 0.655376 0.118041 0.311969
725 2 0.656821 0.26487 0.63889
726 2 0.928632 0.0302524 0.659847
727 1 0.664212 0.551654 0.300588
728 1 0.719767 0.923653 0.664715
729 1 0.888028 0.286501 0.818818
730 1 0.543224 0.828201 0.549485
731 2 0.249421 0.722661 0.463971
732 1 0.235842 0.0358067 0.321582
733 2 0.682256 0.671612 0.285267
734 2 0.97668 0.79298 0.246526
735 2 0.699086 0.579518 0.414912
736 1 0.735407 0.741529 0.568084
737 2 0.507432 0.444864 0.640375
738 2 0.503654 0.170012 0.349022
739 2 0.636938 0.993909 0.172537
740 2 0.87662 0.492231 0.0383556
741 2 0.773724 0.400509 0.0371115
742 1 0.291409 0.785418 0.636041
743 2 0.798058 0.868357 0.808226
744 2 0.0508434 0.530856 0.921592
745 2 0.660838 0.50925 0.936444
746 1 0.652772 0.253851 0.545445
747 2 0.275161 0.374583 0.0187495
748 2 0.61663 0.293503 0.432185
749 2 0.592411 0.47992 0.717299
750 2 0.674319 0.634458 0.461205
751 2 0.40363 0.0166079 0.784846
752 2 0.502988 0.0311465 0.839244
753 2 0.197635 0.403458 0.25175
754 2 0.0484759 0.866933 0.780802
755 2 0.385275 0.513758 0.963297
756 2 0.863331 0.975056 0.882112
757 2 0.00232012 0.133366 0.527378
758 2 0.943125 0.0725631 0.677558
759 2 0.499888 0.237317 0.789633
760 1 0.588242 0.998392 0.874642
761 2 0.903608 0.0216316 0.267973
762 2 0.496478 0.800527 0.0834928
763 1 0.579784 0.347714 0.0844285
764 2 0.373747 0.145344 0.822425
765 2 0.817171 0.849718 0.979166
766 2 0.822976 0.790478 0.165419
767 2 0.0487626 0.667375 0.019552
768 2 0.400296 0.132946 0.0920156
769 2 0.458352 0.880562 0.104179
770 2 0.908747 0.904513 0.851543
771 2 0.568579 0.335881 0.0337875
772 2 0.239377 0.216913 0.179093
773 1 0.757252 0.500083 0.402873
774 2 0.526535 0.764828 0.0607955
775 2 0.897083 0.221756 0.273447
776 2 0.467372 0.0581149 0.827785
777 1 0.512119 0.0659266 0.825944
778 2 0.848057 0.802638 0.234653
779 2 0.511448 0.831065 0.0638367
780 1 0.275619 0.22706 0.499483
781 2 0.82882 0.603892 0.404736
782 2 0.703565 0.610165 0.471332
783 1 0.849427 0.853389 0.63599
784 2 0.431269 0.399877 0.828586
785 2 0.985443 0.514883 0.80223
786 1 0.44923 0.843322 0.594912
787 2 0.886977 0.884715 0.58431
788 2 0.996527 0.445519 0.327716
789 2 0.709404 0.311219 0.188799
790 2 0.874114 0.231399 0.270656
791 1 0.180869 0.559364 0.0052563
792 2 0.873923 0.596492 0.151052
793 2 0.927326 0.0795772 0.465717
794 2 0.814186 0.181357 0.0673149
795 2 0.681225 0.948627 0.590824
796 2 0.145229 0.534993 0.613272
797 2 0.20597 0.788701 0.254489
798 2 0.564302 0.0290576 0.212384
799 2 0.964024 0.883644 0.479292
800 2 0.717337 0.556026 0.452044
801 2 0.245136 0.810843 0.769564
802 2 0.79548 0.464602 0.7898
803 2 0.742644 0.276539 0.876384
804 2 0.926455 0.406319 0.595621
805 2 0.0840763 0.0373921 0.0816673
806 1 0.261542 0.419369 0.0100377
807 2 0.540144 0.963692 0.893971
808 2 0.125259 0.120104 0.125578
809 1 0.563282 0.843999 0.0491731
810 2 0.0240287 0.0266463 0.82155
811 2 0.00259051 0.546674 0.888018
812 2 0.966571 0.16937 0.734236
813 1 0.93213 0.407891 0.944723
814 2 0.368288 0.0404797 0.0480919
815 2 0.195661 0.535139 0.146233
816 1 0.687859 0.471507 0.147151
817 1 0.822293 0.79057 0.0679173
818 2 0.193066 0.619548 0.588162
819 1 0.205162 0.574528 0.0825458
820 1 0.618406 0.541369 0.217226
821 2 0.235233 0.202335 0.369632
822 2 0.540879 0.267307 0.804212
823 1 0.325606 0.532509 0.977704
824 2 0.703892 0.604316 0.43748
825 2 0.842713 0.764989 0.590629
826 2 0.151589 0.597525 0.200681
827 1 0.0353321 0.166218 0.13111
828 2 0.213033 0.21794 0.813288
829 2 0.332821 0.185528 0.880143
830 2 0.818051 0.30671 0.0156744
831 1 0.418328 0.871078 0.344147
832 2 0.214044 0.900272 0.0902611
833 1 0.760376 0.401693 0.337887
834 2 0.461322 0.456242 0.882768
835 2 0.481316 0.0307693 0.955261
836 2 0.236289 0.673189 0.357195
837 2 0.31153 0.435735 0.668136
838 2 0.909321 0.935225 0.0582153
839 2 0.394803 0.875653 0.837471
840 2 0.310651 0.51642 0.227693
841 2 0.520977 0.418941 0.0657693
842 2 0.961719 0.942961 0.872743
843 2 0.445642 0.969344 0.609597
844 2 0.186131 0.533507 0.0902381
845 2 0.559022 0.893555 0.0438126
846 2 0.74223 0.978655 0.582617
847 2 0.953935 0.119666 0.259042
848 2 0.236433 0.424242 0.093614
849 1 0.673553 0.0863075 0.976555
850 2 0.337803 0.719141 0.280314
851 2 0.768401 0.551298 -0.000760026
852 2 0.117333 0.893733 0.107432
853 1 0.159 0.629177 0.850477
854 2 0.927443 0.440557 0.305988
855 2 0.308924 0.788144 0.772761
856 2 0.392902 0.760319 0.683858
857 2 0.64513 0.606836 0.540704
858 2 0.588798 0.764446 0.817918
859 2 0.691604 0.897699 0.913581
860 2 0.872557 0.115585 0.657721
861 2 0.92885 0.817006 0.0738037
862 2 0.810627 0.0151726 0.15999
863 2 0.241864 0.47038 0.644055
864 2 0.337258 0.926818 0.771036
865 2 0.171133 0.660056 0.66826
866 2 0.504738 0.976988 0.758726
867 2 0.1791 0.46635 0.408528
868 2 0.865621 0.892016 0.313719
869 2 0.590794 0.437908 0.301653
870 2 0.239263 0.263936 0.0673267
871 2 0.168945 0.0918705 0.890329
872 2 0.997464 0.41844 0.737497
873 2 0.728521 0.255786 0.2092
874 2 0.506429 0.485641 0.559344
875 2 0.325009 0.33027 0.205366
876 2 0.206229 0.202663 0.300551
877 2 0.0994246 0.930646 0.244251
878 2 0.415871 0.245157 0.663946
879 2 0.600099 0.825253 0.932092
880 2 0.377787 0.43175 0.573565
881 2 0.0798315 0.235948 0.776992
882 1 0.807783 0.916984 0.62088
883 1 0.53857 0.0148784 0.88667
884 2 0.441905 0.750812 0.345831
885 2 0.232633 0.672549 0.110051
886 2 0.461909 0.716949 0.301895
887 1 0.452927 0.883967 0.733792
888 2 0.707394 0.662943 0.546688
889 2 0.738469 0.271076 0.280409
890 1 0.464397 0.379114 0.687183
891 2 0.491847 0.709004 0.383858
892 2 0.949835 0.882314 0.840627
893 2 0.719137 0.19422 0.741246
894 2 0.329534 0.787606 0.529992
895 1 0.747993 0.330038 0.172019
896 2 0.618503 0.838181 0.750459
897 2 0.651652 0.389788 0.369928
898 2 0.997411 0.479221 0.735387
899 2 0.0905933 0.0381297 0.582422
900 2 0.664237 0.832717 0.0634214
901 2 0.809284 0.517588 0.547188
902 2 0.0455949 0.00240929 0.335344
903 2 0.215594 0.662367 0.898561