ITEM: TIMESTEP
41300
ITEM: NUMBER OF ATOMS
1000
ITEM: BOX BOUNDS xy xz yz pp pp pp
0.0000000000000000e+00 1.3572088000000001e+01 0.0000000000000000e+00
0.0000000000000000e+00 1.3572088000000001e+01 0.0000000000000000e+00
0.0000000000000000e+00 1.3572088000000001e+01 0.0000000000000000e+00
ITEM: ATOMS id type xs ys zs
1 2 0.241514 0.454049 0.636337
2 2 0.877968 0.294897 0.419301
3 1 0.638547 0.0905323 0.773433
4 2 0.280162 0.190795 0.875257
5 2 0.162031 0.0286035 0.289373
6 1 0.568582 0.890741 0.788856
7 2 0.577013 0.0242473 0.727796
8 2 0.323353 0.83563 0.440708
9 2 0.852634 0.698835 0.212258
10 2 0.586507 0.988114 0.734281
11 2 0.160634 0.531382 0.314875
12 2 0.664394 0.715721 0.784732
13 2 0.304319 0.40748 0.805307
14 1 0.44155 0.0737756 0.053083
15 2 0.71133 0.557723 0.515047
16 2 0.141663 0.258579 0.782668
17 1 0.632244 0.47183 0.504282
18 2 0.0507862 0.87941 0.0731941
19 2 0.582122 0.201546 0.0462447
20 2 0.78043 0.0528917 0.482798
21 2 0.587929 0.998911 0.774153
22 2 0.405967 0.306125 0.729514
23 2 0.415091 0.129478 0.716677
24 2 0.749803 0.495316 0.51908
25 1 0.452677 0.386095 0.602305
26 2 0.479443 0.238185 0.481123
27 2 0.575469 0.97834 0.764792
28 2 0.593783 0.988825 0.761804
29 2 0.351961 0.585219 0.942623
30 2 0.863795 0.374693 0.529278
31 1 0.409377 0.543827 0.302017
32 1 0.739439 0.137583 0.176687
33 1 0.670664 0.208496 0.472559
34 2 0.671021 0.523969 0.644259
35 2 0.280246 0.520118 0.561609
36 1 0.616352 0.922469 0.75214
37 2 0.739095 0.557195 0.523448
38 2 0.58473 0.964725 0.816378
39 2 0.124053 0.290593 0.293708
40 2 0.213151 0.257749 0.266079
41 2 0.188611 0.612337 0.77989
42 2 0.472208 0.154131 0.661906
43 2 0.347762 0.892826 0.824094
44 2 0.777494 0.73791 0.267091
45 2 0.409664 0.203799 0.487927
46 1 0.0508776 0.662857 0.206926
47 2 0.291264 0.075504 0.857808
48 2 0.27551 0.262247 0.047339
49 2 0.386314 0.675123 0.982144
50 2 0.427084 0.557441 0.817173
51 2 0.917414 0.250897 0.0671178
52 2 0.279725 0.958786 0.0243728
53 2 0.890112 0.583043 0.848275
54 2 0.560002 0.983755 0.758655
55 1 0.554677 0.745967 0.35455
56 1 0.361357 0.72412 0.903462
57 2 0.199995 0.38807 0.119203
58 2 0.945606 0.0157543 0.719477
59 2 0.702066 0.479623 0.218547
60 2 0.828488 0.2971 0.625573
61 2 0.317821 0.0140512 0.32071
62 2 0.227435 0.913718 0.942409
63 2 0.452371 0.182639 0.710068
64 2 0.471706 0.357419 0.573424
65 2 0.78381 0.539288 0.491449
66 1 0.429729 0.669989 0.739747
67 2 0.42881 0.490666 0.202936
68 2 0.606823 0.98731 0.720453
69 1 0.300364 0.0314886 0.611111
70 2 0.920909 0.333193 0.071113
71 1 0.538739 0.951412 0.844726
72 2 0.221243 0.975861 0.852671
73 2 0.358969 0.920587 0.89688
74 2 0.576329 0.923536 0.239535
75 2 0.873133 0.504099 0.0453652
76 2 0.567072 0.0677048 0.332548
77 1 0.544833 0.659876 0.0486553
78 2 0.0912761 0.987892 0.743468
79 2 0.309144 0.623841 0.851101
80 2 0.118237 0.047943 0.0876174
81 2 0.639917 0.952646 0.745438
82 2 0.354242 0.659102 0.946914
83 2 0.26804 0.121837 0.614653
84 2 0.798996 0.409878 0.00940964
85 1 0.865499 0.175949 0.911111
86 2 0.504399 0.226232 0.327072
87 2 0.506135 1.0007 0.297122
88 2 0.515148 0.951106 0.257307
89 2 0.0634214 0.939341 0.138106
90 2 0.736677 0.639593 0.815509
91 2 0.604592 0.143097 0.979241
92 2 0.517665 0.828867 0.774919
93 2 0.0599092 0.775134 0.522102
94 1 0.44749 0.755808 0.400902
95 2 0.189408 0.477007 0.0733732
96 2 0.311332 0.0175395 0.158432
97 2 0.898022 0.710549 0.119868
98 2 0.0472687 0.78761 0.739034
99 2 0.577579 0.219778 0.74379
100 2 0.206778 0.244666 0.137684
101 1 0.359519 0.765906 0.80881
102 2 0.449673 0.0791809 0.720496
103 2 0.814224 0.568019 0.372334
104 2 0.847648 0.45513 0.111942
105 2 0.186509 0.872679 0.807559
106 2 0.646759 0.249363 0.611028
107 2 0.353026 0.079922 0.787095
108 2 0.722443 0.581201 0.493222
109 2 0.734733 0.526708 0.527009
110 2 0.642899 0.729679 0.867044
111 2 0.436624 0.528041 0.199975
112 1 0.941585 0.233958 0.591586
113 1 0.974157 0.613186 0.28783
114 2 0.738674 0.582221 0.527511
115 2 0.599201 0.19217 0.56529
116 2 0.189477 0.0367872 0.322371
117 2 0.0541372 0.879313 0.0146914
118 2 0.777079 0.502512 0.517833
119 2 0.547779 0.737832 0.282693
120 2 0.771588 0.53046 0.477534
121 2 0.635133 0.214839 0.913218
122 2 0.0673082 0.426408 0.657661
123 2 0.0796037 0.639404 0.31609
124 2 0.841689 0.484115 0.163638
125 1 0.133829 0.158757 0.923901
126 2 0.103811 0.582621 0.956404
127 2 0.691475 0.549017 0.499848
128 2 0.437055 0.559234 0.416732
129 1 0.198725 0.028941 0.422442
130 2 0.403703 0.557125 0.979701
131 2 0.333621 0.735539 0.297534
132 2 0.135887 0.788951 0.0278277
133 2 0.712869 0.544212 0.460459
134 2 0.931808 0.101609 0.220661
135 2 0.559557 0.969674 0.72563
136 2 0.415649 0.909331 0.45353
137 1 0.661198 0.177535 0.937974
138 2 0.644336 0.993085 0.786907
139 2 0.621682 0.955719 0.796566
140 1 0.771343 0.489853 0.563027
141 2 0.453214 0.407026 0.544231
142 2 0.302687 0.891926 0.634659
143 2 0.262591 0.595722 0.143569
144 2 0.686739 0.160052 0.788045
145 2 0.0973086 0.261758 0.967906
146 2 0.486367 0.93087 0.997445
147 1 0.667296 0.0285553 0.785284
148 1 0.690192 0.724374 0.589502
149 2 0.102981 0.816806 0.816494
150 1 0.698076 0.554538 0.566258
151 2 0.6032 0.725811 0.54475
152 2 0.239429 0.932517 0.999227
153 1 0.0956322 0.680299 0.819438
154 1 0.350353 0.96611 0.87878
155 2 0.310209 0.349051 0.431177
156 2 0.613941 0.536695 0.130268
157 2 0.19511 0.175943 0.12256
158 2 0.512643 0.235011 0.465466
159 2 0.154797 0.648931 0.616312
160 2 0.627036 0.816122 0.743755
161 2 0.782634 0.0627845 0.80962
162 2 0.562255 0.972946 0.776365
163 2 0.354315 0.468895 0.540942
164 2 0.905593 0.840629 0.57932
165 2 0.726343 0.623774 0.601996
166 2 0.181674 0.844169 0.580413
167 2 0.209667 0.995197 0.189841
168 2 0.575684 0.970866 0.738638
169 2 0.734605 0.180096 0.199729
170 2 0.790978 0.0756313 0.282148
171 2 0.280405 0.243992 0.519388
172 2 0.142092 0.131324 0.0337437
173 1 0.7999 0.488226 0.503386
174 2 0.992797 0.662966 0.801869
175 2 0.943458 0.599537 0.346676
176 2 0.805015 0.352099 0.855088
177 1 0.344189 0.679856 0.827599
178 2 0.143669 0.571666 0.00857908
179 2 0.0624637 0.267899 0.850007
180 2 0.745588 0.544971 0.486069
181 2 0.570298 0.0796817 0.167344
182 2 0.362844 0.957429 0.0135268
183 2 0.480464 0.451651 0.249552
184 2 0.182498 0.0684795 0.485819
185 2 0.782406 0.692923 0.257834
186 2 0.417476 0.536384 0.386394
187 2 0.918157 0.846971 0.834215
188 1 0.631444 0.468893 0.866471
189 2 0.233186 0.873486 0.83023
190 2 0.856623 0.160879 0.0161666
191 2 0.910737 0.193438 0.168938
192 2 0.504074 0.945917 0.812532
193 2 0.860228 0.892102 0.213351
194 2 0.958461 0.171236 0.844753
195 2 0.943101 0.0678484 0.497715
196 2 0.885138 0.89091 0.683084
197 2 0.082078 0.0379342 0.0706813
198 2 0.628036 0.0820176 0.373753
199 2 0.1871 0.789586 0.329388
200 1 0.927469 0.565516 0.556963
201 2 0.216481 0.421741 0.58094
202 2 0.557391 0.780347 0.771234
203 2 0.166509 0.0148067 0.472685
204 2 0.856699 0.00371258 0.897974
205 2 0.904948 0.838863 0.852031
206 2 0.628885 0.402096 0.271566
207 2 0.270392 0.0266827 0.390536
208 2 0.977446 0.674445 0.128665
209 2 0.426019 0.608563 0.262887
210 2 0.151469 0.881343 0.501237
211 2 0.181734 0.197119 0.149451
212 1 0.506719 0.994823 0.717686
213 2 0.484237 0.0957908 0.511991
214 2 0.755573 0.530425 0.47992
215 2 0.754403 0.519062 0.505666
216 2 0.200206 0.117647 0.480407
217 2 0.0218021 0.89119 0.734833
218 2 0.0494798 0.174164 0.102453
219 2 0.587292 0.371078 0.268688
220 2 0.539589 0.891996 0.403957
221 2 0.0709288 0.220448 0.588613
222 2 0.941816 0.345391 0.331787
223 2 0.19847 0.402588 0.604015
224 2 0.289126 0.125874 0.87007
225 1 0.35985 0.0607266 0.263377
226 2 0.459647 0.217335 0.616789
227 2 0.508984 0.824676 0.297619
228 2 0.936728 0.623898 0.411962
229 2 0.926706 0.621767 0.72987
230 1 0.591979 0.542596 0.723139
231 2 0.131494 0.15451 0.981385
232 2 0.998058 0.218925 0.443686
233 1 0.0659831 0.833941 0.146519
234 2 0.314988 0.704146 0.277803
235 2 0.795916 0.546878 0.538144
236 2 0.982573 0.148325 0.581224
237 2 0.732311 0.440674 0.96934
238 1 0.926123 0.557545 0.203318
239 1 0.173597 0.833896 0.895211
240 2 0.441339 0.431196 0.915715
241 2 0.0727258 0.625551 0.780945
242 1 0.464148 0.763406 0.258355
243 1 0.703593 0.437694 0.439861
244 2 0.831367 0.377982 0.8198
245 2 0.48927 0.76823 0.314383
246 1 0.824638 0.0416751 0.437617
247 2 0.845255 0.0316253 0.9206
248 2 0.639501 0.141527 0.243441
249 2 0.851567 0.484657 0.0437941
250 2 0.555502 0.931363 0.771401
251 2 0.0581437 0.376541 0.779597
252 2 0.400631 0.624652 0.53793
253 2 0.063239 0.879331 0.379946
254 2 0.960265 0.331717 0.201135
255 2 0.493577 0.42807 0.973457
256 2 0.570694 0.0369843 0.80544
257 2 0.352018 0.209311 0.169002
258 2 0.503252 0.145304 0.0842135
259 1 0.937867 0.617393 0.168897
260 2 0.297561 0.450463 0.609195
261 1 0.214872 0.344768 0.603238
262 2 0.0276716 0.353341 0.168143
263 2 0.965385 0.969253 0.180102
264 2 0.722881 0.210464 0.189244
265 1 0.203723 0.0342136 0.557411
266 2 0.727085 0.721413 0.307325
267 2 0.623542 0.15031 0.529187
268 1 0.963554 0.191972 0.343321
269 1 0.996198 0.333138 0.430487
270 2 0.0794899 0.820637 0.571812
271 2 0.85459 0.195312 0.526429
272 2 0.729067 0.0278971 0.520024
273 1 0.674726 0.574769 0.481076
274 2 0.121571 0.620054 0.266323
275 2 0.62244 0.998466 0.839632
276 2 0.26274 0.363065 0.29239
277 2 0.146431 0.20966 0.536566
278 2 0.648575 0.341235 0.741247
279 2 0.394836 0.400287 0.186927
280 1 0.143811 0.750352 0.101484
281 2 0.216917 0.4437 0.302572
282 2 0.818366 0.51339 0.158765
283 2 0.298615 0.000329941 0.890843
284 1 0.946536 0.803886 0.677115
285 2 0.919003 0.963895 0.984403
286 2 0.635058 0.948421 0.810181
287 1 0.866847 0.942714 0.418821
288 2 0.596278 0.0244522 0.795985
289 2 0.352035 0.251239 0.674491
290 2 0.63436 0.541947 0.577586
291 2 0.306061 0.689181 0.954912
292 2 0.331885 0.042834 0.165285
293 2 0.846446 0.583036 0.444191
294 2 0.826895 0.626427 0.645323
295 2 0.695081 0.584991 0.525922
296 2 0.465874 0.358688 0.194074
297 2 0.90521 0.764496 0.885887
298 2 0.0157676 0.941463 0.504591
299 1 0.69535 0.0124749 0.711517
300 2 0.655058 0.944623 0.755269
301 2 0.0454142 0.0941788 0.204495
302 2 0.859289 0.448636 0.739727
303 2 0.694755 0.478429 0.0782063
304 1 0.0097422 0.502234 0.119437
305 2 0.349626 0.961022 0.804
306 2 0.0145098 0.577312 0.702817
307 2 0.753626 0.74563 0.718432
308 2 0.552142 0.0976337 0.409636
309 2 0.434702 0.43235 0.829517
310 2 0.268943 0.937872 0.180473
311 2 0.354657 0.738319 0.26288
312 2 0.966558 0.901659 0.627631
313 2 0.276929 0.399444 0.202225
314 2 0.0424253 0.29443 0.249127
315 2 0.851919 0.683209 0.197883
316 2 0.783086 0.734334 0.123617
317 2 0.171366 0.319821 0.971495
318 2 0.957656 0.988566 0.1021
319 2 0.115666 0.0227229 0.506255
320 2 0.604126 0.525374 0.564059
321 2 0.74951 0.545887 0.555146
322 2 0.595751 0.516047 0.0669607
323 2 0.976803 0.79578 0.0150334
324 2 0.0734649 0.568613 0.24282
325 2 0.75218 0.477446 0.440645
326 2 0.641151 0.854724 0.847601
327 2 0.716014 0.473968 0.520438
328 2 0.761613 0.54931 0.45963
329 1 0.0712126 0.868261 0.7754
330 2 0.768228 0.55793 0.52724
331 2 0.843646 0.591164 0.355982
332 2 0.356427 0.274087 0.439741
333 2 0.728582 0.0679881 0.0231206
334 2 0.628533 0.0785902 0.727887
335 1 0.585997 0.172083 0.0386184
336 2 0.47523 0.728327 0.572593
337 2 0.556664 0.112709 0.307287
338 1 0.610137 0.161967 0.304485
339 2 0.931242 0.970991 0.925207
340 2 0.573362 0.667732 0.492761
341 2 0.907094 0.727049 0.623336
342 2 0.610489 0.719244 0.32358
343 2 0.125919 0.0406608 0.97996
344 1 0.0138864 0.902395 0.114043
345 1 0.748436 0.583302 0.570345
346 1 0.484074 0.993915 0.831049
347 1 0.629115 0.809548 0.0219939
348 2 0.926359 0.689105 0.650822
349 2 0.170072 0.814163 0.418658
350 2 0.315082 0.0845951 0.377255
351 2 0.2877 0.556195 0.00189445
352 2 0.467001 0.381274 0.695559
353 1 0.845877 0.51305 0.459811
354 1 0.793708 0.316002 0.394635
355 2 0.00292106 0.541868 0.559425
356 2 0.374697 0.199223 0.708463
357 2 0.437705 0.0319411 0.442661
358 2 0.777846 0.333653 0.936848
359 2 0.0743087 0.271382 0.373594
360 2 0.54143 0.97834 0.742791
361 1 0.572713 0.521713 0.639068
362 2 0.788259 0.70287 0.322497
363 1 0.815511 0.178813 0.110667
364 2 0.601519 0.93871 0.782934
365 2 0.445781 0.572857 0.247883
366 2 0.548674 0.0351213 0.980246
367 1 0.406833 0.764629 0.30047
368 1 0.550662 0.444979 0.84972
369 2 0.392003 0.347901 0.734136
370 2 0.457356 0.207101 0.709152
371 2 0.776315 0.563909 0.52917
372 1 0.96108 0.893504 0.540747
373 2 0.0703331 0.167423 0.7513
374 2 0.324311 0.946861 0.694632
375 2 0.673909 0.846581 0.780849
376 2 0.114579 0.105951 0.203774
377 2 0.0466826 0.134944 0.630241
378 2 0.148602 0.771963 0.75523
379 2 0.838547 0.984254 0.209117
380 2 0.591807 0.971475 0.783793
381 2 0.913093 0.84254 0.548149
382 2 0.546288 0.0730301 0.129642
383 2 0.667555 0.716416 0.816603
384 1 0.578167 0.470984 0.736995
385 2 0.00126093 0.159856 0.234123
386 2 0.489401 0.177917 0.565911
387 1 0.988661 0.547754 0.510107
388 2 0.479845 0.207908 0.783228
389 2 0.746346 0.607934 0.462142
390 2 0.401398 0.934456 0.182269
391 2 0.459972 0.730982 0.292202
392 1 0.660088 0.531899 0.269414
393 2 0.968354 0.125236 0.134538
394 2 0.473046 0.163862 0.0360506
395 2 0.598282 0.989843 0.794832
396 2 0.556311 0.981298 0.810109
397 2 0.490661 0.586016 0.212726
398 1 0.697101 0.250902 0.847316
399 1 0.796456 0.471394 0.449336
400 1 0.980131 0.274434 0.304299
401 2 0.56908 0.989999 0.776231
402 2 0.934187 0.837182 0.234882
403 2 0.532163 0.0559698 0.93285
404 2 0.839936 0.107808 0.806394
405 2 0.509575 0.259273 0.88765
406 2 0.749596 0.970693 0.504211
407 2 0.370961 0.705708 0.387329
408 2 0.829966 0.543568 0.336461
409 2 0.584398 0.889163 0.959502
410 2 0.800789 0.0439011 0.192246
411 2 0.46193 0.355918 0.512444
412 2 0.33047 0.806453 0.760767
413 2 0.804124 0.636423 0.33839
414 2 0.68168 0.474564 0.655173
415 2 0.758858 0.291481 0.10142
416 1 0.769427 0.653071 0.523949
417 2 0.921599 0.390981 0.374877
418 2 0.687626 0.523732 0.1876
419 2 0.518594 0.265293 0.368815
420 2 0.946872 0.501274 0.310592
421 1 0.262068 0.349154 0.488647
422 1 0.818472 0.731963 0.304651
423 2 0.389646 0.657884 0.942558
424 2 0.341145 0.572539 0.669523
425 1 0.956883 0.416722 0.310499
426 2 0.322147 0.806642 0.256695
427 2 0.784201 0.542233 0.111561
428 2 0.192482 0.424091 0.624072
429 2 0.758795 0.956022 0.883942
430 2 0.942641 0.534746 0.283209
431 2 0.813426 0.570587 0.539486
432 1 0.0829427 0.315338 0.572407
433 2 0.230657 0.971119 0.41246
434 1 0.923941 0.743184 0.235241
435 2 0.367832 0.579059 0.900579
436 2 0.403102 0.027941 0.026461
437 2 0.80027 0.519175 0.233101
438 2 0.762708 0.772858 0.0782882
439 1 0.226529 0.882939 0.314877
440 2 0.344245 0.965885 0.528156
441 1 0.0192257 0.290852 0.944259
442 1 0.705673 0.486089 0.47966
443 1 0.490567 0.840311 0.526995
444 2 0.760759 0.52312 0.543929
445 2 0.384441 0.864274 0.807093
446 2 0.445313 0.476651 0.646869
447 2 0.143264 0.556852 0.492468
448 2 0.0362717 0.604435 0.128634
449 1 0.470233 0.290129 0.80329
450 2 0.14291 0.988795 0.392109
451 2 0.602801 0.961568 0.733609
452 2 0.367928 0.151365 0.437553
453 1 0.390956 0.274195 0.722476
454 2 0.738046 0.526252 0.482634
455 2 0.524225 0.808199 0.470873
456 2 0.993303 0.286245 0.398462
457 2 0.611974 0.998771 0.806953
458 2 0.669154 0.0943057 0.0832243
459 2 0.290145 0.10859 0.582029
460 2 0.742744 0.577747 0.50573
461 2 0.651309 0.94309 0.246561
462 2 0.808489 0.711946 0.211124
463 1 0.940778 0.230986 0.833918
464 2 0.897379 0.776518 0.776117
465 2 0.38439 0.764644 0.0595263
466 2 0.231759 0.964357 0.372874
467 1 0.65029 0.467299 0.108098
468 2 0.644474 0.159625 0.406928
469 2 0.602434 0.510123 0.0202804
470 2 0.990619 0.0887188 0.361456
471 2 0.971656 0.535903 0.302816
472 2 0.335186 0.745121 0.357593
473 1 0.675024 0.529115 0.42049
474 1 0.967127 0.338969 0.271599
475 1 0.720419 0.711786 0.249063
476 2 0.953369 0.205839 0.126808
477 2 0.634642 0.984997 0.764696
478 2 0.329139 0.916236 0.743913
479 2 0.313865 0.280982 0.215078
480 2 0.672975 0.0537874 0.192663
481 2 0.33842 0.0836751 0.20837
482 2 0.0882481 0.663169 0.772304
483 2 0.123637 0.750806 0.580002
484 1 0.75228 0.241576 0.640143
485 1 0.993771 0.602674 0.111568
486 2 0.774871 0.73984 0.302324
487 2 0.0666442 0.0405551 0.669436
488 2 0.770136 0.554469 0.490225
489 2 0.71087 0.279954 0.18892
490 2 0.0608167 0.647272 0.655115
491 2 0.793706 0.575199 0.510178
492 2 0.968645 0.846837 0.609256
493 2 0.45908 0.118211 0.863758
494 2 0.698533 0.136603 0.965968
495 2 0.806327 0.786846 0.115791
496 2 0.784649 0.596099 0.501991
497 2 0.0270575 0.603764 0.319195
498 1 0.884737 0.254698 0.852052
499 2 0.496588 0.163515 0.99776
500 2 0.966693 0.173142 0.71251
501 1 0.765869 0.614531 0.464782
502 2 0.42033 0.732068 0.442202
503 2 0.772862 0.538181 0.520714
504 1 0.681566 0.910878 0.840032
505 2 0.0078958 0.985891 0.571622
506 2 0.808822 0.298825 0.897679
507 2 0.0391096 0.481449 0.577681
508 2 0.469176 0.0403663 0.979101
509 1 0.78591 0.302591 0.827977
510 2 0.453271 0.443709 0.551535
511 2 0.975164 0.911641 0.842978
512 2 0.790715 0.530956 0.511229
513 1 0.390682 0.708627 0.272937
514 2 0.146915 0.675635 0.11906
515 1 0.595858 0.924812 0.677373
516 2 0.615353 0.0160883 0.737737
517 1 0.9044 0.86722 0.885294
518 2 0.862592 0.775522 0.343302
519 2 0.218489 0.267244 0.105581
520 2 0.0405508 0.580411 0.451472
521 2 0.1775 0.607909 0.0173183
522 2 0.131813 0.0670896 0.383
523 2 0.835465 0.736362 0.225302
524 2 0.858176 0.824137 0.704153
525 2 0.942671 0.708264 0.193432
526 2 0.712393 0.561159 0.596975
527 2 0.508226 0.0612322 0.0838712
528 1 0.356912 0.834695 0.877933
529 2 0.923782 0.165469 0.126892
530 2 0.0794712 0.592239 0.341045
531 2 0.6052 0.966547 0.84565
532 2 0.575254 0.50607 0.133147
533 2 0.595662 0.584461 0.844024
534 1 0.197444 0.219653 0.872966
535 2 0.918782 0.28404 0.215595
536 1 0.335062 0.393328 0.550859
537 1 0.519014 0.975662 0.782975
538 2 0.131737 0.0983557 0.356186
539 2 0.309727 0.0234342 0.559573
540 2 0.904812 0.787561 0.846594
541 1 0.267511 0.640086 0.470567
542 2 0.150911 0.564488 0.826842
543 1 0.0851684 0.29353 0.466296
544 1 0.680347 0.600738 0.429588
545 2 0.576559 0.208222 0.314243
546 2 0.787194 0.980422 0.103186
547 2 0.406251 0.558532 0.894
548 2 0.183638 0.395153 0.645853
549 2 0.90354 0.814464 0.327923
550 2 0.620697 0.944102 0.675223
551 1 0.827747 0.559601 0.493157
552 2 0.70356 0.307711 0.706517
553 2 0.989576 0.734617 0.223024
554 2 0.157824 0.982763 0.43012
555 1 0.179602 0.396175 0.793626
556 2 0.212408 0.481031 0.180274
557 2 0.846608 0.47226 0.1198
558 1 0.548688 0.935439 0.376051
559 2 0.274585 0.276954 0.3653
560 2 0.923269 0.100413 0.438355
561 2 0.615836 0.511263 0.870931
562 1 0.487533 0.428309 0.635896
563 2 0.307795 0.0321392 0.0181005
564 2 0.345414 0.395414 0.169067
565 2 0.5012 0.555798 0.384933
566 2 0.955559 0.837304 0.163207
567 2 0.00826729 0.880827 0.44006
568 2 0.00577244 0.361104 0.221615
569 1 0.178202 0.378583 0.920729
570 2 0.950787 0.647672 0.605423
571 2 0.0132677 0.865089 0.652023
572 2 0.293397 0.299396 0.862878
573 2 0.707309 0.527214 0.499234
574 2 0.321295 0.910752 0.496187
575 1 0.140342 0.12044 0.973219
576 2 0.101172 0.907507 0.585176
577 2 0.216869 0.300947 0.421971
578 1 0.334381 0.644485 0.903115
579 2 0.617707 0.986247 0.779237
580 1 0.0982931 0.542559 0.880451
581 2 0.113465 0.260448 0.179252
582 2 0.17595 0.226186 0.613404
583 1 0.856074 0.057615 0.246051
584 2 0.200052 0.257536 0.427815
585 1 0.886147 0.415432 0.676051
586 2 0.713425 0.555685 0.537104
587 2 0.576797 0.961586 0.787702
588 2 0.883175 0.195846 0.866593
589 1 0.71067 0.287412 0.903281
590 1 0.615547 0.25295 0.0633337
591 1 0.530191 0.0242588 0.80893
592 2 0.0358623 0.194924 0.721689
593 2 0.551809 0.944567 0.790719
594 1 0.163057 0.490085 0.461348
595 1 0.407683 0.361864 0.545149
596 2 0.27782 0.692729 0.632312
597 1 0.437983 0.99615 0.256966
598 2 0.153866 0.619707 0.559766
599 2 0.792945 0.536775 0.421015
600 2 0.901806 0.866565 0.817141
601 2 0.732849 0.546309 0.491333
602 1 0.552288 0.248691 0.92548
603 2 0.44615 0.37637 0.72943
604 1 0.833312 0.310158 0.755585
605 2 0.836251 0.122685 0.605511
606 2 0.237213 0.907863 0.612227
607 1 0.804114 0.516393 0.63576
608 2 0.793814 0.835585 0.236939
609 2 0.335932 0.306858 0.413423
610 2 0.754056 0.578168 0.482072
611 2 0.614193 0.993169 0.76327
612 1 0.803771 0.373906 0.542533
613 2 0.666032 0.544016 0.599112
614 1 0.408791 0.587103 0.600976
615 2 0.451295 0.495745 0.312907
616 1 0.560671 0.928124 0.737964
617 2 0.568741 0.99741 0.740006
618 2 0.898335 0.126032 0.586989
619 2 0.482143 0.0219322 0.291721
620 2 0.653413 0.239551 0.154148
621 2 0.242567 0.992384 0.821025
622 2 0.718982 0.585942 0.457148
623 1 0.64486 0.173455 0.192959
624 2 0.331436 0.971225 0.147717
625 2 0.635724 0.641333 0.581638
626 2 0.716465 0.440869 0.15346
627 2 0.562537 0.00963589 0.761781
628 2 0.380883 0.433264 0.840742
629 2 0.433054 0.859261 0.10821
630 1 0.25294 0.121909 0.477237
631 2 0.0692377 0.294617 0.296618
632 2 0.594142 0.580268 0.412011
633 2 0.373456 0.579123 0.45675
634 2 0.499012 0.152138 0.335651
635 2 0.26493 0.397293 0.79357
636 2 0.901641 0.123913 0.874614
637 2 0.87656 0.839474 0.871177
638 1 0.266772 0.0260143 0.207533
639 2 0.361104 0.512284 0.027041
640 2 0.649911 0.591364 0.741191
641 2 0.734772 0.547925 0.464516
642 2 0.0156212 0.94693 0.428354
643 2 0.746367 0.529582 0.162309
644 2 0.514405 0.991757 0.529756
645 1 0.628222 0.274918 0.861933
646 2 0.923286 0.417832 0.386388
647 1 0.791135 0.428007 0.288602
648 2 0.305098 0.83375 0.255039
649 2 0.734262 0.533976 0.511782
650 2 0.861387 0.0306163 0.376813
651 2 0.896632 0.895144 0.479564
652 2 0.0317215 0.613473 0.436641
653 2 0.799963 0.601436 0.335862
654 1 0.875671 0.48278 0.694364
655 2 0.818894 0.33849 0.202279
656 2 0.380552 0.785468 0.894603
657 2 0.0784087 0.135713 0.960886
658 2 0.777797 0.242326 0.164482
659 2 0.496119 0.550673 0.0774414
660 2 0.274759 0.932598 0.979704
661 1 0.284748 0.945321 0.109777
662 2 0.880652 0.317937 0.878426
663 2 0.130107 0.623487 0.215116
664 1 0.345298 0.34748 0.0417413
665 2 0.932344 0.868106 0.271305
666 2 0.89409 0.407754 0.842465
667 2 0.53164 0.0402619 0.340021
668 2 0.684568 0.303166 0.87894
669 2 0.727889 0.981444 0.125394
670 1 0.829811 0.391411 0.772366
671 2 0.0788865 0.872479 0.0665742
672 1 0.713867 0.503027 0.446739
673 2 0.440593 0.33855 0.396143
674 2 0.51929 0.264522 0.511094
675 2 0.962691 0.883455 0.592348
676 1 0.388939 0.0811737 0.465718
677 2 0.0316268 0.937131 0.868236
678 2 0.904349 0.0719757 0.771578
679 1 0.894765 0.943367 0.840916
680 2 0.509035 0.946829 0.011825
681 1 0.059855 0.630965 0.155534
682 1 0.172837 0.342212 0.14691
683 2 0.118258 0.806139 0.542179
684 2 0.704258 0.725216 0.774569
685 2 0.359387 0.451009 0.83112
686 2 0.0953497 0.411002 0.732944
687 1 0.598998 0.922473 0.825406
688 2 0.753318 0.799823 0.062144
689 2 0.696846 0.517902 0.536014
690 2 0.132724 0.837734 0.801984
691 2 0.800624 0.353125 0.929182
692 1 0.636419 0.976951 0.692251
693 2 0.135053 0.253816 0.180259
694 2 0.863924 0.00590858 0.462426
695 1 0.372699 0.652232 0.576482
696 2 0.657919 0.799441 0.514622
697 2 0.0589414 0.853056 0.234615
698 2 0.453877 0.359673 0.650473
699 2 0.934165 0.140714 0.101165
700 1 0.938532 0.131777 0.25246
701 2 0.482249 0.440695 0.418767
702 2 0.132625 0.758178 0.282393
703 2 0.934271 0.762117 0.592834
704 2 0.454656 0.819057 0.0295042
705 2 0.459171 0.269945 0.227643
706 2 0.772839 0.570646 0.508886
707 2 0.608462 0.415432 0.0486552
708 1 0.941075 0.520637 0.668588
709 2 0.837179 0.276443 0.11377
710 2 0.773108 0.858437 0.28969
711 2 0.622794 0.102565 0.232956
712 1 0.749846 0.156207 0.598327
713 2 0.815512 0.810117 0.30614
714 1 0.802943 0.526712 0.455602
715 2 0.963801 0.145584 0.961394
716 1 0.70783 0.248384 0.12192
717 2 0.623615 0.976021 0.744971
718 2 0.874796 0.0909832 0.708066
719 2 0.743486 0.521671 0.461571
720 2 0.899318 0.0155324 0.492287
721 2 0.684388 0.235477 0.00713111
722 1 0.175683 0.28929 0.476131
723 2 0.558502 0.514437 0.565081
724 2 0.589585 0.951285 0.717091
725 2 0.265871 0.0637901 0.224899
726 2 0.670708 0.438656 0.70068
727 1 0.884763 0.441814 0.309477
728 1 0.0491759 0.979058 0.406229
729 1 0.745394 0.206966 0.865668
730 1 0.506134 0.189713 0.115491
731 2 0.929427 0.883914 0.812768
732 1 0.00126547 0.542673 0.861574
733 2 0.913139 0.909773 0.881863
734 2 0.110768 0.0070652 0.976905
735 2 0.765029 0.305178 0.970778
736 1 0.617357 0.0370104 0.760405
737 2 0.0311116 0.412833 0.00403987
738 2 0.426405 0.344305 0.589369
739 2 0.212736 0.50292 0.525896
740 2 0.659454 0.748777 0.951386
741 2 0.624223 0.968558 0.77492
742 1 0.721703 0.930329 0.785239
743 2 0.559754 0.211101 0.246053
744 2 0.299936 0.546396 0.579107
745 2 0.83655 0.709061 0.110498
746 1 0.633385 0.624635 0.386167
747 2 0.818248 0.598526 0.431863
748 2 0.778149 0.179645 0.959762
749 2 0.738012 0.553618 0.432883
750 2 0.45369 0.0630965 0.48579
751 2 0.599858 0.000787182 0.700682
752 2 0.430485 0.0636353 0.514498
753 2 0.359856 0.629084 0.207654
754 2 0.661668 0.496614 0.199915
755 2 0.90286 0.665972 0.929574
756 2 0.233831 0.944637 0.448523
757 2 0.785702 0.558391 0.587514
758 2 0.376318 0.632759 0.969475
759 2 0.100146 0.0137999 0.448699
760 1 0.711132 0.208766 0.770811
761 2 0.527726 0.329006 0.580912
762 2 0.170332 0.374095 0.824883
763 1 0.488653 0.099025 0.299706
764 2 0.819087 0.867797 0.736528
765 2 0.483291 0.30241 0.601075
766 2 0.41203 0.817934 0.000629839
767 2 0.574591 0.20202 0.154393
768 2 0.979973 0.104397 0.267232
769 2 0.298588 0.920512 0.803005
770 2 0.393093 0.459058 0.576517
771 2 0.393194 0.909789 0.593842
772 2 0.52239 0.1408 0.773759
773 1 0.679838 0.646449 0.485227
774 2 0.906496 0.246805 0.443523
775 2 0.892091 0.495996 0.538428
776 2 0.272103 0.374623 0.744151
777 1 0.61689 0.0426674 0.815174
778 2 0.76204 0.567188 0.50062
779 2 0.26646 0.725432 0.855859
780 1 0.763102 0.556697 0.331865
781 2 0.93996 0.435503 0.423465
782 2 0.146466 0.93713 0.352991
783 1 0.809374 0.939732 0.647891
784 2 0.961407 0.5795 0.740908
785 2 0.457187 0.712014 0.103261
786 1 0.725917 0.60834 0.509325
787 2 0.408066 0.592802 0.916166
788 2 0.595235 0.795617 0.368228
789 2 0.349136 0.280337 0.214131
790 2 0.184685 0.838583 0.0852412
791 1 0.284757 0.314393 0.420195
792 2 0.954244 0.426735 0.0373035
793 2 0.916265 0.287127 0.330591
794 2 0.18529 0.936474 0.393281
795 2 0.509496 0.388554 0.811848
796 2 0.633422 0.506706 0.806311
797 2 0.721926 0.671731 0.253846
798 2 0.513278 0.328676 0.798929
799 2 0.0804659 0.90078 0.439192
800 2 0.767922 0.726386 0.324343
801 2 0.969201 0.00497202 0.127794
802 2 0.883942 0.692675 0.974993
803 2 0.102315 0.00594011 0.645303
804 2 0.30835 0.364881 0.250831
805 2 0.141304 0.864304 0.447814
806 1 0.47086 0.599661 0.343664
807 2 0.763313 0.723122 0.298184
808 2 0.346454 0.780502 0.0273527
809 1 0.895256 0.544446 0.498715
810 2 0.0571042 0.973534 0.920217
811 2 0.877056 0.123359 0.29333
812 2 0.697079 0.567152 0.486661
813 1 0.423051 0.126738 0.5571
814 2 0.204468 0.64933 0.188807
815 2 0.273517 0.551718 0.738779
816 1 0.756465 0.524889 0.383492
817 1 0.565104 0.0555655 0.785577
818 2 0.914002 0.164017 0.211262
819 1 0.777717 0.71351 0.581887
820 1 0.76652 0.859271 0.746643
821 2 0.558717 0.00802301 0.777831
822 2 0.583684 0.959498 0.76348
823 1 0.11458 0.33838 0.86401
824 2 0.144259 0.65693 0.759658
825 2 0.728143 0.516101 0.495869
826 2 0.222273 0.851905 0.963026
827 1 0.897422 0.106714 0.149419
828 2 0.168711 0.325443 0.828921
829 2 0.772181 0.495619 0.477758
830 2 0.33018 0.421696 0.794458
831 1 0.231212 0.920697 0.813912
832 2 0.111127 0.901994 0.369379
833 1 0.135244 0.722805 0.226396
834 2 0.923813 0.594185 0.497507
835 2 0.015107 0.834294 0.150949
836 2 0.681885 0.122247 0.911983
837 2 0.0257268 0.463807 0.503664
838 2 0.880499 0.457536 0.163196
839 2 0.2292 0.146092 0.672512
840 2 0.714578 0.902808 0.867073
841 2 0.377916 0.915126 0.168693
842 2 0.265145 0.595785 0.00669679
843 2 0.0145587 0.996551 0.50301
844 2 0.777492 0.949333 0.529051
845 2 0.590356 0.816972 0.251651
846 2 0.458502 0.589241 0.932021
847 2 0.25456 0.800913 0.929087
848 2 0.296014 0.110467 0.475366
849 1 0.655111 0.232919 0.276628
850 2 0.0263545 0.492521 0.509063
851 2 0.59953 0.992863 0.75361
852 2 0.585712 0.23317 0.825705
853 1 0.392751 0.493336 0.903378
854 2 0.944479 0.23443 0.901619
855 2 0.0177503 0.360467 0.94405
856 2 0.83496 0.689728 0.865329
857 2 0.540165 0.983642 0.287049
858 2 0.121041 0.832757 0.340719
859 2 0.729051 0.660272 0.267118
860 2 0.0626798 0.456197 0.479359
861 2 0.768035 0.328589 0.658244
862 2 0.923144 0.351127 0.326339
863 2 0.435379 0.614901 0.732688
864 2 0.815789 0.437123 0.119903
865 2 0.829486 0.451906 0.0113693
866 2 0.738894 0.510589 0.514988
867 2 0.367331 0.759989 0.416359
868 2 0.52764 0.667296 0.480832
869 2 0.956776 0.710724 0.641411
870 2 0.119782 0.789228 0.466131
871 2 0.348019 0.283046 0.79099
872 2 0.610685 0.97384 0.82195
873 2 0.460268 0.667293 0.536408
874 2 0.773636 0.511165 0.501706
875 2 0.569101 0.336728 0.164091
876 2 0.964148 0.25218 0.941512
877 2 0.185103 0.887572 0.474762
878 2 0.158181 0.025987 0.434638
879 2 0.195417 0.854553 0.362672
880 2 0.187463 0.884322 0.428738
881 2 0.638834 0.00539632 0.0629899
882 1 0.617184 0.274304 0.147528
883 1 0.640285 0.141356 0.807275
884 2 0.636891 0.0334463 0.283314
885 2 0.123369 0.519753 0.113987
886 2 0.207103 0.888131 0.768183
887 1 0.13276 0.973023 0.477401
888 2 0.243969 0.124988 0.97932
889 2 0.0054221 0.242786 0.403364
890 1 0.405246 0.395598 0.836381
891 2 0.706111 0.802571 0.494462
892 2 0.68771 0.529839 0.486184
893 2 0.465663 0.244835 0.310621
894 2 0.554444 0.0192038 0.722588
895 1 0.971834 0.320806 0.0312929
896 2 0.892465 0.236115 0.878263
897 2 0.394833 0.210281 0.0941778
898 2 0.444027 0.43182 0.221115
899 2 0.454787 0.927532 0.996155
900 2 0.649755 0.961626 0.771663
901 2 0.913306 0.654415 0.520127
902 2 0.146491 0.480684 0.414529
903 2 0.667157 0.253685 0.730301
904 2 0.755261 0.987627 0.454149