ITEM: TIMESTEP
31500
ITEM: NUMBER OF ATOMS
1000
ITEM: BOX BOUNDS xy xz yz pp pp pp
0.0000000000000000e+00 1.3572088000000001e+01 0.0000000000000000e+00
0.0000000000000000e+00 1.3572088000000001e+01 0.0000000000000000e+00
0.0000000000000000e+00 1.3572088000000001e+01 0.0000000000000000e+00
ITEM: ATOMS id type xs ys zs
1 2 0.43019 0.382524 0.545868
2 2 0.882264 0.859604 0.859244
3 1 0.0622696 0.228135 0.552715
4 2 0.833031 0.0102136 0.735012
5 2 0.944048 0.157907 0.647898
6 1 0.896341 0.780652 0.408116
7 2 0.484851 0.609528 0.446204
8 2 0.658881 0.822614 0.0396155
9 2 0.531742 0.167338 0.0607453
10 2 0.519706 0.18488 0.479871
11 2 0.774967 0.0522673 0.531332
12 2 0.394053 0.788506 0.652301
13 2 0.474056 0.810928 0.764789
14 1 0.339802 0.0253094 0.616829
15 2 0.346547 0.852995 0.296905
16 2 0.410448 0.453565 0.152978
17 1 0.871161 0.521336 0.154195
18 2 0.39166 0.975701 0.773296
19 2 0.561887 0.869253 0.380281
20 2 0.141771 0.766024 0.585441
21 2 0.96444 0.102043 0.53558
22 2 0.977479 0.58222 0.0165583
23 2 0.102123 0.104817 0.219398
24 2 0.953818 0.688097 0.0232218
25 1 0.365938 0.467923 0.904215
26 2 0.909329 0.310452 0.402745
27 2 0.363266 0.243205 0.272773
28 2 0.471891 0.0519006 0.594355
29 2 0.223474 0.780343 0.518871
30 2 0.517177 0.420509 0.252692
31 1 0.187284 0.523254 0.0281945
32 1 0.993609 0.568726 0.268194
33 1 0.454929 0.315986 0.63534
34 2 0.670804 0.991924 0.650482
35 2 0.59201 0.957627 0.8422
36 1 0.525658 0.059754 0.644514
37 2 0.461622 0.808033 0.345578
38 2 0.771815 0.270531 0.463827
39 2 0.335338 0.356891 0.882554
40 2 0.196564 0.910679 0.25685
41 2 0.650697 0.175716 0.979231
42 2 0.861846 0.955082 0.932257
43 2 0.548165 0.18997 0.632954
44 2 0.0560794 0.530393 0.304606
45 2 0.811939 0.0960546 0.104495
46 1 0.409354 0.953184 0.898125
47 2 0.366121 0.377881 0.709997
48 2 0.312193 0.496683 0.295982
49 2 0.427533 0.731762 0.425821
50 2 0.450348 0.438849 0.423132
51 2 0.174071 0.969725 0.589071
52 2 0.0116084 0.805275 0.297832
53 2 0.476957 0.0303656 0.171293
54 2 0.560256 0.662201 0.981103
55 1 0.233468 0.737528 0.547428
56 1 0.481109 0.0193479 0.676626
57 2 0.33883 0.147678 0.476511
58 2 0.59091 0.302446 0.457374
59 2 0.635623 0.682968 0.810324
60 2 0.88072 0.900488 0.25199
61 2 0.735068 0.983617 0.63823
62 2 0.963355 0.279324 0.753183
63 2 0.505872 0.775597 0.847472
64 2 0.97155 0.911755 0.409735
65 2 0.04164 0.914299 0.269482
66 1 0.352858 0.654788 0.208046
67 2 0.447755 0.232698 0.592712
68 2 0.928299 0.345213 0.0826473
69 1 0.904278 0.746126 0.669533
70 2 0.579906 0.483853 0.31491
71 1 0.385274 0.912107 0.836488
72 2 0.621034 0.652711 0.680073
73 2 0.415238 0.615008 0.375573
74 2 0.607368 0.343805 0.633691
75 2 0.442834 0.0587597 0.110988
76 2 0.414875 0.806008 0.764246
77 1 0.750068 0.289297 0.157969
78 2 0.357074 0.404091 0.767047
79 2 0.87144 0.0852284 0.687642
80 2 0.851407 0.747022 0.849303
81 2 0.680261 0.85839 0.16353
82 2 0.687679 0.658251 0.791552
83 2 0.0869753 0.263291 0.171069
84 2 0.702408 0.517123 0.511369
85 1 0.624291 0.594315 0.630114
86 2 0.449341 0.639614 0.579165
87 2 0.93681 0.0509267 0.965452
88 2 0.365351 0.356138 0.433322
89 2 0.0853822 0.055736 0.648818
90 2 0.264684 0.194303 0.115897
91 2 0.841848 0.731998 0.19195
92 2 0.365689 0.36035 0.340033
93 2 0.511984 0.992373 0.719329
94 1 0.117418 0.6548 0.531576
95 2 0.823276 0.944754 0.955583
96 2 0.204032 0.340903 0.394991
97 2 0.321425 0.124167 0.19872
98 2 0.619395 0.432957 0.334504
99 2 0.797298 0.503342 0.312729
100 2 0.265194 0.202139 0.999676
101 1 0.635792 0.677029 0.114113
102 2 0.360681 0.697867 0.817327
103 2 0.61413 0.700314 0.749531
104 2 0.911782 0.60854 0.224906
105 2 0.186989 0.979965 0.001794
106 2 0.831398 0.0372229 0.679395
107 2 0.0797828 0.00324632 0.992868
108 2 0.531842 0.146743 0.764401
109 2 0.286315 0.0230027 0.687788
110 2 0.334159 0.990033 0.723491
111 2 0.327628 0.255062 0.0234112
112 1 0.39436 0.375513 0.835091
113 1 0.0166693 0.341902 0.203437
114 2 0.591251 0.233125 0.63675
115 2 0.581299 0.620857 0.18204
116 2 0.755223 0.791159 0.806175
117 2 0.753571 0.177551 0.959355
118 2 0.532271 0.988848 0.433316
119 2 0.647204 0.96163 0.669116
120 2 0.763564 0.844122 0.785252
121 2 0.561358 0.794268 0.408776
122 2 0.354716 0.425486 0.129057
123 2 0.249893 0.350522 0.0315918
124 2 0.290354 0.741786 0.535214
125 1 0.451193 0.323072 0.137884
126 2 0.256806 0.750875 0.0489646
127 2 0.430554 0.746806 0.366135
128 2 0.821521 0.0624689 0.792131
129 1 0.321301 0.495367 0.337817
130 2 0.575514 0.178706 0.931161
131 2 0.767862 0.0260259 0.318686
132 2 0.292952 0.234325 0.124874
133 2 0.546938 0.76208 0.7186
134 2 0.174253 0.584155 0.0377902
135 2 0.762357 0.0134086 0.596764
136 2 0.176686 0.794484 0.514354
137 1 0.311124 0.823102 0.129905
138 2 0.143851 0.861098 0.982983
139 2 0.772774 0.355698 0.0326582
140 1 0.470659 0.728827 0.472036
141 2 0.906014 0.0975222 0.197646
142 2 0.479689 0.538618 0.654112
143 2 0.549309 0.216143 0.723501
144 2 0.982332 0.549807 0.77079
145 2 0.942399 0.786183 0.53598
146 2 0.350214 0.628597 0.283295
147 1 0.471669 0.886046 0.974155
148 1 0.539157 0.219592 0.447884
149 2 0.175996 0.903414 0.451073
150 1 0.589494 0.0505638 0.584968
151 2 0.793846 0.600964 0.663707
152 2 0.481508 0.0601058 0.0163232
153 1 0.66862 0.560781 0.42026
154 1 0.584678 0.184009 0.718539
155 2 0.934487 0.774678 0.00253565
156 2 0.40016 0.545954 0.269367
157 2 0.612243 0.237837 0.635202
158 2 0.127123 0.148828 0.219922
159 2 0.81727 0.784855 0.76177
160 2 0.47752 0.19135 0.620663
161 2 0.469356 0.425288 0.636377
162 2 0.667403 0.327282 0.251018
163 2 0.34955 0.977206 0.377151
164 2 0.347508 0.979275 0.00497937
165 2 0.00848841 0.525314 0.294027
166 2 0.629943 0.113673 0.234867
167 2 0.519753 0.0336364 0.251159
168 2 0.787782 0.840638 0.631155
169 2 0.00519542 0.4548 0.275382
170 2 0.449046 0.930792 0.0175748
171 2 0.385801 0.457944 0.381712
172 2 0.865643 0.307351 0.852198
173 1 0.671982 0.638465 0.51918
174 2 0.67572 0.217052 0.296374
175 2 0.0290854 0.816103 0.876736
176 2 0.765716 0.165514 0.442589
177 1 0.864289 0.19305 0.398264
178 2 0.62794 0.832475 0.748696
179 2 0.345272 0.768061 0.00755038
180 2 0.550708 0.697999 0.930631
181 2 0.572328 0.198465 0.667581
182 2 0.177898 0.304063 0.965251
183 2 0.623953 0.574135 0.124207
184 2 0.354703 0.39455 0.726401
185 2 0.792832 0.647715 0.487121
186 2 0.718498 0.0292811 0.262342
187 2 0.345469 0.382802 0.980242
188 1 0.901277 0.945541 0.772108
189 2 0.8794 0.27532 0.244311
190 2 0.679936 0.614973 0.412544
191 2 0.839357 0.306153 0.299545
192 2 0.505011 0.290153 0.743018
193 2 0.582492 0.587513 0.602511
194 2 0.404652 0.272169 0.257812
195 2 0.773728 0.768381 0.235316
196 2 0.66015 0.0642691 0.535568
197 2 0.859169 0.331178 0.261792
198 2 0.0718565 0.312364 0.506701
199 2 0.198781 0.180727 0.119952
200 1 0.576908 0.378396 0.43526
201 2 0.333936 0.434797 0.774947
202 2 0.442485 0.519484 0.695502
203 2 0.328955 0.188817 0.381035
204 2 0.626564 0.340744 0.436022
205 2 0.589826 0.0855616 0.606675
206 2 0.274547 0.640037 0.253331
207 2 0.3771 0.866475 0.486663
208 2 0.590376 0.403273 0.533518
209 2 0.10613 0.414438 0.680897
210 2 0.80233 0.13293 0.462085
211 2 0.60717 0.0563944 0.901146
212 1 0.311282 0.0678787 0.652502
213 2 0.601878 0.181127 0.355631
214 2 0.130706 0.451279 0.688703
215 2 0.720571 0.0888397 0.486054
216 2 0.455466 0.964609 0.631161
217 2 0.612326 0.162809 0.439582
218 2 0.643751 0.71223 0.704387
219 2 0.434346 0.805019 0.865929
220 2 0.72003 0.0804201 0.19752
221 2 0.717624 0.36557 0.985019
222 2 0.153154 0.601373 0.0613767
223 2 0.29813 0.515679 0.409112
224 2 0.967633 0.691847 0.152557
225 1 0.532108 0.296295 0.901496
226 2 0.107587 0.186708 0.466825
227 2 0.597731 0.220365 0.707413
228 2 0.738417 0.592029 0.484137
229 2 0.779811 0.608332 0.410263
230 1 0.224046 0.266338 0.371566
231 2 0.229043 0.680014 0.63385
232 2 0.244544 0.278024 0.676928
233 1 0.30512 0.0161749 0.753767
234 2 0.149661 0.79704 0.742662
235 2 0.555387 0.927705 0.991269
236 2 0.19362 0.188692 0.836776
237 2 0.227404 0.739663 0.483538
238 1 0.979002 0.363896 0.0368719
239 1 0.610456 0.575191 0.43436
240 2 0.543545 0.79503 0.0143653
241 2 0.10657 0.88532 0.464085
242 1 0.85827 0.772819 0.111994
243 1 0.718035 0.871006 0.737643
244 2 0.530855 0.350315 0.207392
245 2 0.370289 0.0424912 0.71748
246 1 0.121385 0.747567 0.657347
247 2 0.264653 0.831712 0.818526
248 2 0.201014 0.570514 0.686855
249 2 0.404197 0.55554 0.454484
250 2 0.69125 0.862745 0.326161
251 2 0.408537 0.587215 0.861644
252 2 0.632291 0.676205 0.540619
253 2 0.415318 0.0506209 0.387785
254 2 0.375243 0.789657 0.352076
255 2 0.791428 0.0266696 0.424833
256 2 0.855164 0.506722 0.785443
257 2 0.171672 0.0126135 0.991834
258 2 0.863005 0.599811 0.811197
259 1 0.590955 0.778071 0.715473
260 2 0.562903 0.256677 0.749688
261 1 0.982335 0.419436 0.547105
262 2 0.554921 0.765386 0.775391
263 2 0.593449 0.418786 0.36304
264 2 0.0490379 0.288257 0.813922
265 1 0.112484 0.487512 0.608375
266 2 0.440887 0.158462 0.653349
267 2 0.28771 0.179011 0.375975
268 1 0.396669 0.874089 0.447587
269 1 0.337476 0.602482 0.608833
270 2 0.986358 0.276527 0.374602
271 2 0.0894824 0.156991 0.259917
272 2 0.305874 0.941999 0.665506
273 1 0.807713 0.594848 0.591017
274 2 0.916806 0.855883 0.0386134
275 2 0.548528 0.646866 0.176737
276 2 0.613265 0.634071 0.118208
277 2 0.206009 0.160674 0.378637
278 2 0.529093 0.129345 0.0352718
279 2 0.27664 0.170217 0.294458
280 1 0.560208 0.123879 0.576647
281 2 0.221253 0.166045 0.225834
282 2 0.0084185 0.734623 0.19323
283 2 0.570689 0.241771 0.725035
284 1 0.0975271 0.468621 0.538506
285 2 0.304536 0.380033 0.729279
286 2 0.267029 0.091586 0.981309
287 1 0.851327 0.21197 0.888223
288 2 0.0990962 0.864809 0.593392
289 2 0.585618 0.746711 0.394107
290 2 0.30639 0.908822 0.180717
291 2 0.338924 0.743038 0.872139
292 2 0.718774 0.576976 0.489469
293 2 0.926406 0.424651 0.781381
294 2 0.784468 0.56976 0.746983
295 2 0.952249 0.868251 0.140533
296 2 0.697315 0.129726 0.266069
297 2 0.764681 0.460275 0.894547
298 2 0.642914 0.239114 0.0875667
299 1 0.429888 0.107872 0.0500974
300 2 0.260727 0.0114493 0.91143
301 2 0.732038 0.0178392 0.381826
302 2 0.0259123 0.66652 0.462171
303 2 0.289718 0.578543 0.241715
304 1 0.780925 0.0274925 0.0577133
305 2 0.231333 0.996652 0.25284
306 2 0.237297 0.990269 0.504984
307 2 0.858292 0.106721 0.500276
308 2 0.717561 0.623394 0.530787
309 2 0.247307 0.272161 0.798094
310 2 0.0242016 0.616605 0.472308
311 2 0.834999 0.54781 0.53271
312 2 0.322455 0.152731 0.0247511
313 2 0.408403 0.712048 0.379901
314 2 0.379097 0.129524 0.515699
315 2 0.336265 0.461906 0.349945
316 2 0.502121 0.69521 0.100984
317 2 0.74809 0.562562 0.499203
318 2 0.494311 0.0032673 0.880104
319 2 0.0109918 0.469426 0.40739
320 2 0.310129 0.0204701 0.41052
321 2 0.887858 0.306786 0.399117
322 2 0.360127 0.494333 0.384177
323 2 0.761312 0.13905 0.428688
324 2 0.665265 0.320832 0.897557
325 2 0.661701 0.918689 0.744302
326 2 0.185438 0.0371674 0.162741
327 2 0.137295 0.117757 0.361319
328 2 0.439345 0.36597 0.891431
329 1 0.957428 0.777518 0.588373
330 2 0.698138 0.532002 0.0334893
331 2 0.63791 0.958632 0.885356
332 2 0.351782 0.274242 0.902183
333 2 0.901478 0.802052 0.575788
334 2 0.943089 0.616562 0.720962
335 1 0.272158 0.977283 0.304858
336 2 0.783784 0.692524 0.544142
337 2 0.00343873 0.227837 0.231671
338 1 0.393804 0.473709 0.0211221
339 2 0.0926228 0.430541 0.402898
340 2 0.371246 0.548903 0.497347
341 2 0.841569 0.143398 0.535967
342 2 0.301525 0.630797 0.210774
343 2 0.840606 0.0479754 0.423714
344 1 0.498097 0.919117 0.647612
345 1 0.664243 0.574948 0.543947
346 1 0.359413 0.666409 0.370937
347 1 0.701673 0.593555 0.249843
348 2 0.853769 0.922413 0.47101
349 2 0.124317 0.893364 0.0460494
350 2 0.947277 0.265699 0.350896
351 2 0.947358 0.98289 0.644175
352 2 0.786622 0.0634064 0.120652
353 1 0.438686 0.570675 0.380774
354 1 0.814762 0.474793 0.149241
355 2 0.298517 0.423874 0.635642
356 2 0.729541 0.596741 0.564592
357 2 0.434529 0.1798 0.598598
358 2 0.980989 0.876805 0.71668
359 2 0.667038 0.695484 0.0722824
360 2 0.774331 0.190458 0.957319
361 1 0.495861 0.52416 0.50662
362 2 0.487461 0.218152 0.755818
363 1 0.177403 0.723131 0.622879
364 2 0.916233 0.997513 0.62086
365 2 0.329149 0.634467 0.955111
366 2 0.0126039 0.972978 0.972632
367 1 0.687696 0.745708 0.689185
368 1 0.529065 0.0841711 0.0258239
369 2 0.64644 0.19395 0.80662
370 2 0.423148 0.00200606 0.472749
371 2 0.0808665 0.613932 0.104972
372 1 0.041815 0.721892 0.330259
373 2 0.476251 0.0562592 0.461071
374 2 0.509272 0.264857 0.400147
375 2 0.131913 0.603123 0.686434
376 2 0.640231 0.653124 0.710828
377 2 0.125848 0.473225 0.882901
378 2 0.323833 0.538004 0.0553783
379 2 0.741884 0.264451 0.839009
380 2 0.0679946 0.285118 0.101955
381 2 0.431346 0.56989 0.118114
382 2 0.110589 0.685569 0.060094
383 2 0.467427 0.748515 0.124082
384 1 0.494593 0.413147 0.339856
385 2 0.810986 0.25974 0.779562
386 2 0.00502034 0.0704944 0.773684
387 1 0.592508 0.722573 0.762676
388 2 0.245102 0.338022 0.264822
389 2 0.36023 0.0174872 0.940547
390 2 0.70746 0.254095 0.284671
391 2 0.239967 0.0526601 0.587708
392 1 0.505265 0.385079 0.445528
393 2 0.377421 0.630613 0.771303
394 2 0.844062 0.03609 0.737271
395 2 0.436302 0.427575 0.463275
396 2 0.487729 0.86226 0.94064
397 2 0.991622 0.987802 0.750062
398 1 0.681829 0.717965 0.0987418
399 1 0.568175 0.395842 0.379564
400 1 0.80819 0.651853 0.841134
401 2 0.331457 0.494769 0.393669
402 2 0.85563 0.240942 0.507658
403 2 0.875373 0.136959 0.129194
404 2 0.172201 0.796241 0.885246
405 2 0.977381 0.682999 0.924302
406 2 0.228231 0.137266 0.331251
407 2 0.167776 0.0361303 0.98859
408 2 0.598982 0.647001 0.724049
409 2 0.669176 0.793371 0.429094
410 2 0.558463 0.166138 0.469242
411 2 0.758356 0.801293 0.673975
412 2 0.899205 0.368368 0.306832
413 2 0.674229 0.552014 0.498623
414 2 0.919877 0.305856 0.934421
415 2 0.271657 0.561534 0.546806
416 1 0.952198 0.647893 0.570694
417 2 0.429708 0.409138 0.776169
418 2 0.613672 0.250296 0.754774
419 2 0.238417 0.940108 0.477222
420 2 0.191529 0.996353 0.937363
421 1 0.839591 0.74406 0.265142
422 1 0.225968 0.0756534 0.461584
423 2 0.778215 0.397229 0.567042
424 2 0.323897 0.630042 0.669202
425 1 0.143832 0.945892 0.619289
426 2 0.119646 0.90079 0.656021
427 2 0.0589063 0.421613 0.17481
428 2 0.600989 0.0295932 0.255162
429 2 0.419623 0.644927 0.227665
430 2 0.588267 0.573192 0.486354
431 2 0.902748 0.735306 0.0262195
432 1 0.334501 0.577587 0.492426
433 2 0.390053 0.432408 0.602492
434 1 0.551747 0.290014 0.277002
435 2 0.103676 0.331884 0.900836
436 2 0.552867 0.244213 0.1735
437 2 0.622246 0.935014 0.00976703
438 2 0.0887793 0.779705 0.650965
439 1 0.51518 0.474036 0.654981
440 2 0.987225 0.335902 0.511252
441 1 0.708694 0.305404 0.304588
442 1 0.351977 0.55636 0.231736
443 1 0.477548 0.319173 0.524371
444 2 0.738588 0.567075 0.634305
445 2 0.012426 0.181608 0.810091
446 2 0.408726 0.432554 0.974362
447 2 0.126267 0.482391 0.812765
448 2 0.413361 0.880079 0.312423
449 1 0.390077 0.0232679 0.665704
450 2 0.162868 0.482551 0.303949
451 2 0.322088 0.114527 0.632007
452 2 0.232507 0.021444 0.470948
453 1 0.579553 0.0344394 0.485036
454 2 0.478681 0.113226 0.554162
455 2 0.880076 0.640338 0.297832
456 2 0.93001 0.752112 0.0510061
457 2 0.431037 0.24251 0.105651
458 2 0.906696 0.539967 0.198207
459 2 0.843257 0.00603549 0.462373
460 2 0.242832 0.918225 0.211369
461 2 0.119616 0.836682 0.872923
462 2 0.696409 0.959677 0.458825
463 1 0.991994 0.410517 0.603223
464 2 0.354642 0.423108 0.742017
465 2 0.427357 0.34727 0.870902
466 2 0.693544 0.596539 0.532263
467 1 0.552436 0.782273 0.848955
468 2 0.26678 0.363951 0.143533
469 2 0.857356 0.500644 0.663933
470 2 0.677593 0.741336 0.524436
471 2 0.820221 0.821536 0.145107
472 2 0.264395 0.0185021 0.666712
473 1 0.00650724 0.765569 0.845564
474 1 0.014773 0.880448 0.931944
475 1 0.865653 0.861156 0.016045
476 2 0.287527 0.870922 0.646723
477 2 0.743729 0.228752 0.700431
478 2 0.163661 0.849957 0.324948
479 2 0.457516 0.0426557 0.116088
480 2 0.3404 0.463167 0.368112
481 2 0.330737 0.0184583 0.683275
482 2 0.267646 0.717818 0.530391
483 2 0.988273 0.629701 0.45771
484 1 0.694761 0.313737 0.570627
485 1 0.930436 0.85609 0.0079036
486 2 0.0340647 0.527115 0.622078
487 2 0.975716 0.250814 0.396671
488 2 0.715557 0.933675 0.0143359
489 2 0.502808 0.492943 0.183339
490 2 0.680048 0.530879 0.561914
491 2 0.334265 0.981152 0.419707
492 2 0.472804 0.0384748 0.515301
493 2 0.248614 0.845703 0.204585
494 2 0.862282 0.595584 0.0443006
495 2 0.54706 0.56222 0.0336043
496 2 0.930386 0.987867 0.925217
497 2 0.360247 0.928573 0.807829
498 1 0.938773 0.800052 0.0539334
499 2 0.378637 0.344653 0.903901
500 2 0.866262 0.913057 0.572738
501 1 0.726205 0.746276 0.583615
502 2 0.817395 0.314981 0.894311
503 2 0.460848 0.079108 0.770558
504 1 0.477588 0.0101281 0.79814
505 2 0.490316 0.530658 0.984907
506 2 0.543215 0.371627 0.864661
507 2 0.843884 0.285528 0.26054
508 2 0.062432 0.395272 0.238443
509 1 0.264315 0.761787 0.741597
510 2 0.623552 0.672931 0.480171
511 2 0.486819 0.511766 0.764588
512 2 0.733074 0.144567 0.219702
513 1 0.0396614 0.194306 0.116149
514 2 0.35274 0.32631 0.421453
515 1 0.550857 0.672841 0.836179
516 2 0.270181 0.529755 0.763529
517 1 0.319939 0.9782 0.9063
518 2 0.486284 0.0437402 0.821079
519 2 0.158676 0.705431 0.838912
520 2 0.123431 0.476254 0.790632
521 2 0.358589 0.362929 0.167242
522 2 0.250674 0.54891 0.561784
523 2 0.690182 0.610081 0.633826
524 2 0.820447 0.964971 0.731498
525 2 0.835583 0.823989 0.489907
526 2 0.986252 0.89478 0.0790789
527 2 0.98818 0.422971 0.0702762
528 1 0.481522 0.819928 0.881327
529 2 0.612096 0.102355 0.0323629
530 2 0.930497 0.762399 0.771762
531 2 0.533406 0.111328 0.780695
532 2 0.364329 0.427305 0.684528
533 2 0.505236 0.824652 0.728136
534 1 0.487725 0.624692 0.677681
535 2 0.904105 0.577692 0.736572
536 1 0.602305 0.648598 0.794503
537 1 0.507437 0.686598 0.427872
538 2 0.806316 0.985095 0.746657
539 2 0.690417 0.589708 0.731169
540 2 0.613339 0.864317 0.258211
541 1 0.472023 0.594012 0.750033
542 2 0.840777 0.627931 0.147065
543 1 0.187661 0.906122 0.110538
544 1 0.80626 0.726216 0.566075
545 2 0.650013 0.655308 0.786915
546 2 0.951562 0.292524 0.41645
547 2 0.463571 0.0134407 0.840864
548 2 0.618822 0.510243 0.130902
549 2 0.0915289 0.873343 0.445302
550 2 0.378 0.288773 0.247227
551 1 0.546749 0.369362 0.299744
552 2 0.105274 0.440175 0.0816244
553 2 0.620111 0.00459548 0.779627
554 2 0.348089 0.21721 0.899824
555 1 0.572882 0.0290173 0.650906
556 2 0.292344 0.138086 0.504892
557 2 0.799353 0.993187 0.320672
558 1 0.313582 0.3433 0.531586
559 2 0.483526 0.686627 0.897595
560 2 0.820777 0.919452 0.0343622
561 2 0.577829 0.983786 0.620659
562 1 0.422698 0.455047 0.664343
563 2 0.0135161 0.684308 0.165017
564 2 0.981936 0.341536 0.643609
565 2 0.358752 0.372835 0.782041
566 2 0.911713 0.335615 0.81378
567 2 0.0634516 0.608251 0.00812377
568 2 0.555722 0.0526127 0.284928
569 1 0.894566 0.950831 0.0442378
570 2 0.515613 0.716585 0.578496
571 2 0.70065 0.0335194 0.38613
572 2 0.651726 0.496232 0.0995447
573 2 0.624109 0.344626 0.995854
574 2 0.936562 0.0601919 0.547472
575 1 0.888424 0.891897 0.0805094
576 2 0.496476 0.285747 0.820151
577 2 0.737881 0.12412 0.403426
578 1 0.371602 0.544137 0.419805
579 2 0.316071 0.426755 0.324221
580 1 0.119969 0.931244 0.88976
581 2 0.516338 0.521905 0.670131
582 2 0.426949 0.288843 0.063859
583 1 0.689412 0.597716 0.591567
584 2 0.556301 0.801469 0.760517
585 1 0.836103 0.364738 0.922291
586 2 0.43433 0.0758772 0.103768
587 2 0.200397 0.413723 0.242387
588 2 0.499633 0.269564 0.237269
589 1 0.113186 0.657385 0.754864
590 1 0.788018 0.805936 0.722835
591 1 0.734654 0.533172 0.531228
592 2 0.218111 0.406847 0.966314
593 2 0.308417 0.646135 0.156969
594 1 0.237668 0.203639 0.737644
595 1 0.500811 0.16996 0.627372
596 2 0.798347 0.832886 0.829023
597 1 0.7466 0.0789647 0.710441
598 2 0.555012 0.404231 0.694598
599 2 0.357815 0.67242 0.690753
600 2 0.932791 0.700526 0.222668
601 2 0.412843 0.0706094 0.300887
602 1 0.69436 0.248375 0.215334
603 2 0.368024 0.107582 0.638145
604 1 0.573872 0.119876 0.139738
605 2 0.368572 0.972483 0.511462
606 2 0.87671 0.439742 0.350741
607 1 0.194962 0.204958 0.103301
608 2 0.714249 0.647237 0.104866
609 2 0.170592 0.979709 0.449655
610 2 0.747587 0.545216 0.492239
611 2 0.159178 0.229135 0.176368
612 1 0.650417 0.353181 0.418013
613 2 0.822539 0.810207 0.109068
614 1 0.54114 0.425392 0.663246
615 2 0.163287 0.139819 0.39229
616 1 0.185101 0.996928 0.514395
617 2 0.579277 0.529489 0.850918
618 2 0.279285 0.586724 0.00836687
619 2 0.303169 0.21273 0.32807
620 2 0.961058 0.409083 0.0503742
621 2 0.499912 0.741501 0.826992
622 2 0.664486 0.133906 0.438663
623 1 0.094159 0.956752 0.976631
624 2 0.192355 0.472004 0.410245
625 2 0.130808 0.199978 0.762706
626 2 0.0583861 0.156929 0.189469
627 2 0.356885 0.00206658 0.464438
628 2 0.891019 0.993053 0.462669
629 2 0.956693 0.121313 0.208329
630 1 0.334206 0.345653 0.734937
631 2 0.918834 0.526107 0.259521
632 2 0.174069 0.560217 0.169907
633 2 0.430464 0.648553 0.609005
634 2 0.795764 0.181717 0.49829
635 2 0.195928 0.933206 0.0075757
636 2 0.984534 0.898289 0.457063
637 2 0.529968 0.343885 0.0643156
638 1 0.126904 0.896705 0.996299
639 2 0.557122 0.0711459 0.110947
640 2 0.419914 0.844253 0.492866
641 2 0.735498 0.380338 0.297058
642 2 0.515061 0.0675278 0.869955
643 2 0.235981 0.0257198 0.648135
644 2 0.62888 0.228268 0.854325
645 1 0.50689 0.198572 0.682853
646 2 0.899852 0.934903 0.184663
647 1 0.72748 0.637142 0.469853
648 2 0.188315 0.143014 0.468708
649 2 0.764962 0.41114 0.305657
650 2 0.186068 0.0405619 0.392483
651 2 0.0856187 0.316667 0.941644
652 2 0.525635 0.431154 0.277297
653 2 0.881231 0.696192 0.234292
654 1 0.396808 0.550972 0.768006
655 2 0.770042 0.332002 0.0191904
656 2 0.983303 0.854174 0.514699
657 2 0.170232 0.168248 0.0217365
658 2 0.434844 0.486747 0.248988
659 2 0.403427 0.519565 0.735885
660 2 0.633591 0.0386086 0.418755
661 1 0.540701 0.0358441 0.173476
662 2 0.11228 0.597211 0.0323555
663 2 0.914518 0.0137157 0.727927
664 1 0.808615 0.704785 0.731373
665 2 0.0510825 0.641273 0.149964
666 2 0.275183 0.971867 0.64706
667 2 0.46482 0.654714 0.389177
668 2 0.486353 0.0763073 0.729237
669 2 0.308943 0.221588 0.476816
670 1 0.375924 0.359524 0.603301
671 2 0.845314 0.219428 0.939711
672 1 0.725148 0.573392 0.414204
673 2 0.240145 0.464019 0.103675
674 2 0.867126 0.584557 0.772327
675 2 0.674412 0.578464 0.459018
676 1 0.218192 0.895313 0.546266
677 2 0.891468 0.586943 0.887749
678 2 0.0894875 0.885592 0.941262
679 1 0.567188 0.374025 0.129523
680 2 0.642774 0.422516 0.569275
681 1 0.0397875 0.387193 0.0917847
682 1 0.424332 0.0973524 0.655046
683 2 0.0201533 0.078601 0.0451543
684 2 0.146366 0.667563 0.930068
685 2 0.15734 0.680418 0.290458
686 2 0.123292 0.155993 0.297682
687 1 0.535345 0.220842 0.766731
688 2 0.690542 0.591277 0.471616
689 2 0.095459 0.326907 0.27492
690 2 0.726769 0.319377 0.422221
691 2 0.551747 0.0883034 0.963335
692 1 0.361041 0.861726 0.61973
693 2 0.397771 0.209622 0.0382369
694 2 0.0915797 0.291695 0.608088
695 1 0.896883 0.827229 0.755123
696 2 0.735798 0.695858 0.509658
697 2 0.711546 0.550694 0.540505
698 2 0.959502 0.855258 0.183421
699 2 0.625708 0.396171 0.146453
700 1 0.499507 0.830738 0.798799
701 2 0.162497 0.733428 0.541222
702 2 0.265465 0.788231 0.176938
703 2 0.800654 0.887295 0.61561
704 2 0.129528 0.575213 0.911582
705 2 0.550235 0.0208524 0.00797113
706 2 0.857693 0.767676 0.0749673
707 2 0.314585 0.496711 0.993659
708 1 0.166395 0.685673 0.521887
709 2 0.923158 0.940182 0.922671
710 2 0.20542 0.828615 0.00116036
711 2 0.848197 0.309661 0.768476
712 1 0.787579 0.53059 0.825827
713 2 0.531101 0.910481 0.933964
714 1 0.63418 0.802573 0.324922
715 2 0.653334 0.946112 0.497947
716 1 0.838058 0.963604 0.492258
717 2 0.0701287 0.818347 0.656045
718 2 0.631686 0.698788 0.877402
719 2 0.189019 0.845805 0.431911
720 2 0.429421 0.56136 0.638776
721 2 0.917656 0.689338 0.595733
722 1 0.339706 0.545741 0.537903
723 2 0.340699 0.0652326 0.289396
724 2 0.0645741 0.668189 0.458083
725 2 0.994662 0.252485 0.746414
726 2 0.802667 0.012448 0.291966
727 1 0.698411 0.86797 0.549817
728 1 0.611092 0.852828 0.535674
729 1 0.787855 0.506957 0.678203
730 1 0.822707 0.791893 0.549784
731 2 0.453099 0.478105 0.0819278
732 1 0.315108 0.765071 0.427175
733 2 0.635492 0.953927 0.758743
734 2 0.345438 0.0515238 0.484465
735 2 0.708908 0.548146 0.608039
736 1 0.0420494 0.662691 0.581267
737 2 0.621288 0.196469 0.681869
738 2 0.203473 0.0519518 0.380737
739 2 0.553093 0.879394 0.0706389
740 2 0.0503175 0.439431 0.00552605
741 2 0.131446 0.997472 0.272088
742 1 0.42096 0.654639 0.494899
743 2 0.588971 0.716969 0.386676
744 2 0.835871 0.818212 0.836201
745 2 0.78824 0.676737 0.0959028
746 1 0.403655 0.242979 0.428468
747 2 0.40822 0.22848 0.0535109
748 2 0.551992 0.183845 0.606064
749 2 0.956465 0.344319 0.535041
750 2 0.703417 0.564153 0.497299
751 2 0.44375 0.0446232 0.73884
752 2 0.551537 0.794634 0.983053
753 2 0.493272 0.436708 0.838648
754 2 0.843537 0.0217976 0.670171
755 2 0.314959 0.952639 0.792494
756 2 0.166803 0.692697 0.557726
757 2 0.0999843 0.549426 0.642129
758 2 0.0100969 0.343003 0.946183
759 2 0.059728 0.00475257 0.0272544
760 1 0.460451 0.058935 0.893952
761 2 0.053651 0.00289512 0.706902
762 2 0.33901 0.00840977 0.672231
763 1 0.601147 0.330816 0.962262
764 2 0.52304 0.095699 0.605847
765 2 0.497944 0.709445 0.931093
766 2 0.917086 0.932707 0.311281
767 2 0.712494 0.790316 0.69023
768 2 0.599999 0.552151 0.049393
769 2 0.429913 0.747235 0.966464
770 2 0.116384 0.356674 0.163942
771 2 0.369173 0.297886 0.86015
772 2 0.812993 0.214744 0.813314
773 1 0.681503 0.395583 0.347944
774 2 0.95399 0.109265 0.890856
775 2 0.988215 0.369745 0.496061
776 2 0.446564 0.108114 0.855821
777 1 0.486109 0.112759 0.943038
778 2 0.708847 0.357975 0.238566
779 2 0.390975 0.252464 0.0586145
780 1 0.991828 0.301925 0.692555
781 2 0.658782 0.500203 0.578726
782 2 0.79172 0.384545 0.388343
783 1 0.701399 0.851151 0.695263
784 2 0.768797 0.15815 0.0522542
785 2 0.870741 0.459458 0.696096
786 1 0.978579 0.860294 0.581295
787 2 0.555546 0.586023 0.673226
788 2 0.509025 0.198097 0.337227
789 2 0.365033 0.255093 0.447339
790 2 0.125823 0.57133 0.609308
791 1 0.070747 0.46654 0.113217
792 2 0.874371 0.897375 0.95064
793 2 0.475807 0.0755426 0.815623
794 2 0.559794 0.252882 0.573485
795 2 0.847826 0.959465 0.268089
796 2 0.0900858 0.80857 0.571805
797 2 0.479136 0.77946 0.136585
798 2 0.595816 0.979704 0.776854
799 2 0.905238 0.831926 0.569525
800 2 0.729939 0.575814 0.465123
801 2 0.352161 0.670598 0.156082
802 2 0.103836 0.303825 0.222011
803 2 0.292355 0.993934 0.709643
804 2 0.37102 0.728854 0.107211
805 2 0.508256 0.538991 0.167454
806 1 0.490816 0.593406 0.173744
807 2 0.501794 0.760747 0.00496419
808 2 0.246442 0.296626 0.873414
809 1 0.596667 0.852476 0.944152
810 2 0.776899 0.165735 0.618462
811 2 0.759235 0.865291 0.970391
812 2 0.0532258 0.92368 0.303664
813 1 0.92506 0.524817 0.714148
814 2 0.351438 0.985481 0.0861636
815 2 0.995356 0.959987 0.106654
816 1 0.742462 0.68448 0.0202739
817 1 0.0463195 0.591363 0.3114
818 2 0.0659255 0.729472 0.907976
819 1 0.107158 0.674791 0.970757
820 1 0.612339 0.213097 0.466842
821 2 0.685054 0.93855 0.406726
822 2 0.653305 0.33946 0.947453
823 1 0.410371 0.46858 0.116989
824 2 0.130513 0.250569 0.418216
825 2 0.714691 0.803949 0.572509
826 2 0.194211 0.369072 0.349137
827 1 0.189311 0.136001 0.247469
828 2 0.623457 0.27567 0.760062
829 2 0.150551 0.921581 0.266674
830 2 0.810791 0.311324 0.80843
831 1 0.635414 0.748976 0.0230229
832 2 0.911215 0.722165 0.381501
833 1 0.622785 0.364898 0.502963
834 2 0.919615 0.922687 0.0937289
835 2 0.427787 0.0388018 0.840436
836 2 0.367292 0.684165 0.0617083
837 2 0.264838 0.0138166 0.847901
838 2 0.071912 0.695479 0.949457
839 2 0.291041 0.800735 0.031505
840 2 0.766479 0.853749 0.728352
841 2 0.516444 0.520895 0.620179
842 2 0.872749 0.469243 0.956008
843 2 0.569303 0.10996 0.627161
844 2 0.958365 0.532914 0.189884
845 2 0.873318 0.138967 0.288485
846 2 0.78731 0.87399 0.159154
847 2 0.345541 0.977597 0.490777
848 2 0.15211 0.145322 0.182502
849 1 0.567568 0.920004 0.8466
850 2 0.549712 0.0337234 0.219747
851 2 0.699505 0.760256 0.908759
852 2 0.0649133 0.562749 0.171216
853 1 0.143006 0.570936 0.765737
854 2 0.172127 0.888588 0.414754
855 2 0.249568 0.0443567 0.776431
856 2 0.0379354 0.394498 0.471887
857 2 0.0847407 0.693587 0.360013
858 2 0.351707 0.819227 0.862259
859 2 0.802805 0.904656 0.889434
860 2 0.698688 0.341635 0.80284
861 2 0.973476 0.939596 0.173678
862 2 0.0635839 0.629282 0.39062
863 2 0.328327 0.638941 0.70356
864 2 0.275337 0.221036 0.789114
865 2 0.270907 0.728998 0.494723
866 2 0.905749 0.822733 0.63097
867 2 0.808332 0.455368 0.39118
868 2 0.0858724 0.945584 0.45577
869 2 0.534833 0.751807 0.547238
870 2 0.401353 0.247511 0.273604
871 2 0.622964 0.534755 0.495366
872 2 0.87313 0.819735 0.565313
873 2 0.460684 0.665574 0.700884
874 2 0.4183 0.588465 0.681903
875 2 0.368671 0.455453 0.109419
876 2 0.745262 0.560057 0.989401
877 2 0.0420037 0.0905783 0.545342
878 2 0.435403 0.769642 0.823172
879 2 0.472235 0.959525 0.809701
880 2 0.367559 0.445477 0.138151
881 2 0.994906 0.393563 0.337727
882 1 0.685119 0.666787 0.570611
883 1 0.345947 0.066437 0.0599366
884 2 0.85866 0.00567002 0.634153
885 2 0.241531 0.627758 0.511253
886 2 0.667147 0.660103 0.817725
887 1 0.230928 0.513769 0.735616
888 2 0.702399 0.597209 0.523598
889 2 0.997518 0.0611427 0.321143
890 1 0.314276 0.410619 0.688018
891 2 0.854309 0.490717 0.217901
892 2 0.657129 0.372544 0.816423
893 2 0.866782 0.2278 0.668404
894 2 0.367406 0.595262 0.448767
895 1 0.719637 0.436307 0.200534
896 2 0.612062 0.730027 0.82674
897 2 0.341531 0.175298 0.475197
898 2 0.839696 0.802383 0.676722
899 2 0.290252 0.752179 0.492351
900 2 0.434442 0.975561 0.141772
901 2 0.568751 0.633952 0.339042
902 2 0.938214 0.749878 0.351506