ITEM: TIMESTEP
59500
ITEM: NUMBER OF ATOMS
1000
ITEM: BOX BOUNDS xy xz yz pp pp pp
0.0000000000000000e+00 1.3572088000000001e+01 0.0000000000000000e+00
0.0000000000000000e+00 1.3572088000000001e+01 0.0000000000000000e+00
0.0000000000000000e+00 1.3572088000000001e+01 0.0000000000000000e+00
ITEM: ATOMS id type xs ys zs
1 2 0.603 0.680046 0.105879
2 2 0.898155 0.667698 0.611183
3 1 0.58251 0.89504 0.83036
4 2 0.225365 0.511598 0.0794478
5 2 0.557712 0.919361 0.704547
6 1 0.634777 0.955768 0.690892
7 2 0.581167 0.926851 0.784997
8 2 0.83377 0.695812 0.624959
9 2 0.472516 0.193541 0.20687
10 2 0.605589 0.962771 0.725942
11 2 0.804806 0.70261 0.655622
12 2 0.587653 0.86966 0.733341
13 2 0.850198 0.721128 0.686027
14 1 0.0208752 0.420631 0.395943
15 2 0.873071 0.674075 0.624366
16 2 0.432547 0.596498 0.890461
17 1 0.81073 0.763695 0.594691
18 2 0.817736 0.698851 0.669148
19 2 0.948091 0.0887117 0.459053
20 2 0.576995 0.86479 0.768596
21 2 0.587073 0.937529 0.727654
22 2 0.559242 0.28232 0.436536
23 2 0.199123 0.474456 0.0482683
24 2 0.874644 0.653933 0.687501
25 1 0.0609961 0.492198 0.215655
26 2 0.828818 0.706111 0.598215
27 2 0.609407 0.922997 0.808656
28 2 0.639082 0.923819 0.786021
29 2 0.269984 0.530589 0.863868
30 2 0.553054 0.901519 0.751985
31 1 0.595306 0.82667 0.756787
32 1 0.660833 0.991485 0.721775
33 1 0.768945 0.688984 0.675716
34 2 0.840454 0.671008 0.654653
35 2 0.328111 0.504537 0.665001
36 1 0.552516 0.845648 0.765438
37 2 0.830473 0.706252 0.691263
38 2 0.552316 0.947469 0.766904
39 2 0.347813 0.904762 0.367275
40 2 0.629093 0.882648 0.749923
41 2 0.591069 0.923352 0.751334
42 2 0.606446 0.917726 0.777217
43 2 0.315117 0.199994 0.139219
44 2 0.94469 0.258043 0.848138
45 2 0.86481 0.70498 0.634147
46 1 0.640489 0.165933 0.0125026
47 2 0.875477 0.674848 0.657468
48 2 0.606554 0.883656 0.759184
49 2 0.113057 0.591634 0.929603
50 2 0.859529 0.737967 0.676264
51 2 0.674993 0.284595 0.991267
52 2 0.648228 0.860863 0.993764
53 2 0.159843 0.0437375 0.535287
54 2 0.593504 0.905317 0.719213
55 1 0.908596 0.635143 0.677714
56 1 0.516282 0.863617 0.718382
57 2 0.613981 0.904639 0.752252
58 2 0.567869 0.895172 0.789446
59 2 0.913423 0.718036 0.62689
60 2 0.599354 0.969693 0.751274
61 2 0.220345 0.672144 0.148692
62 2 0.541845 0.881059 0.744487
63 2 0.978899 0.28409 0.323952
64 2 0.842783 0.753047 0.649923
65 2 0.828262 0.705134 0.609838
66 1 0.895026 0.773621 0.620881
67 2 0.567118 0.888899 0.797832
68 2 0.57074 0.910624 0.804275
69 1 0.571714 0.00526867 0.73108
70 2 0.862316 0.691246 0.617286
71 1 0.550422 0.928024 0.666203
72 2 0.423475 0.097676 0.697974
73 2 0.551269 0.915256 0.779087
74 2 0.548615 0.904103 0.760033
75 2 0.984261 0.325081 0.855536
76 2 0.533144 0.93215 0.735789
77 1 0.922191 0.747815 0.603018
78 2 0.629581 0.872181 0.338703
79 2 0.572831 0.916489 0.788454
80 2 0.615672 0.720223 0.0584536
81 2 0.560758 0.919142 0.77906
82 2 0.848397 0.706099 0.572926
83 2 0.196466 0.35284 0.144131
84 2 0.571869 0.865862 0.733714
85 1 0.539652 0.842058 0.659382
86 2 0.84229 0.665766 0.606017
87 2 0.5733 0.938299 0.72777
88 2 0.865189 0.706847 0.590215
89 2 0.843182 0.197384 0.779915
90 2 0.612489 0.933071 0.785505
91 2 0.690268 0.193106 0.0473557
92 2 0.875203 0.791615 0.646267
93 2 0.863052 0.645678 0.665613
94 1 0.0213037 0.0191175 0.935865
95 2 0.0973856 0.0750503 0.980126
96 2 0.549582 0.928088 0.763992
97 2 0.821159 0.719124 0.00332072
98 2 0.917366 0.574475 0.131105
99 2 0.218256 0.091364 0.136497
100 2 0.0445883 0.819943 0.420391
101 1 0.421849 0.621069 0.330642
102 2 0.623844 0.0592608 0.0283518
103 2 0.910063 0.693793 0.643361
104 2 0.574379 0.897843 0.761643
105 2 0.791572 0.688747 0.645361
106 2 0.919047 0.494129 0.502288
107 2 0.225204 0.148495 0.322757
108 2 0.804007 0.72523 0.609168
109 2 0.856907 0.67507 0.629723
110 2 0.604639 0.975138 0.774774
111 2 0.128437 0.514908 0.325423
112 1 0.883336 0.636179 0.58523
113 1 0.771409 0.672773 0.607447
114 2 0.88837 0.702583 0.671634
115 2 0.703652 0.430119 0.607301
116 2 0.842696 0.637903 0.648548
117 2 0.640028 0.985449 0.136848
118 2 0.819075 0.678701 0.660858
119 2 0.451361 0.523939 0.969088
120 2 0.859743 0.70976 0.601086
121 2 0.576169 0.907728 0.756178
122 2 0.573361 0.911736 0.736862
123 2 0.84948 0.706859 0.654115
124 2 0.811715 0.687125 0.64222
125 1 0.9723 0.720915 0.634881
126 2 0.55116 0.918478 0.738434
127 2 0.844718 0.717999 0.648346
128 2 0.416151 0.730503 0.61088
129 1 0.373072 0.932701 0.0401291
130 2 0.710216 0.959882 0.25727
131 2 0.584182 0.923241 0.709878
132 2 0.633739 0.916468 0.735309
133 2 0.860426 0.665553 0.639235
134 2 0.147795 0.646071 0.342896
135 2 0.64205 0.937317 0.746461
136 2 0.88237 0.742301 0.659795
137 1 0.493698 0.928805 0.662174
138 2 0.595967 0.91719 0.762461
139 2 0.623171 0.930131 0.724972
140 1 0.844189 0.74036 0.561
141 2 0.861127 0.738771 0.628989
142 2 0.983267 0.905649 0.796834
143 2 0.596255 0.637168 0.0588944
144 2 0.854238 0.429152 -0.00196073
145 2 0.707264 0.755876 0.804305
146 2 0.571569 0.968703 0.784993
147 1 0.223245 0.277411 0.476038
148 1 0.806755 0.677231 0.571157
149 2 0.586262 0.878461 0.772518
150 1 0.935071 0.658535 0.660419
151 2 0.561781 0.945637 0.753118
152 2 0.875595 0.711173 0.621821
153 1 0.768147 0.756843 0.595721
154 1 0.272302 0.0214415 0.418068
155 2 0.67687 0.105042 0.174752
156 2 0.873062 0.764572 0.647137
157 2 0.0407746 0.402931 0.429517
158 2 0.738577 0.527249 0.793135
159 2 0.613951 0.962841 0.720796
160 2 0.597119 0.930134 0.734269
161 2 0.598338 0.868013 0.774111
162 2 0.580859 0.956298 0.740233
163 2 0.614688 0.916203 0.791989
164 2 0.873834 0.664042 0.643584
165 2 0.824489 0.717356 0.653585
166 2 0.589384 0.946862 0.763008
167 2 0.296481 0.57953 0.0517114
168 2 0.597961 0.903722 0.746426
169 2 0.321447 0.133047 0.321781
170 2 0.67516 0.608035 0.157255
171 2 0.893092 0.72611 0.613967
172 2 0.583933 0.775778 0.0401108
173 1 0.759228 0.710936 0.637618
174 2 0.568986 0.896826 0.746233
175 2 0.245574 0.5404 0.321428
176 2 0.565377 0.926085 0.810695
177 1 0.527392 0.191203 0.941124
178 2 0.963887 0.452652 0.41256
179 2 0.494065 0.365565 0.887578
180 2 0.858158 0.686899 0.634177
181 2 0.649046 0.923092 0.745175
182 2 0.212406 0.300033 0.930984
183 2 0.706691 0.234982 0.160982
184 2 0.55187 0.953666 0.741709
185 2 0.865012 0.707066 0.666317
186 2 0.823061 0.66313 0.650132
187 2 0.330037 0.0858693 0.352949
188 1 0.596172 0.0273186 0.774511
189 2 0.612226 0.893723 0.712501
190 2 0.894937 0.73242 0.62632
191 2 0.626019 0.939264 0.742775
192 2 0.557837 0.960982 0.730958
193 2 0.572252 0.88528 0.712884
194 2 0.286088 0.713791 0.79112
195 2 0.554277 0.927911 0.722065
196 2 0.545812 0.901213 0.773188
197 2 0.892518 0.678812 0.654764
198 2 0.0295521 0.669041 0.0965651
199 2 0.665036 0.457976 0.881898
200 1 0.907486 0.721043 0.700573
201 2 0.0909616 0.306574 0.869805
202 2 0.0761053 0.600157 0.372866
203 2 0.577764 0.960756 0.787331
204 2 0.222609 0.75832 0.123158
205 2 0.626861 0.970079 0.743606
206 2 0.28619 0.0395013 0.999978
207 2 0.386144 0.350046 0.353038
208 2 0.37275 0.541466 0.313064
209 2 0.859255 0.681326 0.66164
210 2 0.855206 0.686363 0.602845
211 2 0.370053 0.150131 0.387204
212 1 0.606035 0.875786 0.659778
213 2 0.869262 0.649275 0.644369
214 2 0.820752 0.698176 0.634525
215 2 0.813542 0.667134 0.632627
216 2 0.622109 0.864422 0.747859
217 2 0.62428 0.922071 0.782235
218 2 0.410362 0.24715 0.854674
219 2 0.563109 0.980637 0.728861
220 2 0.0455509 0.627106 0.309755
221 2 0.825681 0.708758 0.586926
222 2 0.132222 0.111801 0.123969
223 2 0.718038 0.672531 0.591233
224 2 0.531732 0.935817 0.780515
225 1 0.886611 0.763441 0.670066
226 2 0.571699 0.908375 0.742481
227 2 0.560935 0.896695 0.725256
228 2 0.89576 0.70213 0.611583
229 2 0.58438 0.952678 0.772411
230 1 0.741897 0.811912 0.729958
231 2 0.611826 0.912816 0.727595
232 2 0.834538 0.681265 0.634888
233 1 0.89459 0.619872 0.640138
234 2 0.902986 0.705081 0.656044
235 2 0.89613 0.664004 0.66807
236 2 0.571902 0.916314 0.703144
237 2 0.115836 0.330252 0.910154
238 1 0.641654 0.399239 0.689009
239 1 0.78091 0.718758 0.589685
240 2 0.85362 0.674501 0.687703
241 2 0.563061 0.884381 0.776641
242 1 0.944146 0.725858 0.688026
243 1 0.918963 0.744469 0.647526
244 2 0.889114 0.718106 0.663543
245 2 0.966215 0.888556 0.28437
246 1 0.678401 0.955245 0.753204
247 2 0.458428 0.754519 0.70236
248 2 0.624846 0.689762 0.348023
249 2 0.634578 0.957433 0.767383
250 2 0.607807 0.960908 0.797203
251 2 0.96595 0.161159 0.436803
252 2 0.406053 0.32446 0.551391
253 2 0.230527 0.238283 0.527858
254 2 0.183611 0.676274 0.34464
255 2 0.623005 0.950357 0.739857
256 2 0.58919 0.894606 0.703776
257 2 0.593427 0.963369 0.723186
258 2 0.880623 0.740919 0.691636
259 1 0.360579 0.378382 0.326418
260 2 0.841806 0.658084 0.593673
261 1 0.654988 0.948815 0.78571
262 2 0.545207 0.0497785 0.287055
263 2 0.817984 0.697534 0.657182
264 2 0.822148 0.920152 0.0461414
265 1 0.815432 0.7659 0.669122
266 2 0.812167 0.716734 0.640119
267 2 0.576294 0.895997 0.724927
268 1 0.601639 0.858483 0.847369
269 1 0.170678 0.160685 0.0328175
270 2 0.220758 0.0487399 0.0995288
271 2 0.845166 0.758351 0.939864
272 2 0.971776 0.286039 0.217037
273 1 0.846814 0.780754 0.631806
274 2 0.823797 0.69407 0.617658
275 2 0.828326 0.549417 0.586606
276 2 0.616674 0.911995 0.762899
277 2 0.904059 0.701402 0.619504
278 2 0.26357 0.784299 0.780181
279 2 0.592142 0.943522 0.706671
280 1 0.450352 0.889309 0.784022
281 2 0.210064 0.850662 0.387926
282 2 0.582219 0.925942 0.743776
283 2 0.531321 0.491455 0.539569
284 1 0.607654 0.84874 0.718136
285 2 0.578375 0.942882 0.759195
286 2 0.534279 0.92128 0.748898
287 1 0.0349086 0.133689 0.574573
288 2 0.601509 0.943321 0.749969
289 2 0.848377 0.725531 0.663415
290 2 0.752546 0.807456 0.809639
291 2 0.811797 0.75468 0.622066
292 2 0.202084 0.367851 0.760798
293 2 0.846837 0.679244 0.62185
294 2 0.812846 0.723631 0.677989
295 2 0.802258 0.688828 0.670266
296 2 0.848249 0.823126 0.962286
297 2 0.568206 0.955155 0.719051
298 2 0.873687 0.696245 0.616437
299 1 0.665826 0.876008 0.77257
300 2 0.544645 0.959343 0.782558
301 2 0.596691 0.933491 0.807749
302 2 0.343197 0.685868 -0.00159209
303 2 0.615884 0.921794 0.761442
304 1 0.991993 0.667534 0.250742
305 2 0.56958 0.918461 0.72814
306 2 0.61864 0.943319 0.791641
307 2 0.58035 0.18992 0.172831
308 2 0.80261 0.310297 0.67218
309 2 0.79574 0.655889 0.659696
310 2 0.796049 0.689876 0.615352
311 2 0.841103 0.740037 0.613643
312 2 0.597731 0.954294 0.769461
313 2 0.814256 0.71066 0.651536
314 2 0.868622 0.687581 0.0140046
315 2 0.86651 0.723258 0.680223
316 2 0.831501 0.647411 0.638493
317 2 0.585593 0.896332 0.739915
318 2 0.928254 0.498525 0.242672
319 2 0.852456 0.652003 0.603464
320 2 0.831411 0.699575 0.659953
321 2 0.812808 0.7414 0.647408
322 2 0.840925 0.73516 0.638413
323 2 0.829558 0.385527 0.412709
324 2 0.273129 0.395887 0.449016
325 2 0.874806 0.726936 0.618166
326 2 0.560454 0.935702 0.709462
327 2 0.652494 0.619715 0.362108
328 2 0.82388 0.678403 0.648799
329 1 0.290374 0.858694 0.55303
330 2 0.863108 0.699643 0.621561
331 2 0.864626 0.687364 0.632873
332 2 0.613762 0.906315 0.704324
333 2 0.793274 0.264804 0.516499
334 2 0.580454 0.950287 0.713763
335 1 0.364069 0.874912 0.531562
336 2 0.801153 0.655362 0.619317
337 2 0.638737 0.426153 0.73533
338 1 0.503738 0.916978 0.741419
339 2 0.816703 0.722873 0.665808
340 2 0.0925837 0.447135 0.18895
341 2 0.54661 0.897092 0.73971
342 2 0.858944 0.715232 0.658192
343 2 0.825764 0.695728 0.634564
344 1 0.5874 0.968614 0.827136
345 1 0.863556 0.604079 0.598498
346 1 0.52823 0.894101 0.706278
347 1 0.846301 0.196288 0.873881
348 2 0.161924 0.984868 0.168131
349 2 0.088851 0.28437 0.577928
350 2 0.339821 0.487393 0.189587
351 2 0.877748 0.692306 0.592214
352 2 0.0977594 0.152985 0.0224862
353 1 0.921076 0.682948 0.545749
354 1 0.747387 0.932067 0.212944
355 2 0.0741007 0.882917 0.706345
356 2 0.875963 0.741269 0.632419
357 2 0.900507 0.349872 0.689696
358 2 0.248 0.0350761 0.695983
359 2 0.411233 0.420351 0.0917744
360 2 0.606543 0.91412 0.761802
361 1 0.559808 0.990547 0.815055
362 2 0.0124222 0.789762 0.294593
363 1 0.627561 0.90798 0.67536
364 2 0.592707 0.961944 0.742635
365 2 0.84556 0.675251 0.638461
366 2 0.822586 0.690521 0.590685
367 1 0.462413 0.511979 0.493751
368 1 0.527259 0.99588 0.739523
369 2 0.225005 0.964976 0.357032
370 2 0.231885 0.0214095 0.126746
371 2 0.865497 0.635777 0.624754
372 1 0.776181 0.190752 0.757475
373 2 0.745758 0.815848 0.182274
374 2 0.352419 0.211573 0.90468
375 2 0.6223 0.947508 0.755117
376 2 0.228904 0.483687 0.0282187
377 2 0.0952592 0.64114 0.958036
378 2 0.597277 0.891876 0.746034
379 2 0.8794 0.738079 0.651669
380 2 0.60069 0.882048 0.795061
381 2 0.597591 0.934729 0.792166
382 2 0.0905997 0.122809 0.504172
383 2 0.0414021 0.583483 0.707963
384 1 0.400175 0.362718 0.0402751
385 2 0.824337 0.728817 0.600307
386 2 0.867542 0.782372 0.0510502
387 1 0.288682 0.705082 0.967075
388 2 0.633041 0.941567 0.727428
389 2 0.8763 0.691534 0.651
390 2 0.575204 0.965493 0.758872
391 2 0.782928 0.269015 0.284623
392 1 0.79006 0.698917 0.712552
393 2 0.388114 0.584058 0.936157
394 2 0.588786 0.928485 0.769423
395 2 0.592066 0.934648 0.716511
396 2 0.637649 0.952339 0.733317
397 2 0.879096 0.667489 0.623571
398 1 0.625589 0.392766 0.790492
399 1 0.871865 0.630934 0.725947
400 1 0.973684 0.773145 0.332222
401 2 0.587938 0.921613 0.735362
402 2 0.602666 0.194847 0.519731
403 2 0.220671 0.295006 0.957128
404 2 0.908699 0.71194 0.663383
405 2 0.612023 0.293356 0.101926
406 2 0.531058 0.81895 0.750487
407 2 0.817718 0.256159 0.791586
408 2 0.839575 0.673958 0.611975
409 2 0.5968 0.975228 0.787524
410 2 0.856119 0.663578 0.66814
411 2 0.462704 0.632618 0.362884
412 2 0.127274 0.440375 0.105056
413 2 0.890467 0.666339 0.642865
414 2 0.198484 0.968712 0.353769
415 2 0.556934 0.905877 0.7204
416 1 0.837429 0.652089 0.549993
417 2 0.220388 0.723012 0.432575
418 2 0.608713 0.928427 0.706005
419 2 0.89063 0.952868 0.909603
420 2 0.232732 0.296568 0.749063
421 1 0.560286 0.875312 0.535063
422 1 0.622311 0.84602 0.787113
423 2 0.636238 0.903241 0.77738
424 2 0.58594 0.908003 0.785035
425 1 0.519432 0.950536 0.692038
426 2 0.968967 0.505897 0.259039
427 2 0.842091 0.777176 0.849261
428 2 0.036749 0.793251 0.0870462
429 2 0.555899 0.947631 0.799778
430 2 0.799918 0.730835 0.619742
431 2 0.840722 0.693631 0.603436
432 1 0.672933 0.911783 0.75994
433 2 0.896444 0.434434 0.253571
434 1 0.278661 0.986821 0.487311
435 2 0.0677577 0.574122 0.354629
436 2 0.885574 0.668503 0.665544
437 2 0.771313 0.248919 0.784722
438 2 0.0178354 0.947072 0.309785
439 1 0.580391 0.859627 0.811421
440 2 0.848124 0.727368 0.619846
441 1 0.705032 0.787782 0.0868885
442 1 0.939485 0.696092 0.657397
443 1 0.078278 0.803751 0.0325775
444 2 0.871172 0.66382 0.655982
445 2 0.395599 0.627646 0.628836
446 2 0.459974 0.59295 0.940877
447 2 0.888943 0.647802 0.653557
448 2 0.160243 0.661027 0.304451
449 1 0.84324 1.00064 0.145637
450 2 0.813322 0.648442 0.596477
451 2 0.584294 0.887316 0.736393
452 2 0.601351 0.896842 0.771425
453 1 0.649406 0.881418 0.718789
454 2 0.82934 0.735123 0.619006
455 2 0.2899 0.387752 0.0422727
456 2 0.530404 0.710437 0.139053
457 2 0.608614 0.870845 0.740669
458 2 0.62526 0.883264 0.766467
459 2 0.542722 0.084235 0.801115
460 2 0.886672 0.690778 0.626197
461 2 0.87842 0.366612 0.996943
462 2 0.836079 0.673545 0.623035
463 1 0.829289 0.608436 0.668912
464 2 0.287601 0.513917 0.346076
465 2 0.553995 0.935122 0.759719
466 2 0.900102 0.691518 0.602877
467 1 0.520778 0.1558 0.816127
468 2 0.205907 0.963825 0.863327
469 2 0.854973 0.73628 0.604905
470 2 0.641253 0.908309 0.734813
471 2 0.833263 0.651036 0.653181
472 2 0.85042 0.703202 0.63991
473 1 0.785575 0.732247 0.673087
474 1 0.414689 0.398421 0.391923
475 1 0.895226 0.337385 0.431496
476 2 0.608165 0.888463 0.748348
477 2 0.561596 0.952024 0.734876
478 2 0.938857 0.761661 0.574992
479 2 0.338318 0.739127 0.304789
480 2 0.533263 0.917221 0.763083
481 2 0.873896 0.720333 0.64579
482 2 0.265336 0.865898 0.4297
483 2 0.846247 0.704915 0.599452
484 1 0.930374 0.612389 0.602734
485 1 0.561809 0.909984 0.626523
486 2 0.850624 0.645811 0.62803
487 2 0.203609 0.907179 0.573494
488 2 0.877893 0.693533 0.669157
489 2 0.890672 0.684614 0.641972
490 2 0.847068 0.749169 0.613797
491 2 0.854382 0.645981 0.648893
492 2 0.866541 0.736728 0.657011
493 2 0.904913 0.67739 0.639127
494 2 0.577577 0.935071 0.747513
495 2 0.584527 0.923417 0.774354
496 2 0.865852 0.679427 0.59478
497 2 0.0642843 0.766604 0.983271
498 1 0.605156 0.899435 0.412579
499 2 0.611192 0.950487 0.736797
500 2 0.481689 0.557896 0.644213
501 1 0.764112 0.656432 0.640905
502 2 0.805526 0.551329 0.560553
503 2 0.847312 0.729744 0.58765
504 1 0.516984 0.886545 0.755269
505 2 0.854659 0.745922 0.647801
506 2 0.868573 0.66709 0.601806
507 2 0.539333 0.963299 0.761469
508 2 0.575473 0.93102 0.76114
509 1 0.6625 0.934009 0.708991
510 2 0.822911 0.659992 0.622193
511 2 0.58634 0.93721 0.794696
512 2 0.842827 0.662285 0.646914
513 1 0.163143 0.0551768 0.402708
514 2 0.626889 0.946213 0.768188
515 1 0.571228 0.81574 0.805708
516 2 0.593255 0.915264 0.702743
517 1 0.797961 0.618319 0.625241
518 2 0.989127 0.533198 0.908064
519 2 0.580148 0.936964 0.691635
520 2 0.570332 0.948661 0.764919
521 2 0.435029 0.269257 0.147641
522 2 0.922467 0.527187 0.10083
523 2 0.812531 0.726316 0.630835
524 2 0.037201 0.984959 0.469721
525 2 0.81056 0.705323 0.604856
526 2 0.34844 0.564354 0.765467
527 2 0.830406 0.74496 0.604233
528 1 0.278933 0.411773 0.235572
529 2 0.831614 0.732279 0.681564
530 2 0.814596 0.800258 0.548558
531 2 0.591722 0.917859 0.795026
532 2 0.601492 0.911212 0.724633
533 2 0.385349 0.538623 0.0525298
534 1 0.546081 0.981554 0.691459
535 2 0.833568 0.721228 0.644157
536 1 0.814626 0.72758 0.559478
537 1 0.5915 0.963521 0.682731
538 2 0.176937 0.0597855 0.0976766
539 2 0.900385 0.71294 0.630621
540 2 0.636987 0.644019 0.0829581
541 1 0.840896 0.607541 0.627948
542 2 0.593172 0.893289 0.787117
543 1 0.232532 0.147532 0.132199
544 1 0.924152 0.649218 0.623699
545 2 0.822987 0.733453 0.658581
546 2 0.901855 0.747528 0.716971
547 2 0.920252 0.0674045 0.742442
548 2 0.620161 0.918146 0.708104
549 2 0.692384 0.864332 0.885633
550 2 0.951615 0.43934 0.394597
551 1 0.839421 0.753149 0.692879
552 2 0.934766 0.723353 0.0860145
553 2 0.829703 0.700054 0.679497
554 2 0.611639 0.943957 0.711655
555 1 0.8829 0.379376 0.178163
556 2 0.227034 0.535752 0.333787
557 2 0.848312 0.718608 0.624724
558 1 0.845483 0.798297 0.66432
559 2 0.905281 0.680238 0.624506
560 2 0.532364 0.945229 0.749503
561 2 0.877579 0.256996 0.47612
562 1 0.882232 0.701485 0.553286
563 2 0.868357 0.716366 0.645837
564 2 0.216798 0.315109 0.442538
565 2 0.87042 0.724456 0.584051
566 2 0.229951 0.369506 0.715459
567 2 0.883755 0.714779 0.642317
568 2 0.903907 0.723666 0.789176
569 1 0.752822 0.687955 0.557725
570 2 0.8561 0.719292 0.630331
571 2 0.975634 0.229843 0.294518
572 2 0.606004 0.873959 0.785486
573 2 0.883619 0.678605 0.601097
574 2 0.36222 0.804275 0.0514743
575 1 0.310649 0.922297 0.452501
576 2 0.844484 0.647693 0.6103
577 2 0.637064 0.927 0.715912
578 1 0.590441 0.931616 0.842671
579 2 0.609176 0.942355 0.721146
580 1 0.966902 0.34716 0.341555
581 2 0.709085 0.390817 0.401229
582 2 0.590293 0.879813 0.720816
583 1 0.926652 0.420025 0.366212
584 2 0.604164 0.952873 0.751046
585 1 0.87007 0.76644 0.727021
586 2 0.84445 0.728037 0.64583
587 2 0.561852 0.886898 0.747147
588 2 0.909358 0.244615 0.194902
589 1 0.658488 0.91062 0.807359
590 1 0.485297 0.858735 0.624849
591 1 0.636346 0.861969 0.692709
592 2 0.884765 0.738023 0.475142
593 2 0.592571 0.943292 0.738731
594 1 0.154411 0.881361 0.0265701
595 1 0.788468 0.20906 0.90585
596 2 0.958007 0.250522 0.219606
597 1 0.475346 0.57383 0.876749
598 2 0.745472 0.85915 0.834533
599 2 0.80557 0.703187 0.614194
600 2 0.459346 0.402941 0.245503
601 2 0.817809 0.696734 0.681905
602 1 0.878086 0.64866 0.552403
603 2 0.682095 0.673027 0.631944
604 1 0.028601 0.254973 0.641127
605 2 0.219959 0.662549 0.514857
606 2 0.832512 0.876993 0.133365
607 1 0.80627 0.65696 0.697718
608 2 0.0559142 0.7472 0.969079
609 2 0.809959 0.688237 0.619786
610 2 0.863213 0.717516 0.61137
611 2 0.548467 0.965777 0.764518
612 1 0.624468 0.727983 0.420323
613 2 0.189193 0.0132938 0.483107
614 1 0.679877 0.00432426 0.208794
615 2 0.693572 0.645989 0.0655478
616 1 0.509533 0.849274 0.77903
617 2 0.567546 0.93051 0.785105
618 2 0.184822 0.959664 0.499648
619 2 0.152028 0.921456 0.392547
620 2 0.248869 0.036661 0.0301927
621 2 0.868543 0.679914 0.635468
622 2 0.865719 0.698165 0.654557
623 1 0.374497 0.445453 0.417633
624 2 0.501105 0.0153585 0.813477
625 2 0.985822 0.18592 0.72846
626 2 0.246391 0.749835 0.866864
627 2 0.563579 0.913277 0.743218
628 2 0.233859 0.361983 0.501803
629 2 0.453968 0.442609 0.163214
630 1 0.825588 0.710117 0.720979
631 2 0.279075 0.366922 0.170575
632 2 0.847065 0.6739 0.657889
633 2 0.629831 0.922327 0.752659
634 2 0.230788 0.935232 0.381477
635 2 0.346609 0.368905 0.107661
636 2 0.583759 0.946544 0.802834
637 2 0.608157 0.898417 0.782469
638 1 0.603781 0.00478041 0.422203
639 2 0.605015 0.919747 0.750977
640 2 0.591825 0.89433 0.764541
641 2 0.884745 0.734492 0.617378
642 2 0.863058 0.675653 0.642749
643 2 0.59635 0.760067 0.0216523
644 2 0.547951 0.931924 0.796702
645 1 0.618106 0.969213 0.637608
646 2 0.540427 0.904826 0.734867
647 1 0.731521 0.472433 0.123169
648 2 0.438741 0.417909 0.350703
649 2 0.799422 0.661329 0.63248
650 2 0.589588 0.984126 0.761655
651 2 0.884805 0.717137 0.604667
652 2 0.887992 0.70277 0.620149
653 2 0.835036 0.718473 0.606541
654 1 0.866447 0.622716 0.665489
655 2 0.998029 0.859353 0.169832
656 2 0.542054 0.933939 0.780488
657 2 0.960987 0.474919 0.277993
658 2 0.85498 0.744299 0.66458
659 2 0.585583 0.888258 0.762846
660 2 0.307048 0.0304461 0.134212
661 1 0.453964 0.527536 0.585492
662 2 0.870477 0.702645 0.646093
663 2 0.615129 0.964683 0.752388
664 1 0.423995 0.833605 0.409378
665 2 0.0806081 0.664543 0.983863
666 2 0.559874 0.930639 0.729064
667 2 0.547279 0.927133 0.787879
668 2 0.566541 0.920486 0.749834
669 2 0.530911 0.304686 0.382578
670 1 0.110161 0.967811 0.478248
671 2 0.270255 0.436464 0.411844
672 1 0.836781 0.697258 0.540991
673 2 0.88642 0.675021 0.684761
674 2 0.353473 0.619319 0.287795
675 2 0.729681 0.192256 0.719699
676 1 0.141189 0.0688344 0.00206934
677 2 0.585968 0.940556 0.775598
678 2 0.620268 0.926158 0.737373
679 1 0.0157938 0.180327 0.667669
680 2 0.578556 0.913766 0.716738
681 1 0.776437 0.632433 0.578072
682 1 0.643127 0.768602 0.540915
683 2 0.479134 0.361567 0.685456
684 2 0.201298 0.0881145 0.928637
685 2 0.578813 0.898353 0.70997
686 2 0.0115961 0.0473277 0.40321
687 1 0.641737 0.872563 0.819403
688 2 0.428835 0.937305 0.495834
689 2 0.861589 0.685735 0.689038
690 2 0.841788 0.672772 0.688017
691 2 0.660429 0.0505604 0.728828
692 1 0.611757 0.0084055 0.740904
693 2 0.267102 0.329108 0.510796
694 2 0.584091 0.889521 0.778118
695 1 0.502478 0.950986 0.780743
696 2 0.676192 0.0888473 0.00273029
697 2 0.328781 0.741846 0.355516
698 2 0.83213 0.716476 0.615535
699 2 0.810363 0.699688 0.627426
700 1 0.546153 0.919814 0.839104
701 2 0.835556 0.714212 0.660876
702 2 0.646099 0.927451 0.763614
703 2 0.102199 0.657162 0.130942
704 2 0.716706 0.450548 0.935735
705 2 0.819647 0.675058 0.671471
706 2 0.874099 0.683066 0.671011
707 2 0.47972 0.175973 0.0902817
708 1 0.87213 0.723213 0.717503
709 2 0.0152939 0.73054 0.334676
710 2 0.837528 0.708437 0.67099
711 2 0.632993 0.874435 0.509913
712 1 0.916298 0.77275 0.689589
713 2 0.841484 0.717612 0.58871
714 1 0.910352 0.71937 0.580379
715 2 0.56708 0.91328 0.758037
716 1 0.24124 0.23014 0.338569
717 2 0.584518 0.930242 0.750895
718 2 0.716061 0.785973 0.47572
719 2 0.852432 0.684463 0.647891
720 2 0.634847 0.754233 0.324094
721 2 0.575996 0.970443 0.71494
722 1 0.252635 0.740581 0.700871
723 2 0.921393 0.268631 0.301135
724 2 0.572404 0.937076 0.800968
725 2 0.0407602 0.102563 0.345658
726 2 0.813446 0.681364 0.604531
727 1 0.783349 0.383214 0.897164
728 1 0.141837 0.128114 0.988779
729 1 0.685165 0.886587 0.717645
730 1 0.612304 0.989715 0.704704
731 2 0.852951 0.707757 0.691491
732 1 0.440436 0.23184 0.645432
733 2 0.0770993 0.142786 0.466876
734 2 0.534702 0.916978 0.798838
735 2 0.921903 0.72436 0.778216
736 1 0.588736 0.913235 0.671843
737 2 0.600054 0.925766 0.784695
738 2 0.672339 0.224717 0.832066
739 2 0.597107 0.932477 0.755398
740 2 0.896593 0.520739 0.135205
741 2 0.552081 0.890841 0.783526
742 1 0.507754 0.957414 0.733386
743 2 0.842495 0.689197 0.663546
744 2 0.877486 0.6777 0.627661
745 2 0.558393 0.960005 0.764593
746 1 0.843648 0.641041 0.701745
747 2 0.24151 0.0245789 0.444964
748 2 0.808337 0.661703 0.648142
749 2 0.843509 0.712101 0.674222
750 2 0.304492 0.318164 0.111396
751 2 0.592601 0.97923 0.772572
752 2 0.601964 0.94687 0.770045
753 2 0.117666 0.547181 0.183405
754 2 0.159396 0.14131 0.892021
755 2 0.626917 0.905201 0.786789
756 2 0.857868 0.846786 0.530869
757 2 0.795432 0.710611 0.634486
758 2 0.441744 0.575192 0.448155
759 2 0.566759 0.957441 0.750371
760 1 0.465487 0.747372 0.336344
761 2 0.570991 0.937231 0.775818
762 2 0.606781 0.903762 0.793108
763 1 0.612213 0.502828 0.272511
764 2 0.577604 0.875918 0.758675
765 2 0.553666 0.890775 0.762297
766 2 0.871358 0.752105 0.617323
767 2 0.617432 0.487087 0.315689
768 2 0.301752 0.589042 0.245458
769 2 0.828674 0.668169 0.601225
770 2 0.853411 0.729639 0.647449
771 2 0.687714 0.458521 0.380955
772 2 0.927826 0.406594 0.241746
773 1 0.863242 0.697207 0.76334
774 2 0.230344 0.0234648 0.396614
775 2 0.0378486 0.792802 0.0473813
776 2 0.856283 0.58935 0.657323
777 1 0.556495 0.878944 0.872761
778 2 0.858796 0.726299 0.626874
779 2 0.989935 0.393682 0.347904
780 1 0.934563 0.668729 0.592721
781 2 0.565603 0.95639 0.774899
782 2 0.570836 0.482762 0.286198
783 1 0.535269 0.877681 0.816266
784 2 0.876082 0.694763 0.638906
785 2 0.880855 0.69241 0.582651
786 1 0.794811 0.750548 0.71643
787 2 0.828221 0.682903 0.672206
788 2 0.822696 0.671061 0.634527
789 2 0.554401 0.311818 0.829869
790 2 0.584693 0.981478 0.746884
791 1 0.798834 0.632555 0.668167
792 2 0.868606 0.718361 0.659512
793 2 0.366507 0.76912 0.0737014
794 2 0.966994 0.0530562 0.811924
795 2 0.592575 0.914459 0.74028
796 2 0.410633 0.161217 0.351708
797 2 0.822971 0.709134 0.633935
798 2 0.116126 0.686542 0.858387
799 2 0.583778 0.90963 0.777525
800 2 0.367131 0.459462 0.331654
801 2 0.560122 0.97477 0.752528
802 2 0.577691 0.957523 0.867622
803 2 0.879593 0.719904 0.675099
804 2 0.887035 0.402238 0.035647
805 2 0.639235 0.132211 0.218916
806 1 0.160303 0.853286 0.418736
807 2 0.631017 0.905339 0.762842
808 2 0.83852 0.163403 0.951125
809 1 0.841632 0.676169 0.722641
810 2 0.614052 0.886422 0.734803
811 2 0.834688 0.666265 0.622996
812 2 0.838901 0.650638 0.668082
813 1 0.598858 0.162353 0.108333
814 2 0.892078 0.670119 0.653032
815 2 0.847739 0.693674 0.631423
816 1 0.818267 0.633102 0.581652
817 1 0.488857 0.926701 0.831633
818 2 0.887029 0.691637 0.677806
819 1 0.851702 0.781158 0.590781
820 1 0.619573 0.993658 0.803268
821 2 0.544628 0.940403 0.742748
822 2 0.577678 0.956393 0.744092
823 1 0.93908 0.702485 0.608296
824 2 0.722553 0.370356 0.684019
825 2 0.865198 0.739388 0.594898
826 2 0.449352 0.157763 0.475241
827 1 0.848836 0.236559 0.767765
828 2 0.883827 0.727608 0.664649
829 2 0.826073 0.651453 0.616102
830 2 0.390309 0.069978 0.526522
831 1 0.560673 0.876462 0.686803
832 2 0.436332 0.17923 0.915157
833 1 0.872489 0.739122 0.537498
834 2 0.8516 0.656956 0.630686
835 2 0.712966 0.873276 0.132523
836 2 0.831989 0.734808 0.665969
837 2 0.299017 0.937269 0.623586
838 2 0.608044 0.928234 0.749843
839 2 0.59864 0.534679 0.814208
840 2 0.596355 0.898771 0.809884
841 2 0.792092 0.775075 0.695497
842 2 0.333603 0.880327 0.191852
843 2 0.856724 0.692565 0.612482
844 2 0.833416 0.666009 0.67562
845 2 0.803846 0.693327 0.59172
846 2 0.807201 0.680375 0.655872
847 2 0.856184 0.658087 0.654107
848 2 0.453475 0.382093 0.976566
849 1 0.55356 0.0042096 0.773235
850 2 0.875333 0.65836 0.61566
851 2 0.563034 0.922297 0.769864
852 2 0.571338 0.939157 0.741248
853 1 0.190248 0.0835734 0.860171
854 2 0.986841 0.432427 0.891934
855 2 0.872713 0.689911 0.685523
856 2 0.861863 0.655044 0.632789
857 2 0.543986 0.871356 0.758062
858 2 0.882711 0.705817 0.630079
859 2 0.838091 0.680271 0.593916
860 2 0.667317 0.222574 0.218405
861 2 0.89418 0.714067 0.666152
862 2 0.0058945 0.746657 0.117986
863 2 0.631694 0.904549 0.74702
864 2 0.584325 0.915895 0.81322
865 2 0.808172 0.720789 0.655163
866 2 0.836802 0.692475 0.622498
867 2 0.510281 0.998282 0.179197
868 2 0.46227 0.279633 0.535055
869 2 0.852533 0.688268 0.576838
870 2 0.885965 0.683593 0.610611
871 2 0.61582 0.893446 0.765695
872 2 0.567737 0.90707 0.771903
873 2 0.864707 0.676977 0.671875
874 2 0.888495 0.706208 0.647838
875 2 0.229183 0.908179 0.55005
876 2 0.789067 0.203388 0.687842
877 2 0.584277 0.912075 0.754871
878 2 0.23466 0.900082 0.299389
879 2 0.422096 0.746595 0.81233
880 2 0.229407 0.204768 0.498108
881 2 0.844159 0.682643 0.664893
882 1 0.650329 0.687246 0.0801922
883 1 0.382146 0.1151 0.0162228
884 2 0.243207 0.0499604 0.059537
885 2 0.887395 0.92421 0.00608413
886 2 0.861656 0.666234 0.589164
887 1 0.140588 0.380852 0.986603
888 2 0.256192 0.400122 0.675677
889 2 0.777558 0.582131 0.415448
890 1 0.7315 0.755571 0.654711
891 2 0.130889 0.151521 0.888206
892 2 0.85088 0.687012 0.613572
893 2 0.594391 0.918255 0.780208
894 2 0.604167 0.922244 0.719658
895 1 0.89141 0.678361 0.711836
896 2 0.421968 0.922417 0.669278
897 2 0.812179 0.799996 0.602133
898 2 0.598272 0.950159 0.77947
899 2 0.186457 0.119382 0.143031
900 2 0.614203 0.925484 0.744941
901 2 0.619757 0.898072 0.732232
902 2 0.82989 0.720167 0.627959
903 2 0.604293 0.927302 0.771115
904 2 0.615939 0.968164 0.776715
905 2 0.724321 0.583775 0.999798
906 2 0.79937 0.890914 0.371667
907 2 0.837912 0.691376 0.685786