ITEM: TIMESTEP
7000
ITEM: NUMBER OF ATOMS
1000
ITEM: BOX BOUNDS xy xz yz pp pp pp
0.0000000000000000e+00 1.3572088000000001e+01 0.0000000000000000e+00
0.0000000000000000e+00 1.3572088000000001e+01 0.0000000000000000e+00
0.0000000000000000e+00 1.3572088000000001e+01 0.0000000000000000e+00
ITEM: ATOMS id type xs ys zs
1 2 0.687132 0.464364 0.504904
2 2 0.401822 0.194177 0.876534
3 1 0.224826 0.904613 0.395082
4 2 0.598528 0.937182 0.210974
5 2 0.0650318 0.47475 0.199071
6 1 0.38623 0.120661 0.217729
7 2 0.259757 0.978192 0.518141
8 2 0.634839 0.76738 0.269664
9 2 0.633702 0.389252 0.0965689
10 2 0.914447 0.0260761 0.893223
11 2 0.245923 0.924493 0.853883
12 2 0.490431 0.649587 0.489739
13 2 0.171432 0.496001 0.832801
14 1 0.248694 0.804619 0.877843
15 2 0.68927 0.562736 0.518332
16 2 0.883961 0.16295 0.131481
17 1 0.774819 0.415224 0.214574
18 2 0.890888 0.379156 0.980676
19 2 0.843372 0.418503 0.921623
20 2 0.250989 0.238277 0.983944
21 2 0.0375182 0.585031 0.842729
22 2 0.339677 0.83467 0.323388
23 2 0.204779 0.591336 0.981441
24 2 0.83979 0.748164 0.255274
25 1 0.0120326 0.0774891 0.483852
26 2 0.578199 0.0831724 0.697304
27 2 0.511182 0.839319 0.0578051
28 2 0.331164 0.223546 0.427593
29 2 0.285002 0.437498 0.327316
30 2 0.787511 0.147537 0.505421
31 1 0.733488 0.749974 0.647496
32 1 0.970105 0.512864 0.220506
33 1 0.169767 0.210285 0.184093
34 2 0.34553 0.340998 0.787613
35 2 0.906255 0.604613 0.189135
36 1 0.908046 0.918626 0.0640088
37 2 0.148629 0.750464 0.824493
38 2 0.912791 0.312895 0.877628
39 2 0.553682 0.457321 0.529863
40 2 0.756603 0.676268 0.644466
41 2 0.179554 0.355048 0.671309
42 2 0.349652 0.271638 0.830587
43 2 0.961011 0.503624 0.0518719
44 2 0.429545 0.914891 0.827133
45 2 0.359387 0.0891439 0.126133
46 1 0.530479 0.310382 0.796125
47 2 0.830637 0.674242 0.990561
48 2 0.0674646 0.304201 0.011119
49 2 0.85954 0.453838 0.130043
50 2 0.83428 0.254646 0.762466
51 2 0.674656 0.391169 0.0810699
52 2 0.795446 0.87805 0.294569
53 2 0.756271 0.898701 0.941979
54 2 0.26864 0.633216 0.389372
55 1 0.43162 0.337124 0.725742
56 1 0.806734 0.213423 0.495699
57 2 0.519287 0.24338 0.158285
58 2 0.208656 0.295502 0.424909
59 2 0.678363 0.28997 0.478766
60 2 0.813031 0.0536813 0.353291
61 2 0.793331 0.676372 0.725341
62 2 0.633053 0.995021 0.238262
63 2 0.707199 0.444947 0.167829
64 2 0.626805 0.981053 0.998775
65 2 0.424489 0.22303 0.612086
66 1 0.606381 0.458225 0.213519
67 2 0.72192 0.966667 0.617525
68 2 0.591076 0.720626 0.34364
69 1 0.172951 0.24565 0.329734
70 2 0.122961 0.0525401 0.425844
71 1 0.893275 0.844787 0.525389
72 2 0.463741 0.424546 0.366616
73 2 0.826709 0.148524 0.701439
74 2 0.631899 0.160784 0.541763
75 2 0.536322 0.47757 0.504406
76 2 0.777583 0.239184 0.0544531
77 1 0.959669 0.997083 0.987758
78 2 0.71507 0.103297 0.448853
79 2 0.923406 0.185431 0.0169331
80 2 0.848425 0.140482 0.323476
81 2 0.871497 0.715332 0.0930527
82 2 0.990487 0.555403 0.378833
83 2 0.309744 0.0530291 0.37866
84 2 0.383758 0.914674 0.70576
85 1 0.304488 0.443297 0.730838
86 2 0.706357 0.0719764 0.00638632
87 2 0.212077 0.461967 0.20924
88 2 0.807856 0.224143 0.726872
89 2 0.175733 0.284605 0.513474
90 2 0.248428 0.547908 0.622984
91 2 0.134101 0.901366 0.678473
92 2 0.635224 0.0205174 0.0105917
93 2 0.629835 0.608106 0.0882902
94 1 0.399875 0.0644529 0.0967984
95 2 0.560123 0.673068 0.767824
96 2 0.041031 0.801339 0.0651014
97 2 0.786762 0.838537 0.026446
98 2 0.522272 0.958931 0.864646
99 2 0.759041 0.137482 0.468603
100 2 0.373665 0.941919 0.124871
101 1 0.0079382 0.663998 0.218144
102 2 0.0616655 0.48259 0.979738
103 2 0.247112 0.792011 0.578735
104 2 0.504074 0.970183 0.246601
105 2 0.0865978 0.557825 0.754448
106 2 0.318245 0.818476 0.387117
107 2 0.823929 0.186441 0.993233
108 2 0.436479 0.545742 0.563587
109 2 0.213704 0.503679 0.507424
110 2 0.730725 0.939177 0.331471
111 2 0.3083 0.406672 0.935499
112 1 0.407908 0.238537 0.0553619
113 1 0.380829 0.304616 0.0241816
114 2 0.141637 0.34476 0.944835
115 2 0.795158 0.859737 0.349364
116 2 0.0861775 0.712401 0.581779
117 2 0.224273 0.538662 0.281791
118 2 0.455195 0.0878425 0.645223
119 2 0.47599 0.987706 0.189688
120 2 0.943393 0.839233 0.65717
121 2 0.549333 0.987419 0.97653
122 2 0.743187 0.410959 0.543047
123 2 0.689339 0.696211 0.926816
124 2 0.737375 0.973421 0.658882
125 1 0.181311 0.459291 0.542122
126 2 0.381157 0.883687 0.375602
127 2 0.561025 0.840577 0.988709
128 2 0.631248 0.411374 0.877084
129 1 0.790649 0.0868519 0.149054
130 2 0.745798 0.812851 0.0755347
131 2 0.673912 0.976718 0.774477
132 2 0.889894 0.240726 0.256437
133 2 0.77955 0.886368 0.828087
134 2 0.511608 0.720314 0.873523
135 2 0.0204153 0.799596 0.247361
136 2 0.651445 0.928881 0.867739
137 1 0.930907 0.524147 0.434275
138 2 0.342106 0.0723759 0.927467
139 2 0.0850992 0.0984084 0.373598
140 1 0.914502 0.932691 0.578639
141 2 0.991099 0.698794 0.0612727
142 2 0.430279 0.170761 0.0503749
143 2 0.0922605 0.468219 0.892008
144 2 0.0597163 0.527353 0.945381
145 2 0.179798 0.93125 0.395516
146 2 0.560243 0.638193 0.584235
147 1 0.392523 0.0681053 0.573128
148 1 0.856043 0.968235 0.872812
149 2 0.621044 0.997739 0.833005
150 1 0.154597 0.558039 0.0238988
151 2 0.55118 0.26696 0.293113
152 2 0.663573 0.860364 0.779395
153 1 0.242752 0.665774 0.934246
154 1 0.282788 0.867727 0.208885
155 2 0.724011 0.0500791 0.491244
156 2 0.740165 0.192564 0.494377
157 2 0.785648 0.730625 0.121018
158 2 0.790718 0.779946 0.097082
159 2 0.827471 0.824657 0.193435
160 2 0.250671 0.557061 0.906962
161 2 0.288113 0.0449652 0.672692
162 2 0.613217 0.704211 0.161007
163 2 0.504797 0.619847 0.73881
164 2 0.423173 0.322618 0.472574
165 2 0.923318 0.796884 0.0451863
166 2 0.763955 0.621258 0.590882
167 2 0.854822 0.848236 0.341207
168 2 0.367254 0.276985 0.730201
169 2 0.284498 0.611915 0.591385
170 2 0.584793 0.966557 0.247862
171 2 0.952458 0.961736 0.871306
172 2 0.653425 0.0370621 0.271476
173 1 0.734617 0.492467 0.567814
174 2 0.468691 0.987267 0.735729
175 2 0.280872 0.897786 0.809824
176 2 0.568009 0.0702637 0.0463786
177 1 0.175047 0.904867 0.878371
178 2 0.36135 0.619795 0.192813
179 2 0.638678 0.457734 0.739266
180 2 0.816142 0.123165 0.865089
181 2 0.916855 0.618009 0.0840061
182 2 0.74571 0.637094 0.582719
183 2 0.947784 0.284022 0.232495
184 2 0.492886 0.239296 0.117193
185 2 0.185405 0.713498 0.90563
186 2 0.181846 0.506066 0.668614
187 2 0.972046 0.0151307 0.0432726
188 1 0.789139 0.709925 0.487265
189 2 0.379207 0.223506 0.33104
190 2 0.150793 0.135633 0.197524
191 2 0.328838 0.882148 0.834775
192 2 0.237168 0.485429 0.0327019
193 2 0.256572 0.184064 0.924105
194 2 0.300934 0.0818588 0.324175
195 2 0.297095 0.957479 0.21924
196 2 0.705639 0.531836 0.240647
197 2 0.149862 0.612515 0.29404
198 2 0.0274693 0.939597 0.292098
199 2 0.974915 0.0369234 0.940927
200 1 0.401366 0.1967 0.137939
201 2 0.446572 0.0597641 0.564493
202 2 0.777368 0.805873 0.710314
203 2 0.863579 0.89846 0.350923
204 2 0.841465 0.912078 0.598042
205 2 0.202593 0.969225 0.940918
206 2 0.334745 0.839295 0.886587
207 2 0.240805 0.036727 0.207261
208 2 0.71891 0.217979 0.701847
209 2 0.0237035 0.710023 0.835666
210 2 0.648932 0.816282 0.136587
211 2 0.757656 0.892732 0.322477
212 1 0.763373 0.119941 0.836796
213 2 0.0694639 0.509962 0.594436
214 2 0.631864 0.542322 0.97503
215 2 0.468905 0.92508 0.151991
216 2 0.998653 0.335853 0.202371
217 2 0.602387 0.568028 0.313163
218 2 0.682831 0.0375174 0.908741
219 2 0.992632 0.951645 0.570976
220 2 0.970711 0.515131 0.808937
221 2 0.521365 0.895417 0.170484
222 2 0.866456 0.533238 0.144645
223 2 0.368437 0.125741 0.0460577
224 2 0.240554 0.131301 0.755108
225 1 0.620571 0.231136 0.924141
226 2 0.198438 0.438083 0.503336
227 2 0.507989 0.365414 0.121915
228 2 0.851796 0.594651 0.352431
229 2 0.572895 0.207206 0.498761
230 1 0.167713 0.856619 0.603165
231 2 0.27539 0.620713 0.95301
232 2 0.772203 0.502041 0.0940367
233 1 0.202796 0.638773 0.312174
234 2 0.400057 0.345898 0.980549
235 2 0.824982 0.620937 0.962127
236 2 0.790763 0.720287 0.0546539
237 2 0.341188 0.671353 0.502851
238 1 0.796561 0.524532 0.433185
239 1 0.738044 0.542375 0.218779
240 2 0.670201 0.307738 0.0872784
241 2 0.261 0.969432 0.270343
242 1 0.320368 0.950694 0.914828
243 1 0.643255 0.328879 0.89673
244 2 0.585365 0.827656 0.833073
245 2 0.0622929 0.57992 0.224997
246 1 0.291421 0.103781 0.13041
247 2 0.0986815 0.184052 0.932408
248 2 0.613794 0.607445 0.543595
249 2 0.807624 0.977625 0.780046
250 2 0.77995 0.634055 0.640962
251 2 0.487375 0.667459 0.452658
252 2 0.14638 0.79411 0.694086
253 2 0.0735611 0.108286 0.278616
254 2 0.335654 0.984153 0.301017
255 2 0.17215 0.30883 0.254419
256 2 0.0369663 0.360116 0.671767
257 2 0.211625 0.114403 0.536293
258 2 0.246485 0.463206 0.828217
259 1 0.107904 0.481441 0.950173
260 2 0.603859 0.887761 0.611952
261 1 0.906181 0.674039 0.930381
262 2 0.82998 0.558827 0.983083
263 2 0.517 0.282133 0.133834
264 2 0.901506 0.557652 0.251481
265 1 0.182241 0.450354 0.85602
266 2 0.898939 0.606228 0.490054
267 2 0.578667 0.790736 0.986021
268 1 0.590421 0.812544 0.498534
269 1 0.0358398 0.830437 0.948611
270 2 0.55121 0.153368 0.768775
271 2 0.190564 0.110686 0.0431642
272 2 0.636132 0.693891 0.261054
273 1 0.620601 0.633074 0.15454
274 2 0.248572 0.959194 0.23448
275 2 0.542452 0.715016 0.817512
276 2 0.917253 0.481742 0.180951
277 2 0.622635 0.969982 0.146439
278 2 0.913951 0.121239 0.135592
279 2 0.82646 0.755204 0.722997
280 1 0.822551 0.580355 0.53074
281 2 0.114981 0.502421 0.907148
282 2 0.0645427 0.0801776 0.503101
283 2 0.107297 0.679689 0.309974
284 1 0.863568 0.751704 0.638658
285 2 0.138541 0.893148 0.29358
286 2 0.318894 0.496858 0.731106
287 1 0.76467 0.752695 0.829708
288 2 0.350497 0.254156 0.668854
289 2 0.450374 0.654894 0.439184
290 2 0.445737 0.671257 0.376322
291 2 0.82873 0.646576 0.679945
292 2 0.194877 0.587293 0.71323
293 2 0.969467 0.676909 0.287094
294 2 0.911165 0.956569 0.857419
295 2 0.403761 0.671677 0.184585
296 2 0.681175 0.0983367 0.0947025
297 2 0.793893 0.562163 0.027081
298 2 0.29727 0.927756 0.405126
299 1 0.268089 0.449136 0.480132
300 2 0.342061 0.314129 0.275373
301 2 0.907764 0.347244 0.849644
302 2 0.917108 0.885436 0.820949
303 2 0.0481225 0.311009 0.377417
304 1 0.298613 0.943876 0.254007
305 2 0.0271196 0.269172 0.197291
306 2 0.00875904 0.270395 0.374515
307 2 0.0193666 0.747057 0.856011
308 2 0.806186 0.761221 0.531161
309 2 0.114585 0.193752 0.780214
310 2 0.385149 0.732472 0.923523
311 2 0.987863 0.815586 0.288746
312 2 0.222464 0.672585 0.902183
313 2 0.0379674 0.171185 0.918152
314 2 0.783422 0.923702 0.730589
315 2 0.808858 0.758032 0.579178
316 2 0.247938 0.490728 0.945596
317 2 0.113332 0.181127 0.448059
318 2 0.291461 0.865449 0.622401
319 2 0.237584 0.0892307 0.796866
320 2 0.551951 0.983013 0.353643
321 2 0.502617 0.163519 0.0210921
322 2 0.548087 0.392637 0.97525
323 2 0.379682 0.135951 0.172323
324 2 0.0829479 0.455038 0.649416
325 2 0.788509 0.174111 0.545015
326 2 0.0565147 0.217758 0.182563
327 2 0.665894 0.793289 0.29586
328 2 0.71809 0.0376521 0.639186
329 1 0.946965 0.632821 0.110406
330 2 0.362748 0.962567 0.261312
331 2 0.601039 0.108737 0.985507
332 2 0.643114 0.751602 0.323283
333 2 0.970842 0.553841 0.721689
334 2 0.0915073 0.455189 0.295308
335 1 0.414355 0.526664 0.382523
336 2 0.000425829 0.231626 0.939501
337 2 0.936993 0.793089 0.715057
338 1 0.0478792 0.243658 0.967332
339 2 0.713482 0.556997 0.145801
340 2 0.703732 0.422182 0.153956
341 2 0.581378 0.199376 0.048843
342 2 0.461026 0.111993 0.447204
343 2 0.0268363 0.187309 0.21227
344 1 0.446095 0.0769152 0.736702
345 1 0.58229 0.997579 0.131017
346 1 0.711042 0.562764 0.821233
347 1 0.168904 0.0533166 0.456391
348 2 0.182318 0.0639366 0.593104
349 2 0.376745 0.30864 0.75699
350 2 0.213975 0.75083 0.296245
351 2 0.0816277 0.0484335 0.42155
352 2 0.705171 0.629114 0.289226
353 1 0.0739377 0.495861 0.0128528
354 1 0.480664 0.266389 0.530154
355 2 0.781495 0.849569 0.868755
356 2 0.551923 0.224722 0.817438
357 2 0.196705 0.00953713 0.522588
358 2 0.657729 0.204497 0.604568
359 2 0.512216 0.698376 0.215752
360 2 0.211649 0.425337 0.166669
361 1 0.0591827 0.945901 0.94161
362 2 0.79973 0.596493 0.113392
363 1 0.915287 0.144373 0.781106
364 2 0.0819893 0.913441 0.139794
365 2 0.988941 0.0311681 0.315844
366 2 0.0785076 0.914475 0.0969984
367 1 0.566464 0.852504 0.0857063
368 1 0.0776538 0.281196 0.491055
369 2 0.99482 0.668364 0.15093
370 2 0.0053896 0.561579 0.596209
371 2 0.254717 0.731693 0.931257
372 1 0.76611 0.533591 0.68146
373 2 0.986783 0.186171 0.0515441
374 2 0.94186 0.945245 0.956313
375 2 0.211151 0.130454 0.0271674
376 2 0.996424 0.428623 0.104671
377 2 0.592253 0.386447 0.420184
378 2 0.102092 0.2279 0.0703366
379 2 0.835548 0.166361 0.821176
380 2 0.12662 0.121296 0.530415
381 2 0.170065 0.895194 0.333763
382 2 0.220965 0.544751 0.925556
383 2 0.460809 0.344868 0.597349
384 1 0.214094 0.671688 0.609283
385 2 0.494831 0.968937 0.138542
386 2 0.0519419 0.0658532 0.620561
387 1 0.769786 0.358408 0.330343
388 2 0.0382068 0.348598 0.25407
389 2 0.337193 0.255988 0.559099
390 2 0.0615333 0.185293 0.485994
391 2 0.6854 0.293638 0.621616
392 1 0.250504 0.41122 0.303127
393 2 0.935883 0.197221 0.585729
394 2 0.0874269 0.564078 0.959322
395 2 0.089408 0.710604 0.260264
396 2 0.403679 0.348674 0.548162
397 2 0.89997 0.386395 0.373429
398 1 0.398695 0.255169 0.982853
399 1 0.58404 0.443526 0.624635
400 1 0.302378 0.391419 0.278352
401 2 0.586323 0.227576 0.23457
402 2 0.947395 0.770583 0.185126
403 2 0.388854 0.56905 0.439031
404 2 0.874666 0.137449 0.844088
405 2 0.542582 0.411077 0.458141
406 2 0.485105 0.170142 0.0471104
407 2 0.772396 0.466624 0.356894
408 2 0.736688 0.999139 0.57161
409 2 0.929991 0.706366 0.125105
410 2 0.306551 0.941814 0.0525076
411 2 0.72358 0.693284 0.863111
412 2 0.771983 0.403927 0.475755
413 2 0.578801 0.331332 0.297883
414 2 0.588243 0.753357 0.3078
415 2 0.542505 0.14994 0.0487242
416 1 0.301107 0.155993 0.82238
417 2 0.720159 0.584407 0.480511
418 2 0.733707 0.345045 0.265386
419 2 0.483849 0.0116698 0.199986
420 2 0.255936 0.722295 0.660154
421 1 0.815818 0.106148 0.223368
422 1 0.885016 0.223085 0.803755
423 2 0.31588 0.979571 0.118199
424 2 0.163159 0.661424 0.0800062
425 1 0.0177826 0.0958138 0.900584
426 2 0.930075 0.772707 0.148134
427 2 0.970911 0.190751 0.00642237
428 2 0.440859 0.782744 0.504632
429 2 0.365794 0.984764 0.359281
430 2 0.372156 0.89616 0.58985
431 2 0.891539 0.393063 0.572848
432 1 0.397269 0.789271 0.70082
433 2 0.854608 0.185288 0.239262
434 1 0.248029 0.856949 0.576095
435 2 0.385241 0.155587 0.897096
436 2 0.620708 0.8425 0.023982
437 2 0.692242 0.929258 0.00526465
438 2 0.880198 0.873871 0.389209
439 1 0.84551 0.259581 0.72389
440 2 0.445575 0.720286 0.329232
441 1 0.600767 0.57391 0.0825379
442 1 0.261039 0.285052 0.364547
443 1 0.292049 0.578706 0.947429
444 2 0.966928 0.102099 0.981726
445 2 0.890825 0.284274 0.262359
446 2 0.378439 0.142811 0.419344
447 2 0.942112 0.476086 0.870731
448 2 0.907448 0.409291 0.209821
449 1 0.717722 0.919704 0.0268564
450 2 0.443895 0.738256 0.37857
451 2 0.686988 0.552403 0.579187
452 2 0.472992 0.678037 0.843589
453 1 0.0166058 0.798087 0.113216
454 2 0.954829 0.667324 0.183408
455 2 0.678636 0.556866 0.149775
456 2 0.943069 0.836279 0.177604
457 2 0.861676 0.61841 0.959738
458 2 0.299138 0.37846 0.445283
459 2 0.213611 0.473046 0.499501
460 2 0.397223 0.467023 0.156005
461 2 0.531673 0.837114 0.861593
462 2 0.819276 0.614788 0.33836
463 1 0.646289 0.485819 0.552918
464 2 0.375643 0.758304 0.208312
465 2 0.064529 0.0641949 0.895928
466 2 0.869326 0.314658 0.415364
467 1 0.459401 0.519081 0.326906
468 2 0.794118 0.878294 0.860987
469 2 0.960155 0.589263 0.151697
470 2 0.19201 0.959045 0.425106
471 2 0.0668434 0.325222 0.148177
472 2 0.854821 0.964889 0.268808
473 1 0.0665419 0.313906 0.617644
474 1 0.857815 0.769721 0.988757
475 1 0.808172 0.00421487 0.96833
476 2 0.102504 0.151824 0.832472
477 2 0.144562 0.86417 0.392609
478 2 0.0682953 0.197332 0.653205
479 2 0.490647 0.795699 0.873731
480 2 0.223651 0.156937 0.761327
481 2 0.230746 0.500987 0.822335
482 2 0.611729 0.671994 0.742745
483 2 0.00919666 0.550634 0.957737
484 1 0.886294 0.600359 0.240518
485 1 0.406411 0.00726288 0.697203
486 2 0.573667 0.867454 0.831494
487 2 0.208672 0.890241 0.581665
488 2 0.118152 0.346825 0.645041
489 2 0.232486 0.590644 0.640666
490 2 0.59236 0.25455 0.079236
491 2 0.145814 0.239084 0.811243
492 2 0.0748018 0.847585 0.488325
493 2 0.746831 0.677117 0.797266
494 2 0.757786 0.20576 0.462604
495 2 0.317558 0.358966 0.819577
496 2 0.477576 0.151011 0.14978
497 2 0.801789 0.742215 0.260692
498 1 0.643923 0.668814 0.900657
499 2 0.402393 0.216681 0.709153
500 2 0.051432 0.252583 0.597008
501 1 0.0471301 0.633913 0.197182
502 2 0.398637 0.885484 0.335952
503 2 0.883897 0.896026 0.713745
504 1 0.424815 0.903336 0.197646
505 2 0.549019 0.544346 0.241836
506 2 0.491257 0.207792 0.519769
507 2 0.0583316 0.438434 0.108716
508 2 0.16821 0.0200646 0.0198319
509 1 0.713565 0.568647 0.0859289
510 2 0.198851 0.277317 0.252062
511 2 0.178009 0.485176 0.355945
512 2 0.0470014 0.746154 0.051328
513 1 0.0767418 0.221341 0.276287
514 2 0.395903 0.124653 0.0950588
515 1 0.529354 0.845494 0.698939
516 2 0.733862 0.440377 0.110178
517 1 0.320229 0.75823 0.496359
518 2 0.851316 0.632804 0.000315493
519 2 0.4385 0.713609 0.718822
520 2 0.0521232 0.815852 0.534291
521 2 0.920721 0.742932 0.227292
522 2 0.64462 0.574535 0.895374
523 2 0.701978 0.105296 0.35001
524 2 0.745635 0.77691 0.306537
525 2 0.56728 0.450398 0.112977
526 2 0.2872 0.326564 0.276554
527 2 0.339622 0.0604558 0.876839
528 1 0.275721 0.228058 0.792125
529 2 0.31356 0.602145 0.893586
530 2 0.566624 0.186729 0.0248375
531 2 0.777312 0.924974 0.52634
532 2 0.174682 0.393455 0.346834
533 2 0.828917 0.69599 0.319844
534 1 0.651584 0.415902 0.272292
535 2 0.700397 0.503525 0.729672
536 1 0.185223 0.217975 0.00310865
537 1 0.982206 0.724663 0.152367
538 2 0.981847 0.614646 0.294003
539 2 0.987389 0.0264696 0.874818
540 2 0.908874 0.185214 0.615831
541 1 0.678621 0.620729 0.599486
542 2 0.0794625 0.38909 0.275063
543 1 0.0503534 0.996502 0.764403
544 1 0.825757 0.442236 0.0290818
545 2 0.243858 0.938115 0.925651
546 2 0.807394 0.498677 0.0410416
547 2 0.889987 0.737608 0.156505
548 2 0.748619 0.257507 0.127644
549 2 0.223651 0.462125 0.296496
550 2 0.168044 0.525297 0.856643
551 1 0.301551 0.281781 0.831465
552 2 0.946593 0.0369418 0.13121
553 2 0.635186 0.182155 0.817934
554 2 0.449606 0.607617 0.936522
555 1 0.466353 0.928702 0.528673
556 2 0.485476 0.874267 0.249394
557 2 0.8841 0.270654 0.878892
558 1 0.65263 0.287188 0.517749
559 2 0.215622 0.252448 0.709697
560 2 0.281465 0.475454 0.0303063
561 2 0.247423 0.230551 0.555366
562 1 0.86716 0.860127 0.5926
563 2 0.935755 0.0497819 0.68557
564 2 0.0081352 0.844794 0.351581
565 2 0.297297 0.5515 0.102756
566 2 0.803365 0.0344659 0.0424752
567 2 0.448667 0.0405501 0.449552
568 2 0.0147578 0.211776 0.309791
569 1 0.970791 0.832603 0.604222
570 2 0.929859 0.398085 0.385244
571 2 0.975006 0.819538 0.192551
572 2 0.941031 0.319425 0.0372476
573 2 0.741981 0.55259 0.26802
574 2 0.81065 0.693292 0.928778
575 1 0.976587 0.845372 0.226044
576 2 0.635745 0.714407 0.298877
577 2 0.202434 0.43395 0.565698
578 1 0.0750811 0.210784 0.784052
579 2 0.546402 0.608364 0.576951
580 1 0.936725 0.639385 0.223883
581 2 0.900218 0.475217 0.609905
582 2 0.029396 0.592911 0.266855
583 1 0.106705 0.204433 0.135888
584 2 0.774923 0.851146 0.264978
585 1 0.787005 0.989994 0.84046
586 2 0.865389 0.946883 0.994572
587 2 0.523597 0.732157 0.783118
588 2 0.00109506 0.139986 0.777193
589 1 0.697344 0.447888 0.635491
590 1 0.509617 0.834565 0.109722
591 1 0.899738 0.902697 0.460638
592 2 0.563399 0.0189744 0.950061
593 2 0.513715 0.719329 0.333377
594 1 0.707337 0.175949 0.451345
595 1 0.193069 0.416611 0.999565
596 2 0.550155 0.306982 0.734482
597 1 0.895232 0.617981 0.141729
598 2 0.531673 0.630784 0.732324
599 2 0.358884 0.0465791 0.88964
600 2 0.275895 0.948566 0.185149
601 2 0.718933 0.852165 0.358992
602 1 0.645261 0.353988 0.371448
603 2 0.328803 0.951009 0.307316
604 1 0.32908 0.890015 0.295164
605 2 0.0913083 0.652152 0.591768
606 2 0.859536 0.41349 0.299908
607 1 0.613315 0.804212 0.296553
608 2 0.26642 0.548817 0.860048
609 2 0.66397 0.569014 0.968299
610 2 0.950719 0.0311604 0.726713
611 2 0.958321 0.854126 0.539356
612 1 0.484968 0.292679 0.830326
613 2 0.223259 0.266149 0.778818
614 1 0.55404 0.365718 0.398906
615 2 0.926356 0.90444 0.120457
616 1 0.768754 0.237485 0.601282
617 2 0.963599 0.150304 0.982454
618 2 0.182478 0.200371 0.728881
619 2 0.573985 0.792448 0.288156
620 2 0.0770719 0.448723 0.951434
621 2 0.228526 0.941804 0.81271
622 2 0.924993 0.388773 0.78968
623 1 0.160322 0.851981 0.958161
624 2 0.0794327 0.0844198 0.441344
625 2 0.000966784 0.8329 0.0769266
626 2 0.964873 0.399696 0.295171
627 2 0.870671 0.655848 0.207114
628 2 0.746509 0.495146 0.0525569
629 2 0.0709976 0.279744 0.154601
630 1 0.10332 0.265199 0.575354
631 2 0.528071 0.242775 0.394312
632 2 0.542369 0.516019 0.140827
633 2 0.734181 0.580299 0.028997
634 2 0.358542 0.197284 0.24241
635 2 0.746116 0.217153 0.494366
636 2 0.578233 0.722815 0.25459
637 2 0.319219 0.958068 0.169518
638 1 0.0444831 0.393578 0.795496
639 2 0.242195 0.409479 0.0459123
640 2 0.0951887 0.297023 0.867636
641 2 0.782803 0.683007 0.63575
642 2 0.512537 0.810087 0.740142
643 2 0.693996 0.821227 0.339129
644 2 0.476525 0.329023 0.955759
645 1 0.459124 0.896657 0.298237
646 2 0.188848 0.854987 0.961544
647 1 0.262077 0.436407 0.00512892
648 2 0.856675 0.188648 0.104535
649 2 0.721802 0.36299 0.0969236
650 2 0.972116 0.277197 0.647801
651 2 0.923156 0.207127 0.640405
652 2 0.418144 0.955103 0.293273
653 2 0.455634 0.538336 0.850146
654 1 0.0265254 0.0274303 0.957482
655 2 0.188388 0.0850636 0.486973
656 2 0.650229 0.427331 0.71998
657 2 0.658782 0.474512 0.306328
658 2 0.458871 0.324201 0.769154
659 2 0.608526 0.963555 0.185951
660 2 0.628618 0.952123 0.323446
661 1 0.971359 0.758042 0.228266
662 2 0.639713 0.651987 0.274336
663 2 0.557324 0.747051 0.595043
664 1 0.81964 0.994401 0.154579
665 2 0.287093 0.401069 0.0947311
666 2 0.803492 0.7645 0.727769
667 2 0.635635 0.73933 0.358528
668 2 0.970208 0.777016 0.605498
669 2 0.747452 0.0538871 0.383381
670 1 0.961622 0.913953 0.0476082
671 2 0.240916 0.556431 0.497088
672 1 0.215657 0.899253 0.931352
673 2 0.427704 0.032255 0.669646
674 2 0.614823 0.709389 0.240742
675 2 0.818103 0.185766 0.0387292
676 1 0.677245 0.640621 0.495385
677 2 0.405366 0.84944 0.0984756
678 2 0.636697 0.85398 0.496329
679 1 0.406487 0.888844 0.460484
680 2 0.223448 0.150741 0.892235
681 1 0.307712 0.334199 0.494789
682 1 0.101372 0.73083 0.0179986
683 2 0.871268 0.228331 0.449101
684 2 0.753955 0.364928 0.723171
685 2 0.506073 0.424018 0.693525
686 2 0.975624 0.611314 0.260456
687 1 0.100185 0.177777 0.858767
688 2 0.839413 0.434403 0.519514
689 2 0.0751872 0.0554626 0.846669
690 2 0.331678 0.300249 0.550069
691 2 0.11417 0.720207 0.704559
692 1 0.727892 0.432059 0.506832
693 2 0.15913 0.333616 0.454783
694 2 0.564561 0.552864 0.84939
695 1 0.947154 0.403201 0.165315
696 2 0.767743 0.312648 0.536332
697 2 0.382708 0.597958 0.600035
698 2 0.734328 0.827088 0.00714836
699 2 0.118885 0.647948 0.269489
700 1 0.977752 0.19276 0.595922
701 2 0.214818 0.907868 0.43339
702 2 0.263033 0.639925 0.305149
703 2 0.161479 0.727155 0.602782
704 2 0.810625 0.589768 0.422623
705 2 0.254346 0.630612 0.0324378
706 2 0.479332 0.214756 0.247573
707 2 0.844276 0.663157 0.0145613
708 1 0.706298 0.322572 0.325366
709 2 0.484151 0.924975 0.834452
710 2 0.0700739 0.194135 0.179099
711 2 0.0586274 0.756428 0.281251
712 1 0.474249 0.222046 0.0736905
713 2 0.0169776 0.936548 0.992154
714 1 0.596393 0.258967 0.852445
715 2 0.618787 0.582663 0.601989
716 1 0.753207 0.37041 0.470331
717 2 0.730344 0.229536 0.654824
718 2 0.69118 0.576502 0.289557
719 2 0.729272 0.18796 0.377485
720 2 0.0273212 0.196899 0.881824
721 2 0.346455 0.558881 0.065711
722 1 0.885513 0.102136 0.189179
723 2 0.675486 0.350778 0.172127
724 2 0.276235 0.037731 0.308588
725 2 0.942944 0.415246 0.854674
726 2 0.694775 0.59188 0.209223
727 1 0.440626 0.157138 0.448344
728 1 0.697196 0.599057 0.0164823
729 1 0.946059 0.67387 0.614786
730 1 0.0576423 0.824935 0.368583
731 2 0.380379 0.985053 0.682519
732 1 0.946797 0.738569 0.285297
733 2 0.529118 0.180767 0.910021
734 2 0.839881 0.0948764 0.0570994
735 2 0.704236 0.48353 0.392122
736 1 0.309475 0.0340955 0.805974
737 2 0.653696 0.284692 0.304651
738 2 0.95331 0.853624 0.270654
739 2 0.817147 0.228648 0.420614
740 2 0.764826 0.651728 0.90252
741 2 0.657856 0.138447 0.447813
742 1 0.453746 0.212469 0.0184963
743 2 0.0261754 0.392297 0.270818
744 2 0.590523 0.63915 0.0805683
745 2 0.892605 0.221634 0.184376
746 1 0.481212 0.806911 0.827777
747 2 0.225019 0.715175 0.125115
748 2 0.297267 0.874181 0.84601
749 2 0.946996 0.595399 0.7833
750 2 0.20886 0.0450355 0.558987
751 2 0.652905 0.982833 0.494903
752 2 0.838022 0.881824 0.530722
753 2 0.0518643 0.642616 0.0955162
754 2 0.527151 0.471183 0.459885
755 2 0.484905 0.968399 0.257053
756 2 0.281101 0.362873 0.299127
757 2 0.952558 0.233269 0.0566543
758 2 0.218076 0.827129 0.945681
759 2 0.42147 0.297808 0.0490512
760 1 0.092725 0.819636 0.0585265
761 2 0.62988 0.236967 0.482062
762 2 0.0571024 0.270923 0.666341
763 1 0.228574 0.863785 0.844855
764 2 0.93891 0.396947 0.347155
765 2 0.482129 0.759913 0.851971
766 2 0.759053 0.711707 0.100332
767 2 0.945178 0.574104 0.255629
768 2 0.998425 0.62475 0.236554
769 2 0.717387 0.346297 0.155004
770 2 0.972854 0.428154 0.304883
771 2 0.610459 0.762453 0.302212
772 2 0.458123 0.458128 0.840483
773 1 0.859092 0.516969 0.294356
774 2 0.215054 0.512058 0.332455
775 2 0.87226 0.633496 0.5236
776 2 0.378213 0.117186 0.375818
777 1 0.968674 0.95389 0.0940253
778 2 0.260629 0.420582 0.668563
779 2 0.936756 0.391724 0.417253
780 1 0.238126 0.396275 0.952032
781 2 0.783684 0.0733721 0.458849
782 2 0.723851 0.954982 0.646431
783 1 0.133282 0.709256 0.664817
784 2 0.645153 0.0484367 0.0870277
785 2 0.693081 0.33875 0.0529907
786 1 0.663869 0.443998 0.185558
787 2 0.312256 0.251004 0.627197
788 2 0.449668 0.937664 0.310647
789 2 0.21537 0.523329 0.437299
790 2 0.44193 0.406289 0.555478
791 1 0.0655587 0.708068 0.0884095
792 2 0.898012 0.591295 0.153355
793 2 0.644 0.706367 0.840511
794 2 0.318207 0.616155 0.119903
795 2 0.336019 0.962338 0.949012
796 2 0.157873 0.86068 0.81901
797 2 0.30434 0.183345 0.665775
798 2 0.780307 0.327365 0.145517
799 2 0.876689 0.662649 0.0313136
800 2 0.811061 0.0885292 0.840878
801 2 0.904583 0.350669 0.38936
802 2 0.153221 0.887942 0.523589
803 2 0.0648893 0.4261 0.937007
804 2 0.98537 0.405594 0.827033
805 2 0.0647852 0.792237 0.143204
806 1 0.108516 0.254897 0.168868
807 2 0.167484 0.192078 0.801663
808 2 0.323346 0.270611 0.67644
809 1 0.420885 0.282799 0.0996615
810 2 0.420256 0.167966 0.118177
811 2 0.834835 0.542172 0.162875
812 2 0.751609 0.847514 0.767812
813 1 0.306073 0.472377 0.793756
814 2 0.626973 0.369974 0.898084
815 2 0.332239 0.687594 0.40002
816 1 0.355386 0.990221 0.714936
817 1 0.180783 0.377918 0.830195
818 2 0.210096 0.579988 0.393075
819 1 0.20699 0.600111 0.94475
820 1 0.435712 0.762699 0.214447
821 2 0.907051 0.592629 0.297175
822 2 0.670615 0.163387 0.514944
823 1 0.687621 0.708236 0.838005
824 2 0.480785 0.0208678 0.62557
825 2 0.579223 0.295443 0.346003
826 2 0.0782751 0.481606 0.923603
827 1 0.842716 0.548733 0.655872
828 2 0.505419 0.901378 0.042731
829 2 0.326488 0.49077 0.253232
830 2 0.355469 0.937589 0.496469
831 1 0.998215 0.0756743 0.0396841
832 2 0.834483 0.748742 0.6894
833 1 0.70505 0.651077 0.883503
834 2 0.63869 0.645225 0.767913
835 2 0.0643881 0.442291 0.895942
836 2 0.435553 0.0473484 0.124604
837 2 0.290123 0.469428 0.166502
838 2 0.918599 0.656156 0.513871
839 2 0.502875 0.217853 0.239218
840 2 0.920929 0.0925232 0.383156
841 2 0.133432 0.936354 0.41684
842 2 0.233813 0.937289 0.566539
843 2 0.936137 0.865088 0.395477
844 2 0.815545 0.929822 0.867191
845 2 0.489101 0.27772 0.159137
846 2 0.432135 0.671101 0.480402
847 2 0.340918 0.941754 0.333887
848 2 0.14398 0.0743464 0.9461
849 1 0.678872 0.179496 0.741063
850 2 0.436189 0.998442 0.225615
851 2 0.784764 0.169576 0.173204
852 2 0.580221 0.413765 0.610498
853 1 0.774946 0.772329 0.157464
854 2 0.422475 0.218143 0.513213
855 2 0.376675 0.393016 0.192584
856 2 0.0289256 0.22006 0.789418
857 2 0.24139 0.668037 0.0699257
858 2 0.42511 0.642834 0.723466
859 2 0.771224 0.622425 0.534883
860 2 0.53456 0.67527 0.83652
861 2 0.809074 0.196993 0.837104
862 2 0.652206 0.835408 0.512796
863 2 0.080183 0.072618 0.555002
864 2 0.966513 0.41538 0.0714217
865 2 0.410727 0.945407 0.246791
866 2 0.30269 0.267779 0.320163
867 2 0.903336 0.593433 0.088662
868 2 0.174732 0.0621891 0.53761
869 2 0.442956 0.992827 0.457008
870 2 0.301772 0.299968 0.601772
871 2 0.422733 0.843326 0.221195
872 2 0.555113 0.945889 0.93559
873 2 0.787802 0.489485 0.81732
874 2 0.0840271 0.960808 0.434079
875 2 0.473969 0.598075 0.795889
876 2 0.658004 0.781189 0.255722
877 2 0.711808 0.507131 0.158804
878 2 0.3434 0.0273289 0.895905
879 2 0.583382 0.526165 0.671183
880 2 0.427237 0.362677 0.491693
881 2 0.261467 0.148779 0.362766
882 1 0.520596 0.595964 0.845553
883 1 0.022449 0.458327 0.597829
884 2 0.693038 0.534344 0.340996
885 2 0.548819 0.659028 0.535693
886 2 0.537507 0.403517 0.343177
887 1 0.470825 0.885123 0.639371
888 2 0.746892 0.191925 0.659942
889 2 0.687087 0.265435 0.717833
890 1 0.778638 0.560781 0.332589
891 2 0.838701 0.662932 0.696691
892 2 0.267298 0.29873 0.718154
893 2 0.954822 0.0240299 0.889414
894 2 0.246679 0.609196 0.705391
895 1 0.717136 0.944867 0.451179
896 2 0.940316 0.0731653 0.0642509
897 2 0.637995 0.810867 0.489006
898 2 0.281221 0.452952 0.623998
899 2 0.70737 0.14673 0.498664
900 2 0.51165 0.862263 0.804089
901 2 0.10524 0.197292 0.829076
902 2 0.84336 0.735545 0.459679