ITEM: TIMESTEP
700
ITEM: NUMBER OF ATOMS
1000
ITEM: BOX BOUNDS xy xz yz pp pp pp
0.0000000000000000e+00 1.3572088000000001e+01 0.0000000000000000e+00
0.0000000000000000e+00 1.3572088000000001e+01 0.0000000000000000e+00
0.0000000000000000e+00 1.3572088000000001e+01 0.0000000000000000e+00
ITEM: ATOMS id type xs ys zs
1 2 0.508678 0.955859 0.0175842
2 2 0.102637 0.409087 0.0784522
3 1 0.54509 0.793041 0.217134
4 2 0.0678812 0.0503061 0.0670495
5 2 0.78661 0.698868 0.665175
6 1 0.964183 0.389719 0.632483
7 2 0.750476 0.4065 0.605343
8 2 0.942825 0.494072 0.106864
9 2 0.222764 0.938345 0.495091
10 2 0.5651 0.718147 0.127385
11 2 0.634739 0.153274 0.886329
12 2 0.675523 0.406392 0.620794
13 2 0.329198 0.402908 0.466141
14 1 0.00242672 0.0575975 0.104793
15 2 0.297411 0.0789944 0.0943642
16 2 0.2961 0.00332893 0.0899975
17 1 0.846181 0.336848 0.326241
18 2 0.805888 0.396225 0.622076
19 2 0.403241 0.556985 0.310889
20 2 0.18025 0.321564 0.690567
21 2 0.990199 0.724751 0.486766
22 2 0.214688 0.536133 0.287926
23 2 0.894014 0.10692 0.0732896
24 2 0.749877 0.486969 0.944986
25 1 0.776629 0.539841 0.0192419
26 2 0.848626 0.810381 0.364239
27 2 0.169874 0.662678 0.0654458
28 2 0.278403 0.122322 0.411953
29 2 0.924038 0.262905 0.0463464
30 2 0.27797 0.649725 0.756126
31 1 0.749506 0.698742 0.348299
32 1 0.508524 0.807612 0.267577
33 1 0.157143 0.300291 0.611938
34 2 0.275222 0.546734 0.98441
35 2 0.804209 0.596804 0.14233
36 1 0.0272851 0.174978 0.674218
37 2 0.897993 0.560985 0.405977
38 2 0.479907 0.360236 0.0821765
39 2 0.408139 0.151991 0.13043
40 2 0.525036 0.241512 0.915692
41 2 0.210116 0.751318 0.499224
42 2 0.568189 0.799829 0.264532
43 2 0.527575 0.517021 0.537974
44 2 0.860722 0.700262 0.665541
45 2 0.210119 0.678396 0.455141
46 1 0.295439 0.230928 0.454304
47 2 0.712595 0.49172 0.374185
48 2 0.549593 0.664241 0.500248
49 2 0.728218 0.605489 0.255264
50 2 0.613292 0.616985 0.149591
51 2 0.546445 0.805911 0.461483
52 2 0.95669 0.413067 0.109902
53 2 0.22824 0.252092 0.150175
54 2 0.105274 0.5839 0.280608
55 1 0.0043589 0.260751 0.0265695
56 1 0.698935 0.193436 0.989976
57 2 0.575951 0.248558 0.504133
58 2 0.652125 0.259402 0.826888
59 2 0.798809 0.931063 0.519678
60 2 0.782799 0.0628592 0.161069
61 2 0.6633 0.513194 0.983212
62 2 0.079139 0.191096 0.0428445
63 2 0.655597 0.970949 0.74717
64 2 0.846435 0.806972 0.814566
65 2 0.440519 0.991573 0.355326
66 1 0.766605 0.377713 0.249674
67 2 0.364207 0.275202 0.582643
68 2 0.47444 0.084046 0.756135
69 1 0.0156408 0.235693 0.678994
70 2 0.36316 0.989575 0.634985
71 1 0.576204 0.744454 0.847933
72 2 0.882356 0.268976 0.712337
73 2 0.840434 0.363918 0.827753
74 2 0.564901 0.128859 0.862769
75 2 0.51121 0.584962 0.216283
76 2 0.256817 0.817416 0.829429
77 1 0.704656 0.439437 0.00954277
78 2 0.320869 0.673165 0.122518
79 2 0.432569 0.283577 0.685784
80 2 0.858753 0.876208 0.264086
81 2 0.405864 0.0131953 0.790009
82 2 0.938884 0.832633 0.436352
83 2 0.859584 0.793799 0.173449
84 2 0.110455 0.220039 0.234557
85 1 0.320187 0.278239 0.829248
86 2 0.859123 0.326684 0.829866
87 2 0.230075 0.266201 0.0812043
88 2 0.762444 0.0475717 0.852235
89 2 0.972319 0.521543 0.569083
90 2 0.49859 0.816975 0.476668
91 2 0.154367 0.270837 0.38447
92 2 0.773783 0.889324 0.432608
93 2 0.735235 0.122866 0.980784
94 1 0.116267 0.698523 0.081078
95 2 0.571305 0.866643 0.972919
96 2 0.201828 0.54727 0.694
97 2 0.224224 0.263471 0.0293101
98 2 0.480168 0.88847 0.625489
99 2 0.874814 0.791196 0.211172
100 2 0.0567324 0.694819 0.0890025
101 1 0.107481 0.746594 0.0980185
102 2 0.382134 0.975897 0.865746
103 2 0.838324 0.431752 0.0679683
104 2 0.69419 0.161338 0.446363
105 2 0.246918 0.598995 0.793691
106 2 0.727971 0.365472 0.192639
107 2 0.770242 0.604392 0.992776
108 2 0.558102 0.297671 0.591793
109 2 0.979913 0.735432 0.379536
110 2 0.411982 0.503414 0.149951
111 2 0.15195 0.27023 0.214748
112 1 0.373721 0.125709 0.0060276
113 1 0.720199 0.513582 0.935396
114 2 0.517733 0.167096 0.646206
115 2 0.938875 0.6588 0.471603
116 2 0.965783 0.45354 0.775661
117 2 0.558387 0.607005 0.46421
118 2 0.314633 0.195726 0.468667
119 2 0.369932 0.468429 0.0883578
120 2 0.626691 0.833178 0.337298
121 2 0.202547 0.989262 0.0642225
122 2 0.570855 0.116409 0.591085
123 2 0.167063 0.639646 0.283895
124 2 0.904491 0.869333 0.543694
125 1 0.516478 0.753449 0.475524
126 2 0.478715 0.449271 0.870194
127 2 0.457753 0.0400006 0.468482
128 2 0.486336 0.715712 0.506665
129 1 0.217207 0.649623 0.507377
130 2 0.306834 0.341786 0.637539
131 2 0.456241 0.188448 0.574438
132 2 0.547356 0.952661 0.630461
133 2 0.345746 0.381416 0.869196
134 2 0.622892 0.978899 0.309767
135 2 0.00906459 0.85399 0.713722
136 2 0.129766 0.476441 0.926968
137 1 0.850434 0.752015 0.187185
138 2 0.376094 0.255665 0.656114
139 2 0.953445 0.094189 0.981178
140 1 0.997325 0.640166 0.992147
141 2 0.556248 0.848044 0.233934
142 2 0.667994 0.0302379 0.173159
143 2 0.0776239 0.496175 0.853134
144 2 0.173687 0.0230069 0.583719
145 2 0.381878 0.54677 0.4892
146 2 0.154996 0.490099 0.948668
147 1 0.351966 0.334271 0.852874
148 1 0.0935837 0.654383 0.0275748
149 2 0.78109 0.443806 0.0501276
150 1 0.472547 0.722688 0.567984
151 2 0.0801283 0.371962 0.798129
152 2 0.516551 0.653051 0.427077
153 1 0.49582 0.797356 0.152896
154 1 0.248799 0.895849 0.293671
155 2 0.516727 0.431756 0.253173
156 2 0.0916947 0.135532 0.685512
157 2 0.767973 0.592575 0.764661
158 2 0.232517 0.276276 0.926086
159 2 0.10877 0.660249 0.667243
160 2 0.988322 0.896129 0.978497
161 2 0.440394 0.987072 0.629244
162 2 0.543563 0.0755858 0.142687
163 2 0.883029 0.359243 0.914535
164 2 0.0845583 0.980757 0.406066
165 2 0.60577 0.0523435 0.960643
166 2 0.375586 0.88894 0.481028
167 2 0.436246 0.768164 0.258588
168 2 0.618125 0.200645 0.665502
169 2 0.0862172 0.373265 0.343549
170 2 0.0446821 0.969518 0.0151907
171 2 0.118447 0.0802869 0.806329
172 2 0.571874 0.402089 0.590354
173 1 0.38606 0.455911 0.28316
174 2 0.385092 0.613432 0.300379
175 2 0.928866 0.708926 0.979648
176 2 0.0850392 0.395373 0.780154
177 1 0.367722 0.53112 0.42779
178 2 0.946833 0.856569 0.132441
179 2 0.756049 0.310176 0.854798
180 2 0.381292 0.109787 0.339913
181 2 0.743713 0.816735 0.786844
182 2 0.377646 0.784338 0.481493
183 2 0.528485 0.200894 0.442414
184 2 0.93365 0.244973 0.0573665
185 2 0.228618 0.262512 0.653579
186 2 0.872709 0.497581 0.344226
187 2 0.790098 0.809875 0.86759
188 1 0.997161 0.784536 0.465689
189 2 0.814942 0.793702 0.752326
190 2 0.541199 0.713432 0.494783
191 2 0.470949 0.370749 0.881929
192 2 0.415099 0.58992 0.617532
193 2 0.95242 0.224138 0.0303147
194 2 0.874179 0.82388 0.73843
195 2 0.168012 0.974985 0.188306
196 2 0.364445 0.0464701 0.01691
197 2 0.639338 0.730649 0.360207
198 2 0.722027 0.506023 0.672007
199 2 0.216255 0.869564 0.847258
200 1 0.12968 0.221316 0.68718
201 2 0.4773 0.967539 0.216309
202 2 0.653506 0.876468 0.464757
203 2 0.192339 0.848739 0.551204
204 2 0.700166 0.0665762 0.316391
205 2 0.900384 0.834558 0.0828325
206 2 0.564411 0.137704 0.617051
207 2 0.983072 0.284688 0.810004
208 2 0.403178 0.918457 0.815559
209 2 0.428372 0.174516 0.27751
210 2 0.235551 0.738911 0.699895
211 2 0.3834 0.444888 0.0126135
212 1 0.0728847 0.0519944 0.760658
213 2 0.0685616 0.628734 0.71096
214 2 0.863131 0.40637 0.0632384
215 2 0.606968 0.654287 0.691483
216 2 0.189514 0.928497 0.472809
217 2 0.733954 0.534624 0.694636
218 2 0.0288047 0.8818 0.749486
219 2 0.302914 0.234713 0.860156
220 2 0.866312 0.938031 0.238632
221 2 0.0908506 0.421529 0.36866
222 2 1.00178 0.0629935 0.864593
223 2 0.786232 0.8338 0.777227
224 2 0.166728 0.468425 0.500349
225 1 0.81581 0.471404 0.0920398
226 2 0.713808 0.0925267 0.262688
227 2 0.201758 0.925196 0.141416
228 2 0.13411 0.571263 0.856264
229 2 0.764832 0.663831 0.302343
230 1 0.565965 0.841806 0.387221
231 2 0.0983921 0.554817 0.556059
232 2 0.317958 0.902348 0.046989
233 1 0.415977 0.154228 0.652781
234 2 0.928226 0.298898 0.485299
235 2 0.420396 0.46202 0.030792
236 2 0.358731 0.319463 0.767864
237 2 0.861577 0.29324 0.418258
238 1 0.255935 0.274136 0.769368
239 1 0.620232 0.469977 0.959125
240 2 0.618298 0.411923 0.752666
241 2 0.721346 0.522666 0.4575
242 1 0.32352 0.807808 0.835784
243 1 0.628786 0.104323 0.28155
244 2 0.487778 0.825179 0.525358
245 2 0.617712 0.845619 0.782003
246 1 0.257686 0.0366283 0.983868
247 2 0.972579 0.645976 0.820654
248 2 0.199505 0.522164 0.395283
249 2 0.628402 0.557516 0.726198
250 2 0.831171 0.0300953 0.414268
251 2 0.680867 0.0405185 0.0387446
252 2 0.122126 0.67851 0.165768
253 2 0.524686 0.23056 0.37338
254 2 0.440275 0.478723 0.981727
255 2 0.2368 0.483846 0.562419
256 2 0.982628 0.461523 0.568371
257 2 0.769839 0.851849 0.743516
258 2 0.503848 0.231134 0.223856
259 1 0.365753 0.284091 0.705455
260 2 0.240233 0.835704 0.323575
261 1 0.788518 0.355911 0.793931
262 2 0.6195 0.132989 0.575107
263 2 0.948823 0.457757 0.140503
264 2 0.696226 0.193842 0.248734
265 1 0.334929 0.344285 0.147995
266 2 0.271326 0.639506 0.164505
267 2 0.271281 0.220786 0.231836
268 1 0.502432 0.852416 0.368564
269 1 0.937906 0.887607 0.272971
270 2 0.961149 0.494992 0.568453
271 2 0.654162 0.308239 0.549635
272 2 0.818135 0.738657 0.00412414
273 1 0.0224017 0.55749 0.196396
274 2 0.0554481 0.566913 0.963553
275 2 0.580056 0.443695 0.917516
276 2 0.145595 0.397347 0.783271
277 2 0.0737284 0.236492 0.662869
278 2 0.398347 0.780952 0.0922941
279 2 0.605551 0.677407 0.195187
280 1 0.468889 0.417881 0.311382
281 2 0.910211 0.580229 0.813745
282 2 0.538252 0.674123 0.357087
283 2 0.666266 0.429155 0.721439
284 1 0.511404 0.339616 0.0345811
285 2 0.641252 0.0129839 0.896917
286 2 0.75188 0.665051 0.110438
287 1 0.124291 0.281588 0.00339927
288 2 0.669517 0.962339 0.437936
289 2 0.0907013 0.22634 0.612607
290 2 0.583878 0.60547 0.180637
291 2 0.619117 0.971631 0.633256
292 2 0.551335 0.031536 0.593607
293 2 0.929008 0.620062 0.84632
294 2 0.519098 0.843421 0.159622
295 2 0.712658 0.447409 0.643717
296 2 0.134059 0.559562 0.394775
297 2 0.540983 0.0956728 0.411458
298 2 0.163798 0.701035 0.446994
299 1 0.341383 0.965218 0.529555
300 2 0.256857 0.758459 0.93626
301 2 0.519459 0.709386 0.521522
302 2 0.740062 0.0223681 0.534354
303 2 0.0631133 0.727098 0.33394
304 1 0.997126 0.786544 0.270187
305 2 0.329416 0.91264 0.868589
306 2 0.341401 0.917366 0.138511
307 2 0.6202 0.184629 0.925073
308 2 0.187009 0.296677 0.164218
309 2 0.873279 0.955351 0.450919
310 2 0.0875196 0.478342 0.198784
311 2 0.70848 0.107514 0.0715171
312 2 0.241735 0.319429 0.564022
313 2 0.609903 0.567343 0.467611
314 2 0.798459 0.731968 0.117711
315 2 0.310399 0.980721 0.200986
316 2 0.315917 0.609337 0.652814
317 2 0.799079 0.00368226 0.0391593
318 2 0.457071 0.81094 0.505297
319 2 0.05888 0.749382 0.140758
320 2 0.266934 0.268516 0.878541
321 2 0.461427 0.323091 0.0961205
322 2 0.536726 0.69779 0.276619
323 2 0.145487 0.302397 0.222846
324 2 0.734009 0.390277 0.518554
325 2 0.661976 0.146603 0.85145
326 2 0.485398 0.729841 0.614371
327 2 0.00701443 0.914663 0.47215
328 2 0.459687 0.551865 0.0716706
329 1 0.579722 0.751674 0.181887
330 2 0.0440794 0.42716 0.08763
331 2 0.394941 0.747771 0.494747
332 2 0.432499 0.601323 0.324574
333 2 0.67827 0.162531 0.247291
334 2 0.493756 0.561805 0.926159
335 1 0.75184 0.933582 0.635921
336 2 0.831887 0.00193194 0.361884
337 2 0.487458 0.191232 0.41657
338 1 0.0247888 0.618005 0.894381
339 2 0.716481 0.644259 0.270117
340 2 0.939041 0.371563 0.748111
341 2 0.46932 0.912537 0.92813
342 2 0.291677 0.284274 -1.83061e-05
343 2 0.687466 0.772768 0.956801
344 1 0.0404024 0.128722 0.0690518
345 1 0.724916 0.998005 0.0899012
346 1 0.67937 0.337556 0.382449
347 1 0.249527 0.769526 0.718661
348 2 0.086945 0.506629 0.243374
349 2 0.390921 0.331828 0.916863
350 2 0.660893 0.816332 0.157116
351 2 0.54162 0.456309 0.551123
352 2 0.244067 0.665638 0.238236
353 1 0.342657 0.586364 0.271122
354 1 0.612376 0.0413088 0.0968386
355 2 0.143494 0.552648 0.467517
356 2 0.6991 0.493896 0.183528
357 2 0.762357 0.609434 0.644747
358 2 0.817622 0.3672 0.298106
359 2 0.418311 0.620435 0.50363
360 2 0.534582 0.828474 0.664513
361 1 0.778603 0.0319449 0.584326
362 2 0.251595 0.90853 0.755587
363 1 0.832014 0.487991 0.00930496
364 2 0.525738 0.740474 0.819167
365 2 0.0084078 0.734738 0.235019
366 2 0.634348 0.527221 0.599352
367 1 0.634598 0.910518 0.93369
368 1 0.293424 0.55182 0.430664
369 2 0.706884 0.991384 0.699918
370 2 0.0840899 0.300033 0.285878
371 2 0.480976 0.692808 0.0247737
372 1 0.0474408 0.916966 0.0122692
373 2 0.7109 0.0367126 0.613469
374 2 0.386398 0.66216 0.392586
375 2 0.542492 0.108038 0.376458
376 2 0.28063 0.609376 0.226809
377 2 0.391567 0.233525 0.737297
378 2 0.926817 0.542357 0.354088
379 2 0.38352 0.026353 0.391415
380 2 0.880734 0.964401 0.118282
381 2 0.0324638 0.760938 0.437917
382 2 0.178551 0.247011 0.123944
383 2 0.445778 0.204174 0.852398
384 1 0.459169 0.841118 0.0753509
385 2 0.389438 0.378792 0.683948
386 2 0.17917 0.361353 0.912109
387 1 0.0522799 0.916723 0.910424
388 2 0.208593 0.252346 0.533457
389 2 0.588218 0.397898 0.969387
390 2 0.452814 0.794199 0.842305
391 2 0.956441 0.380944 0.299721
392 1 0.0400948 0.193941 0.331243
393 2 0.817582 0.406071 0.18294
394 2 0.898892 0.959081 0.991549
395 2 0.565812 0.943359 0.958914
396 2 0.483113 0.543806 0.714144
397 2 0.619712 0.564217 0.502006
398 1 0.393734 0.405832 0.0376718
399 1 0.0314812 0.47309 0.126099
400 1 0.0779464 0.661199 0.429297
401 2 0.636288 0.0427994 0.248231
402 2 0.291588 0.939716 0.550386
403 2 0.278323 0.0336538 0.886913
404 2 0.272334 0.686661 0.488972
405 2 0.0762973 0.120152 0.674685
406 2 0.590639 0.993674 0.155788
407 2 0.726392 0.307705 0.625958
408 2 0.815661 0.215816 0.796242
409 2 0.722179 0.282795 0.471183
410 2 0.724148 0.206142 0.8455
411 2 0.669994 0.489543 0.973081
412 2 0.928813 0.998132 0.0748692
413 2 0.0692624 0.932702 0.45213
414 2 0.800445 0.187031 0.761175
415 2 0.362509 0.783644 0.408516
416 1 0.238263 0.797694 0.675359
417 2 0.573181 0.201499 0.732586
418 2 0.840488 0.900645 0.936909
419 2 0.30964 0.550625 0.374403
420 2 0.222278 0.606211 0.500336
421 1 0.663731 0.995552 0.114426
422 1 0.730818 0.680785 0.56702
423 2 0.766591 0.557119 0.760328
424 2 0.177275 0.226676 0.575333
425 1 0.55867 0.178296 0.193207
426 2 0.198916 0.100318 0.697873
427 2 0.794672 0.591383 0.796131
428 2 0.531275 0.20541 0.220368
429 2 0.898956 0.715399 0.458375
430 2 0.0384676 0.670772 0.626603
431 2 0.887849 0.17046 0.934328
432 1 0.520865 0.658992 0.528679
433 2 0.960364 0.532471 0.146403
434 1 0.21088 0.593798 0.450858
435 2 0.681967 0.999509 0.592751
436 2 0.606003 0.515443 0.422689
437 2 0.895889 0.436452 0.365416
438 2 0.821844 0.877052 0.241153
439 1 0.762896 0.371745 0.399143
440 2 0.583738 0.778566 0.379239
441 1 0.448768 0.765049 0.494983
442 1 0.924349 0.232655 0.441715
443 1 0.0843669 0.0853432 0.49278
444 2 0.282023 0.572917 0.347634
445 2 0.823616 0.10344 0.450321
446 2 0.276574 0.0175698 0.428823
447 2 0.41284 0.0629166 0.485514
448 2 0.729931 0.15244 0.934394
449 1 0.0974589 0.781589 0.261143
450 2 0.274898 0.603224 0.487704
451 2 0.249802 0.651671 0.130091
452 2 0.711279 0.080698 0.438028
453 1 0.667305 0.544584 0.918834
454 2 0.437165 0.726723 0.135118
455 2 0.391687 0.759979 0.0145305
456 2 0.918801 0.622586 0.0679439
457 2 0.634219 0.609757 0.988104
458 2 0.771108 0.4473 0.0146945
459 2 0.875161 0.996024 0.20292
460 2 0.034786 0.515486 0.24024
461 2 0.159276 0.766513 0.703713
462 2 0.547989 0.625231 0.140121
463 1 0.764261 0.341808 0.323374
464 2 0.0504795 0.688128 0.667714
465 2 0.293666 0.326597 0.782072
466 2 0.0464913 0.279627 0.400746
467 1 0.553452 0.577733 0.257931
468 2 0.66567 0.255364 0.206373
469 2 0.108628 0.408289 0.433458
470 2 0.235155 0.372893 0.11711
471 2 0.295517 0.149885 0.240334
472 2 0.185293 0.395522 0.779001
473 1 0.624056 0.0609434 0.57915
474 1 0.736606 0.8719 0.864869
475 1 0.8717 0.686948 0.147322
476 2 0.652728 0.486643 0.912248
477 2 0.307823 0.397387 0.087433
478 2 0.721024 0.336014 0.892027
479 2 0.372037 0.533734 0.169695
480 2 0.816268 0.1339 0.818681
481 2 0.691854 0.74821 0.584949
482 2 0.539516 0.358618 0.494348
483 2 0.640988 0.439018 0.135141
484 1 0.850034 0.460179 0.288988
485 1 0.613129 0.821241 0.299304
486 2 0.809817 0.0647594 0.377829
487 2 0.356474 0.0131753 0.179034
488 2 0.770031 0.967738 0.110676
489 2 0.0513972 0.0695298 0.0553315
490 2 0.986011 0.621683 0.863799
491 2 0.594585 0.50255 0.598942
492 2 0.0199987 0.130686 0.670679
493 2 0.915963 0.857004 0.511674
494 2 0.889067 0.33373 0.813123
495 2 0.329514 0.631936 0.187497
496 2 0.264233 0.617155 0.497978
497 2 0.657821 0.353551 0.533771
498 1 0.317522 0.350321 0.0409369
499 2 0.77322 0.233805 0.169549
500 2 0.658206 0.794443 0.916546
501 1 0.482065 0.224379 0.343494
502 2 0.842415 0.135694 0.0208821
503 2 0.123926 0.303383 0.94318
504 1 0.0666169 0.044936 0.0131317
505 2 0.808955 0.418917 0.660313
506 2 0.418959 0.706268 0.896835
507 2 0.628915 0.727945 0.529904
508 2 0.144495 0.651991 0.309668
509 1 0.959669 0.742555 0.425575
510 2 0.667774 0.165663 0.91608
511 2 0.303015 0.755527 0.522257
512 2 0.345701 0.908585 0.718279
513 1 0.758394 0.344986 0.160527
514 2 0.355562 0.272226 0.762781
515 1 0.650816 0.876421 0.0859511
516 2 0.891804 0.0153135 0.597573
517 1 0.496422 0.54484 0.43517
518 2 0.492512 0.588526 0.693345
519 2 0.782743 0.0674405 0.710353
520 2 0.422514 0.77438 0.555045
521 2 0.403378 0.660616 0.322218
522 2 0.304763 0.322589 0.692083
523 2 0.0964187 0.561635 0.444275
524 2 0.0895036 0.202873 0.693215
525 2 0.33951 0.0330038 0.480589
526 2 0.236663 0.790958 0.00757703
527 2 0.358904 0.397714 0.821852
528 1 0.239246 0.309287 0.694333
529 2 0.256243 0.206358 0.00517728
530 2 0.618932 0.943497 0.726978
531 2 0.404796 0.619383 0.934586
532 2 0.361759 0.424129 0.77661
533 2 0.451723 0.964355 0.497186
534 1 0.957516 0.63084 0.266995
535 2 0.403259 0.169144 0.345442
536 1 0.9804 0.583053 0.958222
537 1 0.00493607 0.832461 0.0216933
538 2 0.470689 0.922828 0.374308
539 2 0.626648 0.187685 0.858488
540 2 0.941127 0.71816 0.0374481
541 1 0.960142 0.55304 0.195179
542 2 0.474845 0.721028 0.288336
543 1 0.701296 0.812184 0.319829
544 1 0.55036 0.448088 0.599542
545 2 0.113956 0.728586 0.642537
546 2 0.547892 0.281916 0.71433
547 2 0.0454867 0.767073 0.347935
548 2 0.214986 0.918288 0.391399
549 2 0.936721 0.265419 0.275791
550 2 0.54386 0.801397 0.0518057
551 1 0.432751 0.427725 0.863117
552 2 0.892839 0.154528 0.993702
553 2 0.0614075 0.846662 0.0310703
554 2 0.659508 0.187572 0.840515
555 1 0.326524 0.993143 0.397771
556 2 0.233573 0.0210476 0.393593
557 2 0.00867077 0.150167 0.226656
558 1 0.616491 0.995526 0.56684
559 2 0.945095 0.481897 0.871294
560 2 0.26174 0.353809 0.583174
561 2 0.161216 0.170812 0.231151
562 1 0.441939 0.840495 0.0193705
563 2 0.153765 0.762069 0.500399
564 2 0.196984 0.28232 0.744303
565 2 0.670044 0.649755 0.482362
566 2 0.445763 0.0548286 0.221601
567 2 0.771405 0.429773 0.682069
568 2 0.109794 0.909452 0.837323
569 1 0.00690795 0.247762 0.517345
570 2 0.40589 0.818871 0.0727944
571 2 0.922861 0.442578 0.567804
572 2 0.955128 0.765846 0.10586
573 2 0.785604 0.44964 0.955427
574 2 0.308847 0.92881 0.29848
575 1 0.974319 0.825894 0.680078
576 2 0.517725 0.191173 0.351327
577 2 0.379729 0.303027 0.116846
578 1 0.0843078 0.707952 0.263027
579 2 0.899835 0.207101 0.0931618
580 1 0.0807306 0.94148 0.966655
581 2 0.112418 0.454484 0.0348716
582 2 0.252269 0.863347 0.985046
583 1 0.333299 0.498493 0.267816
584 2 0.976027 0.577578 0.27124
585 1 0.819343 0.0500734 0.978443
586 2 0.496384 0.681145 0.468205
587 2 0.477477 0.515468 0.572041
588 2 0.664711 0.807611 0.376135
589 1 0.909352 0.444235 0.321747
590 1 0.662535 0.117892 0.500525
591 1 0.340738 0.0777132 0.486671
592 2 0.348879 0.882034 0.245113
593 2 0.0606976 0.36149 0.0789211
594 1 0.682815 0.0285391 0.523935
595 1 0.600637 0.228902 0.831024
596 2 0.906102 0.391679 0.7027
597 1 0.0585816 0.7185 0.461325
598 2 0.839649 0.930877 0.405087
599 2 0.93195 0.355236 0.588265
600 2 0.71662 0.197882 0.538792
601 2 0.853779 0.253831 0.798433
602 1 0.94602 0.700293 0.93921
603 2 0.674169 0.475312 0.761528
604 1 0.0960262 0.100349 0.63778
605 2 0.785098 0.00561423 0.710773
606 2 0.413816 0.548359 0.875564
607 1 0.105262 0.672548 0.797548
608 2 0.534531 0.107963 0.98754
609 2 0.280432 0.532368 0.679652
610 2 0.386137 0.36667 0.877582
611 2 0.00801116 0.484113 0.635085
612 1 0.654465 0.597975 0.958184
613 2 0.873296 0.77103 0.517719
614 1 0.164645 0.093598 0.340077
615 2 0.332774 0.974037 0.732846
616 1 0.63994 0.277136 0.461632
617 2 0.595506 0.777483 0.441674
618 2 0.0747346 0.501769 0.317846
619 2 0.770338 0.657072 0.587417
620 2 0.678318 0.74787 0.409841
621 2 0.580252 0.51737 0.0622648
622 2 0.0606317 0.486006 0.808191
623 1 0.635588 0.120852 0.225779
624 2 0.908081 0.41353 0.702227
625 2 0.738133 0.693424 0.605211
626 2 0.0548052 0.340599 0.837554
627 2 0.470115 0.855283 0.456443
628 2 0.801574 0.411947 0.146302
629 2 0.620593 0.55373 0.0949491
630 1 0.196061 0.529799 0.509287
631 2 0.896173 0.264107 0.0693574
632 2 0.939409 0.0576139 0.805198
633 2 0.180082 0.696934 0.374219
634 2 0.412401 0.164199 0.102461
635 2 0.97088 0.492243 0.746248
636 2 0.0796185 0.972763 0.911257
637 2 0.321691 0.118482 0.180161
638 1 0.908688 0.325881 0.359422
639 2 0.581243 0.132848 0.175282
640 2 0.263031 0.888889 0.36245
641 2 0.0621859 0.421029 0.822903
642 2 0.169407 0.906968 0.42585
643 2 0.681986 0.861067 0.393537
644 2 0.0625666 0.572056 0.933467
645 1 0.497002 0.747563 0.201544
646 2 0.942445 0.628978 0.945336
647 1 0.588467 0.140434 0.909272
648 2 0.0981504 0.995817 0.968946
649 2 0.258243 0.808802 0.706612
650 2 0.437691 0.936954 0.45247
651 2 0.87712 0.126025 0.584764
652 2 0.972523 0.0898588 0.503932
653 2 0.0074045 0.64708 0.929859
654 1 0.226333 0.570787 0.189384
655 2 0.361688 0.68029 0.986326
656 2 0.413393 0.871399 0.693923
657 2 0.285654 0.0644221 0.602248
658 2 0.135631 0.0396344 0.0147095
659 2 0.934994 0.0562493 0.155132
660 2 0.50281 0.601051 0.261298
661 1 0.886275 0.552692 0.28426
662 2 0.844814 0.725715 0.288685
663 2 0.784213 0.101706 0.211736
664 1 0.718649 0.936296 0.068053
665 2 0.420098 0.762366 0.988279
666 2 0.20442 0.260662 0.613808
667 2 0.0954222 0.128593 0.222475
668 2 0.0189916 0.889789 0.804122
669 2 0.96114 0.563737 0.293493
670 1 0.743394 0.578855 0.657384
671 2 0.0589381 0.748698 0.55693
672 1 0.975127 0.896292 0.746179
673 2 0.148524 0.823725 0.334334
674 2 0.0049372 0.748274 0.695892
675 2 0.645657 1.00104 0.722072
676 1 0.980871 0.347303 0.75144
677 2 0.0831909 0.0964839 0.0675531
678 2 0.873909 0.178606 0.37341
679 1 0.724823 0.624845 0.911645
680 2 0.778532 0.32178 0.941005
681 1 0.56278 0.159898 0.362221
682 1 0.0788599 0.868819 0.874964
683 2 0.100481 0.250719 0.0636221
684 2 0.794435 0.606217 0.590873
685 2 0.938929 0.478997 0.261134
686 2 0.104306 0.272793 0.214986
687 1 0.674744 0.667226 0.952426
688 2 0.275474 0.0644893 0.461121
689 2 0.242094 0.180133 0.238454
690 2 0.408378 0.244651 0.48222
691 2 0.865275 0.108321 0.383643
692 1 0.791661 0.0678688 0.468316
693 2 0.334225 0.257057 0.730374
694 2 0.759282 0.57117 0.902247
695 1 0.452186 0.466496 0.0318981
696 2 0.621984 0.665723 0.381607
697 2 0.614677 0.42217 0.51632
698 2 0.341462 0.513637 0.23711
699 2 0.910674 0.752235 0.758203
700 1 0.235012 0.366282 0.624846
701 2 0.906625 0.618112 0.381268
702 2 0.412922 0.708065 0.569847
703 2 0.12781 0.0873042 0.570111
704 2 0.963421 0.899207 0.0633666
705 2 0.0257599 0.922926 0.498461
706 2 0.829598 0.883596 0.12731
707 2 0.353073 0.375232 0.949131
708 1 0.669059 0.524053 0.455686
709 2 0.654669 0.471195 0.680573
710 2 0.920534 0.0678462 0.46146
711 2 0.445699 0.517161 0.378392
712 1 0.966664 0.551363 0.881045
713 2 0.921403 0.470348 0.365925
714 1 0.393647 0.728065 0.985643
715 2 0.978354 0.207343 0.269666
716 1 0.915868 0.184155 0.190828
717 2 0.806686 0.665058 0.349583
718 2 0.244684 0.801527 0.132343
719 2 0.280069 0.120253 0.0175808
720 2 0.00909522 0.451742 0.974783
721 2 0.825635 0.511526 0.71173
722 1 0.766891 0.353413 0.867527
723 2 0.346304 0.633266 0.765565
724 2 0.391668 0.348348 0.429806
725 2 0.468608 0.167037 0.362243
726 2 0.828546 0.461133 0.371617
727 1 0.302339 0.564104 0.512813
728 1 0.589935 0.630364 0.34308
729 1 0.18664 0.805047 0.663047
730 1 0.272415 0.799076 0.333751
731 2 0.831315 0.864957 0.884808
732 1 0.234334 0.857052 0.273449
733 2 0.0138796 0.092502 0.041964
734 2 0.928325 0.184298 0.869109
735 2 0.109182 0.459347 0.666428
736 1 0.0690371 0.849682 0.751902
737 2 0.0405039 0.635358 0.36671
738 2 0.958622 0.684997 0.893911
739 2 0.758048 0.936866 0.123482
740 2 0.73515 0.967809 0.557004
741 2 0.25678 0.973924 0.0494077
742 1 0.542991 0.927391 0.925453
743 2 0.122468 0.20065 0.35839
744 2 0.769027 0.466237 0.0473933
745 2 0.367454 0.704612 0.950939
746 1 0.947552 0.810951 0.746428
747 2 0.70818 0.579186 0.983162
748 2 0.258754 0.838649 0.340214
749 2 0.568973 0.848127 0.299099
750 2 0.886496 0.0758675 0.544926
751 2 0.0359115 0.268594 0.75223
752 2 0.390892 0.688881 0.290297
753 2 0.0257993 0.120585 0.0215479
754 2 0.945601 0.48384 0.545593
755 2 0.110446 0.850551 0.319079
756 2 0.0874791 0.00653681 0.0219789
757 2 0.0403207 0.999111 0.00307065
758 2 0.353983 0.706217 0.757336
759 2 0.422325 0.335964 0.769586
760 1 0.715426 0.893246 0.765463
761 2 0.52054 0.554089 0.738015
762 2 0.33104 0.698056 0.459052
763 1 0.013658 0.466009 0.78524
764 2 0.554509 0.266639 0.771777
765 2 0.189415 0.43732 0.0855871
766 2 0.0935534 0.783483 0.700723
767 2 0.904747 0.712123 0.928155
768 2 0.0253667 0.285333 0.360618
769 2 0.101026 0.146473 0.65102
770 2 0.71413 0.314854 0.00928025
771 2 0.705121 0.949207 0.498401
772 2 0.0674064 0.530078 0.56565
773 1 0.996107 0.228155 0.328971
774 2 0.774625 0.908822 0.549102
775 2 0.10223 0.10862 0.758227
776 2 0.856484 0.577071 0.428214
777 1 0.189046 0.885019 0.328699
778 2 0.428912 0.784158 0.0358244
779 2 0.913887 0.757313 0.317877
780 1 0.541904 0.572297 0.765844
781 2 0.0920564 0.206191 0.520428
782 2 0.56699 0.935571 0.372458
783 1 0.999106 0.291876 0.172616
784 2 0.493005 0.701283 0.406035
785 2 0.61335 0.608845 0.219728
786 1 0.901737 0.390677 0.0261348
787 2 0.520204 0.691106 0.0259636
788 2 0.204963 0.202093 0.239432
789 2 0.410365 0.505701 0.491433
790 2 0.172234 0.599928 0.219186
791 1 0.316406 0.801305 0.906606
792 2 0.313199 0.039167 0.486648
793 2 0.849817 0.605259 0.0992214
794 2 0.504283 0.77202 0.407889
795 2 0.834753 0.311634 0.0140101
796 2 0.39962 0.470445 0.695588
797 2 0.449129 0.950206 0.425299
798 2 0.225295 0.597353 0.676442
799 2 0.423628 0.668692 0.912196
800 2 0.583795 0.951684 0.0455926
801 2 0.625217 0.951201 0.374112
802 2 0.693044 0.0353439 0.258496
803 2 0.641239 0.605742 0.6898
804 2 0.745695 0.212766 0.388808
805 2 0.6168 0.917807 0.965818
806 1 0.456546 0.397959 0.936522
807 2 0.778583 0.968419 0.56412
808 2 0.478143 0.41418 0.427901
809 1 0.445889 0.403543 0.024333
810 2 0.376022 0.768955 0.0729411
811 2 0.621172 0.954848 0.691137
812 2 0.391744 0.278702 0.917103
813 1 0.187443 0.299892 0.565863
814 2 0.405844 0.377614 0.819649
815 2 0.193377 0.769849 0.870629
816 1 0.207511 0.647998 0.00900342
817 1 0.548823 0.734358 0.535132
818 2 0.622618 0.852526 0.0474335
819 1 0.837292 0.843347 0.652296
820 1 0.796017 0.400954 0.365092
821 2 0.0433173 0.736091 0.712033
822 2 0.0598976 0.318962 0.409705
823 1 0.0316755 0.938934 0.740127
824 2 0.541568 0.253407 0.446236
825 2 0.403607 0.189432 0.839542
826 2 0.369855 0.366786 0.993166
827 1 0.704935 0.607833 0.547157
828 2 0.510961 0.81473 0.413597
829 2 0.849422 0.785957 0.998283
830 2 0.327003 0.630939 0.712916
831 1 0.910696 0.905573 0.197048
832 2 0.0633791 0.821882 0.828658
833 1 0.658012 0.215215 0.86957
834 2 0.754523 0.417719 0.694747
835 2 0.746428 0.424882 0.476547
836 2 0.203929 0.423434 0.37598
837 2 0.919478 0.60368 0.00604451
838 2 0.867476 0.347634 0.617719
839 2 0.795049 0.463987 0.341174
840 2 0.605035 0.149165 0.0755117
841 2 0.453614 0.801187 0.426823
842 2 0.171171 0.756911 0.460878
843 2 0.243341 0.461163 0.922182
844 2 0.76245 0.631404 0.325477
845 2 0.669261 0.760787 0.118393
846 2 0.995698 0.112919 0.417602
847 2 0.119862 0.184331 0.647411
848 2 0.302542 0.869131 0.340215
849 1 0.0691091 0.763714 0.052006
850 2 0.0303746 0.853642 0.8067
851 2 0.80183 0.436705 0.309055
852 2 0.36307 0.715743 0.548917
853 1 0.425821 0.658219 0.36822
854 2 0.0832439 0.983101 0.0168725
855 2 0.579107 0.0428717 0.589003
856 2 0.757005 0.464077 0.575598
857 2 0.052426 0.619918 0.118568
858 2 0.622946 0.862789 0.314912
859 2 0.0549632 0.223031 0.0822411
860 2 0.722261 0.859036 0.423119
861 2 0.854424 0.340442 0.567113
862 2 0.729627 0.430462 0.545876
863 2 0.379127 0.775444 0.043081
864 2 0.207976 0.171699 0.28525
865 2 0.352303 0.907447 0.0878261
866 2 0.927126 0.68457 0.471138
867 2 0.0305635 0.739253 0.382251
868 2 0.659895 0.137374 0.559246
869 2 0.774378 0.883527 0.952083
870 2 0.710335 0.992928 0.382698
871 2 0.510317 0.477664 0.569303
872 2 0.608758 0.602216 0.694637
873 2 0.150731 0.248274 0.578658
874 2 0.617841 0.930389 0.260909
875 2 0.0915478 0.0276022 0.0853215
876 2 0.732311 0.274983 0.903862
877 2 0.376044 0.225455 0.838404
878 2 0.813706 0.101973 0.646021
879 2 0.0051188 0.577995 0.776958
880 2 0.646714 0.74984 0.396395
881 2 0.756809 0.451426 0.984431
882 1 0.330692 0.545827 0.321394
883 1 0.901943 0.00666228 0.157871
884 2 0.112158 0.286883 0.335682
885 2 0.503092 0.228477 0.867658
886 2 0.845105 0.781166 0.137183
887 1 0.605542 0.934083 0.0180981
888 2 0.57898 0.0983211 0.56842
889 2 0.0648345 0.228842 0.246065
890 1 0.776237 0.476983 0.702691
891 2 0.562179 0.72432 0.498587
892 2 0.468422 0.691763 0.1448
893 2 0.382472 0.17214 0.169614
894 2 0.677904 0.217147 0.19593
895 1 0.0431602 0.966082 0.953456
896 2 0.916639 0.641173 0.426342
897 2 0.646146 0.909887 0.684156
898 2 0.320587 0.7705 0.297481
899 2 0.461274 0.419479 0.578198
900 2 0.883062 0.390446 0.863366
901 2 0.630399 0.156481 0.634842
902 2 0.345979 0.115967 0.703801