ITEM: TIMESTEP
2100
ITEM: NUMBER OF ATOMS
1000
ITEM: BOX BOUNDS xy xz yz pp pp pp
0.0000000000000000e+00 1.3572088000000001e+01 0.0000000000000000e+00
0.0000000000000000e+00 1.3572088000000001e+01 0.0000000000000000e+00
0.0000000000000000e+00 1.3572088000000001e+01 0.0000000000000000e+00
ITEM: ATOMS id type xs ys zs
1 2 0.55644 0.0126395 0.0749557
2 2 0.227579 0.404191 0.832402
3 1 0.44688 0.812975 0.202345
4 2 0.1149 0.163443 0.113736
5 2 0.98669 0.713044 0.856693
6 1 0.982929 0.295229 0.748308
7 2 0.718384 0.483687 0.621294
8 2 0.916849 0.744403 0.305773
9 2 0.940289 0.760322 0.502476
10 2 0.80544 0.796667 0.125146
11 2 0.707994 0.190456 0.854027
12 2 0.742682 0.418787 0.594361
13 2 0.352097 0.455608 0.826275
14 1 0.101128 0.116901 0.0721751
15 2 0.345888 0.133499 0.420555
16 2 0.0552079 0.897621 0.21989
17 1 0.822198 0.34468 0.38341
18 2 0.728387 0.430093 0.649513
19 2 0.168028 0.34169 0.29421
20 2 0.0714716 0.502014 0.608827
21 2 0.0645634 0.536753 0.41611
22 2 0.362987 0.605016 0.510505
23 2 0.826958 0.435522 0.143498
24 2 0.741828 0.528878 0.100575
25 1 0.86065 0.522947 0.0461501
26 2 0.622634 0.545625 0.401887
27 2 0.207128 0.787988 0.0202294
28 2 0.109774 0.967553 0.336654
29 2 0.453729 0.385245 0.014146
30 2 0.938259 0.699262 0.934717
31 1 0.722076 0.648169 0.372171
32 1 0.416563 0.804406 0.279305
33 1 0.183304 0.333333 0.806634
34 2 0.444934 0.250905 0.917787
35 2 0.958907 0.378935 0.416548
36 1 0.9969 0.131809 0.736294
37 2 0.892735 0.413855 0.542379
38 2 0.470057 0.284974 0.06492
39 2 0.145454 0.0203756 0.205779
40 2 0.558784 0.316775 0.926159
41 2 0.00658839 0.645883 0.599407
42 2 0.772614 0.0777458 0.385205
43 2 0.305467 0.49363 0.603787
44 2 1.00068 0.63814 0.102132
45 2 0.200488 0.934909 0.269539
46 1 0.304211 0.260299 0.351084
47 2 0.822791 0.435171 0.249969
48 2 0.0406124 0.583868 0.421415
49 2 0.608275 0.719444 0.0497896
50 2 0.622313 0.584676 0.114422
51 2 0.472298 0.744435 0.388153
52 2 0.911752 0.781955 0.283737
53 2 0.36411 0.285827 0.391001
54 2 0.266199 0.989792 0.356907
55 1 0.0235856 0.307108 0.890649
56 1 0.732472 0.147064 0.806475
57 2 0.333913 0.272036 0.452667
58 2 0.78673 0.208074 0.703022
59 2 0.750331 0.776274 0.363842
60 2 0.905742 0.865835 0.265875
61 2 0.548219 0.430867 0.0740875
62 2 0.00592232 0.268946 0.931899
63 2 0.714308 0.060997 0.915464
64 2 0.564296 0.91107 0.894723
65 2 0.439806 0.156056 0.438359
66 1 0.744227 0.526044 0.337053
67 2 0.264902 0.264459 0.607128
68 2 0.461208 0.811672 0.904057
69 1 0.0374141 0.16451 0.587492
70 2 0.44398 0.970398 0.625813
71 1 0.657032 0.782793 0.716576
72 2 0.998032 0.175127 0.581705
73 2 0.72707 0.456689 0.870825
74 2 0.196621 0.984721 0.969011
75 2 0.393591 0.562495 0.318305
76 2 0.105067 0.00440703 0.920382
77 1 0.754605 0.366558 0.970512
78 2 0.465321 0.331519 0.435224
79 2 0.355871 0.33351 0.0925858
80 2 0.999592 0.036446 0.284645
81 2 0.41259 0.0938007 0.131077
82 2 0.995146 0.810125 0.0718647
83 2 0.0678479 0.921255 0.0944951
84 2 0.0763236 0.213843 0.324284
85 1 0.315351 0.246824 0.822608
86 2 0.802396 0.156106 0.652307
87 2 0.25937 0.261524 0.213633
88 2 0.902802 0.958343 0.976029
89 2 0.385692 0.581462 0.417633
90 2 0.403448 0.734395 0.32432
91 2 0.379981 0.265563 0.0904138
92 2 0.575649 0.555123 0.509518
93 2 0.814717 0.123085 0.982591
94 1 0.036041 0.523145 0.14271
95 2 0.872924 0.791175 0.156428
96 2 0.150643 0.700505 0.635999
97 2 0.95055 0.0360808 0.00733528
98 2 0.63644 0.865252 0.629553
99 2 0.864089 0.663243 0.946522
100 2 0.647433 0.700185 0.320944
101 1 0.00603973 0.792871 0.178965
102 2 0.612807 0.328637 0.38103
103 2 0.756817 0.41567 0.934697
104 2 0.899827 0.851315 0.38682
105 2 0.341022 0.450806 0.00309709
106 2 0.75945 0.397307 0.373323
107 2 0.717698 0.463081 0.94623
108 2 0.351437 0.60082 0.787632
109 2 0.167715 0.571187 0.279495
110 2 0.381078 0.599584 0.271676
111 2 0.147299 0.452158 0.102207
112 1 0.334437 0.00834025 0.0457367
113 1 0.670236 0.49923 0.884936
114 2 0.532251 0.410747 0.445978
115 2 0.881525 0.343758 0.416642
116 2 0.162621 0.304819 0.561064
117 2 0.679776 0.636109 0.268925
118 2 0.288268 0.272007 0.620061
119 2 0.372982 0.508179 0.263052
120 2 0.487012 0.0213385 0.379274
121 2 0.266751 0.763732 0.858132
122 2 0.622847 0.196445 0.529564
123 2 0.819956 0.550689 0.431878
124 2 0.801592 0.876062 0.542667
125 1 0.409761 0.635205 0.365378
126 2 0.328371 0.368038 0.172295
127 2 0.552374 0.924933 0.19917
128 2 0.334735 0.88575 0.72365
129 1 0.135252 0.643266 0.461015
130 2 0.452893 0.282734 0.445573
131 2 0.29824 0.160799 0.70954
132 2 0.828733 1.00027 0.725604
133 2 0.60203 0.251729 0.881061
134 2 0.453079 0.710449 0.243052
135 2 0.998216 0.863789 0.761723
136 2 0.00380928 0.382741 0.809849
137 1 0.903721 0.732711 0.200497
138 2 0.230319 0.239125 0.327932
139 2 0.903209 0.930848 0.857941
140 1 0.0438014 0.646004 0.913152
141 2 0.470651 0.785821 0.243433
142 2 0.695673 -0.00106422 0.111464
143 2 0.243199 0.479157 0.832573
144 2 0.45952 0.034052 0.647076
145 2 0.38626 0.76092 0.445922
146 2 0.0533983 0.660271 0.994845
147 1 0.412226 0.272835 0.85704
148 1 0.0798568 0.699057 0.957667
149 2 0.84396 0.397596 0.846313
150 1 0.319729 0.785155 0.434829
151 2 0.238908 0.462496 0.0537668
152 2 0.218072 0.471534 0.365415
153 1 0.41306 0.755263 0.0835211
154 1 0.27055 0.895438 0.28054
155 2 0.589387 0.380488 0.397337
156 2 0.116065 0.952441 0.827954
157 2 0.128094 0.212712 0.829594
158 2 0.382148 0.324608 0.795714
159 2 0.222248 0.802722 0.7444
160 2 0.993077 0.0077498 0.911512
161 2 0.441467 0.910517 0.0258155
162 2 0.43812 0.283624 0.0931374
163 2 0.740786 0.475733 0.783932
164 2 0.960506 0.335207 0.298439
165 2 0.425434 0.904491 0.0470516
166 2 0.396516 0.640161 0.592093
167 2 0.316861 0.615798 0.353356
168 2 0.536412 0.170823 0.6718
169 2 0.483028 0.652553 0.439013
170 2 0.548448 0.966128 0.966822
171 2 0.902739 0.939688 0.694807
172 2 0.509845 0.400182 0.418489
173 1 0.477104 0.57696 0.387094
174 2 0.478628 0.581828 0.238901
175 2 0.922724 0.816787 0.956503
176 2 0.99692 0.0844362 0.501095
177 1 0.194472 0.6034 0.431724
178 2 0.680981 0.931852 0.0775052
179 2 0.86318 0.329702 0.826596
180 2 0.711655 0.301403 0.286545
181 2 0.839685 0.967481 0.938923
182 2 0.343546 0.686615 0.565217
183 2 0.627043 0.351953 0.523101
184 2 0.0275485 0.395006 0.00549376
185 2 0.19946 0.452122 0.710509
186 2 0.858409 0.404232 0.403545
187 2 0.934189 0.902292 0.903993
188 1 0.888711 0.771153 0.395497
189 2 0.834245 0.903688 0.925007
190 2 0.489679 0.788479 0.627929
191 2 0.671873 0.0958384 0.748342
192 2 0.336889 0.76533 0.624671
193 2 0.078833 0.278646 0.0774903
194 2 0.128584 0.661418 0.362106
195 2 0.270893 0.908965 0.491607
196 2 0.176124 0.989133 0.947441
197 2 0.68637 0.581546 0.28746
198 2 0.784482 0.631417 0.616969
199 2 0.985732 0.892804 0.794315
200 1 0.13048 0.292963 0.644061
201 2 0.552754 0.663343 0.97557
202 2 0.653036 0.51005 0.655677
203 2 0.154924 0.384123 0.485875
204 2 0.590152 0.959476 0.316613
205 2 0.00120362 0.81243 0.103398
206 2 0.666503 0.0247996 0.464667
207 2 0.769695 0.0908504 0.787853
208 2 0.493273 0.968075 0.694393
209 2 0.380464 0.880127 0.445387
210 2 0.929021 0.668995 0.635037
211 2 0.513195 0.495881 0.0665732
212 1 0.937554 0.00574211 0.699152
213 2 0.259597 0.924975 0.949864
214 2 0.764887 0.99283 0.929713
215 2 0.62226 0.76942 0.792693
216 2 0.0484455 0.757642 0.740663
217 2 0.772087 0.518444 0.751509
218 2 0.00723953 0.864298 0.736442
219 2 0.257497 0.244583 0.787949
220 2 0.956947 0.874345 0.272101
221 2 0.487351 0.275785 0.466216
222 2 0.220993 0.977744 0.870142
223 2 0.918606 0.592696 0.913272
224 2 0.0982592 0.286518 0.470166
225 1 0.635015 0.383641 0.0243587
226 2 0.659345 0.0942185 0.15083
227 2 0.383948 0.68165 0.236214
228 2 0.996889 0.521454 0.841609
229 2 0.997152 0.787207 0.471883
230 1 0.546104 0.677045 0.440079
231 2 0.160358 0.547468 0.340892
232 2 0.44148 0.709473 0.0188509
233 1 0.295575 0.16392 0.562664
234 2 0.850225 0.443174 0.384941
235 2 0.342628 0.448852 0.875542
236 2 0.369389 0.331859 0.70667
237 2 0.807409 0.189242 0.524862
238 1 0.295469 0.281471 0.739703
239 1 0.616341 0.462606 0.993784
240 2 0.832171 0.537044 0.657794
241 2 0.411262 0.584637 0.290499
242 1 0.383535 0.807033 0.791555
243 1 0.607738 0.159993 0.22083
244 2 0.531552 0.702503 0.377654
245 2 0.54137 0.981778 0.0986467
246 1 0.297674 0.114129 0.0216208
247 2 0.95814 0.474146 0.845494
248 2 0.108218 0.464296 0.137393
249 2 0.601366 0.514349 0.598355
250 2 0.679261 0.0796384 0.490194
251 2 0.51495 0.0609995 0.906371
252 2 0.108189 0.661146 0.178186
253 2 0.478256 0.255832 0.530786
254 2 0.265076 0.490644 0.10458
255 2 0.141849 0.441976 0.427685
256 2 0.161862 0.630982 0.821136
257 2 0.633313 0.842673 0.572532
258 2 0.666444 0.0368538 0.408507
259 1 0.300583 0.368907 0.852103
260 2 0.0447588 0.894504 0.195075
261 1 0.813279 0.371985 0.758218
262 2 0.601002 0.400285 0.920067
263 2 0.118644 0.361176 0.169047
264 2 0.730782 0.437454 0.96142
265 1 0.411178 0.433255 0.0795535
266 2 0.856794 0.579404 0.199468
267 2 0.143373 0.474645 0.929197
268 1 0.404223 0.767705 0.383825
269 1 0.0314895 0.903557 0.1244
270 2 0.0770094 0.653326 0.555826
271 2 0.643023 0.297621 0.398623
272 2 0.840854 0.703151 0.266759
273 1 0.936035 0.534324 0.18513
274 2 0.0972434 0.623782 0.984419
275 2 0.581452 0.701828 0.950325
276 2 0.886611 0.835726 0.824179
277 2 0.148988 0.0810388 0.667793
278 2 0.506823 0.888361 0.146129
279 2 0.641142 0.760565 0.191451
280 1 0.584888 0.35926 0.300616
281 2 0.961669 0.668678 0.914156
282 2 0.448209 0.608235 0.398519
283 2 0.606968 0.451818 0.76159
284 1 0.566024 0.218544 0.924545
285 2 0.513059 0.0628103 0.0429904
286 2 0.762479 0.675449 0.981076
287 1 0.0441976 0.230094 0.870912
288 2 0.595508 0.957808 0.643273
289 2 0.996209 0.182836 0.513996
290 2 0.326936 0.309521 0.0280972
291 2 0.493666 0.967956 0.61512
292 2 0.612005 0.0979472 0.62557
293 2 0.098966 0.58925 0.845794
294 2 0.750365 0.128776 0.382622
295 2 0.980818 0.550529 0.358335
296 2 0.136517 0.466254 0.679248
297 2 0.449443 0.960462 0.385633
298 2 0.415148 0.540881 0.247358
299 1 0.338519 0.978998 0.610073
300 2 0.310018 0.891275 0.899902
301 2 0.456113 0.794286 0.56671
302 2 0.87529 0.0296333 0.551598
303 2 0.134463 0.496064 0.449603
304 1 0.0139085 0.802105 0.255989
305 2 0.441121 0.966754 0.98017
306 2 0.313103 0.701596 0.092636
307 2 0.794174 0.316557 0.942148
308 2 0.146947 0.324022 0.110635
309 2 0.984459 0.00263095 0.119603
310 2 0.202011 0.346938 0.284658
311 2 0.952617 0.591245 0.789774
312 2 0.355103 0.434893 0.526748
313 2 0.776086 0.422175 0.608975
314 2 0.937016 0.825221 0.369471
315 2 0.440746 0.0492304 0.899929
316 2 0.545131 0.325281 0.273692
317 2 0.606514 0.965672 0.373009
318 2 0.491468 0.869289 0.166601
319 2 0.218956 0.84889 0.971617
320 2 0.312895 0.257629 0.683345
321 2 0.478866 0.0579657 0.167105
322 2 0.511263 0.670032 0.451408
323 2 0.407533 0.313582 0.117356
324 2 0.62398 0.413125 0.535266
325 2 0.391701 0.200702 0.0524933
326 2 0.631 0.658136 0.669579
327 2 0.95829 0.799503 0.421734
328 2 0.128501 0.669111 0.924694
329 1 0.693576 0.781316 0.157524
330 2 0.976648 0.264685 0.991197
331 2 0.342111 0.616887 0.549225
332 2 0.355049 0.627018 0.331351
333 2 0.57576 0.0609116 -0.00101663
334 2 0.242572 0.747054 0.863446
335 1 0.729302 0.0796667 0.545853
336 2 0.899975 0.0057447 0.721272
337 2 0.454235 0.0463079 0.338248
338 1 0.0736648 0.491109 0.828344
339 2 0.798147 0.608738 0.0791123
340 2 0.852245 0.43827 0.808521
341 2 0.784813 0.0815421 0.84001
342 2 0.183277 0.46084 0.904577
343 2 0.70886 0.88583 0.034585
344 1 0.251691 0.0860473 0.000420802
345 1 0.687226 0.953941 0.241305
346 1 0.649174 0.405817 0.484956
347 1 0.167132 0.829834 0.784582
348 2 0.0986616 0.246638 0.27105
349 2 0.577278 0.212263 0.991603
350 2 0.628528 0.7115 0.124106
351 2 0.663533 0.431739 0.546193
352 2 0.242742 0.52198 0.192907
353 1 0.20993 0.641072 0.264231
354 1 0.618093 0.0182213 0.0178493
355 2 0.177101 0.488231 0.539257
356 2 0.539331 0.644176 0.907575
357 2 0.751188 0.588435 0.643297
358 2 0.735702 0.354497 0.374915
359 2 0.666356 0.422313 0.432534
360 2 0.584323 0.736112 0.595006
361 1 0.866978 0.947858 0.745379
362 2 0.989745 0.667223 0.961019
363 1 0.747352 0.453682 0.90348
364 2 0.439553 0.691503 0.591334
365 2 0.879354 0.730152 0.291252
366 2 0.646978 0.373963 0.544968
367 1 0.59794 0.851254 0.944109
368 1 0.297754 0.573625 0.299464
369 2 0.883408 0.0263943 0.671391
370 2 0.19876 0.342733 0.0931895
371 2 0.846052 0.634952 0.0390614
372 1 0.920912 0.941054 0.920152
373 2 0.863702 0.0572145 0.695637
374 2 0.545268 0.827598 0.377776
375 2 0.548741 0.203278 0.121721
376 2 0.283965 0.815621 0.44052
377 2 0.399568 0.383145 0.0141599
378 2 0.0873685 0.411302 0.313187
379 2 0.33152 0.0746042 0.334365
380 2 0.885216 0.0690617 0.864182
381 2 0.401229 0.914823 0.513548
382 2 0.314375 0.254539 0.134717
383 2 0.588023 0.14205 0.67702
384 1 0.421941 0.869632 0.174841
385 2 0.104346 0.488529 0.862445
386 2 0.0668831 0.611307 0.903765
387 1 0.0271845 0.980953 0.715526
388 2 0.172954 0.243815 0.370903
389 2 0.436339 0.344802 0.131659
390 2 0.699508 0.83577 0.685469
391 2 0.897304 0.513806 0.373787
392 1 0.0500891 0.247567 0.299305
393 2 0.943244 0.280144 0.381884
394 2 0.832771 0.77137 0.162055
395 2 0.561395 0.770937 0.0406015
396 2 0.6497 0.852631 0.65526
397 2 0.704168 0.659456 0.631117
398 1 0.417777 0.324173 0.0595607
399 1 0.870135 0.503545 0.157597
400 1 0.0543496 0.519026 0.356668
401 2 0.857537 0.0470561 0.401907
402 2 0.281107 0.98951 0.497772
403 2 0.298724 0.85782 0.885158
404 2 0.0916344 0.698256 0.328594
405 2 0.899921 0.977084 0.506132
406 2 0.550008 0.838488 0.0697053
407 2 0.841215 0.481281 0.538446
408 2 0.810702 0.334383 0.783585
409 2 0.721822 0.0538724 0.658233
410 2 0.644356 0.400113 0.8395
411 2 0.827345 0.443961 0.759689
412 2 0.928132 0.44665 0.996925
413 2 0.941245 0.732401 0.449263
414 2 0.669295 0.219466 0.851691
415 2 0.280989 0.834667 0.221614
416 1 0.342761 0.828783 0.622518
417 2 0.759088 0.056888 0.933784
418 2 0.770336 0.883049 0.689017
419 2 0.282365 0.769652 0.473882
420 2 0.278264 0.713045 0.296734
421 1 0.664464 0.0224048 0.163002
422 1 0.829717 0.608726 0.565804
423 2 0.809287 0.680716 0.382525
424 2 0.35866 0.492443 0.333331
425 1 0.449521 0.202562 0.265594
426 2 0.871914 0.382609 0.446254
427 2 0.840137 0.459065 0.824556
428 2 0.344373 0.545602 0.503677
429 2 0.95515 0.492212 0.641897
430 2 0.993127 0.798146 0.783616
431 2 0.757459 0.103992 0.860085
432 1 0.490633 0.707103 0.480846
433 2 0.90844 0.505707 0.271512
434 1 0.202662 0.657515 0.49475
435 2 0.896207 0.89919 0.584816
436 2 0.418139 0.592216 0.643721
437 2 0.848218 0.277595 0.469438
438 2 0.757882 0.768591 0.0584316
439 1 0.797586 0.275506 0.488349
440 2 0.564494 0.576439 0.354681
441 1 0.49077 0.778386 0.474513
442 1 0.876258 0.0743452 0.342493
443 1 0.093632 0.255389 0.34533
444 2 0.498398 0.605924 0.428911
445 2 0.789071 0.285162 0.429083
446 2 0.185296 0.974655 0.320459
447 2 0.555594 0.924633 0.691499
448 2 0.541791 0.221204 0.0198802
449 1 0.0912575 0.69796 0.188914
450 2 0.261512 0.624574 0.360602
451 2 0.304206 0.933537 0.335174
452 2 0.801931 0.223105 0.488292
453 1 0.668761 0.502949 0.827576
454 2 0.441789 0.0376704 0.155958
455 2 0.603035 0.769408 1.00113
456 2 0.934986 0.570395 0.129135
457 2 0.765794 0.501143 0.0636179
458 2 0.778923 0.200112 0.134187
459 2 0.971212 0.803945 0.791503
460 2 0.287739 0.280846 0.252787
461 2 0.272211 0.720866 0.843925
462 2 0.772167 0.671342 0.149167
463 1 0.714745 0.346165 0.425057
464 2 0.13632 0.962935 0.00191906
465 2 0.451946 0.333682 0.647916
466 2 0.00447891 0.12829 0.246232
467 1 0.652222 0.578481 0.246359
468 2 0.831711 0.054943 0.155464
469 2 0.197739 0.426517 0.572492
470 2 0.120081 0.269078 0.15387
471 2 0.25665 0.968128 0.272622
472 2 0.0767561 0.390138 0.0939023
473 1 0.612664 0.168215 0.582125
474 1 0.787219 0.926869 0.910198
475 1 0.835877 0.751865 0.0764724
476 2 0.765607 0.281077 0.0204006
477 2 0.504781 0.315764 0.113979
478 2 0.04395 0.511238 0.956828
479 2 0.475456 0.382964 0.045372
480 2 0.960233 0.036984 0.914442
481 2 0.400225 0.632454 0.6458
482 2 0.560998 0.468149 0.780903
483 2 0.638924 0.213832 0.0918058
484 1 0.913184 0.590865 0.359856
485 1 0.632382 0.592504 0.429365
486 2 0.951224 0.0970293 0.201317
487 2 0.179425 0.157835 0.281249
488 2 0.820783 0.0736119 0.96872
489 2 0.256114 0.190552 0.047525
490 2 0.0310979 0.922236 0.943636
491 2 0.607106 0.553318 0.633467
492 2 0.89942 0.966653 0.673368
493 2 0.132302 0.835906 0.504918
494 2 0.914152 0.366696 0.826816
495 2 0.566922 0.824966 0.0890518
496 2 0.208561 0.901855 0.794171
497 2 0.78031 0.989976 0.624719
498 1 0.425427 0.463141 0.966254
499 2 0.806738 0.45121 0.201577
500 2 0.723095 0.893761 0.835667
501 1 0.316161 0.254358 0.28724
502 2 0.947603 0.0343132 0.776932
503 2 0.0898341 0.275967 0.869057
504 1 0.167563 0.108269 0.978741
505 2 0.715881 0.456393 0.564708
506 2 0.627223 0.766301 0.0167585
507 2 0.620764 0.607325 0.371956
508 2 0.0237769 0.787085 0.296433
509 1 0.945621 0.693902 0.270315
510 2 0.64245 0.142153 0.0477647
511 2 0.993177 0.930598 0.381663
512 2 0.278338 0.0963935 0.835679
513 1 0.839661 0.461082 0.20574
514 2 0.585576 0.30679 0.83455
515 1 0.605898 0.792126 0.957802
516 2 0.765822 0.277358 0.645726
517 1 0.402138 0.624654 0.552775
518 2 0.677729 0.714841 0.577348
519 2 0.190921 0.0930611 0.817716
520 2 0.531043 0.873709 0.48791
521 2 0.261308 0.684956 0.316716
522 2 0.48688 0.0575814 0.757226
523 2 0.0968352 0.312339 0.641128
524 2 0.0667832 0.910595 0.564154
525 2 0.445316 0.744757 0.434113
526 2 0.391958 0.939266 0.667304
527 2 0.304079 0.352681 0.0905615
528 1 0.118284 0.269529 0.834719
529 2 0.119537 0.786389 0.908818
530 2 0.615161 0.917948 0.655702
531 2 0.0877965 0.600065 0.917617
532 2 0.272311 0.121099 0.769461
533 2 0.44285 0.674762 0.32014
534 1 0.826804 0.626804 0.290494
535 2 0.580607 0.204724 0.34539
536 1 0.0740087 0.507296 0.0115239
537 1 0.922636 0.853711 0.0978545
538 2 0.442517 0.744995 0.371581
539 2 0.678277 0.020858 0.828901
540 2 0.927852 0.669473 0.242497
541 1 0.844093 0.515508 0.202891
542 2 0.59075 0.961177 0.242952
543 1 0.488819 0.989627 0.341127
544 1 0.577636 0.542254 0.800354
545 2 0.170148 0.720856 0.449767
546 2 0.413092 0.382277 0.915456
547 2 0.0141379 0.996933 0.120748
548 2 0.905249 0.700266 0.515508
549 2 0.0613497 0.351838 0.143963
550 2 0.727434 0.527045 0.0545528
551 1 0.394235 0.334265 0.839904
552 2 0.705759 0.057134 0.994193
553 2 0.888481 0.994443 0.868806
554 2 0.665007 0.053604 0.837148
555 1 0.349348 0.939757 0.475553
556 2 0.975811 0.871956 0.533008
557 2 0.101419 0.271996 0.286414
558 1 0.666494 0.0630508 0.573304
559 2 0.857468 0.680868 0.899371
560 2 0.605539 0.380049 0.564854
561 2 0.445039 0.943625 0.232762
562 1 0.507297 0.918974 0.899991
563 2 0.152234 0.926541 0.79258
564 2 0.0461032 0.531768 0.895134
565 2 0.617225 0.853661 0.22724
566 2 0.563893 0.910029 0.156488
567 2 0.653082 0.480085 0.560736
568 2 0.887919 0.730552 0.908366
569 1 0.951481 0.118181 0.652654
570 2 0.369957 0.824843 0.200374
571 2 0.971249 0.645557 0.649527
572 2 0.930772 0.543606 0.22944
573 2 0.703383 0.321648 0.00447682
574 2 0.487337 0.868207 0.324871
575 1 0.916858 0.83402 0.487302
576 2 0.389137 0.13035 0.457871
577 2 0.469551 0.401574 0.870006
578 1 0.0804337 0.630824 0.0990213
579 2 0.913498 0.201923 0.351552
580 1 0.0959108 0.85173 0.110688
581 2 0.113854 0.417957 0.0687517
582 2 0.501784 0.810106 0.0845614
583 1 0.286092 0.415765 0.361548
584 2 0.928997 0.581725 0.176701
585 1 0.895928 0.091078 0.989809
586 2 0.460662 0.948244 0.57503
587 2 0.487348 0.380831 0.445349
588 2 0.487978 0.851545 0.391991
589 1 0.890455 0.452881 0.439418
590 1 0.717808 0.110042 0.508701
591 1 0.479534 0.0414686 0.609088
592 2 0.636054 0.925825 0.0739048
593 2 0.950828 0.222948 0.825231
594 1 0.60412 0.0295602 0.479498
595 1 0.745991 0.290337 0.856637
596 2 0.0115635 0.454078 0.0489983
597 1 0.00245009 0.835 0.306911
598 2 0.490555 0.895658 0.716595
599 2 0.0161248 0.347097 0.714067
600 2 0.410237 0.363637 0.286249
601 2 0.668177 0.22698 0.663626
602 1 0.800661 0.582678 0.163403
603 2 0.620561 0.32211 0.877399
604 1 0.213119 0.00666203 0.625622
605 2 0.847521 0.825386 0.490411
606 2 0.28981 0.459873 0.123552
607 1 0.171585 0.746166 0.803047
608 2 0.773301 0.311281 0.930051
609 2 0.117084 0.668261 0.676238
610 2 0.545052 0.462091 0.0601819
611 2 0.170451 0.75302 0.368333
612 1 0.815937 0.451259 0.0535125
613 2 0.00666023 0.789481 0.497109
614 1 0.27749 0.175214 0.401769
615 2 0.29962 0.78046 0.950008
616 1 0.625326 0.211103 0.592128
617 2 0.615799 0.00853117 0.346409
618 2 0.0280282 0.307222 0.214264
619 2 0.805205 0.649363 0.497713
620 2 0.894331 0.0513377 0.320185
621 2 0.522152 0.348388 0.765653
622 2 0.0291056 0.61145 0.734623
623 1 0.750122 0.063874 0.0623076
624 2 0.845802 0.722527 0.60278
625 2 0.932702 0.460731 0.579709
626 2 0.110439 0.524738 0.832345
627 2 0.480785 0.946074 0.705711
628 2 0.74359 0.596264 0.0727375
629 2 0.633856 0.55118 0.174108
630 1 0.248587 0.625305 0.470541
631 2 0.908344 0.237162 0.138907
632 2 0.762792 0.688792 0.914025
633 2 0.937987 0.476961 0.312966
634 2 0.296355 0.353702 0.892323
635 2 0.884845 0.725812 0.578365
636 2 0.0642837 0.80895 0.0499697
637 2 0.419597 0.0696905 0.332891
638 1 0.995844 0.41445 0.469829
639 2 0.716335 0.982141 0.261265
640 2 0.266935 0.926316 0.369088
641 2 0.105557 0.491192 0.885718
642 2 0.322982 0.19089 0.429786
643 2 0.633712 0.893676 0.122933
644 2 0.0755635 0.498068 0.92169
645 1 0.385194 0.773529 0.173414
646 2 0.11033 0.630069 0.859281
647 1 0.747606 0.145193 0.943009
648 2 0.121484 0.0670567 0.177423
649 2 0.512881 0.946005 0.681262
650 2 0.771027 0.914833 0.359817
651 2 0.0232896 0.185782 0.245564
652 2 0.0874399 0.302505 0.225222
653 2 0.920655 0.554436 0.901912
654 1 0.172526 0.417012 0.0543664
655 2 0.342835 0.36576 0.12783
656 2 0.574244 0.550061 0.845134
657 2 0.493364 0.327542 0.462713
658 2 0.315183 0.267327 0.177167
659 2 0.0862552 0.0770958 0.260937
660 2 0.668854 0.568207 0.390104
661 1 0.899309 0.629989 0.21151
662 2 0.91584 0.669833 0.308104
663 2 0.992174 0.289337 0.309821
664 1 0.753597 0.948251 0.110326
665 2 0.407026 0.891463 0.995193
666 2 0.201481 0.289246 0.809143
667 2 0.791928 0.131066 0.750375
668 2 0.0183389 0.897489 0.750866
669 2 0.695037 0.490918 0.0446906
670 1 0.75383 0.693847 0.683525
671 2 0.176085 0.659772 0.684338
672 1 0.965311 0.906689 0.76046
673 2 0.186648 0.770825 0.171143
674 2 0.878354 0.811445 0.787048
675 2 0.687548 0.150877 0.578248
676 1 0.83987 0.492611 0.712829
677 2 0.145546 0.202019 0.945841
678 2 0.841235 0.0659935 0.678904
679 1 0.705767 0.61537 0.798783
680 2 0.444486 0.247097 0.26432
681 1 0.460887 0.22943 0.448602
682 1 0.163567 0.950026 0.956953
683 2 0.0843762 0.331539 0.129749
684 2 0.645148 0.831677 0.481249
685 2 0.887372 0.697447 0.353604
686 2 0.603102 0.34549 0.265892
687 1 0.785561 0.572828 0.0411614
688 2 0.276211 0.172735 0.482864
689 2 0.261762 0.042221 0.296571
690 2 0.47545 0.180744 0.372348
691 2 0.564487 0.0824111 0.498944
692 1 0.834243 0.226727 0.442871
693 2 0.184794 0.964977 0.694274
694 2 0.777612 0.434012 0.97809
695 1 0.481861 0.427004 0.187524
696 2 0.893357 0.923692 0.327657
697 2 0.581356 0.326164 0.556519
698 2 0.505698 0.411821 0.354736
699 2 0.815599 0.538325 0.576767
700 1 0.239498 0.318511 0.577978
701 2 0.765864 0.601463 0.628265
702 2 0.400637 0.0545023 0.607891
703 2 0.95179 0.211062 0.566453
704 2 0.0252986 0.934345 0.913302
705 2 0.123603 0.680318 0.652547
706 2 0.722472 0.609644 0.0261591
707 2 0.117974 0.431756 0.890296
708 1 0.567524 0.444985 0.390938
709 2 0.544808 0.269027 0.73739
710 2 0.086102 0.526417 0.608212
711 2 0.443909 0.565793 0.390471
712 1 0.0896603 0.444628 0.964039
713 2 0.881491 0.585567 0.421889
714 1 0.410907 0.626818 0.938349
715 2 0.0745256 0.0260815 0.570007
716 1 0.893398 0.278207 0.158162
717 2 0.78484 0.558486 0.31558
718 2 0.348303 0.698787 0.878666
719 2 0.345235 0.202303 0.05822
720 2 0.0391146 0.599748 0.23736
721 2 0.805065 0.634499 0.911814
722 1 0.854068 0.476339 0.843469
723 2 0.31772 0.491536 0.776893
724 2 0.128615 0.26124 0.609418
725 2 0.0658613 0.286652 0.533938
726 2 0.864671 0.499862 0.574469
727 1 0.328043 0.689501 0.492645
728 1 0.447871 0.621892 0.341834
729 1 0.155771 0.737703 0.694256
730 1 0.234134 0.751897 0.269956
731 2 0.0830207 0.637491 0.248031
732 1 0.153412 0.840977 0.114771
733 2 0.718769 0.897852 0.0940372
734 2 0.0475272 0.0874707 0.640694
735 2 0.242709 0.456729 0.54246
736 1 0.222978 0.816273 0.830843
737 2 0.303087 0.797358 0.492881
738 2 0.023342 0.943054 0.827407
739 2 0.722014 0.232873 0.0188395
740 2 0.61377 0.767861 0.67213
741 2 0.995785 0.851816 0.15746
742 1 0.532985 0.0231498 0.874408
743 2 0.160954 0.116224 0.476839
744 2 0.725336 0.451188 0.0238039
745 2 0.234629 0.00719633 0.950032
746 1 0.0669548 0.813793 0.776979
747 2 0.666009 0.535884 0.773292
748 2 0.237586 0.770157 0.467541
749 2 0.868282 0.853002 0.447074
750 2 0.727242 0.359469 0.618505
751 2 0.340955 0.25425 0.636142
752 2 0.467987 0.653302 0.340185
753 2 0.362548 0.225971 0.100769
754 2 0.833337 0.463317 0.664534
755 2 0.503601 0.0578124 0.164843
756 2 0.75678 0.960996 0.933673
757 2 0.313408 0.896237 0.000550957
758 2 0.578125 0.290623 0.33008
759 2 0.511299 0.327436 0.840126
760 1 0.84392 0.846715 0.829099
761 2 0.528046 0.190655 0.610152
762 2 0.0100807 0.757693 0.337999
763 1 0.0987758 0.604207 0.679736
764 2 0.658139 0.390264 0.569943
765 2 0.343427 0.307329 0.838131
766 2 0.0878817 0.965979 0.963656
767 2 0.937404 0.588219 0.0643263
768 2 0.939743 0.439827 0.499543
769 2 0.35794 0.857242 0.598277
770 2 0.717137 0.446098 0.186547
771 2 0.727196 0.814871 0.730994
772 2 0.197585 0.317973 0.400413
773 1 0.89335 0.332112 0.274436
774 2 0.863659 0.993347 0.502577
775 2 0.913955 0.891947 0.826439
776 2 0.649491 0.685625 0.167792
777 1 0.217138 0.913758 0.334753
778 2 0.548123 0.711487 0.750291
779 2 0.629054 0.0885398 0.493868
780 1 0.54782 0.526032 0.875328
781 2 0.840686 0.128318 0.659083
782 2 0.606083 0.124649 0.255267
783 1 0.0479366 0.360045 0.0970019
784 2 0.752992 0.655573 0.677681
785 2 0.76119 0.495883 0.159776
786 1 0.825162 0.448036 0.977323
787 2 0.48968 0.44128 0.852193
788 2 0.173192 0.932144 0.182288
789 2 0.139355 0.696061 0.382299
790 2 0.411563 0.824443 0.0782006
791 1 0.200889 0.825546 0.937374
792 2 0.326788 0.0670522 0.393695
793 2 0.0718936 0.355419 0.808622
794 2 0.657844 0.664225 0.334332
795 2 0.490565 0.192776 0.239629
796 2 0.621603 0.577963 0.539206
797 2 0.530747 0.200019 0.277255
798 2 0.0101821 0.327214 0.942427
799 2 0.539172 0.794413 0.0848769
800 2 0.68446 0.948197 0.325138
801 2 0.541972 0.300464 0.762287
802 2 0.790048 0.0223372 0.0882566
803 2 0.621319 0.813324 0.464058
804 2 0.885587 0.431773 0.564503
805 2 0.230097 0.633664 0.00722328
806 1 0.376854 0.26667 0.962037
807 2 0.786476 0.249167 0.502416
808 2 0.624486 0.42175 0.220752
809 1 0.464385 0.321252 0.0176854
810 2 0.330261 0.6846 0.940968
811 2 0.906732 0.258518 0.535142
812 2 0.430022 0.203819 0.886314
813 1 0.189234 0.307442 0.649827
814 2 0.569809 0.311451 0.742117
815 2 0.312831 0.465891 0.18164
816 1 0.214907 0.736702 0.953249
817 1 0.48953 0.722814 0.682643
818 2 0.218701 0.811315 0.17029
819 1 0.950349 0.696756 0.689141
820 1 0.800536 0.449984 0.318006
821 2 0.271641 0.919807 0.636968
822 2 0.135508 0.215777 0.420461
823 1 0.0711554 0.946765 0.808748
824 2 0.630834 0.0657077 0.603154
825 2 0.632892 0.245315 0.741838
826 2 0.366807 0.190627 0.859932
827 1 0.73907 0.622775 0.606502
828 2 0.525941 0.542258 0.405646
829 2 0.809192 0.406711 0.00618899
830 2 0.181012 0.177983 0.693685
831 1 0.0122925 0.963271 0.17912
832 2 0.163588 0.990652 0.0199376
833 1 0.731135 0.346229 0.906328
834 2 0.552922 0.554416 0.696074
835 2 0.527236 0.508626 0.539607
836 2 0.33619 0.320347 0.402871
837 2 0.992297 0.480915 0.20181
838 2 0.780313 0.252186 0.787271
839 2 0.714611 0.590474 0.240916
840 2 0.594042 0.163695 0.266087
841 2 0.452804 0.996517 0.271857
842 2 0.353528 0.876345 0.443322
843 2 0.350781 0.129229 0.142015
844 2 0.681701 0.523778 0.298309
845 2 0.590004 0.674173 0.91875
846 2 0.133973 0.250982 0.295303
847 2 0.193741 0.00582484 0.540047
848 2 0.112991 0.782942 0.199114
849 1 0.924663 0.911062 0.959755
850 2 0.0242843 0.856767 0.73546
851 2 0.861539 0.377999 -0.0044852
852 2 0.30452 0.732995 0.543811
853 1 0.480451 0.666942 0.273718
854 2 0.140299 0.00404435 0.959928
855 2 0.615679 0.0479883 0.570972
856 2 0.819201 0.380128 0.348294
857 2 0.0196643 0.958235 0.42673
858 2 0.538309 0.0771456 0.411697
859 2 0.0651982 0.314877 0.275442
860 2 0.420454 0.112611 0.485395
861 2 0.189392 0.552063 0.275417
862 2 0.716562 0.451744 0.602075
863 2 0.543291 0.571349 0.0571042
864 2 0.302812 0.0310618 0.294904
865 2 0.17446 0.211733 0.228246
866 2 0.929486 0.608328 0.658671
867 2 0.012989 0.662531 0.505289
868 2 0.738841 0.951748 0.535748
869 2 0.80091 0.843968 0.860783
870 2 0.72056 0.983726 0.31505
871 2 0.333851 0.651341 0.560206
872 2 0.504697 0.689881 0.732584
873 2 0.133 0.93675 0.847475
874 2 0.450985 0.990795 0.392984
875 2 0.308527 0.597754 0.929311
876 2 0.740789 0.105669 0.882701
877 2 0.78731 0.177021 0.9091
878 2 0.0399153 0.129598 0.422706
879 2 0.0825106 0.667275 0.922637
880 2 0.623768 0.966904 0.501444
881 2 0.676545 0.383278 0.921854
882 1 0.400088 0.621414 0.322336
883 1 0.937195 0.934774 0.281752
884 2 0.0418964 0.196625 0.295208
885 2 0.852197 0.408846 0.793992
886 2 0.7414 0.90473 0.0595475
887 1 0.535687 0.863604 0.956621
888 2 0.620671 0.283352 0.479371
889 2 0.0898316 0.396426 0.130379
890 1 0.792298 0.511833 0.816983
891 2 0.785884 0.552785 0.620047
892 2 0.397695 0.569674 0.351113
893 2 0.470567 0.221455 0.0483422
894 2 0.893109 0.19053 0.147464
895 1 0.947822 0.00569617 0.833056
896 2 0.0150185 0.626301 0.678186
897 2 0.615794 0.201689 0.858632
898 2 0.281456 0.600805 0.408066
899 2 0.536344 0.356577 0.631403
900 2 0.792927 0.490577 0.987604
901 2 0.505129 0.0493854 0.347096