ITEM: TIMESTEP
61600
ITEM: NUMBER OF ATOMS
1000
ITEM: BOX BOUNDS xy xz yz pp pp pp
0.0000000000000000e+00 1.3572088000000001e+01 0.0000000000000000e+00
0.0000000000000000e+00 1.3572088000000001e+01 0.0000000000000000e+00
0.0000000000000000e+00 1.3572088000000001e+01 0.0000000000000000e+00
ITEM: ATOMS id type xs ys zs
1 2 0.587404 0.432232 0.232557
2 2 0.883088 0.675573 0.631753
3 1 0.593401 0.863193 0.833695
4 2 0.255678 0.544865 0.687194
5 2 0.591272 0.884211 0.714766
6 1 0.634991 0.892963 0.666826
7 2 0.586868 0.902421 0.77941
8 2 0.804023 0.690413 0.630016
9 2 0.919938 0.0697142 0.312752
10 2 0.599533 0.907878 0.715518
11 2 0.814865 0.749492 0.665388
12 2 0.604844 0.846764 0.764243
13 2 0.854011 0.695331 0.676742
14 1 0.95167 0.528392 0.577023
15 2 0.85701 0.73936 0.631995
16 2 0.389434 0.537322 0.824922
17 1 0.841001 0.812805 0.629772
18 2 0.808929 0.742085 0.657174
19 2 0.517073 0.259245 0.558539
20 2 0.551422 0.865295 0.772885
21 2 0.61611 0.869942 0.703018
22 2 0.548077 0.699523 0.435396
23 2 0.336804 0.308953 0.124683
24 2 0.858232 0.654775 0.639706
25 1 0.98653 0.63931 0.274554
26 2 0.860292 0.729272 0.589929
27 2 0.622826 0.920545 0.781852
28 2 0.625862 0.895051 0.764309
29 2 0.0599479 0.703248 0.909898
30 2 0.539384 0.884748 0.738522
31 1 0.609132 0.790291 0.750342
32 1 0.659179 0.948259 0.730384
33 1 0.757973 0.783358 0.650493
34 2 0.816619 0.687952 0.681352
35 2 0.907226 0.656945 0.659072
36 1 0.565849 0.810097 0.731182
37 2 0.864203 0.715597 0.679888
38 2 0.591392 0.941311 0.769754
39 2 0.227087 0.644063 0.92786
40 2 0.616848 0.828862 0.755496
41 2 0.602701 0.889095 0.753669
42 2 0.598607 0.9169 0.783776
43 2 0.399918 0.67786 0.167123
44 2 0.46978 0.172827 0.365825
45 2 0.865053 0.738218 0.642687
46 1 0.588075 0.160334 0.120628
47 2 0.864876 0.701236 0.669501
48 2 0.612554 0.840084 0.767941
49 2 0.262393 0.621246 0.83071
50 2 0.832121 0.72449 0.690568
51 2 0.0296829 0.0325301 0.843424
52 2 0.774676 0.523157 0.76574
53 2 0.931631 0.0371761 0.18892
54 2 0.586697 0.832907 0.733241
55 1 0.87685 0.654413 0.720994
56 1 0.604756 0.798188 0.707009
57 2 0.60319 0.862203 0.769176
58 2 0.556843 0.886512 0.784316
59 2 0.896403 0.746202 0.619009
60 2 0.596693 0.914813 0.736866
61 2 0.678637 0.601141 0.260365
62 2 0.567226 0.896806 0.691654
63 2 0.853151 0.509628 0.51264
64 2 0.819605 0.75659 0.674009
65 2 0.839203 0.727681 0.613461
66 1 0.896479 0.792987 0.652525
67 2 0.556201 0.875304 0.778402
68 2 0.597595 0.907301 0.771566
69 1 0.568236 0.968369 0.758457
70 2 0.878991 0.741676 0.621381
71 1 0.568381 0.875354 0.665873
72 2 0.633186 0.31489 0.818351
73 2 0.547759 0.895755 0.745221
74 2 0.551567 0.859803 0.746744
75 2 0.0138993 0.0541854 0.987349
76 2 0.57275 0.891188 0.749293
77 1 0.9281 0.756469 0.654118
78 2 0.711553 0.0492735 0.650382
79 2 0.54412 0.897524 0.775841
80 2 0.340538 0.858599 0.868
81 2 0.540193 0.909723 0.740766
82 2 0.852255 0.71197 0.582939
83 2 0.632557 0.0938927 0.545568
84 2 0.568927 0.830588 0.752356
85 1 0.547805 0.793744 0.704436
86 2 0.835877 0.715188 0.610279
87 2 0.587017 0.879754 0.696078
88 2 0.863177 0.716794 0.605426
89 2 0.65527 0.993483 0.850517
90 2 0.614537 0.868992 0.793613
91 2 0.722157 0.434714 0.155534
92 2 0.886194 0.753095 0.640993
93 2 0.809184 0.708273 0.661539
94 1 0.0910539 0.953371 0.354268
95 2 0.0687795 0.737239 0.0147865
96 2 0.589486 0.945668 0.753465
97 2 0.826958 0.650949 0.711931
98 2 0.898451 0.669859 0.911786
99 2 0.287034 0.390882 0.64584
100 2 0.759785 0.141114 0.581142
101 1 0.51048 0.532816 0.471501
102 2 0.382132 0.613262 0.457242
103 2 0.885121 0.698121 0.66291
104 2 0.579301 0.870082 0.780033
105 2 0.804199 0.722279 0.631462
106 2 0.135062 0.612112 0.589204
107 2 0.394696 0.75032 0.947118
108 2 0.833068 0.747277 0.587363
109 2 0.842161 0.7024 0.603199
110 2 0.641346 0.886431 0.770634
111 2 0.0457663 0.621615 0.333671
112 1 0.802621 0.716222 0.567112
113 1 0.76283 0.706238 0.589439
114 2 0.889142 0.709161 0.673875
115 2 0.297728 0.110402 0.601687
116 2 0.851053 0.695851 0.687617
117 2 0.725345 0.323278 0.945984
118 2 0.828506 0.707116 0.64247
119 2 0.595997 0.619013 0.974312
120 2 0.847237 0.742891 0.615571
121 2 0.573499 0.875339 0.769253
122 2 0.582708 0.877399 0.730372
123 2 0.856455 0.723335 0.646236
124 2 0.821022 0.740232 0.635219
125 1 0.930893 0.739076 0.624463
126 2 0.587783 0.900976 0.725371
127 2 0.856851 0.763333 0.656124
128 2 0.65565 0.975345 0.609105
129 1 0.373882 0.889438 0.0441879
130 2 0.722968 0.933818 0.302881
131 2 0.602928 0.877285 0.700087
132 2 0.616963 0.876757 0.71958
133 2 0.861162 0.683915 0.665777
134 2 0.153492 0.594781 0.553349
135 2 0.639729 0.933299 0.758393
136 2 0.898523 0.756106 0.657984
137 1 0.536909 0.874346 0.698143
138 2 0.592364 0.895351 0.764587
139 2 0.607629 0.885815 0.740041
140 1 0.84197 0.76694 0.540564
141 2 0.856622 0.753481 0.621853
142 2 0.793601 0.75693 0.643182
143 2 0.612937 0.461844 0.989904
144 2 0.83774 0.393613 0.85067
145 2 0.911889 0.698131 0.63055
146 2 0.574595 0.920507 0.777519
147 1 0.327414 0.139331 0.411128
148 1 0.791743 0.681233 0.567335
149 2 0.580913 0.840399 0.752792
150 1 0.889568 0.628712 0.646756
151 2 0.584416 0.873759 0.7394
152 2 0.851704 0.726972 0.615782
153 1 0.815379 0.783322 0.601723
154 1 0.275908 0.745437 0.359246
155 2 0.80056 0.395566 0.51897
156 2 0.871707 0.774687 0.612393
157 2 0.00517441 0.671337 0.614828
158 2 0.950753 0.230709 0.859649
159 2 0.612042 0.941103 0.736436
160 2 0.599548 0.894831 0.738108
161 2 0.570213 0.851846 0.757731
162 2 0.637588 0.912411 0.720976
163 2 0.610771 0.859609 0.795967
164 2 0.87581 0.697199 0.643776
165 2 0.857267 0.770745 0.646096
166 2 0.589943 0.907706 0.73387
167 2 0.447702 0.872174 0.17708
168 2 0.629345 0.845263 0.757305
169 2 0.918392 0.0693405 0.907977
170 2 0.818237 0.0137008 0.899549
171 2 0.860852 0.680341 0.600486
172 2 0.325762 0.0954024 0.328951
173 1 0.760732 0.714477 0.663281
174 2 0.574185 0.869645 0.722005
175 2 0.477639 0.225853 0.318483
176 2 0.577978 0.909432 0.791158
177 1 0.374128 0.14924 0.948003
178 2 0.859888 0.444562 0.35755
179 2 0.530706 0.5715 0.190662
180 2 0.862302 0.708362 0.627659
181 2 0.645126 0.889338 0.72908
182 2 0.733421 0.0756573 0.732419
183 2 0.288505 0.411686 0.0154912
184 2 0.575374 0.928272 0.706893
185 2 0.838979 0.749442 0.66881
186 2 0.811026 0.694184 0.628976
187 2 0.735568 0.234563 0.0370036
188 1 0.619722 0.951082 0.792523
189 2 0.593197 0.861118 0.743525
190 2 0.860368 0.737872 0.627795
191 2 0.619412 0.895635 0.754392
192 2 0.583161 0.912992 0.715679
193 2 0.611662 0.856604 0.722997
194 2 0.0232739 0.829666 0.443141
195 2 0.58246 0.858396 0.700569
196 2 0.56859 0.873353 0.749954
197 2 0.895852 0.69465 0.63615
198 2 0.881186 0.64025 0.921231
199 2 0.901623 0.261918 0.174121
200 1 0.896089 0.691855 0.69857
201 2 0.694256 0.278792 0.952664
202 2 0.770298 0.310439 0.0585712
203 2 0.548436 0.91684 0.759576
204 2 0.654516 0.963469 0.940403
205 2 0.59355 0.944972 0.734171
206 2 0.50708 0.977167 0.0317464
207 2 0.0895721 0.12549 0.420724
208 2 0.955597 0.258942 0.434016
209 2 0.854181 0.704232 0.647444
210 2 0.843874 0.712745 0.616603
211 2 0.579062 0.416075 0.563448
212 1 0.607849 0.865459 0.662203
213 2 0.836636 0.668107 0.6647
214 2 0.811583 0.726883 0.660865
215 2 0.821838 0.683027 0.650298
216 2 0.611656 0.873869 0.725871
217 2 0.593026 0.882354 0.776948
218 2 0.359899 0.0860729 0.744507
219 2 0.593772 0.915083 0.690901
220 2 0.857104 0.744901 0.696844
221 2 0.80779 0.70573 0.604444
222 2 0.898921 0.880744 0.123538
223 2 0.866998 0.668355 0.638119
224 2 0.572263 0.903186 0.770345
225 1 0.911109 0.769027 0.688585
226 2 0.552625 0.849184 0.772285
227 2 0.573009 0.84606 0.735707
228 2 0.881301 0.752204 0.625494
229 2 0.578869 0.907325 0.753966
230 1 0.802327 0.815484 0.584364
231 2 0.625026 0.893657 0.712244
232 2 0.843932 0.721837 0.624237
233 1 0.836685 0.628907 0.629415
234 2 0.897235 0.726753 0.636473
235 2 0.857787 0.675983 0.666426
236 2 0.58157 0.913124 0.699099
237 2 0.134394 0.384199 0.910165
238 1 0.578418 0.317323 0.652026
239 1 0.766916 0.700533 0.627111
240 2 0.849874 0.692838 0.658251
241 2 0.543216 0.868077 0.756698
242 1 0.918775 0.678591 0.670046
243 1 0.938915 0.710589 0.657055
244 2 0.896279 0.728824 0.657105
245 2 0.086417 0.817761 0.187099
246 1 0.64087 0.899247 0.821221
247 2 0.810295 0.734487 0.692025
248 2 0.658297 0.96306 0.5726
249 2 0.603523 0.886337 0.80476
250 2 0.606013 0.913261 0.77052
251 2 0.645561 0.931455 0.830997
252 2 0.613332 0.626004 0.234633
253 2 0.311905 0.279849 0.386022
254 2 0.452938 0.960786 0.596696
255 2 0.652377 0.895039 0.761563
256 2 0.618287 0.848738 0.734083
257 2 0.618136 0.927927 0.742332
258 2 0.87897 0.716359 0.647597
259 1 0.585494 0.249725 0.289373
260 2 0.821989 0.692533 0.592698
261 1 0.668485 0.856645 0.755637
262 2 0.469782 0.0817765 0.470198
263 2 0.826908 0.734813 0.64336
264 2 0.852967 0.0434623 0.382656
265 1 0.801603 0.823474 0.672866
266 2 0.829291 0.765019 0.623162
267 2 0.608297 0.835893 0.732825
268 1 0.567341 0.831042 0.856336
269 1 0.173544 0.0685616 0.196499
270 2 0.0674835 0.315649 0.0414656
271 2 0.109328 0.942828 0.308819
272 2 0.252735 0.397355 0.0845186
273 1 0.842714 0.794798 0.663598
274 2 0.801932 0.740928 0.626013
275 2 0.832004 0.683799 0.627687
276 2 0.584844 0.858504 0.773753
277 2 0.86882 0.712361 0.64292
278 2 0.0823789 0.0264151 0.388592
279 2 0.603617 0.935048 0.706721
280 1 0.51085 0.855917 0.78346
281 2 0.470346 0.238646 0.249847
282 2 0.593877 0.895674 0.751696
283 2 0.0194638 0.250316 0.304221
284 1 0.642505 0.837681 0.679572
285 2 0.597997 0.928142 0.753354
286 2 0.540881 0.878155 0.721544
287 1 0.913488 0.229226 0.274643
288 2 0.602625 0.903831 0.737511
289 2 0.844352 0.753767 0.65494
290 2 0.85667 0.771238 0.596657
291 2 0.848621 0.773044 0.609139
292 2 0.232844 0.718472 0.758731
293 2 0.826615 0.713509 0.635314
294 2 0.795092 0.729083 0.662925
295 2 0.8062 0.721237 0.671255
296 2 0.645737 0.744317 0.105152
297 2 0.567405 0.906478 0.727867
298 2 0.876281 0.722365 0.61991
299 1 0.655178 0.83507 0.794955
300 2 0.552137 0.903688 0.732448
301 2 0.613054 0.919375 0.799829
302 2 0.548599 0.548285 0.387502
303 2 0.60549 0.882487 0.784218
304 1 0.946506 0.819065 0.186361
305 2 0.56771 0.872791 0.712651
306 2 0.630437 0.917295 0.776354
307 2 0.744396 0.945667 0.046472
308 2 0.491778 0.622369 0.936897
309 2 0.792055 0.705139 0.660171
310 2 0.797492 0.737973 0.606084
311 2 0.873662 0.762202 0.614861
312 2 0.599937 0.92174 0.770203
313 2 0.828298 0.73677 0.66003
314 2 0.53771 0.698599 0.728789
315 2 0.87387 0.718479 0.665745
316 2 0.826805 0.687766 0.665615
317 2 0.615071 0.858533 0.745726
318 2 0.0921542 0.315741 0.443905
319 2 0.828747 0.699908 0.609413
320 2 0.824362 0.717965 0.662566
321 2 0.831424 0.777549 0.624597
322 2 0.863402 0.777992 0.637997
323 2 0.704995 0.354739 0.622518
324 2 0.530503 0.098214 0.759394
325 2 0.858729 0.74299 0.60618
326 2 0.599708 0.898424 0.692619
327 2 0.676498 0.61845 0.0481599
328 2 0.836081 0.725547 0.666096
329 1 0.123449 0.914302 0.642104
330 2 0.862248 0.722221 0.618941
331 2 0.847093 0.71899 0.641757
332 2 0.629637 0.887946 0.721543
333 2 0.807125 0.188947 0.509157
334 2 0.600196 0.940398 0.722213
335 1 0.302151 0.705642 0.74602
336 2 0.811637 0.691776 0.650433
337 2 0.604225 0.363388 0.228419
338 1 0.516157 0.907158 0.719989
339 2 0.845217 0.736001 0.680573
340 2 0.996064 0.287202 0.056319
341 2 0.558327 0.898897 0.703019
342 2 0.82769 0.737628 0.647574
343 2 0.870933 0.724732 0.632979
344 1 0.537558 0.940261 0.833586
345 1 0.83676 0.65095 0.573404
346 1 0.536626 0.868295 0.637211
347 1 0.84074 0.36687 0.987396
348 2 0.0776477 0.0135992 0.913072
349 2 0.860331 0.538794 0.443229
350 2 0.394386 0.289813 0.459597
351 2 0.819319 0.738438 0.583258
352 2 0.203914 0.117931 0.228079
353 1 0.898514 0.709936 0.56283
354 1 0.0686629 0.988798 0.204627
355 2 0.196137 0.746418 0.926386
356 2 0.853345 0.768253 0.672333
357 2 0.11538 0.299262 0.809479
358 2 0.153906 0.140618 0.478174
359 2 0.214919 0.407021 0.163326
360 2 0.600338 0.871315 0.747659
361 1 0.550299 0.961449 0.79078
362 2 0.136322 0.140382 0.501499
363 1 0.666079 0.908494 0.710794
364 2 0.604583 0.925579 0.702903
365 2 0.83948 0.690795 0.626756
366 2 0.81084 0.745772 0.608393
367 1 0.560358 0.58711 0.585324
368 1 0.54176 0.929745 0.790407
369 2 0.9467 0.495762 0.317197
370 2 0.971887 0.736131 0.156083
371 2 0.819506 0.678015 0.622266
372 1 0.80706 0.926258 0.660524
373 2 0.886909 0.148888 0.885469
374 2 0.222678 0.455888 0.191145
375 2 0.632596 0.927814 0.729374
376 2 0.580256 0.746505 0.934677
377 2 0.0356627 0.503017 0.0969179
378 2 0.582724 0.865325 0.741512
379 2 0.889923 0.738063 0.620497
380 2 0.601855 0.842178 0.753441
381 2 0.596607 0.890515 0.773614
382 2 0.879567 0.301891 0.424867
383 2 0.853259 0.702025 0.788767
384 1 0.201594 0.378575 0.935111
385 2 0.822375 0.71219 0.59637
386 2 0.209573 0.972949 0.120085
387 1 0.536127 0.689063 0.0461051
388 2 0.605734 0.916745 0.741827
389 2 0.860509 0.729321 0.679829
390 2 0.610547 0.939466 0.765489
391 2 0.680212 0.664212 0.857146
392 1 0.78797 0.751052 0.685349
393 2 0.460714 0.701651 0.0743403
394 2 0.595315 0.88182 0.758743
395 2 0.602147 0.883158 0.705455
396 2 0.617143 0.910704 0.728104
397 2 0.858528 0.66996 0.616454
398 1 0.669468 0.446714 0.746241
399 1 0.831549 0.65098 0.68579
400 1 0.978188 0.720501 0.340118
401 2 0.569673 0.886722 0.725602
402 2 0.626366 0.210076 0.555338
403 2 0.755355 0.680103 0.334443
404 2 0.874756 0.696019 0.653562
405 2 0.479544 0.185331 0.0382286
406 2 0.592989 0.845252 0.734643
407 2 0.595729 0.769422 0.411863
408 2 0.828297 0.712359 0.609635
409 2 0.627747 0.945271 0.754037
410 2 0.833254 0.707029 0.672335
411 2 0.595706 0.212744 0.241695
412 2 0.999127 0.410576 0.370688
413 2 0.854866 0.691236 0.617281
414 2 0.0633077 0.929004 0.499967
415 2 0.567348 0.857563 0.717771
416 1 0.804208 0.765797 0.56803
417 2 0.181691 0.920496 0.934912
418 2 0.638883 0.870039 0.714372
419 2 0.73693 0.994455 0.887696
420 2 0.172704 0.799237 0.843773
421 1 0.587969 0.91622 0.664364
422 1 0.620248 0.807615 0.787081
423 2 0.635566 0.862504 0.77882
424 2 0.567009 0.88709 0.777312
425 1 0.546 0.924922 0.684408
426 2 0.0218861 0.450749 0.385725
427 2 0.667662 0.542988 0.957482
428 2 0.110507 0.109413 0.90625
429 2 0.565739 0.913716 0.783461
430 2 0.811838 0.756658 0.620105
431 2 0.815312 0.720511 0.614963
432 1 0.674413 0.883646 0.789203
433 2 0.795997 0.369546 0.480908
434 1 0.213622 0.0945245 0.523593
435 2 0.870685 0.564007 0.103782
436 2 0.874844 0.677547 0.649503
437 2 0.814112 0.37137 0.858229
438 2 0.152989 0.744187 0.303589
439 1 0.556605 0.83605 0.804775
440 2 0.841075 0.743522 0.636321
441 1 0.656538 0.960069 0.10539
442 1 0.937504 0.66976 0.616409
443 1 0.00950474 0.541038 0.0630481
444 2 0.8549 0.688653 0.636767
445 2 0.292039 0.728439 0.68158
446 2 0.617728 0.993307 0.667898
447 2 0.877887 0.672837 0.660291
448 2 0.874378 0.102603 0.482275
449 1 0.769752 0.293389 0.123279
450 2 0.807609 0.703008 0.620479
451 2 0.601357 0.851015 0.740815
452 2 0.598332 0.862373 0.758679
453 1 0.683156 0.895299 0.73915
454 2 0.82602 0.729437 0.608298
455 2 0.44207 0.4823 0.222541
456 2 0.916787 0.333609 0.811254
457 2 0.631529 0.84856 0.735483
458 2 0.584279 0.855198 0.762689
459 2 0.626746 0.896242 0.790796
460 2 0.881584 0.697047 0.62259
461 2 0.498648 0.321779 0.786457
462 2 0.83639 0.72294 0.650391
463 1 0.801171 0.597491 0.623724
464 2 0.342673 0.923225 0.420193
465 2 0.560497 0.884685 0.741296
466 2 0.875354 0.721248 0.614355
467 1 0.596535 0.979213 0.783915
468 2 0.301817 0.201243 0.870263
469 2 0.870084 0.773466 0.650019
470 2 0.632456 0.876985 0.732838
471 2 0.844675 0.68307 0.6719
472 2 0.858779 0.732083 0.658416
473 1 0.79026 0.729627 0.72519
474 1 0.490923 0.264851 0.330656
475 1 0.115366 0.332393 0.62157
476 2 0.653168 0.878837 0.747244
477 2 0.570055 0.88967 0.707948
478 2 0.884676 0.741484 0.604112
479 2 0.990969 0.925382 0.339548
480 2 0.549295 0.925952 0.721304
481 2 0.865115 0.739104 0.655377
482 2 0.727265 0.933367 0.165739
483 2 0.85037 0.703207 0.616602
484 1 0.831649 0.687903 0.554847
485 1 0.646148 0.982528 0.761052
486 2 0.807272 0.690851 0.612382
487 2 0.292258 0.755716 0.441362
488 2 0.87532 0.703368 0.660567
489 2 0.881747 0.686151 0.620433
490 2 0.852288 0.760833 0.622823
491 2 0.827428 0.673204 0.638429
492 2 0.862004 0.754029 0.66299
493 2 0.903307 0.707711 0.626665
494 2 0.584787 0.923945 0.73081
495 2 0.599309 0.898119 0.785733
496 2 0.866499 0.702413 0.614168
497 2 0.726378 0.552336 0.161593
498 1 0.752922 0.738108 0.699316
499 2 0.608608 0.872733 0.760139
500 2 0.347802 0.179162 0.611491
501 1 0.793592 0.658354 0.673433
502 2 0.843092 0.674872 0.607186
503 2 0.826366 0.748065 0.623876
504 1 0.530339 0.837807 0.706075
505 2 0.856844 0.762528 0.64092
506 2 0.869416 0.705944 0.623305
507 2 0.585329 0.927016 0.724016
508 2 0.578149 0.892458 0.744235
509 1 0.659711 0.932112 0.793587
510 2 0.813818 0.687688 0.636542
511 2 0.588386 0.933775 0.796049
512 2 0.833733 0.703378 0.655095
513 1 0.23872 0.904299 0.327295
514 2 0.585567 0.921321 0.751436
515 1 0.563743 0.802083 0.775132
516 2 0.622013 0.898585 0.705297
517 1 0.777581 0.669634 0.610451
518 2 0.831895 0.71992 0.70543
519 2 0.605452 0.894775 0.721068
520 2 0.578046 0.946775 0.730971
521 2 0.0921353 0.403134 0.300549
522 2 0.0274057 0.893784 0.374701
523 2 0.813057 0.727931 0.630651
524 2 0.409408 0.0493672 0.681869
525 2 0.821438 0.754093 0.610738
526 2 0.644751 0.586278 0.27706
527 2 0.82244 0.750197 0.601963
528 1 0.495781 0.444064 0.367181
529 2 0.853074 0.741566 0.687572
530 2 0.840261 0.764098 0.609504
531 2 0.590988 0.863288 0.790305
532 2 0.598075 0.880814 0.733052
533 2 0.525923 0.802944 0.0991167
534 1 0.576287 0.954303 0.703137
535 2 0.850833 0.73736 0.644366
536 1 0.771829 0.733573 0.566422
537 1 0.608251 0.963258 0.686479
538 2 0.519851 0.427892 0.888068
539 2 0.899489 0.722225 0.621013
540 2 0.539144 0.527962 0.12893
541 1 0.791971 0.643838 0.643908
542 2 0.59871 0.847167 0.781133
543 1 0.234124 0.187467 0.405824
544 1 0.88004 0.644959 0.596396
545 2 0.876942 0.715681 0.684084
546 2 0.888774 0.744899 0.676821
547 2 0.229792 0.160961 0.545777
548 2 0.64281 0.859984 0.735372
549 2 0.609033 0.868472 0.775144
550 2 0.683957 0.205557 0.37498
551 1 0.869979 0.77816 0.69795
552 2 0.237787 0.88731 0.85061
553 2 0.836914 0.703442 0.691588
554 2 0.632993 0.865767 0.711996
555 1 0.934795 0.321384 0.019912
556 2 0.589989 0.392515 0.105458
557 2 0.833361 0.751933 0.649871
558 1 0.874729 0.830588 0.669692
559 2 0.871074 0.683402 0.611168
560 2 0.565153 0.883138 0.726244
561 2 0.849274 0.667784 0.641291
562 1 0.881376 0.756626 0.571489
563 2 0.875478 0.753689 0.636543
564 2 0.225422 0.456053 0.0738266
565 2 0.83923 0.730766 0.597363
566 2 0.657031 0.106304 0.549039
567 2 0.886795 0.725383 0.600948
568 2 0.882093 0.732839 0.662609
569 1 0.737765 0.764837 0.587284
570 2 0.887701 0.737398 0.647382
571 2 0.165672 0.357943 0.699576
572 2 0.565193 0.870756 0.793581
573 2 0.858873 0.697088 0.598783
574 2 0.590512 0.489489 0.0171096
575 1 0.365691 0.830308 0.461663
576 2 0.838265 0.668778 0.624469
577 2 0.63382 0.910112 0.73198
578 1 0.61965 0.887825 0.843892
579 2 0.611947 0.924272 0.725077
580 1 0.741134 0.124186 0.521928
581 2 0.770999 0.14811 0.259244
582 2 0.602012 0.850117 0.718413
583 1 0.860701 0.309513 0.459648
584 2 0.631341 0.921985 0.758635
585 1 0.826277 0.800133 0.717515
586 2 0.825935 0.768991 0.639425
587 2 0.589541 0.871454 0.724469
588 2 0.828093 0.634137 0.284723
589 1 0.664674 0.814977 0.756253
590 1 0.498762 0.877465 0.70227
591 1 0.665082 0.845724 0.716075
592 2 0.380125 0.597582 0.910194
593 2 0.600038 0.877986 0.724199
594 1 0.973757 0.857457 0.0190421
595 1 0.771717 0.314854 0.884629
596 2 0.0697157 0.96086 0.431134
597 1 0.583499 0.531412 0.990051
598 2 0.612058 0.903418 0.78609
599 2 0.811027 0.718838 0.621521
600 2 0.0750054 0.491821 0.0207367
601 2 0.823909 0.763789 0.657734
602 1 0.888975 0.764382 0.534043
603 2 0.787671 0.715764 0.633486
604 1 0.880264 0.303857 0.710803
605 2 0.677466 0.521941 0.393988
606 2 0.398529 0.859228 0.0926592
607 1 0.838663 0.755948 0.716099
608 2 0.900597 0.648976 0.895059
609 2 0.809538 0.72765 0.59216
610 2 0.872223 0.754422 0.594168
611 2 0.572662 0.93263 0.766804
612 1 0.698912 0.82834 0.408499
613 2 0.311797 0.250459 0.675539
614 1 0.682101 0.995178 0.148437
615 2 0.352102 0.92315 0.466875
616 1 0.509844 0.872445 0.749902
617 2 0.578747 0.922709 0.762237
618 2 0.523908 0.436368 0.945548
619 2 0.217883 0.00104995 0.393873
620 2 0.138296 0.263059 0.993084
621 2 0.864779 0.702418 0.630978
622 2 0.848542 0.70302 0.639029
623 1 0.368533 0.386662 0.314804
624 2 0.623256 0.909419 0.71042
625 2 0.104574 0.409156 0.780294
626 2 0.18665 0.228553 0.531142
627 2 0.568939 0.867304 0.738021
628 2 0.529855 0.0923499 0.467902
629 2 0.205458 0.420617 0.859028
630 1 0.803029 0.777735 0.695856
631 2 0.0971434 0.668313 0.717919
632 2 0.832247 0.721799 0.656812
633 2 0.633121 0.855332 0.761804
634 2 0.200588 0.858674 0.363408
635 2 0.301418 0.281619 0.856272
636 2 0.568676 0.914694 0.768027
637 2 0.633018 0.883192 0.782556
638 1 0.691316 0.152787 0.391003
639 2 0.582205 0.885751 0.750586
640 2 0.610172 0.854878 0.771422
641 2 0.837245 0.714519 0.586145
642 2 0.840946 0.693792 0.653063
643 2 0.366602 0.775313 0.238328
644 2 0.555155 0.882152 0.759369
645 1 0.665731 0.882589 0.684412
646 2 0.574428 0.894838 0.735413
647 1 0.642944 0.692378 0.895112
648 2 0.77215 0.755135 0.220879
649 2 0.798374 0.707715 0.685126
650 2 0.615376 0.927506 0.759125
651 2 0.875143 0.742215 0.605809
652 2 0.885145 0.730139 0.630337
653 2 0.830589 0.749817 0.637079
654 1 0.859837 0.620481 0.675367
655 2 0.0361545 0.833552 0.316793
656 2 0.561198 0.900863 0.754291
657 2 0.702924 0.116615 0.203218
658 2 0.883989 0.755831 0.655019
659 2 0.588295 0.869665 0.763712
660 2 0.974475 0.311144 0.145253
661 1 0.457593 0.583069 0.592201
662 2 0.855876 0.715892 0.669224
663 2 0.606451 0.927204 0.744187
664 1 0.389839 0.922336 0.502947
665 2 0.975028 0.170784 0.730938
666 2 0.579986 0.874558 0.712935
667 2 0.53753 0.90399 0.766596
668 2 0.574265 0.898117 0.779943
669 2 0.446204 0.4886 0.469213
670 1 0.133075 0.0032176 0.619894
671 2 0.503805 0.218442 0.391923
672 1 0.854256 0.726783 0.552077
673 2 0.876033 0.698446 0.680088
674 2 0.652787 0.877826 0.655806
675 2 0.786057 0.781341 0.112711
676 1 0.109216 0.0790303 0.970734
677 2 0.600085 0.892819 0.79496
678 2 0.623096 0.889119 0.740155
679 1 0.954737 0.118549 0.662604
680 2 0.603855 0.865557 0.699115
681 1 0.812455 0.647693 0.601393
682 1 0.774956 0.685943 0.686227
683 2 0.52945 0.0298372 0.1849
684 2 0.143615 0.13053 0.601929
685 2 0.577657 0.8453 0.715463
686 2 0.828666 0.15581 0.0768639
687 1 0.590217 0.817252 0.803502
688 2 0.409872 0.106206 0.430887
689 2 0.85762 0.71946 0.665244
690 2 0.82798 0.691966 0.675163
691 2 0.603927 0.913025 0.754516
692 1 0.611291 0.972111 0.740715
693 2 0.0323188 0.575026 0.496659
694 2 0.583551 0.880494 0.760007
695 1 0.539768 0.947949 0.734114
696 2 0.643387 0.0223907 0.160113
697 2 0.44013 0.0877342 0.599546
698 2 0.801963 0.742849 0.632451
699 2 0.800904 0.728558 0.643081
700 1 0.550278 0.890021 0.852554
701 2 0.818525 0.715616 0.678087
702 2 0.646332 0.900007 0.740367
703 2 0.617515 0.523383 0.796113
704 2 0.628212 0.608005 0.195047
705 2 0.82191 0.74337 0.683686
706 2 0.87831 0.685969 0.663933
707 2 0.33912 0.716314 0.847143
708 1 0.885482 0.73275 0.718915
709 2 0.862484 0.494936 0.257521
710 2 0.849442 0.727163 0.669777
711 2 0.576501 0.87323 0.705055
712 1 0.917803 0.726676 0.690515
713 2 0.836261 0.693494 0.597494
714 1 0.919038 0.780051 0.618519
715 2 0.572342 0.902335 0.740895
716 1 0.168991 0.226534 0.422433
717 2 0.578486 0.888831 0.771612
718 2 0.833374 0.111234 0.225954
719 2 0.838083 0.699079 0.641366
720 2 0.229691 0.740791 0.615342
721 2 0.607722 0.91623 0.704942
722 1 0.160711 0.601352 0.617614
723 2 0.211236 0.276843 0.16589
724 2 0.590299 0.905396 0.799817
725 2 0.137154 0.975835 0.187432
726 2 0.82438 0.726785 0.585403
727 1 0.779325 0.262864 0.0329062
728 1 0.0156771 0.0454838 0.0296597
729 1 0.68093 0.935204 0.758693
730 1 0.650955 0.956987 0.690943
731 2 0.851902 0.716233 0.694858
732 1 0.46455 0.426719 0.64407
733 2 0.8868 0.0839978 0.414965
734 2 0.559544 0.904474 0.794855
735 2 0.874455 0.731125 0.678938
736 1 0.704103 0.853217 0.707002
737 2 0.635177 0.868466 0.791
738 2 0.898311 0.184685 0.801835
739 2 0.612697 0.910324 0.75491
740 2 0.890592 0.619331 0.887375
741 2 0.577534 0.931399 0.757826
742 1 0.542482 0.979828 0.699593
743 2 0.833816 0.708126 0.658888
744 2 0.858148 0.686631 0.631305
745 2 0.571502 0.939016 0.742106
746 1 0.834857 0.670246 0.724352
747 2 0.147327 0.0622006 0.512237
748 2 0.812875 0.677444 0.649602
749 2 0.833432 0.741708 0.682282
750 2 0.151546 0.346016 0.0240765
751 2 0.605581 0.913902 0.790821
752 2 0.604782 0.898094 0.761069
753 2 0.805624 0.749563 0.131577
754 2 0.501765 0.103923 0.403232
755 2 0.589549 0.843122 0.795517
756 2 0.85517 0.749969 0.583102
757 2 0.788578 0.715034 0.650058
758 2 0.382548 0.940587 0.248206
759 2 0.584614 0.933201 0.782327
760 1 0.431437 0.650848 0.264559
761 2 0.623175 0.879388 0.771929
762 2 0.565459 0.856707 0.78436
763 1 0.691941 0.719428 0.286528
764 2 0.579472 0.858969 0.750784
765 2 0.555275 0.872227 0.736787
766 2 0.864948 0.75296 0.599885
767 2 0.581936 0.378666 0.185707
768 2 0.368505 0.560051 0.12577
769 2 0.814244 0.731533 0.616358
770 2 0.873558 0.747005 0.654725
771 2 0.0767075 0.984308 0.992918
772 2 0.416852 0.348426 0.621434
773 1 0.845695 0.740846 0.755543
774 2 0.196073 0.909677 0.319157
775 2 0.036922 0.63677 0.209084
776 2 0.844343 0.673795 0.598176
777 1 0.551477 0.87049 0.821872
778 2 0.873713 0.765155 0.63118
779 2 0.669125 0.684887 0.384915
780 1 0.907697 0.682461 0.592829
781 2 0.573524 0.919212 0.741246
782 2 0.0805729 0.984055 0.90266
783 1 0.528832 0.831405 0.745876
784 2 0.871916 0.712286 0.636599
785 2 0.862516 0.702537 0.585012
786 1 0.758276 0.735422 0.623423
787 2 0.818779 0.713317 0.688585
788 2 0.811929 0.742121 0.644422
789 2 0.374541 0.263964 0.966264
790 2 0.590944 0.932285 0.742883
791 1 0.80184 0.686106 0.708955
792 2 0.848921 0.734803 0.660218
793 2 0.488338 0.708636 0.937835
794 2 0.780172 0.513047 0.737984
795 2 0.59952 0.893601 0.723492
796 2 0.518663 0.940018 0.177084
797 2 0.836918 0.727847 0.618582
798 2 0.226788 0.609853 0.561195
799 2 0.612268 0.886648 0.749132
800 2 0.318681 0.423872 0.36078
801 2 0.565861 0.922975 0.740602
802 2 0.548983 0.931744 0.750805
803 2 0.864072 0.752957 0.683071
804 2 0.865445 0.229021 0.988654
805 2 0.89608 0.133859 0.212779
806 1 0.916654 0.953853 0.686009
807 2 0.635737 0.87557 0.77064
808 2 0.637216 0.984973 0.799837
809 1 0.859004 0.701636 0.733342
810 2 0.612087 0.866847 0.738502
811 2 0.834531 0.696802 0.629226
812 2 0.823562 0.698338 0.665148
813 1 0.73519 0.995702 0.0918387
814 2 0.889068 0.691722 0.649932
815 2 0.841977 0.711012 0.637992
816 1 0.866965 0.677537 0.568781
817 1 0.535674 0.997527 0.755449
818 2 0.863733 0.720864 0.653057
819 1 0.87139 0.802464 0.609478
820 1 0.585351 0.912038 0.827454
821 2 0.554193 0.915605 0.730355
822 2 0.568653 0.926025 0.717331
823 1 0.921972 0.717498 0.587209
824 2 0.60559 0.452652 0.708468
825 2 0.834801 0.742076 0.604651
826 2 0.803756 0.40626 0.705783
827 1 0.754871 0.149337 0.663158
828 2 0.906186 0.723969 0.655263
829 2 0.802888 0.682276 0.654772
830 2 0.436342 0.0210877 0.211219
831 1 0.560177 0.834353 0.673906
832 2 0.677139 0.89404 0.850822
833 1 0.913291 0.765338 0.576992
834 2 0.8272 0.69747 0.621354
835 2 0.409394 0.416701 0.568828
836 2 0.846315 0.765229 0.671267
837 2 0.134129 0.691451 0.245638
838 2 0.635926 0.912896 0.750853
839 2 0.368126 0.429711 0.92453
840 2 0.577532 0.885549 0.798341
841 2 0.834465 0.769773 0.6484
842 2 0.372781 0.961076 0.245208
843 2 0.84093 0.713134 0.631017
844 2 0.832436 0.681879 0.649237
845 2 0.790922 0.726382 0.615366
846 2 0.823401 0.728099 0.677379
847 2 0.847859 0.679226 0.637735
848 2 0.739375 0.269003 0.968668
849 1 0.579217 0.951591 0.820433
850 2 0.87326 0.718871 0.596811
851 2 0.580902 0.906869 0.760743
852 2 0.569054 0.886548 0.754825
853 1 0.296848 0.0517563 0.809527
854 2 0.418271 0.995021 0.669663
855 2 0.852486 0.681858 0.689231
856 2 0.850158 0.66496 0.627552
857 2 0.552502 0.852974 0.730943
858 2 0.891275 0.712759 0.634052
859 2 0.847044 0.710122 0.595227
860 2 0.710734 0.278543 0.381464
861 2 0.885655 0.727737 0.634981
862 2 0.0809636 0.498844 0.0868163
863 2 0.632817 0.871548 0.738041
864 2 0.574587 0.916946 0.797898
865 2 0.837766 0.758575 0.678521
866 2 0.817729 0.709269 0.633187
867 2 0.706461 0.126029 0.153901
868 2 0.0952971 0.0471004 0.690151
869 2 0.850884 0.736169 0.59235
870 2 0.892951 0.717058 0.614435
871 2 0.630559 0.87033 0.770632
872 2 0.580557 0.887708 0.783831
873 2 0.84547 0.684816 0.65749
874 2 0.887725 0.719669 0.671447
875 2 0.582318 0.866697 0.415383
876 2 0.593309 0.0206304 0.107757
877 2 0.592013 0.895657 0.743319
878 2 0.475225 0.616844 0.368498
879 2 0.543988 0.886211 0.760821
880 2 0.98462 0.506131 0.338957
881 2 0.851022 0.712513 0.654451
882 1 0.684219 0.869468 0.0407112
883 1 0.454505 0.899191 0.0375522
884 2 0.0335894 0.238992 0.0537605
885 2 0.640609 0.0543469 0.769171
886 2 0.846556 0.690176 0.601478
887 1 0.221996 0.431233 0.979386
888 2 0.442258 0.596959 0.775626
889 2 0.683179 0.475548 0.420938
890 1 0.78081 0.765902 0.611978
891 2 0.945287 0.592638 0.334247
892 2 0.870776 0.706252 0.598366
893 2 0.596191 0.875461 0.784319
894 2 0.625621 0.865791 0.707883
895 1 0.879411 0.657333 0.68238
896 2 0.547446 0.971443 0.858181
897 2 0.842885 0.767827 0.635505
898 2 0.626029 0.895267 0.777821
899 2 0.404923 0.0246814 0.287337
900 2 0.628045 0.8796 0.743756
901 2 0.611011 0.881374 0.76708
902 2 0.832058 0.72905 0.634476
903 2 0.615472 0.908604 0.741587
904 2 0.632682 0.905438 0.780773
905 2 0.505897 0.617632 0.662809
906 2 0.143458 0.178793 0.530296
907 2 0.869098 0.727253 0.689049