ITEM: TIMESTEP
17500
ITEM: NUMBER OF ATOMS
1000
ITEM: BOX BOUNDS xy xz yz pp pp pp
0.0000000000000000e+00 1.3572088000000001e+01 0.0000000000000000e+00
0.0000000000000000e+00 1.3572088000000001e+01 0.0000000000000000e+00
0.0000000000000000e+00 1.3572088000000001e+01 0.0000000000000000e+00
ITEM: ATOMS id type xs ys zs
1 2 0.905514 0.686791 0.998429
2 2 0.907178 0.714956 0.800407
3 1 0.557742 0.891359 0.742333
4 2 0.794928 0.522877 0.84781
5 2 0.488565 0.545456 0.388762
6 1 0.440617 0.0437105 0.289093
7 2 0.582882 0.827733 0.127575
8 2 0.581196 0.846929 0.216268
9 2 0.247564 0.0385284 0.584201
10 2 0.938706 0.716344 0.80233
11 2 0.139498 0.964549 0.705958
12 2 0.71831 0.691685 0.257692
13 2 0.691084 0.803351 0.0916102
14 1 0.711069 0.870313 0.864333
15 2 0.107837 0.136762 0.343472
16 2 0.0249193 0.8953 0.125556
17 1 0.14383 0.71535 0.663961
18 2 0.522062 0.171836 0.773295
19 2 0.163936 0.761405 0.962541
20 2 0.475063 0.695525 0.749575
21 2 0.200781 0.551924 0.281499
22 2 0.590723 0.866666 0.121993
23 2 0.831552 0.571166 0.66723
24 2 0.930181 0.487152 0.325431
25 1 0.624345 0.38751 0.253249
26 2 0.65816 0.635998 0.708783
27 2 0.789865 0.494371 0.646257
28 2 0.365585 0.279541 0.839488
29 2 0.257894 0.682089 0.319216
30 2 0.846921 0.627361 0.840576
31 1 0.170998 0.19777 0.622129
32 1 0.29168 0.519336 0.330598
33 1 0.260473 0.302368 0.826211
34 2 0.146358 0.547086 0.0705046
35 2 0.845166 0.966474 0.0339788
36 1 0.853228 0.898984 0.00488077
37 2 0.845979 0.586928 0.933042
38 2 0.673823 0.323766 0.979925
39 2 0.102926 0.572754 0.417474
40 2 0.0860401 0.505107 0.144931
41 2 0.289645 0.10089 0.428625
42 2 0.573925 0.104948 0.940456
43 2 0.865404 0.2651 0.333036
44 2 0.646919 0.363809 0.0917814
45 2 0.515838 0.564997 0.490958
46 1 0.0185916 0.76366 0.878105
47 2 0.629951 0.807942 0.289967
48 2 0.456407 0.19193 0.848318
49 2 0.579968 0.347276 0.800618
50 2 0.892765 0.820192 0.19685
51 2 0.618273 0.214441 0.412207
52 2 0.465306 0.771754 0.858592
53 2 0.684263 0.341292 0.389723
54 2 0.713987 0.560129 0.185688
55 1 0.816923 0.675491 0.913061
56 1 0.660112 0.84293 0.171343
57 2 0.396636 0.524455 0.594756
58 2 0.0502323 0.157333 0.962492
59 2 0.217929 0.854047 0.855629
60 2 0.26826 0.704987 0.987808
61 2 0.923095 0.0373265 0.0470303
62 2 0.736113 0.326615 0.32167
63 2 0.530707 0.991254 0.527139
64 2 0.39662 0.438407 0.768669
65 2 0.238489 0.539637 0.69735
66 1 0.848526 0.330144 0.250798
67 2 0.666639 0.920977 0.281744
68 2 0.216629 0.920044 0.0941903
69 1 0.819832 0.304806 0.762556
70 2 0.425073 0.782896 0.633015
71 1 0.66457 0.252411 0.525662
72 2 0.869196 0.184886 0.752917
73 2 0.610464 0.923418 0.409575
74 2 0.969964 0.257124 0.816163
75 2 0.94583 0.988179 0.526327
76 2 0.991989 0.295577 0.406381
77 1 0.556294 0.798747 0.170662
78 2 0.954029 0.0920406 0.15265
79 2 0.345152 0.81811 0.775775
80 2 0.130057 0.0444859 0.292007
81 2 0.961769 0.0138569 0.897092
82 2 0.149955 0.185247 0.418043
83 2 0.848392 0.388315 0.286259
84 2 0.216839 0.102874 0.445102
85 1 0.456381 0.306956 0.264153
86 2 0.090855 0.862688 0.367471
87 2 0.228012 0.737422 0.519858
88 2 0.104923 0.509834 0.28999
89 2 0.824717 0.649793 0.868329
90 2 0.521087 0.67774 0.344956
91 2 0.208017 0.446478 0.424042
92 2 0.0346975 0.500735 0.44805
93 2 0.26358 0.308042 0.442062
94 1 0.296562 0.859651 0.803397
95 2 0.0682708 0.132885 0.46758
96 2 0.716002 0.305113 0.0209222
97 2 0.562219 0.443027 0.624504
98 2 0.192442 0.87458 0.22706
99 2 0.932763 0.690409 0.499288
100 2 0.79025 0.899682 0.185432
101 1 0.917551 0.18895 0.953397
102 2 0.850733 0.390543 0.716629
103 2 0.713544 0.634156 0.716785
104 2 0.227399 0.416764 0.502738
105 2 0.685775 0.619823 0.726134
106 2 0.372397 0.523933 0.59117
107 2 0.645301 0.810826 0.424886
108 2 0.439573 0.221481 0.868537
109 2 0.895946 0.75972 0.543765
110 2 0.785478 0.194188 0.12974
111 2 0.147383 0.355096 0.151445
112 1 0.0404299 0.0300481 0.304576
113 1 0.915528 0.497921 0.575765
114 2 0.458224 0.925155 0.921674
115 2 0.806271 0.578609 0.023797
116 2 0.446236 0.383359 0.593043
117 2 0.597504 0.501113 0.359088
118 2 0.151445 0.321698 0.848501
119 2 0.348085 0.870325 0.974867
120 2 0.226058 0.157147 0.0571331
121 2 0.0644104 0.331709 0.01083
122 2 0.732412 0.653715 0.316579
123 2 0.206759 0.170877 0.253432
124 2 0.891834 0.151778 0.792821
125 1 0.969602 0.163599 0.91819
126 2 0.550549 0.902388 0.46315
127 2 0.508868 0.597911 0.334527
128 2 0.14679 0.192545 0.988096
129 1 0.956516 0.777287 0.816679
130 2 0.455924 0.502039 0.858804
131 2 0.584062 0.984467 0.651213
132 2 0.113178 0.929307 0.794815
133 2 0.43139 0.37626 0.165956
134 2 0.991511 0.647702 0.647773
135 2 0.0344916 0.181733 0.388829
136 2 0.672181 0.0191761 0.0823483
137 1 0.738085 0.768636 0.503026
138 2 0.0777668 0.0788119 0.132412
139 2 0.0615956 0.0702032 0.482342
140 1 0.380017 0.835172 0.477311
141 2 0.776908 0.14406 0.154128
142 2 0.920295 0.874582 0.877316
143 2 0.361939 0.811239 0.434645
144 2 0.964377 0.982415 0.153384
145 2 0.675266 0.373635 0.890982
146 2 0.853214 0.699021 0.911384
147 1 0.737536 0.525204 0.71109
148 1 0.872643 0.808159 0.990116
149 2 0.00747335 0.756943 0.639842
150 1 0.576035 0.555688 0.626802
151 2 0.27746 0.286051 0.893705
152 2 0.521993 0.658331 0.436578
153 1 0.538374 0.892049 0.558369
154 1 0.127499 0.794885 0.290791
155 2 0.520606 0.93011 0.57755
156 2 0.282481 0.097712 0.0168333
157 2 0.162276 0.706223 0.0501182
158 2 0.63389 0.253908 0.426626
159 2 0.490195 0.835977 0.919355
160 2 0.919839 0.292731 0.365534
161 2 0.0587652 0.585479 0.240208
162 2 0.112117 0.52454 0.0878661
163 2 0.568201 0.946618 0.203489
164 2 0.378179 0.229801 0.541491
165 2 0.0124856 0.556144 0.27213
166 2 0.740837 0.520472 0.771128
167 2 0.43609 0.00182006 0.600805
168 2 0.500349 0.0920296 0.613925
169 2 0.329655 0.376836 0.712977
170 2 0.617142 0.954959 0.561226
171 2 0.713856 0.161505 0.689278
172 2 0.284618 0.82768 0.278091
173 1 0.781548 0.991621 0.716637
174 2 0.371336 0.999873 0.481053
175 2 0.9351 0.903615 0.296345
176 2 0.299409 0.150596 0.187796
177 1 0.54716 0.965228 0.46368
178 2 0.499418 0.157103 0.535551
179 2 0.972951 0.541067 0.806934
180 2 0.618976 0.0906193 0.447563
181 2 0.0263581 0.473732 0.0148723
182 2 0.951242 0.717622 0.543027
183 2 0.745747 0.688482 0.744829
184 2 0.683777 0.736838 0.0630537
185 2 0.333594 0.634689 0.533001
186 2 0.61043 0.722467 0.589937
187 2 0.420657 0.379294 0.131371
188 1 0.734107 0.329119 0.526017
189 2 0.160339 0.747868 0.496872
190 2 0.635019 0.456677 0.652861
191 2 0.92277 0.769415 0.0970831
192 2 0.867304 0.649 0.775086
193 2 0.5437 0.0294101 0.287962
194 2 0.629984 0.247247 0.482446
195 2 0.466686 0.991249 0.455146
196 2 0.33186 0.303769 0.855703
197 2 0.635861 0.323226 0.381613
198 2 0.0967293 0.601075 0.905053
199 2 0.243924 0.383489 0.279333
200 1 0.585881 0.945725 0.576925
201 2 0.534292 0.477937 0.788374
202 2 0.473808 0.6 0.0696515
203 2 0.806808 0.529051 0.685295
204 2 0.70972 0.224196 0.465061
205 2 0.750684 0.514821 0.619876
206 2 0.854695 0.516477 0.365916
207 2 0.774032 0.447823 -0.000429407
208 2 0.428567 0.331024 0.695939
209 2 0.940646 0.760597 0.502363
210 2 0.953587 0.925353 0.328183
211 2 0.789011 0.694149 0.092056
212 1 0.643625 0.225356 0.323248
213 2 0.885199 0.647916 0.60186
214 2 0.674522 0.892092 0.0265832
215 2 0.633426 0.561078 0.921582
216 2 0.979518 0.572273 0.0177213
217 2 0.252599 0.70424 0.26343
218 2 0.848441 0.63095 0.287882
219 2 0.929095 0.685401 0.991885
220 2 0.967193 0.502196 0.776557
221 2 0.227336 0.37181 0.196172
222 2 0.0429853 0.628981 0.399929
223 2 0.32351 0.902566 0.730101
224 2 0.526455 0.441975 0.108613
225 1 0.162022 0.414546 0.471558
226 2 0.455597 0.240137 0.0832544
227 2 0.584745 0.22915 0.520711
228 2 0.264148 0.471652 0.906963
229 2 0.131721 0.0973225 0.702669
230 1 0.378659 0.546576 0.807432
231 2 0.662371 0.632567 0.251543
232 2 0.695909 0.732483 0.727808
233 1 0.289325 0.04807 0.255286
234 2 0.176826 0.168614 0.378711
235 2 0.597183 0.511287 0.744888
236 2 0.670595 0.786519 0.0492514
237 2 0.497734 0.810247 0.89148
238 1 0.738164 0.156074 0.463715
239 1 0.64208 0.277916 0.211063
240 2 0.103695 0.418051 0.0029603
241 2 0.60327 0.261916 0.396875
242 1 0.472807 0.1399 0.476469
243 1 0.806538 0.709854 0.446749
244 2 0.343323 0.981141 0.750379
245 2 0.59261 0.617318 0.930641
246 1 0.302284 0.498868 0.687697
247 2 0.57362 0.833447 0.0449778
248 2 0.930039 0.478922 0.183638
249 2 0.84003 0.527107 0.720685
250 2 0.591845 0.459301 0.263491
251 2 0.410061 0.431655 0.517435
252 2 0.608752 0.0121122 0.314612
253 2 0.913248 0.227143 0.942683
254 2 0.0386639 0.576626 0.346223
255 2 0.0624276 0.120401 0.88311
256 2 0.848439 0.14047 0.661214
257 2 0.865463 0.437563 0.523011
258 2 0.428756 0.353986 0.461471
259 1 0.0604457 0.0356805 0.391728
260 2 0.128447 0.780655 0.779963
261 1 0.728411 0.882898 0.777601
262 2 0.81488 0.47973 0.676575
263 2 0.958184 0.598595 0.808721
264 2 0.831855 0.0330985 0.572481
265 1 0.894826 0.393678 0.308708
266 2 0.879857 0.268725 0.816399
267 2 0.51272 0.900944 0.463124
268 1 0.993645 0.622602 0.191652
269 1 0.197594 0.505112 0.377474
270 2 0.537518 0.524265 0.382858
271 2 0.728475 0.318264 0.466038
272 2 0.324251 0.243864 0.868958
273 1 0.530897 0.806065 0.343052
274 2 0.617635 0.734327 0.533823
275 2 0.816353 0.0297757 0.0999287
276 2 0.291617 0.47994 0.296644
277 2 0.090609 0.693552 0.580678
278 2 0.197386 0.541001 0.619423
279 2 0.882253 0.524593 0.781664
280 1 0.938371 0.335256 0.335127
281 2 0.432107 0.14429 0.352377
282 2 0.687966 0.0724936 0.31198
283 2 0.644569 0.60768 0.750959
284 1 0.649171 0.737973 0.77929
285 2 0.247545 0.787395 0.52846
286 2 0.926452 0.0286549 0.567086
287 1 0.376263 0.861733 0.775975
288 2 0.468532 0.538209 0.365147
289 2 0.256306 0.616509 0.528042
290 2 0.118582 0.0744637 0.0271825
291 2 0.498055 0.569322 0.993669
292 2 0.997378 0.0946768 0.17492
293 2 0.651806 0.915826 0.844331
294 2 0.827767 0.53947 0.188843
295 2 0.157195 0.233908 0.516516
296 2 0.188887 0.955656 0.84327
297 2 0.860333 0.355389 0.971349
298 2 0.566359 0.987869 0.821502
299 1 0.14405 0.294217 0.323354
300 2 0.816932 0.548538 0.651777
301 2 0.722463 0.402945 0.560019
302 2 0.380081 0.362617 0.0771821
303 2 0.903184 0.217913 0.995052
304 1 0.375999 0.356236 0.160805
305 2 0.0967648 0.0316829 0.321072
306 2 0.430735 0.785323 0.921941
307 2 0.904121 0.302085 0.0188264
308 2 0.430615 0.350866 0.520001
309 2 0.31566 0.115881 0.72521
310 2 0.809718 0.17695 0.538245
311 2 0.332186 0.414067 0.11398
312 2 0.219903 0.812774 0.49436
313 2 0.51135 0.347172 0.243854
314 2 0.104364 0.33745 0.913651
315 2 0.443476 0.449422 0.358249
316 2 0.429917 0.900151 0.316628
317 2 0.181044 0.244562 0.0552666
318 2 0.0013119 0.0844817 0.903483
319 2 0.687197 0.0439741 0.89935
320 2 0.955029 0.312423 0.127514
321 2 0.481642 0.351986 0.872137
322 2 0.630419 0.368808 0.481075
323 2 0.43573 0.175494 0.31902
324 2 0.95085 0.837081 0.332674
325 2 0.416442 0.00906693 0.279096
326 2 0.704675 0.182923 0.376492
327 2 0.162731 0.987105 0.179464
328 2 0.0367369 0.584503 0.571474
329 1 0.143344 0.607698 0.472921
330 2 0.1014 0.406671 0.318236
331 2 0.68521 0.789939 0.628802
332 2 0.64512 0.375209 0.144102
333 2 0.0617529 0.414272 0.0179514
334 2 0.0109302 0.124021 0.784955
335 1 0.679197 0.845256 0.0846969
336 2 0.887574 0.997987 0.353948
337 2 0.20764 0.615816 0.202945
338 1 0.83507 0.374769 0.789881
339 2 0.946611 0.690677 0.163981
340 2 0.0656567 0.941441 0.495417
341 2 0.918467 0.145719 0.934508
342 2 0.12045 0.91637 0.9027
343 2 0.5433 0.131276 0.606742
344 1 0.535518 0.930731 0.358519
345 1 0.679684 0.00637461 0.804137
346 1 0.76518 0.835803 0.821143
347 1 0.966415 0.578683 0.733986
348 2 0.890185 0.974071 0.692721
349 2 0.666093 0.778005 0.190037
350 2 0.198888 0.390843 0.657527
351 2 0.849007 0.130553 0.0257929
352 2 0.959703 0.290119 0.0797791
353 1 0.0384032 0.509918 0.173566
354 1 0.40364 0.0256339 0.896626
355 2 0.113395 0.318754 0.174188
356 2 0.434065 0.805905 0.114556
357 2 0.387433 0.53648 0.739405
358 2 0.655765 0.799075 0.672927
359 2 0.601041 0.590191 0.90546
360 2 0.504048 0.520939 0.805899
361 1 0.376039 0.822361 0.0564576
362 2 0.100803 0.118742 0.070245
363 1 0.199242 0.88057 0.798594
364 2 0.843259 0.37356 0.665146
365 2 0.52239 0.0040381 0.501813
366 2 0.617352 0.953518 0.478478
367 1 0.523492 0.871796 0.646759
368 1 0.98446 0.102813 0.987038
369 2 0.134985 0.404474 0.893904
370 2 0.51113 0.00386582 0.548967
371 2 0.817493 0.806901 0.1229
372 1 0.3472 0.305168 0.358437
373 2 0.0385098 0.746811 0.558499
374 2 0.32452 0.148928 0.854085
375 2 0.612077 0.342569 0.342209
376 2 0.0455221 0.397782 0.681233
377 2 0.011572 0.17872 0.859819
378 2 0.6677 0.86138 0.895148
379 2 0.723977 0.352554 0.439832
380 2 0.124481 0.799735 0.183443
381 2 0.635953 0.186131 0.666926
382 2 0.657932 0.786016 0.545965
383 2 0.491501 0.790143 0.465258
384 1 0.367254 0.709239 0.776205
385 2 0.765648 0.470584 0.629357
386 2 0.669236 0.355521 0.610715
387 1 0.754792 0.827589 0.0831857
388 2 0.278205 0.826808 0.585352
389 2 0.809093 0.685063 0.618529
390 2 0.587835 0.266369 0.402823
391 2 0.753799 0.0149272 0.195819
392 1 0.769595 0.414337 0.742752
393 2 0.110955 0.853702 0.898296
394 2 0.494928 0.107229 0.232044
395 2 0.982701 0.0401913 0.0933957
396 2 0.572432 0.983103 0.39823
397 2 0.34021 0.769343 0.64728
398 1 0.304309 0.222009 0.126637
399 1 0.141728 0.129096 0.456391
400 1 0.756746 0.10856 0.358297
401 2 0.167646 0.194825 0.462122
402 2 0.896903 0.677705 0.84678
403 2 0.641287 0.101165 0.400339
404 2 0.0583482 0.563622 0.910352
405 2 0.46511 0.333556 0.364419
406 2 0.29185 0.333635 0.18115
407 2 0.63504 0.206476 0.384946
408 2 0.698774 0.987287 0.518061
409 2 0.688361 0.236443 0.0499252
410 2 0.241459 0.165904 0.147906
411 2 0.962097 0.823635 0.291503
412 2 0.347712 0.200961 0.948606
413 2 0.279848 0.146913 0.0337038
414 2 0.780705 0.662656 0.260798
415 2 0.669229 0.60546 0.893862
416 1 0.331313 0.5854 0.676098
417 2 0.55056 0.816448 0.99906
418 2 0.466011 0.421381 0.568688
419 2 0.257004 0.785909 0.5539
420 2 0.350562 0.13391 0.835263
421 1 0.629108 0.952386 0.882584
422 1 0.231851 0.924142 0.734328
423 2 0.62892 0.432856 0.238461
424 2 0.824676 0.550356 0.619587
425 1 0.226154 0.759235 0.599523
426 2 0.874288 0.675663 0.912109
427 2 0.853413 0.661008 0.393068
428 2 0.233457 0.514223 0.4335
429 2 0.717211 0.445558 0.699276
430 2 0.823296 0.0761368 0.635544
431 2 0.397945 0.792719 0.135735
432 1 0.565627 0.751984 0.0186034
433 2 0.183858 0.417418 0.212516
434 1 0.536941 0.924277 0.513744
435 2 0.0753176 0.13767 0.106079
436 2 0.590093 0.880832 0.950116
437 2 0.889823 0.242212 0.741912
438 2 0.33009 0.310172 0.177859
439 1 0.46659 0.907601 0.548274
440 2 0.900831 0.209388 0.633849
441 1 0.615642 0.548941 0.225488
442 1 0.661057 0.284206 0.0862782
443 1 0.352869 0.515618 0.153285
444 2 0.309655 0.629413 0.636146
445 2 0.845057 0.658799 0.0643493
446 2 0.944687 0.812764 0.600423
447 2 0.561367 0.638694 0.603777
448 2 0.313931 0.778469 0.253006
449 1 0.00317216 0.603822 0.806953
450 2 0.348386 0.876946 0.166966
451 2 0.3037 0.878128 0.753899
452 2 0.251596 0.509351 0.378317
453 1 0.194537 0.0514242 0.475579
454 2 0.780001 0.605833 0.952114
455 2 0.548916 0.989843 0.37739
456 2 0.0301903 0.0872865 0.499458
457 2 0.347835 0.544301 0.21873
458 2 0.532658 0.216314 0.292039
459 2 0.78279 0.412634 0.702324
460 2 0.841907 0.187721 0.114924
461 2 0.935135 0.304119 0.897964
462 2 0.345424 0.599717 0.484481
463 1 0.423441 0.482604 0.605823
464 2 0.915145 0.599289 0.59036
465 2 0.764637 0.642622 0.985358
466 2 0.981543 0.800203 0.586176
467 1 0.446277 0.429299 0.198264
468 2 0.92925 0.643401 0.622924
469 2 0.142867 0.0675514 0.105238
470 2 0.223137 0.601745 0.854948
471 2 0.286829 0.254748 0.0182894
472 2 0.548924 0.182889 0.815013
473 1 0.191792 0.651184 0.906715
474 1 0.0737557 0.941941 0.69454
475 1 0.304717 0.54107 0.812788
476 2 0.980263 0.371884 0.0900326
477 2 0.74537 0.62485 0.409679
478 2 0.442253 0.750115 0.16112
479 2 0.870235 0.621526 0.844601
480 2 0.671289 0.35124 0.22834
481 2 0.310239 0.940463 0.00681479
482 2 0.361166 0.333572 0.964345
483 2 0.682838 0.535224 0.209856
484 1 0.651523 0.141645 0.359464
485 1 0.693245 0.933862 0.868924
486 2 0.877713 0.461595 0.918775
487 2 0.643926 0.675987 0.535908
488 2 0.205134 0.607508 0.109533
489 2 0.142208 0.735061 0.240345
490 2 0.0864437 0.797883 0.061267
491 2 0.234244 0.029387 0.219889
492 2 0.462934 0.81444 0.349018
493 2 0.273958 0.909848 0.710617
494 2 0.207734 0.939108 0.79923
495 2 0.482619 0.395712 0.181163
496 2 0.530903 0.00211075 0.462581
497 2 0.0621375 0.536929 0.293417
498 1 0.516456 0.842339 0.226885
499 2 0.180046 0.343606 0.553241
500 2 0.411554 0.0155205 0.343392
501 1 0.940245 0.12618 0.252759
502 2 0.872406 0.259282 0.991776
503 2 0.410927 0.307963 0.944695
504 1 0.786972 0.816859 0.226795
505 2 0.89791 0.410961 0.388559
506 2 0.257112 0.835195 0.823737
507 2 0.820548 0.692903 0.523391
508 2 0.394785 0.938912 0.873353
509 1 0.14982 0.542188 0.316098
510 2 0.453755 0.169638 0.0465634
511 2 0.652813 0.224672 0.0238131
512 2 0.00993618 0.185889 0.91601
513 1 0.168441 0.100864 0.293647
514 2 0.351035 0.824047 0.299768
515 1 0.54 0.166089 0.513932
516 2 0.461535 0.203096 0.10516
517 1 0.500215 0.0078855 0.588354
518 2 0.282679 0.144277 0.967045
519 2 0.611962 0.190423 0.733219
520 2 0.678929 0.487091 0.605957
521 2 0.0496657 0.0633226 0.104127
522 2 0.250676 0.830359 0.696526
523 2 0.779487 0.364846 0.764079
524 2 0.416148 0.34468 0.152474
525 2 0.736662 0.248653 0.0302088
526 2 0.592994 0.676308 0.841462
527 2 0.468547 0.915363 0.282077
528 1 0.107503 0.339291 0.607751
529 2 0.478256 0.857041 0.862596
530 2 0.235718 0.893142 0.856872
531 2 0.504349 0.948582 0.865299
532 2 0.595436 0.641472 0.0864521
533 2 0.792136 0.46312 0.754499
534 1 0.526529 0.240012 0.0536235
535 2 0.50637 0.37248 0.151001
536 1 0.150019 0.104243 0.0448615
537 1 0.913196 0.279701 0.980696
538 2 0.366565 0.217855 0.125245
539 2 0.872134 0.55505 0.698593
540 2 0.84196 0.429305 0.675053
541 1 0.457779 0.992482 0.545784
542 2 0.646437 0.120296 0.152986
543 1 0.498075 0.0885952 0.107593
544 1 0.532899 0.264368 0.192733
545 2 0.375169 0.18056 0.0612855
546 2 0.106751 0.907465 0.827644
547 2 0.561579 0.917758 0.585235
548 2 0.31622 0.8835 0.611283
549 2 0.428448 0.095607 0.875289
550 2 0.797116 0.534726 0.785786
551 1 0.707296 0.912672 0.574477
552 2 0.990691 0.648739 0.90991
553 2 0.364222 0.0809094 0.876616
554 2 0.45168 0.794657 0.876463
555 1 0.869308 0.453935 0.823661
556 2 0.512688 0.379507 0.683294
557 2 0.522811 0.287952 0.855274
558 1 0.286562 0.961334 0.0599882
559 2 0.194066 0.976273 0.29872
560 2 0.0276993 0.611673 0.0282547
561 2 0.752697 0.242753 0.500486
562 1 0.36578 0.309908 0.701004
563 2 0.995775 0.531354 0.158167
564 2 0.0324092 0.310709 0.400887
565 2 0.376663 0.120613 0.869772
566 2 0.189244 0.965055 0.328492
567 2 0.0348637 0.186334 0.213761
568 2 0.589925 0.660086 0.582797
569 1 0.727536 0.579198 0.922538
570 2 0.898308 0.39329 0.965802
571 2 0.745726 0.542164 0.956978
572 2 0.806066 0.332818 0.274859
573 2 0.547392 0.114462 0.421273
574 2 0.475773 0.326822 0.84008
575 1 0.06255 0.959685 0.784502
576 2 0.0863424 0.668762 0.0217536
577 2 0.440078 0.0193799 0.650976
578 1 0.432142 0.427548 0.675267
579 2 0.629804 0.962779 0.101002
580 1 0.366731 0.348145 0.2793
581 2 0.656747 0.884559 0.840188
582 2 0.735002 0.809896 0.409455
583 1 0.36336 0.36581 0.625268
584 2 0.847438 0.865954 0.052364
585 1 0.304566 0.372978 0.118947
586 2 0.736806 0.522985 0.632329
587 2 0.174799 0.563302 0.860106
588 2 0.565434 0.35265 0.0283344
589 1 0.301464 0.394254 0.942063
590 1 0.916386 0.0991659 0.388563
591 1 0.700668 0.116997 0.303806
592 2 0.781922 0.64022 0.911455
593 2 0.347496 0.272649 0.727568
594 1 0.479404 0.424178 0.0659037
595 1 0.797609 0.252 0.992379
596 2 0.120926 0.776526 0.562442
597 1 0.669659 0.839948 0.246576
598 2 0.352324 0.885072 0.443179
599 2 0.797049 0.687413 0.843747
600 2 0.884731 0.024122 0.955221
601 2 0.00494444 0.228804 0.0789879
602 1 0.589336 0.366339 0.385195
603 2 0.796241 0.220748 0.927914
604 1 0.304058 0.281913 0.807572
605 2 0.472636 0.412244 0.797962
606 2 0.300774 0.953934 0.966924
607 1 0.287749 0.567884 0.558043
608 2 0.741179 0.272411 0.496986
609 2 0.164599 0.138852 0.94633
610 2 0.736342 0.0277782 0.617157
611 2 0.73204 0.651693 0.485832
612 1 0.473553 0.17438 0.0746217
613 2 0.633058 0.218222 0.450087
614 1 0.754379 0.110174 0.427796
615 2 0.582367 0.332347 0.968271
616 1 0.0629447 0.109074 0.401965
617 2 0.165625 0.613556 0.735731
618 2 0.945795 0.331821 0.545202
619 2 0.376626 0.419749 0.619379
620 2 0.670469 0.66842 0.198192
621 2 0.417771 0.1657 0.747717
622 2 0.565502 0.990446 0.514801
623 1 0.375383 0.876633 0.233615
624 2 0.295755 0.32033 0.700866
625 2 0.496738 0.0557353 0.789274
626 2 0.598115 0.241788 0.104745
627 2 0.477365 0.557226 0.341155
628 2 0.0681956 0.376244 0.824842
629 2 0.38421 0.377477 0.75041
630 1 0.920538 0.1448 0.151822
631 2 0.779423 0.115221 0.470508
632 2 0.86986 0.264532 0.512604
633 2 0.966639 0.709773 0.0868119
634 2 0.186779 0.352642 0.200618
635 2 0.950077 0.860197 0.391083
636 2 0.350021 0.553586 0.7724
637 2 0.518692 0.860218 0.868319
638 1 0.592524 0.925537 0.674566
639 2 0.429643 0.823683 0.697271
640 2 0.543294 0.429387 0.784261
641 2 0.663645 0.37748 0.112069
642 2 0.663055 0.498847 0.258868
643 2 0.949616 0.598609 0.872226
644 2 0.559261 0.877766 0.0197052
645 1 0.703055 0.957916 0.305842
646 2 0.0169255 0.513748 0.210974
647 1 0.192901 0.0678035 0.0884324
648 2 0.757782 0.563469 0.798303
649 2 0.812879 0.287679 0.135062
650 2 0.208462 0.760743 0.078124
651 2 0.459566 0.8375 0.824079
652 2 0.649119 0.33227 0.306535
653 2 0.953978 0.293584 0.941414
654 1 0.510149 0.318884 0.882771
655 2 0.118629 0.0919165 0.448229
656 2 0.997345 0.410861 0.971633
657 2 0.566791 0.887573 0.381575
658 2 0.0780004 0.100308 0.453765
659 2 0.51167 0.915066 0.74048
660 2 0.995233 0.720881 0.100181
661 1 0.698259 0.0677196 0.445557
662 2 0.744467 0.503989 0.553043
663 2 0.365088 0.255799 0.385733
664 1 0.0331133 0.485657 0.241601
665 2 0.277599 0.927274 0.494847
666 2 0.605126 0.673458 0.742159
667 2 0.423379 0.534586 0.0285282
668 2 0.227706 0.380159 0.127842
669 2 0.461924 0.366591 0.0188087
670 1 0.59773 0.692796 0.954599
671 2 0.846329 0.587081 0.985841
672 1 0.659071 0.923763 0.44252
673 2 0.877036 0.448372 0.572843
674 2 0.79295 0.815243 0.453614
675 2 0.0131672 0.446101 0.445702
676 1 0.0473635 0.906327 0.616447
677 2 0.687996 0.20125 0.52694
678 2 0.913485 0.780884 0.284869
679 1 0.929494 0.00206759 0.695932
680 2 0.158249 0.974719 0.792456
681 1 0.375427 0.389835 0.514265
682 1 0.93149 0.855884 0.774109
683 2 0.324986 0.404014 0.142731
684 2 0.0123311 0.672264 0.823314
685 2 0.653426 0.884312 0.216717
686 2 0.66101 0.818198 0.990763
687 1 0.964923 0.215033 0.094102
688 2 0.613258 0.771569 0.140027
689 2 0.577517 0.916846 0.216122
690 2 0.468867 0.634557 0.687848
691 2 0.973848 0.942124 0.573465
692 1 0.0374143 0.55774 0.829288
693 2 0.491045 0.415553 0.477501
694 2 0.976279 0.793674 0.266041
695 1 0.621924 0.738517 0.0836676
696 2 0.0845084 0.349588 0.211935
697 2 0.337785 0.357816 0.917365
698 2 0.819499 0.808441 0.444822
699 2 0.993591 0.0764471 0.124761
700 1 0.409343 0.575889 0.865595
701 2 0.481214 0.224853 0.101579
702 2 0.810539 0.0377346 0.245217
703 2 0.386402 0.516219 0.204804
704 2 0.0471956 0.564914 0.452649
705 2 0.906481 0.440804 0.0117734
706 2 0.252663 0.43006 0.35644
707 2 0.952334 0.408422 0.845746
708 1 0.649861 0.152755 0.929368
709 2 0.676999 0.452643 0.878259
710 2 0.102749 0.570091 0.0478725
711 2 0.867696 0.843439 0.5081
712 1 0.0433269 0.00444469 0.0965309
713 2 0.060784 0.625674 0.385268
714 1 0.814596 0.395905 0.181322
715 2 0.312284 0.22291 0.909506
716 1 0.62736 0.782071 0.781867
717 2 0.354658 0.0689234 0.111832
718 2 0.36232 0.580025 0.946815
719 2 0.525782 0.357504 0.445628
720 2 0.899728 0.0223583 0.60458
721 2 0.230922 0.304875 0.928729
722 1 0.0875629 0.35434 0.52532
723 2 0.621319 0.35168 0.310936
724 2 0.118419 0.61489 0.863179
725 2 0.935808 0.878003 0.934267
726 2 0.366217 0.783455 0.774765
727 1 0.609666 0.806981 0.705757
728 1 0.848744 0.576193 0.249046
729 1 0.526636 0.325407 0.0541229
730 1 0.283145 0.976575 0.537807
731 2 0.396526 0.388677 0.579027
732 1 0.798219 0.665831 0.787775
733 2 0.747049 0.392956 0.307444
734 2 0.821139 0.618738 0.875356
735 2 0.298726 0.166963 0.0912587
736 1 0.433216 0.457519 0.823583
737 2 0.238058 0.0334026 0.432508
738 2 0.766732 0.679007 0.0671649
739 2 0.440363 0.523576 0.358231
740 2 0.124122 0.637704 0.824515
741 2 0.250884 0.521233 0.246456
742 1 0.807546 0.951069 0.951754
743 2 0.491347 0.957952 0.525021
744 2 0.335316 0.156548 0.579316
745 2 0.374445 0.585161 0.136434
746 1 0.723125 0.581806 0.845463
747 2 0.252883 0.672038 0.947455
748 2 0.740503 0.842799 0.873018
749 2 0.669693 0.634776 0.199234
750 2 0.185589 0.791687 0.611608
751 2 0.0020874 0.620141 0.738783
752 2 0.141647 0.505792 0.408265
753 2 0.973339 0.957015 0.809126
754 2 0.164568 0.944721 0.264356
755 2 0.788865 0.518608 0.654771
756 2 0.447083 0.157065 0.679105
757 2 0.809611 0.64118 0.373576
758 2 0.412015 0.024 0.022687
759 2 0.34521 0.525685 0.810837
760 1 0.48301 0.873446 0.569414
761 2 0.262945 0.138995 1.00126
762 2 0.343889 0.446483 0.860942
763 1 0.412753 0.215328 0.942244
764 2 0.787475 0.548898 0.0150764
765 2 0.562849 0.144454 0.0404814
766 2 0.804335 0.979468 0.780747
767 2 0.847821 0.123124 0.0669171
768 2 0.0414071 0.864533 0.0432525
769 2 0.958842 0.628383 0.457044
770 2 0.415374 0.7303 0.599733
771 2 0.00980254 0.692427 0.720382
772 2 0.113817 0.017401 0.289971
773 1 0.787885 0.844529 0.384833
774 2 0.235624 0.588492 0.257338
775 2 0.541526 0.896323 0.627396
776 2 0.704842 0.511101 0.740823
777 1 0.745386 0.36755 0.261416
778 2 0.221159 0.697644 0.731596
779 2 0.434976 0.434651 0.611403
780 1 0.205444 0.433603 0.356714
781 2 0.0905567 0.334663 0.342605
782 2 0.721749 0.792901 0.268894
783 1 0.303427 0.937097 0.806903
784 2 0.466802 0.0739015 0.983716
785 2 0.699423 0.159596 0.0646708
786 1 0.566202 0.420373 0.460526
787 2 0.0624396 0.633226 0.236168
788 2 0.410703 0.660751 0.488374
789 2 0.683833 0.426759 0.268764
790 2 0.846728 0.255307 0.659694
791 1 0.229868 0.594207 0.699672
792 2 0.809422 0.0833352 0.593922
793 2 0.27492 0.501206 0.577727
794 2 0.731356 0.488798 0.109502
795 2 0.384399 0.481969 0.829863
796 2 0.205977 0.485983 0.559566
797 2 0.253269 0.792904 0.779349
798 2 0.925368 0.0198553 0.0124174
799 2 0.114353 0.702041 0.61906
800 2 0.26364 0.395327 0.29877
801 2 0.620355 0.265172 0.740155
802 2 0.28393 0.571613 0.605253
803 2 0.18928 0.269758 0.670106
804 2 0.785244 0.163604 0.86023
805 2 0.0791895 0.546511 0.496686
806 1 0.694126 0.996588 0.872473
807 2 0.140887 0.867439 0.2262
808 2 0.182262 0.130791 0.382592
809 1 0.493102 0.0754428 0.53037
810 2 0.489541 0.927759 0.504211
811 2 0.757167 0.986403 0.346412
812 2 0.771537 0.408126 0.149434
813 1 0.814277 0.386867 0.716618
814 2 0.0405693 0.344932 0.664381
815 2 0.740992 0.732521 0.273281
816 1 0.246994 0.10216 0.460903
817 1 0.62926 0.113345 0.718245
818 2 0.786658 0.661161 0.919937
819 1 0.354051 0.672936 0.0473461
820 1 0.405694 0.866184 0.588375
821 2 0.598602 0.417827 0.845077
822 2 0.43676 0.216921 0.326443
823 1 0.857483 0.545362 0.618464
824 2 0.674246 0.242186 0.99405
825 2 0.874192 0.34878 0.227077
826 2 0.336241 0.324586 0.107181
827 1 0.91331 0.675544 0.407736
828 2 0.40145 0.552372 0.556553
829 2 0.332489 0.799181 0.29914
830 2 0.563502 0.43158 0.146459
831 1 0.969173 0.046521 0.512683
832 2 0.926968 0.764535 0.42153
833 1 0.881575 0.51145 0.148394
834 2 0.479464 0.784978 0.676477
835 2 0.759634 0.088903 0.302399
836 2 0.795216 0.7359 0.410007
837 2 0.828674 0.38534 0.341406
838 2 0.910602 0.901038 0.364515
839 2 0.894825 0.941708 0.698698
840 2 0.698602 0.650942 0.205518
841 2 0.718045 0.956681 0.790824
842 2 0.0831394 0.900462 0.568996
843 2 0.712726 0.737525 0.391399
844 2 0.328073 0.44796 0.448317
845 2 0.214084 0.331466 0.313442
846 2 0.490958 0.84182 0.996993
847 2 0.889097 0.70252 0.0459288
848 2 0.0611625 0.198421 0.716767
849 1 0.466482 0.258144 0.143013
850 2 0.423372 0.225744 0.0981027
851 2 0.211082 0.960187 0.490117
852 2 0.642321 0.770166 0.604719
853 1 0.988951 0.502724 0.463095
854 2 0.664966 0.792156 0.140684
855 2 0.0589285 0.673248 0.365428
856 2 0.151399 0.309474 0.436307
857 2 0.573718 0.314427 0.440286
858 2 0.643898 0.409439 0.877543
859 2 0.330652 0.743554 0.09625
860 2 0.333417 0.935823 0.992659
861 2 0.42749 0.93771 0.888012
862 2 0.431166 0.491095 0.828786
863 2 0.366657 0.618468 0.902223
864 2 0.233545 0.367966 0.794166
865 2 0.527314 0.712987 0.246456
866 2 0.17887 0.930293 0.970456
867 2 0.560394 0.127546 0.481914
868 2 0.613312 0.88939 0.233415
869 2 0.534165 0.953597 0.523638
870 2 0.603344 0.632567 0.900726
871 2 0.358663 0.360319 0.845546
872 2 0.508088 0.656957 0.0354659
873 2 0.603217 0.214317 0.345389
874 2 0.350938 0.328794 0.229621
875 2 0.712502 0.203037 0.568824
876 2 0.769846 0.653417 0.0217285
877 2 0.864978 0.788156 0.442711
878 2 0.176781 0.12244 0.257701
879 2 0.0387246 0.303758 0.668078
880 2 0.37866 0.946709 0.692151
881 2 0.687698 0.53006 0.282062
882 1 0.694829 0.117107 0.389912
883 1 0.268618 0.574363 0.410214
884 2 0.30086 0.556284 0.692958
885 2 0.773483 0.222468 0.139711
886 2 0.177882 0.394202 0.821619
887 1 0.87123 0.723374 0.953973
888 2 0.291142 0.837606 0.289457
889 2 0.271096 0.384017 0.205052
890 1 0.794559 0.761731 0.510776
891 2 0.752121 0.513042 0.761978
892 2 0.7153 0.915164 0.892683
893 2 0.351599 0.765067 0.358756
894 2 0.457545 0.843202 0.390512
895 1 0.474826 0.96385 0.585554
896 2 0.992052 0.090094 0.953361
897 2 0.971392 0.516286 0.64778
898 2 0.711801 0.364196 0.410233
899 2 0.855782 0.338822 0.749548
900 2 0.890896 0.65625 0.819444
901 2 0.248449 0.55246 0.391919
902 2 0.357112 0.612229 0.393688
903 2 0.991426 0.477844 0.489994
904 2 0.449514 0.860949 0.306702
905 2 0.420523 0.501092 0.205149