ITEM: TIMESTEP
60200
ITEM: NUMBER OF ATOMS
1000
ITEM: BOX BOUNDS xy xz yz pp pp pp
0.0000000000000000e+00 1.3572088000000001e+01 0.0000000000000000e+00
0.0000000000000000e+00 1.3572088000000001e+01 0.0000000000000000e+00
0.0000000000000000e+00 1.3572088000000001e+01 0.0000000000000000e+00
ITEM: ATOMS id type xs ys zs
1 2 0.57 0.619779 0.139206
2 2 0.895529 0.693415 0.601085
3 1 0.594151 0.889303 0.841805
4 2 0.286086 0.462688 0.949715
5 2 0.567239 0.898908 0.707258
6 1 0.639242 0.959698 0.695018
7 2 0.584927 0.921516 0.787395
8 2 0.824224 0.694091 0.619516
9 2 0.644284 0.109301 0.245416
10 2 0.591241 0.94559 0.720939
11 2 0.791809 0.714646 0.635672
12 2 0.595318 0.839009 0.771092
13 2 0.837732 0.711147 0.688334
14 1 0.00527537 0.463094 0.439439
15 2 0.866066 0.695761 0.622483
16 2 0.409511 0.553837 0.848846
17 1 0.834373 0.784548 0.620622
18 2 0.808409 0.716353 0.665311
19 2 0.788218 0.132268 0.463749
20 2 0.585709 0.856402 0.776312
21 2 0.58403 0.902758 0.716747
22 2 0.555964 0.404213 0.472555
23 2 0.234355 0.426553 0.0128856
24 2 0.877031 0.655469 0.674089
25 1 0.0552425 0.524126 0.250906
26 2 0.850224 0.718967 0.591326
27 2 0.627977 0.926229 0.788943
28 2 0.634148 0.915964 0.778677
29 2 0.170953 0.63659 0.883352
30 2 0.542279 0.892254 0.750426
31 1 0.606627 0.822609 0.736694
32 1 0.641307 0.971964 0.730978
33 1 0.770271 0.683333 0.718352
34 2 0.812425 0.682157 0.661774
35 2 0.181817 0.545605 0.665958
36 1 0.557424 0.832239 0.759472
37 2 0.864416 0.704837 0.684821
38 2 0.579183 0.947292 0.771606
39 2 0.236217 0.884965 0.279337
40 2 0.638704 0.871462 0.755866
41 2 0.590784 0.906486 0.750601
42 2 0.609058 0.918798 0.771595
43 2 0.376542 0.368314 0.186182
44 2 0.771039 0.255164 0.716007
45 2 0.866332 0.716049 0.638735
46 1 0.620158 0.154687 0.0271397
47 2 0.881583 0.692189 0.652874
48 2 0.621384 0.876061 0.751043
49 2 0.157479 0.567363 0.888504
50 2 0.854865 0.731334 0.676201
51 2 0.784887 0.496165 0.941428
52 2 0.668419 0.731872 0.907558
53 2 0.0564037 0.0735181 0.457732
54 2 0.581647 0.88817 0.733947
55 1 0.89073 0.632067 0.685284
56 1 0.530342 0.843534 0.721621
57 2 0.59677 0.899727 0.742814
58 2 0.568883 0.898963 0.797602
59 2 0.898379 0.735087 0.615591
60 2 0.604002 0.953568 0.733553
61 2 0.0238027 0.685396 0.171696
62 2 0.540213 0.881386 0.73431
63 2 0.933818 0.335189 0.30003
64 2 0.822153 0.736723 0.670259
65 2 0.838592 0.718415 0.605642
66 1 0.886977 0.778047 0.652776
67 2 0.57847 0.882233 0.793583
68 2 0.573809 0.915141 0.791768
69 1 0.553202 6.2627e-05 0.741118
70 2 0.872781 0.705143 0.599241
71 1 0.599661 0.898311 0.669598
72 2 0.509773 0.16184 0.813781
73 2 0.531994 0.894508 0.761783
74 2 0.54565 0.877884 0.771835
75 2 0.018966 0.223052 0.889192
76 2 0.541478 0.901391 0.744471
77 1 0.909569 0.78463 0.629883
78 2 0.656374 0.889626 0.442263
79 2 0.556799 0.911933 0.799219
80 2 0.538577 0.756494 0.00950668
81 2 0.545288 0.907042 0.766753
82 2 0.840092 0.695806 0.572361
83 2 0.358623 0.252202 0.27056
84 2 0.580681 0.86116 0.745781
85 1 0.541492 0.870239 0.699946
86 2 0.849881 0.700559 0.608051
87 2 0.573409 0.920525 0.723825
88 2 0.86327 0.718789 0.601155
89 2 0.767807 0.131711 0.826205
90 2 0.614342 0.92598 0.757342
91 2 0.723301 0.266542 0.0914916
92 2 0.908606 0.754153 0.658006
93 2 0.831795 0.661906 0.67069
94 1 0.0413606 0.993227 0.0704978
95 2 0.0670766 0.955928 0.012124
96 2 0.562461 0.932783 0.767321
97 2 0.775681 0.726008 0.894656
98 2 0.938432 0.581265 0.0321566
99 2 0.173391 0.142228 0.320892
100 2 0.950188 0.926638 0.467213
101 1 0.44286 0.619171 0.349365
102 2 0.502064 0.90811 0.144372
103 2 0.909726 0.711935 0.641852
104 2 0.581172 0.894632 0.756627
105 2 0.797752 0.697408 0.613861
106 2 0.966916 0.518003 0.524566
107 2 0.278329 0.0946297 0.254229
108 2 0.834121 0.708715 0.579138
109 2 0.871646 0.68083 0.620059
110 2 0.612307 0.956944 0.756805
111 2 0.0595037 0.606287 0.238337
112 1 0.850467 0.681545 0.555064
113 1 0.771063 0.647201 0.599063
114 2 0.879789 0.724403 0.668449
115 2 0.543595 0.384772 0.594328
116 2 0.839911 0.642397 0.64633
117 2 0.682084 0.125341 0.113808
118 2 0.821602 0.694688 0.643468
119 2 0.482331 0.565053 0.0030636
120 2 0.851826 0.722257 0.607003
121 2 0.56128 0.896798 0.776904
122 2 0.58244 0.89821 0.741927
123 2 0.850065 0.709229 0.668524
124 2 0.818382 0.702967 0.625393
125 1 0.942199 0.732275 0.609451
126 2 0.557612 0.931078 0.719919
127 2 0.83073 0.732898 0.63689
128 2 0.508527 0.746342 0.611486
129 1 0.374624 0.912674 0.0441792
130 2 0.772681 0.100791 0.1985
131 2 0.58102 0.880831 0.700486
132 2 0.614156 0.901805 0.726697
133 2 0.852446 0.676949 0.640961
134 2 0.158555 0.640091 0.460889
135 2 0.635066 0.928622 0.733746
136 2 0.89291 0.738576 0.652184
137 1 0.555173 0.898438 0.671889
138 2 0.587387 0.901982 0.775746
139 2 0.59316 0.911035 0.733175
140 1 0.82754 0.778664 0.567334
141 2 0.850804 0.75659 0.623864
142 2 0.867719 0.888829 0.751609
143 2 0.655208 0.629941 0.0689309
144 2 0.810235 0.393781 0.926445
145 2 0.91045 0.805193 0.725265
146 2 0.576793 0.959099 0.768561
147 1 0.263863 0.265526 0.451206
148 1 0.810486 0.672211 0.567162
149 2 0.594453 0.851615 0.756446
150 1 0.909217 0.640906 0.64491
151 2 0.570846 0.918536 0.737503
152 2 0.870229 0.730541 0.614384
153 1 0.801181 0.755919 0.583889
154 1 0.268317 0.924763 0.40748
155 2 0.745727 0.0830163 0.23781
156 2 0.886091 0.749642 0.642893
157 2 0.0621023 0.518669 0.518431
158 2 0.852946 0.523778 0.944288
159 2 0.60233 0.952812 0.707119
160 2 0.595071 0.923444 0.733237
161 2 0.593603 0.869921 0.787506
162 2 0.591391 0.947819 0.706075
163 2 0.632545 0.897544 0.789989
164 2 0.863972 0.671161 0.652822
165 2 0.815304 0.735554 0.643449
166 2 0.585016 0.941399 0.738323
167 2 0.347866 0.69928 0.131386
168 2 0.610449 0.883443 0.741998
169 2 0.506922 0.0722629 0.233884
170 2 0.718282 0.705929 0.0745582
171 2 0.892125 0.718653 0.628575
172 2 0.542879 0.881189 0.160314
173 1 0.766317 0.698035 0.66165
174 2 0.564967 0.880627 0.757322
175 2 0.335048 0.423576 0.40525
176 2 0.583569 0.931335 0.8059
177 1 0.470856 0.182845 0.938976
178 2 0.960907 0.460969 0.373377
179 2 0.518154 0.410339 0.973958
180 2 0.865222 0.690544 0.633227
181 2 0.640654 0.90157 0.741262
182 2 0.0239646 0.217968 0.862859
183 2 0.919381 0.285288 0.122196
184 2 0.568014 0.936888 0.743446
185 2 0.862985 0.723341 0.670649
186 2 0.817589 0.676163 0.632854
187 2 0.496709 0.156122 0.19716
188 1 0.609411 0.995514 0.745096
189 2 0.613202 0.888114 0.724373
190 2 0.873391 0.727046 0.624393
191 2 0.605991 0.915014 0.741151
192 2 0.556708 0.94164 0.733368
193 2 0.584816 0.87559 0.737732
194 2 0.1958 0.781089 0.658859
195 2 0.549174 0.904589 0.707964
196 2 0.552973 0.883541 0.773244
197 2 0.910594 0.689359 0.659925
198 2 0.972925 0.685578 0.0188237
199 2 0.83331 0.384609 0.932248
200 1 0.911638 0.702945 0.706565
201 2 0.970345 0.365461 0.899598
202 2 0.925341 0.46931 0.288739
203 2 0.55976 0.949422 0.785345
204 2 0.0389152 0.893357 0.110184
205 2 0.609757 0.953669 0.725529
206 2 0.372326 0.968552 0.0279555
207 2 0.396787 0.252787 0.407191
208 2 0.191601 0.536313 0.24999
209 2 0.85582 0.684894 0.658892
210 2 0.850765 0.694839 0.608089
211 2 0.451211 0.226125 0.441647
212 1 0.6085 0.853311 0.674294
213 2 0.847731 0.665697 0.649853
214 2 0.819683 0.712529 0.645343
215 2 0.816472 0.656452 0.634669
216 2 0.62329 0.86501 0.724946
217 2 0.621557 0.916154 0.769879
218 2 0.394916 0.195771 0.816837
219 2 0.565587 0.955954 0.711159
220 2 0.999724 0.729279 0.41803
221 2 0.804677 0.705989 0.601141
222 2 0.0258221 0.0228181 0.161455
223 2 0.894582 0.593633 0.566155
224 2 0.547842 0.9197 0.782144
225 1 0.886219 0.766082 0.687481
226 2 0.564129 0.874213 0.749571
227 2 0.575627 0.882084 0.719297
228 2 0.901068 0.722361 0.608394
229 2 0.581292 0.935423 0.764934
230 1 0.820372 0.824965 0.616044
231 2 0.616199 0.896096 0.736221
232 2 0.843743 0.693902 0.635067
233 1 0.869434 0.614161 0.633131
234 2 0.899966 0.71767 0.652633
235 2 0.856872 0.654833 0.6691
236 2 0.56931 0.919661 0.705798
237 2 0.203811 0.353771 1.00017
238 1 0.64296 0.366564 0.664135
239 1 0.762464 0.699552 0.604281
240 2 0.848387 0.680366 0.675122
241 2 0.570355 0.860945 0.780414
242 1 0.953556 0.685088 0.677253
243 1 0.92453 0.739542 0.645844
244 2 0.885867 0.727899 0.647318
245 2 0.0352357 0.764747 0.0870234
246 1 0.678196 0.936604 0.78617
247 2 0.734883 0.664059 0.715586
248 2 0.668968 0.706436 0.405026
249 2 0.621762 0.947029 0.777189
250 2 0.584196 0.944245 0.791638
251 2 0.889399 0.100076 0.564577
252 2 0.471771 0.341994 0.40395
253 2 0.284048 0.175666 0.64754
254 2 0.295938 0.805355 0.414903
255 2 0.622595 0.935703 0.750946
256 2 0.60349 0.869923 0.714729
257 2 0.599387 0.942049 0.734802
258 2 0.889289 0.719484 0.666513
259 1 0.477507 0.372113 0.308208
260 2 0.83693 0.670764 0.595192
261 1 0.645966 0.930712 0.82429
262 2 0.497686 0.0811786 0.375074
263 2 0.819356 0.708575 0.659831
264 2 0.814196 0.963729 0.133531
265 1 0.796195 0.778259 0.664124
266 2 0.815933 0.728076 0.646124
267 2 0.581517 0.880643 0.747636
268 1 0.571345 0.849157 0.852971
269 1 0.163588 0.127157 0.0876659
270 2 0.24495 0.172444 0.0567729
271 2 0.849757 0.913223 0.983663
272 2 0.102595 0.324072 0.0690755
273 1 0.845482 0.785767 0.654134
274 2 0.825396 0.695975 0.60866
275 2 0.851366 0.648093 0.623806
276 2 0.610852 0.897113 0.772643
277 2 0.878487 0.716478 0.62541
278 2 0.166118 0.860366 0.656242
279 2 0.60654 0.933476 0.711017
280 1 0.524623 0.866715 0.785267
281 2 0.2917 0.0273796 0.314147
282 2 0.579294 0.926032 0.74452
283 2 0.366224 0.372487 0.488613
284 1 0.635232 0.831172 0.711959
285 2 0.5892 0.949397 0.750923
286 2 0.538094 0.929893 0.758359
287 1 0.990168 0.153813 0.459398
288 2 0.59189 0.932378 0.749565
289 2 0.849963 0.730495 0.658676
290 2 0.750866 0.806963 0.641926
291 2 0.82663 0.75525 0.61595
292 2 0.247855 0.470001 0.771824
293 2 0.841386 0.676973 0.624342
294 2 0.797856 0.723576 0.656704
295 2 0.800906 0.704641 0.65236
296 2 0.686308 0.819501 0.0532822
297 2 0.55892 0.928123 0.742335
298 2 0.876155 0.698382 0.623078
299 1 0.656775 0.869218 0.797636
300 2 0.535434 0.914968 0.770492
301 2 0.610773 0.935081 0.801235
302 2 0.458911 0.664712 0.809747
303 2 0.613351 0.912691 0.760689
304 1 0.981468 0.730139 0.239809
305 2 0.566573 0.89737 0.74123
306 2 0.625719 0.952756 0.765459
307 2 0.594865 0.0794857 0.158814
308 2 0.711862 0.416196 0.770046
309 2 0.790993 0.698846 0.640874
310 2 0.797509 0.731624 0.614399
311 2 0.844415 0.740893 0.623669
312 2 0.590427 0.94356 0.776943
313 2 0.825097 0.720624 0.668047
314 2 0.81743 0.650917 0.928604
315 2 0.874352 0.714465 0.684275
316 2 0.824038 0.652641 0.651658
317 2 0.594653 0.88987 0.743397
318 2 0.911859 0.477926 0.374363
319 2 0.852733 0.673981 0.607506
320 2 0.833414 0.706275 0.665404
321 2 0.816722 0.753522 0.633665
322 2 0.83618 0.76059 0.623538
323 2 0.732043 0.3703 0.536642
324 2 0.0752749 0.291953 0.498895
325 2 0.862111 0.732129 0.616906
326 2 0.580769 0.93 0.711721
327 2 0.672581 0.618274 0.237979
328 2 0.814811 0.696098 0.655053
329 1 0.254862 0.882006 0.594
330 2 0.857129 0.724393 0.63786
331 2 0.865776 0.696701 0.641683
332 2 0.616112 0.89561 0.713396
333 2 0.782597 0.289091 0.505836
334 2 0.56262 0.939666 0.714771
335 1 0.341665 0.808282 0.606483
336 2 0.805871 0.687471 0.625298
337 2 0.628381 0.427185 0.560839
338 1 0.48654 0.92789 0.725299
339 2 0.829267 0.735469 0.688998
340 2 0.0285307 0.3989 0.166379
341 2 0.549652 0.896471 0.731344
342 2 0.842034 0.729774 0.641686
343 2 0.832964 0.71916 0.628494
344 1 0.567669 0.959364 0.826102
345 1 0.898489 0.622206 0.583114
346 1 0.51656 0.903881 0.708042
347 1 0.864963 0.254123 0.91813
348 2 0.135482 0.00740768 0.102421
349 2 0.00287085 0.334201 0.593365
350 2 0.383458 0.439494 0.925528
351 2 0.853274 0.709216 0.577231
352 2 0.0871581 0.143215 0.117031
353 1 0.916385 0.701901 0.570858
354 1 0.862864 0.949174 0.213971
355 2 0.114073 0.838207 0.778419
356 2 0.868369 0.752362 0.660961
357 2 0.00289151 0.335857 0.733007
358 2 0.210476 0.99499 0.561891
359 2 0.279543 0.442879 0.0615605
360 2 0.601699 0.897687 0.751215
361 1 0.547086 0.000403189 0.803949
362 2 0.0229886 0.809705 0.338645
363 1 0.673094 0.911848 0.710549
364 2 0.587757 0.960328 0.73339
365 2 0.856051 0.681672 0.627036
366 2 0.818776 0.693326 0.592817
367 1 0.484873 0.539988 0.516213
368 1 0.524372 0.969144 0.783326
369 2 0.213734 0.0131375 0.388362
370 2 0.108816 0.234616 0.133083
371 2 0.843673 0.652781 0.625907
372 1 0.789871 0.0947293 0.720606
373 2 0.80717 0.899167 0.0696107
374 2 0.353854 0.336163 0.955626
375 2 0.623826 0.9403 0.719803
376 2 0.331355 0.503925 0.0489705
377 2 0.0785433 0.590829 0.0224014
378 2 0.593608 0.884829 0.755702
379 2 0.876306 0.736217 0.634645
380 2 0.615375 0.862176 0.75773
381 2 0.612951 0.93254 0.782954
382 2 0.0293244 0.119726 0.468406
383 2 0.946421 0.619655 0.636333
384 1 0.343976 0.36854 -0.00075863
385 2 0.828388 0.723539 0.595637
386 2 0.721427 0.805881 0.0427664
387 1 0.373137 0.700253 0.995681
388 2 0.611075 0.914163 0.722624
389 2 0.862556 0.697402 0.669834
390 2 0.576307 0.965981 0.74868
391 2 0.757288 0.395091 0.113068
392 1 0.798149 0.760558 0.717893
393 2 0.420951 0.599402 0.960932
394 2 0.597408 0.893845 0.76356
395 2 0.581663 0.911408 0.697603
396 2 0.629311 0.931463 0.724595
397 2 0.872237 0.672288 0.620314
398 1 0.629817 0.41226 0.785052
399 1 0.847535 0.645051 0.698095
400 1 0.985332 0.762479 0.362923
401 2 0.577361 0.90618 0.732885
402 2 0.507822 0.210698 0.509046
403 2 0.0660667 0.155541 0.0835286
404 2 0.902861 0.711437 0.670234
405 2 0.523062 0.289681 0.0277362
406 2 0.584037 0.847039 0.743619
407 2 0.682238 0.403245 0.646631
408 2 0.839497 0.659438 0.612378
409 2 0.603882 0.966627 0.78769
410 2 0.835829 0.680563 0.671727
411 2 0.493947 0.433742 0.284796
412 2 0.102398 0.419402 0.210081
413 2 0.886097 0.683286 0.624801
414 2 0.193501 0.0297625 0.471556
415 2 0.560402 0.89037 0.718618
416 1 0.804177 0.691053 0.522064
417 2 0.201401 0.465293 0.538517
418 2 0.594572 0.892215 0.715361
419 2 0.856876 0.975757 0.897776
420 2 0.198985 0.133771 0.767417
421 1 0.567838 0.929681 0.646397
422 1 0.611427 0.81623 0.79911
423 2 0.623833 0.878813 0.779399
424 2 0.572555 0.884175 0.783855
425 1 0.531474 0.935043 0.695208
426 2 0.932495 0.419735 0.330645
427 2 0.770307 0.679309 0.943394
428 2 0.09539 0.858621 0.100826
429 2 0.571859 0.934834 0.80189
430 2 0.808164 0.740541 0.61944
431 2 0.838006 0.689771 0.609412
432 1 0.676153 0.870035 0.763643
433 2 0.822335 0.406253 0.346316
434 1 0.247891 0.0359387 0.504922
435 2 0.971244 0.590637 0.236488
436 2 0.87695 0.674505 0.666711
437 2 0.797665 0.195383 0.880528
438 2 0.0305728 0.892087 0.280499
439 1 0.56747 0.843755 0.801578
440 2 0.841 0.734488 0.621684
441 1 0.690905 0.845984 0.104656
442 1 0.935376 0.692642 0.649698
443 1 0.0604135 0.735345 0.0481585
444 2 0.878283 0.677639 0.65461
445 2 0.355892 0.700246 0.626736
446 2 0.431934 0.669432 0.802922
447 2 0.889107 0.661013 0.636335
448 2 0.0420905 0.467667 0.414067
449 1 0.807133 0.0903762 0.156256
450 2 0.829136 0.65676 0.605935
451 2 0.590454 0.870609 0.744581
452 2 0.593725 0.871637 0.761685
453 1 0.663053 0.86165 0.720513
454 2 0.819026 0.729001 0.61514
455 2 0.35913 0.465226 0.0927512
456 2 0.768906 0.493842 0.319799
457 2 0.61071 0.851751 0.734017
458 2 0.604366 0.878227 0.771178
459 2 0.612061 0.986395 0.785137
460 2 0.883116 0.690141 0.633785
461 2 0.770826 0.387086 -0.000411939
462 2 0.83527 0.687964 0.62537
463 1 0.802372 0.633448 0.687669
464 2 0.315156 0.647599 0.360866
465 2 0.557278 0.920656 0.755015
466 2 0.89708 0.707278 0.609502
467 1 0.552219 0.103679 0.801627
468 2 0.277228 0.00496816 0.888654
469 2 0.875371 0.745801 0.610929
470 2 0.638002 0.918199 0.721518
471 2 0.817502 0.66709 0.650963
472 2 0.852363 0.710621 0.649687
473 1 0.795335 0.712859 0.70025
474 1 0.420518 0.363196 0.370706
475 1 0.980334 0.3491 0.4676
476 2 0.639908 0.894991 0.737524
477 2 0.540506 0.904968 0.732096
478 2 0.893425 0.71791 0.59226
479 2 0.247508 0.850555 0.356387
480 2 0.549622 0.928813 0.763771
481 2 0.868433 0.725936 0.648019
482 2 0.344817 0.886494 0.352322
483 2 0.851782 0.695784 0.59892
484 1 0.835979 0.597769 0.58438
485 1 0.681473 0.947398 0.625003
486 2 0.83245 0.662561 0.632485
487 2 0.243714 0.833842 0.547186
488 2 0.880442 0.695857 0.673919
489 2 0.897838 0.702277 0.632058
490 2 0.859423 0.741737 0.615714
491 2 0.849193 0.653609 0.65917
492 2 0.845413 0.744601 0.65835
493 2 0.90208 0.682556 0.636391
494 2 0.571827 0.929947 0.746369
495 2 0.590544 0.915098 0.782375
496 2 0.867298 0.674671 0.606675
497 2 0.93977 0.655836 0.0781864
498 1 0.641798 0.864746 0.487925
499 2 0.609487 0.917053 0.733617
500 2 0.444857 0.490582 0.62987
501 1 0.767588 0.668857 0.639771
502 2 0.869881 0.634405 0.610568
503 2 0.831628 0.731747 0.608423
504 1 0.506208 0.884998 0.750065
505 2 0.845454 0.755256 0.666569
506 2 0.872493 0.683723 0.611273
507 2 0.558056 0.94196 0.749086
508 2 0.56829 0.920593 0.754072
509 1 0.664259 0.941305 0.730962
510 2 0.824422 0.686428 0.631993
511 2 0.584876 0.933409 0.783006
512 2 0.833316 0.683765 0.657363
513 1 0.161489 0.0134729 0.353949
514 2 0.620965 0.943844 0.743312
515 1 0.564059 0.792437 0.753714
516 2 0.592022 0.900942 0.699646
517 1 0.793414 0.635523 0.638838
518 2 0.862936 0.639606 0.835179
519 2 0.586623 0.927847 0.693428
520 2 0.583062 0.955793 0.751283
521 2 0.300883 0.396282 0.185183
522 2 0.944112 0.633034 0.117333
523 2 0.822311 0.71187 0.630465
524 2 0.0853355 0.946856 0.474481
525 2 0.819005 0.728943 0.582424
526 2 0.524626 0.546935 0.59256
527 2 0.843618 0.744414 0.60418
528 1 0.369334 0.427847 0.265075
529 2 0.829354 0.720016 0.69245
530 2 0.85714 0.766406 0.617339
531 2 0.584936 0.905243 0.798483
532 2 0.601713 0.909629 0.72178
533 2 0.464232 0.587033 0.947443
534 1 0.539838 0.978872 0.705409
535 2 0.837478 0.72149 0.650193
536 1 0.78819 0.706588 0.580797
537 1 0.574248 0.948394 0.673435
538 2 0.159679 0.902037 0.994662
539 2 0.910977 0.715463 0.621705
540 2 0.602954 0.591199 0.0884012
541 1 0.828813 0.616952 0.621799
542 2 0.584582 0.885982 0.785597
543 1 0.230312 0.16252 0.204716
544 1 0.921452 0.652919 0.6127
545 2 0.834023 0.73581 0.666298
546 2 0.873817 0.734573 0.675485
547 2 0.0210518 0.0711747 0.681416
548 2 0.631156 0.888814 0.728464
549 2 0.616609 0.85613 0.785597
550 2 0.848535 0.325968 0.409302
551 1 0.834464 0.776625 0.69543
552 2 0.0389187 0.773909 0.0588915
553 2 0.820135 0.694968 0.68942
554 2 0.622795 0.9182 0.704108
555 1 0.900993 0.346826 0.133742
556 2 0.325886 0.528667 0.267281
557 2 0.839373 0.712856 0.635932
558 1 0.865755 0.815174 0.684286
559 2 0.888568 0.687762 0.619419
560 2 0.526192 0.918542 0.748057
561 2 0.87492 0.485559 0.599158
562 1 0.856561 0.746117 0.562278
563 2 0.873567 0.741387 0.642519
564 2 0.279897 0.397052 0.364953
565 2 0.857268 0.716639 0.584987
566 2 0.0369288 0.327422 0.64253
567 2 0.88245 0.721375 0.636636
568 2 0.884842 0.718484 0.689727
569 1 0.75861 0.750338 0.553577
570 2 0.860376 0.729744 0.642552
571 2 0.98387 0.275019 0.396243
572 2 0.602332 0.864071 0.78891
573 2 0.885677 0.673902 0.603902
574 2 0.4573 0.0392657 0.970365
575 1 0.344223 0.867601 0.442809
576 2 0.851267 0.67002 0.623913
577 2 0.612809 0.920147 0.707828
578 1 0.6052 0.932237 0.835187
579 2 0.589534 0.930025 0.712139
580 1 0.886816 0.298663 0.402773
581 2 0.686948 0.296051 0.356101
582 2 0.585123 0.862712 0.724898
583 1 0.911076 0.388435 0.388956
584 2 0.607431 0.934182 0.741885
585 1 0.87598 0.761937 0.729534
586 2 0.843391 0.748929 0.646361
587 2 0.564671 0.884933 0.737356
588 2 0.941681 0.427162 0.226885
589 1 0.687936 0.910674 0.806721
590 1 0.470464 0.874151 0.715409
591 1 0.635711 0.888767 0.691199
592 2 0.668198 0.644581 0.548247
593 2 0.582101 0.919959 0.727905
594 1 0.118528 0.877374 0.00681297
595 1 0.772879 0.25039 0.882564
596 2 0.0203345 0.160063 0.314914
597 1 0.507048 0.572414 0.915394
598 2 0.660379 0.908935 0.776929
599 2 0.832977 0.706042 0.608186
600 2 0.664027 0.454762 0.166082
601 2 0.814021 0.713733 0.682631
602 1 0.881864 0.698159 0.554504
603 2 0.797095 0.674015 0.622324
604 1 0.0690311 0.22833 0.622355
605 2 0.358589 0.6264 0.504579
606 2 0.675659 0.912746 0.112828
607 1 0.825971 0.701236 0.7255
608 2 0.942537 0.750336 0.93763
609 2 0.809778 0.708697 0.61377
610 2 0.850764 0.737236 0.604233
611 2 0.543263 0.947158 0.781525
612 1 0.638215 0.772051 0.412346
613 2 0.296505 0.999024 0.498114
614 1 0.683763 0.986276 0.196471
615 2 0.929237 0.736696 0.854672
616 1 0.507707 0.84989 0.756331
617 2 0.570784 0.934897 0.773556
618 2 0.308517 0.805378 0.702646
619 2 0.248814 0.967614 0.388995
620 2 0.201305 0.0912039 0.0632681
621 2 0.866193 0.684656 0.643983
622 2 0.870427 0.702866 0.655958
623 1 0.347812 0.422683 0.36095
624 2 0.597912 0.0696754 0.706213
625 2 0.9923 0.261844 0.751089
626 2 0.240978 0.863052 0.829966
627 2 0.566726 0.896005 0.747528
628 2 0.33801 0.23075 0.504743
629 2 0.387444 0.402724 0.0994978
630 1 0.827641 0.738395 0.716715
631 2 0.236828 0.465642 0.011197
632 2 0.847113 0.693634 0.654848
633 2 0.645472 0.907266 0.768798
634 2 0.29422 0.841733 0.323011
635 2 0.294105 0.306884 0.0225967
636 2 0.560842 0.93163 0.790037
637 2 0.620605 0.910053 0.777637
638 1 0.628536 0.0517666 0.412714
639 2 0.595429 0.913653 0.761445
640 2 0.601545 0.880987 0.780693
641 2 0.886112 0.723784 0.586276
642 2 0.85411 0.68762 0.650506
643 2 0.470195 0.742893 0.0398613
644 2 0.549286 0.911152 0.788923
645 1 0.614711 0.941258 0.670756
646 2 0.532466 0.915508 0.748375
647 1 0.708881 0.555023 0.040826
648 2 0.503378 0.424943 0.320454
649 2 0.805348 0.669921 0.624613
650 2 0.59703 0.973543 0.743701
651 2 0.874722 0.722378 0.606491
652 2 0.876594 0.704516 0.632045
653 2 0.848828 0.727486 0.623909
654 1 0.857311 0.61745 0.667465
655 2 0.0767434 0.840681 0.207028
656 2 0.548994 0.917879 0.776326
657 2 0.862133 0.392962 0.155179
658 2 0.865141 0.755066 0.647572
659 2 0.582989 0.883972 0.760074
660 2 0.212447 0.107096 0.0478054
661 1 0.455408 0.539809 0.594331
662 2 0.872779 0.714116 0.651023
663 2 0.609421 0.957992 0.757663
664 1 0.427689 0.862008 0.428124
665 2 0.0542079 0.827438 0.895347
666 2 0.560492 0.905206 0.720594
667 2 0.549158 0.895727 0.781865
668 2 0.563506 0.908768 0.772964
669 2 0.495666 0.376039 0.422815
670 1 0.105931 0.989317 0.545995
671 2 0.357466 0.26323 0.46813
672 1 0.82569 0.723248 0.545506
673 2 0.874969 0.680635 0.678244
674 2 0.426467 0.690699 0.423277
675 2 0.751192 0.0962865 0.509844
676 1 0.147123 0.049936 0.986877
677 2 0.599791 0.921708 0.789321
678 2 0.622969 0.912834 0.725906
679 1 0.987246 0.158962 0.662612
680 2 0.5817 0.896161 0.71961
681 1 0.81591 0.63521 0.585519
682 1 0.662966 0.697344 0.588792
683 2 0.532796 0.252904 0.50466
684 2 0.241401 0.0422605 0.887441
685 2 0.59254 0.881031 0.702296
686 2 0.962776 0.0646373 0.309056
687 1 0.61958 0.854984 0.815413
688 2 0.437918 0.119179 0.490135
689 2 0.867153 0.676844 0.679451
690 2 0.83675 0.682724 0.685489
691 2 0.630338 0.980921 0.770926
692 1 0.588097 0.984926 0.710267
693 2 0.196662 0.40027 0.502693
694 2 0.574868 0.890974 0.766978
695 1 0.508272 0.925766 0.768164
696 2 0.635601 0.0989114 0.0171613
697 2 0.373594 0.872893 0.505475
698 2 0.820963 0.731281 0.607494
699 2 0.808403 0.730157 0.625366
700 1 0.563423 0.913578 0.853089
701 2 0.844174 0.716919 0.671911
702 2 0.641592 0.926359 0.759735
703 2 0.896501 0.62185 0.0438921
704 2 0.679447 0.501643 0.0137278
705 2 0.809861 0.692057 0.674733
706 2 0.884121 0.674773 0.665212
707 2 0.466481 0.989055 0.00849463
708 1 0.871153 0.717214 0.713038
709 2 0.992038 0.618622 0.240804
710 2 0.840482 0.698684 0.681743
711 2 0.585263 0.899641 0.571717
712 1 0.924879 0.733518 0.684895
713 2 0.836147 0.702258 0.59471
714 1 0.911596 0.751694 0.593476
715 2 0.563491 0.899289 0.754837
716 1 0.208483 0.212908 0.356744
717 2 0.57938 0.914915 0.76155
718 2 0.790573 0.910971 0.388281
719 2 0.84018 0.691748 0.64068
720 2 0.52535 0.762522 0.434699
721 2 0.557902 0.922761 0.70532
722 1 0.219607 0.687737 0.663044
723 2 0.024233 0.272717 0.246912
724 2 0.59479 0.925982 0.804953
725 2 0.0885863 0.0314215 0.330743
726 2 0.831578 0.68502 0.608819
727 1 0.763421 0.341108 0.948783
728 1 0.0957121 0.101171 0.00110045
729 1 0.674209 0.908477 0.751082
730 1 0.604412 0.991435 0.676904
731 2 0.870449 0.695538 0.685695
732 1 0.450179 0.292201 0.652969
733 2 0.0508341 0.178665 0.462162
734 2 0.571654 0.906545 0.805904
735 2 0.85575 0.741606 0.687019
736 1 0.641217 0.886848 0.644146
737 2 0.609408 0.911035 0.79308
738 2 0.594745 0.22016 0.862635
739 2 0.597886 0.927836 0.761014
740 2 0.833724 0.481979 0.921113
741 2 0.545802 0.880574 0.78929
742 1 0.521989 0.960144 0.728203
743 2 0.839188 0.700942 0.66437
744 2 0.874927 0.677861 0.63072
745 2 0.538332 0.943467 0.75779
746 1 0.816509 0.664519 0.707203
747 2 0.255675 0.106263 0.520433
748 2 0.8093 0.667889 0.638977
749 2 0.829782 0.711572 0.675872
750 2 0.271207 0.35823 0.110246
751 2 0.598873 0.961451 0.768274
752 2 0.598935 0.942928 0.756853
753 2 0.044526 0.573567 0.260841
754 2 0.257057 0.100267 0.725927
755 2 0.627637 0.885414 0.787693
756 2 0.830928 0.73114 0.586477
757 2 0.798724 0.707036 0.629771
758 2 0.494372 0.667339 0.298701
759 2 0.561563 0.954912 0.756544
760 1 0.451124 0.67569 0.328036
761 2 0.585681 0.928973 0.766655
762 2 0.597731 0.896783 0.806687
763 1 0.635791 0.571197 0.285532
764 2 0.584098 0.873101 0.771872
765 2 0.550153 0.879866 0.754568
766 2 0.882887 0.742411 0.626968
767 2 0.566031 0.39921 0.291072
768 2 0.27372 0.502332 0.241622
769 2 0.815704 0.670608 0.60866
770 2 0.857699 0.743868 0.648772
771 2 0.864951 0.581219 0.284104
772 2 0.74015 0.352523 0.37655
773 1 0.871068 0.708862 0.757723
774 2 0.232058 0.0441055 0.344774
775 2 0.0211702 0.792218 0.152429
776 2 0.874539 0.660418 0.624989
777 1 0.55365 0.879387 0.817746
778 2 0.865141 0.749125 0.629118
779 2 0.963754 0.433405 0.435037
780 1 0.899217 0.664678 0.573753
781 2 0.550249 0.940828 0.760416
782 2 0.436318 0.335779 0.534709
783 1 0.537944 0.809306 0.79825
784 2 0.88957 0.699703 0.635177
785 2 0.868582 0.703464 0.585407
786 1 0.762013 0.749169 0.667175
787 2 0.813278 0.675069 0.673587
788 2 0.8073 0.692917 0.64926
789 2 0.530661 0.282152 0.923151
790 2 0.568174 0.952839 0.735385
791 1 0.777645 0.660225 0.675521
792 2 0.850956 0.715465 0.658627
793 2 0.41715 0.782169 0.0550872
794 2 0.918039 0.181136 0.773902
795 2 0.596664 0.899252 0.730986
796 2 0.54082 0.137265 0.265792
797 2 0.825098 0.708703 0.617501
798 2 0.179252 0.608307 0.79303
799 2 0.589509 0.900222 0.768438
800 2 0.36352 0.420514 0.32369
801 2 0.557782 0.968052 0.743738
802 2 0.471923 0.871344 0.783324
803 2 0.862595 0.74242 0.660423
804 2 0.89818 0.408846 0.0904376
805 2 0.682361 0.101201 0.25386
806 1 0.0900035 0.886892 0.495947
807 2 0.627015 0.904942 0.760501
808 2 0.811922 0.163313 0.890995
809 1 0.857624 0.67663 0.716138
810 2 0.612713 0.870923 0.734604
811 2 0.85099 0.679871 0.633446
812 2 0.841188 0.673505 0.652302
813 1 0.62583 0.12178 0.12435
814 2 0.891281 0.672578 0.643085
815 2 0.852456 0.70269 0.639055
816 1 0.864802 0.645048 0.575104
817 1 0.475718 0.945854 0.775823
818 2 0.877069 0.706804 0.657579
819 1 0.87514 0.808204 0.615598
820 1 0.59215 0.987138 0.809605
821 2 0.544137 0.929946 0.722262
822 2 0.573307 0.945653 0.725597
823 1 0.937336 0.689199 0.609882
824 2 0.710062 0.378067 0.732225
825 2 0.865374 0.728189 0.597376
826 2 0.526834 0.939086 0.530598
827 1 0.810461 0.196485 0.713311
828 2 0.884255 0.735367 0.662982
829 2 0.815827 0.66967 0.621019
830 2 0.33198 0.970241 0.404523
831 1 0.574235 0.861325 0.677124
832 2 0.495694 0.0775181 0.950018
833 1 0.892616 0.737201 0.549013
834 2 0.832968 0.669494 0.622323
835 2 0.638956 0.728357 0.244606
836 2 0.843082 0.744014 0.689804
837 2 0.177251 0.959357 0.422895
838 2 0.620342 0.925361 0.744318
839 2 0.528858 0.502051 0.827442
840 2 0.607156 0.886346 0.802067
841 2 0.799267 0.740702 0.661484
842 2 0.354054 0.919487 0.216178
843 2 0.858846 0.710129 0.624597
844 2 0.82627 0.663346 0.662005
845 2 0.81827 0.716413 0.596169
846 2 0.793931 0.680034 0.657556
847 2 0.857929 0.660847 0.647546
848 2 0.583454 0.322107 0.936081
849 1 0.578711 0.987189 0.775282
850 2 0.874702 0.681006 0.592177
851 2 0.569572 0.919095 0.772721
852 2 0.563674 0.912098 0.741057
853 1 0.211544 0.0743174 0.833357
854 2 0.782093 0.35227 0.781564
855 2 0.850702 0.693248 0.685263
856 2 0.861712 0.66067 0.635678
857 2 0.552024 0.869708 0.740439
858 2 0.890003 0.698193 0.649589
859 2 0.851095 0.68449 0.589505
860 2 0.705574 0.228791 0.265549
861 2 0.882643 0.712951 0.659783
862 2 0.992129 0.620081 0.186058
863 2 0.636002 0.890377 0.758994
864 2 0.59488 0.90631 0.812474
865 2 0.817393 0.734536 0.657001
866 2 0.844039 0.691669 0.62311
867 2 0.223248 0.0444155 0.167428
868 2 0.300861 0.217564 0.562345
869 2 0.856534 0.702844 0.588964
870 2 0.905624 0.700168 0.614165
871 2 0.616262 0.890285 0.755578
872 2 0.574427 0.902678 0.778332
873 2 0.856628 0.671028 0.66976
874 2 0.895029 0.693517 0.658145
875 2 0.281652 0.861177 0.505283
876 2 0.77841 0.176985 0.614077
877 2 0.578236 0.905301 0.749566
878 2 0.341165 0.858406 0.292445
879 2 0.491816 0.743319 0.763813
880 2 0.183423 0.281377 0.542637
881 2 0.834314 0.69112 0.67181
882 1 0.659548 0.715806 0.0295611
883 1 0.385323 0.0620158 0.0220585
884 2 0.193546 0.160389 0.145014
885 2 0.854015 0.880191 0.984768
886 2 0.859808 0.667249 0.590513
887 1 0.139172 0.380367 0.992808
888 2 0.280135 0.470195 0.754778
889 2 0.746348 0.547483 0.417159
890 1 0.768253 0.738332 0.623189
891 2 0.0794783 0.31013 0.730822
892 2 0.857012 0.700294 0.615531
893 2 0.595403 0.901348 0.783994
894 2 0.609792 0.897606 0.699938
895 1 0.895965 0.665405 0.719225
896 2 0.446631 0.83775 0.76821
897 2 0.826087 0.756319 0.658237
898 2 0.597653 0.910655 0.77477
899 2 0.21991 0.0686832 0.228971
900 2 0.607976 0.906354 0.747188
901 2 0.620558 0.902469 0.754295
902 2 0.829627 0.705272 0.639035
903 2 0.598134 0.928553 0.748564
904 2 0.642479 0.939815 0.761225
905 2 0.651512 0.676725 0.974997
906 2 0.925918 0.00295203 0.335732
907 2 0.853331 0.704846 0.693836