ITEM: TIMESTEP
37800
ITEM: NUMBER OF ATOMS
1000
ITEM: BOX BOUNDS xy xz yz pp pp pp
0.0000000000000000e+00 1.3572088000000001e+01 0.0000000000000000e+00
0.0000000000000000e+00 1.3572088000000001e+01 0.0000000000000000e+00
0.0000000000000000e+00 1.3572088000000001e+01 0.0000000000000000e+00
ITEM: ATOMS id type xs ys zs
1 2 0.404079 0.949528 0.57432
2 2 0.159391 0.066291 0.609634
3 1 0.355199 0.253279 0.731385
4 2 0.227369 0.155046 0.272124
5 2 0.886541 0.933398 0.732644
6 1 0.601039 0.965969 0.850657
7 2 0.430552 0.25318 0.805803
8 2 0.876851 0.299651 0.511378
9 2 0.701827 0.012537 0.994852
10 2 0.699308 0.0339479 0.69505
11 2 0.230766 0.331597 0.555193
12 2 0.103836 0.713447 0.772695
13 2 0.737435 0.262567 0.980264
14 1 0.819984 0.949796 0.066001
15 2 0.74916 0.509131 0.361189
16 2 0.181211 0.439414 0.0234595
17 1 0.672477 0.547068 0.358319
18 2 0.19114 0.0642276 0.225545
19 2 0.377611 0.06325 0.624454
20 2 0.932578 0.276043 0.891944
21 2 0.604163 0.900779 0.8042
22 2 0.14517 0.351643 0.563488
23 2 0.984633 0.290318 0.938362
24 2 0.856368 0.217889 0.149954
25 1 0.237246 0.28913 0.625858
26 2 0.461515 0.250496 0.323362
27 2 0.549205 0.942957 0.740985
28 2 0.57931 1.0005 0.794299
29 2 0.923661 0.95625 0.738577
30 2 0.639734 0.582554 0.979205
31 1 0.696523 0.0859674 0.262275
32 1 0.863053 0.249403 0.0986245
33 1 0.716057 0.966517 0.839172
34 2 0.847488 0.554766 0.280625
35 2 0.35607 0.375433 0.733151
36 1 0.548273 0.0106365 0.6422
37 2 0.608352 0.976012 0.811867
38 2 0.529873 0.0177695 0.838077
39 2 0.736586 0.167139 0.417488
40 2 0.90672 0.750435 0.802412
41 2 0.331536 0.307546 0.707647
42 2 0.203906 0.137466 0.337408
43 2 0.791001 0.813283 0.0196452
44 2 0.0523377 0.042785 0.179487
45 2 0.886622 0.13642 0.836113
46 1 0.164407 0.546061 0.452741
47 2 0.752549 0.173485 0.988297
48 2 0.887438 0.29292 0.640285
49 2 0.301069 0.0306971 0.385538
50 2 0.592221 0.483066 0.183241
51 2 0.552893 0.90935 0.273706
52 2 0.143048 0.825855 0.39593
53 2 0.00416897 0.724584 0.47461
54 2 0.524747 0.977578 0.752649
55 1 0.330532 0.973065 0.408801
56 1 0.390068 0.731086 0.687495
57 2 0.692755 0.0826927 0.512004
58 2 0.749398 0.13017 0.366416
59 2 0.51982 0.796813 0.107648
60 2 0.728795 0.633597 0.00200196
61 2 0.905889 0.968724 0.486089
62 2 0.349069 0.595933 0.0590254
63 2 0.862057 0.293655 0.27569
64 2 0.406478 0.0319919 0.547539
65 2 0.760441 0.561427 0.409402
66 1 0.482098 0.986399 0.106333
67 2 0.713628 0.7134 0.099516
68 2 0.563563 0.960677 0.833139
69 1 0.24223 0.32445 0.519933
70 2 0.775918 0.113423 0.730786
71 1 0.475685 0.00726694 0.747901
72 2 0.217138 0.0688522 0.079119
73 2 0.590065 0.966894 0.270629
74 2 0.081526 0.215071 0.601371
75 2 0.474253 0.790413 0.362173
76 2 0.897461 0.538386 0.899186
77 1 0.726302 0.905662 0.714776
78 2 0.9288 0.301564 0.671909
79 2 0.702466 0.664587 0.867249
80 2 0.701712 0.371843 0.630276
81 2 0.618408 0.0857903 0.92258
82 2 0.881183 0.991064 0.749327
83 2 0.287312 0.0211503 0.46716
84 2 0.737366 0.964542 0.186787
85 1 0.763997 0.5282 0.218092
86 2 0.099477 0.202371 0.789218
87 2 0.116049 0.128533 0.0134972
88 2 0.258614 0.776983 0.113854
89 2 0.86396 0.257774 0.137135
90 2 0.920361 0.980123 0.417833
91 2 0.361387 0.328271 0.781577
92 2 0.571666 0.990286 0.18531
93 2 0.827484 0.645125 0.436332
94 1 0.535588 0.835966 0.110985
95 2 0.47883 0.958429 0.443718
96 2 0.429312 0.976693 0.893932
97 2 0.862897 0.862258 0.0128625
98 2 0.714089 0.515395 0.732192
99 2 0.693463 0.58029 0.434399
100 2 0.310482 0.0363386 0.980509
101 1 0.447721 0.77977 0.890228
102 2 0.540596 0.224916 0.435394
103 2 0.61762 0.440823 0.453852
104 2 0.42606 0.874964 0.6842
105 2 0.692609 0.429973 0.10552
106 2 0.255907 0.217529 0.650864
107 2 0.155194 0.330062 0.697691
108 2 0.954203 0.747322 0.373417
109 2 0.503906 0.92781 0.716336
110 2 0.431563 0.747096 0.644465
111 2 0.56576 0.353157 0.674968
112 1 0.181341 0.266742 0.626982
113 1 0.929882 0.396711 0.294816
114 2 0.760386 0.602147 0.417486
115 2 0.212862 0.000397536 0.00219382
116 2 0.500561 0.951902 0.275139
117 2 0.814229 0.290148 0.367161
118 2 0.692109 0.653079 0.575654
119 2 0.496692 0.713083 0.283132
120 2 0.882337 0.583975 0.697601
121 2 0.811268 0.325597 0.0250933
122 2 0.957936 0.94526 0.715133
123 2 0.389086 0.896075 0.32649
124 2 0.941658 0.112636 0.641579
125 1 0.11132 0.0906567 0.0402886
126 2 0.0618658 0.293532 0.780452
127 2 0.783753 0.410979 0.591158
128 2 0.341915 0.570157 0.631529
129 1 0.133502 0.938363 0.588256
130 2 0.109087 0.142664 0.497293
131 2 0.123097 0.973162 0.808601
132 2 0.421211 0.79617 0.16022
133 2 0.627629 0.62714 0.656929
134 2 0.108893 0.384325 0.595057
135 2 0.662895 0.0492671 0.722037
136 2 0.419992 0.684928 0.792136
137 1 0.143118 0.110766 0.865356
138 2 0.408051 0.854222 0.850867
139 2 0.841974 0.621784 0.0664579
140 1 0.654162 0.478885 0.7023
141 2 0.170466 0.396161 0.604841
142 2 0.580231 0.841981 0.720116
143 2 0.223512 0.254464 0.115376
144 2 0.347402 0.227688 0.262525
145 2 0.599046 0.868755 0.0307422
146 2 0.00568151 0.375508 0.667939
147 1 0.558335 0.990013 0.724126
148 1 0.582861 0.450666 0.500904
149 2 0.955667 0.754303 0.68279
150 1 0.602573 0.875816 0.591213
151 2 0.354848 0.64064 0.412753
152 2 0.207109 0.989512 0.385328
153 1 0.933588 0.481164 0.620349
154 1 0.515492 0.908348 0.844629
155 2 0.0578577 0.655287 0.503729
156 2 0.97953 0.407717 0.563354
157 2 0.651921 0.598796 0.825249
158 2 0.690667 0.456386 0.618259
159 2 0.161533 0.231856 0.30869
160 2 0.931704 0.589507 0.5416
161 2 0.687533 0.179581 0.00740164
162 2 0.678593 0.939511 0.917653
163 2 0.250859 0.178583 0.634152
164 2 0.346956 0.362769 0.663263
165 2 0.231698 0.899883 0.715842
166 2 0.973646 0.725324 0.493576
167 2 0.158322 0.734537 0.747035
168 2 0.07792 0.00528934 0.898957
169 2 0.0999279 0.56746 0.442881
170 2 0.800943 0.423413 0.632646
171 2 0.49367 0.617762 0.86143
172 2 0.3957 0.119131 0.847393
173 1 0.728734 0.493793 0.680369
174 2 0.278236 0.803547 0.785698
175 2 0.877476 0.99513 0.338581
176 2 0.245851 0.0983711 0.509995
177 1 0.0333908 0.84451 0.766656
178 2 0.349843 0.471028 0.0615705
179 2 0.540678 0.350483 0.818396
180 2 0.941706 0.657654 0.537169
181 2 0.640456 0.0688501 0.761404
182 2 0.314774 0.564051 0.258986
183 2 0.731454 0.471104 0.199652
184 2 0.717012 0.883874 0.185244
185 2 0.221741 0.824513 0.46584
186 2 0.766926 0.908515 0.00227544
187 2 0.422924 0.63966 0.982248
188 1 0.840788 0.751016 0.818995
189 2 0.0246405 0.193476 0.65848
190 2 0.763882 0.63791 0.0333097
191 2 0.774668 0.281927 0.130907
192 2 0.0587543 0.665801 0.773731
193 2 0.893645 0.0219718 0.0362451
194 2 0.339477 0.100689 0.266268
195 2 0.364176 0.332952 0.288412
196 2 0.105973 0.406123 0.852327
197 2 0.155623 0.997041 0.13804
198 2 0.853545 0.972675 0.549426
199 2 0.212495 0.930487 0.261898
200 1 0.812227 0.592954 0.448185
201 2 0.428197 0.0955613 0.628642
202 2 0.149772 0.894015 0.78865
203 2 0.524148 0.908566 0.388427
204 2 0.735442 0.431162 0.687696
205 2 0.535233 0.311049 0.896303
206 2 0.00381805 0.632654 0.220114
207 2 0.0469185 0.305749 0.0632351
208 2 0.818489 0.519597 0.317146
209 2 0.913305 0.0219802 0.164987
210 2 0.958262 0.0531877 0.718169
211 2 0.284804 0.737623 0.29926
212 1 0.795437 0.979535 0.642277
213 2 0.732689 0.347957 0.885759
214 2 0.762084 0.459496 0.684425
215 2 0.561733 0.960295 0.284443
216 2 0.782494 0.0507999 0.3717
217 2 0.660082 0.811254 0.188014
218 2 0.933427 0.700289 0.0163693
219 2 0.802474 0.87756 0.975581
220 2 0.628471 0.624917 0.285101
221 2 0.63109 0.0487404 0.697142
222 2 0.600042 0.332275 0.333632
223 2 0.0241061 0.187819 0.711343
224 2 0.0590106 0.331184 0.0627588
225 1 0.482876 0.357779 0.416916
226 2 0.270918 0.0587936 0.750634
227 2 0.126558 0.0929048 0.970036
228 2 0.794756 0.671908 0.523826
229 2 0.718753 0.312007 0.494461
230 1 0.665672 0.490889 0.646882
231 2 0.220514 0.193289 0.0196278
232 2 0.0597332 0.308293 0.409953
233 1 0.311721 0.658239 0.832039
234 2 0.24663 0.640034 0.241866
235 2 0.0927611 0.363477 0.709352
236 2 0.29069 0.859622 0.406728
237 2 0.21405 0.705016 0.268078
238 1 0.0267198 0.403835 0.182246
239 1 0.570124 0.657958 0.538675
240 2 0.820197 0.147476 0.576203
241 2 0.596959 0.952349 0.947088
242 1 0.157587 0.837817 0.252429
243 1 0.769407 0.54936 0.376815
244 2 0.0739918 0.249541 0.809445
245 2 0.474148 0.904638 0.89741
246 1 0.00246055 0.0419023 0.572916
247 2 0.268086 0.793672 0.16395
248 2 0.798111 0.993575 0.394286
249 2 0.852395 0.928479 0.328274
250 2 0.8023 0.1975 0.209561
251 2 0.492782 0.770002 0.482528
252 2 0.203708 0.484605 0.749216
253 2 0.220081 0.626265 0.804055
254 2 0.683705 0.654065 0.395611
255 2 0.902473 0.537924 0.626457
256 2 0.761391 0.219783 0.946159
257 2 0.511039 0.334468 0.391233
258 2 0.869948 0.995703 0.0501782
259 1 0.969921 0.871072 0.5524
260 2 0.014307 0.486323 0.116505
261 1 0.150356 0.412359 0.542887
262 2 0.74354 0.352879 0.328788
263 2 0.185198 0.210973 0.831418
264 2 0.881481 0.722024 0.13946
265 1 0.167761 0.962761 0.673179
266 2 0.0753005 0.180612 0.726952
267 2 0.826557 0.965285 0.500659
268 1 0.0542203 0.136416 0.744518
269 1 0.00408615 0.0647735 0.494261
270 2 0.46142 0.736581 0.517958
271 2 0.107625 0.600893 0.976006
272 2 0.511251 0.420103 0.0435439
273 1 0.626538 0.628281 0.516318
274 2 0.330082 0.261612 0.0233451
275 2 0.577015 0.993046 0.965097
276 2 0.878304 0.222377 0.571209
277 2 0.25373 0.495224 0.801001
278 2 0.610039 0.0161008 0.0337247
279 2 0.391694 0.376817 0.0601679
280 1 0.929382 0.467297 0.834535
281 2 0.0172097 0.683827 0.479337
282 2 0.985946 0.667208 0.307171
283 2 0.370078 0.140226 0.0239466
284 1 0.121434 0.72764 0.720528
285 2 0.98682 0.65007 0.0737328
286 2 0.577649 0.0132484 0.74374
287 1 0.850669 0.950383 0.364142
288 2 0.471011 0.171375 0.870479
289 2 0.917406 0.218778 0.0433948
290 2 0.302412 0.623272 0.473038
291 2 0.191383 0.357017 0.80749
292 2 0.911532 0.122578 0.675203
293 2 0.458777 0.092666 0.170929
294 2 0.442553 0.559881 0.00844932
295 2 0.805124 0.608465 0.654083
296 2 0.677845 0.704404 0.0482637
297 2 0.569928 0.306077 0.393331
298 2 0.222786 0.580128 0.538602
299 1 0.478777 0.0991535 0.841826
300 2 0.517949 0.00520283 0.691041
301 2 0.210551 0.241921 0.0430193
302 2 0.220983 0.0926046 0.584235
303 2 0.253691 0.341955 0.442496
304 1 0.958777 0.726505 0.971035
305 2 0.11072 0.861936 0.233896
306 2 0.0623751 0.94391 0.823665
307 2 0.598353 0.868885 0.104721
308 2 0.453227 0.532305 0.306661
309 2 0.314947 0.5071 0.0319961
310 2 0.505264 0.241631 0.240014
311 2 0.490047 0.716508 0.917043
312 2 0.0379296 0.392147 0.577293
313 2 0.850776 0.989286 0.0466828
314 2 0.556163 0.135781 0.123156
315 2 0.498602 0.422735 0.405048
316 2 0.948432 0.109978 0.0663459
317 2 0.527345 0.938207 0.467096
318 2 0.762334 0.991679 0.891048
319 2 0.110545 0.925042 0.821822
320 2 0.648472 0.688549 0.314164
321 2 0.764274 0.635 0.439294
322 2 0.102 0.206402 0.947949
323 2 0.365262 0.532248 0.0155505
324 2 0.480076 0.772945 0.0593124
325 2 0.641432 0.344302 0.496529
326 2 0.76048 0.843675 0.648289
327 2 0.830466 0.453359 0.509136
328 2 0.578376 0.562443 0.359774
329 1 0.0531491 0.751355 0.695661
330 2 0.589643 0.721834 0.647895
331 2 0.795964 0.794774 0.380159
332 2 0.0915904 0.69036 0.47577
333 2 0.749957 0.37059 0.982752
334 2 0.500969 0.00589537 0.817627
335 1 0.810703 0.25272 0.148022
336 2 0.527896 0.507749 0.821216
337 2 0.640669 0.0673602 0.906237
338 1 0.865786 0.0716969 0.190768
339 2 0.706977 0.505986 0.914534
340 2 0.396238 0.934641 0.511633
341 2 0.133289 0.691819 0.454748
342 2 0.726406 0.524964 0.464518
343 2 0.247735 0.998999 0.151424
344 1 0.972994 0.876144 0.787816
345 1 0.738379 0.553291 0.615088
346 1 0.58143 0.0184353 0.863725
347 1 0.957906 0.951301 0.0771943
348 2 0.134993 0.9272 0.77542
349 2 0.70643 0.107131 0.186701
350 2 0.909407 0.294274 0.351208
351 2 0.773856 0.854222 0.960173
352 2 0.78824 0.48029 0.396801
353 1 0.719031 0.571355 0.50107
354 1 0.897015 0.401453 0.538609
355 2 0.591269 0.651828 0.764512
356 2 0.0799391 0.651875 0.825926
357 2 0.0513892 0.272384 0.475196
358 2 0.0563461 0.46413 0.145918
359 2 0.0302465 0.439441 0.604685
360 2 0.311856 0.934522 0.46372
361 1 0.613336 0.476261 0.537355
362 2 0.984095 0.784893 0.39016
363 1 0.968816 0.542354 0.173068
364 2 0.610903 0.992246 0.788287
365 2 0.0788257 0.797638 0.955173
366 2 0.618939 0.655248 0.289555
367 1 0.553137 0.633268 0.356517
368 1 0.0441536 0.243617 0.953113
369 2 0.31088 0.112233 0.432859
370 2 0.727615 0.211706 0.599276
371 2 0.685155 0.602719 0.728952
372 1 0.211752 0.0445101 0.438245
373 2 0.803116 0.893375 0.117962
374 2 0.888494 0.216303 0.344546
375 2 0.0168224 0.60151 0.977493
376 2 0.222934 0.887956 0.661219
377 2 0.174289 0.0833014 0.223502
378 2 0.360777 0.689177 0.513756
379 2 0.175986 0.248813 0.279238
380 2 0.622295 0.281122 0.949909
381 2 0.229391 0.717742 0.0763722
382 2 0.263844 0.0565652 0.395632
383 2 0.439673 0.463547 0.31996
384 1 0.319224 0.490811 0.812936
385 2 0.0882348 0.347063 0.296859
386 2 0.834669 0.955186 0.596252
387 1 0.86328 0.681458 0.189274
388 2 0.757284 0.392548 0.802162
389 2 0.732286 0.666185 0.430005
390 2 0.813843 0.050343 0.084509
391 2 0.230681 0.518717 0.156556
392 1 0.63313 0.31574 0.385137
393 2 0.0880068 0.300067 0.174427
394 2 0.888488 0.312334 0.980606
395 2 0.527326 0.0261971 0.844516
396 2 0.505504 0.990457 0.771634
397 2 0.367873 0.640856 0.120323
398 1 0.724033 0.305927 0.872531
399 1 0.712788 0.359049 0.296641
400 1 0.140623 0.457729 0.60159
401 2 0.440327 0.883264 0.821053
402 2 0.0363229 0.989352 0.0668284
403 2 0.467492 0.921369 0.780026
404 2 0.972705 0.582173 0.733617
405 2 0.0699917 0.14191 0.919504
406 2 0.453241 0.14126 0.439034
407 2 0.604741 0.649001 0.301047
408 2 0.672288 0.287831 0.314954
409 2 0.505591 0.947093 0.81364
410 2 0.048105 0.639454 0.213094
411 2 0.285883 0.251158 0.284531
412 2 0.662741 0.71006 0.654739
413 2 0.0877645 0.276833 0.054702
414 2 0.635917 0.139195 0.721884
415 2 0.296688 0.417335 0.753563
416 1 0.784887 0.491471 0.471747
417 2 0.403463 0.935108 0.828296
418 2 0.245521 0.513414 0.2657
419 2 0.375391 0.995875 0.72839
420 2 0.605508 0.805054 0.115083
421 1 0.0751883 0.458411 0.709448
422 1 0.948625 0.768982 0.412455
423 2 0.677509 0.0262862 0.881813
424 2 0.140954 0.468661 0.301398
425 1 0.983293 0.694757 0.447601
426 2 0.508599 0.871056 0.809815
427 2 0.596478 0.491875 0.682846
428 2 0.0663626 0.383494 0.534072
429 2 0.822642 0.0167862 0.743595
430 2 0.474219 0.297018 0.320712
431 2 0.688031 0.495526 0.555584
432 1 0.154814 0.176441 0.599634
433 2 0.651598 0.445693 0.568556
434 1 0.801724 0.563981 0.779199
435 2 0.548347 0.651454 0.0765885
436 2 0.182056 0.536393 0.719876
437 2 0.604586 0.301669 0.357251
438 2 0.113314 0.753729 0.951078
439 1 0.224499 0.414594 0.273738
440 2 0.607413 0.924279 0.510718
441 1 0.0292313 0.617817 0.775337
442 1 0.655079 0.516073 0.492674
443 1 0.631784 0.594559 0.324295
444 2 0.755815 0.541387 0.502321
445 2 0.293759 0.19764 0.0710635
446 2 0.689478 0.55889 0.78066
447 2 0.107392 0.407186 0.990448
448 2 0.821268 0.427543 0.502715
449 1 0.611331 0.0392698 0.720157
450 2 0.71323 0.421625 0.12764
451 2 0.555852 0.964732 0.786357
452 2 0.964632 0.881774 0.185564
453 1 0.551338 0.193457 0.130952
454 2 0.53006 0.407686 0.55539
455 2 0.300385 0.687819 0.115971
456 2 0.200005 0.191452 0.6759
457 2 0.565586 0.00600673 0.790787
458 2 0.567921 0.608628 0.725712
459 2 0.408413 0.127053 0.259519
460 2 0.764955 0.320558 0.750543
461 2 0.17702 0.388879 0.790212
462 2 0.562757 0.898445 0.311007
463 1 0.0777046 0.431068 0.635943
464 2 0.378259 0.42367 0.305919
465 2 0.692156 0.859007 0.748262
466 2 0.705774 0.631014 0.83844
467 1 0.549125 0.368932 0.354763
468 2 0.475082 0.125686 0.851319
469 2 0.501302 0.821111 0.926043
470 2 0.29011 0.138962 0.374904
471 2 0.984862 0.297611 0.622344
472 2 0.592931 0.621558 0.0731068
473 1 0.74311 0.270716 0.596123
474 1 0.970443 0.486877 0.519337
475 1 0.0376721 0.902065 0.917688
476 2 0.0950828 0.699844 0.956633
477 2 0.545886 0.0413851 0.881043
478 2 0.268655 0.970354 0.867946
479 2 0.33455 0.495549 0.0100075
480 2 0.293826 0.844922 0.441791
481 2 0.300774 0.145945 0.960593
482 2 0.0486742 0.0420616 0.919357
483 2 0.804705 0.347076 0.570032
484 1 0.406539 0.253811 0.347725
485 1 0.685048 0.31362 0.108494
486 2 0.600673 0.74967 0.125823
487 2 0.696238 0.258394 0.144393
488 2 0.55713 0.17384 0.195736
489 2 0.409147 0.381544 0.329737
490 2 0.0378446 0.642768 0.364165
491 2 0.883467 0.619441 0.637766
492 2 0.0554901 0.479682 0.622907
493 2 0.856018 0.725402 0.672196
494 2 0.648537 0.428995 0.933507
495 2 0.832025 0.630322 0.148678
496 2 0.629628 0.249219 0.682735
497 2 0.556506 0.409253 0.467522
498 1 0.763052 0.0991806 0.923133
499 2 0.0808201 0.180679 0.954375
500 2 0.278422 0.0424687 0.6661
501 1 0.625955 0.535494 0.419289
502 2 0.741932 0.843829 0.0506482
503 2 0.721476 0.448963 0.627984
504 1 0.629595 0.924295 0.791161
505 2 0.832714 0.0638382 0.401465
506 2 0.751686 0.379524 0.0488702
507 2 0.917792 0.483671 0.0322693
508 2 0.281141 0.328204 0.645265
509 1 0.653603 0.303272 0.892051
510 2 0.841011 0.57965 0.671944
511 2 0.0565027 0.925009 0.867404
512 2 0.585931 0.637134 0.39501
513 1 0.48268 0.828251 0.397806
514 2 0.91149 0.608357 0.787442
515 1 0.528155 0.865392 0.735087
516 2 0.554863 0.972114 0.811637
517 1 0.847584 0.00678939 0.955794
518 2 0.375426 0.151005 0.261527
519 2 0.453139 0.127287 0.00925128
520 2 0.270035 0.160487 0.715546
521 2 0.054418 0.847127 0.865689
522 2 0.505922 0.306715 0.860333
523 2 0.801618 0.661672 0.116671
524 2 0.044371 0.786998 0.931636
525 2 0.685391 0.79117 0.981122
526 2 0.420332 0.676368 0.715489
527 2 0.762087 0.641854 0.938097
528 1 0.43052 0.955907 0.994459
529 2 0.270012 0.021121 0.894031
530 2 0.0235279 0.45026 0.414372
531 2 0.551404 0.982039 0.885763
532 2 0.0840885 0.990749 0.639223
533 2 0.536387 0.0160338 0.765393
534 1 0.846036 0.376561 0.255775
535 2 0.829258 0.301435 0.133619
536 1 0.177574 0.283202 0.539729
537 1 0.440413 0.972107 0.71056
538 2 0.797588 0.803488 0.235501
539 2 0.243442 0.796644 0.415568
540 2 0.113511 0.429906 0.799482
541 1 0.610081 0.635651 0.688295
542 2 0.318162 0.518258 0.955017
543 1 0.214035 0.0776859 0.264474
544 1 0.619928 0.607818 0.576114
545 2 0.95386 0.557151 0.549836
546 2 0.181163 0.0596972 0.046689
547 2 0.679669 0.349682 0.0440343
548 2 0.210599 0.365652 0.594789
549 2 0.307209 0.140478 0.0851874
550 2 0.553538 0.0443829 0.784076
551 1 0.638892 0.534865 0.576417
552 2 0.424876 0.213728 0.234234
553 2 0.121039 0.013044 0.590703
554 2 0.39395 0.0507913 0.91892
555 1 0.361842 0.181657 0.592722
556 2 0.211992 0.771276 0.783986
557 2 0.89992 0.271258 0.136177
558 1 0.427256 0.194359 0.390256
559 2 0.133759 0.411031 0.0339689
560 2 0.899291 0.837576 0.786422
561 2 0.136723 0.524069 0.747027
562 1 0.539305 0.754558 0.627585
563 2 0.164384 0.184503 0.676113
564 2 0.415433 0.443594 0.169523
565 2 0.486963 0.262802 0.613478
566 2 0.743212 0.542359 0.708875
567 2 0.919178 0.846215 0.433545
568 2 0.686368 0.469344 0.210661
569 1 0.111648 0.676886 0.178491
570 2 0.376104 0.578201 0.468717
571 2 0.861705 0.960258 0.998158
572 2 0.0924503 0.193801 0.90046
573 2 0.696024 0.4344 0.684778
574 2 0.935478 0.528276 0.483646
575 1 0.191625 0.063534 0.133775
576 2 0.284632 0.517718 0.427023
577 2 0.701472 0.350661 0.0787396
578 1 0.263612 0.406005 0.228814
579 2 0.541188 0.980658 0.799785
580 1 0.9907 0.708215 0.904418
581 2 0.775621 0.873369 0.152924
582 2 0.75289 0.594095 0.453873
583 1 0.99772 0.380226 0.515057
584 2 0.659213 0.312537 0.592061
585 1 0.0859108 0.350407 0.93051
586 2 0.831676 0.233325 0.645636
587 2 0.131797 0.876891 0.817535
588 2 0.0308044 0.691159 0.830616
589 1 0.79694 0.275497 0.0626062
590 1 0.79717 0.191671 0.786533
591 1 0.7071 0.900788 0.840229
592 2 0.792372 0.724977 0.463184
593 2 0.536403 0.00709027 0.798365
594 1 0.357616 0.346295 0.588721
595 1 0.413768 0.116813 0.676904
596 2 0.204433 0.131049 0.449257
597 1 0.451557 0.124772 0.548212
598 2 0.865498 0.994739 0.13183
599 2 0.935666 0.396252 0.460606
600 2 0.867037 0.925237 0.591881
601 2 0.850505 0.367901 0.345122
602 1 0.65975 0.16162 0.927416
603 2 0.305309 0.323507 0.683085
604 1 0.6341 0.403221 0.837032
605 2 0.215881 0.501217 0.623312
606 2 0.661709 0.862428 0.293059
607 1 0.765339 0.511981 0.434713
608 2 0.924071 0.805109 0.0102709
609 2 0.553036 0.668074 0.664599
610 2 0.867073 0.463067 0.472177
611 2 0.595973 0.940084 0.295081
612 1 0.714417 0.591451 0.565407
613 2 0.615538 0.264308 0.618789
614 1 0.312407 0.369398 0.228849
615 2 0.836098 0.439103 0.204444
616 1 0.471431 0.905653 0.664864
617 2 0.789683 0.268653 0.738334
618 2 0.988762 0.518639 0.292558
619 2 0.384678 0.476768 0.86234
620 2 0.74176 0.525818 0.741022
621 2 0.415307 0.290154 0.330546
622 2 0.543338 0.493983 0.447111
623 1 0.761922 0.20128 0.0748365
624 2 0.268843 0.43728 0.388164
625 2 0.348529 0.559253 0.209143
626 2 0.46738 0.750992 0.269836
627 2 0.523091 0.00418632 0.743989
628 2 0.37123 0.174937 0.976317
629 2 0.234513 0.0583242 0.991884
630 1 0.347951 0.267558 0.826788
631 2 0.998402 0.926111 0.128458
632 2 0.575223 0.793392 0.41775
633 2 0.818222 0.451452 0.259057
634 2 0.395175 0.399962 0.211573
635 2 0.675456 0.382344 0.541671
636 2 0.904441 0.505886 0.250132
637 2 0.147024 0.664892 0.473057
638 1 0.144963 0.987864 0.184191
639 2 0.370295 0.059947 0.199782
640 2 0.0609052 0.400292 0.704463
641 2 0.554367 0.425604 0.409085
642 2 0.199542 0.97209 0.35526
643 2 0.106558 0.598831 0.0314712
644 2 0.571478 0.956231 0.757895
645 1 0.506607 0.152536 0.728136
646 2 0.698489 0.614932 0.985772
647 1 0.66782 0.437822 0.369
648 2 0.878562 0.13158 0.771774
649 2 0.604235 0.286483 0.736289
650 2 0.422176 0.47049 0.0658405
651 2 0.591781 0.643134 0.630548
652 2 0.364898 0.158703 0.290117
653 2 0.192902 0.433903 0.596138
654 1 0.122012 0.709054 0.614001
655 2 0.986887 0.0699197 0.907121
656 2 0.169323 0.866771 0.585226
657 2 0.265767 0.732152 0.172794
658 2 0.780129 0.42614 0.105514
659 2 0.946031 0.0262527 0.813925
660 2 0.122326 0.84105 0.269235
661 1 0.535149 0.14732 0.978314
662 2 0.634091 0.259073 0.929983
663 2 0.57111 0.609667 0.157743
664 1 0.599467 0.628528 0.89263
665 2 0.808931 0.064821 0.672392
666 2 0.589608 0.98528 0.768032
667 2 0.779774 0.90508 0.673063
668 2 0.312956 0.145247 0.113496
669 2 0.974636 0.333889 0.654115
670 1 0.566389 0.421583 0.607765
671 2 0.112374 0.058187 0.120201
672 1 0.703512 0.609932 0.434372
673 2 0.59806 0.563672 0.456777
674 2 0.601014 0.714472 0.675943
675 2 0.054308 0.687851 0.688946
676 1 0.260899 0.0504309 0.603123
677 2 0.728628 0.673633 0.522719
678 2 0.344246 0.0952922 0.559595
679 1 0.923496 0.737485 0.605902
680 2 0.129081 0.634319 0.628343
681 1 0.386445 0.791595 0.0840432
682 1 0.366249 0.136856 0.933643
683 2 0.877881 0.962748 0.826113
684 2 0.993246 0.804759 0.74683
685 2 0.717908 0.386505 0.950985
686 2 0.0996405 0.66117 0.492884
687 1 0.507683 0.0301515 0.809694
688 2 0.781218 0.0685147 0.415068
689 2 0.779461 0.469575 0.725176
690 2 0.767264 0.0393059 0.348994
691 2 0.825234 0.131088 0.81782
692 1 0.50072 0.174564 0.651038
693 2 0.276541 0.0843263 0.143409
694 2 0.00657044 0.752767 0.786182
695 1 0.76852 0.149852 0.462159
696 2 0.655746 0.993384 0.267945
697 2 0.441268 0.853071 0.542534
698 2 0.062884 0.357891 0.627353
699 2 0.184434 0.945179 0.13639
700 1 0.893333 0.986147 0.89641
701 2 0.968937 0.0410032 0.0651596
702 2 0.193652 0.771301 0.825017
703 2 0.120407 0.542572 0.568213
704 2 0.99761 0.433214 0.618483
705 2 0.994604 0.0491237 0.428189
706 2 0.877231 0.575743 0.490615
707 2 0.332236 0.447083 0.875672
708 1 0.0439719 0.622896 0.443401
709 2 0.902131 0.624768 0.689234
710 2 0.432568 0.245394 0.460686
711 2 0.798227 0.151721 0.218732
712 1 0.791629 0.890137 0.716849
713 2 0.805752 0.0531483 0.586141
714 1 0.635902 0.641751 0.728954
715 2 0.826999 0.340268 0.601785
716 1 0.224752 0.00422521 0.868947
717 2 0.84714 0.402591 0.596948
718 2 0.716028 0.311232 0.166717
719 2 0.603994 0.518915 0.12129
720 2 0.0441542 0.918379 0.230486
721 2 0.785378 0.146786 0.889143
722 1 0.143314 0.989298 0.618688
723 2 0.422959 0.732351 0.421874
724 2 0.295035 0.0832003 0.603553
725 2 0.568479 0.0388251 0.443662
726 2 0.856562 0.440267 0.781794
727 1 0.823281 0.407399 0.153025
728 1 0.860263 0.858079 0.554883
729 1 0.880587 0.323253 0.904596
730 1 0.571641 0.871543 0.147131
731 2 0.878864 0.359062 0.541615
732 1 0.140214 0.354504 0.0430341
733 2 0.930805 0.718616 0.456312
734 2 0.267024 0.524212 0.734374
735 2 0.740258 0.0498 0.937802
736 1 0.537294 0.054936 0.687831
737 2 0.711071 0.425105 0.678083
738 2 0.936738 0.326347 0.575547
739 2 0.369751 0.830687 0.812839
740 2 0.107142 0.672163 0.744236
741 2 0.505098 0.98205 0.811784
742 1 0.562362 0.913912 0.770946
743 2 0.802227 0.997293 0.319536
744 2 0.279712 0.0826984 0.32011
745 2 0.584769 0.519301 0.0744544
746 1 0.781872 0.417449 0.374099
747 2 0.622306 0.679898 0.778894
748 2 0.711178 0.588633 0.184489
749 2 0.688826 0.437941 0.8439
750 2 0.492913 0.534663 0.670927
751 2 0.592529 0.0472636 0.472242
752 2 0.522723 0.155598 0.87989
753 2 1.0014 0.968808 0.788549
754 2 0.725903 0.802963 0.720643
755 2 0.556097 0.862181 0.0835243
756 2 0.805784 0.0178411 0.715745
757 2 0.50086 0.46916 0.687755
758 2 0.788969 0.771779 0.879974
759 2 0.278514 0.0504475 0.707521
760 1 0.622566 0.0467867 0.820631
761 2 0.496491 0.509012 0.235094
762 2 0.0367754 0.722018 0.780007
763 1 0.420395 0.314769 0.28028
764 2 0.36206 0.0517472 0.0554774
765 2 0.191567 0.353653 0.939899
766 2 0.481976 0.917049 0.9704
767 2 0.201672 0.161654 0.276374
768 2 0.702009 0.0320267 0.781584
769 2 0.592979 0.622638 0.0451411
770 2 0.5945 0.236554 0.987196
771 2 0.510965 0.453458 0.483457
772 2 0.769984 0.245671 0.737077
773 1 0.722527 0.726667 0.5115
774 2 0.614374 0.640868 0.459213
775 2 0.121658 0.250179 0.48356
776 2 0.286916 0.755522 0.537665
777 1 0.497412 0.966582 0.874764
778 2 0.69471 0.657592 0.446101
779 2 0.676958 0.778668 0.0294437
780 1 0.600239 0.356995 0.277429
781 2 0.825187 0.975063 0.306652
782 2 0.186365 0.570568 0.60858
783 1 0.969932 0.79403 0.535926
784 2 0.557689 0.98746 0.674553
785 2 0.786879 0.317144 0.977204
786 1 0.588837 0.783022 0.645991
787 2 0.169393 0.129417 0.592257
788 2 0.366278 0.423409 0.977071
789 2 0.506768 0.25616 0.326046
790 2 0.906352 0.661823 0.306123
791 1 0.290855 0.538651 0.20394
792 2 0.949355 0.892958 0.151706
793 2 0.884125 0.124929 0.15796
794 2 0.298233 0.874994 0.624311
795 2 0.561524 0.796595 0.056604
796 2 0.189714 0.215599 0.886874
797 2 0.809832 0.3621 0.328555
798 2 0.654331 0.93764 0.315427
799 2 0.171762 0.20509 0.275825
800 2 0.814664 0.749212 0.202127
801 2 0.112036 0.494876 0.861151
802 2 0.902836 0.521028 0.591463
803 2 0.943163 0.415646 0.860389
804 2 0.854851 0.604191 0.187189
805 2 0.69129 0.0586639 0.416175
806 1 0.107829 0.647866 0.70841
807 2 0.721293 0.827965 0.0154608
808 2 0.332554 0.0818128 0.111926
809 1 0.717592 0.092254 0.150984
810 2 0.890678 0.0638544 0.895598
811 2 0.916606 0.144215 0.948854
812 2 0.698019 0.686002 0.735082
813 1 0.778472 0.249406 0.35334
814 2 0.216743 0.202667 0.586602
815 2 0.496263 0.720389 0.212749
816 1 0.870279 0.497674 0.127734
817 1 0.558835 0.130969 0.806337
818 2 0.299326 0.130372 0.0233837
819 1 0.429028 0.596813 0.368226
820 1 0.669907 0.72057 0.00225454
821 2 0.514471 0.954748 0.788773
822 2 0.536863 0.953443 0.825199
823 1 0.111778 0.473915 0.78009
824 2 0.530272 0.625909 0.4756
825 2 0.811673 0.548975 0.453534
826 2 0.470063 0.885715 0.377674
827 1 0.925799 0.0447534 0.0462161
828 2 0.0564008 0.731862 0.464034
829 2 0.611623 0.48619 0.611714
830 2 0.358848 0.447661 0.858874
831 1 0.200543 0.653988 0.681793
832 2 0.465794 0.91 0.148457
833 1 0.818238 0.565583 0.189307
834 2 0.107708 0.752938 0.454442
835 2 0.16191 0.708784 0.18982
836 2 0.151217 0.357512 0.375711
837 2 0.241043 0.361937 0.270065
838 2 0.951746 0.277815 0.98029
839 2 0.0420847 0.81515 0.841236
840 2 0.00192805 0.76415 0.0635067
841 2 0.299887 0.964086 0.118992
842 2 0.963704 0.0817144 0.166692
843 2 0.833985 0.513325 0.482377
844 2 0.468206 0.653188 0.0306017
845 2 0.0832568 0.732137 0.0694522
846 2 0.234353 0.430198 0.365002
847 2 0.237323 0.103563 0.085647
848 2 0.83511 0.278363 0.0405627
849 1 0.0778261 0.078953 0.784164
850 2 0.744912 0.383064 0.723611
851 2 0.798678 0.765032 0.984987
852 2 0.913781 0.732878 0.0448637
853 1 0.399902 0.547804 0.0640569
854 2 0.879401 0.438431 0.403455
855 2 0.559517 0.167303 0.70814
856 2 0.772452 0.944284 0.757535
857 2 0.742638 0.648763 0.551365
858 2 0.651598 0.110672 0.708579
859 2 0.415985 0.760898 0.449835
860 2 0.746329 0.771119 0.710802
861 2 0.902637 0.43765 0.498213
862 2 0.906737 0.728312 0.346987
863 2 0.728021 0.247353 0.363541
864 2 0.576443 0.817729 0.165925
865 2 0.418005 0.645384 0.869814
866 2 0.700725 0.591682 0.618886
867 2 0.373769 0.653738 0.285281
868 2 0.678803 0.773262 0.703336
869 2 0.333253 0.554309 0.851642
870 2 0.259578 0.649391 0.609135
871 2 0.408281 0.941337 0.955991
872 2 0.80541 0.810486 0.9556
873 2 0.323838 0.741379 0.46165
874 2 0.569772 0.54487 0.575248
875 2 0.500342 0.664523 0.371476
876 2 0.296501 0.983157 0.619479
877 2 0.22783 0.259982 0.528218
878 2 0.887249 0.565355 0.615469
879 2 0.70974 0.655021 0.749038
880 2 0.0448797 0.416521 0.485438
881 2 0.204421 0.219721 0.664508
882 1 0.83122 0.128865 0.426639
883 1 0.594169 0.201686 0.769248
884 2 0.869627 0.0345349 0.424017
885 2 0.638431 0.305341 0.556517
886 2 0.939948 0.0293321 0.893255
887 1 0.455164 0.919227 0.497386
888 2 0.584864 0.274838 0.565258
889 2 0.788811 0.459297 0.13173
890 1 0.370542 0.392675 0.877852
891 2 0.530589 0.446983 0.423589
892 2 0.590067 0.588147 0.478395
893 2 0.0940093 0.520425 0.7606
894 2 0.558178 0.998498 0.837921
895 1 0.738776 0.413592 0.170887
896 2 0.869282 0.107229 0.738748
897 2 0.688931 0.374618 0.409146
898 2 0.657776 0.278654 0.404893
899 2 0.888237 0.496513 0.293594
900 2 0.485552 0.981645 0.840794
901 2 0.798646 0.37785 0.576557
902 2 0.198037 0.774277 0.97222
903 2 0.595872 0.828565 0.201226