ITEM: TIMESTEP
19600
ITEM: NUMBER OF ATOMS
1000
ITEM: BOX BOUNDS xy xz yz pp pp pp
0.0000000000000000e+00 1.3572088000000001e+01 0.0000000000000000e+00
0.0000000000000000e+00 1.3572088000000001e+01 0.0000000000000000e+00
0.0000000000000000e+00 1.3572088000000001e+01 0.0000000000000000e+00
ITEM: ATOMS id type xs ys zs
1 2 0.794689 0.86169 0.827991
2 2 0.0639692 1.00087 0.564328
3 1 0.657273 0.875795 0.734051
4 2 0.319518 0.514029 0.632238
5 2 0.49157 0.666828 0.54566
6 1 0.360689 0.0456762 0.298929
7 2 0.41235 0.846866 0.0250916
8 2 0.734296 0.778238 0.921794
9 2 0.311491 0.189647 0.0039826
10 2 0.494151 0.969515 0.111688
11 2 0.0194064 0.825569 0.560109
12 2 0.817636 0.615199 0.809619
13 2 0.945804 0.769118 0.975433
14 1 0.758053 0.835991 0.867839
15 2 0.00513689 0.936606 0.41444
16 2 0.035683 0.169073 0.128448
17 1 0.155862 0.68043 0.450021
18 2 0.719439 0.197228 0.445531
19 2 0.317538 0.774859 0.986372
20 2 0.500518 0.75928 0.21139
21 2 0.186556 0.242461 0.482347
22 2 0.243716 0.992449 0.31043
23 2 0.578059 0.608241 0.703299
24 2 0.0959795 0.500146 0.0741896
25 1 0.444 0.156483 0.245879
26 2 0.778773 0.737943 0.846513
27 2 0.542615 0.473773 0.640203
28 2 0.671032 0.728213 0.884054
29 2 0.528499 0.0179076 0.515422
30 2 0.836608 0.702234 0.838556
31 1 0.214799 0.0832643 0.575572
32 1 0.198567 0.386019 0.375341
33 1 0.316675 0.495453 0.79695
34 2 0.0426746 0.452187 0.17867
35 2 0.9511 0.186641 0.111106
36 1 0.852301 0.899638 0.945637
37 2 0.36304 0.467133 0.735683
38 2 0.991312 0.317971 0.0928387
39 2 0.651335 0.654041 0.936009
40 2 0.78701 0.582063 0.0856354
41 2 0.343968 0.694304 0.726548
42 2 0.511369 0.0722328 0.619499
43 2 0.841183 0.486388 0.153264
44 2 0.190388 0.323565 0.793152
45 2 0.67134 0.545892 0.523466
46 1 0.961503 0.779739 0.0202311
47 2 0.592682 0.869079 0.932083
48 2 0.79881 0.35964 0.0811993
49 2 0.499789 0.147806 0.201631
50 2 0.138109 0.851841 0.482004
51 2 0.660875 0.334919 0.418949
52 2 0.0906791 0.704271 0.530064
53 2 0.806497 0.251595 0.330296
54 2 0.695789 0.547397 0.897532
55 1 0.709659 0.571741 0.823316
56 1 0.581057 0.965433 0.0631356
57 2 0.00589615 0.573023 0.218695
58 2 0.727511 0.765022 0.0822111
59 2 0.341698 0.0246607 0.762909
60 2 0.577024 0.693553 0.211916
61 2 0.973645 0.556405 0.606305
62 2 0.901515 0.230211 0.477073
63 2 0.408059 0.0247699 0.623674
64 2 0.415209 0.4936 0.738105
65 2 0.417623 0.606977 0.821062
66 1 0.0301803 0.363088 0.505842
67 2 0.625343 1.00076 0.542071
68 2 0.344252 0.658511 0.0321788
69 1 0.806728 0.262256 0.623054
70 2 0.323146 0.765917 0.734188
71 1 0.678731 0.435001 0.40159
72 2 0.753431 0.309036 0.464839
73 2 0.785868 0.13417 0.183083
74 2 0.982006 0.924875 0.596196
75 2 0.0536365 0.842867 0.436542
76 2 0.830257 0.519312 0.580462
77 1 0.555886 0.703999 0.165769
78 2 0.771133 0.0368221 0.000967427
79 2 0.288248 0.760392 0.587493
80 2 0.977595 0.20008 0.556434
81 2 0.894868 0.855159 0.0698181
82 2 0.0198058 0.295592 0.51897
83 2 0.965998 0.353103 0.122781
84 2 0.150172 0.0619486 0.598197
85 1 0.662036 0.201304 0.365228
86 2 0.273981 0.822268 0.572367
87 2 0.0638336 0.0914224 0.671885
88 2 0.298194 0.523207 0.438325
89 2 0.923759 0.518914 0.895792
90 2 0.505896 0.559696 0.521107
91 2 0.256724 0.296452 0.513127
92 2 0.458813 0.949516 0.524208
93 2 0.206433 0.572742 0.138817
94 1 0.265057 0.836517 0.78842
95 2 0.953304 0.0109131 0.332246
96 2 0.464181 0.297006 0.478211
97 2 0.643921 0.475353 0.953017
98 2 0.0227722 0.793374 0.385893
99 2 0.991388 0.853947 0.89363
100 2 0.245781 0.814272 0.0972726
101 1 0.967938 0.151935 0.762719
102 2 0.805086 0.50633 0.805975
103 2 0.849374 0.488891 0.766228
104 2 0.023954 0.556687 0.697177
105 2 0.537675 0.628674 0.547426
106 2 0.258596 0.588482 0.0149072
107 2 0.959847 0.714361 0.290127
108 2 0.547064 0.172233 0.872692
109 2 0.654435 0.869405 0.323647
110 2 0.126786 0.0122666 0.52921
111 2 0.384872 0.462631 0.805403
112 1 0.914159 0.884816 0.221476
113 1 0.884734 0.485911 0.558765
114 2 0.674237 0.870404 0.0165935
115 2 0.56342 0.666422 0.0312102
116 2 0.296097 0.189328 0.697749
117 2 0.871348 0.872068 0.203409
118 2 0.0439111 0.384577 0.392568
119 2 0.552729 0.69728 0.0333979
120 2 0.497321 0.509909 0.290389
121 2 0.841793 0.543976 0.176789
122 2 0.923806 0.775315 0.358139
123 2 0.265913 0.993083 0.506607
124 2 0.895389 0.203479 0.355025
125 1 0.741356 0.0344424 0.759955
126 2 0.593326 0.931931 0.387294
127 2 0.673705 0.695248 0.128926
128 2 0.191745 0.165956 0.747458
129 1 0.0288642 0.859487 0.826402
130 2 0.482545 0.49654 0.779879
131 2 0.0157972 0.170863 0.961926
132 2 0.310826 0.819083 0.911099
133 2 0.490107 0.246708 0.030042
134 2 0.827689 0.307293 0.641702
135 2 0.144079 0.11764 0.357357
136 2 0.0539535 0.225487 0.0814937
137 1 0.516599 0.954806 0.482129
138 2 0.924605 0.122386 0.8492
139 2 0.85363 0.0478311 0.320464
140 1 0.49513 0.0637422 0.538489
141 2 0.815272 0.0691485 0.0468401
142 2 0.697673 0.868091 0.852627
143 2 0.464377 0.809184 0.419456
144 2 0.0756572 0.0156141 0.157447
145 2 0.625336 0.162632 0.593468
146 2 0.845092 0.923235 0.0522293
147 1 0.722985 0.330519 0.544804
148 1 0.747987 0.791189 0.842803
149 2 0.184278 0.956478 0.933027
150 1 0.533506 0.705584 0.52536
151 2 0.165637 0.353767 0.767767
152 2 0.802831 0.419507 0.118617
153 1 0.532561 0.857559 0.419431
154 1 0.184515 0.831328 0.117754
155 2 0.461902 0.938166 0.637336
156 2 0.952585 0.224477 0.781581
157 2 0.51583 0.210411 0.0494795
158 2 0.69767 0.441644 0.18449
159 2 0.876869 0.809928 0.960108
160 2 0.771548 0.0461937 0.368433
161 2 0.287959 0.615537 0.182093
162 2 0.522297 0.61139 0.100947
163 2 0.813944 0.620003 0.0814533
164 2 0.159434 0.474606 0.471384
165 2 0.160666 0.228739 0.93751
166 2 0.825404 0.838907 0.88119
167 2 0.412174 0.100319 0.888226
168 2 0.500533 0.0848608 0.649581
169 2 0.159124 0.073794 0.739566
170 2 0.659849 0.835259 0.616924
171 2 0.603976 0.688185 0.998293
172 2 0.485817 0.965742 0.333209
173 1 0.586011 0.785936 0.634757
174 2 0.745512 0.255452 0.422269
175 2 0.984305 0.000243522 0.0497289
176 2 0.458699 0.616559 0.836003
177 1 0.555753 0.948659 0.366013
178 2 0.257547 0.858807 0.638965
179 2 0.71861 0.367486 0.879745
180 2 0.554529 0.105628 0.472919
181 2 0.806914 0.525743 0.939893
182 2 0.98613 0.511847 0.0637043
183 2 0.276366 0.446669 0.983016
184 2 0.526474 0.317781 0.947284
185 2 0.677122 0.419709 0.157505
186 2 0.750212 0.833493 0.260907
187 2 0.437589 0.152272 0.311516
188 1 0.958059 0.413118 0.497108
189 2 0.757266 0.999409 0.976204
190 2 0.303599 0.309673 0.692038
191 2 0.168165 0.640612 0.131712
192 2 0.472168 0.540019 0.463342
193 2 0.410167 0.96114 0.260792
194 2 0.73355 0.974977 0.204786
195 2 0.707611 0.84765 0.396259
196 2 0.532233 0.3796 0.10554
197 2 0.677928 0.286991 0.173054
198 2 0.946429 0.906501 0.624521
199 2 0.10411 0.425334 0.539543
200 1 0.604401 0.866087 0.675189
201 2 0.259252 0.277794 0.937329
202 2 0.663389 0.811379 0.551265
203 2 0.900191 0.485088 0.83073
204 2 0.617764 0.839251 0.636129
205 2 0.596575 0.405733 0.598881
206 2 0.200614 0.876977 0.362955
207 2 0.535622 0.477287 0.831982
208 2 0.487541 0.310696 0.850578
209 2 0.842411 0.321384 0.436361
210 2 0.17024 0.921726 0.2211
211 2 0.79076 0.904859 0.819388
212 1 0.63385 0.31362 0.391226
213 2 0.612276 0.610083 0.420707
214 2 0.486058 0.853749 0.232382
215 2 0.930087 0.288752 0.98451
216 2 0.921829 0.457497 0.52268
217 2 0.382839 0.884707 0.259834
218 2 0.566795 0.819526 0.719893
219 2 0.848352 0.92753 0.0253471
220 2 0.0509241 0.171785 0.938597
221 2 0.71666 0.649601 0.172257
222 2 0.981336 0.742291 0.411162
223 2 0.424422 0.717731 0.333179
224 2 0.0715288 0.351612 0.384523
225 1 0.257198 0.401871 0.329962
226 2 0.519975 0.937 0.927195
227 2 0.772796 0.176187 0.787693
228 2 0.560755 0.291749 0.856111
229 2 0.312919 0.293392 0.583567
230 1 0.235517 0.627395 0.734024
231 2 0.435041 0.360519 0.442794
232 2 0.8607 0.631121 0.885879
233 1 0.2358 0.948091 0.41136
234 2 0.67972 0.358787 0.684008
235 2 0.987246 0.675056 0.105626
236 2 0.79496 0.89453 0.993029
237 2 0.477492 0.722265 0.502966
238 1 0.589326 0.277034 0.465427
239 1 0.752724 0.181394 0.296424
240 2 0.668427 0.799293 0.152951
241 2 0.441942 0.195879 0.271963
242 1 0.651891 0.326203 0.450904
243 1 0.69482 0.575727 0.491535
244 2 0.0772495 0.940594 0.623199
245 2 0.725603 0.877485 0.22919
246 1 0.263597 0.428498 0.628935
247 2 0.93664 0.935449 0.093276
248 2 0.22549 0.4215 0.981887
249 2 0.93885 0.502769 0.83215
250 2 0.782769 0.488324 0.135359
251 2 0.146116 0.0758208 0.779801
252 2 0.647995 0.0212678 0.0891179
253 2 0.750826 0.281086 0.986382
254 2 0.806652 0.722888 0.494903
255 2 0.0758244 0.366424 0.674615
256 2 0.852687 0.904912 0.696927
257 2 0.715819 0.289301 0.742246
258 2 0.360917 0.389139 0.440383
259 1 0.0661426 0.151991 0.0740549
260 2 0.375092 0.890769 0.610596
261 1 0.71126 0.819845 0.650144
262 2 0.628103 0.977301 0.634941
263 2 0.967186 0.457913 0.7276
264 2 0.770236 0.720956 0.599931
265 1 0.941333 0.516934 0.422392
266 2 0.768858 0.343887 0.772218
267 2 0.621874 0.981096 0.353585
268 1 0.0505484 0.864818 0.394202
269 1 0.0989087 0.432569 0.371927
270 2 0.824385 0.590069 0.158071
271 2 0.605382 0.463938 0.575792
272 2 0.921385 0.650522 0.0965564
273 1 0.514365 0.9414 0.275736
274 2 0.674099 0.882088 0.348058
275 2 0.861644 0.386261 0.927632
276 2 0.324223 0.535022 0.469816
277 2 0.0808904 0.924324 0.552007
278 2 0.292496 0.704083 0.380595
279 2 0.96852 0.577751 0.785325
280 1 0.0123526 0.484389 0.282377
281 2 0.396078 0.341246 0.391226
282 2 0.806596 0.169789 0.458324
283 2 0.899281 0.91472 0.675996
284 1 0.663614 0.48585 0.878998
285 2 0.991588 0.6595 0.571517
286 2 0.998015 0.696457 0.62368
287 1 0.395938 0.819125 0.733107
288 2 0.423839 0.383754 0.656471
289 2 0.0905489 0.758919 0.634712
290 2 0.983183 0.943266 0.94393
291 2 0.365307 0.942058 0.0409018
292 2 0.249661 0.344614 0.258108
293 2 0.626025 0.765039 0.668606
294 2 0.579714 0.411483 0.15297
295 2 0.787479 0.611445 0.124716
296 2 0.35113 0.822463 0.571726
297 2 0.0708401 0.496747 0.343671
298 2 0.453464 0.85057 0.629201
299 1 0.137799 0.378048 0.394203
300 2 0.756303 0.207728 0.672437
301 2 0.587009 0.500641 0.879234
302 2 0.387663 0.534391 0.28388
303 2 0.854583 0.073648 0.871701
304 1 0.385336 0.333897 0.174545
305 2 0.659463 0.0451566 0.556839
306 2 0.321746 0.600303 0.945454
307 2 0.0407895 0.207585 0.849748
308 2 0.339456 0.925576 0.830242
309 2 0.415077 0.856128 0.628963
310 2 0.628826 0.383007 0.446412
311 2 0.177501 0.684665 0.658904
312 2 0.274165 0.79591 0.583059
313 2 0.0335457 0.500696 0.798526
314 2 0.756374 0.352815 0.500534
315 2 0.291165 0.259966 0.523835
316 2 0.715369 0.894265 0.342446
317 2 0.181942 0.282703 0.37974
318 2 0.0694362 0.256698 0.808
319 2 0.76643 0.75452 0.951648
320 2 0.983538 0.753844 0.353527
321 2 0.322941 0.832204 0.849517
322 2 0.64466 0.614647 0.487369
323 2 0.246854 0.998508 0.402388
324 2 0.596286 0.696148 0.967502
325 2 0.35123 0.0494098 0.364994
326 2 0.448331 0.526356 0.980338
327 2 0.157858 0.423493 0.462407
328 2 0.739925 0.541415 0.574079
329 1 0.204455 0.622701 0.461675
330 2 0.353323 0.376355 0.036178
331 2 0.556631 0.602722 0.610105
332 2 0.468163 0.131246 0.159123
333 2 0.629118 0.117557 0.569427
334 2 0.79057 0.487236 0.67512
335 1 0.607213 0.876267 0.981761
336 2 0.148211 0.903028 0.317984
337 2 0.0315572 0.423459 0.268402
338 1 0.796818 0.37026 0.950203
339 2 0.408152 0.896874 0.34938
340 2 0.159668 0.878932 0.528427
341 2 0.252518 0.0709339 0.0245166
342 2 0.0731251 0.0116524 0.122963
343 2 0.289408 0.275581 0.164442
344 1 0.746347 0.900367 0.243529
345 1 0.558076 0.174802 0.765208
346 1 0.811499 0.852755 0.931358
347 1 0.76534 0.578892 0.807222
348 2 0.899693 0.00332179 0.576252
349 2 0.392494 0.75238 0.329082
350 2 0.394198 0.35766 0.962439
351 2 0.81516 0.62605 0.12348
352 2 0.0938533 0.285983 0.92024
353 1 0.139433 0.582533 0.085726
354 1 0.21235 0.943479 0.918687
355 2 0.0725961 0.263126 0.96912
356 2 0.456815 0.817451 0.458015
357 2 0.377331 0.770758 0.745957
358 2 0.608087 0.698964 0.823117
359 2 0.485942 0.460415 0.293419
360 2 0.42191 0.593528 0.698215
361 1 0.265959 0.896525 0.14548
362 2 0.925913 0.285194 0.866694
363 1 0.0852304 0.778894 0.69178
364 2 0.742548 0.31335 0.509732
365 2 0.61477 0.0429454 0.874883
366 2 0.448741 0.960086 0.438324
367 1 0.558104 0.852472 0.52694
368 1 0.000500407 0.257697 0.0803621
369 2 0.19964 0.677841 0.182543
370 2 0.300772 0.842991 0.456396
371 2 0.69514 0.848724 0.368425
372 1 0.159045 0.412822 0.299037
373 2 0.0877815 0.83495 0.431509
374 2 0.61013 0.383443 0.110894
375 2 0.716649 0.586826 0.169058
376 2 0.132924 0.990201 0.895362
377 2 0.371278 0.915318 0.0170158
378 2 0.537368 0.981534 0.93621
379 2 0.572493 0.0932817 0.48639
380 2 0.917653 0.748426 0.344408
381 2 0.568672 0.0979287 0.0656529
382 2 0.473878 0.904313 0.670461
383 2 0.762229 0.715838 0.29959
384 1 0.500843 0.79856 0.802067
385 2 0.694886 0.333974 0.726102
386 2 0.596917 0.540522 0.494908
387 1 0.772916 0.803826 0.00465095
388 2 0.258156 0.735674 0.637148
389 2 0.846438 0.148679 0.531647
390 2 0.560144 0.330614 0.26388
391 2 0.720251 0.123582 0.465031
392 1 0.828156 0.391475 0.770599
393 2 0.204264 0.71651 0.0219869
394 2 0.304351 0.013454 0.234769
395 2 0.100066 0.46688 0.196656
396 2 0.628413 0.12887 0.646912
397 2 0.547526 0.605777 0.417786
398 1 0.529818 0.344345 0.972278
399 1 0.924071 0.339996 0.521016
400 1 0.823342 0.108017 0.397225
401 2 0.761619 0.821037 0.209904
402 2 0.0370697 0.548729 0.714707
403 2 0.743193 0.0595779 0.0601793
404 2 0.0511053 0.570913 0.0869996
405 2 0.455853 0.0437959 0.489619
406 2 0.4874 0.297052 0.0590139
407 2 0.689523 0.364201 0.388327
408 2 0.945894 0.170566 0.213337
409 2 0.816645 0.276258 0.319333
410 2 0.231685 0.271556 0.425103
411 2 0.272251 0.820549 0.110606
412 2 0.308093 0.121236 0.0725164
413 2 0.713195 0.406343 0.936584
414 2 0.838455 0.518988 0.632259
415 2 0.732986 0.198859 0.808721
416 1 0.366879 0.557665 0.672992
417 2 0.876999 0.533361 0.196782
418 2 0.835325 0.298527 0.504072
419 2 0.426442 0.893915 0.444311
420 2 0.898191 0.291972 0.441452
421 1 0.567353 0.947946 0.649623
422 1 0.237586 0.832465 0.599509
423 2 0.965454 0.577658 0.139996
424 2 0.753611 0.350824 0.360899
425 1 0.274152 0.536562 0.788398
426 2 0.485598 0.413661 0.7463
427 2 0.0763218 0.927438 0.912217
428 2 0.296648 0.409099 0.322668
429 2 0.886623 0.505614 0.817669
430 2 0.369605 0.540485 0.466662
431 2 0.452192 0.873147 0.34018
432 1 0.548457 0.574234 0.149626
433 2 0.478112 0.221098 0.10853
434 1 0.504232 0.162865 0.599985
435 2 0.210538 0.284962 0.213911
436 2 0.545984 0.783629 0.612846
437 2 0.184744 0.8283 0.758291
438 2 0.383236 0.297316 0.190311
439 1 0.513456 0.977783 0.558577
440 2 0.613906 0.0958355 0.333327
441 1 0.642114 0.607018 0.31719
442 1 0.565204 0.199767 0.0862561
443 1 0.0967156 0.648625 0.0787613
444 2 0.196561 0.703837 0.654638
445 2 0.80314 0.697904 0.333872
446 2 0.462216 0.0237078 0.533312
447 2 0.620815 0.586934 0.490677
448 2 0.254764 0.820629 0.378556
449 1 0.900209 0.623021 0.733933
450 2 0.358548 0.222854 0.405534
451 2 0.6082 0.529533 0.90428
452 2 0.0539721 0.470188 0.276
453 1 0.00848005 0.0878813 0.320943
454 2 0.839366 0.598306 0.856461
455 2 0.614711 0.082484 0.487915
456 2 0.949662 0.979101 0.394681
457 2 0.49789 0.702914 0.495845
458 2 0.730035 0.0933501 0.223378
459 2 0.64245 0.521249 0.492297
460 2 0.423099 0.305068 0.168142
461 2 0.951345 0.343429 0.0135277
462 2 0.721315 0.83872 0.762148
463 1 0.463203 0.465224 0.614233
464 2 0.789642 0.438772 0.813639
465 2 0.941998 0.503552 0.734945
466 2 0.36404 0.880007 0.80679
467 1 0.538922 0.231374 0.290803
468 2 0.903256 0.779795 0.315416
469 2 0.0544354 0.324182 0.828888
470 2 0.36589 0.644534 0.806224
471 2 0.243701 0.478587 0.955487
472 2 0.324318 0.918368 0.819446
473 1 0.160003 0.604041 0.721214
474 1 0.120436 0.005007 0.650255
475 1 0.219399 0.614609 0.883708
476 2 0.409138 0.755394 0.218835
477 2 0.803686 0.578732 0.624178
478 2 0.496871 0.509957 0.262375
479 2 0.605651 0.863386 0.804874
480 2 0.577027 0.266147 0.375597
481 2 0.209843 0.929631 0.647463
482 2 0.357849 0.374433 0.672711
483 2 0.714019 0.471826 0.422214
484 1 0.747523 0.267324 0.370227
485 1 0.837658 0.981284 0.937561
486 2 0.156114 0.353163 0.732475
487 2 0.796775 0.725498 0.87468
488 2 0.105445 0.46403 0.296463
489 2 0.0833852 0.49365 0.423813
490 2 0.862528 0.790153 0.583697
491 2 0.496884 0.865914 0.505942
492 2 0.394391 0.804379 0.324424
493 2 0.524771 0.1422 0.927938
494 2 0.230715 0.924728 0.655088
495 2 0.562552 0.366178 0.213504
496 2 0.664445 0.191388 0.623116
497 2 0.961154 0.427133 0.282361
498 1 0.400661 0.793538 0.264077
499 2 0.206686 0.557593 0.774901
500 2 0.697898 0.474533 0.865302
501 1 0.782516 0.0835368 0.122043
502 2 0.00738919 0.0311644 0.0387735
503 2 0.00955557 0.604851 0.983635
504 1 0.799248 0.839277 0.1727
505 2 0.0424443 0.336341 0.194718
506 2 0.401522 0.503763 0.059077
507 2 0.798377 0.685192 0.215756
508 2 0.207502 0.876611 0.748148
509 1 0.0202264 0.509514 0.450073
510 2 0.646945 0.0974262 0.123291
511 2 0.625042 0.459161 0.868396
512 2 0.00970881 0.950608 0.961969
513 1 0.197237 0.0812965 0.41713
514 2 0.489841 0.908218 0.551352
515 1 0.531955 0.30001 0.375636
516 2 0.378402 0.00749201 0.325631
517 1 0.688266 0.149587 0.630902
518 2 0.280668 0.892251 0.860181
519 2 0.814678 0.328081 0.62561
520 2 0.485487 0.703788 0.450217
521 2 0.869461 0.145252 0.123962
522 2 0.177211 0.638096 0.730949
523 2 0.863022 0.326289 0.118625
524 2 0.737937 0.965907 0.889797
525 2 0.686412 0.0695906 0.360243
526 2 0.222496 0.466263 0.722395
527 2 0.479564 0.822512 0.295297
528 1 0.167305 0.435017 0.496262
529 2 0.133321 0.94744 0.946408
530 2 0.461443 0.904224 0.500254
531 2 0.39484 1.00231 0.981687
532 2 0.61024 0.797131 0.220969
533 2 0.575385 0.362459 0.131498
534 1 0.374239 0.020754 0.960031
535 2 0.494121 0.273334 0.0164264
536 1 0.287477 0.127945 0.0142377
537 1 0.922003 0.395046 0.0149994
538 2 0.282873 0.132411 0.550029
539 2 0.858845 0.312912 0.567858
540 2 0.623349 0.408139 0.681547
541 1 0.586962 0.984901 0.518021
542 2 0.853797 0.93371 0.980152
543 1 0.537041 0.15173 0.176981
544 1 0.494914 0.189126 0.115781
545 2 0.0819045 0.011238 0.743279
546 2 0.161068 0.45581 0.730866
547 2 0.507646 0.825718 0.677448
548 2 0.521762 0.988141 0.594443
549 2 0.559934 0.356226 0.885604
550 2 0.467431 0.56587 0.653605
551 1 0.744214 0.0999445 0.385435
552 2 0.03962 0.621629 0.474628
553 2 0.401162 0.62135 0.708866
554 2 0.580633 0.594999 0.890613
555 1 0.760505 0.417549 0.916681
556 2 0.256177 0.614016 0.826737
557 2 0.67759 0.0450603 0.818606
558 1 0.398668 0.929657 0.195018
559 2 0.182637 0.191341 0.592032
560 2 0.91157 1.00277 0.0217834
561 2 0.51304 0.349357 0.300159
562 1 0.479403 0.552734 0.745755
563 2 0.151778 0.363123 0.208197
564 2 0.630538 0.809812 0.429413
565 2 0.253614 0.29919 0.84475
566 2 0.128252 0.706227 0.443502
567 2 0.907142 0.82703 0.00351081
568 2 0.164187 0.595225 0.485339
569 1 0.826768 0.469513 0.100565
570 2 0.895337 0.26974 0.855154
571 2 0.946957 0.490897 0.186955
572 2 0.0264699 0.393658 0.3181
573 2 0.837969 0.832261 0.740927
574 2 0.456889 0.877958 0.977788
575 1 0.0739547 0.998044 0.695635
576 2 0.204289 0.411345 0.439657
577 2 0.134198 0.899512 0.222684
578 1 0.447502 0.358368 0.51368
579 2 0.546598 0.789264 0.785919
580 1 0.350483 0.476851 0.415942
581 2 0.784907 0.91975 0.647302
582 2 0.341217 0.492702 0.958421
583 1 0.448728 0.515999 0.67612
584 2 0.863139 0.895942 0.0562297
585 1 0.360966 0.226292 0.251423
586 2 0.203116 0.259855 0.54391
587 2 0.136199 0.00592779 0.00651658
588 2 0.866312 0.046984 0.870089
589 1 0.13535 0.326298 0.948024
590 1 0.824497 0.103975 0.472001
591 1 0.770965 0.154226 0.424299
592 2 0.842534 0.373194 0.888566
593 2 0.218028 0.256159 0.966122
594 1 0.540036 0.374742 0.24881
595 1 0.0154217 0.218499 0.971962
596 2 0.474403 0.901485 0.474683
597 1 0.585556 0.889899 0.205624
598 2 0.570158 0.634841 0.437951
599 2 0.592864 0.785081 0.704412
600 2 0.935778 0.738948 0.984925
601 2 0.94615 0.324887 0.102207
602 1 0.627962 0.384962 0.376626
603 2 0.976646 0.904811 0.871562
604 1 0.62889 0.368874 0.907238
605 2 0.63465 0.516384 0.542865
606 2 0.557958 0.406537 0.224045
607 1 0.179849 0.63693 0.620974
608 2 0.358489 0.265783 0.301147
609 2 0.982163 0.165478 0.899215
610 2 0.686431 0.771818 0.952739
611 2 0.87827 0.326467 0.477302
612 1 0.657268 0.148314 0.0514445
613 2 0.732771 0.0914313 0.339701
614 1 0.64296 0.147836 0.44834
615 2 0.523251 0.0282652 0.897391
616 1 0.119243 0.133931 0.594658
617 2 0.274768 0.176303 0.199934
618 2 0.839223 0.954192 0.660111
619 2 0.382825 0.707997 0.709481
620 2 0.584809 0.0392866 0.117966
621 2 0.646126 0.697279 0.807525
622 2 0.965514 0.855419 0.431431
623 1 0.387619 0.742745 0.385608
624 2 0.805314 0.406546 0.630706
625 2 0.315314 0.738808 0.183832
626 2 0.342117 0.96367 0.308959
627 2 0.471416 0.436132 0.410154
628 2 0.196435 0.32783 0.711237
629 2 0.418096 0.831796 0.037147
630 1 0.00571523 0.291911 0.175211
631 2 0.925754 0.392743 0.565546
632 2 0.0865122 0.182746 0.614225
633 2 0.231473 0.0517659 0.757695
634 2 0.364585 0.9945 0.130657
635 2 0.247797 0.695919 0.481157
636 2 0.407706 0.477346 0.842925
637 2 0.873183 0.961107 0.626587
638 1 0.444098 0.065173 0.569129
639 2 0.648296 0.84337 0.702977
640 2 0.0730287 0.473954 0.872931
641 2 0.548192 0.295698 0.961153
642 2 0.545445 0.611093 0.302831
643 2 0.970827 0.504678 0.842917
644 2 0.379336 0.786061 0.0377173
645 1 0.706247 0.956202 0.409378
646 2 0.789106 0.0259131 0.320058
647 1 0.271288 0.00648636 0.0968277
648 2 0.719384 0.349662 0.663716
649 2 0.732434 0.125895 0.0660293
650 2 0.6947 0.698194 0.159966
651 2 0.692422 0.83677 0.599086
652 2 0.640482 0.297891 0.193541
653 2 0.922203 0.987837 0.858592
654 1 0.550235 0.289133 0.0277462
655 2 0.221627 0.0385579 0.430127
656 2 0.0772414 0.653047 0.220632
657 2 0.465004 0.972192 0.576292
658 2 0.0310916 0.103886 0.404432
659 2 0.336135 0.206873 0.672654
660 2 0.375821 0.905639 0.150225
661 1 0.607972 0.276384 0.412223
662 2 0.613923 0.55746 0.32828
663 2 0.225403 0.129859 0.571331
664 1 0.0223608 0.52851 0.393367
665 2 0.310052 0.711893 0.342317
666 2 0.641355 0.823296 0.72537
667 2 0.41664 0.363448 0.11634
668 2 0.423182 0.214698 0.152759
669 2 0.650408 0.256584 0.230359
670 1 0.582632 0.580339 0.192136
671 2 0.812072 0.556574 0.110975
672 1 0.645655 0.896058 0.447464
673 2 0.811369 0.286459 0.813878
674 2 0.596693 0.957418 0.579817
675 2 0.959937 0.485804 0.676369
676 1 0.137056 0.901598 0.622039
677 2 0.0133915 0.155567 0.543929
678 2 0.878196 0.190407 0.459496
679 1 0.950837 0.928491 0.780575
680 2 0.249327 0.747308 0.0627064
681 1 0.438351 0.4015 0.697851
682 1 0.934695 0.941919 0.859294
683 2 0.47764 0.30721 0.364644
684 2 0.203467 0.661559 0.760262
685 2 0.351567 0.832006 0.138695
686 2 0.588258 0.911977 0.823988
687 1 0.0241708 0.194155 0.0559004
688 2 0.376447 0.338419 0.476294
689 2 0.615807 0.71417 0.32421
690 2 0.840582 0.654972 0.832183
691 2 0.521366 0.0803646 0.580046
692 1 0.786379 0.514554 0.976925
693 2 0.335911 0.424783 0.358096
694 2 0.78467 0.0496005 0.391905
695 1 0.598429 0.890223 0.0717093
696 2 0.0217224 0.188328 0.152547
697 2 0.739388 0.339963 0.0617352
698 2 0.844585 0.698784 0.597502
699 2 0.946441 0.137744 0.923222
700 1 0.444402 0.525912 0.839063
701 2 0.534214 0.0851976 0.974241
702 2 0.950373 0.279734 0.572027
703 2 0.339196 0.305214 0.73393
704 2 0.249859 0.795552 0.0733676
705 2 0.775263 0.67268 0.208994
706 2 0.551102 0.00269651 0.584539
707 2 0.638229 0.36665 0.489764
708 1 0.615318 0.113869 0.789123
709 2 0.631064 0.623448 0.683508
710 2 0.497041 0.471931 0.262129
711 2 0.963114 0.768895 0.385511
712 1 0.952071 0.0533516 0.0741691
713 2 0.993289 0.852388 0.773741
714 1 0.735369 0.301099 0.22657
715 2 0.163955 0.923841 0.0111455
716 1 0.556679 0.848003 0.764945
717 2 0.240768 0.0108912 0.362693
718 2 0.399286 0.863506 0.300288
719 2 0.595496 0.429521 0.924284
720 2 0.342094 0.939336 0.405497
721 2 0.0792475 0.550857 0.0949722
722 1 0.00919326 0.480057 0.658648
723 2 0.403732 0.605253 0.555574
724 2 0.292689 0.780044 0.620782
725 2 0.613452 0.877498 0.370015
726 2 0.26638 0.59458 0.993793
727 1 0.543295 0.77291 0.695276
728 1 0.820762 0.596485 0.419247
729 1 0.481601 0.257309 0.962522
730 1 0.447877 0.894568 0.58442
731 2 0.373222 0.370245 0.415052
732 1 0.671115 0.857875 0.802317
733 2 0.805052 0.367682 0.859443
734 2 0.028628 0.493137 0.578035
735 2 0.268628 0.936706 0.208933
736 1 0.538422 0.530139 0.839056
737 2 0.310226 0.884975 0.234274
738 2 0.547856 0.668392 0.294465
739 2 0.0950858 0.675219 0.593283
740 2 0.0950417 0.641616 0.241212
741 2 0.171293 0.438468 0.332187
742 1 0.754989 0.911975 0.933241
743 2 0.821329 0.163467 0.492462
744 2 0.41802 0.903523 0.746593
745 2 0.337369 0.414093 0.534353
746 1 0.0437193 0.571522 0.829727
747 2 0.52772 0.341575 0.0560467
748 2 0.668643 0.674456 0.960839
749 2 0.443399 0.505762 0.997665
750 2 0.222592 0.48162 0.363303
751 2 0.437764 0.924652 0.31372
752 2 0.293436 0.927881 0.458032
753 2 0.46067 0.111413 0.777372
754 2 0.970898 0.132606 0.492779
755 2 0.850067 0.262493 0.60318
756 2 0.547657 0.459646 0.38892
757 2 0.853836 0.470789 0.378716
758 2 0.611868 0.154508 0.0154764
759 2 0.686129 0.246834 0.955957
760 1 0.504765 0.57386 0.579825
761 2 0.920034 0.015986 0.810777
762 2 0.5509 0.270098 0.623951
763 1 0.344194 0.255734 0.913584
764 2 0.450843 0.518235 0.046252
765 2 0.443519 0.187916 0.0703581
766 2 0.607624 0.181971 0.112226
767 2 0.75536 0.120756 0.986494
768 2 0.204289 0.551799 0.983878
769 2 0.983457 0.676346 0.326052
770 2 0.611633 0.972026 0.995985
771 2 0.928147 0.903439 0.816946
772 2 0.380985 -0.00163963 0.253324
773 1 0.816821 0.750275 0.352285
774 2 0.418835 0.819252 0.329839
775 2 0.588702 0.00739082 0.584226
776 2 0.395582 0.426395 0.590239
777 1 0.592009 0.128535 0.062726
778 2 0.407764 0.472893 0.755783
779 2 0.688842 0.142274 0.990635
780 1 0.23567 0.427347 0.279193
781 2 0.198979 0.356805 0.233235
782 2 0.551187 0.802041 0.838734
783 1 0.372138 0.831594 0.654969
784 2 0.565508 0.82905 0.569731
785 2 0.676295 0.422843 0.314672
786 1 0.400255 0.407583 0.484465
787 2 0.0697263 0.812391 0.335464
788 2 0.581894 0.520155 0.367929
789 2 0.579639 0.305564 0.402041
790 2 0.758465 0.0916623 0.313514
791 1 0.250159 0.529547 0.537393
792 2 0.0932173 0.371948 0.118715
793 2 -0.000309646 0.163991 0.471349
794 2 0.363862 0.603477 0.154185
795 2 0.0712761 0.386935 0.494399
796 2 0.341308 0.720986 0.401006
797 2 0.500703 0.745938 0.763927
798 2 0.0124251 0.903563 0.686448
799 2 0.0135585 0.659233 0.709468
800 2 0.506552 0.328082 0.174381
801 2 0.698864 0.0914085 0.829118
802 2 0.503818 0.586714 0.899112
803 2 0.139823 0.982269 0.902249
804 2 0.0763851 0.207597 0.122389
805 2 0.318093 0.628987 0.459569
806 1 0.523577 0.941775 0.84498
807 2 0.97169 0.809183 0.37631
808 2 0.44905 0.256538 0.292099
809 1 0.608117 0.172951 0.430471
810 2 0.560006 0.89669 0.791049
811 2 0.636359 0.321966 0.951149
812 2 0.803688 0.707374 0.308892
813 1 0.742909 0.229319 0.47961
814 2 0.516985 0.141959 0.436337
815 2 0.678281 0.624128 0.454684
816 1 0.411475 0.91777 0.254027
817 1 0.550324 0.194147 0.692295
818 2 0.734096 0.827595 0.140213
819 1 0.451398 0.633084 0.142128
820 1 0.380174 0.796369 0.462868
821 2 0.494108 0.112928 0.70873
822 2 0.51817 0.537208 0.647786
823 1 0.816249 0.386905 0.57176
824 2 0.771497 0.388211 0.117238
825 2 0.174992 0.505613 0.280248
826 2 0.515888 0.38623 0.296548
827 1 0.737487 0.470745 0.574768
828 2 0.539444 0.627334 0.636232
829 2 0.488664 0.129003 0.677043
830 2 0.434347 0.4274 0.740251
831 1 0.0874005 0.124691 0.306686
832 2 0.243122 0.429195 0.726208
833 1 0.827283 0.425841 0.394088
834 2 0.660124 0.871483 0.507668
835 2 0.756303 0.0539999 0.325634
836 2 0.0947335 0.557538 0.0959554
837 2 0.693148 0.180329 0.246603
838 2 0.760297 0.935303 0.972993
839 2 0.282562 0.827903 0.589864
840 2 0.351866 0.785141 0.699083
841 2 0.593807 0.866423 0.614504
842 2 0.112656 0.140774 0.945426
843 2 0.10118 0.412091 0.425601
844 2 0.199456 0.108569 0.466798
845 2 0.565095 0.557386 0.909076
846 2 0.509766 0.0825482 0.460047
847 2 0.763581 0.549793 0.930797
848 2 0.21287 0.835287 0.299951
849 1 0.565286 0.223016 0.990212
850 2 0.599144 0.544796 0.812247
851 2 0.546247 0.985986 0.522961
852 2 0.764242 0.741242 0.409842
853 1 0.0937111 0.579133 0.649901
854 2 0.623528 0.830671 0.818688
855 2 0.319311 0.733341 0.567644
856 2 0.61979 0.92157 0.691084
857 2 0.519874 0.358239 0.00354432
858 2 0.465693 0.521294 0.884976
859 2 0.687415 0.566468 0.269336
860 2 0.449389 0.966939 0.774398
861 2 0.154385 0.844171 0.339551
862 2 0.688929 0.580869 0.157522
863 2 0.0689109 0.461979 0.79406
864 2 0.250705 0.639155 0.801373
865 2 0.964055 0.444831 0.41848
866 2 0.0896114 0.0872324 0.763151
867 2 0.664329 0.336687 0.235532
868 2 0.403254 0.158986 0.901946
869 2 0.632518 0.211392 0.584286
870 2 0.560602 0.545641 0.762811
871 2 0.0606541 0.356045 0.631217
872 2 0.437924 0.686949 0.118347
873 2 0.568774 0.0802037 0.0989648
874 2 0.162261 0.0742391 0.28961
875 2 0.544944 0.0520013 0.636787
876 2 0.716627 0.572281 0.995873
877 2 0.704062 0.796227 0.394457
878 2 0.917811 0.0833363 0.490677
879 2 0.83463 0.36957 0.699362
880 2 0.569461 0.831951 0.621037
881 2 0.115081 0.711743 0.385714
882 1 0.696893 0.295506 0.488845
883 1 0.262829 0.606324 0.346
884 2 0.494653 0.299963 0.595581
885 2 0.69728 0.29486 0.842172
886 2 0.137982 0.449841 0.869163
887 1 0.896903 0.780672 0.024344
888 2 0.370634 0.717556 0.319445
889 2 0.117941 0.385297 0.285045
890 1 0.986983 0.662767 0.676534
891 2 0.990256 0.678183 0.987019
892 2 0.0904226 0.954633 0.500532
893 2 0.587385 0.636584 0.711815
894 2 0.462304 0.849185 0.422406
895 1 0.60984 0.886773 0.571678
896 2 0.947649 0.49626 0.117518
897 2 0.17773 0.234125 0.810217
898 2 0.671178 0.452211 0.53974
899 2 0.788508 0.324858 0.879715
900 2 0.77698 0.622972 0.890823
901 2 0.0444365 0.342188 0.292235
902 2 0.277148 0.449663 0.31597
903 2 0.0892866 0.326831 0.664889