ITEM: TIMESTEP
43400
ITEM: NUMBER OF ATOMS
1000
ITEM: BOX BOUNDS xy xz yz pp pp pp
0.0000000000000000e+00 1.3572088000000001e+01 0.0000000000000000e+00
0.0000000000000000e+00 1.3572088000000001e+01 0.0000000000000000e+00
0.0000000000000000e+00 1.3572088000000001e+01 0.0000000000000000e+00
ITEM: ATOMS id type xs ys zs
1 2 0.164869 0.226827 0.46708
2 2 0.983018 0.467427 0.203552
3 1 0.691104 0.0235219 0.767709
4 2 0.14084 0.126705 0.697719
5 2 0.583091 0.106633 0.379029
6 1 0.343155 0.031474 0.77928
7 2 0.63001 0.0198735 0.776963
8 2 0.161298 0.491139 0.321812
9 2 0.811412 0.666573 0.22801
10 2 0.607356 0.975801 0.75796
11 2 0.184482 0.926562 0.037343
12 2 0.662254 0.684051 0.895406
13 2 0.213947 0.328021 0.522172
14 1 0.350752 0.184148 0.0740681
15 2 0.747203 0.554491 0.520887
16 2 0.10643 0.330941 0.919484
17 1 0.725939 0.560684 0.563102
18 2 0.806614 0.651743 0.592403
19 2 0.752431 0.287305 0.195553
20 2 0.849168 0.0214431 0.716954
21 2 0.62109 0.97366 0.757626
22 2 0.510604 0.174681 0.559909
23 2 0.568718 0.592901 0.855868
24 2 0.704476 0.601492 0.495672
25 1 0.576014 0.429947 0.358837
26 2 0.428302 0.437128 0.613293
27 2 0.618389 0.973663 0.796833
28 2 0.623406 0.987371 0.731095
29 2 0.0527148 0.381597 0.0174613
30 2 0.940298 0.611801 0.683734
31 1 0.64827 0.20573 0.298044
32 1 0.411149 0.170023 0.283408
33 1 0.668992 0.337431 0.247461
34 2 0.746064 0.538324 0.527217
35 2 0.633015 0.228017 0.648559
36 1 0.751177 0.94808 0.745851
37 2 0.790789 0.538635 0.48293
38 2 0.617984 0.999155 0.824463
39 2 0.0164491 0.549096 0.264681
40 2 0.473926 0.240573 0.427041
41 2 0.889918 0.913027 0.800711
42 2 0.660833 1.00031 0.812049
43 2 0.25673 0.258116 0.946228
44 2 0.739034 0.0692166 0.473106
45 2 0.395664 0.88784 0.280279
46 1 0.0586109 0.806226 0.153801
47 2 0.126629 0.684041 0.871077
48 2 0.371868 0.0968434 0.458236
49 2 0.425259 0.701468 0.911756
50 2 0.50473 0.61568 0.70136
51 2 0.908348 0.381688 0.833192
52 2 0.320649 0.348138 0.138721
53 2 0.804382 0.413194 0.0244032
54 2 0.609559 0.990349 0.771319
55 1 0.46735 0.595269 0.392815
56 1 0.446558 0.763287 0.915308
57 2 0.00363507 0.657952 0.265978
58 2 0.697838 0.994196 0.443905
59 2 0.816088 0.300932 0.517857
60 2 0.807515 0.335176 0.538429
61 2 0.853908 0.583473 0.865849
62 2 0.312254 0.71826 0.985707
63 2 0.298575 0.99194 0.749145
64 2 0.279951 0.643549 0.158923
65 2 0.812818 0.56639 0.50746
66 1 0.338003 0.583986 0.675263
67 2 0.280487 0.417886 0.302628
68 2 0.61909 0.993703 0.796474
69 1 0.116097 0.00975032 0.783526
70 2 0.444842 0.251064 0.102451
71 1 0.573228 0.0542209 0.822273
72 2 0.337864 0.0108697 0.717365
73 2 0.609711 0.00501391 0.57745
74 2 0.448951 0.767207 0.483913
75 2 0.737109 0.24172 0.148151
76 2 0.386534 0.117374 0.391094
77 1 0.41413 0.86418 0.188615
78 2 0.233188 0.984351 0.896128
79 2 0.212378 0.45239 0.552724
80 2 0.0657615 0.0462776 0.324452
81 2 0.676823 0.996623 0.825447
82 2 0.263058 0.396548 0.869337
83 2 0.217882 0.0750059 0.452494
84 2 0.80921 0.222877 0.348659
85 1 0.863979 0.965708 0.712002
86 2 0.755121 0.521728 0.502427
87 2 0.600576 0.971487 0.163682
88 2 0.727011 0.715482 0.818622
89 2 0.419818 0.92671 0.591407
90 2 0.683645 0.758111 0.864408
91 2 0.345431 0.158226 0.609486
92 2 0.675133 0.230483 0.660915
93 2 0.961082 0.75438 0.608531
94 1 0.412597 0.613462 0.409084
95 2 0.595887 0.55752 0.0759388
96 2 0.266069 0.161814 0.00724819
97 2 0.941486 0.522827 0.255161
98 2 0.925841 0.807452 0.87085
99 2 0.428933 0.343537 0.797594
100 2 0.320452 0.227902 0.394093
101 1 0.337438 0.756278 0.755431
102 2 0.262056 0.966347 0.464123
103 2 0.722764 0.564203 0.500072
104 2 0.67967 0.519337 0.0627577
105 2 0.678737 0.114236 0.965663
106 2 0.288212 0.457451 0.616852
107 2 0.388956 0.887663 0.624535
108 2 0.760499 0.537557 0.462015
109 2 0.761261 0.556707 0.496664
110 2 0.809975 0.502074 0.759365
111 2 0.315687 0.393484 0.715229
112 1 0.961196 0.173103 0.733448
113 1 0.0178898 0.575625 0.224688
114 2 0.774067 0.557841 0.485803
115 2 0.206089 0.181526 0.436947
116 2 0.0758787 0.0813491 0.332121
117 2 0.954614 0.543454 0.29264
118 2 0.768632 0.559267 0.451347
119 2 0.434243 0.253663 0.172215
120 2 0.767549 0.5243 0.533139
121 2 0.644629 0.288371 0.769856
122 2 0.126531 0.256757 0.928584
123 2 0.68783 0.548136 0.622141
124 2 0.265407 0.482911 0.433806
125 1 0.0592667 0.334549 0.854708
126 2 0.465672 0.702598 0.853731
127 2 0.757438 0.5995 0.556068
128 2 0.213705 0.0847854 0.838129
129 1 0.214863 0.957038 0.403113
130 2 0.4519 0.738571 0.681002
131 2 0.977579 0.107786 0.236049
132 2 0.0605094 0.464991 0.0982503
133 2 0.773484 0.608136 0.505769
134 2 0.716222 0.274322 0.967561
135 2 0.600492 0.975157 0.782801
136 2 0.104011 0.350301 0.209255
137 1 0.695093 0.236756 0.04693
138 2 0.644889 0.0124315 0.799516
139 2 0.629487 0.991122 0.851666
140 1 0.847263 0.579385 0.604658
141 2 0.483018 0.494457 0.658571
142 2 0.255759 0.948483 0.755985
143 2 0.385954 0.586925 0.0572083
144 2 0.681561 0.169873 0.839579
145 2 0.714545 0.250736 0.826483
146 2 0.333627 0.85339 0.0853205
147 1 0.649219 0.94312 0.856274
148 1 0.833583 0.723172 0.504743
149 2 0.0434564 0.704 0.888228
150 1 0.697864 0.619074 0.525901
151 2 0.730566 0.91631 0.447933
152 2 0.335733 0.859274 0.908523
153 1 0.984997 0.744828 0.212851
154 1 0.274969 0.0437248 0.788622
155 2 0.375733 0.157002 0.480781
156 2 0.408341 0.891511 0.167421
157 2 0.0125539 0.473407 0.876453
158 2 0.740006 0.594562 0.600773
159 2 0.719189 0.858061 0.489708
160 2 0.644644 0.947523 0.81121
161 2 0.657793 0.00225876 0.785211
162 2 0.590404 0.996379 0.797105
163 2 0.425548 0.719738 0.642796
164 2 0.0287411 0.851256 0.513411
165 2 0.899798 0.509472 0.455983
166 2 0.351412 0.692699 0.521006
167 2 0.746737 0.0446232 0.386154
168 2 0.588028 0.991279 0.79096
169 2 0.649414 0.952297 0.190476
170 2 0.881261 0.0546579 0.0215311
171 2 0.617932 0.762805 0.702544
172 2 0.305855 0.191132 0.308481
173 1 0.836278 0.49973 0.492951
174 2 0.0691478 0.505559 0.824903
175 2 0.0483573 0.419101 0.610479
176 2 0.632065 0.295998 0.159303
177 1 0.385732 0.744314 0.911633
178 2 0.0348391 0.540107 0.777953
179 2 0.37017 0.932843 0.910206
180 2 0.787768 0.552697 0.512316
181 2 0.442911 0.129526 0.285101
182 2 0.21936 0.165263 0.307522
183 2 0.334511 0.705306 0.921054
184 2 0.10117 0.0623339 0.365177
185 2 0.795047 0.680698 0.564926
186 2 0.279209 0.960482 0.894485
187 2 0.648222 0.804665 0.0814067
188 1 0.574089 0.249744 0.830056
189 2 0.44774 0.110383 0.402647
190 2 0.860089 0.935739 0.224149
191 2 0.797073 0.058164 0.222183
192 2 0.590948 0.0149146 0.774155
193 2 0.785981 0.105037 0.372623
194 2 0.589464 0.153714 0.116079
195 2 0.948106 0.073873 0.469497
196 2 0.649605 0.00767907 0.762714
197 2 0.118592 0.162041 0.913398
198 2 0.468318 0.159535 0.374921
199 2 0.0495167 0.115184 0.427047
200 1 0.811631 0.515592 0.632929
201 2 0.0879981 0.145099 0.524218
202 2 0.299603 0.736763 0.90484
203 2 0.457415 0.154401 0.465957
204 2 0.941095 0.808587 0.221331
205 2 0.390279 0.899062 0.852697
206 2 0.260573 0.960903 0.186505
207 2 0.0614448 0.964322 0.391199
208 2 0.998423 0.617674 0.332788
209 2 0.672437 0.468938 0.481856
210 2 0.0313043 0.744729 0.391584
211 2 0.318543 0.362002 0.247668
212 1 0.603547 0.913062 0.768669
213 2 0.562479 0.198783 0.508339
214 2 0.797334 0.555942 0.509165
215 2 0.767714 0.54286 0.509603
216 2 0.890377 0.957868 0.361876
217 2 0.979029 0.819834 0.952679
218 2 0.478564 0.179097 0.391898
219 2 0.645122 0.479349 0.536167
220 2 0.333544 0.138384 0.680001
221 2 1.00197 0.362977 0.357386
222 2 0.0188708 0.507866 6.50677e-05
223 2 0.134607 0.737389 0.355116
224 2 0.717213 0.957973 0.715386
225 1 0.281833 0.808585 0.267841
226 2 0.598765 0.997618 0.737009
227 2 0.215739 0.700497 0.266952
228 2 0.70835 0.423422 0.475151
229 2 0.992187 0.493132 0.595751
230 1 0.524304 0.496354 0.736506
231 2 0.860216 0.075788 0.981228
232 2 0.184098 0.212016 0.442259
233 1 0.0434682 0.917792 0.29211
234 2 0.244368 0.594956 0.194491
235 2 0.797844 0.540743 0.546528
236 2 0.8328 0.0796253 0.789238
237 2 0.639805 0.381263 0.956999
238 1 0.0135212 0.393022 0.384881
239 1 0.95434 0.879809 0.0543721
240 2 0.565037 0.703976 0.779283
241 2 0.506527 0.391463 0.0352955
242 1 0.557689 0.661813 0.550286
243 1 0.724918 0.474174 0.453189
244 2 0.116819 0.142827 0.502333
245 2 0.704359 0.797482 0.238002
246 1 0.632142 0.887555 0.464634
247 2 0.835167 0.789911 0.0611607
248 2 0.334924 0.433882 0.563342
249 2 0.611504 0.341018 0.955432
250 2 0.573411 0.954595 0.81396
251 2 0.85009 0.459479 0.00347118
252 2 0.563387 0.327509 0.271299
253 2 0.697325 0.90635 0.20181
254 2 0.152675 0.285507 0.241347
255 2 0.387944 0.115657 0.433462
256 2 0.605232 0.0106723 0.751796
257 2 0.293876 0.911076 0.935665
258 2 0.23943 0.912509 0.504323
259 1 0.952561 0.548619 0.0131276
260 2 0.723107 0.571859 0.614164
261 1 0.125726 0.288405 0.442204
262 2 0.102625 0.270109 0.173352
263 2 0.67352 0.711093 0.775271
264 2 0.665267 0.260718 0.236329
265 1 0.269787 0.0256485 0.460037
266 2 0.855025 0.709951 0.21965
267 2 0.409439 0.375448 0.202034
268 1 0.965869 0.148462 0.154642
269 1 0.960275 0.368864 0.361695
270 2 0.874655 0.479087 0.307919
271 2 0.568516 0.711671 0.456664
272 2 0.084564 0.948069 0.568102
273 1 0.675511 0.529151 0.592411
274 2 0.822448 0.669193 0.496328
275 2 0.775904 0.855601 0.0993696
276 2 0.587597 0.224955 0.401831
277 2 0.159506 0.943162 0.493529
278 2 0.66314 0.531954 0.860731
279 2 0.348391 0.163185 0.00818295
280 1 0.356755 0.61973 0.201321
281 2 0.831737 0.983855 0.257077
282 2 0.921303 0.238497 0.276579
283 2 0.144825 0.959832 0.744489
284 1 0.790461 0.897471 0.718114
285 2 0.870021 0.902321 0.00904273
286 2 0.652938 0.997039 0.832658
287 1 0.911933 0.121471 0.432064
288 2 0.615735 0.0282675 0.769219
289 2 0.635482 0.702293 0.479073
290 2 0.837418 0.311393 0.699346
291 2 0.280863 0.74392 0.862854
292 2 0.375088 0.996451 0.31091
293 2 0.795604 0.54679 0.525596
294 2 0.764834 0.667347 0.562971
295 2 0.741691 0.606003 0.499446
296 2 0.489804 0.207066 0.330891
297 2 0.687213 0.910317 0.488509
298 2 0.888985 0.651364 0.670979
299 1 0.709249 0.982525 0.778581
300 2 0.664536 0.98064 0.761584
301 2 0.00345339 0.969452 0.28502
302 2 0.24533 0.331382 0.48372
303 2 0.172134 0.441782 0.561738
304 1 0.988823 0.401003 0.297618
305 2 0.653177 0.172486 0.964849
306 2 0.34261 0.570966 0.93665
307 2 0.94554 0.461975 0.274652
308 2 0.421058 0.303153 0.115456
309 2 0.700156 0.277832 0.84499
310 2 0.637442 0.924021 0.155207
311 2 0.524362 0.0120564 0.335674
312 2 0.973378 0.858561 0.978662
313 2 0.0457804 0.593712 0.97667
314 2 0.0456216 0.0852762 0.375873
315 2 -0.000119911 0.691744 0.0842625
316 2 0.0302077 0.749146 0.0898389
317 2 0.0794452 0.932934 0.765143
318 2 0.576775 0.784034 0.861173
319 2 0.95459 0.632512 0.644181
320 2 0.721817 0.63383 0.660152
321 2 0.785243 0.568232 0.531489
322 2 0.932915 0.574955 0.957531
323 2 0.773804 0.852221 0.149288
324 2 0.92194 0.348451 0.17773
325 2 0.634691 0.641086 0.602193
326 2 0.610869 0.937201 0.787653
327 2 0.709126 0.548894 0.512389
328 2 0.810098 0.58291 0.503287
329 1 0.0793584 0.760413 0.867798
330 2 0.753001 0.598268 0.523926
331 2 0.803984 0.724228 0.189402
332 2 0.299596 0.719376 0.793518
333 2 0.529953 0.939075 0.97247
334 2 0.631261 0.94188 0.754183
335 1 0.251314 0.141111 0.872503
336 2 0.692658 0.714406 0.221241
337 2 0.413998 0.264243 0.0606294
338 1 0.6863 0.089347 0.287571
339 2 0.84881 0.789909 0.525258
340 2 0.262337 0.405559 0.707572
341 2 0.753644 0.906332 0.656165
342 2 0.819279 0.49939 0.444828
343 2 0.0451817 0.973061 0.750797
344 1 0.874358 0.0683373 0.242048
345 1 0.822495 0.606021 0.558906
346 1 0.528233 0.0119598 0.781925
347 1 0.39964 0.715373 0.993567
348 2 0.628309 0.881258 0.348048
349 2 0.39249 0.0638576 0.0775027
350 2 0.460851 0.565817 0.255804
351 2 0.0552246 0.738802 0.144215
352 2 0.73287 0.189603 0.502102
353 1 0.854415 0.537774 0.552067
354 1 0.669166 0.340095 0.328439
355 2 0.187427 0.434766 0.0726548
356 2 0.706078 0.0876752 0.181247
357 2 0.422328 0.197329 0.33921
358 2 0.615871 0.357609 0.929711
359 2 0.948703 0.066398 0.423407
360 2 0.601432 0.9797 0.810773
361 1 0.578369 0.487219 0.680114
362 2 0.152893 0.208815 0.329224
363 1 0.607556 0.203621 0.998046
364 2 0.644972 0.0234659 0.784455
365 2 0.595181 0.652483 0.4623
366 2 0.208584 0.380853 0.809654
367 1 0.263245 0.782869 0.342544
368 1 0.320797 0.669146 0.973879
369 2 0.390352 0.0768217 0.416709
370 2 0.298947 0.530285 0.378835
371 2 0.827535 0.579013 0.520722
372 1 0.685129 0.952301 0.489017
373 2 0.205958 0.989921 0.355037
374 2 0.509449 0.578333 0.89276
375 2 0.584656 0.0218519 0.814587
376 2 0.0203892 0.224469 0.938116
377 2 0.219352 0.41108 0.884332
378 2 0.271586 0.679768 0.979603
379 2 0.656907 0.923797 0.167975
380 2 0.610781 0.96833 0.829472
381 2 0.856898 0.8097 0.347031
382 2 0.413501 0.87784 0.0132729
383 2 0.40444 0.408939 0.677075
384 1 0.889636 0.561483 0.806946
385 2 0.975977 0.944886 0.356253
386 2 0.333953 0.148801 0.63624
387 1 0.98964 0.571628 0.629814
388 2 0.97485 0.0654997 0.71677
389 2 0.793158 0.580667 0.497203
390 2 0.174748 0.755935 0.0353559
391 2 0.189406 0.342898 0.0728994
392 1 0.782406 0.511175 0.41932
393 2 0.131034 0.107724 0.393737
394 2 0.453354 0.112358 0.863256
395 2 0.638301 0.959769 0.776015
396 2 0.605639 0.0254605 0.797898
397 2 0.505267 0.659547 0.42539
398 1 0.911528 0.157957 0.878745
399 1 0.832104 0.553133 0.467105
400 1 0.0559562 0.295053 0.135007
401 2 0.660788 0.0549347 0.817766
402 2 0.190774 0.0371725 0.442304
403 2 0.33715 0.0431137 0.204605
404 2 0.16359 0.745574 0.736459
405 2 0.532576 0.479117 0.999434
406 2 0.0566673 0.760272 0.166306
407 2 0.311028 0.964487 0.468574
408 2 0.96847 0.476356 0.370232
409 2 0.62306 0.939289 0.797104
410 2 0.838195 0.126313 0.5915
411 2 0.796459 0.303276 0.691565
412 2 0.366665 0.501062 0.979139
413 2 0.724134 0.589426 0.48565
414 2 0.189392 0.230048 0.805451
415 2 0.95844 0.325304 0.959302
416 1 0.745995 0.64065 0.472541
417 2 0.831968 0.136813 0.250269
418 2 0.678981 0.676361 0.110959
419 2 0.817751 0.366258 0.233989
420 2 0.0533025 0.656307 0.370941
421 1 0.248759 0.426813 0.596502
422 1 0.711032 0.785638 0.197559
423 2 0.467202 0.431804 0.0180638
424 2 0.679195 0.861432 0.77649
425 1 0.97143 0.434615 0.406303
426 2 0.298864 0.91637 0.391099
427 2 0.922924 0.192607 0.44478
428 2 0.368626 0.657252 0.734719
429 2 0.652101 0.983518 0.663434
430 2 0.984712 0.637176 0.393544
431 2 0.801488 0.60926 0.531473
432 1 0.237224 0.333759 0.440655
433 2 0.260442 0.944137 0.0454271
434 1 0.903772 0.768131 0.481547
435 2 0.0295619 0.479796 0.0938405
436 2 0.939045 0.165342 0.501813
437 2 0.111501 0.627701 0.724205
438 2 0.751451 0.824825 0.19567
439 1 0.151901 0.907512 0.349584
440 2 0.363754 0.569108 0.401717
441 1 0.82736 0.218271 0.868891
442 1 0.722969 0.493547 0.556637
443 1 0.509303 0.85135 0.698623
444 2 0.743769 0.582792 0.534084
445 2 0.15234 0.0928532 0.629666
446 2 0.355466 0.232903 0.746393
447 2 0.118409 0.46272 0.846341
448 2 0.0581025 0.222148 0.8706
449 1 0.384828 0.324303 0.742035
450 2 0.229504 0.964439 0.44929
451 2 0.604783 0.94628 0.790488
452 2 0.444925 0.191228 0.35549
453 1 0.428509 0.258427 0.582554
454 2 0.778256 0.57192 0.522245
455 2 0.87268 0.367148 0.172956
456 2 0.307711 0.402232 0.534926
457 2 0.616458 0.0310206 0.828112
458 2 0.550791 0.185707 0.278013
459 2 0.279722 0.118778 0.838036
460 2 0.826074 0.55483 0.512542
461 2 0.413609 0.796412 0.41697
462 2 0.776594 0.528483 0.361858
463 1 0.921923 0.298497 0.851754
464 2 0.67063 0.952327 0.223383
465 2 0.686192 0.937884 0.233578
466 2 0.985855 0.751147 0.314429
467 1 0.627348 0.525268 0.0759295
468 2 0.511619 0.172808 0.52537
469 2 0.808356 0.459937 0.0657071
470 2 0.992723 0.110754 0.206745
471 2 0.769371 0.55187 0.529664
472 2 0.694825 0.652564 0.509343
473 1 0.707946 0.527416 0.480786
474 1 0.0863491 0.404147 0.221498
475 1 0.456953 0.705626 0.146574
476 2 0.0192446 0.115193 0.239529
477 2 0.642251 0.991242 0.800596
478 2 0.111068 0.937924 0.796003
479 2 0.0809802 0.046031 0.162657
480 2 0.596205 0.13672 0.627283
481 2 0.568867 0.749696 0.489123
482 2 0.207461 0.865782 0.859437
483 2 0.493313 0.562286 0.538763
484 1 0.991136 0.389336 0.703309
485 1 0.129938 0.792297 0.886366
486 2 0.694114 0.0406937 0.424347
487 2 0.757846 0.130781 0.600589
488 2 0.766823 0.601505 0.545599
489 2 0.690187 0.462383 0.00512292
490 2 0.268798 0.829828 0.666373
491 2 0.76497 0.605905 0.477736
492 2 0.946305 0.66088 0.610371
493 2 0.28289 0.480122 0.858622
494 2 0.632637 0.959752 0.814669
495 2 0.0206484 0.314529 0.0510035
496 2 0.752715 0.573236 0.454156
497 2 0.230332 0.652282 0.538666
498 1 0.873516 0.305827 0.893906
499 2 0.102013 0.10619 0.230988
500 2 0.0340465 0.00712581 0.493379
501 1 0.816128 0.585533 0.431913
502 2 0.271053 0.848981 0.602643
503 2 0.812579 0.556628 0.580998
504 1 0.693235 0.930781 0.817516
505 2 0.98794 0.694905 0.431818
506 2 0.695787 0.593542 0.0206831
507 2 0.061474 0.347047 0.362079
508 2 0.713441 0.989239 0.816828
509 1 0.656754 0.237824 0.9206
510 2 0.724819 0.512657 0.525848
511 2 0.682271 0.975528 0.741175
512 2 0.832157 0.567124 0.564753
513 1 0.493547 0.632075 0.486947
514 2 0.118307 0.841008 0.564361
515 1 0.553494 0.939076 0.745001
516 2 0.643063 0.974631 0.734061
517 1 0.859465 0.794854 0.735216
518 2 0.349336 0.736209 0.244147
519 2 0.250809 0.418077 0.899285
520 2 0.0714643 0.377518 0.668447
521 2 0.607201 0.780552 0.148759
522 2 0.0858987 0.968625 0.885953
523 2 0.792994 0.525042 0.528084
524 2 0.0841237 0.947719 0.696489
525 2 0.0778843 0.726733 0.065796
526 2 0.014945 0.184187 0.793083
527 2 0.623628 0.869198 0.151547
528 1 0.386832 0.761614 0.855606
529 2 0.974308 0.0803958 0.218927
530 2 0.756791 0.839489 0.491434
531 2 0.665802 0.98019 0.82558
532 2 0.654612 0.463886 0.0794475
533 2 0.891476 0.407238 0.691694
534 1 0.365531 0.112242 0.80327
535 2 0.91316 0.539423 0.302876
536 1 0.275444 0.485612 0.582029
537 1 0.546648 0.955966 0.796367
538 2 0.271416 0.451766 0.380116
539 2 0.316211 0.479193 0.827581
540 2 0.801869 0.755185 0.913217
541 1 0.112924 0.610121 0.323403
542 2 0.130331 0.511143 0.960679
543 1 0.866942 0.349603 0.451968
544 1 0.639414 0.626533 0.493841
545 2 0.468964 0.110282 0.458405
546 2 0.0855175 0.88966 0.163982
547 2 0.708689 0.428681 0.793007
548 2 0.0054885 0.670569 0.102872
549 2 0.186578 0.668838 0.548144
550 2 0.910413 0.572861 0.663797
551 1 0.814524 0.630003 0.474514
552 2 0.950622 0.445695 0.718775
553 2 0.693533 0.96169 0.275474
554 2 0.117902 0.836296 0.110838
555 1 0.321715 0.578697 0.0833911
556 2 0.433727 0.263067 0.868022
557 2 0.0992608 0.905531 0.494624
558 1 0.572863 0.0398535 0.313672
559 2 0.0910122 0.337716 0.58201
560 2 0.608664 0.435985 0.324088
561 2 0.959518 0.319032 0.923672
562 1 0.502293 0.474444 0.85644
563 2 0.539032 0.81352 0.306481
564 2 0.353786 0.439021 0.0848225
565 2 0.689237 0.320294 0.173646
566 2 0.62373 0.833802 0.331598
567 2 0.322261 0.816503 0.23596
568 2 0.117816 0.430718 0.183938
569 1 0.389696 0.372338 0.497028
570 2 0.23245 0.925402 0.983037
571 2 0.795915 0.870588 0.359008
572 2 0.114906 0.112498 0.685758
573 2 0.736338 0.542275 0.483974
574 2 0.949542 0.102546 0.229782
575 1 0.0408457 0.02707 0.818019
576 2 0.727084 0.0364203 0.374755
577 2 0.368701 0.148117 0.735041
578 1 0.369684 0.387003 0.823952
579 2 0.637566 0.996083 0.752563
580 1 0.102346 0.626573 0.806804
581 2 0.152819 0.275667 0.136833
582 2 0.137701 0.98226 0.670181
583 1 0.619594 0.931362 0.0842332
584 2 0.564472 0.117404 0.53407
585 1 0.807747 0.492108 0.54861
586 2 0.761554 0.60033 0.458527
587 2 0.608504 0.0081942 0.783816
588 2 0.498076 0.331428 0.700936
589 1 0.710106 0.403333 0.855023
590 1 0.481973 0.264051 0.127571
591 1 0.566295 0.0300603 0.7392
592 2 0.0860181 0.36421 0.748801
593 2 0.632557 0.048453 0.779566
594 1 0.912583 0.598593 0.323142
595 1 0.330763 0.456175 0.600439
596 2 0.235399 0.501665 0.710192
597 1 0.450945 0.817504 0.04602
598 2 0.183558 0.360098 0.701011
599 2 0.809462 0.56231 0.537774
600 2 0.449402 0.6093 0.751223
601 2 0.802393 0.558146 0.479624
602 1 0.483488 0.247035 0.833078
603 2 0.657937 0.989783 0.975915
604 1 0.13348 0.214383 0.620765
605 2 0.888846 0.962229 0.321087
606 2 0.473091 0.0831687 0.389117
607 1 0.820843 0.568253 0.177608
608 2 0.902622 0.230671 0.225445
609 2 0.690929 0.611089 0.305391
610 2 0.751931 0.597218 0.49633
611 2 0.654301 0.0264717 0.827968
612 1 0.917078 0.254351 0.694285
613 2 0.634869 0.62121 0.277066
614 1 0.419774 0.751062 0.559985
615 2 0.281648 0.580056 0.122476
616 1 0.492883 0.915916 0.760818
617 2 0.626534 0.972121 0.828666
618 2 0.0986493 0.0255384 0.101241
619 2 0.777611 0.247285 0.310035
620 2 0.213845 0.506963 0.339385
621 2 0.935414 0.0808438 0.935479
622 2 0.795674 0.562916 0.453157
623 1 0.695836 0.221616 0.162121
624 2 0.217845 0.844056 0.0718057
625 2 0.28132 0.57406 0.722706
626 2 0.771936 0.503798 0.0821089
627 2 0.594743 0.960277 0.805929
628 2 0.177651 0.900769 0.618583
629 2 0.484606 0.100601 0.240952
630 1 0.0893741 0.07399 0.519509
631 2 0.121137 0.169425 0.466039
632 2 0.746321 0.56796 0.479948
633 2 0.238831 0.60454 0.47946
634 2 0.265868 0.320336 0.227272
635 2 0.462719 0.454003 0.675037
636 2 0.866716 0.957343 0.758751
637 2 0.64315 0.968448 0.763455
638 1 0.549933 0.104229 0.291484
639 2 0.613257 0.0314919 0.848203
640 2 0.585287 0.454538 0.983435
641 2 0.802556 0.576106 0.468234
642 2 0.0174988 0.900307 0.176982
643 2 0.817487 0.157462 0.593219
644 2 0.338215 0.827422 0.113463
645 1 0.706201 0.391939 0.958622
646 2 0.755406 0.104264 0.596749
647 1 0.964749 0.436724 0.329816
648 2 0.500825 0.130401 0.543141
649 2 0.775549 0.591332 0.48414
650 2 0.0848366 0.859337 0.189028
651 2 0.09847 0.939693 0.719608
652 2 0.730433 0.813463 0.10735
653 2 0.794856 0.616421 0.514103
654 1 0.63916 0.582197 0.632447
655 2 0.813178 0.920871 0.335427
656 2 0.697825 0.598663 0.855135
657 2 0.0910537 0.511732 0.254179
658 2 0.790002 0.483862 0.492151
659 2 0.494976 0.0435829 0.117916
660 2 0.273651 0.722737 0.958263
661 1 0.0980484 0.687256 0.156113
662 2 0.979964 0.471709 0.82079
663 2 0.118971 0.77057 0.100439
664 1 0.180185 0.218543 0.887192
665 2 0.362472 0.842088 0.455664
666 2 0.804746 0.56285 0.0331034
667 2 0.260204 0.801971 0.883136
668 2 0.653694 0.0316771 0.802727
669 2 0.846732 0.000732639 0.243338
670 1 0.00920973 0.317179 0.697273
671 2 0.924225 0.0816612 0.555515
672 1 0.729736 0.535663 0.437214
673 2 0.614391 0.677318 0.184808
674 2 0.424406 0.684712 0.435872
675 2 0.33128 0.753165 0.552216
676 1 0.442341 0.182865 0.418343
677 2 0.407695 0.859716 0.743583
678 2 0.637129 0.016173 0.844438
679 1 0.934642 0.933386 0.978966
680 2 0.158994 0.0157244 0.137009
681 1 0.0291654 0.674722 0.136339
682 1 0.171041 0.648048 0.283431
683 2 0.49886 0.416815 0.476407
684 2 0.528437 0.362938 0.90595
685 2 0.317888 0.480336 0.325543
686 2 0.0400373 0.754572 0.879361
687 1 0.647531 0.890204 0.817894
688 2 0.659932 0.944524 0.141423
689 2 0.749175 0.557653 0.534226
690 2 0.158823 0.89511 0.892063
691 2 0.0717628 0.965961 0.721849
692 1 0.628911 0.0107708 0.709228
693 2 0.480313 0.374626 0.0772158
694 2 0.74795 0.403754 0.737749
695 1 0.131824 0.464945 0.603498
696 2 0.534439 0.898578 0.220544
697 2 0.787116 0.733583 0.0856312
698 2 0.812251 0.546306 0.562043
699 2 0.101132 0.920173 0.0150418
700 1 0.918293 0.16036 0.207768
701 2 0.759315 0.528835 0.475577
702 2 0.363041 0.0268573 0.36502
703 2 0.662195 0.903428 0.427287
704 2 0.000919286 0.71281 0.173271
705 2 0.702828 0.243482 0.322401
706 2 0.783666 0.548343 0.5442
707 2 0.206165 0.351611 0.970465
708 1 0.773991 0.472944 0.514337
709 2 0.859819 0.38815 0.944876
710 2 0.834016 0.108313 0.368519
711 2 0.525803 0.166979 0.295363
712 1 0.647592 0.946678 0.464366
713 2 0.730923 0.561253 0.470418
714 1 0.788222 0.501832 0.470562
715 2 0.00536818 0.890806 0.91722
716 1 0.901879 0.234601 0.0867494
717 2 0.630491 0.977393 0.775278
718 2 0.394291 0.166968 0.322328
719 2 0.812769 0.530974 0.500872
720 2 0.713843 0.838816 0.348534
721 2 0.771757 0.378472 0.255012
722 1 0.370728 0.555666 0.183062
723 2 0.730272 0.940374 0.472392
724 2 0.580629 0.964141 0.774821
725 2 0.0800289 0.108338 0.446073
726 2 0.644416 0.653166 0.563507
727 1 0.824031 0.251616 0.587215
728 1 0.197475 0.109551 0.421484
729 1 0.627209 0.0583804 0.839075
730 1 0.482602 0.380859 0.984473
731 2 0.341649 0.624841 0.547813
732 1 0.0841199 0.553617 0.753839
733 2 0.0595505 0.888552 0.166502
734 2 0.302022 0.805119 0.73194
735 2 0.359473 0.909528 0.0347748
736 1 0.586889 0.970657 0.715636
737 2 0.0501607 0.386804 0.305912
738 2 0.386036 0.263681 0.766395
739 2 0.299881 0.761397 0.792003
740 2 0.509162 0.095753 0.662318
741 2 0.646977 0.982478 0.81068
742 1 0.708193 0.858041 0.826642
743 2 0.50957 0.866644 0.252239
744 2 0.421419 0.433045 0.747479
745 2 0.979526 0.678636 0.120717
746 1 0.667264 0.736112 0.395019
747 2 0.256203 0.167837 0.392349
748 2 0.575393 0.550368 0.925046
749 2 0.773381 0.510868 0.523025
750 2 0.151135 0.128834 0.612907
751 2 0.569122 0.984083 0.757937
752 2 0.802759 0.220541 0.613101
753 2 0.291105 0.446535 0.33655
754 2 0.854728 0.133703 0.4258
755 2 0.897168 0.525229 0.0308991
756 2 0.47593 0.0221991 0.438509
757 2 0.724003 0.595283 0.544574
758 2 0.606759 0.444504 0.883299
759 2 0.379685 0.27529 0.381945
760 1 0.722121 0.329674 0.836208
761 2 0.351027 0.144551 0.668934
762 2 0.964693 0.910838 0.828271
763 1 0.575395 0.145803 0.378323
764 2 0.663752 0.111645 0.401836
765 2 0.177734 0.412378 0.626929
766 2 0.786529 0.632946 0.0521539
767 2 0.470849 0.906029 0.190863
768 2 0.470358 0.375798 0.783895
769 2 0.382712 0.151206 0.148312
770 2 0.506131 0.231384 0.542166
771 2 0.347362 0.627192 0.869718
772 2 0.624993 0.976893 0.660168
773 1 0.732441 0.638599 0.551191
774 2 0.22513 0.365465 0.492003
775 2 0.967542 0.563233 0.773492
776 2 0.598807 0.422429 0.72569
777 1 0.636431 0.0724445 0.742944
778 2 0.75374 0.518327 0.516971
779 2 0.605353 0.821782 0.693586
780 1 0.744635 0.601553 0.424605
781 2 0.834209 0.2562 0.527781
782 2 0.931183 0.965113 0.790189
783 1 0.686206 0.0139259 0.712791
784 2 0.996339 0.559668 0.821994
785 2 0.409944 0.667393 0.868965
786 1 0.774471 0.571471 0.583006
787 2 0.410043 0.475461 0.865816
788 2 0.455433 0.794032 0.611254
789 2 0.484422 0.211064 0.391593
790 2 0.00720562 0.697269 0.0538585
791 1 0.399852 0.091561 0.505017
792 2 0.433092 0.25904 0.239099
793 2 0.91879 0.399597 0.591759
794 2 0.249393 0.887985 0.439947
795 2 0.481576 0.178942 0.948011
796 2 0.875998 0.550329 0.727201
797 2 0.646323 0.587654 0.48033
798 2 0.668557 0.573156 0.880273
799 2 0.410084 0.911138 0.291133
800 2 0.891795 0.15047 0.131257
801 2 0.354249 0.839899 0.977829
802 2 0.791724 0.671223 0.917867
803 2 0.187951 0.996553 0.638916
804 2 0.0540268 0.480895 0.323547
805 2 0.218683 0.0538701 0.40768
806 1 0.537666 0.658203 0.202095
807 2 0.413876 0.755334 0.0759977
808 2 0.21079 0.422334 0.853036
809 1 0.854015 0.59281 0.486923
810 2 0.316505 0.116628 0.892392
811 2 0.58938 0.19721 0.237095
812 2 0.697273 0.546647 0.54665
813 1 0.319724 0.203511 0.667633
814 2 0.940252 0.165475 0.462139
815 2 0.762367 0.558708 0.40147
816 1 0.69497 0.579214 0.456182
817 1 0.595986 0.0782487 0.780848
818 2 0.855637 0.0588495 0.304669
819 1 0.7829 0.645368 0.53336
820 1 0.629091 0.946215 0.686696
821 2 0.626084 0.033212 0.793899
822 2 0.62786 0.970018 0.807231
823 1 0.0848974 0.245663 0.966977
824 2 0.962426 0.489346 0.76035
825 2 0.754641 0.569551 0.505811
826 2 0.938016 0.473506 0.111439
827 1 0.969223 0.0144895 0.214725
828 2 0.294591 0.91078 0.820178
829 2 0.770596 0.520231 0.495836
830 2 0.259749 0.207121 0.642156
831 1 0.401415 0.315149 0.82653
832 2 0.287413 0.986189 0.180939
833 1 0.259751 0.662125 0.344154
834 2 0.895602 0.5129 0.663118
835 2 0.790943 0.0892629 0.158087
836 2 0.74938 0.206718 0.861614
837 2 0.987229 0.225737 0.273136
838 2 0.695139 0.606409 0.050084
839 2 0.254291 0.126251 0.359285
840 2 0.656948 0.920468 0.781214
841 2 0.323431 0.298691 0.0849339
842 2 0.0452903 0.808067 0.876689
843 2 0.605803 0.0535111 0.482109
844 2 0.503879 0.0358874 0.285712
845 2 0.133601 0.807929 0.57654
846 2 0.384784 0.624678 0.136801
847 2 0.103789 0.909579 0.891753
848 2 0.55145 0.76909 0.760892
849 1 0.834258 0.384845 0.180267
850 2 0.169403 0.437262 0.34652
851 2 0.625129 0.00846179 0.81452
852 2 0.29502 0.357052 0.776966
853 1 0.471631 0.717243 0.951134
854 2 0.848928 0.312025 0.552618
855 2 0.824382 0.169864 0.176001
856 2 0.980118 0.573031 0.258122
857 2 0.421597 0.274971 0.131352
858 2 0.988282 0.740461 0.558815
859 2 0.908327 0.807293 0.461551
860 2 0.958785 0.0969408 0.183105
861 2 0.6797 0.265342 0.144507
862 2 0.317822 0.520715 0.114903
863 2 0.514892 0.529344 0.332093
864 2 0.702308 0.155029 0.877559
865 2 0.0231047 0.252643 0.527631
866 2 0.730683 0.577632 0.504563
867 2 0.263444 0.617852 0.481384
868 2 0.536501 0.451959 0.0337175
869 2 0.115043 0.375184 0.545022
870 2 0.15966 0.673914 0.736068
871 2 0.683118 0.515707 0.907112
872 2 0.658383 0.938879 0.779523
873 2 0.477287 0.757376 0.369017
874 2 0.872959 0.515475 0.494767
875 2 0.611057 0.212253 0.331389
876 2 0.891575 0.92986 0.21005
877 2 0.888248 0.120684 0.651954
878 2 0.984502 0.0639797 0.426534
879 2 0.00139224 0.638266 0.300809
880 2 0.117679 0.952809 0.358722
881 2 0.40826 0.910756 0.575685
882 1 0.365386 0.373572 0.0939626
883 1 0.593182 0.984467 0.869577
884 2 0.513574 0.190033 0.358603
885 2 0.860678 0.13018 0.215117
886 2 0.305791 0.83855 0.651198
887 1 0.0144426 0.0514105 0.379587
888 2 0.38533 0.350947 0.2011
889 2 0.147847 0.271818 0.492424
890 1 0.603236 0.362202 0.724029
891 2 0.587737 0.94332 0.55585
892 2 0.768023 0.579632 0.519123
893 2 0.734215 0.260629 0.278502
894 2 0.565882 0.00438788 0.786148
895 1 0.149667 0.429563 0.640718
896 2 0.0673751 0.962536 0.432276
897 2 0.851497 0.272828 0.0857971
898 2 0.618597 0.56095 0.923628
899 2 0.553531 0.864687 0.944944
900 2 0.633153 0.996386 0.781124
901 2 0.968442 0.187876 0.22379
902 2 0.0192508 0.646716 0.386518
903 2 0.662448 0.0497775 0.785428