ITEM: TIMESTEP
64400
ITEM: NUMBER OF ATOMS
1000
ITEM: BOX BOUNDS xy xz yz pp pp pp
0.0000000000000000e+00 1.3572088000000001e+01 0.0000000000000000e+00
0.0000000000000000e+00 1.3572088000000001e+01 0.0000000000000000e+00
0.0000000000000000e+00 1.3572088000000001e+01 0.0000000000000000e+00
ITEM: ATOMS id type xs ys zs
1 2 0.49439 0.226209 0.269549
2 2 0.800991 0.731996 0.629608
3 1 0.553938 0.808475 0.770224
4 2 0.984268 0.966895 0.0293338
5 2 0.635817 0.855749 0.705816
6 1 0.725939 0.876942 0.712722
7 2 0.60092 0.83116 0.788969
8 2 0.754892 0.781688 0.653695
9 2 0.573505 0.340311 0.453589
10 2 0.684422 0.825844 0.693693
11 2 0.802661 0.733622 0.710113
12 2 0.639954 0.801862 0.778547
13 2 0.808066 0.76373 0.665766
14 1 0.773305 0.67725 0.642297
15 2 0.829659 0.796528 0.666734
16 2 0.1651 0.701294 0.619525
17 1 0.788453 0.847976 0.625674
18 2 0.793668 0.771629 0.652818
19 2 0.102206 0.136137 0.714288
20 2 0.618873 0.788548 0.721868
21 2 0.677248 0.798041 0.730434
22 2 0.428878 0.998609 0.0885127
23 2 0.343797 0.258666 0.180464
24 2 0.783001 0.72214 0.661022
25 1 0.847392 0.798117 0.186092
26 2 0.801184 0.786359 0.629277
27 2 0.620044 0.839042 0.786697
28 2 0.667033 0.842337 0.764594
29 2 0.884518 0.781562 0.00663392
30 2 0.586397 0.84245 0.737153
31 1 0.620907 0.744047 0.741234
32 1 0.702666 0.890918 0.754769
33 1 0.711554 0.784494 0.719003
34 2 0.780036 0.727394 0.683822
35 2 0.844649 0.733275 0.629386
36 1 0.669424 0.790764 0.669508
37 2 0.818816 0.772721 0.691853
38 2 0.639466 0.845353 0.715295
39 2 0.361128 0.5556 0.282014
40 2 0.647745 0.801214 0.753802
41 2 0.638268 0.837345 0.739035
42 2 0.656635 0.867833 0.752874
43 2 0.138932 0.0497835 0.0252448
44 2 0.796312 0.198401 0.806031
45 2 0.830257 0.790533 0.693654
46 1 0.500887 0.0807512 0.250022
47 2 0.860079 0.751451 0.684786
48 2 0.667583 0.823206 0.706097
49 2 0.889037 0.327999 0.0225911
50 2 0.808106 0.743803 0.697425
51 2 0.405603 0.663907 0.338457
52 2 0.67907 0.680278 0.478065
53 2 0.285116 0.0733076 0.0830377
54 2 0.680718 0.841602 0.680966
55 1 0.791572 0.669824 0.742145
56 1 0.666929 0.826783 0.643593
57 2 0.619018 0.79237 0.752357
58 2 0.59736 0.818364 0.730088
59 2 0.850898 0.802587 0.638547
60 2 0.613321 0.8749 0.697031
61 2 0.328626 0.636339 0.198902
62 2 0.634937 0.850613 0.686631
63 2 0.808308 0.731483 0.620108
64 2 0.774536 0.788433 0.687441
65 2 0.775249 0.797234 0.631914
66 1 0.886778 0.825219 0.651821
67 2 0.583054 0.833023 0.747432
68 2 0.642732 0.84496 0.750793
69 1 0.66582 0.934479 0.710753
70 2 0.82446 0.795438 0.646695
71 1 0.639975 0.864211 0.653679
72 2 0.858666 0.739332 0.65807
73 2 0.622092 0.837072 0.712336
74 2 0.640347 0.828839 0.712022
75 2 0.223229 0.226831 0.115434
76 2 0.62688 0.825425 0.714448
77 1 0.935228 0.80238 0.694029
78 2 0.806735 0.186221 0.630197
79 2 0.603577 0.881007 0.753453
80 2 0.152056 0.229256 0.38479
81 2 0.617569 0.818032 0.689513
82 2 0.768557 0.796487 0.638823
83 2 0.641251 0.888014 0.748578
84 2 0.63845 0.819982 0.723751
85 1 0.662999 0.751766 0.710502
86 2 0.79283 0.778032 0.615667
87 2 0.663942 0.845724 0.689898
88 2 0.840193 0.772589 0.60259
89 2 0.635809 0.823695 0.774254
90 2 0.655091 0.830903 0.785104
91 2 0.276584 0.0919163 0.384096
92 2 0.836037 0.776351 0.642517
93 2 0.75517 0.763996 0.680754
94 1 0.19004 0.837278 0.778531
95 2 0.96779 0.281157 0.892776
96 2 0.654314 0.861152 0.738085
97 2 0.831952 0.718839 0.671629
98 2 0.834199 0.749867 0.659179
99 2 0.462758 0.836274 0.405869
100 2 0.556186 0.687569 0.83952
101 1 0.424481 0.327224 0.595466
102 2 0.185464 0.945578 0.873624
103 2 0.845099 0.721132 0.667932
104 2 0.60029 0.798762 0.75287
105 2 0.762899 0.770125 0.64485
106 2 0.526899 0.0197231 0.195153
107 2 0.705265 -0.00469642 0.427094
108 2 0.833316 0.784607 0.605003
109 2 0.811564 0.757979 0.63604
110 2 0.643883 0.807091 0.743416
111 2 0.817565 0.17401 0.528405
112 1 0.788518 0.777411 0.569791
113 1 0.728841 0.791892 0.671769
114 2 0.843611 0.738114 0.689197
115 2 0.876109 0.802774 0.973489
116 2 0.828331 0.746782 0.695443
117 2 0.636041 0.35849 0.0350721
118 2 0.777383 0.751944 0.670711
119 2 0.831921 0.045172 0.271167
120 2 0.806791 0.788737 0.653128
121 2 0.61865 0.814546 0.739575
122 2 0.651962 0.829063 0.686061
123 2 0.823609 0.780477 0.663101
124 2 0.778029 0.796765 0.615345
125 1 0.897584 0.772717 0.640317
126 2 0.601983 0.826043 0.696194
127 2 0.804587 0.788225 0.691339
128 2 0.690475 0.856298 0.711575
129 1 0.223742 0.908188 0.984302
130 2 0.46117 0.564785 0.490771
131 2 0.682301 0.85916 0.72792
132 2 0.66599 0.819462 0.712241
133 2 0.814408 0.730287 0.654237
134 2 0.31658 0.716655 0.274391
135 2 0.657838 0.856269 0.774073
136 2 0.855193 0.793417 0.67271
137 1 0.57833 0.960765 0.656824
138 2 0.642218 0.812619 0.720697
139 2 0.679856 0.856161 0.710279
140 1 0.725361 0.734843 0.585454
141 2 0.780691 0.819245 0.64549
142 2 0.799477 0.821784 0.667352
143 2 0.20369 0.0246005 0.425679
144 2 0.855578 0.715803 0.809592
145 2 0.846073 0.743866 0.604757
146 2 0.579307 0.806522 0.73825
147 1 0.350538 0.917315 0.344623
148 1 0.737597 0.736254 0.628257
149 2 0.663688 0.779291 0.709895
150 1 0.827073 0.677411 0.683165
151 2 0.627871 0.825968 0.698612
152 2 0.817273 0.769138 0.647876
153 1 0.770817 0.847709 0.666201
154 1 0.36939 0.478909 0.220372
155 2 0.847175 0.736933 0.645329
156 2 0.85891 0.805099 0.65539
157 2 0.858897 0.777571 0.630539
158 2 0.417307 0.934627 0.468668
159 2 0.657341 0.85816 0.751997
160 2 0.653664 0.831951 0.700656
161 2 0.619425 0.787249 0.742976
162 2 0.657604 0.84694 0.74069
163 2 0.633009 0.789823 0.743364
164 2 0.83959 0.726667 0.680527
165 2 0.842541 0.815922 0.633795
166 2 0.642295 0.845436 0.689215
167 2 0.476269 0.215456 0.0678432
168 2 0.682745 0.811071 0.74524
169 2 0.246354 0.888034 0.519601
170 2 0.747676 0.690694 0.478738
171 2 0.81891 0.764222 0.607935
172 2 0.135624 0.541874 0.441127
173 1 0.711708 0.753854 0.657236
174 2 0.68736 0.831356 0.706678
175 2 0.960991 0.26886 0.282101
176 2 0.60409 0.811312 0.747562
177 1 0.225543 0.0561617 0.949215
178 2 0.610384 0.443353 0.141722
179 2 0.961208 0.893102 0.0441063
180 2 0.812196 0.748716 0.640872
181 2 0.676534 0.858812 0.736946
182 2 0.690391 0.873079 0.73025
183 2 0.343167 0.556083 0.133072
184 2 0.660873 0.850067 0.716045
185 2 0.808308 0.751161 0.688983
186 2 0.803513 0.755839 0.666194
187 2 0.922617 0.101054 0.209074
188 1 0.637984 0.875562 0.800821
189 2 0.647373 0.815603 0.704495
190 2 0.830636 0.789809 0.652088
191 2 0.673067 0.867672 0.756136
192 2 0.622637 0.86239 0.697629
193 2 0.654611 0.849179 0.700176
194 2 0.78887 0.399797 0.216639
195 2 0.625905 0.79114 0.705928
196 2 0.579532 0.801383 0.72156
197 2 0.844843 0.755925 0.651489
198 2 0.872373 0.321073 0.122667
199 2 0.46894 0.80623 0.20575
200 1 0.888059 0.76444 0.685868
201 2 0.694427 0.826336 0.734809
202 2 0.778974 0.426427 0.794424
203 2 0.608299 0.836537 0.714019
204 2 0.627524 0.843763 0.766905
205 2 0.634017 0.877712 0.737814
206 2 0.610919 0.812084 0.77522
207 2 0.879304 0.827298 0.908861
208 2 0.655682 0.872402 0.767301
209 2 0.814477 0.759297 0.651433
210 2 0.818824 0.750017 0.636694
211 2 0.496234 0.565096 0.747533
212 1 0.710592 0.845456 0.681673
213 2 0.797011 0.743141 0.676611
214 2 0.756424 0.776088 0.697518
215 2 0.790454 0.715818 0.636701
216 2 0.625788 0.800141 0.720383
217 2 0.62381 0.828466 0.733845
218 2 0.637474 0.974351 0.75782
219 2 0.658552 0.870544 0.727884
220 2 0.809093 0.757416 0.710309
221 2 0.792763 0.793331 0.618054
222 2 0.894414 0.836083 0.155731
223 2 0.793033 0.725949 0.659103
224 2 0.630285 0.844294 0.731252
225 1 0.869146 0.812636 0.694641
226 2 0.624984 0.806147 0.711376
227 2 0.602638 0.800544 0.702281
228 2 0.815305 0.821965 0.642122
229 2 0.614931 0.821047 0.752178
230 1 0.859733 0.845849 0.630712
231 2 0.684217 0.811293 0.708234
232 2 0.815793 0.779871 0.643102
233 1 0.778009 0.687234 0.673124
234 2 0.872097 0.745653 0.662879
235 2 0.805172 0.728601 0.67365
236 2 0.680145 0.865311 0.695978
237 2 0.943402 0.270216 0.889325
238 1 0.465383 0.264394 0.643352
239 1 0.763334 0.715956 0.616221
240 2 0.809049 0.743713 0.666177
241 2 0.585296 0.815892 0.725367
242 1 0.92655 0.741072 0.66338
243 1 0.873736 0.714909 0.628574
244 2 0.852486 0.770973 0.649162
245 2 0.394791 0.888636 0.486704
246 1 0.664041 0.814102 0.809179
247 2 0.830917 0.76301 0.698955
248 2 0.628874 0.875031 0.742187
249 2 0.599843 0.867955 0.754772
250 2 0.620325 0.869004 0.749102
251 2 0.623508 0.801763 0.778699
252 2 0.0734301 0.0483094 0.493158
253 2 0.44642 0.507498 0.902686
254 2 0.678144 0.845826 0.737801
255 2 0.659419 0.803319 0.775326
256 2 0.654122 0.825838 0.740114
257 2 0.650855 0.883707 0.730721
258 2 0.869563 0.773507 0.648278
259 1 0.534576 0.994104 0.212839
260 2 0.783587 0.753969 0.639152
261 1 0.664187 0.780341 0.796273
262 2 0.453396 0.219398 0.173043
263 2 0.805247 0.795319 0.670507
264 2 0.929491 0.436768 0.681239
265 1 0.696906 0.767498 0.688187
266 2 0.81998 0.785255 0.6937
267 2 0.675227 0.794936 0.715823
268 1 0.560374 0.770732 0.695721
269 1 0.231235 0.96531 0.388092
270 2 0.76939 0.123017 0.148586
271 2 0.469132 0.191935 0.577244
272 2 0.59512 0.892969 0.739732
273 1 0.808801 0.859306 0.672009
274 2 0.781186 0.787918 0.640449
275 2 0.785765 0.744555 0.623942
276 2 0.640452 0.820073 0.738314
277 2 0.822073 0.747657 0.662636
278 2 0.038877 0.603606 0.240765
279 2 0.662047 0.886522 0.720434
280 1 0.609154 0.782349 0.679722
281 2 0.796422 0.607752 0.266653
282 2 0.637439 0.801064 0.737211
283 2 0.74311 0.264188 0.846227
284 1 0.725818 0.830208 0.711928
285 2 0.650927 0.858974 0.77073
286 2 0.630758 0.801284 0.696717
287 1 0.73876 0.263615 0.143895
288 2 0.654069 0.83225 0.721234
289 2 0.790972 0.788444 0.672917
290 2 0.765335 0.774906 0.618262
291 2 0.808612 0.813113 0.642374
292 2 0.467291 0.0467877 0.676009
293 2 0.792741 0.749561 0.656024
294 2 0.789584 0.750441 0.687298
295 2 0.819481 0.756492 0.701923
296 2 0.858352 0.284302 0.25799
297 2 0.613443 0.858496 0.688955
298 2 0.831536 0.778538 0.629473
299 1 0.630281 0.7725 0.780554
300 2 0.634725 0.831902 0.69349
301 2 0.607506 0.840053 0.777543
302 2 0.557039 0.385788 0.956452
303 2 0.624429 0.810008 0.757071
304 1 0.830044 0.0664993 0.110081
305 2 0.657227 0.868291 0.704258
306 2 0.657091 0.873515 0.775791
307 2 0.610624 0.631718 0.0281458
308 2 0.399058 0.950551 0.976898
309 2 0.771863 0.728247 0.677635
310 2 0.776783 0.775507 0.659209
311 2 0.849958 0.787153 0.639793
312 2 0.608374 0.841134 0.753338
313 2 0.783047 0.799708 0.693379
314 2 0.929669 0.0529139 0.435368
315 2 0.84178 0.762413 0.67833
316 2 0.796333 0.730635 0.692558
317 2 0.654178 0.814601 0.729604
318 2 0.971304 0.459 0.835205
319 2 0.767393 0.76854 0.648919
320 2 0.812531 0.765688 0.678907
321 2 0.819289 0.824446 0.665301
322 2 0.819155 0.816335 0.676754
323 2 0.878107 0.333761 0.52327
324 2 0.455021 0.826096 0.305759
325 2 0.788116 0.780057 0.640015
326 2 0.633963 0.88422 0.722555
327 2 0.661008 0.796086 0.760793
328 2 0.787957 0.762743 0.683027
329 1 0.889736 0.0969449 0.706228
330 2 0.794846 0.758208 0.622287
331 2 0.821647 0.769112 0.662619
332 2 0.669325 0.850731 0.730482
333 2 0.787838 0.894703 0.768012
334 2 0.634686 0.862567 0.719917
335 1 0.192799 0.502584 0.910234
336 2 0.768251 0.738999 0.676095
337 2 0.818918 0.414407 0.724396
338 1 0.575408 0.852066 0.660697
339 2 0.823053 0.778992 0.68233
340 2 0.720494 0.838271 0.735997
341 2 0.666555 0.881465 0.70604
342 2 0.816051 0.780172 0.664812
343 2 0.844376 0.784187 0.663167
344 1 0.687435 0.925194 0.786416
345 1 0.767974 0.747026 0.591842
346 1 0.684153 0.853953 0.656727
347 1 0.630387 0.424793 0.955604
348 2 0.942075 0.736001 0.78611
349 2 0.602027 0.786599 0.115924
350 2 0.973778 0.262615 0.86772
351 2 0.801107 0.807369 0.633936
352 2 0.385325 0.0276665 0.273323
353 1 0.87886 0.736273 0.552659
354 1 0.480978 0.995926 0.168343
355 2 0.32637 0.580532 0.303908
356 2 0.830641 0.806596 0.659533
357 2 0.289898 0.705582 0.30871
358 2 0.641911 0.696409 0.414802
359 2 0.513804 0.151199 0.467424
360 2 0.659683 0.819515 0.729904
361 1 0.624041 0.906116 0.799967
362 2 0.0644821 0.147462 0.412694
363 1 0.720091 0.883902 0.800511
364 2 0.661649 0.872988 0.745333
365 2 0.798115 0.73043 0.64612
366 2 0.79137 0.809419 0.650526
367 1 0.575209 0.623864 0.826859
368 1 0.58473 0.911754 0.712545
369 2 0.484544 0.274948 0.766255
370 2 0.309931 0.809636 0.990239
371 2 0.821072 0.749031 0.620221
372 1 0.823454 0.847563 0.587582
373 2 0.978199 0.679001 0.603548
374 2 0.958505 0.597794 0.774831
375 2 0.659095 0.847336 0.783604
376 2 0.650334 0.812734 0.752233
377 2 0.982739 0.289003 0.914743
378 2 0.659282 0.805479 0.721703
379 2 0.853421 0.763627 0.638175
380 2 0.651242 0.803973 0.732628
381 2 0.621591 0.838726 0.750779
382 2 0.442309 0.403182 0.088457
383 2 0.630609 0.785439 0.728163
384 1 0.0122775 0.449412 0.609882
385 2 0.759874 0.785711 0.631141
386 2 0.0881285 0.380881 0.205409
387 1 0.851805 0.870313 0.0172413
388 2 0.638281 0.859664 0.728607
389 2 0.83407 0.784887 0.679993
390 2 0.609369 0.878415 0.714323
391 2 0.67157 0.800578 0.704353
392 1 0.764755 0.768536 0.744841
393 2 0.927414 0.311035 0.868784
394 2 0.615155 0.804801 0.756803
395 2 0.685034 0.844275 0.75016
396 2 0.641938 0.873391 0.726488
397 2 0.794778 0.743244 0.624807
398 1 0.619719 0.541989 0.661704
399 1 0.788202 0.694296 0.707754
400 1 0.987126 0.632151 0.384461
401 2 0.621189 0.843222 0.686394
402 2 0.571339 0.77426 0.914206
403 2 0.696834 0.879591 0.650816
404 2 0.812316 0.758641 0.625841
405 2 0.378796 0.919937 0.152716
406 2 0.693375 0.808072 0.729399
407 2 0.610717 0.0289283 0.773905
408 2 0.800846 0.771438 0.642146
409 2 0.60159 0.860184 0.738988
410 2 0.789208 0.743354 0.705935
411 2 0.832372 0.498956 0.513145
412 2 0.129722 0.671033 0.734416
413 2 0.798828 0.766772 0.622943
414 2 0.797024 0.712502 0.60767
415 2 0.660332 0.826881 0.704352
416 1 0.751667 0.809046 0.610864
417 2 0.903128 0.0431229 0.66369
418 2 0.657959 0.818153 0.743829
419 2 0.68363 0.861853 0.747979
420 2 0.292324 0.351345 0.253899
421 1 0.694469 0.901682 0.712126
422 1 0.654102 0.748085 0.762957
423 2 0.623333 0.801027 0.737502
424 2 0.606494 0.842581 0.734474
425 1 0.673142 0.899615 0.681351
426 2 0.396459 0.375486 0.668733
427 2 0.31052 0.176248 0.970698
428 2 0.204768 0.347128 0.121382
429 2 0.595194 0.857098 0.737279
430 2 0.795729 0.803491 0.683237
431 2 0.779771 0.754982 0.617486
432 1 0.717567 0.819831 0.79023
433 2 0.556193 0.669067 0.857947
434 1 0.0735242 0.264362 0.593436
435 2 0.723513 0.455641 0.0527673
436 2 0.800571 0.712896 0.645847
437 2 0.767673 0.169059 0.14736
438 2 0.285025 0.502315 0.389189
439 1 0.57088 0.772306 0.740925
440 2 0.793227 0.789106 0.647096
441 1 0.59628 0.0359507 0.994173
442 1 0.882859 0.720433 0.673535
443 1 0.920073 0.151565 0.970643
444 2 0.824652 0.746688 0.65046
445 2 0.908623 0.13818 0.915512
446 2 0.702722 0.795299 0.644488
447 2 0.827239 0.75766 0.634539
448 2 0.507996 0.376592 0.414427
449 1 0.762334 0.64539 0.0452641
450 2 0.75956 0.758564 0.661114
451 2 0.672341 0.799392 0.745201
452 2 0.629576 0.820501 0.785372
453 1 0.793742 0.805938 0.731385
454 2 0.787328 0.814519 0.628924
455 2 0.544992 0.431418 0.714114
456 2 0.689898 0.636689 0.988497
457 2 0.680501 0.812645 0.720239
458 2 0.614907 0.813025 0.720688
459 2 0.638152 0.840511 0.773176
460 2 0.846674 0.750885 0.630464
461 2 0.174904 0.171406 0.616783
462 2 0.803994 0.741658 0.657441
463 1 0.721584 0.79263 0.56183
464 2 0.416476 0.0841216 0.47517
465 2 0.612515 0.850092 0.724175
466 2 0.829117 0.741778 0.627913
467 1 0.691479 0.844981 0.804075
468 2 0.675081 0.39076 0.519005
469 2 0.843721 0.805231 0.685111
470 2 0.650631 0.822714 0.757375
471 2 0.813338 0.712941 0.678445
472 2 0.823097 0.766947 0.658349
473 1 0.816424 0.834166 0.717901
474 1 0.739014 0.328165 0.153212
475 1 0.238715 0.461136 0.817116
476 2 0.637382 0.847258 0.781891
477 2 0.609198 0.836735 0.697021
478 2 0.813455 0.795609 0.64597
479 2 0.650114 0.317995 0.478017
480 2 0.65518 0.881502 0.701696
481 2 0.858468 0.772847 0.677153
482 2 0.862683 0.0641519 0.668686
483 2 0.810511 0.769221 0.620429
484 1 0.798439 0.744903 0.56861
485 1 0.710056 0.788582 0.809695
486 2 0.747762 0.751374 0.655849
487 2 0.778665 0.647555 0.658161
488 2 0.835029 0.76032 0.671552
489 2 0.822109 0.712521 0.624023
490 2 0.821592 0.80648 0.636872
491 2 0.759923 0.74634 0.665115
492 2 0.827484 0.77497 0.705034
493 2 0.844411 0.773787 0.626359
494 2 0.633374 0.856665 0.739179
495 2 0.598748 0.813833 0.76404
496 2 0.835517 0.783755 0.624271
497 2 0.491251 0.424838 0.0420899
498 1 0.824244 0.701654 0.71893
499 2 0.657572 0.822638 0.71918
500 2 0.814758 0.739673 0.603211
501 1 0.728318 0.736996 0.684546
502 2 0.796364 0.754503 0.64223
503 2 0.799775 0.801925 0.645664
504 1 0.609019 0.840401 0.658589
505 2 0.818847 0.821722 0.642144
506 2 0.813033 0.756824 0.65845
507 2 0.670529 0.88519 0.735755
508 2 0.631808 0.835853 0.717013
509 1 0.640909 0.837142 0.824678
510 2 0.774824 0.766424 0.612021
511 2 0.588707 0.867869 0.738862
512 2 0.78424 0.766545 0.675793
513 1 0.298085 0.682298 0.361497
514 2 0.611715 0.864171 0.705433
515 1 0.605354 0.757349 0.715021
516 2 0.639408 0.870651 0.705656
517 1 0.729485 0.772642 0.610864
518 2 0.828616 0.73789 0.661442
519 2 0.65189 0.858244 0.715056
520 2 0.627282 0.887864 0.71102
521 2 0.671804 0.296033 0.504619
522 2 0.671711 0.859541 0.892065
523 2 0.762983 0.795236 0.658891
524 2 0.625943 0.854568 0.795934
525 2 0.809117 0.784992 0.678489
526 2 0.184239 0.929868 0.95554
527 2 0.788778 0.804426 0.673091
528 1 0.489377 0.465572 0.669828
529 2 0.85036 0.77909 0.69682
530 2 0.76458 0.798141 0.678523
531 2 0.647484 0.80408 0.696047
532 2 0.692414 0.827356 0.755529
533 2 0.0792828 0.530184 0.247862
534 1 0.608277 0.889133 0.661238
535 2 0.808463 0.77362 0.641892
536 1 0.72847 0.810113 0.642997
537 1 0.643279 0.909421 0.691855
538 2 0.453627 0.950097 0.881962
539 2 0.835517 0.760095 0.657836
540 2 0.423771 0.419687 0.375792
541 1 0.748182 0.707434 0.649075
542 2 0.601836 0.836935 0.76275
543 1 0.159585 0.208226 0.0523586
544 1 0.813472 0.668385 0.647037
545 2 0.873878 0.755232 0.64298
546 2 0.855291 0.778752 0.66676
547 2 0.61523 0.310271 0.140302
548 2 0.67523 0.833352 0.757211
549 2 0.634716 0.787676 0.759056
550 2 0.414327 0.257508 0.203719
551 1 0.84932 0.870335 0.655343
552 2 0.279168 0.874662 0.522587
553 2 0.821955 0.727967 0.684562
554 2 0.667211 0.855263 0.711139
555 1 0.0665489 0.342784 0.985106
556 2 0.972685 0.977692 0.196112
557 2 0.839212 0.773221 0.690605
558 1 0.842857 0.843218 0.686362
559 2 0.818329 0.729602 0.637184
560 2 0.649133 0.864708 0.687113
561 2 0.792629 0.733514 0.663495
562 1 0.858057 0.782518 0.580421
563 2 0.839746 0.79569 0.697764
564 2 0.162473 0.973185 0.059944
565 2 0.770627 0.767123 0.635286
566 2 0.532544 0.0337456 0.854882
567 2 0.832199 0.783832 0.614033
568 2 0.848216 0.773079 0.65805
569 1 0.756982 0.835519 0.637472
570 2 0.860961 0.760879 0.656758
571 2 0.252644 0.332367 0.840788
572 2 0.579007 0.828535 0.719813
573 2 0.840402 0.798571 0.632329
574 2 0.434984 0.808175 0.982691
575 1 0.286152 0.911606 0.456959
576 2 0.835214 0.732428 0.636961
577 2 0.687397 0.83644 0.734982
578 1 0.579998 0.785354 0.783706
579 2 0.673362 0.847039 0.762515
580 1 0.536411 0.868345 0.771046
581 2 0.611821 0.0683337 0.130683
582 2 0.676122 0.837719 0.703158
583 1 0.807327 0.0896933 0.684936
584 2 0.648408 0.851308 0.7545
585 1 0.820828 0.852557 0.633165
586 2 0.79485 0.781241 0.684932
587 2 0.65124 0.813746 0.695955
588 2 0.97295 0.895276 0.346286
589 1 0.744888 0.695941 0.690562
590 1 0.540789 0.812845 0.721796
591 1 0.71343 0.800886 0.753462
592 2 0.959817 0.448145 0.499404
593 2 0.676409 0.836029 0.718851
594 1 0.870666 0.851961 0.119262
595 1 0.808466 0.3941 0.853649
596 2 0.825792 0.100745 0.728365
597 1 0.628749 0.654755 0.0569687
598 2 0.621088 0.859545 0.781845
599 2 0.782804 0.794183 0.645933
600 2 0.707939 0.822708 0.121293
601 2 0.808652 0.810146 0.685629
602 1 0.828326 0.799476 0.566955
603 2 0.758182 0.77409 0.664531
604 1 0.541648 0.269895 0.0942214
605 2 0.357191 0.463742 0.470141
606 2 0.276806 0.801493 0.13613
607 1 0.837466 0.80213 0.730802
608 2 0.0275012 0.247829 0.249223
609 2 0.779886 0.767946 0.61226
610 2 0.847736 0.79132 0.621237
611 2 0.618199 0.832173 0.748438
612 1 0.79191 0.928581 0.282918
613 2 0.486263 1.00516 0.852732
614 1 0.745814 0.122331 0.25529
615 2 0.322906 0.0738296 0.469899
616 1 0.560916 0.819617 0.691728
617 2 0.628059 0.862545 0.731663
618 2 0.806136 0.241105 0.217944
619 2 0.278557 0.957827 0.753474
620 2 0.47765 0.471836 0.722737
621 2 0.811242 0.720828 0.650852
622 2 0.805582 0.71748 0.632169
623 1 0.395866 0.246579 0.131557
624 2 0.647145 0.839147 0.767868
625 2 0.28327 0.407787 0.808136
626 2 0.189898 0.90514 0.305234
627 2 0.647271 0.803588 0.709723
628 2 0.26893 0.0409606 0.330029
629 2 0.946562 0.638504 0.666115
630 1 0.751344 0.824168 0.680851
631 2 0.796442 0.802925 0.606913
632 2 0.793996 0.763917 0.664832
633 2 0.67202 0.791437 0.759319
634 2 0.0827056 0.306428 0.0263135
635 2 0.141183 0.479777 0.881434
636 2 0.626352 0.840727 0.738885
637 2 0.597008 0.788807 0.74041
638 1 0.876066 0.261787 0.364387
639 2 0.629904 0.822502 0.731935
640 2 0.652977 0.80632 0.764961
641 2 0.809885 0.78186 0.611272
642 2 0.814667 0.729108 0.672388
643 2 0.25901 0.907558 0.491745
644 2 0.608974 0.814277 0.707278
645 1 0.718377 0.853165 0.758479
646 2 0.651403 0.839646 0.709074
647 1 0.570147 0.84399 0.778728
648 2 0.209319 0.427605 0.704187
649 2 0.796213 0.748368 0.669181
650 2 0.612285 0.851086 0.750954
651 2 0.852372 0.803282 0.66243
652 2 0.836458 0.761932 0.640996
653 2 0.814478 0.820366 0.691609
654 1 0.865145 0.708267 0.703052
655 2 0.955963 0.901497 0.455786
656 2 0.621478 0.845201 0.697154
657 2 0.255549 0.140639 0.910855
658 2 0.844609 0.796272 0.652705
659 2 0.637875 0.818145 0.710786
660 2 0.290259 0.881099 0.481629
661 1 0.217762 0.543431 0.513765
662 2 0.81745 0.759875 0.684707
663 2 0.63912 0.862459 0.774127
664 1 0.338768 0.917283 0.515883
665 2 0.852332 0.70724 0.238044
666 2 0.64464 0.819704 0.669617
667 2 0.583867 0.860108 0.756536
668 2 0.620437 0.855101 0.732826
669 2 0.420756 0.370023 0.334277
670 1 0.218592 0.925367 0.73335
671 2 0.462095 0.866979 0.451758
672 1 0.836884 0.73441 0.57358
673 2 0.832555 0.74856 0.680455
674 2 0.701216 0.841121 0.724025
675 2 0.70485 0.501851 0.505793
676 1 0.933152 0.154711 0.864775
677 2 0.593929 0.829672 0.761822
678 2 0.636857 0.835937 0.727387
679 1 0.910345 0.015447 0.819234
680 2 0.660352 0.84531 0.72692
681 1 0.804743 0.709304 0.585654
682 1 0.736395 0.76221 0.72091
683 2 0.531321 0.622816 0.948516
684 2 0.145637 0.564148 0.200141
685 2 0.669156 0.831408 0.681562
686 2 0.606374 0.486963 0.604491
687 1 0.598727 0.760473 0.763016
688 2 0.214398 0.72977 0.321348
689 2 0.8276 0.775067 0.674431
690 2 0.783279 0.756579 0.7017
691 2 0.647802 0.876934 0.713432
692 1 0.622205 0.929151 0.723257
693 2 0.824796 0.759948 0.602133
694 2 0.617406 0.833456 0.725301
695 1 0.566395 0.889659 0.74636
696 2 0.196722 0.105898 0.429091
697 2 0.617443 0.448582 0.864398
698 2 0.766616 0.791642 0.697305
699 2 0.793133 0.788621 0.662463
700 1 0.568426 0.820239 0.809794
701 2 0.770033 0.749426 0.700449
702 2 0.686949 0.835975 0.760942
703 2 0.800653 0.703115 0.670304
704 2 0.309915 0.0773493 0.845392
705 2 0.786217 0.785779 0.699802
706 2 0.817737 0.709742 0.65434
707 2 0.0895715 0.282077 0.987042
708 1 0.875283 0.789956 0.724899
709 2 0.789677 0.634285 0.176226
710 2 0.824737 0.751511 0.674974
711 2 0.62406 0.826248 0.688431
712 1 0.884282 0.794004 0.673188
713 2 0.821456 0.766809 0.635103
714 1 0.884358 0.761655 0.595118
715 2 0.611047 0.866089 0.732171
716 1 0.353793 0.481676 0.120138
717 2 0.625568 0.824522 0.760851
718 2 0.643758 0.985623 0.975012
719 2 0.765124 0.758328 0.661305
720 2 0.847329 0.737732 0.660626
721 2 0.66657 0.864684 0.722428
722 1 0.145137 0.247378 0.659514
723 2 0.628647 0.333818 0.00300776
724 2 0.591932 0.842599 0.75044
725 2 0.195268 0.941382 0.145107
726 2 0.779191 0.80553 0.648898
727 1 0.920857 0.195196 0.896305
728 1 0.927257 0.0306181 0.136497
729 1 0.679703 0.87764 0.788151
730 1 0.66447 0.909345 0.745912
731 2 0.81726 0.732879 0.706721
732 1 0.487919 0.637116 0.504088
733 2 0.783414 0.812852 0.608858
734 2 0.616169 0.878672 0.765462
735 2 0.85136 0.771108 0.70018
736 1 0.689585 0.761446 0.776979
737 2 0.640241 0.810114 0.762778
738 2 0.486232 0.974306 0.712044
739 2 0.656559 0.818692 0.776545
740 2 0.798846 0.720411 0.691767
741 2 0.608436 0.853523 0.762338
742 1 0.649128 0.899921 0.640167
743 2 0.808275 0.755245 0.677866
744 2 0.800596 0.742165 0.641606
745 2 0.591282 0.864757 0.721141
746 1 0.755188 0.727401 0.722676
747 2 0.978577 0.123697 0.323241
748 2 0.784974 0.760114 0.657539
749 2 0.816552 0.797532 0.663126
750 2 0.206876 0.167041 0.176491
751 2 0.627786 0.871839 0.762483
752 2 0.606387 0.829412 0.74179
753 2 0.757915 0.828852 0.0110799
754 2 0.232469 0.328281 0.0965319
755 2 0.644582 0.788796 0.728307
756 2 0.812206 0.793482 0.598578
757 2 0.79465 0.77403 0.694477
758 2 0.608829 0.898622 0.710377
759 2 0.612389 0.875489 0.738357
760 1 0.39392 0.729221 0.193856
761 2 0.617266 0.843864 0.76303
762 2 0.639867 0.784486 0.702453
763 1 0.644983 0.860868 0.431674
764 2 0.616325 0.804698 0.740558
765 2 0.595686 0.831049 0.703074
766 2 0.828617 0.817258 0.628382
767 2 0.408643 0.863543 0.677199
768 2 0.644303 0.77973 0.835299
769 2 0.777369 0.79093 0.665192
770 2 0.823503 0.802824 0.672193
771 2 0.106896 0.613662 0.479389
772 2 0.42755 0.579061 0.283032
773 1 0.8365 0.741826 0.731219
774 2 0.336698 0.857444 0.391275
775 2 0.675925 0.345124 0.492927
776 2 0.796589 0.764773 0.609896
777 1 0.555392 0.866361 0.701305
778 2 0.844527 0.824499 0.649158
779 2 0.0679886 0.146345 0.985197
780 1 0.843269 0.705862 0.590225
781 2 0.62623 0.854486 0.717385
782 2 0.82756 0.520354 0.184933
783 1 0.639407 0.752124 0.680766
784 2 0.834996 0.762992 0.620872
785 2 0.819197 0.780309 0.633524
786 1 0.754725 0.802489 0.723743
787 2 0.822765 0.738401 0.686496
788 2 0.844116 0.807805 0.678016
789 2 0.942732 0.0959233 0.887331
790 2 0.615369 0.881744 0.726349
791 1 0.819321 0.771037 0.745668
792 2 0.844746 0.756248 0.710508
793 2 0.384945 0.315183 0.742795
794 2 0.798606 0.750569 0.713369
795 2 0.671733 0.819051 0.730741
796 2 0.419464 0.207652 0.552636
797 2 0.779433 0.764015 0.637856
798 2 0.111566 0.703871 0.444477
799 2 0.642332 0.831124 0.73777
800 2 0.429144 0.469027 0.354704
801 2 0.604922 0.854597 0.702901
802 2 0.60651 0.882504 0.695615
803 2 0.813107 0.793848 0.697753
804 2 0.610341 0.282815 0.262907
805 2 0.415559 0.833873 0.961788
806 1 0.445905 0.0358885 0.0399566
807 2 0.679892 0.80941 0.754367
808 2 0.638584 0.888475 0.763923
809 1 0.793241 0.742783 0.73725
810 2 0.651608 0.787094 0.69876
811 2 0.793592 0.742416 0.612854
812 2 0.795464 0.756653 0.685859
813 1 0.624784 0.575441 0.976467
814 2 0.847704 0.737156 0.677773
815 2 0.793015 0.74103 0.645333
816 1 0.836422 0.687915 0.626126
817 1 0.641973 0.919599 0.766506
818 2 0.838347 0.76242 0.667563
819 1 0.885049 0.797272 0.617533
820 1 0.555994 0.84881 0.733048
821 2 0.589225 0.864909 0.711487
822 2 0.60331 0.857869 0.716991
823 1 0.887974 0.727361 0.606469
824 2 0.728127 0.546291 0.864426
825 2 0.820726 0.809448 0.612689
826 2 0.669414 0.440432 0.0142799
827 1 0.71186 0.913223 0.64925
828 2 0.861074 0.746178 0.635042
829 2 0.768207 0.747515 0.640723
830 2 0.97897 0.871233 0.0183074
831 1 0.632468 0.800986 0.654337
832 2 0.655235 0.770197 0.735894
833 1 0.851598 0.816856 0.597554
834 2 0.762876 0.759178 0.647907
835 2 0.478737 0.417517 0.931667
836 2 0.803213 0.791456 0.704907
837 2 0.410427 0.0875371 0.339468
838 2 0.657574 0.830011 0.751882
839 2 0.608972 0.0888765 0.403866
840 2 0.594935 0.803341 0.736156
841 2 0.803683 0.802881 0.660347
842 2 0.634147 0.0615182 0.296213
843 2 0.796835 0.779622 0.652924
844 2 0.768273 0.750073 0.684901
845 2 0.785996 0.765695 0.653732
846 2 0.814027 0.771047 0.704991
847 2 0.829004 0.708718 0.654714
848 2 0.658565 0.735933 0.476973
849 1 0.592547 0.874056 0.8017
850 2 0.830681 0.731795 0.620064
851 2 0.603088 0.833393 0.721628
852 2 0.601725 0.79106 0.713114
853 1 0.590732 0.895834 0.78081
854 2 0.781553 0.374391 0.618235
855 2 0.846297 0.750695 0.694099
856 2 0.809271 0.762448 0.597533
857 2 0.58537 0.840961 0.704715
858 2 0.832196 0.744777 0.60849
859 2 0.821108 0.788342 0.615435
860 2 0.526972 0.300338 0.421987
861 2 0.833439 0.779999 0.658082
862 2 0.345705 0.219934 0.369281
863 2 0.665626 0.832903 0.739467
864 2 0.62853 0.892706 0.729786
865 2 0.799648 0.771825 0.677567
866 2 0.768656 0.763372 0.676652
867 2 0.0922184 0.0630129 0.156971
868 2 0.890964 0.832016 0.850562
869 2 0.85067 0.766395 0.62005
870 2 0.845982 0.750256 0.613636
871 2 0.634398 0.821207 0.75103
872 2 0.59609 0.822919 0.754871
873 2 0.83759 0.72899 0.698831
874 2 0.855981 0.760432 0.672582
875 2 0.0991346 0.841083 0.451523
876 2 0.633456 0.864294 0.678598
877 2 0.643652 0.84726 0.732289
878 2 0.613509 0.939625 0.696418
879 2 0.604568 0.820742 0.737355
880 2 0.907241 1.00056 0.112657
881 2 0.799794 0.759853 0.64609
882 1 0.902216 0.159507 0.0572183
883 1 0.579077 0.706019 0.0882264
884 2 0.0941604 0.00872365 0.524197
885 2 0.641719 0.87153 0.748157
886 2 0.807158 0.722051 0.662299
887 1 0.528097 0.478164 0.977934
888 2 0.991605 0.621189 0.294376
889 2 0.0480866 0.347224 0.288106
890 1 0.720589 0.845527 0.635713
891 2 0.40199 0.212602 0.930077
892 2 0.85293 0.761415 0.612805
893 2 0.632282 0.829298 0.75272
894 2 0.664236 0.818466 0.681423
895 1 0.886261 0.742599 0.716233
896 2 0.70651 0.809599 0.609403
897 2 0.787266 0.811907 0.6881
898 2 0.669487 0.820339 0.776981
899 2 0.758782 0.77203 0.422191
900 2 0.672875 0.819122 0.751769
901 2 0.667134 0.784604 0.729312
902 2 0.810056 0.775662 0.666707
903 2 0.650158 0.847708 0.726143
904 2 0.654208 0.838872 0.754616
905 2 0.795393 0.78175 0.599087
906 2 0.867081 0.0372374 0.804407
907 2 0.853742 0.77856 0.682508
908 1 0.692641 0.760846 0.744892