ITEM: TIMESTEP
4900
ITEM: NUMBER OF ATOMS
1000
ITEM: BOX BOUNDS xy xz yz pp pp pp
0.0000000000000000e+00 1.3572088000000001e+01 0.0000000000000000e+00
0.0000000000000000e+00 1.3572088000000001e+01 0.0000000000000000e+00
0.0000000000000000e+00 1.3572088000000001e+01 0.0000000000000000e+00
ITEM: ATOMS id type xs ys zs
1 2 0.577822 0.270539 0.906948
2 2 0.809306 0.33137 0.202443
3 1 0.341591 0.810475 0.225154
4 2 0.417402 0.555441 0.0957074
5 2 0.290711 0.809269 0.07939
6 1 0.204376 0.174113 0.0280574
7 2 0.897323 0.761735 0.435201
8 2 0.108282 0.645921 0.265704
9 2 0.820231 0.727075 0.208326
10 2 0.15576 0.623264 0.178008
11 2 0.960978 0.988677 0.600413
12 2 0.178112 0.854142 0.538955
13 2 0.41719 0.677909 0.0788225
14 1 0.260411 0.505358 0.965301
15 2 0.590389 0.470399 0.443086
16 2 0.853615 0.885523 0.297505
17 1 0.827828 0.446412 0.335358
18 2 0.621776 0.573281 0.864194
19 2 0.282748 0.342543 0.178353
20 2 0.215585 0.0791354 0.227805
21 2 0.228735 0.430101 0.143011
22 2 0.43201 0.73837 0.312481
23 2 0.380664 0.82827 0.223105
24 2 0.874096 0.867971 1.00001
25 1 0.114212 0.311938 0.266891
26 2 0.509084 0.524824 0.706372
27 2 0.678222 0.47623 0.101295
28 2 0.00471615 0.256353 0.361398
29 2 0.104716 0.385151 0.111485
30 2 0.790742 0.925519 0.30589
31 1 0.779805 0.723597 0.434216
32 1 0.179142 0.619726 0.394877
33 1 0.282861 0.201482 0.157862
34 2 0.480312 0.117396 0.719706
35 2 0.0588488 0.47585 0.0781043
36 1 0.904255 0.0404056 0.982199
37 2 0.0542105 0.519518 0.731598
38 2 0.135248 0.241114 0.353982
39 2 0.701587 0.131384 0.420112
40 2 0.767738 0.901055 0.192309
41 2 0.414734 0.321682 0.724421
42 2 0.147233 0.248792 0.267247
43 2 0.948931 0.556183 0.861605
44 2 0.363791 0.716411 0.834788
45 2 0.373244 0.220805 0.994401
46 1 0.385777 0.315922 0.525824
47 2 0.956737 0.429027 0.0708541
48 2 0.0955721 0.215621 0.198879
49 2 0.519452 0.73716 0.980809
50 2 0.67459 0.348209 0.831683
51 2 0.741975 0.5954 0.240333
52 2 0.86243 0.752955 0.270509
53 2 0.16517 0.861371 0.945992
54 2 0.236382 0.937759 0.294794
55 1 0.330001 0.329131 0.748612
56 1 0.833873 0.17005 0.612925
57 2 0.522652 0.276527 0.945661
58 2 0.512674 0.202651 0.69694
59 2 0.708103 0.40966 0.242596
60 2 0.122447 0.818919 0.365788
61 2 0.633945 0.192162 0.788068
62 2 0.759544 0.0948049 0.022411
63 2 0.783392 0.457628 0.243781
64 2 0.404369 0.833625 0.684479
65 2 0.34664 0.357805 0.571869
66 1 0.584175 0.536832 0.277688
67 2 0.598176 0.127294 0.748855
68 2 0.172563 0.565654 0.336059
69 1 0.123703 0.275558 0.484982
70 2 0.421129 0.28781 0.501061
71 1 0.843456 0.906333 0.51957
72 2 0.791373 0.246938 0.300269
73 2 0.682252 0.347573 0.897057
74 2 0.175402 0.175765 0.324191
75 2 0.428688 0.529723 0.156393
76 2 0.889157 0.898978 0.777416
77 1 0.881048 0.113219 0.00729307
78 2 0.78754 0.193999 0.618842
79 2 0.7207 0.126832 0.0802298
80 2 0.191453 0.836252 0.0094801
81 2 0.747235 0.631586 0.0994269
82 2 0.122621 0.829146 0.562409
83 2 0.547159 0.43356 0.346537
84 2 0.0218449 0.197193 0.246014
85 1 0.281155 0.254483 0.824833
86 2 0.776783 0.946546 0.844074
87 2 0.162078 0.399112 0.183592
88 2 0.922137 0.221531 0.749817
89 2 0.240616 0.184 0.30659
90 2 0.915066 0.576278 0.619909
91 2 0.341905 0.189763 0.895469
92 2 0.961908 0.544504 0.358377
93 2 0.761989 0.480975 0.026164
94 1 0.620372 0.270086 0.154032
95 2 0.320339 0.819736 0.575282
96 2 0.215262 0.869512 0.975545
97 2 0.788313 0.859091 0.00605235
98 2 0.089928 0.86747 0.645178
99 2 0.610492 0.277803 0.51575
100 2 0.138496 0.960048 0.381911
101 1 0.0100253 0.732215 0.266434
102 2 0.516478 0.303585 0.707524
103 2 0.569735 0.665482 0.784967
104 2 0.561504 0.654929 0.335719
105 2 0.561484 0.833925 0.604503
106 2 0.321102 0.00599842 0.485709
107 2 0.790759 0.745032 0.941841
108 2 0.269387 0.261098 0.299265
109 2 0.730789 0.518953 0.68308
110 2 0.388065 0.58117 0.34706
111 2 0.631832 0.524465 0.00912196
112 1 0.380793 0.184659 0.106711
113 1 0.451944 0.279973 0.0576072
114 2 0.773833 0.146461 0.902911
115 2 0.947668 0.78874 0.690186
116 2 0.204935 0.63093 0.848484
117 2 0.330986 0.606045 0.332343
118 2 0.462653 0.178979 0.702471
119 2 0.420485 0.926423 0.299367
120 2 0.140353 0.0755666 0.519216
121 2 0.606584 0.946224 0.15546
122 2 0.600912 0.336105 0.541827
123 2 0.721751 0.496247 0.804312
124 2 0.816893 0.938342 0.629562
125 1 0.236746 0.59105 0.568097
126 2 0.204189 0.142799 0.181498
127 2 0.480509 0.668804 0.265188
128 2 0.926621 0.339115 0.776755
129 1 0.89392 0.971692 0.323449
130 2 0.584571 0.571568 0.3644
131 2 0.840037 0.876781 0.185087
132 2 0.0951655 0.00932755 0.317758
133 2 0.0218761 0.970779 0.850541
134 2 0.622998 0.779661 0.10604
135 2 0.801973 0.936252 0.88272
136 2 0.1766 0.834247 0.89274
137 1 0.939109 0.574084 0.370034
138 2 0.372847 0.167181 0.162633
139 2 0.0834706 0.0484614 0.661281
140 1 0.993779 0.856871 0.664665
141 2 0.061522 0.77359 0.129507
142 2 0.671594 0.0246546 0.062789
143 2 0.155932 0.365952 0.0668908
144 2 0.172862 0.679035 0.0726715
145 2 0.188872 0.821556 0.669118
146 2 0.431911 0.824812 0.898937
147 1 0.419885 0.146231 0.6737
148 1 0.859735 0.882256 0.95554
149 2 0.844838 0.340595 0.9004
150 1 0.234893 0.698975 0.23489
151 2 0.475887 0.374325 0.0452552
152 2 0.789691 0.83872 0.027981
153 1 0.381325 0.685386 -2.73192e-05
154 1 0.301493 0.897886 0.247639
155 2 0.722174 0.148719 0.370387
156 2 0.385314 0.0509252 0.307184
157 2 0.215628 0.757216 0.168307
158 2 0.752174 0.719576 0.0677165
159 2 0.997793 0.627195 0.578596
160 2 0.0868391 0.797459 0.865602
161 2 0.526141 0.0370661 0.77595
162 2 0.689529 0.405947 0.210892
163 2 0.73952 0.635357 0.72694
164 2 0.0547101 0.365154 0.223272
165 2 0.143535 0.864316 0.136441
166 2 0.0990276 0.528308 0.837867
167 2 0.895479 0.720101 0.255906
168 2 0.104779 0.31488 0.601321
169 2 0.108583 0.99932 0.458999
170 2 0.545627 0.911155 0.0964721
171 2 0.9735 0.873178 0.945262
172 2 0.735688 0.445967 0.389463
173 1 0.710025 0.561322 0.413376
174 2 0.30377 0.474916 0.452755
175 2 0.0541909 0.0732938 0.290132
176 2 0.484355 0.538665 0.913196
177 1 0.230166 0.87134 0.659126
178 2 0.485252 0.552259 0.0592728
179 2 0.7869 0.386702 0.722357
180 2 0.932151 0.301845 0.645668
181 2 0.174461 0.612557 0.103226
182 2 0.915178 0.716798 0.509498
183 2 0.961513 0.24013 0.452409
184 2 0.502268 0.351377 0.0051905
185 2 0.939741 0.744122 0.7407
186 2 0.855586 0.347661 0.290033
187 2 0.956447 0.0699608 0.98609
188 1 0.740952 0.662325 0.495768
189 2 0.627269 0.850014 0.879798
190 2 0.384463 0.00171243 0.955922
191 2 0.458424 0.937706 0.557452
192 2 0.247678 0.711101 0.018418
193 2 0.180761 0.566892 0.101847
194 2 0.398123 0.934256 0.305154
195 2 0.451457 0.683937 0.216159
196 2 0.761307 0.318525 0.183196
197 2 0.821002 0.376831 0.296164
198 2 0.956644 0.256544 0.440906
199 2 0.50134 0.171876 0.868405
200 1 0.245261 0.227504 0.395116
201 2 0.143801 0.0984781 0.162379
202 2 0.631205 0.00935 0.949075
203 2 0.891171 0.912012 0.412266
204 2 0.22305 0.810928 0.341258
205 2 0.0742599 0.829596 0.995221
206 2 0.0878096 0.931724 0.364401
207 2 0.336671 0.0478351 0.715684
208 2 0.345856 0.758676 0.0560376
209 2 0.225089 0.761158 0.697687
210 2 0.728777 0.731144 0.945173
211 2 0.544792 0.360851 0.374476
212 1 0.812199 0.989664 0.873365
213 2 0.954658 0.923276 0.830544
214 2 0.642366 0.586302 0.00861087
215 2 0.545585 0.0167218 0.129223
216 2 0.928788 0.604144 0.205021
217 2 0.753172 0.259831 0.541344
218 2 0.952038 0.0309051 0.58552
219 2 0.894423 0.257133 0.8481
220 2 0.205171 0.548339 0.938709
221 2 0.564704 0.0353049 0.344158
222 2 0.146189 0.633037 0.839903
223 2 0.168175 0.233015 0.310348
224 2 0.193978 0.196982 0.828268
225 1 0.506421 0.393831 0.940437
226 2 0.581061 0.663221 0.257738
227 2 0.544986 0.674708 0.281606
228 2 0.557353 0.647806 0.767031
229 2 0.623925 0.114958 0.583437
230 1 0.879569 0.11323 0.418261
231 2 0.162785 0.60479 0.0314394
232 2 0.65134 0.682631 0.109772
233 1 0.21856 0.527097 0.390188
234 2 0.856758 0.429027 0.305121
235 2 0.290693 0.527639 0.742509
236 2 0.0211174 0.504468 0.699793
237 2 0.382328 0.223578 0.644076
238 1 0.631821 0.420014 0.52315
239 1 0.594425 0.526839 0.0961901
240 2 0.805472 0.547432 0.323829
241 2 0.162212 0.754322 0.217618
242 1 0.435059 0.850177 0.815798
243 1 0.599105 0.419012 0.957325
244 2 0.611988 0.870735 0.605389
245 2 0.816844 0.885459 0.974341
246 1 0.317359 0.186117 0.0440727
247 2 0.867848 0.340309 0.908631
248 2 0.444939 0.444887 0.651844
249 2 0.81408 0.69744 0.497855
250 2 0.404978 0.479839 0.538566
251 2 0.557603 0.776688 0.620296
252 2 0.511565 0.105672 0.496871
253 2 0.303506 0.340198 0.36464
254 2 0.4375 0.00638497 0.215458
255 2 0.519594 0.5845 0.51998
256 2 0.744119 0.135079 0.891485
257 2 0.305083 0.115482 0.508177
258 2 0.951077 0.510812 0.66441
259 1 0.1995 0.415225 0.898033
260 2 0.687273 0.739056 0.112574
261 1 0.93925 0.507516 0.937753
262 2 0.698778 0.597638 0.032653
263 2 0.166195 0.377068 0.285003
264 2 0.129179 0.571262 0.109244
265 1 0.271771 0.498652 0.838783
266 2 0.793687 0.530623 0.469506
267 2 0.417057 0.721981 0.821204
268 1 0.441761 0.668381 0.382649
269 1 0.010478 0.909868 0.0405824
270 2 0.63127 0.341507 0.0247233
271 2 0.829064 0.112938 0.159954
272 2 0.79441 0.604543 0.455421
273 1 0.702591 0.664931 0.135896
274 2 0.283888 0.984026 0.151857
275 2 0.176418 0.645813 0.937455
276 2 0.174327 0.617912 0.869376
277 2 0.461551 0.767227 0.957256
278 2 0.768185 0.949439 0.144182
279 2 0.876425 0.148109 0.800909
280 1 0.801355 0.519349 0.409699
281 2 0.942114 0.626372 0.912238
282 2 0.205587 0.660385 0.342062
283 2 0.0170467 0.248498 0.423362
284 1 0.728196 0.879368 0.773045
285 2 0.452285 0.662762 0.27291
286 2 0.574817 0.0539297 0.848658
287 1 0.057183 0.124724 0.682589
288 2 0.354233 0.22862 0.905154
289 2 0.0352989 0.456261 0.337332
290 2 0.727332 0.416074 0.650498
291 2 0.692932 0.769627 0.702446
292 2 0.461239 0.235277 0.611269
293 2 0.953466 0.751538 0.226033
294 2 0.0453332 0.342262 0.71436
295 2 0.290365 0.696313 0.249161
296 2 0.903956 0.434828 0.295376
297 2 0.311257 0.686483 0.142248
298 2 0.133702 0.853017 0.49918
299 1 0.413389 0.669899 0.650216
300 2 0.519806 0.612733 0.685341
301 2 0.144661 0.214011 0.717048
302 2 0.923485 0.155091 0.560509
303 2 0.209348 0.104429 0.529539
304 1 0.145254 0.85498 0.253216
305 2 0.238575 0.911348 0.0662457
306 2 0.0821822 0.260703 0.933526
307 2 0.834429 0.124591 0.989593
308 2 0.697087 0.582622 0.367325
309 2 0.339801 0.173316 0.857468
310 2 0.425597 0.626952 0.299535
311 2 0.822841 0.84013 0.226075
312 2 0.672478 0.591295 0.881429
313 2 0.0220863 0.0979644 0.069766
314 2 0.881685 0.887823 0.00964789
315 2 0.657397 0.864767 0.7265
316 2 0.348614 0.39278 0.791036
317 2 0.0713538 0.987958 0.635513
318 2 0.473411 0.843917 0.648347
319 2 0.376284 0.0369333 0.764978
320 2 0.564094 0.801662 0.210437
321 2 0.57774 0.936411 0.10094
322 2 0.509562 0.127617 0.775384
323 2 0.671748 0.00939918 0.0729652
324 2 0.85665 0.398979 0.772304
325 2 0.458148 0.304149 0.310726
326 2 0.373883 0.00464929 0.414901
327 2 0.42465 0.781671 0.654355
328 2 0.825385 0.826224 0.802712
329 1 0.794596 0.708 0.0511477
330 2 0.503366 0.974608 0.227437
331 2 0.166903 0.174775 0.28659
332 2 0.367246 0.201334 0.174259
333 2 0.731753 0.850024 0.760446
334 2 0.131427 0.222321 0.0436757
335 1 0.571471 0.350662 0.499035
336 2 0.982025 0.0108961 0.967621
337 2 0.984476 0.260545 0.572638
338 1 0.00550466 0.218913 0.848855
339 2 0.653621 0.450753 0.317064
340 2 0.777182 0.665083 0.0697862
341 2 0.594617 0.0172628 0.815938
342 2 0.872677 0.256437 0.843834
343 2 0.588887 0.0168823 0.277293
344 1 0.318933 0.0689389 0.82096
345 1 0.587342 0.99727 0.234539
346 1 0.670173 0.511978 0.715899
347 1 0.121483 0.0532127 0.582571
348 2 0.124382 0.178032 0.30602
349 2 0.274507 0.526678 0.107794
350 2 0.0343704 0.801556 0.408012
351 2 0.0971863 0.25314 0.298508
352 2 0.0473757 0.398698 0.052901
353 1 0.0689202 0.58189 0.216697
354 1 0.651096 0.17379 0.669704
355 2 0.105973 0.109357 0.681308
356 2 0.425836 0.433942 0.0131481
357 2 0.260914 0.397919 0.654537
358 2 0.0238355 0.304243 0.650892
359 2 0.567016 0.0846534 0.271592
360 2 0.484889 0.595027 0.419397
361 1 0.000888598 0.859753 0.876105
362 2 0.827821 0.454995 0.282541
363 1 0.844243 0.316323 0.74296
364 2 0.138492 0.167068 0.442227
365 2 0.848555 0.678968 0.579057
366 2 0.776692 0.579515 0.439049
367 1 0.530621 0.86816 0.0269062
368 1 0.215023 0.525811 0.269382
369 2 0.926281 0.889648 0.168496
370 2 0.289979 0.793008 0.794838
371 2 0.461314 0.983178 0.72114
372 1 0.889505 0.776905 0.800424
373 2 0.133425 0.797627 0.937015
374 2 0.756469 0.919991 0.84415
375 2 0.415085 0.0105156 0.90729
376 2 0.825661 0.335364 0.62385
377 2 0.177544 0.697366 0.334629
378 2 0.0251004 0.82635 0.335848
379 2 0.576226 0.428059 0.620944
380 2 0.00639868 0.89556 0.671799
381 2 0.389508 0.0421755 0.247037
382 2 0.361852 0.0218652 0.744013
383 2 0.372168 0.250476 0.754482
384 1 0.281294 0.755188 0.421532
385 2 0.526522 0.191751 0.977493
386 2 0.338652 0.775038 0.780149
387 1 0.88074 0.215857 0.403631
388 2 0.159747 0.394912 0.306533
389 2 0.418585 0.254419 0.566582
390 2 0.158352 0.244991 0.417993
391 2 0.761278 0.814847 0.55361
392 1 0.129946 0.4346 0.267985
393 2 0.0253835 0.363935 0.48949
394 2 0.511719 0.159398 0.912201
395 2 0.192494 0.907001 0.304839
396 2 0.216977 0.393073 0.471886
397 2 0.765478 0.423783 0.404564
398 1 0.389567 0.202808 0.0556652
399 1 0.708425 0.399391 0.827953
400 1 0.205992 0.402884 0.305508
401 2 0.854471 0.245532 0.278163
402 2 0.115625 0.788578 0.229767
403 2 0.362467 0.749641 0.702373
404 2 0.977752 0.341501 0.861687
405 2 0.753208 0.156658 0.631606
406 2 0.453302 0.405488 0.96392
407 2 0.690088 0.409118 0.349432
408 2 0.818475 0.0343975 0.658698
409 2 0.911868 0.359181 0.977444
410 2 0.503507 0.6342 0.133919
411 2 0.670424 0.691593 0.640684
412 2 0.958073 0.322405 0.251289
413 2 0.536549 0.701915 0.0245806
414 2 0.402683 0.538846 0.209533
415 2 0.326865 0.165713 0.988696
416 1 0.333245 0.890301 0.674675
417 2 0.187158 0.231908 0.374291
418 2 0.23713 0.163384 0.0327298
419 2 0.428949 0.713391 0.992179
420 2 0.0959201 0.702229 0.817612
421 1 0.679003 0.0541437 0.236643
422 1 0.875835 0.419234 0.707717
423 2 0.225901 0.676349 0.111208
424 2 0.319707 0.848664 0.214305
425 1 0.135972 0.211691 0.801252
426 2 0.823677 0.508913 0.232139
427 2 0.947233 0.985724 0.914376
428 2 0.214433 0.890136 0.555188
429 2 0.245347 0.102606 0.333581
430 2 0.193033 0.791252 0.66078
431 2 0.927374 0.35408 0.906953
432 1 0.304973 0.737717 0.705741
433 2 0.732283 0.375975 0.298882
434 1 0.3328 0.780847 0.508513
435 2 0.239546 0.290467 0.484649
436 2 0.422793 0.237426 0.864777
437 2 0.314201 0.965038 0.594852
438 2 0.87133 0.513634 0.547027
439 1 0.71774 0.353453 0.6583
440 2 0.300287 0.379551 0.281342
441 1 0.58393 0.645935 0.208457
442 1 0.924521 0.622441 0.256908
443 1 0.168306 0.572048 0.0115097
444 2 0.0985414 0.504304 0.638131
445 2 0.888144 0.471612 0.271511
446 2 0.287568 0.832197 0.297847
447 2 0.179826 0.654007 0.723922
448 2 0.761622 0.463748 0.108869
449 1 0.925125 0.811201 0.968755
450 2 0.513651 0.368921 0.307745
451 2 0.168845 0.269094 0.351508
452 2 0.376034 0.386044 0.0260016
453 1 0.819527 0.736423 0.98948
454 2 0.336313 0.56677 0.129562
455 2 0.89499 0.869907 0.224883
456 2 0.787574 0.505977 0.105555
457 2 0.972219 0.527269 0.0523726
458 2 0.699772 0.702613 0.514419
459 2 0.358768 0.568722 0.502982
460 2 0.39854 0.447435 0.895487
461 2 0.430563 0.65751 0.0315801
462 2 0.772835 0.630732 0.456007
463 1 0.691348 0.391865 0.548218
464 2 0.245178 0.76687 0.059749
465 2 0.57566 0.228437 0.606598
466 2 0.846981 0.0318542 0.626724
467 1 0.484381 0.617365 0.309826
468 2 0.772615 0.0633396 0.691991
469 2 0.918054 0.484899 0.85856
470 2 0.187803 0.800561 0.704062
471 2 0.0605957 0.692047 0.260948
472 2 0.0529142 0.667346 0.326126
473 1 0.183254 0.115748 0.610542
474 1 0.711078 0.780579 0.000925883
475 1 0.747113 0.972845 0.961382
476 2 0.442539 0.159503 0.054294
477 2 0.558157 0.934361 0.208332
478 2 0.185707 0.226562 0.342021
479 2 0.456253 0.581641 0.515879
480 2 0.46297 0.0564151 0.754332
481 2 0.191799 0.493844 0.962883
482 2 0.872922 0.801862 0.840848
483 2 0.0068477 0.936761 0.809818
484 1 0.956401 0.714751 0.312979
485 1 0.547993 0.246607 0.604696
486 2 0.291909 0.145097 0.60665
487 2 0.817963 0.134214 0.566789
488 2 0.0773431 0.150071 0.687889
489 2 0.345228 0.232053 0.957054
490 2 0.466454 0.349817 0.621423
491 2 0.0507889 0.0984176 0.713388
492 2 0.938195 0.932862 0.594704
493 2 0.58692 0.901006 0.982349
494 2 0.728945 0.443522 0.0859905
495 2 0.739091 0.532709 0.916811
496 2 0.264534 0.221989 0.0750291
497 2 0.876601 0.536437 0.817105
498 1 0.575538 0.605502 0.897582
499 2 0.800287 0.418276 0.358016
500 2 0.963035 0.900116 0.867803
501 1 0.177082 0.398935 0.116259
502 2 0.954969 0.926604 0.747743
503 2 0.929564 0.738955 0.0514851
504 1 0.269092 0.96439 0.12009
505 2 0.703551 0.574187 0.316929
506 2 0.788879 0.329001 0.536661
507 2 0.0525425 0.350294 0.512816
508 2 0.730414 0.178031 0.870897
509 1 0.724329 0.659185 0.279736
510 2 0.551568 0.577544 0.49459
511 2 0.958587 0.866804 0.357971
512 2 0.793821 0.642957 0.608178
513 1 0.0675943 0.301844 0.189762
514 2 0.537324 0.315434 0.883962
515 1 0.478923 0.812471 0.797451
516 2 0.658861 0.539295 0.944468
517 1 0.28825 0.749996 0.605684
518 2 0.49781 0.665486 0.238402
519 2 0.342029 0.468663 0.818172
520 2 0.832751 0.847825 0.146579
521 2 0.00318594 0.76943 0.233628
522 2 0.920647 0.594587 0.722666
523 2 0.984348 0.156554 0.668411
524 2 0.950408 0.789869 0.191057
525 2 0.107428 0.48713 0.14596
526 2 0.939104 0.208294 0.331891
527 2 0.124005 0.184068 0.94027
528 1 0.206307 0.258642 0.849932
529 2 0.10149 0.711583 0.924611
530 2 0.848952 0.865719 0.829949
531 2 0.612944 0.45147 0.100886
532 2 0.488013 0.261481 0.850949
533 2 0.293015 0.566071 0.302702
534 1 0.6288 0.450682 0.220069
535 2 0.897154 0.391877 0.360521
536 1 0.173808 0.242071 0.00866258
537 1 0.909792 0.683966 0.109204
538 2 0.305892 0.310516 0.139106
539 2 0.0651028 0.0229397 0.745919
540 2 0.43184 0.50951 0.840586
541 1 0.809839 0.661834 0.462383
542 2 0.446908 0.152784 0.351609
543 1 0.119564 0.0695799 0.697155
544 1 0.698164 0.517143 0.0403287
545 2 0.105366 0.277295 0.235407
546 2 0.541762 0.653519 0.450673
547 2 0.879075 0.671499 0.12699
548 2 0.79246 0.438788 0.991468
549 2 0.288435 0.163176 0.970131
550 2 0.278248 0.535126 0.909422
551 1 0.351685 0.263862 0.822471
552 2 0.862195 0.115081 0.0594508
553 2 0.549145 0.132711 0.873524
554 2 0.599351 0.369184 0.515135
555 1 0.496093 0.0495083 0.574557
556 2 0.371053 0.925779 0.474843
557 2 0.604644 0.39548 0.3065
558 1 0.560989 0.11029 0.579051
559 2 0.265976 0.316088 0.858938
560 2 0.0394453 0.481429 0.749731
561 2 0.317636 0.546997 0.247208
562 1 0.588857 0.832543 0.630837
563 2 0.59173 0.151229 0.961015
564 2 0.763094 0.0848728 0.501947
565 2 0.147752 0.542943 0.367544
566 2 0.690621 0.923749 0.757533
567 2 0.391842 0.0960173 0.421483
568 2 0.201588 0.536932 0.334987
569 1 0.924139 0.824719 0.685279
570 2 0.383753 0.912521 0.29471
571 2 0.141373 0.80208 0.201728
572 2 0.7812 0.36158 0.32682
573 2 0.76161 0.365019 0.0233467
574 2 0.627159 0.866963 0.12665
575 1 0.919742 0.836813 0.313908
576 2 0.538881 0.882412 0.0897308
577 2 0.351224 0.38377 0.767384
578 1 0.150314 0.411248 0.879762
579 2 0.633103 0.362926 0.600559
580 1 0.946779 0.759023 0.150665
581 2 0.00778406 0.381343 0.518603
582 2 0.772446 0.87515 0.14467
583 1 0.0869792 0.220224 0.23709
584 2 0.678724 0.193833 0.994988
585 1 0.86291 0.972835 0.911458
586 2 0.755136 0.212729 0.864775
587 2 0.417391 0.939076 0.586657
588 2 0.900201 0.00223457 0.634945
589 1 0.826732 0.385726 0.572021
590 1 0.505333 0.0572653 0.262583
591 1 0.708058 0.93519 0.507198
592 2 0.593393 0.726408 0.183029
593 2 0.668341 0.25754 0.34931
594 1 0.535033 0.185784 0.502514
595 1 0.0306446 0.342575 0.968317
596 2 0.305003 0.975041 0.90816
597 1 0.870001 0.749939 0.191299
598 2 0.36946 0.470987 0.763033
599 2 0.157643 0.277604 0.412573
600 2 0.115472 0.34076 0.293273
601 2 0.681401 0.0648275 0.956994
602 1 0.655486 0.489121 0.390538
603 2 0.975288 0.25114 0.97937
604 1 0.309609 0.854721 0.446715
605 2 0.973392 0.748945 0.376881
606 2 0.9185 0.471621 0.329
607 1 0.383191 0.758789 0.980638
608 2 0.0493 0.633083 0.666176
609 2 0.973639 0.53746 0.742014
610 2 0.632031 0.158667 1.00059
611 2 0.685766 0.892147 0.301186
612 1 0.217138 0.259126 0.915492
613 2 0.411363 0.0845896 0.45807
614 1 0.604598 0.373434 0.433416
615 2 0.916818 0.0911513 0.0467215
616 1 0.701368 0.302018 0.606451
617 2 0.837912 0.00774478 0.0902965
618 2 0.359872 0.621549 0.00963703
619 2 0.805411 0.86482 0.656677
620 2 0.119864 0.282081 0.179518
621 2 0.528214 0.845621 0.192092
622 2 0.946267 0.391517 0.749858
623 1 0.917939 0.937387 0.9198
624 2 0.969848 0.897723 0.568218
625 2 0.168755 0.615556 0.980748
626 2 0.138196 0.100645 0.0436653
627 2 0.771027 0.0387097 0.530606
628 2 0.587122 0.679822 0.183803
629 2 0.384689 0.41201 0.149652
630 1 0.200483 0.96264 0.547121
631 2 0.599855 0.926416 0.294524
632 2 0.632912 0.377637 0.995857
633 2 0.828794 0.41195 0.318899
634 2 0.543447 0.4203 0.75334
635 2 0.709819 0.602617 0.781163
636 2 0.363275 0.672953 0.21546
637 2 0.327062 0.87862 0.327743
638 1 0.934025 0.544648 0.704048
639 2 0.535849 0.285509 0.403884
640 2 0.18748 0.065816 0.914346
641 2 0.097341 0.735034 0.65304
642 2 0.688303 0.0575716 0.779535
643 2 0.8398 0.808291 0.113641
644 2 0.679886 0.252518 0.32053
645 1 0.361845 0.857543 0.272948
646 2 0.259545 0.978632 0.355681
647 1 0.0936994 0.406807 0.0138667
648 2 0.931884 0.0133353 0.356671
649 2 0.651519 0.46615 0.0268538
650 2 0.706656 0.965511 0.412199
651 2 0.143876 0.237996 0.30293
652 2 0.123064 0.844634 0.424042
653 2 0.324952 0.61433 0.867317
654 1 0.0718407 0.215588 0.00567224
655 2 0.0310161 0.440821 0.476307
656 2 0.64025 0.495622 0.815075
657 2 0.48325 0.372368 0.505417
658 2 0.385177 0.305063 0.171048
659 2 0.990098 0.164383 0.231341
660 2 0.653684 0.890726 0.229361
661 1 0.0707701 0.790637 0.263651
662 2 0.31152 0.823593 0.287231
663 2 0.496585 0.912712 0.525774
664 1 0.69999 0.995712 0.116461
665 2 0.407179 0.428441 0.962623
666 2 0.508173 0.835258 0.680767
667 2 0.459871 0.688101 0.0571338
668 2 0.0166029 0.807524 0.063531
669 2 0.231463 0.645766 0.0889952
670 1 0.909404 0.939563 0.817096
671 2 0.224813 0.466637 0.334541
672 1 0.0992057 0.96932 0.853602
673 2 0.599735 0.843845 0.468647
674 2 0.716598 0.580315 0.560393
675 2 0.75322 0.135967 0.147813
676 1 0.645026 0.648152 0.595548
677 2 0.374724 0.455852 0.854484
678 2 0.111745 0.801142 0.741609
679 1 0.634719 0.717495 0.588763
680 2 0.142064 0.681618 0.826993
681 1 0.318053 0.23986 0.498223
682 1 0.172749 0.827618 0.0549288
683 2 0.934486 0.595132 0.749781
684 2 0.750239 0.113498 0.677453
685 2 0.850041 0.737297 0.394944
686 2 0.992573 0.796324 0.210638
687 1 0.0571599 0.264346 0.0261638
688 2 0.121397 0.594952 0.412417
689 2 0.783827 0.648683 0.0138702
690 2 0.410785 0.229776 0.56116
691 2 0.842364 0.834696 0.662275
692 1 0.748144 0.39044 0.506364
693 2 0.0974401 0.920331 0.698133
694 2 0.450946 0.543872 0.832754
695 1 0.647424 0.40509 0.400368
696 2 0.846642 0.219097 0.559621
697 2 0.589518 0.581825 0.723962
698 2 0.684431 0.521319 0.779348
699 2 0.870203 0.923973 0.602713
700 1 0.0787645 0.261229 0.642348
701 2 0.39552 0.628909 0.71317
702 2 0.151341 0.0317493 0.415861
703 2 0.329554 0.836894 0.741342
704 2 0.961134 0.840283 0.727343
705 2 0.377682 0.840158 0.665697
706 2 0.468283 0.197242 0.0962975
707 2 0.881976 0.348333 0.828164
708 1 0.539986 0.340775 0.288724
709 2 0.0534858 0.969899 0.762977
710 2 0.964095 0.898788 0.543519
711 2 0.29234 0.651392 0.531222
712 1 0.432656 0.35472 0.971239
713 2 0.805789 0.410872 0.00483015
714 1 0.444023 0.435319 0.883162
715 2 0.0276269 0.649083 0.419885
716 1 0.810707 0.360488 0.33447
717 2 0.711282 0.895225 0.58404
718 2 0.743731 0.548906 0.472016
719 2 0.871599 0.388567 0.359373
720 2 0.0450775 0.254811 0.817111
721 2 0.190506 0.929427 0.102063
722 1 0.940358 0.330677 0.562417
723 2 0.661956 0.482835 0.0557488
724 2 0.071853 0.982437 0.0593284
725 2 0.854045 0.32901 0.609866
726 2 0.799054 0.386176 0.292376
727 1 0.417465 0.899392 0.53287
728 1 0.648171 0.621602 0.117948
729 1 0.0279327 0.663484 0.658397
730 1 0.164439 0.678295 0.268175
731 2 0.244027 0.848336 0.729194
732 1 0.99721 0.826723 0.180833
733 2 0.809735 0.103199 0.199772
734 2 0.539231 0.886909 0.980872
735 2 0.681287 0.413595 0.36433
736 1 0.354297 0.953492 0.853348
737 2 0.392939 0.164559 0.535853
738 2 0.886484 0.894851 0.567407
739 2 0.967908 0.815245 0.635702
740 2 0.0864826 0.684711 0.787438
741 2 0.690736 0.936065 0.182091
742 1 0.44694 0.11205 0.901001
743 2 0.15901 0.245608 0.756644
744 2 0.904207 0.737523 0.127085
745 2 0.803839 0.10622 0.286501
746 1 0.286584 0.87351 0.705784
747 2 0.591377 0.707517 0.238285
748 2 0.376182 0.765319 0.540404
749 2 0.913387 0.565709 0.0388856
750 2 0.435063 0.769053 0.827255
751 2 0.760939 0.0225881 0.458957
752 2 0.704631 0.805574 0.279519
753 2 0.226606 0.539924 0.718317
754 2 0.601612 0.430785 0.808817
755 2 0.66316 0.543521 0.120037
756 2 0.831592 0.987326 0.661234
757 2 0.134571 0.216939 0.845834
758 2 0.0683531 0.810789 0.119871
759 2 0.408306 0.257633 0.929487
760 1 0.0148421 0.896057 0.939781
761 2 0.642972 1.00181 0.575026
762 2 0.577991 0.30409 0.0665442
763 1 0.243454 0.805704 0.679306
764 2 0.538265 0.245942 0.932195
765 2 0.413056 0.0364429 0.717785
766 2 0.461759 0.356711 0.0691316
767 2 0.906666 0.600264 0.607743
768 2 0.954321 0.681298 0.253585
769 2 0.709294 0.563998 0.262178
770 2 0.620458 0.49982 0.405902
771 2 0.358331 0.800385 0.121057
772 2 0.479174 0.784323 0.0915048
773 1 0.908724 0.516242 0.213768
774 2 0.0504424 0.855892 0.483391
775 2 0.808881 0.679495 0.600229
776 2 0.35795 0.276442 0.195578
777 1 0.139474 0.979877 0.260493
778 2 0.967036 0.490005 0.623844
779 2 0.932088 0.537663 0.608243
780 1 0.482303 0.450625 0.961537
781 2 0.898049 0.00231574 0.0338286
782 2 0.721336 0.22162 0.348975
783 1 0.103887 0.555571 0.808784
784 2 0.763325 0.815141 0.15036
785 2 0.898112 0.595498 0.160535
786 1 0.643184 0.443672 0.0693233
787 2 0.309398 0.198476 0.843045
788 2 0.295779 0.959574 0.0713599
789 2 0.235 0.915944 0.676371
790 2 0.170044 0.204558 0.845254
791 1 0.116479 0.798694 0.0491773
792 2 0.666596 0.537114 0.395237
793 2 0.868947 0.71715 0.732496
794 2 0.271987 0.655047 0.290885
795 2 0.293878 0.0427123 0.107063
796 2 0.669402 0.786922 0.689167
797 2 0.603583 0.304227 0.954694
798 2 0.516991 0.215219 0.114039
799 2 0.936894 0.726855 0.18185
800 2 0.872238 0.962748 0.447249
801 2 0.983739 0.412676 0.199727
802 2 0.94207 0.857159 0.805169
803 2 0.491636 0.749595 0.160018
804 2 0.970535 0.453189 0.649149
805 2 0.154631 0.811349 0.998622
806 1 0.203703 0.197114 0.178221
807 2 0.579897 0.0556697 0.0588574
808 2 0.4261 0.491969 0.892689
809 1 0.554267 0.304476 0.127354
810 2 0.394927 0.411519 0.050682
811 2 0.294198 0.483956 0.158285
812 2 0.0885115 0.0960153 0.723218
813 1 0.277241 0.421194 0.716959
814 2 0.551331 0.208803 0.876626
815 2 0.24679 0.677788 0.740932
816 1 0.307568 0.887545 0.836207
817 1 0.348161 0.577959 0.684203
818 2 0.198433 0.413584 0.256164
819 1 0.100666 0.642824 0.84007
820 1 0.671541 0.564 0.254576
821 2 0.929077 0.814573 0.722853
822 2 0.208289 0.211605 0.33904
823 1 0.875302 0.784422 0.713601
824 2 0.736403 0.376782 0.734325
825 2 0.305087 0.266437 0.392796
826 2 0.206655 0.658015 0.805342
827 1 0.85423 0.579087 0.515543
828 2 0.578822 0.285362 0.732099
829 2 0.594471 0.480823 0.649492
830 2 0.623412 0.579039 0.542182
831 1 0.0149604 0.0575668 0.0756594
832 2 0.94396 0.431416 0.273403
833 1 0.701119 0.524217 0.846724
834 2 0.45478 0.780474 0.759669
835 2 0.137189 0.14565 0.762551
836 2 0.374539 0.0622162 0.161276
837 2 0.586048 0.4299 0.0773782
838 2 0.0653017 0.0286421 0.0759725
839 2 0.289218 0.996489 0.239692
840 2 0.822094 0.120083 0.329786
841 2 0.109691 0.962348 0.298475
842 2 0.240284 0.814371 0.52126
843 2 0.0966584 0.93131 0.234184
844 2 0.805689 0.514902 0.139975
845 2 0.371844 0.399423 0.574901
846 2 0.693688 0.755363 0.483297
847 2 0.213869 0.670815 0.602015
848 2 0.613394 0.927628 0.0401026
849 1 0.721155 0.94361 0.86857
850 2 0.37228 0.943799 0.257211
851 2 0.443975 0.637633 0.194555
852 2 0.421694 1.00055 0.455498
853 1 0.646432 0.730464 0.10581
854 2 0.260429 0.285142 0.751062
855 2 0.0814714 0.388696 0.119439
856 2 0.85338 0.335459 0.433925
857 2 0.192411 0.876593 0.906646
858 2 0.472424 0.455486 0.681154
859 2 0.0284122 0.299309 0.369427
860 2 0.404375 0.365642 0.70728
861 2 0.501479 0.471844 0.913624
862 2 0.893365 0.808551 0.685721
863 2 0.813502 0.462753 0.114976
864 2 0.245374 0.145429 0.142013
865 2 0.249493 0.744531 0.228768
866 2 0.242777 0.131829 0.987078
867 2 0.127349 0.576667 0.00590536
868 2 0.900999 0.913128 0.627177
869 2 0.563386 0.00472051 0.568097
870 2 0.716465 0.501694 0.108819
871 2 0.256835 0.87903 0.429681
872 2 0.522734 0.781461 0.790097
873 2 0.603966 0.399003 0.787061
874 2 0.530962 0.104473 0.553277
875 2 0.457985 0.345522 0.161843
876 2 0.648574 0.543874 0.312857
877 2 0.965054 0.336766 0.894736
878 2 0.147115 0.492759 0.874393
879 2 0.832793 0.521089 0.906702
880 2 0.368994 0.182232 0.593281
881 2 0.722594 0.269791 0.145264
882 1 0.402193 0.625965 0.0588638
883 1 0.0370678 0.697144 0.472815
884 2 0.328057 0.83231 0.663917
885 2 0.71255 0.665478 0.634512
886 2 0.6017 0.238404 0.334736
887 1 0.502486 0.903569 0.722373
888 2 0.712673 0.461314 0.799557
889 2 0.668733 0.462756 0.586094
890 1 0.782149 0.51553 0.980004
891 2 0.904724 0.591167 0.561095
892 2 0.406021 0.459171 0.931526
893 2 0.753901 0.848543 0.804495
894 2 0.12557 0.617559 0.877933
895 1 0.711103 0.096407 0.650217
896 2 0.0861154 0.946962 0.924672
897 2 0.897006 0.649585 0.332909
898 2 0.940385 0.454171 0.673248
899 2 0.764806 0.285422 0.656828
900 2 0.443661 0.611013 0.698685
901 2 0.789905 0.22987 0.887697
902 2 0.245316 0.851529 0.846386
903 2 0.619052 0.458093 0.491677
904 2 0.2938 0.575872 0.591894