ITEM: TIMESTEP
42700
ITEM: NUMBER OF ATOMS
1000
ITEM: BOX BOUNDS xy xz yz pp pp pp
0.0000000000000000e+00 1.3572088000000001e+01 0.0000000000000000e+00
0.0000000000000000e+00 1.3572088000000001e+01 0.0000000000000000e+00
0.0000000000000000e+00 1.3572088000000001e+01 0.0000000000000000e+00
ITEM: ATOMS id type xs ys zs
1 2 0.120532 0.246123 0.522878
2 2 0.950373 0.474053 0.238774
3 1 0.703783 0.0145713 0.733435
4 2 0.215526 0.149041 0.762273
5 2 0.440185 0.0460092 0.301838
6 1 0.393448 0.982105 0.782765
7 2 0.590799 0.990811 0.766543
8 2 0.283375 0.580285 0.417102
9 2 0.857886 0.621071 0.207328
10 2 0.605869 0.979997 0.767222
11 2 0.191826 0.784458 0.082512
12 2 0.607514 0.5903 0.925046
13 2 0.193685 0.439645 0.655146
14 1 0.372976 0.15116 0.0542697
15 2 0.75192 0.562588 0.49705
16 2 0.132838 0.322295 0.847678
17 1 0.734692 0.530093 0.566425
18 2 0.852173 0.718184 0.386439
19 2 0.677831 0.341868 0.144658
20 2 0.837949 0.981615 0.639205
21 2 0.603703 0.0129172 0.784157
22 2 0.458668 0.281409 0.665932
23 2 0.487175 0.805912 0.942947
24 2 0.700659 0.579789 0.493265
25 1 0.511635 0.428957 0.451283
26 2 0.487833 0.355842 0.542113
27 2 0.58891 0.977109 0.77776
28 2 0.626218 0.900086 0.770207
29 2 0.179238 0.467087 0.986178
30 2 0.885523 0.484938 0.679958
31 1 0.571705 0.329254 0.288539
32 1 0.485208 0.144518 0.259053
33 1 0.670761 0.267852 0.324259
34 2 0.770735 0.526922 0.512624
35 2 0.510763 0.263922 0.632795
36 1 0.735864 0.89124 0.764029
37 2 0.746815 0.546645 0.50169
38 2 0.600664 0.997609 0.827538
39 2 0.0786099 0.536962 0.228747
40 2 0.32706 0.208156 0.23973
41 2 0.0426894 0.889705 0.831994
42 2 0.650576 0.970522 0.771488
43 2 0.221727 0.0917128 0.889144
44 2 0.736174 0.907482 0.404958
45 2 0.463196 0.948267 0.409198
46 1 0.0418561 0.766434 0.154367
47 2 0.20248 0.857054 0.835402
48 2 0.344603 0.101035 0.627429
49 2 0.394537 0.662857 0.989656
50 2 0.396048 0.591619 0.693944
51 2 0.939875 0.402557 0.883277
52 2 0.339371 0.166039 0.0730938
53 2 0.816131 0.472526 0.965581
54 2 0.609782 0.0309044 0.804188
55 1 0.501112 0.616544 0.380836
56 1 0.408895 0.781383 0.915213
57 2 0.0139824 0.656646 0.24773
58 2 0.818691 0.00195989 0.513872
59 2 0.838549 0.35858 0.43589
60 2 0.877947 0.29222 0.546721
61 2 0.667276 0.694408 0.0166064
62 2 0.301788 0.860523 0.928984
63 2 0.237639 0.021896 0.727538
64 2 0.372973 0.544355 0.306668
65 2 0.803412 0.556083 0.492356
66 1 0.387675 0.627651 0.664325
67 2 0.306009 0.455759 0.246594
68 2 0.605508 0.016791 0.761339
69 1 0.156456 0.0325039 0.715942
70 2 0.341091 0.252141 0.129738
71 1 0.560908 0.997708 0.873962
72 2 0.270273 0.960605 0.700055
73 2 0.580148 0.898591 0.68014
74 2 0.513045 0.837363 0.32746
75 2 0.689696 0.31198 0.145297
76 2 0.482404 0.12883 0.445407
77 1 0.4665 0.790646 0.156008
78 2 0.28672 0.954379 0.842001
79 2 0.238297 0.531455 0.664165
80 2 0.977399 0.0438587 0.26383
81 2 0.666026 0.967482 0.805264
82 2 0.342354 0.459182 0.884697
83 2 0.29436 0.151476 0.49013
84 2 0.773646 0.281605 0.168677
85 1 0.8631 0.035114 0.7778
86 2 0.718416 0.501565 0.4849
87 2 0.472294 0.982104 0.23541
88 2 0.746728 0.794925 0.0118917
89 2 0.37573 0.898654 0.434604
90 2 0.777661 0.788905 0.829023
91 2 0.477032 0.214806 0.665041
92 2 0.681881 0.0604673 0.634811
93 2 0.996868 0.772419 0.574369
94 1 0.404667 0.65731 0.396855
95 2 0.76852 0.879077 0.0443866
96 2 0.299863 0.12244 0.0824417
97 2 0.976606 0.531831 0.316966
98 2 0.00053466 0.771829 0.851401
99 2 0.487163 0.25956 0.762367
100 2 0.304208 0.27613 0.328685
101 1 0.309109 0.781009 0.792942
102 2 0.337637 0.996934 0.458998
103 2 0.710104 0.491804 0.462548
104 2 0.725505 0.474619 0.118901
105 2 0.477216 0.0870564 0.91859
106 2 0.401577 0.355261 0.583031
107 2 0.351894 0.885553 0.730922
108 2 0.74079 0.558445 0.47492
109 2 0.710862 0.56126 0.499595
110 2 0.727324 0.595306 0.805105
111 2 0.282766 0.3356 0.94103
112 1 0.928289 0.194485 0.671922
113 1 0.991805 0.599257 0.2268
114 2 0.751859 0.574387 0.482882
115 2 0.330873 0.274936 0.46317
116 2 0.160762 0.0207162 0.355462
117 2 0.903867 0.754877 0.24608
118 2 0.717497 0.543074 0.460885
119 2 0.511793 0.415907 0.209676
120 2 0.763319 0.51303 0.472336
121 2 0.631261 0.333187 0.778575
122 2 0.134136 0.273744 0.912625
123 2 0.827789 0.545635 0.5853
124 2 0.536006 0.481781 0.371414
125 1 0.1401 0.248866 0.874011
126 2 0.388109 0.738825 0.882075
127 2 0.744969 0.568512 0.516214
128 2 0.2749 0.88671 0.703188
129 1 0.186771 0.963016 0.429216
130 2 0.484635 0.688798 0.785049
131 2 0.0427777 0.0751321 0.27361
132 2 0.0823995 0.507688 0.0745085
133 2 0.771156 0.573359 0.487264
134 2 0.805303 0.15338 0.0514898
135 2 0.564362 0.967156 0.817569
136 2 0.229269 0.212901 0.291362
137 1 0.779294 0.238931 0.972878
138 2 0.638968 0.0190904 0.773204
139 2 0.595163 0.00859688 0.846804
140 1 0.804496 0.599753 0.601843
141 2 0.422722 0.395844 0.542864
142 2 0.281384 0.950931 0.750835
143 2 0.320569 0.583617 0.0656333
144 2 0.635057 0.197582 0.862625
145 2 0.777834 0.250704 0.852086
146 2 0.432588 0.851859 0.0357049
147 1 0.669703 0.0184975 0.851954
148 1 0.794312 0.737461 0.549798
149 2 0.110924 0.801392 0.883814
150 1 0.719709 0.57049 0.560795
151 2 0.717053 0.810228 0.548279
152 2 0.270827 0.84023 0.946723
153 1 0.0118914 0.745869 0.0927769
154 1 0.320143 0.982615 0.841548
155 2 0.442995 0.228558 0.544859
156 2 0.408796 0.751582 0.0983599
157 2 0.983044 0.400253 0.884862
158 2 0.696404 0.50245 0.589733
159 2 0.814746 0.861665 0.534153
160 2 0.59854 0.940966 0.815369
161 2 0.645916 0.0334723 0.769673
162 2 0.583931 0.980926 0.821785
163 2 0.459104 0.623604 0.54561
164 2 0.95188 0.841498 0.599826
165 2 0.817038 0.569324 0.49072
166 2 0.299905 0.824982 0.528786
167 2 0.864748 0.0752529 0.260083
168 2 0.583386 0.999917 0.788664
169 2 0.707952 0.0449075 0.239043
170 2 0.807649 0.06302 0.100017
171 2 0.518216 0.835951 0.664987
172 2 0.323221 0.25448 0.279287
173 1 0.774258 0.476279 0.498995
174 2 0.0965324 0.522176 0.783338
175 2 0.0281841 0.499247 0.459589
176 2 0.684583 0.298695 0.176864
177 1 0.346527 0.704807 0.910477
178 2 0.0255411 0.617399 0.822918
179 2 0.332682 0.0840929 0.807461
180 2 0.813412 0.521188 0.5072
181 2 0.563372 0.14194 0.270402
182 2 0.280238 0.119819 0.263246
183 2 0.416505 0.619441 0.929534
184 2 0.117731 0.0706006 0.383189
185 2 0.797669 0.670239 0.393758
186 2 0.330195 0.870258 0.769419
187 2 0.812969 0.818924 0.992621
188 1 0.590901 0.34503 0.826227
189 2 0.403027 1.00093 0.529563
190 2 0.834628 0.988508 0.236951
191 2 0.830676 0.0930218 0.218982
192 2 0.566968 0.020066 0.816882
193 2 0.813873 0.0664269 0.310722
194 2 0.684451 0.153419 0.0126244
195 2 0.918208 0.128331 0.436363
196 2 0.615226 0.0539083 0.711257
197 2 0.107208 0.0973629 0.989557
198 2 0.561135 0.200546 0.307023
199 2 0.271301 0.145186 0.403501
200 1 0.88438 0.529294 0.640451
201 2 0.0762392 0.217255 0.614456
202 2 0.218242 0.762547 0.88279
203 2 0.258679 0.0817512 0.408022
204 2 0.84756 0.833669 0.0281536
205 2 0.260922 0.866559 0.876977
206 2 0.371275 0.116709 0.202405
207 2 0.77603 0.903167 0.406728
208 2 0.972499 0.649968 0.238921
209 2 0.776237 0.373085 0.480566
210 2 0.148076 0.853501 0.476671
211 2 0.30118 0.336394 0.18674
212 1 0.617083 0.958715 0.735135
213 2 0.439374 0.2297 0.495673
214 2 0.783364 0.536745 0.489588
215 2 0.755179 0.535443 0.484339
216 2 0.0167403 0.975912 0.44644
217 2 0.0454737 0.823328 0.858088
218 2 0.625495 0.0792798 0.271867
219 2 0.664696 0.407778 0.499953
220 2 0.365052 0.0538069 0.605017
221 2 0.0202595 0.247502 0.385601
222 2 0.985782 0.281417 0.155518
223 2 0.215039 0.561204 0.4768
224 2 0.594923 0.0199312 0.660581
225 1 0.307005 0.888901 0.268819
226 2 0.546978 0.0123345 0.764781
227 2 0.316592 0.758636 0.281916
228 2 0.684758 0.40283 0.456539
229 2 0.0192337 0.484712 0.654812
230 1 0.541241 0.507074 0.730648
231 2 0.940051 0.118725 0.990836
232 2 0.126319 0.205839 0.43767
233 1 0.0465825 0.919796 0.249618
234 2 0.174831 0.588392 0.170359
235 2 0.779633 0.52434 0.53909
236 2 0.932761 0.0824511 0.684839
237 2 0.639436 0.42548 0.990075
238 1 0.984782 0.453096 0.297157
239 1 0.00708476 0.895255 0.00699315
240 2 0.508353 0.578526 0.841607
241 2 0.675635 0.426175 0.923203
242 1 0.507108 0.682345 0.482795
243 1 0.725898 0.462855 0.472988
244 2 0.0116853 0.195781 0.660913
245 2 0.731912 0.646269 0.355023
246 1 0.699484 0.952577 0.451965
247 2 0.892764 0.873215 0.989961
248 2 0.351101 0.368662 0.406285
249 2 0.688397 0.374476 0.986824
250 2 0.576768 0.94158 0.790535
251 2 0.0419223 0.520377 0.899595
252 2 0.520944 0.426235 0.403095
253 2 0.535686 0.909758 0.231581
254 2 0.10148 0.316093 0.174108
255 2 0.423373 0.21133 0.61148
256 2 0.566938 0.997583 0.784074
257 2 0.299346 0.0291302 0.99409
258 2 0.328796 0.94353 0.348901
259 1 0.968617 0.571374 0.0463023
260 2 0.717279 0.542187 0.590415
261 1 0.194781 0.267971 0.478225
262 2 0.0766316 0.293778 0.168677
263 2 0.721675 0.728779 0.857205
264 2 0.774792 0.337288 0.121362
265 1 0.200526 0.0321756 0.474702
266 2 0.794359 0.651679 0.203726
267 2 0.560921 0.178831 0.29791
268 1 0.942986 0.193895 0.177571
269 1 0.958926 0.356996 0.372152
270 2 0.941815 0.593959 0.394939
271 2 0.588092 0.494142 0.453931
272 2 0.10226 0.991528 0.53894
273 1 0.661111 0.528872 0.534648
274 2 0.880253 0.67608 0.478984
275 2 0.739192 0.887658 0.989841
276 2 0.550692 0.231563 0.341869
277 2 0.0633094 0.00929693 0.530556
278 2 0.644131 0.420713 0.8641
279 2 0.308811 0.997111 0.137701
280 1 0.291528 0.685243 0.158958
281 2 0.0341111 0.780327 0.349301
282 2 0.872514 0.387141 0.223077
283 2 0.0649341 0.948833 0.775061
284 1 0.804257 0.880998 0.713891
285 2 0.984462 0.92163 0.000775942
286 2 0.62641 0.991469 0.827653
287 1 0.899393 0.0512282 0.428128
288 2 0.588115 0.0294202 0.794296
289 2 0.446134 0.529691 0.487971
290 2 0.686521 0.378544 0.662209
291 2 0.277117 0.791792 0.841015
292 2 0.326905 0.0153938 0.288549
293 2 0.785005 0.554031 0.533701
294 2 0.737128 0.573427 0.620205
295 2 0.722861 0.598942 0.521717
296 2 0.450132 0.170972 0.31394
297 2 0.769764 0.904994 0.673903
298 2 0.982511 0.698292 0.597352
299 1 0.68323 0.957509 0.766696
300 2 0.643601 0.951862 0.779794
301 2 0.126764 0.898466 0.205195
302 2 0.49026 0.397085 0.504043
303 2 0.102074 0.404426 0.704755
304 1 0.0254226 0.451307 0.238477
305 2 0.664896 0.191012 0.88523
306 2 0.234372 0.595664 0.857031
307 2 0.898106 0.567308 0.357207
308 2 0.483412 0.239846 0.14013
309 2 0.624468 0.298239 0.761098
310 2 0.491235 0.9043 0.259182
311 2 0.403668 0.895362 0.320766
312 2 0.950293 0.90635 0.855975
313 2 0.140651 0.57144 0.0983037
314 2 0.106927 0.0308298 0.36919
315 2 0.0269616 0.683726 0.155433
316 2 0.925255 0.707951 0.0801305
317 2 0.126301 0.0342435 0.868546
318 2 0.680395 0.880616 0.0123911
319 2 0.906316 0.731119 0.554945
320 2 0.780296 0.598046 0.573328
321 2 0.745232 0.581079 0.546625
322 2 0.780845 0.530796 0.00678374
323 2 0.817411 0.850315 0.121412
324 2 0.882601 0.336492 0.245405
325 2 0.636973 0.599623 0.456015
326 2 0.63462 0.954401 0.793221
327 2 0.713254 0.553892 0.517761
328 2 0.797233 0.579691 0.499986
329 1 0.0794854 0.786665 0.816307
330 2 0.760835 0.550296 0.514524
331 2 0.849741 0.628805 0.245209
332 2 0.318186 0.542749 0.617689
333 2 0.540225 0.0172046 0.946414
334 2 0.658102 0.899183 0.736057
335 1 0.368355 0.139381 0.955126
336 2 0.587621 0.711503 0.296878
337 2 0.408422 0.265896 0.175351
338 1 0.664366 0.135805 0.250518
339 2 0.819757 0.810145 0.593657
340 2 0.403107 0.594179 0.639837
341 2 0.82798 0.86113 0.668929
342 2 0.694321 0.523324 0.373189
343 2 0.1172 0.0766308 0.805484
344 1 0.920111 0.986272 0.24134
345 1 0.828102 0.568178 0.548958
346 1 0.530189 0.0124633 0.815943
347 1 0.490404 0.773311 0.993836
348 2 0.750387 0.847134 0.496524
349 2 0.246466 0.0148587 0.800427
350 2 0.501186 0.763491 0.248988
351 2 0.0581814 0.707795 0.084068
352 2 0.508916 0.224873 0.546344
353 1 0.85417 0.55862 0.509907
354 1 0.71053 0.330223 0.356411
355 2 0.111837 0.448323 0.954093
356 2 0.571535 0.150084 0.048877
357 2 0.399817 0.132207 0.36987
358 2 0.666815 0.312651 0.872732
359 2 0.977117 0.118578 0.380459
360 2 0.586386 0.96702 0.793762
361 1 0.578922 0.511105 0.665767
362 2 0.0490062 0.489801 0.297529
363 1 0.687685 0.176176 0.0679885
364 2 0.638038 0.983881 0.785926
365 2 0.483643 0.66996 0.307774
366 2 0.297173 0.304411 0.894371
367 1 0.319441 0.765701 0.332139
368 1 0.392651 0.574845 0.915115
369 2 0.479881 0.161084 0.636514
370 2 0.391759 0.348026 0.472871
371 2 0.781212 0.57644 0.519553
372 1 0.773829 0.943728 0.522969
373 2 0.142433 0.0756791 0.54325
374 2 0.432112 0.601265 0.892356
375 2 0.578382 0.0300371 0.850806
376 2 0.0404481 0.233162 0.974159
377 2 0.11398 0.301821 0.753248
378 2 0.292695 0.76194 0.823478
379 2 0.671421 0.964418 0.222744
380 2 0.602872 0.960823 0.807633
381 2 0.906619 0.878754 0.495039
382 2 0.482744 0.961449 0.0491619
383 2 0.441605 0.520447 0.775577
384 1 0.815188 0.522418 0.776864
385 2 -0.000189995 0.986442 0.36475
386 2 0.29768 0.172986 0.618436
387 1 0.0224828 0.582075 0.582566
388 2 0.143768 0.147198 0.723557
389 2 0.77239 0.582306 0.472591
390 2 0.27309 0.728427 0.1267
391 2 0.974102 0.47651 0.1339
392 1 0.775521 0.55463 0.328668
393 2 0.056603 0.133703 0.287548
394 2 0.497376 0.0173307 0.942313
395 2 0.657758 1.00045 0.803385
396 2 0.556875 0.986205 0.815432
397 2 0.453348 0.645427 0.324436
398 1 0.875645 0.203871 0.862787
399 1 0.80665 0.493192 0.471055
400 1 0.0355277 0.299488 0.188089
401 2 0.629298 0.0169313 0.793911
402 2 0.239473 0.989517 0.378045
403 2 0.413574 0.08058 0.0776702
404 2 0.990792 0.887916 0.812408
405 2 0.486859 0.424622 0.914221
406 2 0.934239 0.838416 0.277829
407 2 0.328701 0.848573 0.498467
408 2 0.882106 0.477429 0.376818
409 2 0.609765 0.936681 0.814974
410 2 0.772153 0.142644 0.44127
411 2 0.709102 0.371458 0.689459
412 2 0.294646 0.664997 0.871818
413 2 0.759897 0.619152 0.46889
414 2 0.960439 0.349368 0.71949
415 2 0.9979 0.380202 0.0432512
416 1 0.755636 0.638578 0.4988
417 2 0.909438 0.976157 0.297094
418 2 0.760518 0.634356 0.145458
419 2 0.742507 0.338579 0.262495
420 2 0.0708498 0.671797 0.230896
421 1 0.269872 0.38753 0.547325
422 1 0.754012 0.773836 0.22461
423 2 0.43003 0.516851 0.00357146
424 2 0.527689 0.813297 0.683071
425 1 0.955302 0.43113 0.391668
426 2 0.250106 0.83528 0.296861
427 2 0.882339 0.356362 0.298325
428 2 0.284029 0.583127 0.678138
429 2 0.674413 0.906745 0.722498
430 2 0.906544 0.583049 0.468571
431 2 0.783921 0.603316 0.505339
432 1 0.177532 0.349645 0.474004
433 2 0.230763 0.915742 0.246953
434 1 0.942136 0.767796 0.398756
435 2 0.0338559 0.410016 0.0374575
436 2 0.0983367 0.0960929 0.674107
437 2 0.0686634 0.633985 0.757223
438 2 0.70477 0.825753 0.162275
439 1 0.151217 0.984308 0.360758
440 2 0.353781 0.634959 0.473002
441 1 0.835476 0.234435 0.936542
442 1 0.691131 0.483408 0.517361
443 1 0.534651 0.873738 0.650266
444 2 0.749141 0.55079 0.533964
445 2 0.196409 0.968848 0.723517
446 2 0.394159 0.30387 0.725947
447 2 0.0528778 0.470122 0.788714
448 2 0.0307032 0.25903 0.937454
449 1 0.38374 0.32408 0.782508
450 2 0.236866 0.950891 0.420965
451 2 0.605857 0.951839 0.776658
452 2 0.541635 0.140601 0.433976
453 1 0.393929 0.253439 0.603762
454 2 0.78085 0.561265 0.508387
455 2 0.791652 0.220919 0.260742
456 2 0.261426 0.356313 0.456932
457 2 0.625118 0.991561 0.807441
458 2 0.550835 0.157288 0.394664
459 2 0.302065 0.11414 0.760412
460 2 0.797295 0.56969 0.471248
461 2 0.455058 0.812281 0.375434
462 2 0.76308 0.497846 0.295622
463 1 0.920573 0.237449 0.852505
464 2 0.763367 0.861175 0.332342
465 2 0.599585 0.932251 0.124046
466 2 0.932883 0.947459 0.281538
467 1 0.620737 0.519193 0.0819886
468 2 0.5599 0.224634 0.402304
469 2 0.841333 0.4855 0.0271458
470 2 0.992496 0.0957321 0.243953
471 2 0.783314 0.515027 0.515745
472 2 0.563446 0.723456 0.444204
473 1 0.682197 0.539147 0.484241
474 1 0.0454837 0.371458 0.215398
475 1 0.532628 0.698575 0.211719
476 2 0.95354 0.236344 0.225415
477 2 0.651813 0.990308 0.776449
478 2 0.150148 0.919472 0.7903
479 2 0.224915 0.176082 0.173082
480 2 0.60888 0.0869011 0.533096
481 2 0.479801 0.978537 0.403994
482 2 0.259872 0.766236 0.837555
483 2 0.339551 0.593317 0.501039
484 1 0.895106 0.361487 0.692732
485 1 0.0956964 0.706194 0.972055
486 2 0.78223 0.945564 0.357051
487 2 0.776256 0.0839197 0.544132
488 2 0.762375 0.605216 0.517626
489 2 0.697758 0.472278 0.114584
490 2 0.153711 0.828333 0.622082
491 2 0.734103 0.586464 0.496884
492 2 0.932714 0.753197 0.621245
493 2 0.397369 0.365776 0.862976
494 2 0.61345 0.0406494 0.822112
495 2 0.938011 0.466932 0.0594654
496 2 0.769937 0.580601 0.45435
497 2 0.101936 0.621481 0.471144
498 1 0.827186 0.30631 0.906608
499 2 0.178076 0.0759108 0.14116
500 2 0.0490815 0.0981158 0.544937
501 1 0.793903 0.593956 0.447123
502 2 0.284858 0.793706 0.552772
503 2 0.769563 0.587306 0.551234
504 1 0.667946 0.914628 0.775435
505 2 0.0562755 0.768197 0.529916
506 2 0.745657 0.52427 0.982586
507 2 0.0263888 0.407851 0.410234
508 2 0.723393 0.937234 0.875137
509 1 0.729892 0.285875 0.895204
510 2 0.646839 0.440951 0.496226
511 2 0.80855 0.927287 0.645059
512 2 0.803968 0.559105 0.516
513 1 0.48977 0.681309 0.425596
514 2 0.170168 0.758844 0.407305
515 1 0.608292 0.907306 0.716748
516 2 0.655803 0.988626 0.744974
517 1 0.853775 0.802723 0.799027
518 2 0.18568 0.812689 0.287193
519 2 0.21045 0.38064 0.948038
520 2 0.996826 0.506317 0.637812
521 2 0.470017 0.682063 0.120426
522 2 0.0298841 0.0917453 -0.00192406
523 2 0.813014 0.478753 0.378963
524 2 0.0521312 0.941126 0.716764
525 2 0.124138 0.595929 0.223653
526 2 0.853464 0.359148 0.787855
527 2 0.547519 0.981235 0.0495253
528 1 0.35212 0.757378 0.839967
529 2 0.00105075 0.0886588 0.292375
530 2 0.874637 0.789563 0.397304
531 2 0.643028 0.968432 0.826574
532 2 0.652291 0.458613 0.112018
533 2 0.827351 0.418811 0.785141
534 1 0.314232 0.137883 0.833385
535 2 0.915621 0.438272 0.338747
536 1 0.292059 0.478411 0.595884
537 1 0.541805 0.95801 0.77336
538 2 0.239798 0.393607 0.364463
539 2 0.364 0.661061 0.709325
540 2 0.830579 0.778291 0.921182
541 1 0.143214 0.637238 0.375757
542 2 0.195248 0.520695 0.923239
543 1 0.965054 0.351751 0.492858
544 1 0.689832 0.622812 0.457751
545 2 0.468492 0.103123 0.413817
546 2 0.961859 0.906019 0.0535478
547 2 0.614822 0.36909 0.778727
548 2 0.111343 0.583212 0.964098
549 2 0.102011 0.65132 0.655157
550 2 0.776639 0.612066 0.697971
551 1 0.812897 0.632889 0.473297
552 2 0.0242042 0.369126 0.69921
553 2 0.722134 0.900941 0.333801
554 2 0.155993 0.887945 0.279392
555 1 0.260668 0.535226 0.964019
556 2 0.346102 0.317206 0.976637
557 2 0.907574 0.808599 0.380628
558 1 0.575314 0.00868137 0.33728
559 2 0.179434 0.318142 0.572423
560 2 0.800608 0.369051 0.358233
561 2 0.871192 0.313767 0.864695
562 1 0.498573 0.4818 0.775171
563 2 0.525397 0.86146 0.276441
564 2 0.343507 0.43377 0.117497
565 2 0.698731 0.422469 0.149772
566 2 0.730735 0.886283 0.277111
567 2 0.574377 0.877555 0.396339
568 2 0.0683211 0.349085 0.16856
569 1 0.286152 0.346043 0.624971
570 2 0.182749 0.802201 0.832234
571 2 0.870947 0.870692 0.437399
572 2 0.232291 0.209592 0.728483
573 2 0.720019 0.536439 0.487895
574 2 0.0427065 0.0408882 0.311488
575 1 0.0771738 0.0221813 0.852288
576 2 0.776405 0.00460454 0.514458
577 2 0.388938 0.124169 0.615998
578 1 0.355406 0.484689 0.849081
579 2 0.635822 1.00047 0.753337
580 1 0.0796689 0.549585 0.862115
581 2 0.0964912 0.29507 0.152224
582 2 0.153103 0.0859574 0.619887
583 1 0.705497 0.951721 0.116366
584 2 0.406546 0.115725 0.459876
585 1 0.878549 0.463537 0.616655
586 2 0.718171 0.592262 0.507821
587 2 0.602881 0.994735 0.790673
588 2 0.733662 0.272686 0.630637
589 1 0.716444 0.406636 0.863711
590 1 0.512778 0.246348 0.129029
591 1 0.575881 0.0489578 0.763487
592 2 0.0883488 0.346036 0.665393
593 2 0.571226 0.00996368 0.760947
594 1 0.00558688 0.560195 0.364852
595 1 0.367995 0.440815 0.584768
596 2 0.258681 0.213675 0.646511
597 1 0.447269 0.874292 0.107971
598 2 0.0736721 0.530305 0.757203
599 2 0.804054 0.551081 0.451961
600 2 0.665603 0.679716 0.850736
601 2 0.775839 0.538991 0.467307
602 1 0.515436 0.245541 0.873437
603 2 0.456652 0.1407 0.863148
604 1 0.0630387 0.249505 0.665165
605 2 0.909363 0.0239307 0.336967
606 2 0.501191 0.106791 0.44991
607 1 0.840539 0.524589 0.343714
608 2 0.809522 0.129374 0.20108
609 2 0.54783 0.50959 0.309848
610 2 0.74015 0.586548 0.47464
611 2 0.610063 0.999306 0.808824
612 1 0.861446 0.3026 0.629558
613 2 0.679655 0.525727 0.332175
614 1 0.420059 0.726251 0.56769
615 2 0.351629 0.533636 0.274822
616 1 0.523342 0.912277 0.756131
617 2 0.596458 0.990912 0.803946
618 2 0.0997888 0.0133103 0.259088
619 2 0.698138 0.231625 0.305667
620 2 0.371925 0.408404 0.296483
621 2 0.084702 0.0578482 0.96447
622 2 0.757904 0.557205 0.476469
623 1 0.669165 0.199925 0.189907
624 2 0.268393 0.968829 0.123026
625 2 0.373395 0.527716 0.648894
626 2 0.720101 0.44556 0.125524
627 2 0.592445 0.967206 0.769976
628 2 0.215473 0.757202 0.672731
629 2 0.44696 0.0190284 0.147808
630 1 0.158506 0.031002 0.447135
631 2 0.221621 0.162265 0.399955
632 2 0.688646 0.547561 0.444071
633 2 0.252841 0.606621 0.517124
634 2 0.386285 0.275856 0.259447
635 2 0.282603 0.472147 0.638444
636 2 0.911368 0.948835 0.8101
637 2 0.618145 0.938646 0.789852
638 1 0.470375 0.0598264 0.252071
639 2 0.611697 0.902142 0.929946
640 2 0.767762 0.349272 0.90951
641 2 0.782724 0.572715 0.490832
642 2 0.0485325 0.801925 0.217575
643 2 0.733728 0.323684 0.445445
644 2 0.411605 0.84343 0.276037
645 1 0.650578 0.362748 0.90609
646 2 0.827081 0.195957 0.553818
647 1 0.919244 0.472191 0.298634
648 2 0.42939 0.0073817 0.434465
649 2 0.73019 0.559618 0.510317
650 2 0.0927776 0.850138 0.231057
651 2 0.0236796 0.973465 0.570712
652 2 0.79129 0.736773 0.187992
653 2 0.730342 0.612075 0.492223
654 1 0.712453 0.581828 0.686302
655 2 0.850621 0.0679912 0.196138
656 2 0.578172 0.680987 0.804991
657 2 0.12281 0.320317 0.245313
658 2 0.785782 0.345249 0.358626
659 2 0.460176 0.917131 0.19276
660 2 0.307944 0.744742 0.83794
661 1 0.157899 0.795174 0.149921
662 2 0.938457 0.364961 0.900458
663 2 0.112259 0.789741 0.205501
664 1 0.187035 0.242583 0.905745
665 2 0.208903 0.81485 0.349035
666 2 0.849511 0.570414 0.00348302
667 2 0.368983 0.918675 0.973117
668 2 0.61659 0.0898669 0.84564
669 2 0.790801 0.027643 0.185076
670 1 0.9372 0.309279 0.745349
671 2 0.912623 0.949251 0.319902
672 1 0.748712 0.543564 0.440725
673 2 0.584665 0.574714 0.265736
674 2 0.427306 0.54927 0.53681
675 2 0.234015 0.752511 0.554288
676 1 0.367094 0.129887 0.41036
677 2 0.293219 0.903605 0.85526
678 2 0.743156 0.0603201 0.882443
679 1 0.903 0.95113 0.935914
680 2 0.289599 0.958607 0.0497878
681 1 0.0146885 0.622657 0.185955
682 1 0.147712 0.566255 0.229649
683 2 0.48442 0.449784 0.465387
684 2 0.588404 0.490621 0.901283
685 2 0.286978 0.515641 0.442427
686 2 0.0189643 0.917221 0.856238
687 1 0.580834 0.90344 0.781658
688 2 0.667391 0.932324 0.167332
689 2 0.749823 0.590338 0.519921
690 2 0.0596967 0.94737 0.807244
691 2 0.959648 0.0815413 0.773199
692 1 0.656836 0.0365933 0.694793
693 2 0.390022 0.281633 0.138216
694 2 0.852935 0.605315 0.626344
695 1 0.219137 0.486665 0.627065
696 2 0.590921 0.951409 0.344433
697 2 0.90356 0.738382 0.198717
698 2 0.82192 0.518323 0.530301
699 2 0.0112117 0.027628 0.0587745
700 1 0.896773 0.139901 0.248669
701 2 0.709601 0.524254 0.441545
702 2 0.30485 0.995309 0.242104
703 2 0.826018 0.811231 0.46764
704 2 0.116285 0.753717 0.113081
705 2 0.643872 0.238381 0.278366
706 2 0.765919 0.559521 0.53804
707 2 0.994736 0.397532 0.985668
708 1 0.793835 0.489545 0.600734
709 2 0.813528 0.382149 0.0238256
710 2 0.910274 0.087178 0.348328
711 2 0.507614 0.0939662 0.273432
712 1 0.659341 0.0260294 0.499753
713 2 0.728184 0.55586 0.418828
714 1 0.791138 0.532939 0.409559
715 2 0.960974 0.891713 0.00340841
716 1 0.885978 0.2233 0.129271
717 2 0.603471 0.988535 0.752439
718 2 0.183394 0.110218 0.468894
719 2 0.759638 0.548143 0.460387
720 2 0.838956 0.886315 0.356933
721 2 0.711719 0.327253 0.298876
722 1 0.315416 0.478296 0.303566
723 2 0.788118 0.817585 0.566141
724 2 0.580397 0.950412 0.755078
725 2 0.163256 0.0739955 0.446993
726 2 0.596881 0.507989 0.503576
727 1 0.819302 0.334748 0.495461
728 1 0.159433 0.103048 0.399784
729 1 0.669656 0.12707 0.832516
730 1 0.486777 0.312243 0.0298
731 2 0.224706 0.804813 0.634723
732 1 0.052678 0.555134 0.794134
733 2 0.0346132 0.882853 0.0804351
734 2 0.268816 0.827468 0.894319
735 2 0.52078 0.966148 0.0251196
736 1 0.589716 0.0128567 0.708327
737 2 0.00853117 0.387957 0.275721
738 2 0.448821 0.284626 0.740323
739 2 0.182904 0.651231 0.687028
740 2 0.480568 0.0483384 0.786205
741 2 0.615354 0.973828 0.793362
742 1 0.736939 0.847169 0.83245
743 2 0.61952 0.967116 0.31364
744 2 0.447888 0.441011 0.691157
745 2 0.00828365 0.72602 0.148915
746 1 0.65243 0.716902 0.388367
747 2 0.211087 0.29985 0.785957
748 2 0.656995 0.457297 0.983614
749 2 0.790418 0.524922 0.45216
750 2 0.199182 0.0297121 0.677116
751 2 0.56591 0.980574 0.742593
752 2 0.645354 0.185279 0.550415
753 2 0.288832 0.449141 0.211896
754 2 0.64092 0.325782 0.366901
755 2 0.860184 0.497168 0.0127811
756 2 0.353928 0.96414 0.485105
757 2 0.768029 0.578742 0.551663
758 2 0.541988 0.519433 0.97283
759 2 0.245489 0.238996 0.436994
760 1 0.70572 0.280845 0.817031
761 2 0.380515 0.236124 0.706632
762 2 0.118985 0.981019 0.82432
763 1 0.593935 0.15499 0.31709
764 2 0.826241 0.0173187 0.492482
765 2 0.20325 0.344059 0.648326
766 2 0.699713 0.687171 0.0534871
767 2 0.4752 0.0080209 0.193318
768 2 0.631081 0.291109 0.624202
769 2 0.341457 0.0278198 0.938239
770 2 0.432343 0.274913 0.521932
771 2 0.376657 0.665414 0.674754
772 2 0.63933 0.950484 0.669973
773 1 0.696486 0.636231 0.49989
774 2 0.0956588 0.314271 0.469481
775 2 0.8438 0.548043 0.725298
776 2 0.479284 0.40402 0.732312
777 1 0.628229 0.062373 0.766315
778 2 0.806226 0.538355 0.490906
779 2 0.423658 0.77539 0.72058
780 1 0.754878 0.60865 0.401874
781 2 0.897798 0.314024 0.478327
782 2 0.12251 0.00360369 0.762945
783 1 0.651757 0.970605 0.71308
784 2 0.991637 0.51821 0.743507
785 2 0.436022 0.727082 0.955014
786 1 0.762921 0.624677 0.554919
787 2 0.382962 0.594873 0.0014362
788 2 0.478415 0.715709 0.618805
789 2 0.49642 0.139115 0.358233
790 2 0.0239273 0.714436 0.996198
791 1 0.360413 0.169672 0.465398
792 2 0.300741 0.341553 0.237185
793 2 0.875905 0.354261 0.465004
794 2 0.143388 0.817872 0.44083
795 2 0.42394 0.20632 0.863065
796 2 0.74382 0.530905 0.756324
797 2 0.658311 0.595919 0.445657
798 2 0.598008 0.568259 0.848961
799 2 0.277196 0.925743 0.265636
800 2 0.832339 0.302005 0.241151
801 2 0.254623 0.871158 0.0578115
802 2 0.810852 0.678153 0.985642
803 2 0.250271 0.951732 0.659097
804 2 0.186834 0.388181 0.263637
805 2 0.225119 0.944011 0.399118
806 1 0.535358 0.640292 0.233499
807 2 0.516794 0.768461 0.126975
808 2 0.208921 0.465531 0.946872
809 1 0.826607 0.59633 0.506766
810 2 0.238184 0.0618631 0.951013
811 2 0.777431 0.165011 0.22608
812 2 0.702617 0.507261 0.504048
813 1 0.368231 0.198428 0.616841
814 2 0.15501 0.925284 0.435055
815 2 0.930266 0.502192 0.457135
816 1 0.721977 0.592657 0.4525
817 1 0.589126 0.081971 0.797119
818 2 0.858689 0.10828 0.293286
819 1 0.817855 0.656806 0.529823
820 1 0.662252 0.92405 0.64647
821 2 0.590836 0.0302585 0.815722
822 2 0.61964 0.970741 0.816599
823 1 0.105594 0.298753 0.948012
824 2 0.113924 0.626053 0.675707
825 2 0.743529 0.525855 0.474594
826 2 0.0735114 0.295814 0.0563379
827 1 0.965944 0.0774123 0.198494
828 2 0.302316 0.0607961 0.889642
829 2 0.762965 0.507978 0.495734
830 2 0.283054 0.25866 0.71659
831 1 0.397191 0.196654 0.8336
832 2 0.216989 0.966102 0.229885
833 1 0.216001 0.666142 0.297739
834 2 0.8628 0.559058 0.559268
835 2 0.864811 0.0378017 0.138473
836 2 0.693538 0.204114 0.866177
837 2 0.00236756 0.367434 0.319569
838 2 0.740767 0.643508 0.178767
839 2 0.341591 0.0755253 0.467804
840 2 0.662746 0.969226 0.842021
841 2 0.398144 0.249648 0.105613
842 2 0.0787032 0.793008 0.935446
843 2 0.764403 0.0154919 0.443344
844 2 0.531757 0.931354 0.356707
845 2 0.126747 0.86477 0.452833
846 2 0.383782 0.63444 0.0754784
847 2 0.295244 0.818614 0.855821
848 2 0.43968 0.91275 0.689504
849 1 0.79055 0.333998 0.176702
850 2 0.0225671 0.35373 0.419997
851 2 0.648193 0.983285 0.80833
852 2 0.340493 0.303384 0.837429
853 1 0.453029 0.66174 0.922862
854 2 0.945432 0.350899 0.677866
855 2 0.835158 0.238847 0.104086
856 2 0.920038 0.585529 0.0891101
857 2 0.492263 0.14173 0.191499
858 2 0.0262752 0.736368 0.488836
859 2 0.882592 0.719932 0.361782
860 2 0.963304 0.169839 0.204746
861 2 0.743284 0.301049 0.141449
862 2 0.198396 0.449463 0.223009
863 2 0.47827 0.53879 0.453823
864 2 0.73388 0.316943 0.00120961
865 2 0.931907 0.283975 0.337979
866 2 0.72586 0.531013 0.522019
867 2 0.324232 0.702289 0.421433
868 2 0.517047 0.455443 0.806135
869 2 0.0117492 0.490998 0.554351
870 2 0.163578 0.686065 0.562961
871 2 0.564224 0.433773 0.830291
872 2 0.633754 0.943808 0.818839
873 2 0.458714 0.727695 0.450556
874 2 0.827884 0.536761 0.481084
875 2 0.629066 0.253345 0.385699
876 2 0.845745 0.0564009 0.176975
877 2 0.962661 0.0364766 0.435671
878 2 0.978236 0.979408 0.486008
879 2 0.0717426 0.715901 0.315477
880 2 0.138952 0.909577 0.465478
881 2 0.411271 0.967439 0.505519
882 1 0.430403 0.349483 0.110643
883 1 0.621423 0.0472767 0.85479
884 2 0.532393 0.196072 0.369304
885 2 0.959995 0.109569 0.151158
886 2 0.251122 0.795444 0.657978
887 1 0.0517589 0.0173097 0.387672
888 2 0.310983 0.24147 0.245754
889 2 0.101968 0.283184 0.549615
890 1 0.55745 0.346693 0.778878
891 2 0.577169 0.904373 0.572621
892 2 0.74473 0.531316 0.510376
893 2 0.653297 0.279808 0.396107
894 2 0.535863 0.988377 0.763765
895 1 0.113142 0.399411 0.778552
896 2 0.0530022 0.100205 0.620026
897 2 0.740464 0.241683 0.0732633
898 2 0.619506 0.624418 0.928036
899 2 0.485014 0.99653 0.943746
900 2 0.623025 0.991547 0.780743
901 2 0.972488 0.328222 0.297084
902 2 0.0778384 0.64524 0.398431
903 2 0.658588 0.0607538 0.796743
904 2 0.0656531 0.223435 0.525011