ITEM: TIMESTEP
49000
ITEM: NUMBER OF ATOMS
1000
ITEM: BOX BOUNDS xy xz yz pp pp pp
0.0000000000000000e+00 1.3572088000000001e+01 0.0000000000000000e+00
0.0000000000000000e+00 1.3572088000000001e+01 0.0000000000000000e+00
0.0000000000000000e+00 1.3572088000000001e+01 0.0000000000000000e+00
ITEM: ATOMS id type xs ys zs
1 2 0.992112 0.627006 0.00375942
2 2 0.841593 0.0779201 0.56942
3 1 0.635876 0.0161184 0.870203
4 2 0.0870522 0.897283 0.814412
5 2 0.891308 0.454272 0.67162
6 1 0.354862 0.217578 0.694517
7 2 0.633808 0.0404303 0.754724
8 2 0.0688444 0.443598 0.481671
9 2 0.178638 0.584449 0.175678
10 2 0.687077 0.031939 0.77966
11 2 0.967075 0.672087 0.00780909
12 2 0.656021 0.986199 0.787889
13 2 0.653703 0.512475 0.671292
14 1 0.382169 0.496656 0.377275
15 2 0.756306 0.581158 0.567677
16 2 0.946849 0.0728646 0.240542
17 1 0.725426 0.581186 0.643361
18 2 0.0201231 0.586723 0.610226
19 2 0.678416 0.0667316 0.251162
20 2 0.228655 0.338454 0.334963
21 2 0.633678 0.0172794 0.787632
22 2 0.401501 0.845066 0.851108
23 2 0.40903 0.0844052 0.427612
24 2 0.830844 0.591868 0.590733
25 1 0.180927 0.656611 0.191792
26 2 0.676507 0.372042 0.729752
27 2 0.641505 0.984279 0.746964
28 2 0.656197 0.987146 0.801331
29 2 0.739063 0.483454 0.637326
30 2 0.843956 0.948896 0.761941
31 1 0.226751 0.662778 0.22978
32 1 0.915974 0.63639 0.568109
33 1 0.766253 0.437571 0.662092
34 2 0.749184 0.587973 0.61109
35 2 0.844866 0.166699 0.800227
36 1 0.678418 0.99959 0.701882
37 2 0.773109 0.569761 0.636573
38 2 0.60599 0.997325 0.772637
39 2 0.0048492 0.176586 0.550748
40 2 0.931251 0.356028 0.740025
41 2 0.600487 0.965727 0.766505
42 2 0.61591 0.95489 0.75909
43 2 0.354382 0.497571 0.96477
44 2 0.173808 0.279415 0.322283
45 2 0.0485905 0.571116 0.759337
46 1 0.217706 0.855955 0.144983
47 2 0.800588 0.602379 0.621058
48 2 0.645988 0.99149 0.715926
49 2 0.378878 0.223758 0.476689
50 2 0.786611 0.60336 0.647944
51 2 0.782735 0.823185 0.158714
52 2 0.389201 0.546122 0.748686
53 2 0.22378 0.479171 0.490964
54 2 0.655751 0.0317037 0.796044
55 1 0.797029 0.61902 0.518944
56 1 0.535043 0.972833 0.0120603
57 2 0.209255 0.437444 0.902269
58 2 0.414017 0.262754 0.401648
59 2 0.849453 0.272126 0.106214
60 2 0.657972 0.892771 0.25833
61 2 0.51937 0.00502314 0.378204
62 2 0.388202 0.912425 0.558937
63 2 0.429064 0.348569 0.388166
64 2 0.0508656 0.0274803 0.885313
65 2 0.833071 0.577373 0.590667
66 1 0.0110621 0.718324 0.72741
67 2 0.702513 0.913126 0.819401
68 2 0.655969 0.999042 0.806694
69 1 0.0972287 0.0462481 0.847673
70 2 0.985483 0.16536 0.618544
71 1 0.540868 0.994137 0.774842
72 2 0.411466 0.043726 0.588313
73 2 0.697241 0.907602 0.64421
74 2 0.393874 0.236635 0.541428
75 2 0.726993 0.219638 0.339655
76 2 0.631212 0.0129597 0.82885
77 1 0.172075 0.163422 0.194933
78 2 0.899651 0.914366 0.593535
79 2 0.570114 0.712677 0.811006
80 2 0.648919 0.169683 0.281875
81 2 0.64492 0.000681449 0.758301
82 2 0.596305 0.148589 0.512844
83 2 0.608327 0.300133 0.288878
84 2 0.122499 0.16197 0.603358
85 1 0.754721 0.493913 0.397173
86 2 0.790964 0.567953 0.537894
87 2 0.259029 0.815817 0.845837
88 2 0.11816 0.0976137 0.0633819
89 2 0.725251 0.75922 0.126186
90 2 0.691078 0.0148124 0.804948
91 2 0.995385 0.670761 0.460017
92 2 0.111638 0.550015 0.576778
93 2 0.827887 0.605732 0.624857
94 1 0.166189 0.486278 0.670297
95 2 0.355798 0.0609926 0.123089
96 2 0.715546 0.880684 0.898826
97 2 0.684093 0.339182 0.592183
98 2 0.240104 0.953742 0.842273
99 2 0.355275 0.517236 0.828856
100 2 0.18858 0.567067 0.0993613
101 1 0.248379 0.328226 0.0433108
102 2 0.135235 0.955483 0.678882
103 2 0.742903 0.600319 0.592576
104 2 0.418738 0.746465 0.208507
105 2 0.823461 0.556199 0.60107
106 2 0.0772367 0.677702 0.714147
107 2 0.399415 0.584566 0.421668
108 2 0.774854 0.57796 0.593116
109 2 0.777392 0.578798 0.61619
110 2 0.641018 0.927569 0.656228
111 2 0.437544 0.837673 0.549682
112 1 0.138729 0.875337 0.784556
113 1 0.641916 0.733556 0.705085
114 2 0.811566 0.639823 0.591441
115 2 0.297092 0.0237194 0.643935
116 2 0.483621 0.0038552 0.0455531
117 2 0.509172 0.880768 0.17135
118 2 0.82072 0.575152 0.613721
119 2 0.128125 0.858382 0.705186
120 2 0.776409 0.54842 0.620798
121 2 0.647244 0.0434135 0.757903
122 2 0.697238 0.910984 0.842837
123 2 0.817086 0.618442 0.643832
124 2 0.831093 0.581897 0.606264
125 1 0.831579 0.660401 0.550024
126 2 0.632615 0.982468 0.768116
127 2 0.794208 0.634841 0.620974
128 2 0.264088 0.0249603 0.0137645
129 1 0.943043 0.00356074 0.312401
130 2 0.746001 0.381772 0.273264
131 2 0.612559 0.656304 0.812931
132 2 0.0480187 0.952268 0.348008
133 2 0.824574 0.640694 0.604826
134 2 0.544709 0.710304 0.140144
135 2 0.633592 0.00432101 0.790229
136 2 0.397316 0.827722 0.710114
137 1 0.648454 0.961611 0.246962
138 2 0.64465 0.967711 0.81803
139 2 0.6455 0.0177853 0.757186
140 1 0.768735 0.64871 0.545403
141 2 0.723642 0.182323 0.752716
142 2 0.231126 0.727782 0.409464
143 2 0.958943 0.120301 0.279613
144 2 0.0814593 0.455353 0.891492
145 2 0.216314 0.150599 0.892435
146 2 0.113723 0.702506 0.261015
147 1 0.60498 0.928564 0.741231
148 1 0.877416 0.600775 0.589894
149 2 0.950056 0.112888 0.0737386
150 1 0.873501 0.579267 0.627179
151 2 0.562891 0.0115658 0.0281718
152 2 0.0861089 0.481219 0.545383
153 1 0.795335 0.662434 0.64336
154 1 0.165858 0.291435 0.727661
155 2 0.60187 0.559585 0.917726
156 2 0.635653 0.401019 0.0177424
157 2 0.264112 0.999097 0.799869
158 2 0.660522 0.391116 0.891597
159 2 0.626874 0.00456287 0.734348
160 2 0.640332 0.992824 0.769697
161 2 0.633145 0.997366 0.763946
162 2 0.631396 0.0445898 0.746304
163 2 0.64842 0.0836579 0.735281
164 2 0.558497 0.9329 0.414801
165 2 0.778899 0.605444 0.631318
166 2 0.0867855 0.763621 0.162395
167 2 0.802525 0.319212 0.642817
168 2 0.639113 0.989468 0.818797
169 2 0.439296 0.663748 0.348887
170 2 0.399058 0.553323 0.980392
171 2 0.208001 0.458181 0.773898
172 2 0.129432 0.298149 0.773788
173 1 0.809917 0.587491 0.684467
174 2 0.164174 0.851273 0.162009
175 2 0.410655 0.894832 0.116632
176 2 0.849387 0.890594 0.959656
177 1 0.751957 0.323512 0.558701
178 2 0.709667 0.231997 0.679637
179 2 0.403648 0.181419 0.391692
180 2 0.764425 0.582554 0.579589
181 2 0.684982 0.949321 0.879954
182 2 0.162181 0.720328 0.273961
183 2 0.170356 0.447592 0.379047
184 2 0.290675 0.00411639 0.45695
185 2 0.816443 0.624013 0.617082
186 2 0.655089 0.365678 0.295395
187 2 0.0676101 0.588713 0.789117
188 1 0.702019 0.063322 0.803617
189 2 0.622848 0.0160951 0.807597
190 2 0.655798 0.472594 0.513157
191 2 0.991 0.748973 0.477276
192 2 0.629453 0.0293782 0.795233
193 2 0.613636 0.0456977 0.768193
194 2 0.193375 0.604211 0.950041
195 2 0.711264 0.96199 0.805541
196 2 0.585725 0.989856 0.788595
197 2 0.836748 0.996345 0.847799
198 2 0.0887846 0.0040887 0.24219
199 2 0.287023 0.0958654 0.106737
200 1 0.739835 0.681331 0.624308
201 2 0.271152 0.307046 0.107887
202 2 0.398556 0.745508 0.830501
203 2 0.617746 0.104491 0.823088
204 2 0.922418 0.596892 0.44747
205 2 0.676669 0.990772 0.802826
206 2 0.690005 0.16212 0.258617
207 2 0.720911 0.400152 0.757101
208 2 0.372075 0.190333 0.26213
209 2 0.779483 0.550499 0.569966
210 2 0.46695 0.115949 0.445529
211 2 0.161134 0.676198 0.0423223
212 1 0.685184 0.947796 0.823143
213 2 0.760755 0.645063 0.593476
214 2 0.790987 0.575572 0.565201
215 2 0.802714 0.585413 0.579187
216 2 0.212418 0.608712 0.970895
217 2 0.459145 0.0747863 0.409865
218 2 0.739597 0.72255 0.54879
219 2 0.624288 0.0806332 0.796854
220 2 0.7138 0.928335 0.501424
221 2 0.562755 0.762596 0.51397
222 2 0.236891 0.460768 0.370168
223 2 0.263019 0.507509 0.345639
224 2 0.643244 0.0425245 0.782156
225 1 0.432286 0.645423 0.463378
226 2 0.645576 0.0213891 0.809507
227 2 0.898233 0.826748 0.261732
228 2 0.765958 0.452493 0.508486
229 2 0.831444 0.0476205 0.49283
230 1 0.387773 0.367649 0.843142
231 2 0.640312 0.999279 0.745172
232 2 0.692665 0.404072 0.371752
233 1 0.836218 0.785049 0.201274
234 2 0.78073 0.576545 0.642412
235 2 0.781563 0.55377 0.604545
236 2 0.234566 0.625069 0.918202
237 2 0.220551 0.0136926 0.660132
238 1 0.990377 0.417298 0.5011
239 1 0.728267 0.634819 0.34265
240 2 0.757426 0.618061 0.626057
241 2 0.584916 0.0652055 0.869931
242 1 0.771531 0.688667 0.585255
243 1 0.677311 0.628148 0.574527
244 2 0.796604 0.924198 0.173005
245 2 0.442381 0.6539 0.956473
246 1 0.247407 0.404577 0.451527
247 2 0.156007 0.931217 0.800576
248 2 0.289652 0.0127466 0.13725
249 2 0.512706 0.339831 0.163421
250 2 0.653634 0.00888648 0.793418
251 2 0.678594 0.349271 0.349902
252 2 0.88589 0.24041 0.69101
253 2 0.879154 0.568197 0.14339
254 2 0.455096 0.842571 0.30792
255 2 0.604263 0.0151067 0.809371
256 2 0.589981 0.0228496 0.742774
257 2 0.0840364 0.96724 0.654127
258 2 0.125654 0.408242 0.400448
259 1 0.00847882 0.50989 0.517871
260 2 0.757038 0.619093 0.599036
261 1 0.777107 0.114282 0.689041
262 2 0.507221 0.218703 0.63648
263 2 0.806627 0.587189 0.591811
264 2 0.485637 0.811107 0.869935
265 1 0.54768 0.848995 0.44754
266 2 0.0777045 0.0983238 0.934457
267 2 0.665898 0.0512033 0.77426
268 1 0.610301 0.940536 0.832314
269 1 0.240164 0.159579 0.426532
270 2 0.964938 0.447635 0.209969
271 2 0.108405 0.594776 0.328281
272 2 0.392306 0.821468 0.0319932
273 1 0.69966 0.597518 0.611808
274 2 0.819177 0.567375 0.572933
275 2 0.465499 0.754438 0.671887
276 2 0.944148 0.4818 0.610279
277 2 0.80378 0.397332 0.681243
278 2 0.874187 0.797098 0.935926
279 2 0.738569 0.0260223 0.735471
280 1 0.755503 0.359047 0.129229
281 2 0.712049 0.587517 0.476272
282 2 0.627218 0.000968812 0.820146
283 2 0.04321 0.23649 0.80316
284 1 0.650974 0.0759651 0.770735
285 2 0.622498 0.96999 0.767161
286 2 0.629603 0.996761 0.804175
287 1 0.147055 0.570101 0.298099
288 2 0.625909 0.0214787 0.773288
289 2 0.137851 0.272683 0.807614
290 2 0.552209 0.610864 0.868586
291 2 0.792113 0.555643 0.633309
292 2 0.321177 0.845669 0.0938848
293 2 0.786152 0.569656 0.614498
294 2 0.311393 0.418228 0.389488
295 2 0.81493 0.589516 0.578843
296 2 0.410097 0.748785 0.607121
297 2 0.638634 0.957593 0.762914
298 2 0.765966 0.620234 0.607204
299 1 0.708355 0.00286595 0.735532
300 2 0.624582 0.975242 0.836366
301 2 0.336513 0.369637 0.149478
302 2 0.398499 0.382877 0.59542
303 2 0.657651 0.0657053 0.797865
304 1 0.998203 0.129848 0.500027
305 2 0.903809 0.227851 0.818953
306 2 0.642613 0.132582 0.828278
307 2 0.292601 0.786535 0.905029
308 2 0.515288 0.462188 0.542323
309 2 0.0725806 0.527029 0.176872
310 2 0.484958 0.801792 0.735982
311 2 0.770482 0.593403 0.570485
312 2 0.648597 0.951153 0.807641
313 2 0.839283 0.604554 0.568704
314 2 0.0804955 0.144721 0.0624516
315 2 0.777832 0.89421 0.212044
316 2 0.913766 0.220791 0.0372459
317 2 0.590884 0.990009 0.770341
318 2 0.245841 0.922476 0.32141
319 2 0.0534615 0.968777 0.667764
320 2 0.763818 0.622097 0.574644
321 2 0.804994 0.569801 0.598265
322 2 0.041915 0.332494 0.422227
323 2 0.34521 0.376349 0.260694
324 2 0.349933 0.286419 0.847236
325 2 0.75299 0.581561 0.624606
326 2 0.603948 0.97136 0.740642
327 2 0.129493 0.854323 0.206209
328 2 0.825597 0.622019 0.55875
329 1 0.139086 0.308229 0.100946
330 2 0.799638 0.598081 0.592443
331 2 0.78361 0.563527 0.504478
332 2 0.658962 0.322299 0.319074
333 2 0.209271 0.912838 0.914866
334 2 0.657947 0.975196 0.72078
335 1 0.866593 0.267552 0.740147
336 2 0.715091 0.19781 0.339056
337 2 0.376143 0.934622 0.517845
338 1 0.491129 0.00848047 0.954673
339 2 0.751186 0.554641 0.583292
340 2 0.0707109 0.347516 0.690189
341 2 0.58354 0.968218 0.77157
342 2 0.812957 0.933621 0.517777
343 2 0.797158 0.572742 0.607482
344 1 0.796358 0.15249 0.859449
345 1 0.813129 0.515668 0.596389
346 1 0.562814 0.941104 0.771643
347 1 0.0234904 0.993124 0.748907
348 2 0.298869 0.823488 0.175033
349 2 0.832278 0.129572 0.526108
350 2 0.412391 0.445474 0.910668
351 2 0.237307 0.94335 0.297327
352 2 0.5263 0.703299 0.77278
353 1 0.862216 0.643632 0.579042
354 1 0.679338 0.146735 0.00549514
355 2 0.385803 0.377547 0.554794
356 2 0.816562 0.5266 0.628847
357 2 0.0541204 0.410422 0.65076
358 2 0.373307 0.476399 0.531257
359 2 0.819424 0.0244194 0.692954
360 2 0.66718 0.961156 0.774092
361 1 0.727916 0.16898 0.825064
362 2 0.502632 0.922286 0.153758
363 1 0.571248 0.0569396 0.757782
364 2 0.628149 0.0590799 0.794765
365 2 0.811915 0.602891 0.574921
366 2 0.798628 0.542702 0.610711
367 1 0.108925 0.652056 0.309226
368 1 0.167562 0.201824 0.153188
369 2 0.156502 0.175348 0.563972
370 2 0.44091 0.387595 0.52988
371 2 0.771448 0.602925 0.601992
372 1 0.462779 0.0615428 0.295245
373 2 0.313319 0.0113815 0.340623
374 2 0.283327 0.469934 0.654784
375 2 0.6296 0.983751 0.782477
376 2 0.350385 0.440853 0.377485
377 2 0.333994 0.0407558 0.343287
378 2 0.0588511 0.661847 0.0264813
379 2 0.00383001 0.0602046 0.64703
380 2 0.67271 0.0287137 0.794184
381 2 0.87152 0.0944521 0.467085
382 2 0.297091 0.226109 0.444275
383 2 0.963673 0.461289 0.408339
384 1 0.191574 0.496091 0.851544
385 2 0.0597292 0.981877 0.99564
386 2 0.355583 0.697131 0.815928
387 1 0.0815536 0.610269 0.690612
388 2 0.61979 0.986859 0.730752
389 2 0.741856 0.611453 0.629408
390 2 0.180433 0.556681 0.803607
391 2 0.425651 0.0944736 0.123947
392 1 0.852486 0.601497 0.663544
393 2 0.555536 0.348096 0.530103
394 2 0.500031 0.0211235 0.0805735
395 2 0.660381 0.021203 0.765132
396 2 0.592808 0.00467268 0.791734
397 2 0.795024 0.613719 0.598397
398 1 0.0363271 0.00736572 0.234753
399 1 0.783229 0.638867 0.681556
400 1 0.859954 0.249938 0.160246
401 2 0.638735 0.0188792 0.740388
402 2 0.793303 0.167911 0.497012
403 2 0.365478 0.567521 0.976016
404 2 0.903995 0.0364352 0.191283
405 2 0.181914 0.610236 0.435259
406 2 0.678789 0.913128 0.308048
407 2 0.616062 0.508517 0.682563
408 2 0.805331 0.606043 0.600965
409 2 0.679435 0.029917 0.75716
410 2 0.53305 0.140813 0.199394
411 2 0.372757 0.611474 0.300999
412 2 0.237362 0.890897 0.346459
413 2 0.771561 0.583149 0.541135
414 2 0.462494 0.458445 0.459999
415 2 0.537666 0.981841 0.861466
416 1 0.736955 0.608729 0.512705
417 2 0.685345 0.531013 0.392469
418 2 0.323951 0.514336 0.685896
419 2 0.0172416 0.482252 0.811129
420 2 0.0557423 0.454816 0.686669
421 1 0.374677 0.337099 0.45151
422 1 0.657402 0.974517 0.849128
423 2 0.259872 0.748906 0.578026
424 2 0.631334 0.960864 0.734017
425 1 0.0974318 0.379156 0.430153
426 2 0.889772 0.209067 0.308453
427 2 0.866332 0.245886 0.320714
428 2 0.185947 0.20687 0.968043
429 2 0.639019 0.016201 0.771
430 2 0.893995 0.529463 0.618764
431 2 0.816542 0.575269 0.583441
432 1 0.295454 0.489816 0.233171
433 2 0.66474 0.760599 0.659349
434 1 0.824616 0.842272 0.979909
435 2 0.076227 0.0650505 0.515479
436 2 0.845511 0.596334 0.622706
437 2 0.10604 0.677462 0.989363
438 2 0.42103 0.701876 0.312083
439 1 0.341061 0.757526 0.132651
440 2 0.927691 0.534204 0.692631
441 1 0.102437 0.555495 0.163532
442 1 0.705312 0.540918 0.611383
443 1 0.213068 0.530135 0.31053
444 2 0.798923 0.614362 0.579935
445 2 0.0390175 0.808061 0.701225
446 2 0.424783 0.642598 0.56853
447 2 0.692295 0.36637 0.930779
448 2 0.465084 0.544007 0.984766
449 1 0.280249 0.39359 0.1102
450 2 0.93609 0.701824 0.784647
451 2 0.60157 0.980253 0.809647
452 2 0.27359 0.132972 0.609388
453 1 0.580167 0.27042 0.612601
454 2 0.813847 0.579255 0.607564
455 2 0.897039 0.166502 0.567812
456 2 0.793946 0.609059 0.970951
457 2 0.584429 0.00381329 0.76453
458 2 0.677767 0.982815 0.751016
459 2 0.217255 0.162124 0.541481
460 2 0.79412 0.607657 0.635859
461 2 0.404048 0.48942 0.0376874
462 2 0.789324 0.568338 0.57614
463 1 0.199965 0.661227 0.98366
464 2 0.877801 0.329595 0.822159
465 2 0.460808 0.972381 0.116324
466 2 0.270375 0.490051 0.455245
467 1 0.298921 0.686854 0.843279
468 2 0.544977 0.652058 0.383784
469 2 0.794036 0.608974 0.657417
470 2 0.203944 0.142761 0.704126
471 2 0.785836 0.614122 0.584819
472 2 0.771837 0.627235 0.589122
473 1 0.849258 0.509876 0.59446
474 1 0.210991 0.365479 0.256929
475 1 0.137843 0.614734 0.998025
476 2 0.54897 0.245326 0.944746
477 2 0.601616 0.0182823 0.776908
478 2 0.510255 0.10545 0.0285968
479 2 0.199451 0.168576 0.402356
480 2 0.58186 0.977196 0.750178
481 2 0.793998 0.593602 0.619319
482 2 0.715635 0.0785383 0.983641
483 2 0.789448 0.612781 0.557971
484 1 0.329277 0.0112107 0.909464
485 1 0.237738 0.17387 0.318877
486 2 0.809188 0.562022 0.543416
487 2 0.180437 0.486887 0.24098
488 2 0.803598 0.627428 0.629584
489 2 0.0487018 0.569517 0.544264
490 2 0.515125 0.0441547 0.424292
491 2 0.838504 0.595983 0.555808
492 2 0.787012 0.617978 0.624587
493 2 0.829499 0.611423 0.58993
494 2 0.623408 0.992633 0.752535
495 2 0.607113 0.0260173 0.792252
496 2 0.789097 0.649477 0.579541
497 2 0.212896 0.35084 0.507037
498 1 0.169227 0.146456 0.86471
499 2 0.131695 0.709368 0.189603
500 2 0.443304 0.929122 0.542872
501 1 0.781362 0.512329 0.556629
502 2 0.86331 0.443026 0.375487
503 2 0.830365 0.555897 0.564924
504 1 0.675299 0.916792 0.78039
505 2 0.387063 0.53134 0.959145
506 2 0.977293 0.750136 0.600734
507 2 0.0755779 0.456114 0.811788
508 2 0.611053 0.03944 0.792025
509 1 0.581603 0.0524243 0.805629
510 2 0.840514 0.589424 0.57952
511 2 0.609737 0.0295994 0.747701
512 2 0.814714 0.582295 0.548228
513 1 0.481474 0.124667 0.886048
514 2 0.639905 0.947101 0.737375
515 1 0.623035 0.948632 0.698816
516 2 0.62176 0.966954 0.761072
517 1 0.871203 0.600716 0.54794
518 2 0.626067 0.29561 0.485668
519 2 0.656426 0.0421635 0.805481
520 2 0.760652 0.0301162 0.879168
521 2 0.98029 0.613646 0.0716949
522 2 0.146164 0.891316 0.332378
523 2 0.817968 0.571479 0.643591
524 2 0.547722 0.38569 0.861338
525 2 0.425887 0.107566 0.324724
526 2 0.462858 0.135665 0.960904
527 2 0.770359 0.575439 0.610839
528 1 0.454911 0.597657 0.975834
529 2 0.773475 0.554012 0.560519
530 2 0.752973 0.244782 0.335534
531 2 0.663296 0.957414 0.755516
532 2 0.677289 0.978995 0.764432
533 2 0.372571 0.782979 0.41467
534 1 0.533478 0.0940473 0.806569
535 2 0.69103 0.47067 0.791226
536 1 0.774114 0.507977 0.616844
537 1 0.561708 0.978164 0.826506
538 2 0.168325 0.790419 0.147299
539 2 0.803481 0.489751 0.627471
540 2 0.367693 0.25017 0.987266
541 1 0.847672 0.537888 0.53807
542 2 0.602974 0.964128 0.807124
543 1 0.470138 0.150592 0.708552
544 1 0.821571 0.723955 0.550055
545 2 0.814577 0.563248 0.623831
546 2 0.174164 0.940852 0.739336
547 2 0.799946 0.35279 0.0688129
548 2 0.578427 0.00601027 0.809439
549 2 0.304567 0.699779 0.883625
550 2 0.735644 0.94516 0.237963
551 1 0.858576 0.561519 0.579061
552 2 0.40543 0.272193 0.961172
553 2 0.826526 0.562486 0.553396
554 2 0.597829 0.995347 0.821935
555 1 0.40066 0.674614 0.91453
556 2 0.652601 0.980075 0.11599
557 2 0.966832 0.619562 0.448427
558 1 0.787243 0.465329 0.75363
559 2 0.53427 0.42908 0.628931
560 2 0.348924 0.977019 0.382236
561 2 0.421725 0.914803 0.725014
562 1 0.721716 0.547721 0.361018
563 2 0.769969 0.649025 0.608724
564 2 0.425277 0.986764 0.803549
565 2 0.619917 0.605667 0.540049
566 2 0.436229 0.723024 0.196071
567 2 0.744611 0.620666 0.596818
568 2 0.250426 0.826785 0.146655
569 1 0.725084 0.195118 0.252158
570 2 0.0601501 0.381788 0.875368
571 2 0.510206 0.80439 0.174704
572 2 0.242653 0.179777 0.264375
573 2 0.804276 0.567178 0.588961
574 2 0.0305357 0.961937 0.648219
575 1 0.860242 0.545429 0.684192
576 2 0.918684 0.895356 0.892239
577 2 0.681285 0.988903 0.785066
578 1 0.70356 0.0741794 0.755528
579 2 0.630874 0.0195029 0.767668
580 1 0.113026 0.831342 0.837425
581 2 0.296442 0.913037 0.789825
582 2 0.78608 0.145772 0.585574
583 1 0.102858 0.531162 0.892532
584 2 0.10315 0.140483 0.0880555
585 1 0.804174 0.523685 0.676783
586 2 0.824249 0.585878 0.622979
587 2 0.666702 0.010154 0.790403
588 2 0.686849 0.0918388 0.406208
589 1 0.614917 0.144435 0.764858
590 1 0.280517 0.415432 0.650532
591 1 0.60386 0.017633 0.711273
592 2 0.616421 0.288473 0.736247
593 2 0.613858 0.958289 0.790792
594 1 0.323732 0.938592 0.996747
595 1 0.978068 0.559516 0.151074
596 2 0.187711 0.269295 0.560243
597 1 0.158013 0.5185 0.197577
598 2 0.698422 0.0455052 0.157601
599 2 0.761437 0.557899 0.605571
600 2 0.369165 0.698039 0.432658
601 2 0.839647 0.615746 0.611929
602 1 0.424065 0.459239 0.548788
603 2 0.269197 0.0423859 0.595324
604 1 0.533522 0.104658 0.0875019
605 2 0.710047 0.94442 0.223719
606 2 0.403563 0.876372 0.215504
607 1 0.838028 0.552842 0.650009
608 2 0.837461 0.470446 0.829991
609 2 0.380299 0.27994 0.457586
610 2 0.799916 0.63897 0.596952
611 2 0.647351 0.945718 0.782179
612 1 0.12727 0.292147 0.606545
613 2 0.135015 0.588745 0.744544
614 1 0.417506 0.728797 0.76191
615 2 0.724825 0.971955 0.395674
616 1 0.587766 0.981189 0.870834
617 2 0.66334 0.00705783 0.810935
618 2 0.258429 0.495964 0.647374
619 2 0.590382 0.761671 0.9127
620 2 0.32072 0.931545 0.508966
621 2 0.696792 0.576861 0.507944
622 2 0.787167 0.595985 0.575745
623 1 0.347595 0.46137 0.101287
624 2 0.950996 0.305759 0.458136
625 2 0.529477 0.184439 0.0223505
626 2 0.49212 0.278941 0.0673147
627 2 0.625444 0.96075 0.813347
628 2 0.189051 0.602574 0.89665
629 2 0.25622 0.329249 0.517032
630 1 0.123019 0.534191 0.635417
631 2 0.163223 0.483206 0.487762
632 2 0.82191 0.589096 0.562951
633 2 0.36007 0.897487 0.857682
634 2 0.122039 0.540331 0.335329
635 2 0.475781 0.535568 0.605998
636 2 0.608988 0.988027 0.779607
637 2 0.676665 0.0231194 0.74244
638 1 0.931823 0.263019 0.431986
639 2 0.619264 0.986843 0.814947
640 2 0.407124 0.381384 0.554066
641 2 0.796208 0.573249 0.65431
642 2 0.0814146 0.871749 0.798215
643 2 0.0702296 0.656856 0.434678
644 2 0.918896 0.229571 0.757377
645 1 0.904951 0.28411 0.276682
646 2 0.666863 0.998159 0.750208
647 1 0.0360782 0.561549 0.281468
648 2 0.281521 0.647874 0.841518
649 2 0.816918 0.602349 0.60428
650 2 0.904682 0.365568 0.0524025
651 2 0.487402 0.524132 0.228834
652 2 0.868489 0.910447 0.240381
653 2 0.804081 0.548384 0.58346
654 1 0.855946 0.614848 0.478988
655 2 0.5001 0.812317 0.623664
656 2 0.651626 0.0281305 0.771705
657 2 0.16677 0.683672 0.116108
658 2 0.203778 0.402304 0.66283
659 2 0.640688 0.0283287 0.819755
660 2 0.346758 0.139233 0.978997
661 1 0.251316 0.358486 0.148535
662 2 0.879268 0.431282 0.360615
663 2 0.0260697 0.949805 0.559723
664 1 0.210636 0.0645166 0.817611
665 2 0.0982477 0.961786 0.275509
666 2 0.00160788 0.030056 0.502226
667 2 0.545957 0.882621 0.203547
668 2 0.63099 0.968174 0.789036
669 2 0.267539 0.126369 0.558122
670 1 0.0631336 0.583479 0.343393
671 2 0.723318 0.357182 0.515445
672 1 0.724095 0.613494 0.552669
673 2 0.230211 0.151891 0.68513
674 2 0.0934812 0.87976 0.829421
675 2 0.139213 0.594182 0.620693
676 1 0.36505 0.828271 0.660359
677 2 0.638244 0.0253177 0.729763
678 2 0.658886 0.958381 0.808926
679 1 0.32234 0.907628 0.336514
680 2 0.831575 0.451217 0.561275
681 1 0.447446 0.820183 0.907652
682 1 0.228149 0.392171 0.765985
683 2 0.567357 0.168655 0.127696
684 2 0.032827 0.468316 0.533125
685 2 0.398346 0.493042 0.987331
686 2 0.316416 0.578067 0.946439
687 1 0.706678 0.932516 0.755616
688 2 0.202199 0.583769 0.928022
689 2 0.788593 0.636388 0.603016
690 2 0.817338 0.551852 0.609356
691 2 0.283489 0.967904 0.817239
692 1 0.600011 0.0851473 0.76209
693 2 0.433894 0.567327 0.988137
694 2 0.418436 0.820502 0.484805
695 1 0.544146 0.174788 0.100611
696 2 0.207863 0.868598 0.340074
697 2 0.30198 0.273475 0.0309109
698 2 0.787462 0.597672 0.59418
699 2 0.531567 0.442155 0.646716
700 1 0.81678 0.124208 0.728971
701 2 0.779173 0.606581 0.596783
702 2 0.719317 0.104487 0.788363
703 2 0.144379 0.119972 0.677945
704 2 0.0641884 0.300943 0.258183
705 2 0.955538 0.582859 0.623479
706 2 0.816593 0.619231 0.577632
707 2 0.313442 0.714614 0.373008
708 1 0.770977 0.602864 0.438723
709 2 0.139106 0.671861 0.264239
710 2 0.655814 0.475602 0.731413
711 2 0.611731 0.162146 0.12015
712 1 0.129092 0.784503 0.0601181
713 2 0.801602 0.597568 0.635443
714 1 0.748844 0.558424 0.527132
715 2 0.685106 0.00251263 0.773805
716 1 0.92392 0.814109 0.0193459
717 2 0.617078 0.977734 0.742346
718 2 0.660191 0.863088 0.280581
719 2 0.834061 0.628901 0.59137
720 2 0.391266 0.16204 0.441469
721 2 0.831757 0.32752 0.090626
722 1 0.397636 0.834865 0.134814
723 2 0.538533 0.088649 0.625941
724 2 0.612072 0.0129517 0.836528
725 2 0.213983 0.474449 0.650431
726 2 0.802863 0.54522 0.560427
727 1 0.151376 0.0984774 0.750145
728 1 0.361224 0.0774988 0.279856
729 1 0.579219 0.960504 0.713966
730 1 0.557471 0.930124 0.920735
731 2 0.210587 0.730174 0.141205
732 1 0.399932 0.689806 0.388624
733 2 0.680234 0.129182 0.279742
734 2 0.81229 0.417885 0.532915
735 2 0.158591 0.860864 0.2599
736 1 0.563392 0.0198336 0.731546
737 2 0.340577 0.897745 0.925491
738 2 0.975191 0.379198 0.129386
739 2 0.662514 0.0128019 0.747939
740 2 0.952398 0.499396 0.304651
741 2 0.63668 0.990097 0.788152
742 1 0.675504 0.0292622 0.841037
743 2 0.822276 0.59673 0.6161
744 2 0.305542 0.36848 0.641171
745 2 0.647329 0.91258 0.939521
746 1 0.960716 0.201677 0.773573
747 2 0.979075 0.0379773 0.420074
748 2 0.28978 0.407959 0.45936
749 2 0.801192 0.577224 0.63954
750 2 0.427345 0.745777 0.456982
751 2 0.610007 0.00636086 0.779868
752 2 0.354295 0.803227 0.167708
753 2 0.162387 0.515653 0.559675
754 2 0.277731 0.440861 0.224194
755 2 0.166314 0.719341 0.714694
756 2 0.115509 0.786461 0.125665
757 2 0.831026 0.598896 0.641664
758 2 0.890035 0.18725 0.531712
759 2 0.916883 0.451618 0.404477
760 1 0.771489 0.315956 0.739697
761 2 0.641911 0.00373557 0.814182
762 2 0.657129 0.979028 0.748646
763 1 0.491834 0.0567203 0.381112
764 2 0.222378 0.0633429 0.409645
765 2 0.0747259 0.257407 0.340073
766 2 0.574878 0.707546 0.747988
767 2 0.981759 0.390014 0.645661
768 2 0.121059 0.645044 0.356258
769 2 0.877665 0.473558 0.498585
770 2 0.779025 0.595324 0.550014
771 2 0.130272 0.143295 0.977882
772 2 0.76066 0.239049 0.809104
773 1 0.825751 0.673332 0.605162
774 2 0.529729 0.123109 0.15274
775 2 0.202439 0.172648 0.926514
776 2 0.751245 0.23909 0.855132
777 1 0.716155 0.989636 0.774224
778 2 0.754991 0.601413 0.574133
779 2 0.429309 0.173264 0.512996
780 1 0.728476 0.664034 0.581842
781 2 0.600263 0.987056 0.744962
782 2 0.806226 0.484197 0.186871
783 1 0.712121 0.0106986 0.825385
784 2 0.822624 0.620531 0.596189
785 2 0.12901 0.926768 0.235897
786 1 0.844524 0.641737 0.642821
787 2 0.687233 0.0181505 0.157921
788 2 0.296287 0.575778 0.472422
789 2 0.308894 0.417892 0.996248
790 2 0.370446 0.133133 0.868562
791 1 0.455248 0.813493 0.729596
792 2 0.520211 0.29198 0.445006
793 2 0.892977 0.0248629 0.244242
794 2 0.460551 0.0509853 0.49103
795 2 0.493756 0.964292 0.910511
796 2 0.492755 0.216299 0.0419963
797 2 0.784968 0.648415 0.618647
798 2 0.337481 0.356284 0.399316
799 2 0.649869 0.952766 0.776877
800 2 0.362407 0.342578 -0.000289597
801 2 0.612487 0.85351 0.0764907
802 2 0.0961716 0.853905 0.369132
803 2 0.374378 0.757529 0.775546
804 2 0.278844 0.410319 0.948942
805 2 0.814497 0.810994 0.293702
806 1 0.355698 0.872087 0.0600444
807 2 0.968869 0.770718 0.979264
808 2 0.0758459 0.173013 0.0671416
809 1 0.874027 0.624015 0.629275
810 2 0.148181 0.347139 0.13352
811 2 0.223285 0.503858 0.00631199
812 2 0.844336 0.555007 0.608907
813 1 0.208183 0.315878 0.0719213
814 2 0.154774 0.993338 0.694736
815 2 0.793068 0.613818 0.607489
816 1 0.721759 0.56847 0.571849
817 1 0.581327 0.021798 0.844949
818 2 0.140574 0.666336 0.138074
819 1 0.824714 0.583227 0.511618
820 1 0.677025 0.0638008 0.728182
821 2 0.592004 0.986725 0.838787
822 2 0.671854 0.977741 0.813195
823 1 0.847686 0.864184 0.237183
824 2 0.536919 0.806137 0.389148
825 2 0.759348 0.578246 0.594098
826 2 0.491306 0.411488 0.977445
827 1 0.0715657 0.750682 0.330428
828 2 0.520965 0.764685 0.338352
829 2 0.767483 0.564016 0.589204
830 2 0.787965 0.399881 0.530981
831 1 0.628461 0.0542143 0.839004
832 2 0.342407 0.991738 0.508264
833 1 0.414075 0.672066 0.273743
834 2 0.806191 0.62715 0.613228
835 2 0.360435 0.362472 0.340696
836 2 0.798556 0.581523 0.565984
837 2 0.411337 0.749244 0.163298
838 2 0.428238 0.565366 0.945472
839 2 0.500111 0.217819 0.1156
840 2 0.615324 0.00746047 0.757904
841 2 0.0574683 0.387238 0.817671
842 2 0.236159 0.792825 0.1473
843 2 0.793286 0.294321 0.419801
844 2 0.709836 0.653148 0.438608
845 2 0.857962 0.570536 0.510455
846 2 0.753737 0.550452 0.623562
847 2 0.636942 0.303199 0.263665
848 2 0.436374 0.511003 0.0378755
849 1 0.855773 0.379467 0.21929
850 2 -0.00136217 0.203546 0.960601
851 2 0.677311 0.96422 0.795152
852 2 0.641943 0.113386 0.756585
853 1 0.469969 0.468471 0.0220084
854 2 0.740372 0.219072 0.219801
855 2 0.017223 0.930125 0.194273
856 2 0.988114 0.0643521 0.507326
857 2 0.696304 0.372074 0.774209
858 2 0.118462 0.445566 0.252874
859 2 0.754715 0.648008 0.619203
860 2 0.621031 0.266681 0.0596006
861 2 0.759908 0.847036 0.107365
862 2 0.0847962 0.512469 0.754796
863 2 0.619836 0.06759 0.807766
864 2 0.658714 0.00608957 0.823405
865 2 0.851064 0.310802 0.809023
866 2 0.793483 0.573802 0.594696
867 2 0.736229 0.228673 0.0362213
868 2 0.59478 0.353378 0.427278
869 2 0.147418 0.513421 0.22889
870 2 0.799549 0.603065 0.544126
871 2 0.704418 0.88115 0.869936
872 2 0.66715 0.995556 0.768676
873 2 0.258199 0.0253196 0.79589
874 2 0.762051 0.584044 0.637577
875 2 0.096774 0.547039 0.718973
876 2 0.164443 0.477022 0.79858
877 2 0.749752 0.046101 0.710042
878 2 0.930223 0.167376 0.0502594
879 2 0.468415 0.06086 0.735997
880 2 0.415687 0.776281 0.77369
881 2 0.745113 0.222996 0.975762
882 1 0.0378158 0.525758 0.131948
883 1 0.8308 0.32881 0.71645
884 2 0.0315495 0.7319 0.156938
885 2 0.314732 0.390587 0.676658
886 2 0.78109 0.632247 0.603597
887 1 0.457213 0.171201 0.399679
888 2 0.263027 0.968457 0.848328
889 2 0.12401 0.4009 0.06647
890 1 0.759536 0.574958 0.68543
891 2 0.647391 0.192829 0.248954
892 2 0.761905 0.598057 0.649375
893 2 0.280628 0.946359 0.190482
894 2 0.608304 0.989835 0.796117
895 1 0.151179 0.586702 0.671901
896 2 0.084881 0.463158 0.0647766
897 2 0.912951 0.395021 0.213329
898 2 0.522718 0.627691 0.175084
899 2 0.658081 0.955708 0.164878
900 2 0.598315 0.010958 0.746372
901 2 0.596413 0.99217 0.733109
902 2 0.787749 0.594892 0.606357
903 2 0.657846 0.00127355 0.778166