ITEM: TIMESTEP
12600
ITEM: NUMBER OF ATOMS
1000
ITEM: BOX BOUNDS xy xz yz pp pp pp
0.0000000000000000e+00 1.3572088000000001e+01 0.0000000000000000e+00
0.0000000000000000e+00 1.3572088000000001e+01 0.0000000000000000e+00
0.0000000000000000e+00 1.3572088000000001e+01 0.0000000000000000e+00
ITEM: ATOMS id type xs ys zs
1 2 0.0468756 0.806317 0.234521
2 2 0.0502253 0.02492 0.160742
3 1 0.45882 0.074973 0.655175
4 2 0.361826 0.459935 0.0324837
5 2 0.543614 0.351827 0.0974938
6 1 0.582227 0.915561 0.0461575
7 2 0.142546 0.187566 0.161153
8 2 0.777084 0.902883 0.0430612
9 2 0.671675 0.00326242 0.509211
10 2 0.585769 0.879853 0.169156
11 2 0.98386 0.64115 0.379994
12 2 0.71876 0.0167536 0.786862
13 2 0.1636 0.0733853 0.782176
14 1 0.824897 0.896619 0.106332
15 2 0.818367 0.479353 0.637192
16 2 0.911363 0.335115 0.750113
17 1 0.399391 0.550004 0.134377
18 2 0.81696 0.931741 0.0596655
19 2 0.807462 0.141476 0.490026
20 2 0.269927 0.0446703 0.116831
21 2 0.464218 0.924839 0.228119
22 2 0.470149 0.298282 0.580999
23 2 0.297381 0.452157 0.805649
24 2 0.693515 0.260257 0.216232
25 1 0.098367 0.721164 0.59145
26 2 0.018259 0.527239 0.750938
27 2 0.701455 0.647437 0.376988
28 2 0.119094 0.132724 0.0115878
29 2 0.833315 0.461555 0.220892
30 2 0.146644 0.462663 0.0939023
31 1 0.714785 0.27257 0.879177
32 1 0.13638 0.663523 0.208466
33 1 0.0850022 0.0216028 0.935719
34 2 0.278457 0.26465 0.752307
35 2 0.361527 0.439766 0.783559
36 1 0.829591 0.902382 0.00936779
37 2 0.607526 0.647557 0.38621
38 2 0.0885226 0.573052 0.00888237
39 2 0.235461 0.31314 0.0585776
40 2 0.792838 0.0737711 0.449044
41 2 0.502102 0.327232 0.144404
42 2 0.325326 0.260824 0.439715
43 2 0.426737 0.348029 0.138462
44 2 0.879837 0.678176 0.242588
45 2 0.455265 0.444916 0.247522
46 1 0.821261 0.376292 0.741537
47 2 0.12419 0.591335 0.497894
48 2 0.315768 0.476456 0.817164
49 2 0.818125 0.613033 0.435913
50 2 0.98883 0.451745 0.0795653
51 2 0.000380416 0.458459 0.210652
52 2 0.18312 0.707544 0.246344
53 2 0.40813 0.915307 0.511955
54 2 0.0565235 0.564172 0.269814
55 1 0.495663 0.389749 0.792484
56 1 0.687613 0.572676 0.646909
57 2 0.313389 0.473393 0.182005
58 2 0.684758 0.253697 0.91889
59 2 0.89553 0.713828 0.353302
60 2 0.50113 0.234702 0.982947
61 2 0.917703 0.721684 0.191018
62 2 0.978132 0.936736 0.882365
63 2 0.908737 0.814895 0.710355
64 2 0.329344 0.0227913 0.0263983
65 2 0.291842 0.916387 0.530494
66 1 0.77291 0.822161 0.195875
67 2 0.157676 0.466095 0.226421
68 2 0.205324 0.549943 0.399681
69 1 0.0633648 0.308835 0.485626
70 2 0.167578 0.113158 0.265465
71 1 0.994411 0.0277988 0.539308
72 2 0.70613 0.0242488 0.392519
73 2 0.844791 0.614381 0.505982
74 2 0.80621 0.563477 0.6459
75 2 0.315969 0.566262 0.847271
76 2 0.11853 0.186993 0.206599
77 1 0.682215 0.811599 0.145053
78 2 0.984292 0.426809 0.186177
79 2 0.844543 0.667148 0.053818
80 2 0.832549 0.036939 0.296085
81 2 0.117684 0.362345 0.767367
82 2 0.20641 0.777242 0.430977
83 2 0.054307 0.658867 0.272109
84 2 0.171107 0.0572121 0.838871
85 1 0.231064 0.657808 0.827331
86 2 0.919256 0.0608115 0.964091
87 2 0.667554 0.52977 0.772099
88 2 0.945762 0.626133 0.168839
89 2 0.152675 0.76532 0.431917
90 2 0.636124 0.762895 0.85194
91 2 0.178368 0.0181549 0.624919
92 2 0.701054 0.480907 0.150137
93 2 0.53836 0.853689 0.182903
94 1 0.18802 0.893514 0.855422
95 2 0.614433 0.182929 0.897971
96 2 0.0688935 0.372391 0.0198111
97 2 0.648917 0.802096 0.810092
98 2 0.374197 0.198672 0.7924
99 2 0.19519 0.854463 0.871453
100 2 0.403465 0.238808 0.233333
101 1 0.948481 0.473687 0.301586
102 2 0.439163 0.936582 0.672369
103 2 0.555814 0.821692 0.338451
104 2 0.216596 0.38717 0.592431
105 2 0.632584 0.453409 0.954218
106 2 0.00181351 0.591384 0.282206
107 2 0.546338 0.823657 0.76128
108 2 0.105175 0.977235 0.839737
109 2 0.327633 0.988383 0.510224
110 2 0.532663 0.916482 0.210458
111 2 0.273025 0.618649 0.523382
112 1 0.308611 0.159495 0.197151
113 1 0.0200972 0.762222 0.631483
114 2 0.404892 0.575981 0.752555
115 2 0.653271 0.445803 0.66578
116 2 0.126879 0.572737 0.601094
117 2 0.641602 0.361203 0.363074
118 2 0.909787 0.516836 0.710018
119 2 0.111872 0.903663 0.0169422
120 2 0.384656 0.987227 0.191429
121 2 0.371057 0.643218 0.823393
122 2 0.65736 0.873668 0.197655
123 2 0.848415 0.259237 0.294184
124 2 0.750798 0.270776 0.827298
125 1 0.00316212 0.200103 0.377743
126 2 0.474066 0.674744 0.607149
127 2 0.817334 0.509299 0.633186
128 2 0.117083 0.38877 0.767232
129 1 0.863498 0.416412 0.13599
130 2 0.174389 0.514636 0.965404
131 2 0.510783 0.25512 0.537374
132 2 0.860098 0.169274 0.523747
133 2 0.399642 0.169187 0.876027
134 2 0.118276 0.318498 0.862368
135 2 0.710249 0.922788 0.229472
136 2 0.209027 0.463801 0.434954
137 1 0.798764 0.683638 0.582648
138 2 0.706905 0.800637 0.311938
139 2 0.615197 0.825109 0.718244
140 1 0.304997 0.802879 0.388291
141 2 0.453139 0.799715 0.263419
142 2 0.533876 0.496155 0.932434
143 2 0.927877 0.151102 0.583444
144 2 0.168229 0.581574 0.720181
145 2 0.614417 0.171227 0.809254
146 2 0.328064 0.670819 0.00840513
147 1 0.170425 0.361486 0.542045
148 1 0.375891 0.498127 0.963855
149 2 0.930633 0.646488 0.579283
150 1 0.453974 0.430277 0.0112917
151 2 0.504647 0.378484 0.347185
152 2 0.56515 0.673598 0.769595
153 1 0.495637 0.303194 0.619719
154 1 0.124304 0.729368 0.130213
155 2 0.853421 0.918875 0.440417
156 2 0.948124 0.348868 0.268832
157 2 0.346995 0.535407 0.796205
158 2 0.555174 0.89487 0.772206
159 2 0.571707 0.240162 0.436053
160 2 0.158459 0.285131 0.8371
161 2 0.706042 0.705251 0.228521
162 2 0.942688 0.0194234 0.933408
163 2 0.210961 0.465835 0.0525592
164 2 0.673171 0.069819 0.42167
165 2 0.305395 0.943054 0.0700881
166 2 0.413359 0.37489 0.890773
167 2 0.180628 0.757285 0.294788
168 2 0.582607 0.99123 0.84171
169 2 0.626134 0.31595 0.863894
170 2 0.542223 0.291321 0.580047
171 2 0.0287263 0.717967 0.839533
172 2 0.360696 0.0655203 0.914667
173 1 0.170811 0.223979 0.614613
174 2 0.122577 0.555516 0.280108
175 2 0.390743 0.780511 0.472629
176 2 0.607176 0.0109318 0.917996
177 1 0.427422 0.70752 0.390413
178 2 0.374338 0.678392 0.780402
179 2 0.151781 0.645258 0.262669
180 2 0.722406 0.33963 0.948689
181 2 0.37828 0.757035 0.490588
182 2 0.065418 0.690287 0.6374
183 2 0.260273 0.637538 0.14563
184 2 0.542237 0.993026 0.414936
185 2 0.991102 0.614047 0.784247
186 2 0.0258918 0.746297 0.562608
187 2 0.36253 0.855766 0.813595
188 1 0.0404099 0.0520323 0.751812
189 2 0.931325 0.354409 0.805804
190 2 0.928676 0.0998281 0.39307
191 2 0.673871 0.434264 0.144852
192 2 0.537804 0.678086 0.0457387
193 2 0.700345 0.378593 0.824232
194 2 0.812033 0.528791 0.497032
195 2 0.210216 0.662384 0.650955
196 2 0.407824 0.578792 0.822333
197 2 0.701636 0.360927 0.883636
198 2 0.569906 0.620714 0.351052
199 2 0.0113895 0.0636151 0.665901
200 1 0.54034 0.0569162 0.750645
201 2 0.953992 0.415426 0.2537
202 2 0.924451 0.49356 0.574289
203 2 0.342918 0.862886 0.725896
204 2 0.0392347 0.578812 0.167609
205 2 0.0536367 0.60764 0.547083
206 2 0.573202 0.131014 0.931725
207 2 0.579544 0.803271 0.815981
208 2 0.905336 0.307709 0.133106
209 2 0.763888 0.351743 0.499235
210 2 0.353039 0.93807 0.0121091
211 2 0.0312004 0.644077 0.59441
212 1 0.774557 0.355391 0.880939
213 2 0.713614 0.937013 0.424469
214 2 0.352951 0.92226 0.671259
215 2 0.456383 0.626792 0.0114854
216 2 0.921005 0.0815815 0.807447
217 2 0.00305347 0.591708 0.34739
218 2 0.0426182 0.480266 0.274315
219 2 0.0772406 0.179509 0.497274
220 2 0.865803 0.897043 0.838317
221 2 0.231033 0.263861 0.259024
222 2 0.0342497 0.620684 0.231831
223 2 0.646626 0.272016 0.765514
224 2 0.917721 0.538875 0.485929
225 1 0.892847 0.320743 0.8127
226 2 0.600618 0.614812 0.717312
227 2 0.214088 0.346962 0.316323
228 2 0.81284 0.746309 0.628842
229 2 0.166438 0.648691 0.0751281
230 1 0.424663 0.364788 0.426038
231 2 0.558159 0.110225 0.162293
232 2 0.986469 0.0612081 0.892788
233 1 0.425447 0.926437 0.131632
234 2 0.451493 0.98054 0.604613
235 2 0.0171595 0.358863 0.191552
236 2 0.596691 0.693594 0.233186
237 2 0.377858 0.324563 0.845891
238 1 0.440659 0.976083 0.147534
239 1 0.769751 0.562419 0.266849
240 2 0.00337988 0.236883 0.201178
241 2 0.810331 0.59004 0.706711
242 1 0.602976 0.898 0.748395
243 1 0.0782059 0.322477 0.868853
244 2 0.769133 0.624684 0.58749
245 2 0.759824 0.930894 0.0892584
246 1 0.328729 0.932134 0.677334
247 2 0.30923 -0.000182301 0.578647
248 2 0.226771 0.513871 0.759968
249 2 0.976804 0.145118 0.89049
250 2 0.343901 0.284292 0.466846
251 2 0.583853 0.472173 0.786847
252 2 0.177722 0.113875 0.802512
253 2 0.431804 0.270023 0.725691
254 2 0.258751 0.940953 0.856043
255 2 0.820934 0.637604 0.0790112
256 2 0.849001 0.185352 0.0176595
257 2 0.439016 0.610141 0.500305
258 2 0.906911 0.450389 0.87339
259 1 0.0947731 0.87015 0.956495
260 2 0.670588 0.790999 0.547844
261 1 0.529801 0.835137 0.908056
262 2 0.827112 0.172744 0.565389
263 2 0.939072 0.131544 0.953644
264 2 0.699844 0.38898 0.727598
265 1 0.515693 0.463327 0.985632
266 2 0.284582 0.869852 0.425298
267 2 0.978356 0.286348 0.835109
268 1 0.881286 0.405056 0.695096
269 1 0.380822 0.532509 0.475375
270 2 0.00941349 0.416093 0.56824
271 2 0.856728 0.300292 0.591296
272 2 0.318437 0.200491 0.143418
273 1 0.406777 0.83218 0.250619
274 2 0.899254 0.622475 0.257309
275 2 0.881877 0.814088 0.137595
276 2 0.642319 0.426823 0.978285
277 2 0.8331 0.59241 0.595149
278 2 0.144013 0.430756 0.247945
279 2 0.129289 0.984129 0.716379
280 1 0.73437 0.0558262 0.266702
281 2 0.641119 0.859677 0.74592
282 2 0.947921 0.172891 0.760407
283 2 0.755231 0.584266 0.32979
284 1 0.903611 0.231843 0.566621
285 2 0.759109 0.450032 0.400846
286 2 0.262681 0.934853 0.615993
287 1 0.780161 0.329236 0.931572
288 2 0.180556 0.991496 0.287451
289 2 0.0648529 0.825841 0.802015
290 2 0.673438 0.62197 0.373869
291 2 0.486879 0.0707147 0.591157
292 2 0.22731 0.829993 0.387684
293 2 0.818161 0.876572 0.588232
294 2 0.651099 0.2929 0.669356
295 2 0.0363511 0.154618 0.933157
296 2 0.358604 0.0487189 0.0331994
297 2 0.315475 0.552168 0.406433
298 2 0.0558415 0.141392 0.199627
299 1 0.0535684 0.879792 0.548979
300 2 0.742965 0.773129 0.749898
301 2 0.360162 0.927029 0.277922
302 2 0.697943 0.372461 0.514544
303 2 0.885424 0.433533 0.562182
304 1 0.415452 0.00706387 0.11108
305 2 0.841065 0.747304 0.76568
306 2 0.268149 0.13573 0.493884
307 2 0.17301 0.412408 0.224494
308 2 0.613054 0.0971536 0.720825
309 2 0.128024 0.12212 0.14761
310 2 0.300917 0.987577 0.662603
311 2 0.348199 0.367392 0.957772
312 2 0.569567 0.967797 0.011433
313 2 0.782493 0.235698 0.74678
314 2 0.614186 0.0968637 0.171252
315 2 0.342559 0.708789 0.24748
316 2 0.744646 0.829598 0.69771
317 2 0.650107 0.414845 0.394935
318 2 0.442796 0.659223 0.394938
319 2 0.86769 0.00507245 0.48161
320 2 0.387333 0.576389 0.404856
321 2 0.715476 0.178342 0.697239
322 2 0.3971 0.660703 0.670246
323 2 0.272798 0.618003 0.341897
324 2 0.832009 0.0855368 0.431357
325 2 0.750965 0.351528 0.37404
326 2 0.0651499 0.377097 0.862333
327 2 0.174389 0.102238 0.868109
328 2 0.48062 0.456537 0.91577
329 1 0.958643 0.465622 0.231995
330 2 0.0747744 0.307053 0.633074
331 2 0.530876 0.236942 0.774609
332 2 0.719615 0.787651 0.703606
333 2 0.869324 0.479602 0.132272
334 2 0.651335 0.220446 0.0649031
335 1 0.369763 0.769631 0.212372
336 2 0.650399 0.165079 0.438058
337 2 0.4199 0.686629 0.614178
338 1 0.899817 0.133583 0.903591
339 2 0.389676 0.924277 0.544037
340 2 0.257569 0.733597 0.373195
341 2 0.761429 0.919939 0.684018
342 2 0.749997 0.412077 0.455832
343 2 0.609733 0.706836 0.729517
344 1 0.901058 0.893467 0.592811
345 1 0.530697 0.631855 0.385864
346 1 0.541224 0.847291 0.720273
347 1 0.107083 0.636097 0.0143584
348 2 0.0465102 0.0350619 0.557713
349 2 0.197838 0.818674 0.864135
350 2 0.826369 0.366091 0.486074
351 2 0.256312 0.341912 0.163489
352 2 0.946286 0.419835 0.536332
353 1 0.862569 0.711521 0.198544
354 1 0.0124333 0.589344 0.479942
355 2 0.288332 0.80283 0.349654
356 2 0.461548 0.44547 0.277059
357 2 0.359787 0.15172 0.366363
358 2 0.805809 0.983159 0.657895
359 2 0.849096 0.453728 0.60109
360 2 0.967242 0.346836 0.850552
361 1 0.842246 0.923676 0.931967
362 2 0.851045 0.408107 0.229334
363 1 0.032202 0.131509 0.849124
364 2 0.955052 0.070665 0.0766802
365 2 0.0522298 0.180849 0.185323
366 2 0.36531 0.788865 0.24476
367 1 0.696366 0.780203 0.821863
368 1 0.820887 0.0442386 0.851319
369 2 0.767483 0.0716972 0.741126
370 2 0.514465 0.942175 0.26954
371 2 0.857216 0.578348 0.132251
372 1 0.552296 0.456677 0.272839
373 2 0.844823 0.19982 0.859358
374 2 0.84844 0.635411 0.0906141
375 2 0.234953 0.129223 0.676779
376 2 0.947907 0.648274 0.396369
377 2 0.681457 0.753928 0.985718
378 2 0.901914 0.354674 0.814932
379 2 0.962635 0.320743 0.912696
380 2 0.256449 0.755734 0.00777076
381 2 0.109031 0.136227 0.375871
382 2 0.0772837 0.600143 0.291445
383 2 0.563381 0.912128 0.344262
384 1 0.849234 0.560559 0.630346
385 2 0.534837 0.568827 0.709098
386 2 0.210527 0.64891 0.494027
387 1 0.78704 0.858675 0.138326
388 2 0.640664 0.515857 0.28936
389 2 0.539434 0.135845 0.0321389
390 2 0.992255 0.503446 0.437263
391 2 0.0294267 0.864229 0.789555
392 1 0.342913 0.626153 0.594996
393 2 0.154876 0.190662 0.939057
394 2 0.534003 0.022998 0.818211
395 2 0.224015 0.47615 0.906062
396 2 0.36277 0.482969 0.581683
397 2 0.927916 0.43549 0.959744
398 1 0.161697 0.107324 0.112474
399 1 0.484241 0.190475 0.303071
400 1 0.566316 0.214115 0.231791
401 2 0.00987566 0.472224 0.109089
402 2 0.317395 0.495682 0.139883
403 2 0.77837 0.830652 0.306949
404 2 0.352547 0.209308 0.727575
405 2 0.513053 0.22537 0.136766
406 2 0.0754764 0.296325 0.697639
407 2 0.904568 0.277806 0.696337
408 2 0.556161 0.988675 0.470811
409 2 0.673453 0.23031 0.932424
410 2 0.821203 0.713443 0.414695
411 2 0.515753 0.404619 0.994467
412 2 0.311435 0.84646 0.812968
413 2 0.850596 0.497556 0.729552
414 2 0.695324 0.877556 0.197394
415 2 0.529607 0.731254 0.50492
416 1 0.33155 0.501476 0.692027
417 2 0.193659 0.0226156 0.454925
418 2 0.255526 0.209174 0.896647
419 2 0.664216 0.1926 0.235611
420 2 0.853986 0.417936 0.548749
421 1 0.915938 0.774554 0.282873
422 1 0.912942 0.139106 0.832101
423 2 0.0992171 0.232797 0.240052
424 2 0.135975 0.641199 0.480679
425 1 0.148185 0.115927 0.673576
426 2 0.961239 0.0542952 0.2904
427 2 0.301628 0.60718 0.543281
428 2 0.248284 0.755092 0.500697
429 2 0.767647 0.219569 0.60712
430 2 0.511471 0.0153777 0.853147
431 2 0.291705 0.0386614 0.305555
432 1 0.642675 0.925003 0.991058
433 2 0.987696 0.78643 0.597557
434 1 0.310784 0.967872 0.5406
435 2 0.0021939 0.628539 0.143051
436 2 0.179358 0.350578 0.87975
437 2 0.477967 0.524592 0.319401
438 2 0.899185 0.0882809 0.693779
439 1 0.0864705 0.846939 0.60681
440 2 0.791038 0.136086 0.509901
441 1 0.833828 0.525414 0.993048
442 1 0.851711 0.0190817 0.754535
443 1 0.404238 0.52412 0.0100429
444 2 0.410572 0.692796 0.437115
445 2 0.630937 0.836742 0.210373
446 2 0.0190002 0.326811 0.299523
447 2 0.643227 0.372463 0.303027
448 2 0.346292 0.611686 0.406255
449 1 0.375299 0.221175 0.695692
450 2 0.589309 0.345549 0.317738
451 2 0.749961 0.0520335 0.417564
452 2 0.420686 0.448386 0.140063
453 1 0.612294 0.00790117 0.00916456
454 2 0.446369 0.872408 0.374407
455 2 0.344256 0.990952 0.855199
456 2 0.35172 0.0248605 0.545954
457 2 0.158126 0.55596 0.610809
458 2 0.922367 0.960498 0.824869
459 2 0.00264242 0.670455 0.548866
460 2 0.937321 0.883965 0.285106
461 2 0.92818 0.107607 0.907662
462 2 0.182049 0.953086 0.391943
463 1 0.242253 0.588897 0.590329
464 2 0.598052 0.679935 0.547618
465 2 0.0460232 0.0717702 0.915716
466 2 0.194168 0.921535 0.286846
467 1 0.554916 0.511609 0.360166
468 2 0.66015 0.808012 0.191372
469 2 0.528814 0.348488 0.318023
470 2 0.139791 0.155029 0.144626
471 2 0.11021 0.883264 0.866469
472 2 0.925802 0.143061 0.873646
473 1 0.195619 0.526235 0.83274
474 1 0.126589 0.783605 0.919679
475 1 0.167198 0.68566 0.0245704
476 2 0.211355 0.815233 0.0856495
477 2 0.368503 0.449129 0.501545
478 2 0.271575 0.795852 0.952905
479 2 0.52867 0.877853 0.624783
480 2 0.739507 0.857449 0.295389
481 2 0.20817 0.0807047 0.363219
482 2 0.071738 0.358001 0.928052
483 2 0.324603 0.923311 0.260072
484 1 0.663908 0.242971 0.287793
485 1 0.595003 0.849136 0.873773
486 2 0.654806 0.869573 0.855348
487 2 0.487945 0.895154 0.653236
488 2 0.329912 0.520382 0.905006
489 2 0.153328 0.220567 0.824786
490 2 0.318444 0.0764895 0.887518
491 2 0.522512 0.247797 0.709205
492 2 0.333904 0.373512 0.77363
493 2 0.599339 0.577697 0.710992
494 2 0.0257354 0.205979 0.116675
495 2 0.393256 0.209228 0.0533926
496 2 0.832813 0.101095 0.772012
497 2 0.494989 0.713288 0.369015
498 1 0.692894 0.733792 0.156311
499 2 0.379819 0.0695973 0.457629
500 2 0.631928 0.349556 0.410302
501 1 0.935389 0.55244 0.318788
502 2 0.15342 0.987922 0.359188
503 2 0.136174 0.698775 0.926534
504 1 0.832503 0.603399 0.240548
505 2 0.335262 0.855013 0.148569
506 2 0.353098 0.139527 0.292708
507 2 0.0589217 0.692747 0.601741
508 2 0.970939 0.425642 0.257802
509 1 0.507926 0.722019 0.0100322
510 2 0.175941 0.135599 0.765551
511 2 0.987836 0.461358 0.157269
512 2 0.309074 0.709424 0.0780834
513 1 0.949207 0.312282 0.25503
514 2 0.648719 0.786237 0.881474
515 1 0.84263 0.998142 0.427944
516 2 0.432903 0.760416 0.667649
517 1 0.45728 0.756583 0.235962
518 2 0.813997 0.382534 0.876575
519 2 0.757269 0.0692457 0.46117
520 2 0.465639 0.63127 0.608328
521 2 0.72789 0.566971 0.113027
522 2 0.401301 0.336742 0.750989
523 2 0.816668 0.747514 0.937614
524 2 0.480046 0.182524 0.245006
525 2 0.255894 0.59411 0.383483
526 2 0.0440897 0.744195 0.583002
527 2 0.199869 0.827265 0.432818
528 1 0.177303 0.365429 0.136263
529 2 0.455467 0.0973874 0.137312
530 2 0.920076 0.864002 0.751251
531 2 0.562703 0.0879465 0.990075
532 2 0.984118 0.419 0.159018
533 2 0.305784 0.67235 0.703976
534 1 0.788764 0.481994 0.26917
535 2 0.444929 0.0274754 0.916323
536 1 0.506574 0.774039 0.0735729
537 1 0.997602 0.05556 0.00260244
538 2 0.137276 0.639692 0.0575311
539 2 0.362792 0.951489 0.511057
540 2 0.502724 0.892022 0.247722
541 1 0.40522 0.759319 0.620811
542 2 0.458511 0.793229 0.304318
543 1 0.166375 0.0312804 0.74574
544 1 0.824345 0.314023 0.0542168
545 2 0.323933 0.097529 0.175049
546 2 0.776364 0.567457 0.207105
547 2 0.523721 0.765888 0.330755
548 2 0.539798 0.671526 0.75701
549 2 0.623255 0.711519 0.311302
550 2 0.860548 0.48979 0.685605
551 1 0.755889 0.172097 0.671157
552 2 0.931781 0.804151 0.620246
553 2 0.522343 0.210847 0.463363
554 2 0.609223 0.390029 0.0116477
555 1 0.937101 0.384201 0.559056
556 2 0.397466 0.389554 0.930668
557 2 0.22544 0.110986 0.691309
558 1 0.488271 0.363048 0.022349
559 2 0.438495 0.394016 0.221876
560 2 0.974189 0.436963 0.976218
561 2 0.23691 0.476506 0.824337
562 1 0.0165642 0.0734475 0.589189
563 2 0.586291 0.264848 0.0775597
564 2 0.292288 0.107335 0.0909805
565 2 0.902707 0.0916165 0.828542
566 2 0.427919 0.639717 0.537683
567 2 0.179851 0.774328 0.584732
568 2 0.358314 0.532282 0.94748
569 1 0.935288 0.786038 0.491575
570 2 0.955764 0.042902 0.170713
571 2 0.900048 0.463745 0.281295
572 2 0.87302 0.422449 0.263922
573 2 0.738009 0.923208 0.00597933
574 2 0.0213376 0.471814 0.444888
575 1 0.0346253 0.515618 0.248193
576 2 0.466652 0.463999 0.967085
577 2 0.11212 0.348529 0.14801
578 1 0.28627 0.752034 0.754041
579 2 0.510863 0.0137473 0.44201
580 1 0.588269 0.428215 0.419657
581 2 0.179581 0.0936956 0.214573
582 2 0.260632 0.825008 0.348203
583 1 0.197542 0.0700279 0.74349
584 2 0.644374 0.16385 0.0978251
585 1 0.41006 0.278747 0.138078
586 2 0.957056 0.481927 0.0238362
587 2 0.948171 0.852791 0.686973
588 2 0.788569 0.952966 0.549967
589 1 0.359474 0.422466 0.979599
590 1 0.216862 0.370171 0.256607
591 1 0.80975 0.942848 0.336688
592 2 0.411943 0.450985 0.221008
593 2 0.24877 0.243478 0.629641
594 1 0.919662 0.424249 0.77686
595 1 0.139488 0.584972 0.0146752
596 2 0.707412 0.986113 0.071487
597 1 0.809001 0.675528 0.297187
598 2 0.695197 0.55975 0.00139285
599 2 0.669908 0.728904 0.655368
600 2 0.624092 0.201742 0.618231
601 2 0.635078 0.311788 0.622458
602 1 0.569722 0.280336 0.319109
603 2 0.675217 0.26693 0.960295
604 1 0.616965 0.681142 0.293783
605 2 0.349196 0.0815636 0.0358712
606 2 0.211665 0.863297 0.551021
607 1 0.815649 0.724322 0.763469
608 2 0.950238 0.0394529 0.893114
609 2 0.287991 0.495935 0.0398913
610 2 0.140111 0.0105207 0.676632
611 2 0.381518 0.69734 0.180477
612 1 0.354562 0.322835 0.903425
613 2 0.945677 0.190948 0.296791
614 1 0.715586 0.0351312 0.34412
615 2 0.653104 0.893531 0.24141
616 1 0.0503053 0.223113 0.525693
617 2 0.815987 0.565548 0.75637
618 2 0.0128429 0.982859 0.783915
619 2 0.259015 0.321941 0.122961
620 2 0.88094 0.656638 0.207905
621 2 0.0516584 0.268641 0.888394
622 2 0.34681 0.927097 0.731022
623 1 0.305622 0.985319 0.214667
624 2 0.656586 0.355369 0.248186
625 2 0.19632 0.78735 0.486656
626 2 0.714456 0.544623 0.0886589
627 2 0.0770171 0.204139 0.973083
628 2 0.952096 0.531774 0.120285
629 2 0.0331266 0.44045 0.465547
630 1 0.941327 0.409263 0.150855
631 2 0.276716 0.534221 0.654719
632 2 0.182026 0.354497 0.102537
633 2 0.846173 0.0564906 0.572451
634 2 0.938914 0.0320062 0.278843
635 2 0.781559 0.655373 0.804307
636 2 0.476724 0.907651 0.563997
637 2 0.237744 0.763151 0.160129
638 1 0.462115 0.0890704 0.472587
639 2 0.48346 0.655997 0.0215032
640 2 0.816801 0.66421 0.0552995
641 2 0.0718519 0.201901 0.346055
642 2 0.998266 0.0129449 0.919658
643 2 0.423863 0.196753 0.292799
644 2 0.557586 0.747936 0.328944
645 1 0.649173 0.978227 0.201866
646 2 0.756248 0.694605 0.181272
647 1 0.200038 0.721511 0.0600581
648 2 0.661226 0.174252 0.297724
649 2 0.852579 0.575174 0.0555792
650 2 0.984405 0.240337 0.605042
651 2 0.27052 0.179238 0.485952
652 2 0.333675 0.928462 0.465072
653 2 0.224454 0.408972 0.622484
654 1 0.156407 0.864482 0.840158
655 2 0.328923 0.520164 0.235174
656 2 0.0163348 0.838631 0.588979
657 2 0.918844 0.947733 0.512023
658 2 0.465279 0.977906 0.235122
659 2 0.214727 0.0558997 0.0128122
660 2 0.144222 0.415243 0.824901
661 1 0.357519 0.686961 0.380158
662 2 0.809342 0.273188 0.328893
663 2 0.292986 0.340019 0.344897
664 1 0.949219 0.787502 0.215274
665 2 0.245071 0.690992 0.798305
666 2 0.708909 0.329113 0.872928
667 2 0.260342 0.808338 0.905605
668 2 0.768454 0.554148 0.671862
669 2 0.224859 0.452378 0.642382
670 1 0.385966 0.625789 0.455056
671 2 0.618186 0.352444 0.301825
672 1 0.397516 0.960528 0.284699
673 2 0.985251 0.506063 0.0983663
674 2 0.850806 0.93245 0.578286
675 2 0.981867 0.100541 0.432048
676 1 0.893682 0.463652 0.5601
677 2 0.921956 0.445641 0.0186041
678 2 0.411385 0.228364 0.079077
679 1 0.00147186 0.263768 0.532353
680 2 0.418334 0.204396 0.869753
681 1 0.336037 0.596027 0.683987
682 1 0.211565 0.759287 0.879468
683 2 0.412293 0.816881 0.378207
684 2 0.458635 0.478713 0.948827
685 2 0.177873 0.687757 0.465984
686 2 0.909981 0.998857 0.0586022
687 1 0.787144 0.290076 0.887563
688 2 0.311372 0.316359 0.928688
689 2 0.894318 0.0658145 0.925997
690 2 0.509987 0.727823 0.642227
691 2 0.741647 0.45581 0.890605
692 1 0.831456 0.451501 0.552337
693 2 0.86487 0.807551 0.507496
694 2 0.158902 0.152307 0.560521
695 1 0.912254 0.0742524 0.019342
696 2 0.572472 0.045624 0.5642
697 2 0.891147 0.893385 0.995188
698 2 0.174163 0.222767 0.296563
699 2 0.0366509 0.507621 0.410395
700 1 0.632471 0.96763 0.613734
701 2 0.674842 0.422469 0.510644
702 2 0.620511 0.49291 0.813437
703 2 0.236134 0.564437 0.135763
704 2 0.969213 0.757738 0.672463
705 2 0.044043 0.902098 0.938464
706 2 0.905251 0.564934 0.589243
707 2 0.714264 0.838329 0.954162
708 1 0.68219 0.317172 0.318044
709 2 0.628306 0.286019 0.303444
710 2 0.745857 0.30572 0.843084
711 2 0.202317 0.967349 0.233382
712 1 0.139203 0.0850685 0.0295992
713 2 0.200358 0.99336 0.639512
714 1 0.0198942 0.395517 0.898407
715 2 0.192635 0.0900433 0.671773
716 1 0.48002 0.827346 0.224525
717 2 0.582919 0.716794 0.55798
718 2 0.0140827 0.660828 0.142789
719 2 0.462067 0.268603 0.653613
720 2 0.593458 0.230834 0.650344
721 2 0.373971 0.225435 0.127317
722 1 0.570196 0.200942 0.061014
723 2 0.988332 0.492577 0.547981
724 2 0.601488 0.956433 0.075123
725 2 0.00826081 0.693199 0.0483849
726 2 0.709915 0.414438 0.519755
727 1 0.525942 0.64111 0.994616
728 1 0.881352 0.589475 0.927778
729 1 0.468986 0.321015 0.201664
730 1 0.984799 0.95905 0.500191
731 2 0.70888 0.787289 0.675027
732 1 0.942447 0.48297 0.13945
733 2 0.458753 0.110312 0.0118936
734 2 0.756575 0.310604 0.505357
735 2 0.849135 0.201273 0.425537
736 1 0.331669 0.142327 0.67161
737 2 0.0964324 0.155021 0.54111
738 2 0.956369 0.864203 0.277647
739 2 0.554113 0.0974076 0.960683
740 2 0.44249 0.657996 0.948027
741 2 0.786166 0.478166 0.852053
742 1 0.903551 0.911876 0.892728
743 2 0.844588 0.339355 0.75089
744 2 0.878036 0.137312 0.827658
745 2 0.691687 0.199884 0.649506
746 1 0.275509 0.693766 0.00950689
747 2 0.457859 0.665257 0.495002
748 2 0.983014 0.136646 0.443219
749 2 0.613116 0.86972 0.257206
750 2 0.352949 0.944403 0.8869
751 2 0.290845 0.0325387 0.717264
752 2 0.41429 0.466331 0.273194
753 2 0.491755 0.500475 0.0852089
754 2 0.957272 0.136363 0.204153
755 2 0.843497 0.574212 0.506288
756 2 0.661963 0.748457 0.901395
757 2 0.368391 0.212746 0.633896
758 2 0.228412 0.794445 0.470932
759 2 0.117296 0.928167 0.238053
760 1 0.00543147 0.770534 0.995736
761 2 0.19325 0.885343 0.229598
762 2 0.468309 0.672142 0.270852
763 1 0.231003 0.854953 0.793528
764 2 0.0645373 0.606951 0.200691
765 2 0.92557 0.175001 0.858494
766 2 0.400509 0.522943 0.927289
767 2 0.746952 0.105022 0.0554188
768 2 0.82793 0.272234 0.636025
769 2 0.903372 0.461183 0.084175
770 2 0.0849953 0.521551 0.256615
771 2 0.305726 0.41606 0.653961
772 2 0.218822 0.680511 0.859405
773 1 0.0249904 0.633383 0.46759
774 2 0.700779 0.049173 0.710586
775 2 0.712024 0.609913 0.224994
776 2 0.291254 0.489003 0.824457
777 1 0.0651447 0.667081 0.217398
778 2 0.428711 0.512454 0.147051
779 2 0.61903 0.612141 0.37958
780 1 0.340819 0.784113 0.192929
781 2 0.868519 0.858652 0.435172
782 2 0.190866 0.402789 0.266629
783 1 0.148135 0.0153675 0.94913
784 2 0.456358 0.437684 0.373653
785 2 0.627286 0.791085 0.0767839
786 1 0.886159 0.768387 0.172529
787 2 0.128975 0.792275 0.370559
788 2 0.350385 0.893748 0.767934
789 2 0.950186 0.977989 0.525463
790 2 0.242803 0.587566 0.0589819
791 1 0.0839444 0.644477 0.596656
792 2 0.0894023 0.214917 0.207306
793 2 0.123168 0.73289 0.961641
794 2 0.577513 0.904202 0.912639
795 2 0.547661 0.276201 0.0645719
796 2 0.0864893 0.619729 0.356622
797 2 0.965869 0.393769 0.646258
798 2 0.0664851 0.254508 0.148136
799 2 0.888833 0.343415 0.281434
800 2 0.00997333 0.483906 0.22506
801 2 0.593205 0.691243 0.59573
802 2 0.240655 0.359867 0.145689
803 2 0.298432 0.0187067 0.269739
804 2 0.930359 0.0395584 0.50087
805 2 0.907983 0.676156 0.319923
806 1 0.875869 0.0978223 0.878347
807 2 0.790437 0.81588 0.752338
808 2 0.842366 0.848461 0.304953
809 1 0.316198 0.00678092 0.471417
810 2 0.67417 0.723691 0.808222
811 2 0.858351 0.124882 0.384885
812 2 0.811571 0.449751 0.716293
813 1 0.225078 0.396648 0.887256
814 2 0.28503 0.137895 0.596943
815 2 0.863064 0.0554125 0.905838
816 1 0.319908 0.0933725 0.581197
817 1 0.928278 0.0571404 0.861633
818 2 0.573955 0.0256714 0.0880317
819 1 0.276123 0.568009 0.915997
820 1 0.535059 0.0764377 0.867061
821 2 0.213802 0.299822 0.755421
822 2 0.393905 0.123414 0.816296
823 1 0.999372 0.611634 0.591176
824 2 0.620493 0.39013 0.406511
825 2 0.335511 0.108525 0.717888
826 2 0.696358 0.703205 0.566733
827 1 0.90685 0.188491 0.179514
828 2 0.863508 0.597898 0.790563
829 2 0.0800303 0.910067 0.879242
830 2 0.11526 0.896221 0.121358
831 1 0.965381 0.0953368 0.935075
832 2 0.907465 0.505353 0.622619
833 1 0.00602687 0.498986 0.145168
834 2 0.614097 0.800611 0.24483
835 2 0.800295 0.547166 0.353644
836 2 0.324254 0.415669 0.840344
837 2 0.694038 0.188406 0.49525
838 2 0.845849 0.807046 0.883684
839 2 0.861427 0.654897 0.495706
840 2 0.252013 0.701563 0.144184
841 2 0.158641 0.85757 0.974797
842 2 0.634865 0.443293 0.847057
843 2 0.938092 0.709204 0.348299
844 2 0.652604 0.592012 0.151266
845 2 0.163136 0.358874 0.217219
846 2 0.4557 0.945482 0.0382591
847 2 0.989372 0.579956 0.962128
848 2 0.508292 0.297683 0.942809
849 1 0.526807 0.436653 0.229171
850 2 0.571424 0.40293 0.550994
851 2 0.470194 0.897422 0.390723
852 2 0.581549 0.154876 0.782276
853 1 0.992132 0.52246 0.323106
854 2 0.522676 0.830744 0.0995277
855 2 0.650198 0.347507 0.809752
856 2 0.75789 0.0292937 0.702321
857 2 0.500777 0.0218689 0.255945
858 2 0.688586 0.802751 0.860591
859 2 0.628078 0.717092 0.674539
860 2 0.957541 0.401157 0.918003
861 2 0.212658 0.250627 0.523264
862 2 0.689271 0.162194 0.737346
863 2 0.674536 0.375733 0.536281
864 2 0.534388 0.475359 0.86245
865 2 0.712546 0.727861 0.542574
866 2 0.781973 0.300404 0.259717
867 2 0.994868 0.391853 0.0626006
868 2 0.084603 0.525481 0.0651818
869 2 0.575532 0.176583 0.266757
870 2 0.578945 0.374223 0.337855
871 2 0.236223 0.90268 0.0646092
872 2 0.310681 0.104077 0.139598
873 2 0.284202 0.655942 0.288455
874 2 0.513507 0.594893 0.326348
875 2 0.417382 0.748312 0.453201
876 2 0.110627 0.644469 0.0983064
877 2 0.344618 0.597824 0.839463
878 2 0.841131 0.681367 0.354637
879 2 0.538645 0.178834 0.45678
880 2 0.163337 0.525745 0.354812
881 2 0.420613 0.341851 0.776806
882 1 0.801926 0.769743 0.71832
883 1 0.44037 0.615406 0.937831
884 2 0.590919 0.420489 0.978251
885 2 0.812581 0.0603474 0.925702
886 2 0.649934 0.61176 0.884407
887 1 0.656026 0.717261 0.554226
888 2 0.460619 0.121688 0.450071
889 2 0.56748 0.405565 0.24323
890 1 0.443485 0.835206 0.515454
891 2 0.204517 0.0505976 0.643639
892 2 0.916025 0.166791 0.934809
893 2 0.361244 0.254091 0.836833
894 2 0.182874 0.197857 0.216045
895 1 0.448387 0.70514 0.309298
896 2 0.184941 0.526622 0.680161
897 2 0.115369 0.61206 0.824214
898 2 0.0572105 0.276115 0.0239425
899 2 0.0838217 0.472248 0.33777
900 2 0.80056 0.510266 0.935984
901 2 0.0239082 0.520039 0.173744
902 2 0.910662 0.532551 0.27288