ITEM: TIMESTEP
10500
ITEM: NUMBER OF ATOMS
1000
ITEM: BOX BOUNDS xy xz yz pp pp pp
0.0000000000000000e+00 1.3572088000000001e+01 0.0000000000000000e+00
0.0000000000000000e+00 1.3572088000000001e+01 0.0000000000000000e+00
0.0000000000000000e+00 1.3572088000000001e+01 0.0000000000000000e+00
ITEM: ATOMS id type xs ys zs
1 2 0.771191 0.888712 0.0588577
2 2 0.435986 0.896634 0.152308
3 1 0.287312 0.0413425 0.667141
4 2 0.48239 0.509527 0.959126
5 2 0.553391 0.409391 0.0425425
6 1 0.532364 0.952563 0.697937
7 2 0.48831 0.139791 0.316713
8 2 0.662234 0.822511 0.225811
9 2 0.00807076 0.0484723 0.37133
10 2 0.532052 0.906263 0.645409
11 2 0.811322 0.423224 0.373043
12 2 0.696188 0.918511 0.675543
13 2 0.0240917 0.175154 0.502287
14 1 0.0735075 0.887081 0.0246688
15 2 0.486934 0.544852 0.573032
16 2 0.5283 0.920814 0.103815
17 1 0.485052 0.344792 0.181509
18 2 0.683896 0.636041 0.100623
19 2 0.0974363 0.0401248 0.989839
20 2 0.492631 0.72597 0.82331
21 2 0.419985 0.873429 0.424192
22 2 0.400798 0.132281 0.407
23 2 0.430406 0.548494 0.988445
24 2 0.576381 0.00960905 0.925094
25 1 0.944041 0.905222 0.702861
26 2 0.179114 0.528732 0.35187
27 2 0.608554 0.0618997 0.782383
28 2 0.0414642 0.2234 0.488245
29 2 0.797513 0.457658 0.271374
30 2 0.19716 0.359895 0.691484
31 1 0.782156 0.412269 0.943073
32 1 0.103045 0.548788 0.155915
33 1 0.922468 0.100357 0.940515
34 2 0.346935 0.949867 0.02828
35 2 0.353289 0.406456 0.978092
36 1 0.837344 0.863478 0.0263388
37 2 0.430896 0.72613 0.181489
38 2 0.0865174 0.948278 0.511856
39 2 0.450418 0.8568 0.00501678
40 2 0.792013 0.08545 1.0073
41 2 0.652176 0.528508 0.938896
42 2 0.688805 0.207793 0.39023
43 2 0.234511 0.14766 0.120771
44 2 0.742776 0.37995 0.170292
45 2 0.444584 0.23255 0.396786
46 1 0.900813 0.245801 0.854685
47 2 0.479612 0.446401 0.882773
48 2 0.701719 0.479401 0.80151
49 2 0.956869 0.315933 0.314298
50 2 0.610591 0.378001 0.00942804
51 2 0.774907 0.26891 0.134555
52 2 0.0170171 0.736858 0.245819
53 2 0.379392 0.0331931 0.568396
54 2 0.0553599 0.741684 0.423371
55 1 0.401314 0.343534 0.635983
56 1 0.734315 0.361908 0.0659345
57 2 0.483214 0.413702 0.970103
58 2 0.369638 0.357873 0.672232
59 2 0.0802417 0.668523 0.194152
60 2 0.385548 0.277521 0.19933
61 2 0.905935 0.128339 0.33864
62 2 0.511808 0.607695 0.906603
63 2 0.609046 0.268886 0.815879
64 2 0.487934 0.0764897 0.106344
65 2 0.217538 0.0399517 0.548667
66 1 0.769261 0.645012 0.138207
67 2 0.847267 0.643085 0.625123
68 2 0.415533 0.65232 0.356535
69 1 0.112774 0.213541 0.342865
70 2 0.152493 0.926452 0.38847
71 1 0.0617399 0.89774 0.557551
72 2 0.0287274 0.871379 0.587698
73 2 0.148005 0.675999 0.272545
74 2 0.834662 0.44245 0.873537
75 2 0.495777 0.421255 0.220111
76 2 0.489727 0.209075 0.519453
77 1 0.698938 0.796716 0.228401
78 2 0.169981 0.457511 0.388519
79 2 0.972713 0.676216 0.222158
80 2 0.551833 0.908031 0.611262
81 2 0.974339 0.646926 0.229612
82 2 0.541612 0.182703 0.444059
83 2 0.175915 0.717598 0.300518
84 2 0.225116 0.900562 0.650418
85 1 0.0743034 0.676316 0.761016
86 2 0.806111 0.921209 0.035014
87 2 0.762522 0.537403 0.953071
88 2 0.179717 0.31139 0.378518
89 2 0.0310573 0.0957754 0.24028
90 2 0.555737 0.738181 0.533968
91 2 0.0970435 0.465914 0.698302
92 2 0.621956 0.642743 0.175251
93 2 0.198285 0.664303 0.0794757
94 1 0.327993 0.991805 0.933437
95 2 0.0930194 0.300898 0.0683398
96 2 0.39666 0.679326 0.343447
97 2 0.615106 0.796278 0.769925
98 2 0.0658703 0.0659993 0.962881
99 2 0.123271 0.610529 0.976315
100 2 0.511924 0.0910628 0.417397
101 1 0.911951 0.654424 0.271518
102 2 0.131806 0.636244 0.948275
103 2 0.932375 0.921055 0.427805
104 2 0.0820786 0.30109 0.394589
105 2 0.0104411 0.589737 0.192058
106 2 0.0364005 0.72955 0.261949
107 2 0.579945 0.992397 0.983651
108 2 0.56593 0.403276 0.576562
109 2 0.60262 0.0788494 0.70844
110 2 0.346161 0.04905 0.561857
111 2 0.151832 0.712001 0.638197
112 1 0.437795 0.23347 0.123757
113 1 0.0468874 0.598112 0.832093
114 2 0.150631 0.587284 0.749526
115 2 0.726252 0.248284 0.39762
116 2 0.882287 0.606565 0.678335
117 2 0.579012 0.471366 0.204886
118 2 0.766604 0.764286 0.755763
119 2 0.284381 0.470702 0.0772753
120 2 0.14295 0.849735 0.402984
121 2 0.389035 0.768369 0.734894
122 2 0.688842 0.945875 0.250729
123 2 0.779573 0.244003 0.0965049
124 2 0.483678 0.510617 0.728428
125 1 0.996006 0.210875 0.596299
126 2 0.45044 0.0461964 0.866508
127 2 0.165943 0.567784 0.668208
128 2 0.092913 0.589963 0.951569
129 1 0.856428 0.342313 0.209447
130 2 0.325161 0.455319 0.981939
131 2 0.620228 0.543096 0.560527
132 2 0.786167 0.980807 0.638492
133 2 0.495815 0.448468 0.835995
134 2 0.265902 0.478876 0.686862
135 2 0.925519 0.392977 0.0371096
136 2 0.0839189 0.481126 0.333669
137 1 0.890796 0.582969 0.559061
138 2 0.118916 0.0203561 0.387454
139 2 0.862045 0.881976 0.419909
140 1 0.259757 0.814639 0.496249
141 2 0.452284 0.616184 0.378274
142 2 0.372517 0.385991 0.867932
143 2 0.236737 0.522609 0.633595
144 2 0.0810183 0.642299 0.873973
145 2 0.173924 0.0923806 0.353278
146 2 0.837634 0.282655 0.901732
147 1 0.24073 0.174511 0.520545
148 1 0.609743 0.114495 0.847962
149 2 0.941474 0.91214 0.756046
150 1 0.284578 0.498918 0.446211
151 2 0.398706 0.270998 0.267219
152 2 0.790304 0.193417 0.797699
153 1 0.474755 0.338771 0.706592
154 1 0.143615 0.763571 0.0553688
155 2 0.00497757 0.0221997 0.594957
156 2 0.0592735 0.504714 0.568914
157 2 0.134335 0.610303 0.383429
158 2 0.66817 0.920286 0.992962
159 2 0.39686 0.146209 0.602412
160 2 0.0688968 0.622417 0.892513
161 2 0.570237 0.861221 0.338898
162 2 0.725621 0.967436 0.124995
163 2 0.24813 0.575671 0.299307
164 2 0.880522 0.115496 0.677564
165 2 0.0816778 0.840687 0.41215
166 2 0.930361 0.157542 0.680308
167 2 0.0698371 0.92693 0.223444
168 2 0.4968 0.130134 0.0567509
169 2 0.838247 0.957741 0.739621
170 2 0.579826 0.0588984 0.729474
171 2 0.780014 0.712976 0.732221
172 2 0.500101 0.272316 0.148855
173 1 0.42101 0.38734 0.530464
174 2 0.169082 0.632119 0.55177
175 2 0.406253 0.82956 0.530603
176 2 0.606068 0.0700429 0.0361131
177 1 0.418027 0.668811 0.290357
178 2 0.339787 0.527036 0.426669
179 2 0.357536 0.723869 0.142265
180 2 0.720776 0.0621598 0.0284133
181 2 0.328555 0.797383 0.307487
182 2 0.871992 0.575228 0.634582
183 2 0.109908 0.526469 0.118089
184 2 0.508394 0.0158193 0.626678
185 2 0.887457 0.760195 0.00798148
186 2 0.17368 0.349483 0.504224
187 2 0.171088 0.720581 0.435316
188 1 0.837408 0.969082 0.610083
189 2 0.182244 0.427789 0.881342
190 2 0.942218 0.982326 0.468738
191 2 0.382839 0.720439 0.253658
192 2 0.458832 0.550183 0.113141
193 2 0.649772 0.0917257 0.76472
194 2 0.00063484 0.294483 0.564966
195 2 0.809081 0.979437 0.88114
196 2 0.788048 0.918913 0.735933
197 2 0.699842 0.291401 0.0285456
198 2 0.991335 0.648498 0.263049
199 2 0.166477 0.192766 0.821954
200 1 0.41828 0.0736561 0.882251
201 2 0.208356 0.238169 0.178849
202 2 0.043063 0.233187 0.510923
203 2 0.372973 0.0983202 0.842037
204 2 0.0671311 0.66202 0.344102
205 2 0.189826 0.549182 0.369126
206 2 0.679478 1.00332 0.920297
207 2 0.0505583 0.175993 0.316574
208 2 0.951101 0.581696 0.972682
209 2 0.822996 0.100708 0.0233622
210 2 0.955468 0.964416 0.687128
211 2 0.0366272 0.76698 0.427362
212 1 0.70427 0.251768 0.749841
213 2 0.982956 0.15349 0.343162
214 2 0.714435 0.754236 0.80533
215 2 0.537222 0.703515 0.169039
216 2 0.133561 0.215189 0.99404
217 2 0.191153 0.649203 0.343233
218 2 0.145961 0.516439 0.3339
219 2 0.937927 0.964797 0.471263
220 2 0.923869 0.89187 0.655977
221 2 0.152699 0.910118 0.670701
222 2 0.102299 0.530258 0.290113
223 2 0.462828 0.382831 0.0129396
224 2 0.10206 0.400289 0.690963
225 1 0.840163 0.222246 0.864009
226 2 0.552934 0.575528 0.570339
227 2 0.227686 0.236343 0.0830721
228 2 0.795786 0.028966 0.589732
229 2 0.542335 0.502818 0.46962
230 1 0.218991 0.272345 0.181177
231 2 0.451692 0.753992 0.371243
232 2 0.816236 0.126234 0.794464
233 1 0.393679 0.818297 0.226201
234 2 0.251661 0.113114 0.658462
235 2 0.219979 0.533391 0.159079
236 2 0.794402 0.522882 0.109907
237 2 0.385189 0.383391 0.601961
238 1 0.667982 0.782849 0.263302
239 1 0.867782 0.509205 0.177825
240 2 0.242187 0.338816 0.45911
241 2 0.942221 0.420452 0.447899
242 1 0.79691 0.934519 0.764432
243 1 0.839682 0.234425 0.972549
244 2 0.282719 0.383222 0.85897
245 2 0.628383 0.925173 0.213365
246 1 0.109391 0.0221743 0.96296
247 2 0.604529 0.0717398 0.664006
248 2 0.34468 0.699261 0.715081
249 2 0.106202 0.0318634 0.7523
250 2 0.524739 0.37174 0.513463
251 2 0.583437 0.439766 0.0622457
252 2 0.0750344 0.605589 0.795888
253 2 0.66883 0.329821 0.658529
254 2 0.858884 0.940773 0.272796
255 2 0.481349 0.0897489 0.768916
256 2 0.820001 0.860357 0.875211
257 2 0.275246 0.410686 0.421449
258 2 0.368301 0.238545 0.392368
259 1 0.143294 0.659651 0.841957
260 2 0.403345 0.538298 0.85923
261 1 0.632399 0.747992 0.870895
262 2 0.884246 0.901647 0.698809
263 2 0.0548494 0.669729 0.981299
264 2 0.160324 0.545639 0.0213924
265 1 0.442657 0.56717 0.894708
266 2 0.315449 0.835333 0.654628
267 2 0.687706 0.184941 0.401793
268 1 0.863751 0.179983 0.599396
269 1 0.288226 0.589189 0.667618
270 2 0.804078 0.199443 0.562985
271 2 0.904222 0.298165 0.758208
272 2 0.536708 0.219071 0.529599
273 1 0.548583 0.746091 0.327441
274 2 0.916344 0.7144 0.933727
275 2 0.956796 0.0915862 0.990824
276 2 0.618464 0.373781 0.250954
277 2 0.687808 0.604167 0.643935
278 2 0.449278 0.223041 0.281126
279 2 0.0260881 0.759697 0.845555
280 1 0.728056 0.885255 0.0027051
281 2 0.966707 0.624639 0.840672
282 2 0.0950166 0.293466 0.569467
283 2 0.806236 0.368149 0.206096
284 1 0.952561 0.443388 0.577414
285 2 0.895106 0.909761 0.382868
286 2 0.360377 0.122411 0.633086
287 1 0.768582 0.497245 0.904294
288 2 0.350763 0.111056 0.409363
289 2 0.389929 0.192185 0.933367
290 2 0.484057 0.363233 0.220515
291 2 0.548548 0.288563 0.34747
292 2 0.31068 0.961049 0.382921
293 2 0.962209 0.621234 0.259472
294 2 0.816161 0.0533038 0.00601753
295 2 0.15176 0.598719 0.213566
296 2 0.67672 0.974362 0.988052
297 2 0.101431 0.549763 0.0403614
298 2 0.038517 0.908529 0.214795
299 1 0.803079 0.876701 0.42608
300 2 0.847004 0.342369 -0.000372508
301 2 0.607765 0.190134 0.893107
302 2 0.875952 0.456894 0.426491
303 2 0.842332 0.207174 0.555668
304 1 0.313953 0.958163 0.990684
305 2 0.21778 0.751436 0.0380401
306 2 0.319225 0.755556 0.0987641
307 2 0.262181 0.447925 0.31345
308 2 0.590337 0.0926926 0.661736
309 2 0.201616 0.691107 0.405184
310 2 0.79377 0.861565 0.712045
311 2 0.121633 0.946015 0.29372
312 2 0.930337 0.154873 0.762008
313 2 0.0190243 0.21113 0.799845
314 2 0.0188735 0.120176 0.0484511
315 2 0.194244 0.527348 0.412775
316 2 0.682603 0.73218 0.86589
317 2 0.436144 0.297836 0.0486355
318 2 0.301592 0.297897 0.683141
319 2 0.958758 0.145102 0.502726
320 2 0.313975 0.400129 0.408227
321 2 0.666611 0.215711 0.398413
322 2 0.277877 0.570888 0.710388
323 2 0.45134 0.250925 0.0889283
324 2 0.889977 0.980085 0.39869
325 2 0.0494397 0.27781 0.671814
326 2 0.0336574 0.303375 0.0806948
327 2 0.278948 0.0691727 0.54271
328 2 0.208232 0.154895 0.787246
329 1 0.92438 0.544331 0.169143
330 2 0.017888 0.020746 0.533014
331 2 0.637893 0.0816948 0.693465
332 2 0.837385 0.285633 0.96501
333 2 0.398227 0.148723 0.391565
334 2 0.609604 0.158675 0.140227
335 1 0.362412 0.584617 0.255741
336 2 0.841539 0.390669 0.615696
337 2 0.136885 0.321457 0.0182878
338 1 0.003434 0.0553813 0.943479
339 2 0.642957 0.0899323 0.375818
340 2 0.327402 0.509964 0.0344844
341 2 0.790668 0.247195 0.41689
342 2 0.732706 0.448295 0.153109
343 2 0.672485 0.461277 0.464726
344 1 0.790558 0.955238 0.609474
345 1 0.438982 0.851195 0.217097
346 1 0.626033 0.856275 0.869736
347 1 0.0153889 0.778407 0.23611
348 2 0.0670835 0.0631839 0.588143
349 2 0.0333141 0.55535 0.664865
350 2 0.0681678 0.475512 0.786948
351 2 0.439258 0.266526 0.0198171
352 2 0.922574 0.427739 0.518561
353 1 0.864922 0.673097 0.207148
354 1 0.172257 0.321443 0.442533
355 2 0.0951153 0.638212 0.181734
356 2 0.528889 0.601133 0.0939475
357 2 0.451861 0.655607 0.727668
358 2 0.840477 0.90331 0.425954
359 2 0.0532241 0.208014 0.665157
360 2 0.851937 0.0890081 0.0509986
361 1 0.976225 0.0149683 0.0443391
362 2 0.877889 0.632485 0.164529
363 1 0.0785203 0.0960436 0.754215
364 2 0.234673 0.760393 0.837361
365 2 0.844912 0.488762 0.0663998
366 2 0.183848 0.828135 0.0457223
367 1 0.667854 0.798663 0.943217
368 1 0.866221 0.120752 0.852579
369 2 0.453473 0.199088 0.574334
370 2 0.518602 0.972481 0.0618026
371 2 0.996541 0.595815 0.243516
372 1 0.652345 0.50943 0.401137
373 2 0.840691 0.107593 0.798083
374 2 0.734176 0.565317 0.959171
375 2 0.135894 0.593935 0.598365
376 2 0.945341 0.770417 0.18079
377 2 0.0721044 0.972739 0.0905328
378 2 0.126411 0.729316 0.759237
379 2 0.83205 0.346959 0.893695
380 2 0.116408 0.849488 0.898252
381 2 0.800432 0.33359 0.346623
382 2 0.097476 0.514499 0.27309
383 2 0.730967 0.0639689 0.198939
384 1 0.644518 0.503105 0.594277
385 2 0.411885 0.444293 0.551318
386 2 0.303776 0.547462 0.482343
387 1 0.83256 0.642026 0.143109
388 2 0.591713 0.742884 0.662098
389 2 0.665306 0.824894 1.00006
390 2 0.175091 0.400533 0.524338
391 2 0.265329 0.802995 0.691604
392 1 0.243647 0.599422 0.500143
393 2 0.456955 0.0547693 0.064321
394 2 0.267619 0.161245 0.746249
395 2 0.941638 0.608772 0.0382046
396 2 0.115244 0.172097 0.985862
397 2 0.782317 0.378068 0.270119
398 1 0.408663 0.203813 0.0807338
399 1 0.502354 1.0016 0.450725
400 1 0.463145 0.261717 0.230862
401 2 0.146801 0.558762 0.40012
402 2 0.989564 0.59861 0.204912
403 2 0.600778 0.840913 0.398299
404 2 0.241759 0.887887 0.989308
405 2 0.581279 0.398914 0.0498037
406 2 0.247903 0.668602 -0.000709132
407 2 0.63101 0.952926 0.996906
408 2 0.548733 0.95741 0.328802
409 2 0.654819 0.245324 0.178818
410 2 0.823476 0.345523 0.295128
411 2 0.305232 0.318416 0.874005
412 2 0.0183918 0.0963125 0.609192
413 2 0.830141 0.49584 0.437038
414 2 0.785665 0.489213 0.312932
415 2 0.401436 0.0825393 0.963852
416 1 0.311593 0.535189 0.742946
417 2 0.954125 0.744802 0.634326
418 2 0.931746 0.595151 0.685426
419 2 0.269889 0.168453 0.252603
420 2 0.539719 0.279802 0.522291
421 1 0.890273 0.869677 0.200997
422 1 0.867191 0.174627 0.883028
423 2 0.706112 0.261344 0.40619
424 2 0.961658 0.929093 0.311559
425 1 0.0928347 0.155143 0.830532
426 2 0.106704 0.904317 0.315853
427 2 0.559482 0.316103 0.495217
428 2 0.553194 0.685492 0.322529
429 2 0.622571 0.607496 0.65486
430 2 0.402066 0.842549 0.258235
431 2 0.0819383 0.311856 0.00782814
432 1 0.597229 0.941588 0.828331
433 2 0.874779 0.00986496 0.142846
434 1 0.212735 0.96143 0.595923
435 2 0.868703 0.489735 0.450821
436 2 0.373362 0.494751 0.0241547
437 2 0.606807 0.402934 0.249502
438 2 0.130247 0.027169 0.422196
439 1 0.103182 0.00807398 0.703673
440 2 0.65634 0.00464616 0.200259
441 1 0.841575 0.546358 0.851692
442 1 0.748541 0.9974 0.581011
443 1 0.374945 0.491279 0.960988
444 2 0.174007 0.794664 0.823201
445 2 0.823299 0.602652 0.181956
446 2 0.719145 0.350632 0.780852
447 2 0.69888 0.411471 0.273067
448 2 0.0867994 0.492435 0.408587
449 1 0.597314 0.0126981 0.391655
450 2 0.513236 0.561564 0.0951327
451 2 0.0426877 0.141901 0.0286851
452 2 0.410295 0.623528 0.0790141
453 1 0.908213 0.933811 0.0863358
454 2 0.228674 0.971584 0.416383
455 2 0.379022 0.312957 0.274797
456 2 0.205114 0.247426 0.396439
457 2 0.966679 0.96526 0.413185
458 2 0.921517 0.242333 0.792498
459 2 0.0795095 0.628202 0.607865
460 2 0.911778 0.833694 0.361433
461 2 0.957947 0.111132 0.765808
462 2 0.358375 0.0346351 0.515754
463 1 0.486473 0.58483 0.595788
464 2 0.83859 0.772702 0.412567
465 2 0.508932 0.779028 0.503212
466 2 0.920188 0.870052 0.0875208
467 1 0.499145 0.456853 0.346136
468 2 0.822066 0.852179 0.328697
469 2 0.892203 0.367676 0.0168907
470 2 0.934453 0.984685 0.545997
471 2 0.879138 0.386973 0.239093
472 2 0.89392 0.159311 0.866726
473 1 0.226018 0.515428 0.765987
474 1 0.159175 0.788167 0.855541
475 1 0.998341 0.734535 0.952553
476 2 0.140278 0.0527206 0.816115
477 2 0.663206 0.352469 0.576083
478 2 0.207947 0.428768 0.0308906
479 2 0.553907 0.321343 0.73809
480 2 0.0382549 0.774623 0.935747
481 2 0.203799 0.866083 0.389969
482 2 0.837224 0.557071 0.191961
483 2 0.356951 0.0608801 0.284638
484 1 0.754737 0.332464 0.249477
485 1 0.557155 0.871459 0.882721
486 2 0.656959 0.681618 0.934263
487 2 0.225236 0.491433 0.70425
488 2 0.324122 0.381924 0.839108
489 2 0.54798 0.246205 0.416462
490 2 0.391533 0.306437 0.254174
491 2 0.427796 0.172873 0.341994
492 2 0.944858 0.727226 0.557205
493 2 0.370925 0.444138 0.871193
494 2 0.111147 0.320444 0.38368
495 2 0.0699011 0.546944 0.931916
496 2 0.29211 0.264355 0.872425
497 2 0.436201 0.886603 0.453293
498 1 0.62686 0.798938 0.0726666
499 2 0.233929 0.00720456 0.570316
500 2 0.757868 0.480314 0.338943
501 1 0.931863 0.706142 0.207395
502 2 0.380104 0.963796 0.351766
503 2 0.110034 0.662042 0.880297
504 1 0.663535 0.71075 0.21429
505 2 0.287957 0.816163 0.335417
506 2 0.72303 0.171505 0.213027
507 2 0.0763459 0.638877 0.489083
508 2 0.00394357 0.202777 0.0666106
509 1 0.6386 0.668812 0.973581
510 2 0.334556 0.352695 0.602333
511 2 0.861408 0.4207 0.159493
512 2 0.128083 0.763284 0.107068
513 1 0.0632863 0.234184 0.316032
514 2 0.530409 0.047764 0.88247
515 1 0.628229 0.995569 0.561925
516 2 0.187318 0.623349 0.763899
517 1 0.4879 0.739582 0.238449
518 2 0.222173 0.561036 0.963022
519 2 0.749659 0.122229 0.485281
520 2 0.285453 0.579881 0.751138
521 2 0.474064 0.704011 0.196622
522 2 0.594005 0.945845 0.352522
523 2 0.588167 0.110715 0.0139973
524 2 0.57777 0.0101191 0.227727
525 2 0.487119 0.566545 0.309052
526 2 0.0088881 0.700453 0.395506
527 2 0.0170036 0.176127 0.555982
528 1 0.14813 0.39794 0.409768
529 2 0.212056 0.699038 0.2798
530 2 0.544771 0.663075 0.0119342
531 2 0.622076 0.883831 0.418137
532 2 0.958312 0.538879 0.429068
533 2 0.750265 0.755761 0.740531
534 1 0.759776 0.422935 0.2226
535 2 0.831829 0.819504 0.394442
536 1 0.418967 0.459771 0.119242
537 1 0.898409 0.934764 0.000754564
538 2 0.0899001 0.927464 0.245717
539 2 0.460212 0.0220853 0.604808
540 2 0.719563 0.988591 0.793722
541 1 0.386017 0.565644 0.676243
542 2 0.354177 0.096302 0.186197
543 1 0.991076 0.147698 0.661426
544 1 0.0328819 0.414265 0.123696
545 2 0.353613 0.168093 0.209571
546 2 0.80377 0.0555564 0.595747
547 2 0.178238 0.70522 0.208227
548 2 0.769719 0.521591 0.707048
549 2 0.509399 0.524115 0.830377
550 2 0.857667 0.623731 0.694433
551 1 0.0118496 0.3075 0.750701
552 2 0.0692189 0.877343 0.875559
553 2 0.449963 0.397664 0.86642
554 2 0.397469 0.299846 0.934873
555 1 0.131745 0.554549 0.495813
556 2 0.667317 0.649839 0.87505
557 2 0.78994 0.155748 0.798088
558 1 0.535292 0.462191 0.24158
559 2 0.433573 0.345126 0.498293
560 2 0.050216 0.568326 0.135251
561 2 0.996975 0.0935272 0.493203
562 1 0.899909 0.952039 0.577942
563 2 0.515348 0.31561 0.25885
564 2 0.74216 0.511156 0.571719
565 2 0.627462 0.13077 0.653654
566 2 0.0429201 0.928274 0.125406
567 2 0.982567 0.909702 0.517804
568 2 0.436377 0.706417 0.557627
569 1 0.893184 0.932826 0.47311
570 2 0.215131 0.420092 0.500897
571 2 0.87531 0.457217 0.237367
572 2 0.045155 0.147961 0.476285
573 2 0.756087 0.953598 0.0379371
574 2 0.867566 0.619962 0.609081
575 1 0.0344847 0.653792 0.271583
576 2 0.412345 0.551212 0.949414
577 2 0.254854 0.369543 0.263087
578 1 0.145117 0.926959 0.74615
579 2 0.595812 0.900005 0.562521
580 1 0.901947 0.44801 0.474897
581 2 0.203071 0.746515 0.579958
582 2 0.924677 0.651439 0.241012
583 1 0.0810265 0.105845 0.909644
584 2 0.241763 0.86574 0.165039
585 1 0.442324 0.206507 0.0457243
586 2 0.840789 0.104368 0.0965708
587 2 0.583426 0.259614 0.869569
588 2 0.925793 0.248174 0.811503
589 1 0.439428 0.486513 0.960987
590 1 0.409294 0.511546 0.0514693
591 1 0.982256 0.945523 0.367796
592 2 0.512721 0.572149 0.511448
593 2 0.481428 0.263447 0.936619
594 1 0.787204 0.305383 0.712646
595 1 0.200078 0.640224 0.0241807
596 2 0.466883 0.755663 0.998128
597 1 0.919452 0.691349 0.310874
598 2 0.745765 0.575301 0.984305
599 2 0.896127 0.631179 0.223392
600 2 0.648672 0.0654865 0.733791
601 2 0.149563 0.442804 0.66156
602 1 0.691687 0.25426 0.356055
603 2 0.592302 0.198642 0.00276438
604 1 0.493136 0.870655 0.137042
605 2 0.063945 0.877124 0.509539
606 2 0.866242 0.62924 0.220804
607 1 0.895065 0.803786 0.766741
608 2 0.107959 0.354554 0.937517
609 2 0.140682 0.70496 0.0196072
610 2 0.989713 0.0269924 0.989721
611 2 0.181434 0.672748 0.253556
612 1 0.388507 0.338127 0.873076
613 2 0.0166114 0.351142 0.132575
614 1 0.622201 0.0813557 0.330351
615 2 0.804177 0.71709 0.616269
616 1 0.0522516 0.128012 0.590122
617 2 0.938803 0.811679 0.340487
618 2 0.964631 0.267 0.856423
619 2 0.592612 0.0940186 0.246696
620 2 0.00832642 0.711537 0.17909
621 2 0.310678 0.48473 0.0554253
622 2 0.140261 0.524426 0.875168
623 1 0.347551 0.87643 0.145055
624 2 0.699691 0.846888 0.159746
625 2 0.890766 0.876689 0.892862
626 2 0.580591 0.0194888 0.145625
627 2 0.217382 0.339106 0.167263
628 2 0.88679 0.581669 0.110738
629 2 0.875591 0.557631 0.20805
630 1 0.857533 0.468962 0.345863
631 2 0.0886218 0.420533 0.76163
632 2 0.387025 0.4035 0.152243
633 2 0.759933 0.970714 0.0364998
634 2 0.865065 0.878681 0.0711985
635 2 0.228492 0.941411 0.61735
636 2 0.403901 0.723578 0.333684
637 2 0.17524 0.711562 0.362425
638 1 0.311032 0.114243 0.218339
639 2 0.630149 0.982906 0.902127
640 2 0.120899 0.61818 0.911797
641 2 0.781462 0.896501 0.585344
642 2 0.718592 0.382105 0.269307
643 2 0.450983 0.0701039 0.328804
644 2 0.372671 0.333818 0.968692
645 1 0.54305 0.876802 0.232125
646 2 0.359978 0.575539 0.905815
647 1 0.189997 0.48906 0.0288627
648 2 0.759532 0.367847 0.20276
649 2 0.816473 0.0448351 0.0982589
650 2 0.748363 0.345797 0.549661
651 2 0.0856581 0.195894 0.535213
652 2 0.37208 0.983972 0.207336
653 2 0.258608 0.887809 0.625313
654 1 0.0395499 0.803109 0.885157
655 2 0.297879 0.785977 0.497286
656 2 0.0606571 0.0424704 0.798883
657 2 0.80407 0.758499 0.824381
658 2 0.429095 0.592488 0.227148
659 2 0.401111 0.106147 0.928933
660 2 0.315516 0.288972 0.587879
661 1 0.119974 0.723852 0.30584
662 2 0.0499348 0.13097 0.522109
663 2 0.312237 0.528031 0.0865414
664 1 0.120029 0.0589506 0.316258
665 2 0.103069 0.638907 0.920198
666 2 0.593476 0.111795 0.904824
667 2 0.967732 0.664821 0.155375
668 2 0.819251 0.133933 0.949883
669 2 0.978662 0.241972 0.539178
670 1 0.109768 0.610512 0.311903
671 2 0.862109 0.41467 0.379777
672 1 0.296168 0.953578 0.167655
673 2 0.674034 0.487106 0.360937
674 2 0.777842 0.980001 0.248351
675 2 0.0759076 0.160505 0.298744
676 1 0.84483 0.516439 0.465645
677 2 0.697498 0.631614 0.925923
678 2 0.362803 0.0868128 0.935002
679 1 0.0753258 0.278925 0.472768
680 2 0.518103 0.28501 0.766937
681 1 0.273701 0.636496 0.553474
682 1 0.201152 0.793402 0.938607
683 2 0.517721 0.696643 0.331648
684 2 0.39587 0.600138 0.986449
685 2 0.273361 0.515701 0.640907
686 2 0.043686 0.393826 0.0290443
687 1 0.830494 0.19176 0.80514
688 2 0.246442 0.00990121 0.179132
689 2 0.0258493 0.0833907 0.888407
690 2 0.691846 0.862874 0.8948
691 2 0.745432 0.0704444 0.419674
692 1 0.7578 0.510203 0.421636
693 2 0.333618 0.605258 0.622893
694 2 0.806529 0.155659 0.577019
695 1 0.069217 0.236888 0.00063103
696 2 0.792029 0.953129 0.829245
697 2 0.199622 0.812917 0.100766
698 2 0.0262851 0.215928 0.128109
699 2 0.00458309 0.446966 0.541528
700 1 0.754867 0.208081 0.563063
701 2 0.476549 0.607962 0.440135
702 2 0.547534 0.135809 0.890163
703 2 0.215081 0.574567 0.396392
704 2 0.575549 0.746408 0.10045
705 2 0.838911 0.123743 0.0376087
706 2 0.586288 0.531762 0.481811
707 2 0.113434 0.50852 0.00957496
708 1 0.652268 0.282617 0.410521
709 2 0.368837 0.332296 0.248622
710 2 0.577888 0.342338 0.725431
711 2 0.622035 0.163122 0.284694
712 1 0.305285 0.203764 0.138286
713 2 0.115715 0.0838553 0.948858
714 1 0.963708 0.219279 0.836722
715 2 0.225021 0.152026 0.654506
716 1 0.536857 0.161445 0.351225
717 2 0.730481 0.94764 0.734181
718 2 0.589227 0.680282 0.888688
719 2 0.478352 0.690623 0.312456
720 2 0.229988 0.565776 0.693744
721 2 0.518334 0.281214 0.0884689
722 1 0.836909 0.0977655 0.931296
723 2 0.749905 0.318913 0.521061
724 2 0.809558 0.130541 0.399647
725 2 0.881548 0.0820672 0.102082
726 2 0.849743 0.368508 0.334113
727 1 0.56411 0.328425 0.265249
728 1 0.744229 0.569727 0.888485
729 1 0.592056 0.481539 0.473021
730 1 0.0209967 0.888584 0.462061
731 2 0.838755 0.604014 0.65002
732 1 0.902737 0.503265 0.29279
733 2 0.357205 0.167026 0.598703
734 2 0.861153 0.261068 0.545699
735 2 0.845935 0.0250424 0.0475726
736 1 0.341382 0.984247 0.57592
737 2 0.034097 0.103907 0.52507
738 2 0.990634 0.724461 0.263851
739 2 0.611495 0.479689 0.274552
740 2 0.457311 0.694227 0.0688362
741 2 0.788248 0.253147 0.745676
742 1 0.719668 0.945679 0.98565
743 2 0.895362 0.241613 0.800654
744 2 0.153892 0.983779 0.992034
745 2 0.637597 0.302873 0.873564
746 1 0.972742 0.767138 0.0368267
747 2 0.0502168 0.519897 0.224494
748 2 0.059793 0.163961 0.517149
749 2 0.220666 0.57188 0.606765
750 2 0.429828 0.854218 0.644048
751 2 0.298972 0.95356 0.530367
752 2 0.521288 0.0467193 0.275815
753 2 0.255909 0.555674 0.910633
754 2 0.250151 0.433915 0.132444
755 2 0.00886052 0.208551 0.277949
756 2 0.669082 0.708331 0.833776
757 2 0.0429484 0.179917 0.427042
758 2 0.143465 0.0550405 0.344706
759 2 0.855592 0.967215 0.262055
760 1 0.952982 0.824249 0.161527
761 2 0.636449 0.244343 0.41013
762 2 0.276125 0.650459 0.846884
763 1 0.0968337 0.890929 0.918042
764 2 0.0222116 0.539866 0.378803
765 2 0.734277 0.879108 0.668676
766 2 0.527068 0.0285375 0.778238
767 2 0.175034 0.340314 0.114088
768 2 0.95326 0.347618 0.23482
769 2 0.90618 0.106478 0.205962
770 2 0.912163 0.652826 0.168531
771 2 0.0991104 0.358906 0.40084
772 2 0.0931935 0.889609 0.264856
773 1 0.993615 0.662642 0.30693
774 2 0.912018 0.911432 0.676037
775 2 0.900958 0.566594 0.732612
776 2 0.183188 0.446583 0.159104
777 1 0.100755 0.777523 0.204198
778 2 0.598783 0.0971638 0.043342
779 2 0.102564 0.667219 0.222868
780 1 0.206849 0.202789 0.15982
781 2 0.97555 0.25783 0.0107972
782 2 0.213981 0.484477 0.379044
783 1 0.989103 0.980638 0.832641
784 2 0.552274 0.621419 0.0926121
785 2 0.857774 0.0560615 0.157702
786 1 0.917935 0.603961 0.195468
787 2 0.900335 0.972005 0.419394
788 2 0.413446 0.594082 0.669534
789 2 0.042409 0.647173 0.905418
790 2 0.886783 0.90974 0.349439
791 1 0.0413182 0.70195 0.442851
792 2 0.983342 0.352203 0.199987
793 2 0.238703 0.576213 0.0530499
794 2 0.277083 0.5729 0.861435
795 2 0.521585 0.223993 0.0886945
796 2 0.117037 0.631231 0.548983
797 2 0.904047 0.211193 0.620048
798 2 0.905979 0.152878 0.910928
799 2 0.0535276 0.702317 0.221186
800 2 0.0582703 0.570159 0.55745
801 2 0.543296 0.179394 0.401505
802 2 0.227813 0.523155 0.95511
803 2 0.169931 0.119241 0.324332
804 2 0.675382 0.061771 0.120833
805 2 0.0618612 0.614301 0.355674
806 1 0.964155 0.170382 0.874895
807 2 0.822842 0.541747 0.803186
808 2 0.554438 0.469582 0.0943768
809 1 0.336119 0.125169 0.347955
810 2 0.454594 0.680096 0.947486
811 2 0.889057 0.418554 0.536012
812 2 0.0331659 0.184921 0.22507
813 1 0.415594 0.406169 0.855713
814 2 0.926091 0.227833 0.626855
815 2 0.817977 0.384181 0.926906
816 1 0.278347 0.0871736 0.620307
817 1 0.970845 0.14454 0.810372
818 2 0.143212 0.0195392 0.0133153
819 1 0.255475 0.491537 0.0323692
820 1 0.477941 0.946569 0.0462931
821 2 0.540982 0.78764 0.436065
822 2 0.520376 0.0873689 0.453796
823 1 0.841081 0.6894 0.624437
824 2 0.66247 0.199081 0.322679
825 2 0.893737 0.216624 0.591789
826 2 0.366025 0.533388 0.768183
827 1 0.812981 0.421623 0.0110513
828 2 0.632141 0.949175 0.951119
829 2 0.0353539 0.327423 0.0973433
830 2 0.309195 0.206742 0.448696
831 1 0.986007 0.0907035 0.00488734
832 2 0.860495 0.754778 0.501834
833 1 0.895083 0.39442 0.10217
834 2 0.886627 0.748721 0.291727
835 2 0.854665 0.458487 0.472286
836 2 0.440695 0.534427 0.0105658
837 2 0.92442 0.360384 0.788421
838 2 0.792265 0.500723 0.0225641
839 2 0.987936 0.608954 0.384698
840 2 0.544016 0.998232 0.075415
841 2 0.981764 0.878523 0.711429
842 2 0.160887 0.256895 0.974328
843 2 0.0883193 0.683257 0.300248
844 2 0.689623 0.4026 0.62181
845 2 0.36251 0.350512 0.298858
846 2 0.24341 0.573482 0.675081
847 2 0.364763 0.00229525 0.6592
848 2 0.754532 0.0371898 0.0163644
849 1 0.565218 0.458042 0.292254
850 2 0.497955 0.0603207 0.89841
851 2 0.100403 0.161844 0.333429
852 2 0.661713 0.341843 0.489022
853 1 0.997388 0.653999 0.39417
854 2 0.594221 0.437437 0.235596
855 2 0.51174 0.265256 0.876167
856 2 0.808769 0.0362464 0.789828
857 2 0.417343 0.76706 0.304818
858 2 0.0403831 0.802982 0.803666
859 2 0.603054 0.475339 0.390543
860 2 0.980711 0.20938 0.67986
861 2 0.315284 0.234598 0.571302
862 2 0.629803 0.151468 0.695967
863 2 0.795946 0.473847 0.441008
864 2 0.526778 0.223133 0.911344
865 2 0.532739 0.750192 1.00399
866 2 0.422665 0.258756 0.251508
867 2 0.878126 0.45876 0.200334
868 2 0.251212 0.560378 0.00638251
869 2 0.842498 0.0189766 0.193685
870 2 0.785831 0.157276 0.40876
871 2 0.0514639 0.644793 0.870873
872 2 0.428769 0.106217 0.311116
873 2 0.330734 0.657809 0.937635
874 2 0.400925 0.880089 0.195071
875 2 0.218025 0.649677 0.3087
876 2 0.0775305 0.817263 0.99775
877 2 0.359331 0.542517 0.513553
878 2 0.779163 0.315425 0.769292
879 2 0.51816 0.0730063 0.077942
880 2 0.297091 0.536233 0.500566
881 2 0.518208 0.315231 0.811338
882 1 0.663837 0.666098 0.716674
883 1 0.730879 0.533898 0.0103931
884 2 0.779365 0.271167 0.0018756
885 2 0.621105 0.710838 0.960475
886 2 0.594431 0.491805 0.193415
887 1 0.56571 0.841321 0.528447
888 2 0.73505 0.321066 0.410436
889 2 0.592082 0.318947 0.127471
890 1 0.632246 0.707238 0.527012
891 2 0.243357 0.0731426 0.682065
892 2 0.027848 0.0122885 -0.000814506
893 2 0.498577 0.980499 0.890364
894 2 0.175094 0.429303 0.436931
895 1 0.40133 0.793511 0.276016
896 2 0.99079 0.236271 0.794687
897 2 0.550333 0.502218 0.515825
898 2 0.197798 0.336137 0.346804
899 2 0.305878 0.416861 0.170258
900 2 0.421863 0.667353 0.966251
901 2 0.0360558 0.359848 0.0596856