ITEM: TIMESTEP
18200
ITEM: NUMBER OF ATOMS
1000
ITEM: BOX BOUNDS xy xz yz pp pp pp
0.0000000000000000e+00 1.3572088000000001e+01 0.0000000000000000e+00
0.0000000000000000e+00 1.3572088000000001e+01 0.0000000000000000e+00
0.0000000000000000e+00 1.3572088000000001e+01 0.0000000000000000e+00
ITEM: ATOMS id type xs ys zs
1 2 0.870802 0.781362 0.0440642
2 2 0.906765 0.798954 0.67922
3 1 0.582103 0.878462 0.749302
4 2 0.992934 0.48224 0.764503
5 2 0.488725 0.575527 0.467918
6 1 0.431097 0.0553825 0.329688
7 2 0.689293 0.798803 0.0083574
8 2 0.56297 0.810989 0.0741901
9 2 0.298817 0.0998255 0.708744
10 2 0.832583 0.837609 0.927867
11 2 0.18152 0.943591 0.558667
12 2 0.782303 0.63666 0.107277
13 2 0.737212 0.765352 0.0262073
14 1 0.704723 0.877057 0.867599
15 2 0.0745731 0.0399001 0.3928
16 2 0.010787 0.0196888 0.145276
17 1 0.166916 0.708849 0.616202
18 2 0.578179 0.150024 0.750308
19 2 0.215738 0.719095 0.943001
20 2 0.521992 0.754148 0.903745
21 2 0.176619 0.55623 0.283173
22 2 0.44557 0.956298 0.168157
23 2 0.781565 0.625679 0.681318
24 2 0.910864 0.405279 0.288786
25 1 0.527851 0.266838 0.223001
26 2 0.762103 0.705436 0.705379
27 2 0.750698 0.500575 0.611147
28 2 0.4904 0.409158 0.833461
29 2 0.365578 0.777 0.370123
30 2 0.759607 0.715796 0.852748
31 1 0.211049 0.156223 0.606224
32 1 0.258698 0.510026 0.38261
33 1 0.290041 0.376267 0.813624
34 2 0.114831 0.551361 0.168801
35 2 0.836392 0.988837 0.996367
36 1 0.820258 0.9009 0.0126579
37 2 0.948836 0.528792 0.855564
38 2 0.870565 0.194613 0.941386
39 2 0.945859 0.649384 0.590598
40 2 0.0896042 0.402968 0.0512411
41 2 0.356443 0.935928 0.569946
42 2 0.566174 0.0585922 0.8015
43 2 0.821838 0.377267 0.378131
44 2 0.531468 0.349318 0.0825585
45 2 0.636261 0.590352 0.394984
46 1 0.0310257 0.763596 0.901423
47 2 0.549118 0.8466 0.126446
48 2 0.439836 0.319639 0.945953
49 2 0.50639 0.244582 0.919186
50 2 0.0627497 0.824703 0.299535
51 2 0.615888 0.258398 0.40935
52 2 0.385334 0.81991 0.998765
53 2 0.811153 0.351073 0.325044
54 2 0.75913 0.623317 0.087131
55 1 0.778445 0.656143 0.90547
56 1 0.641018 0.877016 0.172326
57 2 0.330268 0.574345 0.480188
58 2 0.0467941 0.0127987 0.967228
59 2 0.322176 0.999671 0.854149
60 2 0.355668 0.697383 0.129368
61 2 0.942386 0.948097 0.90198
62 2 0.800274 0.269931 0.282965
63 2 0.463624 0.0562273 0.571184
64 2 0.377602 0.484114 0.811162
65 2 0.285156 0.559545 0.719751
66 1 0.874175 0.376564 0.304195
67 2 0.630673 0.883575 0.354974
68 2 0.273121 0.928976 0.0709045
69 1 0.790217 0.278775 0.749591
70 2 0.399176 0.778662 0.723061
71 1 0.662459 0.325466 0.474323
72 2 0.768447 0.227549 0.635856
73 2 0.692448 0.0287582 0.343912
74 2 0.106666 0.395925 0.628327
75 2 0.0380235 0.917947 0.511145
76 2 0.868059 0.308486 0.532968
77 1 0.542269 0.764854 0.165716
78 2 0.942382 0.0494153 0.144845
79 2 0.324597 0.788258 0.734391
80 2 0.129429 0.0179682 0.368549
81 2 0.967936 0.00171236 0.998865
82 2 0.0337907 0.212049 0.503915
83 2 0.800392 0.323861 0.340064
84 2 0.166135 0.0959521 0.528753
85 1 0.521141 0.265154 0.293618
86 2 0.137948 0.83372 0.460491
87 2 0.206991 0.884619 0.566263
88 2 0.273637 0.508338 0.289459
89 2 0.940724 0.523044 0.856806
90 2 0.488577 0.585995 0.361721
91 2 0.239132 0.465267 0.395082
92 2 0.127999 0.589879 0.486877
93 2 0.276514 0.42477 0.265468
94 1 0.294967 0.853763 0.81194
95 2 0.0466792 0.0450939 0.488382
96 2 0.592537 0.403876 0.195168
97 2 0.602375 0.45905 0.690569
98 2 0.173658 0.770676 0.289684
99 2 0.896199 0.752719 0.632161
100 2 0.011978 0.831442 0.143293
101 1 0.898187 0.194289 0.910713
102 2 0.842536 0.449875 0.789995
103 2 0.676936 0.608734 0.68813
104 2 0.192508 0.387574 0.688919
105 2 0.717918 0.602567 0.673545
106 2 0.426229 0.589171 0.761537
107 2 0.715799 0.8068 0.264677
108 2 0.44007 0.229771 0.887941
109 2 0.787972 0.806601 0.488888
110 2 0.891522 0.119996 0.244953
111 2 0.168917 0.473341 0.0304474
112 1 0.993685 0.990486 0.262268
113 1 0.907614 0.489013 0.595888
114 2 0.439874 0.862476 0.00679651
115 2 0.748472 0.551304 0.0301205
116 2 0.407566 0.269122 0.639367
117 2 0.630423 0.560467 0.427039
118 2 0.0717066 0.340237 0.695951
119 2 0.458713 0.868943 0.982075
120 2 0.255044 0.306814 0.0984102
121 2 0.88161 0.450492 0.0679239
122 2 0.75299 0.702633 0.335708
123 2 0.257918 0.124768 0.375456
124 2 0.918397 0.198679 0.669707
125 1 0.880466 0.101208 0.861561
126 2 0.534468 0.884049 0.465053
127 2 0.537069 0.639732 0.256843
128 2 0.112172 0.282271 0.957814
129 1 0.986269 0.833875 0.801952
130 2 0.461213 0.545587 0.819842
131 2 0.655974 0.129223 0.81307
132 2 0.152746 0.940512 0.874973
133 2 0.451916 0.266841 0.16306
134 2 0.000908172 0.52438 0.640218
135 2 0.12881 0.129543 0.318144
136 2 0.824475 0.098703 0.145495
137 1 0.597999 0.815489 0.512532
138 2 0.143619 0.0786022 0.0393158
139 2 0.025235 0.00934836 0.431588
140 1 0.417506 0.885021 0.483553
141 2 0.779095 0.106893 0.0614536
142 2 0.829104 0.765496 0.838883
143 2 0.333786 0.869384 0.389079
144 2 0.98562 0.187837 0.206808
145 2 0.605564 0.352832 0.794623
146 2 0.911969 0.742331 0.93281
147 1 0.705209 0.458833 0.670274
148 1 0.832247 0.784895 0.966032
149 2 0.0544105 0.901334 0.363269
150 1 0.589838 0.611175 0.593599
151 2 0.25741 0.272516 0.870118
152 2 0.640368 0.61242 0.336188
153 1 0.486538 0.878633 0.485482
154 1 0.128409 0.79417 0.249367
155 2 0.566256 0.88194 0.56564
156 2 0.152443 0.132013 0.984956
157 2 0.0104298 0.396872 0.0721456
158 2 0.525021 0.289658 0.344698
159 2 0.625589 0.91856 0.905246
160 2 0.882064 0.186475 0.338006
161 2 0.0890844 0.508145 0.159504
162 2 0.293525 0.425186 0.134771
163 2 0.650658 0.790709 0.142482
164 2 0.282889 0.329279 0.516954
165 2 0.128249 0.460756 0.227314
166 2 0.772833 0.671746 0.793084
167 2 0.433661 0.0892574 0.648498
168 2 0.455027 0.0343982 0.627497
169 2 0.28882 0.281807 0.749359
170 2 0.588794 0.875153 0.411424
171 2 0.774523 0.981697 0.38804
172 2 0.338113 0.81848 0.378738
173 1 0.705113 0.92169 0.701495
174 2 0.484797 0.0259803 0.446704
175 2 0.944684 0.908057 0.287201
176 2 0.276616 0.41594 0.0933673
177 1 0.552982 0.947151 0.431904
178 2 0.407786 0.0642871 0.602934
179 2 0.957671 0.4901 0.792373
180 2 0.60973 0.179647 0.386372
181 2 0.89273 0.484542 0.946639
182 2 0.909911 0.718736 0.416046
183 2 0.896979 0.569505 0.848257
184 2 0.545516 0.548954 0.00702725
185 2 0.50421 0.517854 0.417364
186 2 0.626603 0.732018 0.518183
187 2 0.473511 0.323216 0.13369
188 1 0.821487 0.36277 0.494982
189 2 0.911963 0.842078 0.357833
190 2 0.633697 0.465224 0.639244
191 2 0.0283314 0.721479 0.11231
192 2 0.0928726 0.606309 0.676721
193 2 0.434591 0.887891 0.286185
194 2 0.614588 0.14245 0.39103
195 2 0.589215 0.860513 0.445188
196 2 0.480525 0.313772 0.911881
197 2 0.570872 0.221962 0.34084
198 2 0.0372782 0.701495 0.773329
199 2 0.338168 0.460391 0.337044
200 1 0.625466 0.898402 0.531294
201 2 0.501803 0.542879 0.819291
202 2 0.587474 0.670732 0.873063
203 2 0.787716 0.443779 0.718397
204 2 0.686659 0.231527 0.420915
205 2 0.787731 0.462846 0.571697
206 2 0.986948 0.691904 0.332122
207 2 0.666778 0.362177 0.886673
208 2 0.429462 0.1865 0.701548
209 2 0.776771 0.624189 0.506442
210 2 0.111403 0.838465 0.272855
211 2 0.903318 0.68898 0.0263241
212 1 0.663741 0.256932 0.372927
213 2 0.793647 0.572266 0.606208
214 2 0.609491 0.905646 0.0932285
215 2 0.649956 0.507149 0.969518
216 2 0.029033 0.534696 0.195089
217 2 0.284051 0.699124 0.236554
218 2 0.831507 0.645674 0.115698
219 2 0.995497 0.657047 0.986353
220 2 0.0560211 0.733593 0.700907
221 2 0.0863035 0.485249 0.189395
222 2 0.0641998 0.655311 0.329033
223 2 0.304278 0.783822 0.903842
224 2 0.33031 0.390783 0.25357
225 1 0.212272 0.419776 0.390677
226 2 0.504243 0.195142 0.0314069
227 2 0.668683 0.151313 0.549548
228 2 0.348478 0.376482 0.885978
229 2 0.170591 0.192942 0.612811
230 1 0.335039 0.583697 0.773552
231 2 0.546109 0.518437 0.315791
232 2 0.811527 0.687107 0.803806
233 1 0.271809 0.0525727 0.291576
234 2 0.42656 0.24219 0.48886
235 2 0.403183 0.49882 0.824183
236 2 0.774115 0.802108 0.0449634
237 2 0.532042 0.855144 0.754152
238 1 0.718533 0.176867 0.476898
239 1 0.671631 0.251886 0.253473
240 2 0.331215 0.505797 0.0607465
241 2 0.569643 0.312497 0.361021
242 1 0.506766 0.200808 0.489972
243 1 0.790465 0.655218 0.43908
244 2 0.233779 0.0092854 0.794335
245 2 0.542722 0.638385 0.941486
246 1 0.266582 0.488846 0.68538
247 2 0.720924 0.912139 0.0787187
248 2 0.0810529 0.583299 0.242271
249 2 0.773265 0.440114 0.840751
250 2 0.705738 0.467311 0.218929
251 2 0.338992 0.315599 0.487931
252 2 0.620635 0.0374076 0.227943
253 2 0.98984 0.26785 0.0191617
254 2 0.815046 0.576794 0.433227
255 2 0.088838 0.182843 0.827646
256 2 0.811051 0.982288 0.717938
257 2 0.859082 0.324867 0.629065
258 2 0.443485 0.389901 0.552009
259 1 0.0593719 0.0655865 0.260583
260 2 0.258509 0.833152 0.795045
261 1 0.735022 0.854279 0.718749
262 2 0.743449 0.737483 0.60568
263 2 0.952336 0.59926 0.81062
264 2 0.82672 0.969303 0.642327
265 1 0.948037 0.469582 0.307751
266 2 0.751246 0.235252 0.812739
267 2 0.535682 0.00902165 0.383754
268 1 0.997533 0.687923 0.285445
269 1 0.159482 0.472341 0.371711
270 2 0.750156 0.532423 0.337875
271 2 0.700704 0.379448 0.489303
272 2 0.15116 0.379349 0.957958
273 1 0.537313 0.813653 0.342273
274 2 0.659057 0.736151 0.555924
275 2 0.933362 0.180634 0.0250957
276 2 0.178456 0.524326 0.358194
277 2 0.114709 0.734781 0.506727
278 2 0.232532 0.594736 0.497673
279 2 0.883146 0.525567 0.869861
280 1 0.962553 0.371232 0.313513
281 2 0.510452 0.263446 0.414854
282 2 0.711813 0.111513 0.507404
283 2 0.764563 0.676916 0.734538
284 1 0.648284 0.633646 0.797194
285 2 0.176539 0.743443 0.521351
286 2 0.955888 0.891584 0.625839
287 1 0.370241 0.812616 0.728483
288 2 0.424892 0.570557 0.370474
289 2 0.158663 0.690827 0.546967
290 2 0.0612287 0.0465596 0.0180185
291 2 0.499888 0.658121 0.988905
292 2 0.0318942 0.115106 0.193495
293 2 0.708711 0.936375 0.732016
294 2 0.792581 0.491347 0.120328
295 2 0.0508592 0.0618868 0.343192
296 2 0.115499 0.835143 0.787767
297 2 0.937666 0.451135 0.150235
298 2 0.475499 0.976858 0.66443
299 1 0.144762 0.31825 0.333204
300 2 0.841851 0.481457 0.709636
301 2 0.63081 0.438988 0.672296
302 2 0.318356 0.421823 0.13848
303 2 0.940648 0.137683 0.0938617
304 1 0.385857 0.365619 0.179396
305 2 0.982005 0.905577 0.422953
306 2 0.349148 0.73184 0.956594
307 2 0.841759 0.312963 0.0221741
308 2 0.427523 0.343287 0.639352
309 2 0.367215 0.106462 0.625764
310 2 0.71384 0.229778 0.490689
311 2 0.295851 0.580418 0.306271
312 2 0.310433 0.778435 0.597029
313 2 0.348173 0.30961 0.54066
314 2 0.923496 0.35872 0.73507
315 2 0.419148 0.488596 0.401826
316 2 0.489414 0.91952 0.243655
317 2 0.223147 0.246567 0.211799
318 2 0.00556165 0.0878356 0.985484
319 2 0.68234 0.972147 0.955884
320 2 0.997385 0.547897 0.227771
321 2 0.336469 0.19629 0.914825
322 2 0.62816 0.427714 0.421763
323 2 0.345944 0.0997383 0.27366
324 2 0.00446503 0.845962 0.231823
325 2 0.350557 0.0505814 0.269494
326 2 0.628711 0.357396 0.203549
327 2 0.126432 0.141467 0.262051
328 2 0.947424 0.563344 0.550049
329 1 0.190465 0.62034 0.539634
330 2 0.266879 0.417693 0.146209
331 2 0.624472 0.868358 0.678722
332 2 0.525845 0.360621 0.163477
333 2 0.964334 0.34835 0.844982
334 2 0.962872 0.220716 0.702918
335 1 0.677428 0.847928 0.0590913
336 2 0.986859 0.0195963 0.399989
337 2 0.137987 0.571417 0.280715
338 1 0.820848 0.385004 0.837375
339 2 0.0922865 0.812951 0.305255
340 2 0.0454591 0.896673 0.485022
341 2 0.930975 0.173258 0.968506
342 2 0.0862763 0.949952 0.96989
343 2 0.422839 0.108934 0.406367
344 1 0.614989 0.958885 0.310895
345 1 0.64888 0.0607487 0.79407
346 1 0.799757 0.850244 0.84206
347 1 0.921229 0.589308 0.746537
348 2 0.868631 0.964519 0.662545
349 2 0.534094 0.875309 0.303722
350 2 0.218867 0.388142 0.751772
351 2 0.840627 0.0103314 0.0854124
352 2 0.890327 0.25739 0.992216
353 1 0.0817259 0.505374 0.121883
354 1 0.31885 0.0436384 0.903808
355 2 0.122699 0.318824 0.0499131
356 2 0.444055 0.847355 0.184938
357 2 0.285163 0.687634 0.667834
358 2 0.680543 0.891062 0.728624
359 2 0.623993 0.400883 0.0461978
360 2 0.442861 0.535688 0.819895
361 1 0.335212 0.838298 0.0823794
362 2 0.0418094 0.219244 0.105187
363 1 0.165746 0.856751 0.763765
364 2 0.787185 0.338664 0.586607
365 2 0.617753 0.958025 0.607809
366 2 0.594338 0.93066 0.466521
367 1 0.545801 0.842054 0.631685
368 1 0.00145128 0.192197 0.0325105
369 2 0.10019 0.499915 0.967914
370 2 0.467622 0.942553 0.517732
371 2 0.783353 0.853737 0.297282
372 1 0.271951 0.313662 0.336483
373 2 0.0579717 0.687092 0.424446
374 2 0.39272 0.190621 0.948506
375 2 0.545313 0.250448 0.396498
376 2 0.118657 0.219047 0.735697
377 2 0.128308 0.0699881 0.921663
378 2 0.599219 0.92515 0.847415
379 2 0.699528 0.211358 0.524296
380 2 0.0667167 0.817376 0.221468
381 2 0.683125 0.109764 0.768565
382 2 0.651181 0.823932 0.607111
383 2 0.576254 0.823391 0.379265
384 1 0.415616 0.751864 0.761852
385 2 0.889549 0.474597 0.637449
386 2 0.63121 0.444814 0.608203
387 1 0.762033 0.863591 0.0313337
388 2 0.331426 0.744308 0.628843
389 2 0.840069 0.89649 0.555
390 2 0.561461 0.317599 0.298391
391 2 0.706817 0.979615 0.283978
392 1 0.799276 0.404225 0.7516
393 2 0.165484 0.75367 0.952557
394 2 0.383292 0.0899869 0.258569
395 2 0.981893 0.878992 0.123216
396 2 0.60172 0.0823223 0.477599
397 2 0.34171 0.779912 0.674081
398 1 0.431443 0.262733 0.11777
399 1 0.093207 0.192717 0.470649
400 1 0.808035 0.108949 0.381284
401 2 0.0378424 0.0211076 0.350168
402 2 0.966866 0.649099 0.785599
403 2 0.616029 0.218948 0.41722
404 2 0.152822 0.511506 0.022138
405 2 0.422018 0.307516 0.392983
406 2 0.394459 0.233329 0.156383
407 2 0.66972 0.231769 0.435102
408 2 0.747042 0.958891 0.421902
409 2 0.72324 0.24816 0.117812
410 2 0.206598 0.22631 0.186176
411 2 0.0534844 0.855602 0.253928
412 2 0.429304 0.192701 0.937948
413 2 0.401109 0.187869 0.0110813
414 2 0.799837 0.630754 0.376827
415 2 0.663027 0.479227 0.78212
416 1 0.324557 0.566594 0.660914
417 2 0.779683 0.699885 0.152566
418 2 0.608152 0.325428 0.552457
419 2 0.259663 0.809815 0.561594
420 2 0.246717 0.206921 0.681506
421 1 0.587115 0.957805 0.801825
422 1 0.240964 0.906908 0.684447
423 2 0.845324 0.409812 0.270326
424 2 0.746008 0.476348 0.514933
425 1 0.211338 0.659561 0.588772
426 2 0.827805 0.635237 0.976117
427 2 0.989339 0.765844 0.538282
428 2 0.260989 0.420372 0.392108
429 2 0.760567 0.440468 0.754821
430 2 0.789409 0.16357 0.586715
431 2 0.416451 0.820404 0.177047
432 1 0.521393 0.703643 0.038636
433 2 0.190183 0.427527 0.137863
434 1 0.52778 0.988922 0.559438
435 2 0.0237149 0.165118 0.173447
436 2 0.544233 0.915006 0.790337
437 2 0.985909 0.109228 0.78103
438 2 0.333593 0.34023 0.219078
439 1 0.485756 0.948642 0.559834
440 2 0.762025 0.226752 0.598937
441 1 0.619933 0.561052 0.261859
442 1 0.590044 0.33689 0.0956692
443 1 0.288232 0.563095 0.129561
444 2 0.363564 0.720581 0.600899
445 2 0.682106 0.655324 0.132633
446 2 0.718016 0.835233 0.406641
447 2 0.558458 0.551761 0.61913
448 2 0.293307 0.818679 0.315612
449 1 0.968968 0.552294 0.790804
450 2 0.435997 0.632182 0.300182
451 2 0.96888 0.744577 0.780181
452 2 0.212029 0.466902 0.440824
453 1 0.100912 0.0602589 0.414054
454 2 0.737517 0.597945 0.0153255
455 2 0.616384 0.030961 0.420716
456 2 0.0321908 0.0393933 0.387726
457 2 0.390182 0.532421 0.352267
458 2 0.71982 0.229924 0.270282
459 2 0.766198 0.501492 0.638945
460 2 0.118793 0.269838 0.125892
461 2 0.897897 0.394721 0.955443
462 2 0.46499 0.660848 0.578874
463 1 0.435554 0.467709 0.583139
464 2 0.797335 0.516295 0.664526
465 2 0.913451 0.540256 0.836267
466 2 0.0185621 0.826941 0.737312
467 1 0.507399 0.382424 0.213422
468 2 0.910294 0.688701 0.530516
469 2 0.142513 0.0918589 0.00468181
470 2 0.265842 0.622151 0.845691
471 2 0.180907 0.316487 0.00235393
472 2 0.463885 0.0972054 0.766715
473 1 0.199902 0.653145 0.855824
474 1 0.0877238 0.958838 0.676755
475 1 0.269369 0.560301 0.829312
476 2 0.113822 0.487317 0.134646
477 2 0.750108 0.573819 0.473693
478 2 0.579852 0.726346 0.138279
479 2 0.790744 0.755574 0.837417
480 2 0.665547 0.164565 0.22107
481 2 0.267598 0.903546 0.951243
482 2 0.362334 0.393822 0.937529
483 2 0.661984 0.488306 0.241502
484 1 0.64957 0.159779 0.346255
485 1 0.750391 0.97166 0.896515
486 2 0.957887 0.373825 0.864313
487 2 0.783132 0.697685 0.660474
488 2 0.145273 0.528563 0.240401
489 2 0.112985 0.563773 0.297152
490 2 0.046196 0.716365 0.288633
491 2 0.325389 0.929904 0.31056
492 2 0.371137 0.874502 0.317733
493 2 0.288578 0.991145 0.769874
494 2 0.15065 0.903837 0.75321
495 2 0.458941 0.315814 0.188736
496 2 0.578729 0.11156 0.54792
497 2 0.11121 0.528425 0.224949
498 1 0.471676 0.813834 0.220586
499 2 0.191033 0.468345 0.71985
500 2 0.199103 0.176985 0.525614
501 1 0.896086 0.10561 0.194363
502 2 0.941931 0.235716 0.00911091
503 2 0.293764 0.402113 0.933919
504 1 0.799385 0.835008 0.189967
505 2 0.904495 0.312278 0.300877
506 2 0.317922 0.73089 0.888752
507 2 0.886721 0.696833 0.361994
508 2 0.330982 0.918039 0.914833
509 1 0.121978 0.514398 0.368521
510 2 0.500397 0.126724 0.0843752
511 2 0.668067 0.30935 0.971893
512 2 0.969358 0.069952 0.957677
513 1 0.196436 0.0987288 0.33995
514 2 0.438724 0.935335 0.435845
515 1 0.57243 0.211765 0.420151
516 2 0.399725 0.163671 0.273239
517 1 0.611789 0.0792706 0.603977
518 2 0.299296 0.0287261 0.977701
519 2 0.636907 0.330723 0.724704
520 2 0.577824 0.526433 0.559219
521 2 0.960214 0.073759 0.11558
522 2 0.136036 0.782588 0.765138
523 2 0.781261 0.311836 0.783246
524 2 0.486443 0.160053 0.0995237
525 2 0.767509 0.223996 0.0987837
526 2 0.457619 0.666896 0.767663
527 2 0.505497 0.873562 0.253127
528 1 0.114379 0.381413 0.596679
529 2 0.306689 0.912854 0.848948
530 2 0.27662 0.840531 0.763153
531 2 0.433868 0.950404 0.868522
532 2 0.605847 0.617018 0.0599095
533 2 0.595159 0.357595 0.920861
534 1 0.49501 0.153746 0.981687
535 2 0.50607 0.279843 0.0749936
536 1 0.150118 0.124795 0.0328502
537 1 0.91543 0.320868 0.966793
538 2 0.326044 0.0917411 0.271384
539 2 0.861438 0.449015 0.645537
540 2 0.839191 0.415514 0.633397
541 1 0.428786 0.0284656 0.537205
542 2 0.738661 0.16784 0.0349754
543 1 0.497369 0.122825 0.124157
544 1 0.500558 0.266449 0.158243
545 2 0.290501 0.105366 0.932071
546 2 0.17049 0.16993 0.753412
547 2 0.503636 0.900322 0.673407
548 2 0.396154 0.824633 0.678315
549 2 0.412028 0.176301 0.90624
550 2 0.672398 0.503712 0.737541
551 1 0.743386 0.970425 0.510118
552 2 0.963489 0.617212 0.783056
553 2 0.426511 0.189829 0.83372
554 2 0.450201 0.667753 0.902737
555 1 0.818178 0.483684 0.861363
556 2 0.30417 0.356913 0.739306
557 2 0.729671 0.253472 0.818792
558 1 0.294182 0.969935 0.091854
559 2 0.131297 0.959724 0.411208
560 2 0.94019 0.675987 0.986972
561 2 0.629826 0.239431 0.433385
562 1 0.419802 0.367953 0.687938
563 2 0.0497753 0.546986 0.185201
564 2 0.2395 0.485272 0.51756
565 2 0.304334 0.197324 0.846606
566 2 0.165517 0.966561 0.377145
567 2 0.0764034 0.0716536 0.0470699
568 2 0.410482 0.602531 0.585526
569 1 0.76155 0.567044 0.954903
570 2 0.972561 0.371454 0.989695
571 2 0.851053 0.532409 0.0485268
572 2 0.927614 0.314966 0.344453
573 2 0.54891 0.12952 0.594278
574 2 0.599247 0.0721306 0.870609
575 1 0.0532017 0.987854 0.763078
576 2 0.0786494 0.589363 0.174078
577 2 0.327733 0.879646 0.811082
578 1 0.462168 0.379598 0.595819
579 2 0.639349 0.818553 0.0490519
580 1 0.353819 0.392615 0.324543
581 2 0.779277 0.923406 0.767309
582 2 0.535138 0.746702 0.248857
583 1 0.38668 0.454878 0.616025
584 2 0.830278 0.785066 0.0294408
585 1 0.320926 0.29705 0.152407
586 2 0.542941 0.444145 0.676231
587 2 0.127782 0.673705 0.879937
588 2 0.660069 0.20204 0.0316952
589 1 0.254848 0.385449 0.952697
590 1 0.890759 0.0867016 0.431631
591 1 0.732882 0.134127 0.339634
592 2 0.742662 0.636024 0.863445
593 2 0.269454 0.317425 0.809407
594 1 0.556282 0.40074 0.09128
595 1 0.900161 0.205406 0.968511
596 2 0.332594 0.815754 0.466458
597 1 0.639634 0.859862 0.270988
598 2 0.532499 0.909386 0.416114
599 2 0.660315 0.752779 0.785815
600 2 0.965832 0.904548 0.92452
601 2 0.98334 0.227829 0.0371044
602 1 0.605715 0.381778 0.400709
603 2 0.905058 0.15525 0.840566
604 1 0.413948 0.307442 0.828807
605 2 0.53889 0.477093 0.698446
606 2 0.31687 0.759845 0.0469534
607 1 0.267459 0.577161 0.560116
608 2 0.70842 0.224746 0.45085
609 2 0.146972 0.148792 0.966261
610 2 0.642093 0.958091 0.770131
611 2 0.817939 0.480395 0.527115
612 1 0.559303 0.155482 0.0952979
613 2 0.600834 0.232353 0.36738
614 1 0.759363 0.122486 0.428683
615 2 0.567538 0.193687 0.869897
616 1 0.0995906 0.0702033 0.515073
617 2 0.166591 0.462105 0.761806
618 2 0.900012 0.201051 0.598169
619 2 0.39408 0.458393 0.720708
620 2 0.698856 0.815159 0.183242
621 2 0.486223 0.30888 0.713492
622 2 0.633374 0.00818077 0.512323
623 1 0.405378 0.860562 0.286546
624 2 0.379382 0.292486 0.70964
625 2 0.358923 0.930651 0.941363
626 2 0.423107 0.147289 0.210003
627 2 0.444703 0.428374 0.444938
628 2 0.120811 0.418802 0.78903
629 2 0.330332 0.480006 0.869843
630 1 0.910223 0.172107 0.168652
631 2 0.743305 0.13006 0.518893
632 2 0.963796 0.259609 0.554823
633 2 0.126165 0.862733 0.938421
634 2 0.206473 0.523188 0.189295
635 2 0.129097 0.834434 0.296047
636 2 0.410084 0.490234 0.800049
637 2 0.398331 0.89735 0.787705
638 1 0.570787 0.904048 0.679799
639 2 0.520847 0.791104 0.740152
640 2 0.361802 0.395151 0.745784
641 2 0.610733 0.276032 0.0337018
642 2 0.60633 0.470134 0.269219
643 2 0.890562 0.588176 0.806415
644 2 0.42424 0.811473 0.0186853
645 1 0.709246 0.959173 0.339631
646 2 0.0324401 0.592298 0.227552
647 1 0.209272 0.0486309 0.109745
648 2 0.780563 0.493969 0.651087
649 2 0.7059 0.211719 0.235419
650 2 0.916749 0.717051 0.982298
651 2 0.578491 0.822528 0.790409
652 2 0.566886 0.268945 0.228521
653 2 0.99465 0.225651 0.962853
654 1 0.559344 0.310172 0.941383
655 2 0.0444461 0.0174383 0.464609
656 2 0.993446 0.585212 0.957915
657 2 0.499477 0.856275 0.34475
658 2 0.947974 0.0153274 0.393231
659 2 0.44035 0.0442961 0.703156
660 2 0.0926975 0.791156 0.114379
661 1 0.659684 0.170674 0.432082
662 2 0.797984 0.581324 0.550615
663 2 0.311261 0.204229 0.422053
664 1 0.0238139 0.481334 0.303443
665 2 0.275922 0.837818 0.422192
666 2 0.582631 0.719775 0.803829
667 2 0.317867 0.514309 0.158267
668 2 0.232941 0.321972 0.144436
669 2 0.539833 0.369921 0.120243
670 1 0.579356 0.686342 0.0773971
671 2 0.84218 0.493996 0.0869367
672 1 0.672058 0.892542 0.484623
673 2 0.81165 0.471534 0.698278
674 2 0.59551 0.86007 0.489282
675 2 0.0737765 0.459952 0.582692
676 1 0.0936542 0.000693893 0.569006
677 2 0.808338 0.177698 0.551707
678 2 0.837866 0.951014 0.342611
679 1 0.947799 0.957238 0.735814
680 2 0.110624 0.905962 0.877053
681 1 0.367481 0.395587 0.590628
682 1 0.925991 0.877614 0.803559
683 2 0.441205 0.442103 0.341281
684 2 0.065343 0.703865 0.845574
685 2 0.530057 0.92187 0.301421
686 2 0.661456 0.859214 0.996041
687 1 0.991601 0.168836 0.137743
688 2 0.564702 0.673071 0.140225
689 2 0.591753 0.866867 0.302147
690 2 0.276677 0.658659 0.72122
691 2 0.243097 0.973331 0.517739
692 1 0.980344 0.552477 0.913055
693 2 0.486567 0.375675 0.541036
694 2 0.926711 0.876288 0.300664
695 1 0.587577 0.748371 0.0738618
696 2 0.0173409 0.361216 0.270796
697 2 0.19581 0.323772 0.0264896
698 2 0.724603 0.864973 0.474201
699 2 0.00904204 0.126754 0.0207566
700 1 0.447015 0.534358 0.876652
701 2 0.469169 0.209194 0.988951
702 2 0.79194 0.110076 0.322397
703 2 0.435496 0.490619 0.0159127
704 2 0.111895 0.521328 0.665376
705 2 0.887748 0.562801 0.991815
706 2 0.350675 0.344676 0.377354
707 2 0.130336 0.429267 0.654292
708 1 0.655356 0.160379 0.884651
709 2 0.704747 0.482571 0.845942
710 2 0.151669 0.553595 0.149514
711 2 0.936123 0.937583 0.436089
712 1 0.014819 0.029964 0.0800883
713 2 0.136916 0.705917 0.459731
714 1 0.789223 0.347628 0.218468
715 2 0.321406 0.07212 0.931549
716 1 0.593413 0.765189 0.7895
717 2 0.368463 0.0396589 0.267659
718 2 0.338962 0.695937 0.106889
719 2 0.474828 0.441648 0.596059
720 2 0.0492413 0.953198 0.505876
721 2 0.227548 0.318083 0.951909
722 1 0.0306712 0.401752 0.594915
723 2 0.575692 0.502326 0.348247
724 2 0.154214 0.711484 0.857381
725 2 0.76189 0.760041 0.673982
726 2 0.274909 0.739752 0.819996
727 1 0.567411 0.848393 0.683251
728 1 0.819583 0.562335 0.34194
729 1 0.505412 0.313387 0.0159027
730 1 0.354018 0.00200775 0.538815
731 2 0.446416 0.476733 0.469776
732 1 0.737956 0.708625 0.77992
733 2 0.837751 0.492114 0.488044
734 2 0.787598 0.56695 0.89302
735 2 0.248309 0.0862735 0.0417685
736 1 0.47155 0.47069 0.834458
737 2 0.30505 0.921468 0.388141
738 2 0.647175 0.627889 0.191259
739 2 0.325139 0.645424 0.461155
740 2 0.103197 0.660964 0.927389
741 2 0.267887 0.473179 0.345809
742 1 0.790958 0.939635 0.962655
743 2 0.633139 0.979217 0.491899
744 2 0.406883 0.10781 0.589181
745 2 0.344793 0.479749 0.244536
746 1 0.832744 0.605289 0.856626
747 2 0.364965 0.541172 0.997396
748 2 0.782003 0.734471 0.912812
749 2 0.710617 0.651712 0.117101
750 2 0.0636805 0.666361 0.467829
751 2 0.0901818 0.815704 0.599545
752 2 0.0980195 0.301246 0.422545
753 2 0.309828 0.0147047 0.795956
754 2 0.159684 0.0184935 0.288318
755 2 0.854477 0.487432 0.647431
756 2 0.432388 0.220126 0.559616
757 2 0.870159 0.654757 0.383905
758 2 0.499631 0.0367845 0.991741
759 2 0.416469 0.467228 0.866409
760 1 0.483763 0.768185 0.551716
761 2 0.102524 0.110129 0.996844
762 2 0.359376 0.370543 0.769579
763 1 0.446056 0.243731 0.940304
764 2 0.673953 0.498318 0.0042247
765 2 0.505472 0.116206 0.0270545
766 2 0.676358 0.0701314 0.862044
767 2 0.801727 0.0908072 0.023959
768 2 0.0560466 0.727879 0.0490407
769 2 0.978948 0.67608 0.393307
770 2 0.526587 0.832482 0.692638
771 2 0.951117 0.745538 0.733544
772 2 0.220831 0.104914 0.236816
773 1 0.805569 0.818619 0.371263
774 2 0.270699 0.696498 0.300153
775 2 0.556583 0.996573 0.634776
776 2 0.564365 0.468313 0.637751
777 1 0.663022 0.309189 0.201168
778 2 0.377811 0.532578 0.747265
779 2 0.455179 0.409138 0.752812
780 1 0.202674 0.432634 0.333034
781 2 0.0577628 0.298422 0.335242
782 2 0.651372 0.841822 0.130964
783 1 0.315081 0.904535 0.745566
784 2 0.469018 0.95765 0.940187
785 2 0.792792 0.221764 0.144221
786 1 0.486129 0.403001 0.437345
787 2 0.0379888 0.658929 0.297157
788 2 0.475107 0.626381 0.43923
789 2 0.596432 0.404718 0.321608
790 2 0.863153 0.246552 0.962621
791 1 0.261196 0.555144 0.670951
792 2 0.896185 0.155817 0.76098
793 2 0.214997 0.402421 0.522954
794 2 0.633211 0.529232 0.0991391
795 2 0.319853 0.533475 0.537308
796 2 0.186237 0.580215 0.52716
797 2 0.324733 0.802347 0.679938
798 2 0.935733 0.903082 0.915804
799 2 0.0566595 0.677978 0.626597
800 2 0.452552 0.283045 0.40896
801 2 0.625988 0.307367 0.827835
802 2 0.401098 0.512667 0.791901
803 2 0.140067 0.148961 0.810889
804 2 0.825956 0.206988 0.918852
805 2 0.119759 0.69456 0.490429
806 1 0.633056 0.974916 0.90167
807 2 0.0581914 0.830569 0.23839
808 2 0.184585 0.117341 0.419417
809 1 0.513647 0.110109 0.479209
810 2 0.513378 0.914189 0.487677
811 2 0.691206 0.119159 0.205646
812 2 0.787178 0.545911 0.263682
813 1 0.796946 0.323138 0.667557
814 2 0.246863 0.259348 0.593043
815 2 0.764595 0.678702 0.365964
816 1 0.295406 0.00629538 0.393354
817 1 0.597979 0.163529 0.698198
818 2 0.620782 0.725903 0.064753
819 1 0.400799 0.653508 0.0761449
820 1 0.442166 0.853704 0.540895
821 2 0.580732 0.381751 0.807457
822 2 0.498934 0.309343 0.541682
823 1 0.801757 0.526066 0.594379
824 2 0.774265 0.28694 0.00966716
825 2 0.931878 0.403167 0.287956
826 2 0.406186 0.302335 0.135285
827 1 0.887118 0.616319 0.446988
828 2 0.38527 0.570367 0.639904
829 2 0.514098 0.791625 0.141626
830 2 0.441011 0.301395 0.968845
831 1 0.015253 0.091043 0.40877
832 2 0.0106063 0.935245 0.59864
833 1 0.878448 0.502643 0.224266
834 2 0.551323 0.848126 0.533711
835 2 0.742785 0.0698816 0.379957
836 2 0.826798 0.706511 0.205987
837 2 0.771403 0.306469 0.285878
838 2 0.829395 0.866996 0.192161
839 2 0.0896656 0.889323 0.662952
840 2 0.593563 0.651553 0.0649321
841 2 0.66054 0.870683 0.68978
842 2 0.0592276 0.00862545 0.624446
843 2 0.802359 0.707836 0.396915
844 2 0.226354 0.328866 0.54915
845 2 0.981262 0.386839 0.180132
846 2 0.419976 0.8987 0.166588
847 2 0.787011 0.662612 0.974594
848 2 0.128146 0.033148 0.56236
849 1 0.51118 0.196192 0.0690418
850 2 0.556047 0.25112 0.940351
851 2 0.300896 0.92844 0.433597
852 2 0.623655 0.68707 0.572956
853 1 0.0213728 0.539742 0.512899
854 2 0.677676 0.740343 0.967189
855 2 0.105086 0.78557 0.481392
856 2 0.326925 0.111741 0.611143
857 2 0.468887 0.342873 0.267014
858 2 0.642697 0.364036 0.814504
859 2 0.465013 0.619733 0.172884
860 2 0.379089 0.840314 0.953029
861 2 0.403213 0.844794 0.00410086
862 2 0.384347 0.52922 0.811888
863 2 0.338293 0.552198 0.855382
864 2 0.227608 0.568472 0.712964
865 2 0.301426 0.66607 0.250821
866 2 0.181414 0.979821 0.91751
867 2 0.645167 0.318368 0.33657
868 2 0.50257 0.0349116 0.120363
869 2 0.518801 0.0623929 0.579335
870 2 0.6338 0.639046 0.894297
871 2 0.311128 0.314007 0.688743
872 2 0.455731 0.698719 0.013866
873 2 0.573447 0.240479 0.25877
874 2 0.236225 0.174776 0.297409
875 2 0.574763 0.0818843 0.64959
876 2 0.757089 0.61996 0.957766
877 2 0.770144 0.716193 0.378848
878 2 0.176233 0.164688 0.321184
879 2 0.0229618 0.348164 0.627965
880 2 0.422955 0.924425 0.685083
881 2 0.778121 0.528707 0.226006
882 1 0.714315 0.197993 0.388166
883 1 0.266083 0.566815 0.401716
884 2 0.394352 0.488724 0.683812
885 2 0.63125 0.273378 0.0654808
886 2 0.172457 0.409557 0.839956
887 1 0.887843 0.730631 0.0242383
888 2 0.328881 0.858796 0.307984
889 2 0.149127 0.502171 0.323231
890 1 0.821779 0.715323 0.57572
891 2 0.779649 0.462448 0.817205
892 2 0.846169 0.867142 0.657739
893 2 0.378779 0.773655 0.514238
894 2 0.582344 0.872381 0.33273
895 1 0.494134 0.95494 0.626063
896 2 0.813481 0.230394 0.975031
897 2 0.986604 0.488445 0.69078
898 2 0.691524 0.44956 0.458588
899 2 0.849565 0.414332 0.742794
900 2 0.888498 0.611231 0.840789
901 2 0.132793 0.515376 0.168318
902 2 0.306369 0.500782 0.399162
903 2 0.0543205 0.46561 0.564001