ITEM: TIMESTEP
45500
ITEM: NUMBER OF ATOMS
1000
ITEM: BOX BOUNDS xy xz yz pp pp pp
0.0000000000000000e+00 1.3572088000000001e+01 0.0000000000000000e+00
0.0000000000000000e+00 1.3572088000000001e+01 0.0000000000000000e+00
0.0000000000000000e+00 1.3572088000000001e+01 0.0000000000000000e+00
ITEM: ATOMS id type xs ys zs
1 2 0.228276 0.64829 0.413449
2 2 0.903381 0.211433 0.772135
3 1 0.71424 0.054786 0.804019
4 2 0.0806427 0.907188 0.169896
5 2 0.614613 0.242972 0.365162
6 1 0.334893 0.162434 0.769893
7 2 0.639421 0.0363165 0.749659
8 2 0.990741 0.410406 0.483032
9 2 0.729415 0.465232 0.846511
10 2 0.623555 0.983328 0.729723
11 2 0.288996 0.216355 0.618634
12 2 0.647103 0.958656 0.812275
13 2 0.0910997 0.472966 0.480597
14 1 0.353971 0.394 0.144587
15 2 0.760273 0.619618 0.536719
16 2 0.991476 0.235115 0.952141
17 1 0.724841 0.613604 0.64481
18 2 0.858033 0.558868 0.793973
19 2 0.00838141 0.00558807 0.192586
20 2 0.726019 0.678669 0.900206
21 2 0.67651 0.970329 0.793576
22 2 0.356035 0.883876 0.632226
23 2 0.37994 0.0968775 0.652181
24 2 0.776888 0.570191 0.506595
25 1 0.595002 0.378654 0.171149
26 2 0.443913 0.452427 0.619062
27 2 0.637781 0.998831 0.803464
28 2 0.602055 0.0202884 0.783686
29 2 0.902708 0.531914 0.459652
30 2 0.921414 0.711551 0.821279
31 1 0.87831 0.940829 0.322533
32 1 0.55783 0.143344 0.438071
33 1 0.659467 0.40855 0.956966
34 2 0.753719 0.549423 0.563079
35 2 0.0498288 0.114319 0.705569
36 1 0.684019 0.00913592 0.720965
37 2 0.79966 0.561574 0.565298
38 2 0.617712 0.977674 0.833708
39 2 0.0949947 0.226526 0.369945
40 2 0.220093 0.293293 0.583453
41 2 0.63939 0.937027 0.800167
42 2 0.595916 0.961549 0.814438
43 2 0.376722 0.758281 0.240022
44 2 0.104099 0.527695 0.406365
45 2 0.326284 0.90051 0.396185
46 1 0.135566 0.823916 0.1434
47 2 0.835457 0.541008 0.7039
48 2 0.637336 0.979592 0.702931
49 2 0.460053 0.662991 0.823339
50 2 0.769163 0.524717 0.594022
51 2 0.838628 0.4227 0.879999
52 2 0.706361 0.908494 0.0685375
53 2 0.354674 0.300291 0.166157
54 2 0.643056 0.0340188 0.801607
55 1 0.587101 0.556769 0.437656
56 1 0.534268 0.802244 0.881908
57 2 0.148054 0.551371 0.207787
58 2 0.512784 0.139206 0.254052
59 2 0.805775 0.422543 0.866692
60 2 0.604357 0.122567 0.412584
61 2 0.153113 0.271864 0.13261
62 2 0.523868 0.532093 0.337487
63 2 0.483622 0.286431 0.00414044
64 2 0.252428 0.625336 0.980284
65 2 0.824973 0.588387 0.55674
66 1 0.190665 0.50913 0.762661
67 2 0.348236 0.30192 0.53236
68 2 0.601195 0.996344 0.805858
69 1 0.0433625 0.010269 0.896275
70 2 0.43436 0.254816 0.130557
71 1 0.561668 0.00658978 0.742427
72 2 0.293794 0.974008 0.440204
73 2 0.698861 0.44376 0.535531
74 2 0.179688 0.51392 0.521233
75 2 0.234044 0.887051 0.841777
76 2 0.574493 0.236063 0.444034
77 1 0.277738 0.934067 0.231123
78 2 0.215014 0.202212 0.78086
79 2 0.928058 0.101489 0.556378
80 2 0.0393801 0.0953536 0.747396
81 2 0.661162 0.977583 0.787071
82 2 0.209781 0.328658 0.197107
83 2 0.278226 0.922045 0.387839
84 2 0.809719 0.972089 0.543457
85 1 0.807112 0.940787 0.565023
86 2 0.771384 0.5433 0.575797
87 2 0.847194 0.739916 0.896148
88 2 0.561523 0.695125 0.676116
89 2 0.282806 0.0361336 0.945386
90 2 0.688863 0.379056 0.858109
91 2 0.196606 0.966578 0.458367
92 2 0.728917 0.353896 0.544041
93 2 0.795883 0.634696 0.602657
94 1 0.330348 0.538714 0.514713
95 2 0.45456 0.149558 0.944687
96 2 0.910488 0.454272 0.828994
97 2 0.87758 0.354648 0.453358
98 2 0.73917 0.726222 0.015108
99 2 0.191266 0.332776 0.819426
100 2 0.470462 0.826958 0.450266
101 1 0.489069 0.541246 0.762117
102 2 0.3181 0.0634586 0.755259
103 2 0.732686 0.564214 0.559322
104 2 0.810069 0.637145 0.0524975
105 2 0.0835347 0.195517 0.271526
106 2 0.285531 0.757212 0.901665
107 2 0.433215 0.953974 0.48659
108 2 0.764224 0.562946 0.519988
109 2 0.799357 0.546708 0.580481
110 2 0.0502112 0.369851 0.5343
111 2 0.344951 0.759001 0.50745
112 1 0.107168 0.0727156 0.843826
113 1 0.114001 0.747567 0.994729
114 2 0.760285 0.58265 0.539328
115 2 0.393592 0.928675 0.449915
116 2 0.83805 0.132718 0.241882
117 2 0.122103 0.56617 0.154275
118 2 0.7917 0.538771 0.568141
119 2 0.108166 0.985551 0.645105
120 2 0.784562 0.559924 0.611993
121 2 0.725124 0.0360289 0.865632
122 2 0.101617 0.249734 0.814204
123 2 0.76338 0.655326 0.611719
124 2 0.805845 0.524333 0.514801
125 1 0.857447 0.611531 0.71532
126 2 0.603068 0.965162 0.792496
127 2 0.784683 0.614349 0.553957
128 2 0.0836692 0.127206 0.830821
129 1 0.571608 0.93156 0.394564
130 2 0.433911 0.860326 0.369902
131 2 0.17984 0.545176 0.894188
132 2 0.428205 0.574397 0.252351
133 2 0.80474 0.607009 0.574233
134 2 0.444967 0.617558 0.040519
135 2 0.64371 0.00639983 0.737925
136 2 0.844836 0.320887 0.888598
137 1 0.590918 0.400016 0.291539
138 2 0.62077 0.0152706 0.806729
139 2 0.673389 0.987129 0.776369
140 1 0.821827 0.621962 0.603197
141 2 0.130017 0.622132 0.895943
142 2 0.316945 0.786519 0.884342
143 2 0.129304 0.431052 0.645707
144 2 0.00953504 0.975501 0.881856
145 2 0.75288 0.278226 0.7936
146 2 0.113344 0.611041 -0.000434201
147 1 0.577092 0.896456 0.816769
148 1 0.848697 0.600227 0.539371
149 2 0.946716 0.499923 0.729015
150 1 0.85811 0.645007 0.556066
151 2 0.505939 0.0413754 0.254594
152 2 0.25898 0.992001 0.880532
153 1 0.942251 0.76584 0.473708
154 1 0.161377 0.195398 0.744979
155 2 0.299375 0.721963 0.0984215
156 2 0.859446 0.326074 0.572754
157 2 0.11255 0.751144 0.927141
158 2 0.358881 0.707339 0.815074
159 2 0.610431 0.915464 0.674812
160 2 0.65197 0.00282248 0.769696
161 2 0.622079 0.992142 0.742893
162 2 0.626571 0.0073511 0.713627
163 2 0.294457 0.980371 0.885791
164 2 0.256445 0.658445 0.235819
165 2 0.831742 0.568992 0.557606
166 2 0.322283 0.0943069 0.191171
167 2 0.420742 0.160326 0.624592
168 2 0.574164 0.00426927 0.799808
169 2 0.628798 0.86017 0.938621
170 2 0.0379955 0.168374 0.74445
171 2 0.788328 0.467692 0.878338
172 2 0.17015 0.0207396 0.0535461
173 1 0.828541 0.526103 0.570081
174 2 0.00849055 0.547863 0.0169054
175 2 0.157792 0.125968 0.943636
176 2 0.469629 0.108158 0.22757
177 1 0.477923 0.608964 0.813277
178 2 0.0428733 0.419333 0.968603
179 2 0.506944 0.855632 0.99029
180 2 0.759202 0.567145 0.590603
181 2 0.236462 0.690409 0.388678
182 2 0.185085 0.3615 0.367017
183 2 0.341382 0.66128 0.719818
184 2 0.024239 0.202506 0.47235
185 2 0.815301 0.585148 0.576509
186 2 0.0589545 0.258218 0.162436
187 2 0.498523 0.737901 0.570448
188 1 0.588056 0.0319187 0.851975
189 2 0.645668 0.962955 0.837897
190 2 0.0277122 0.0372325 0.169261
191 2 0.10769 0.196744 0.0403846
192 2 0.620604 0.0156047 0.746971
193 2 0.628315 0.170314 0.422522
194 2 0.323373 0.36096 0.117194
195 2 0.8501 0.852378 0.562601
196 2 0.605851 0.00840719 0.755505
197 2 0.00248837 0.00613565 0.714931
198 2 0.380283 0.890344 0.201251
199 2 0.789015 0.195486 0.408322
200 1 0.802734 0.528169 0.617277
201 2 0.955493 0.248732 0.425035
202 2 0.389047 0.680027 0.87192
203 2 0.658251 0.569466 0.973646
204 2 0.429245 0.534992 0.806759
205 2 0.661135 0.0490643 0.805981
206 2 0.0504337 0.829667 0.15797
207 2 0.669628 0.145167 0.980752
208 2 0.121936 0.741631 0.429354
209 2 0.724728 0.542431 0.562791
210 2 0.882189 0.552426 0.262976
211 2 0.272555 0.526584 0.274614
212 1 0.693609 0.938598 0.818844
213 2 0.622784 0.733979 0.559793
214 2 0.744885 0.57857 0.55772
215 2 0.742654 0.569732 0.532693
216 2 0.87061 0.7568 0.499201
217 2 0.64836 0.982286 0.162295
218 2 0.551057 0.246113 0.614606
219 2 0.414606 0.371076 0.590164
220 2 0.266162 0.420358 0.480622
221 2 0.125056 0.597351 0.561855
222 2 0.292786 0.0901506 0.989473
223 2 0.648546 0.805659 0.0121479
224 2 0.644653 0.981675 0.739587
225 1 0.285435 0.625931 0.341155
226 2 0.611984 0.0297187 0.768759
227 2 0.030392 0.87562 0.553956
228 2 0.599596 0.421073 0.703597
229 2 0.942564 0.613768 0.83535
230 1 0.45836 0.446855 0.729851
231 2 0.649974 0.0354925 0.825299
232 2 0.274268 0.324917 0.25188
233 1 0.950558 0.982697 0.281728
234 2 0.939621 0.588625 0.539957
235 2 0.7649 0.548962 0.587575
236 2 0.656754 0.0744182 0.953705
237 2 0.508781 0.275947 0.806861
238 1 0.0983389 0.409352 0.534083
239 1 0.869616 0.826422 0.182235
240 2 0.738058 0.665519 0.542377
241 2 0.489786 0.233386 0.197208
242 1 0.737661 0.661298 0.599487
243 1 0.721794 0.52905 0.522048
244 2 0.0437864 0.0445982 0.220303
245 2 0.578197 0.80837 0.0389162
246 1 0.460556 0.636774 0.545211
247 2 0.115967 0.909717 0.138017
248 2 0.487003 0.306496 0.0310544
249 2 0.349244 0.257925 0.978244
250 2 0.579314 0.0373909 0.78316
251 2 0.548076 0.374055 0.080436
252 2 0.608073 0.348874 0.0581425
253 2 0.189015 0.962697 0.32482
254 2 0.247616 0.354292 0.34054
255 2 0.605488 0.838692 0.897281
256 2 0.612167 0.00882974 0.775265
257 2 0.385974 0.483475 0.137113
258 2 0.361749 0.909591 0.360292
259 1 0.95923 0.568182 0.851554
260 2 0.74843 0.568334 0.573973
261 1 0.983351 0.209482 0.511034
262 2 0.113177 0.128453 0.38239
263 2 0.773892 0.618223 0.491255
264 2 0.829778 0.394252 0.50229
265 1 0.386926 0.00989668 0.401279
266 2 0.242891 0.895027 0.232153
267 2 0.71436 0.965296 0.785238
268 1 0.880975 0.95904 0.0968535
269 1 0.982588 0.402066 0.325628
270 2 0.0036912 0.276724 0.441696
271 2 0.939043 0.952643 0.3644
272 2 0.0921557 0.758825 0.511987
273 1 0.699292 0.575499 0.617632
274 2 0.778268 0.564413 0.549131
275 2 0.0107201 0.92203 0.223724
276 2 0.466618 0.498494 0.439105
277 2 0.0931752 0.259539 0.783308
278 2 0.595229 0.627192 0.909782
279 2 0.484888 0.276649 0.544812
280 1 0.580703 0.527697 0.229746
281 2 0.582532 0.0167507 0.189446
282 2 0.767166 0.0449156 0.860076
283 2 0.195027 0.0482978 0.966964
284 1 0.700092 0.974106 0.754256
285 2 0.626647 0.917859 0.770324
286 2 0.60349 0.0134552 0.807418
287 1 0.0138835 0.379211 0.404716
288 2 0.604114 0.0286247 0.734366
289 2 0.52159 0.893811 0.302818
290 2 0.0808598 0.119633 0.875229
291 2 0.320855 0.165443 0.818562
292 2 0.501016 0.802548 0.216678
293 2 0.76675 0.600444 0.591688
294 2 0.105401 0.808552 0.0214319
295 2 0.779299 0.581302 0.529679
296 2 0.908689 0.23837 0.993647
297 2 0.712693 0.012257 0.924666
298 2 0.772511 0.638503 0.580086
299 1 0.712728 0.99497 0.817892
300 2 0.683062 0.0170052 0.792543
301 2 0.0227832 0.662874 0.32993
302 2 0.18995 0.344326 0.337526
303 2 0.46478 0.831565 0.968928
304 1 0.995746 0.246141 0.345417
305 2 0.565871 0.276767 0.224678
306 2 0.552304 0.44761 0.105413
307 2 0.799801 0.441356 0.157031
308 2 0.676342 0.560401 0.948054
309 2 0.993856 0.323179 0.153429
310 2 0.47639 0.708754 0.791862
311 2 0.757815 0.795921 0.453081
312 2 0.675441 0.954907 0.858806
313 2 0.85183 0.537729 0.939761
314 2 0.0060264 0.314508 0.328436
315 2 0.72545 0.707012 0.806551
316 2 0.449306 0.165452 0.966569
317 2 0.315558 0.752668 0.802836
318 2 0.467823 0.42987 0.663959
319 2 0.0254586 0.607716 0.742481
320 2 0.718757 0.602692 0.599558
321 2 0.767369 0.567185 0.556318
322 2 0.144473 0.484799 0.893988
323 2 0.511503 0.693259 0.245398
324 2 0.928509 0.298717 0.0498296
325 2 0.749711 0.578042 0.610474
326 2 0.608915 0.969373 0.765087
327 2 0.55023 0.322972 0.970714
328 2 0.815454 0.603792 0.503891
329 1 0.0266351 0.64791 0.942686
330 2 0.793364 0.590288 0.559151
331 2 0.806192 0.67739 0.34764
332 2 0.000362359 0.169045 0.11317
333 2 0.261885 0.693845 0.609859
334 2 0.602056 0.974393 0.784961
335 1 0.0314127 0.252191 0.766451
336 2 0.828939 0.099324 0.163903
337 2 0.376457 0.196004 0.757447
338 1 0.521169 0.00814859 0.303635
339 2 0.92554 0.579022 0.326924
340 2 0.125356 0.18919 0.978317
341 2 0.671101 0.00363771 0.820165
342 2 0.718498 0.254349 0.113522
343 2 0.781626 0.609604 0.512212
344 1 0.787572 0.251466 0.172129
345 1 0.807188 0.604708 0.476472
346 1 0.541821 0.966531 0.74351
347 1 0.220978 0.66866 0.9072
348 2 0.319249 0.628187 0.00649881
349 2 0.373008 0.948535 0.590136
350 2 0.451219 0.259525 0.3294
351 2 0.218107 0.84451 0.218336
352 2 0.161586 0.0412356 0.589755
353 1 0.854016 0.556628 0.608607
354 1 0.574056 0.319781 0.172465
355 2 0.47246 0.281223 0.103023
356 2 0.716478 0.739006 0.568365
357 2 0.596868 0.2221 0.343332
358 2 0.593153 0.443395 0.164616
359 2 -0.00102688 0.876551 0.534618
360 2 0.662964 0.977744 0.813868
361 1 0.681037 0.388392 0.737158
362 2 0.369024 0.941784 0.465347
363 1 0.500989 0.185814 0.841082
364 2 0.647467 0.988685 0.777258
365 2 0.770732 0.619294 0.599056
366 2 0.769892 0.521524 0.635565
367 1 0.106887 0.77809 0.272109
368 1 0.169787 0.968592 0.11457
369 2 0.496796 0.0596101 0.200316
370 2 0.0496258 0.470076 0.102924
371 2 0.788325 0.589992 0.595151
372 1 0.472237 0.00571781 0.472926
373 2 0.199734 0.831163 0.859995
374 2 0.785221 0.583178 0.907442
375 2 0.630166 0.982146 0.791022
376 2 0.148653 0.275352 0.850225
377 2 0.356426 0.374081 0.0329968
378 2 0.181213 0.440796 0.26535
379 2 0.892786 0.889315 0.12346
380 2 0.646242 0.00121313 0.814446
381 2 0.699794 0.594357 0.087955
382 2 0.414739 0.73292 0.0157834
383 2 0.472853 0.0180001 0.377666
384 1 0.142369 0.567581 0.696989
385 2 0.060664 0.793898 0.269193
386 2 0.0835786 0.957653 0.573537
387 1 0.0310122 0.561516 0.653088
388 2 0.589175 0.857346 0.828618
389 2 0.808337 0.594956 0.540667
390 2 0.303304 0.649734 0.0318873
391 2 0.834508 0.143153 0.968697
392 1 0.845335 0.503904 0.534991
393 2 0.922871 0.754032 0.911385
394 2 0.240652 0.153037 0.659632
395 2 0.640433 0.964563 0.747484
396 2 0.609823 0.986801 0.763265
397 2 0.774801 0.631529 0.538317
398 1 0.989875 0.0427485 0.0658926
399 1 0.833509 0.665784 0.486195
400 1 0.082745 0.307652 0.982967
401 2 0.64762 0.985229 0.797791
402 2 0.242321 0.996473 0.451538
403 2 0.382893 0.778843 0.140477
404 2 0.452461 0.420487 0.668002
405 2 0.21968 0.099836 0.956165
406 2 0.997758 0.680899 0.0264618
407 2 0.451399 0.936023 0.518507
408 2 0.00831049 0.693175 0.594943
409 2 0.635771 0.955247 0.772563
410 2 0.976903 0.711653 0.710922
411 2 0.259741 0.902181 0.649814
412 2 0.506666 0.423608 0.107377
413 2 0.784695 0.603966 0.544691
414 2 0.41838 0.753582 0.965815
415 2 0.977849 0.418685 0.567913
416 1 0.726753 0.603215 0.489803
417 2 0.523662 0.457535 0.112511
418 2 0.484309 0.723022 0.621822
419 2 0.976668 0.30715 0.0450595
420 2 0.175175 0.61685 0.732311
421 1 0.152755 0.405119 0.494357
422 1 0.637254 0.907538 0.0508576
423 2 0.403714 0.21573 0.170889
424 2 0.657826 0.967128 0.765677
425 1 0.0781856 0.44537 0.445213
426 2 0.346398 0.0478413 0.527832
427 2 0.765243 0.419395 0.115481
428 2 0.387101 0.0641213 0.748687
429 2 0.655706 0.993336 0.751097
430 2 0.849585 0.631866 0.0355537
431 2 0.796602 0.578555 0.565662
432 1 0.237214 0.303706 0.363422
433 2 0.13239 0.102691 0.562763
434 1 0.719009 0.671033 0.661788
435 2 0.905288 0.670005 0.104023
436 2 0.78286 0.838253 0.521109
437 2 0.158909 0.86685 0.780991
438 2 0.971198 0.807349 0.482206
439 1 0.141134 0.769591 0.40015
440 2 0.37592 0.579595 0.367347
441 1 0.849078 0.285477 0.667327
442 1 0.724958 0.506251 0.574536
443 1 0.363026 0.620964 0.590159
444 2 0.76424 0.622701 0.559922
445 2 0.153835 0.367243 0.475129
446 2 0.426373 0.137216 0.79925
447 2 0.458768 0.485239 0.992469
448 2 0.0622394 0.11901 0.132055
449 1 0.319122 0.418608 0.841678
450 2 0.17922 0.925713 0.311626
451 2 0.622046 0.9874 0.803651
452 2 0.390055 0.415288 0.62292
453 1 0.544007 0.184303 0.564744
454 2 0.810155 0.53511 0.538012
455 2 0.719229 0.948744 0.0048831
456 2 0.39383 0.666518 0.916085
457 2 0.641009 0.0258496 0.781884
458 2 0.730929 0.0597785 0.653548
459 2 0.169892 0.309812 0.852027
460 2 0.800299 0.55455 0.591317
461 2 0.240179 0.0814894 0.831709
462 2 0.766802 0.586568 0.514093
463 1 0.109048 0.418841 0.938029
464 2 0.264006 0.120355 0.310199
465 2 0.586976 0.820818 -0.00226371
466 2 0.00118483 0.339077 0.566779
467 1 0.59388 0.589058 0.0081806
468 2 0.669643 0.199991 0.416266
469 2 0.714632 0.602576 0.130376
470 2 0.52578 0.24667 0.368014
471 2 0.745217 0.595561 0.555008
472 2 0.75949 0.607933 0.521128
473 1 0.826633 0.560539 0.49393
474 1 0.188512 0.471304 0.205596
475 1 0.268271 0.679255 0.949422
476 2 0.0249956 0.0171712 0.0595124
477 2 0.580725 0.98867 0.802868
478 2 0.0161397 0.278921 0.559589
479 2 0.334292 0.805272 0.24609
480 2 0.597819 0.0936392 0.870218
481 2 0.738366 0.616789 0.575968
482 2 0.0237717 0.00522618 0.753356
483 2 0.726658 0.592274 0.552329
484 1 0.139122 0.33012 0.741095
485 1 0.12387 0.0262928 0.663388
486 2 0.591203 0.220108 0.402826
487 2 0.590549 0.380271 0.853003
488 2 0.750734 0.601891 0.583202
489 2 0.813951 0.415935 0.83523
490 2 0.234154 0.982387 0.508471
491 2 0.749488 0.605736 0.538195
492 2 0.821566 0.577801 0.576329
493 2 0.96119 0.69971 0.588112
494 2 0.603108 0.987333 0.795909
495 2 0.282064 0.113641 0.0484759
496 2 0.775008 0.543253 0.518321
497 2 0.361179 0.543084 0.622455
498 1 0.93564 0.267562 0.833023
499 2 0.0981883 0.350142 0.331906
500 2 0.657343 0.723579 0.372288
501 1 0.784895 0.564589 0.459288
502 2 0.316984 0.729229 0.975289
503 2 0.788785 0.609516 0.599797
504 1 0.622942 0.940446 0.850257
505 2 0.442111 0.518359 0.150962
506 2 0.818437 0.476084 0.832637
507 2 0.0298216 0.187534 0.451235
508 2 0.616361 0.0258236 0.813861
509 1 0.455276 0.11454 0.909857
510 2 0.833732 0.562627 0.534296
511 2 0.644052 0.961361 0.77747
512 2 0.760688 0.550051 0.537892
513 1 0.505505 0.454365 0.660269
514 2 0.343292 0.88485 0.550171
515 1 0.600845 0.928602 0.730355
516 2 0.619772 0.990522 0.766522
517 1 0.850436 0.81368 0.576232
518 2 0.546781 0.515933 0.901127
519 2 0.490714 0.257396 0.797387
520 2 0.0156401 0.0874401 0.750702
521 2 0.810316 0.87565 0.0456563
522 2 0.102426 0.0805005 0.749989
523 2 0.773123 0.579425 0.571574
524 2 0.0700094 0.754426 0.0832424
525 2 0.0391731 0.797329 0.0218391
526 2 0.538581 0.145795 0.603012
527 2 0.635743 0.717173 0.601792
528 1 0.427279 0.691881 0.914905
529 2 0.034956 0.015625 0.140479
530 2 0.410159 0.676366 0.357432
531 2 0.632744 0.947529 0.806706
532 2 0.610695 0.706303 0.926345
533 2 0.137757 0.384198 0.760705
534 1 0.382579 0.109808 0.781481
535 2 0.885572 0.274671 0.130864
536 1 0.103334 0.476049 0.569368
537 1 0.569943 0.95281 0.782458
538 2 0.220931 0.952924 0.39046
539 2 0.902181 0.514525 0.206794
540 2 0.858912 0.580304 0.88817
541 1 0.984386 0.568268 0.350546
542 2 0.814546 0.344439 0.927563
543 1 0.6485 0.355911 0.45589
544 1 0.774042 0.716882 0.573521
545 2 0.234521 0.560992 0.616841
546 2 0.0539582 0.662524 0.337413
547 2 0.859783 0.373109 0.900266
548 2 0.85712 0.296891 0.910973
549 2 0.455095 0.584574 0.0532905
550 2 0.32569 0.153535 0.662597
551 1 0.80719 0.637557 0.527229
552 2 0.0745015 0.558452 0.990415
553 2 0.860326 0.0599578 0.345873
554 2 0.505857 0.850417 0.929991
555 1 0.365815 0.737366 0.345014
556 2 0.280642 0.278287 0.0600094
557 2 0.0981602 0.45072 0.894594
558 1 0.609925 0.267867 0.431216
559 2 0.139879 0.321715 0.950162
560 2 0.672867 0.593937 0.939193
561 2 0.890985 0.190485 0.757783
562 1 0.546307 0.452754 0.0521829
563 2 0.694454 0.686508 0.442418
564 2 0.556479 0.22119 0.642826
565 2 0.667729 0.293181 0.473591
566 2 0.369579 0.910945 0.324082
567 2 0.804607 0.649504 0.622933
568 2 0.141666 0.621516 0.186638
569 1 0.700445 0.365938 0.255735
570 2 0.291515 0.0781942 0.186551
571 2 0.639165 0.829378 0.218198
572 2 0.973602 0.360738 0.565901
573 2 0.783559 0.550763 0.506004
574 2 0.606135 0.764067 0.232788
575 1 0.955916 0.114547 0.759492
576 2 0.856304 0.0183375 0.128825
577 2 0.584196 0.965622 0.889534
578 1 0.14979 0.404127 0.709431
579 2 0.624043 0.00180622 0.782835
580 1 0.129362 0.765252 0.813086
581 2 0.43274 0.147581 0.0933562
582 2 0.0795668 0.638886 0.723516
583 1 0.416119 0.87067 0.00903364
584 2 0.920138 0.908049 0.643128
585 1 0.783796 0.497716 0.561694
586 2 0.809439 0.573305 0.510916
587 2 0.633462 0.0170128 0.771279
588 2 0.428355 0.593543 0.376483
589 1 0.77276 0.372668 0.868383
590 1 0.379826 0.354377 0.000796244
591 1 0.582654 0.00784418 0.704752
592 2 0.0957795 0.343278 0.762306
593 2 0.610942 0.0485972 0.770574
594 1 0.66 0.700843 0.189728
595 1 0.209751 0.460165 0.420708
596 2 0.128265 0.143631 0.102229
597 1 0.331798 0.765316 0.0623579
598 2 0.64106 0.14047 0.382993
599 2 0.769727 0.566608 0.591332
600 2 0.973057 0.580339 0.523561
601 2 0.813197 0.5591 0.55364
602 1 0.466895 0.297129 0.687859
603 2 0.0422514 0.663319 0.279541
604 1 0.339845 0.163266 0.463531
605 2 0.820435 0.772691 0.265211
606 2 0.226071 0.944911 0.189324
607 1 0.892517 0.676674 0.832246
608 2 0.134844 0.217903 0.368908
609 2 0.986601 0.90496 0.75922
610 2 0.804825 0.567785 0.531477
611 2 0.641358 0.990864 0.83646
612 1 1.0004 0.282536 0.867354
613 2 0.549549 0.788715 0.166876
614 1 0.391479 0.77775 0.658849
615 2 0.0845433 0.817608 0.731617
616 1 0.583764 0.977536 0.83953
617 2 0.660086 0.00900588 0.779396
618 2 0.0776741 0.0305347 0.0832479
619 2 0.579926 0.260237 0.139444
620 2 0.950366 0.609899 0.334335
621 2 0.539214 0.213716 0.592647
622 2 0.776973 0.544235 0.557618
623 1 0.597713 0.324627 0.113404
624 2 0.94323 0.460666 0.951488
625 2 0.151405 0.735062 0.73851
626 2 0.653545 0.665185 0.171093
627 2 0.662284 0.965803 0.816811
628 2 0.298408 0.864863 0.585561
629 2 0.60381 0.23996 0.493392
630 1 0.997495 0.291573 0.590987
631 2 0.186358 0.966107 0.407475
632 2 0.771092 0.518136 0.536164
633 2 0.218855 0.733086 0.294013
634 2 0.283683 0.43951 0.269751
635 2 0.613208 0.699894 0.962615
636 2 0.593375 -0.00105224 0.634115
637 2 0.668148 0.949563 0.791692
638 1 0.682444 0.161581 0.367403
639 2 0.624953 0.959424 0.789505
640 2 0.55106 0.503894 0.330417
641 2 0.780262 0.562773 0.572298
642 2 0.13257 0.90661 0.402285
643 2 0.946799 0.28349 0.577721
644 2 0.977817 0.809916 0.426225
645 1 0.781633 0.413013 0.0628048
646 2 0.653314 0.996395 0.799603
647 1 0.0313767 0.519629 0.317763
648 2 0.555058 0.197136 0.621178
649 2 0.773016 0.59122 0.56206
650 2 0.9022 0.805469 0.462015
651 2 0.323136 0.794095 0.786987
652 2 0.735827 0.820835 0.0839757
653 2 0.786973 0.593532 0.51245
654 1 0.698312 0.622171 0.553021
655 2 0.0196088 0.948735 0.252519
656 2 0.929077 0.241542 0.953323
657 2 0.0824918 0.848063 0.300833
658 2 0.89557 0.302121 0.490915
659 2 0.521686 0.237974 0.792498
660 2 0.04329 0.399024 0.829241
661 1 0.94357 0.426859 0.170019
662 2 0.992542 0.560234 0.461328
663 2 0.317304 0.474115 0.743522
664 1 0.191311 0.236185 0.857432
665 2 0.821228 0.997425 0.709117
666 2 0.890128 0.538527 0.338074
667 2 0.282771 0.331695 0.457434
668 2 0.649453 0.975105 0.820139
669 2 0.832669 0.294563 0.0889401
670 1 0.15062 0.377165 0.563634
671 2 0.084805 0.166126 0.491223
672 1 0.742202 0.563686 0.484465
673 2 0.586333 0.862886 0.9447
674 2 0.481562 0.814709 0.205498
675 2 0.758359 0.972308 0.203465
676 1 0.37127 0.513032 0.476038
677 2 0.641096 0.901369 0.735575
678 2 0.629301 0.0279097 0.792733
679 1 0.0345431 0.888039 0.131029
680 2 0.785312 0.946106 0.516514
681 1 0.058613 0.707372 0.00697798
682 1 0.196702 0.926033 0.486788
683 2 0.552184 0.487807 0.374584
684 2 0.120558 0.253146 0.688871
685 2 0.19211 0.158639 0.455739
686 2 0.0560968 0.433842 1.00105
687 1 0.63685 0.907571 0.803886
688 2 0.590732 0.925926 0.302851
689 2 0.758149 0.593965 0.57113
690 2 0.906509 0.591334 0.338743
691 2 0.221533 0.536866 0.132551
692 1 0.638784 0.0413849 0.679691
693 2 0.567606 0.559178 0.954094
694 2 0.299005 0.477345 0.324693
695 1 0.878604 0.338883 0.345923
696 2 0.177522 0.656938 0.80837
697 2 0.562337 0.806067 0.107911
698 2 0.773184 0.583566 0.608591
699 2 0.412398 0.725756 0.943428
700 1 0.878313 0.159451 0.0718301
701 2 0.748035 0.563526 0.523172
702 2 0.287976 0.0865374 0.230515
703 2 0.658839 0.343202 0.129789
704 2 0.878317 0.0570067 0.210654
705 2 0.44698 0.0658245 0.0747518
706 2 0.784733 0.628323 0.557982
707 2 0.411236 0.218666 0.831563
708 1 0.735092 0.466999 0.555943
709 2 0.938068 0.280164 0.993276
710 2 0.690039 0.132367 0.400277
711 2 0.126081 0.259913 0.0834924
712 1 0.388518 0.790251 0.31615
713 2 0.768018 0.585308 0.550672
714 1 0.789118 0.49943 0.512944
715 2 0.0185745 0.0512247 0.932109
716 1 0.875049 0.121006 0.01048
717 2 0.613125 0.964898 0.806434
718 2 0.489465 0.268016 0.40439
719 2 0.790631 0.596795 0.529275
720 2 0.512829 0.575991 0.480084
721 2 0.786568 0.410592 0.898411
722 1 0.516481 0.659375 0.0624561
723 2 0.498336 0.106676 0.304449
724 2 0.616152 0.0201699 0.826637
725 2 0.247613 0.98726 0.546784
726 2 0.769982 0.748276 0.430675
727 1 0.939884 0.191221 0.776642
728 1 0.267445 0.133549 0.440931
729 1 0.534613 0.010513 0.805558
730 1 0.694216 0.675263 0.92609
731 2 0.891531 0.887043 0.190293
732 1 0.225339 0.604882 0.525755
733 2 0.01614 0.810464 0.345287
734 2 0.188224 0.692567 0.507947
735 2 0.438627 0.678763 0.963127
736 1 0.675584 0.955327 0.731287
737 2 0.88211 0.77058 0.939997
738 2 0.302447 0.277384 0.997397
739 2 0.622174 0.963647 0.761578
740 2 0.638643 0.196941 0.366662
741 2 0.648111 0.970859 0.803136
742 1 0.72096 0.0114992 0.756134
743 2 0.882567 0.609711 0.541407
744 2 0.218987 0.4864 0.632842
745 2 0.056186 0.886721 0.171007
746 1 0.705505 0.866679 0.502525
747 2 0.391793 0.129404 0.43275
748 2 0.389752 0.290378 0.791442
749 2 0.777546 0.545975 0.534134
750 2 0.165924 0.346232 0.55069
751 2 0.621505 0.978827 0.779618
752 2 0.973024 0.0888308 0.0702624
753 2 0.286003 0.471015 0.698195
754 2 0.00717243 0.830556 0.871433
755 2 0.937264 0.807237 0.993217
756 2 0.642245 0.291912 0.182018
757 2 0.819134 0.592407 0.518131
758 2 0.880025 0.436197 0.88089
759 2 0.724168 0.158328 0.832243
760 1 0.650362 0.380831 0.807208
761 2 0.657451 0.0309904 0.759834
762 2 0.668752 0.960633 0.782852
763 1 0.462655 0.147156 0.386536
764 2 0.525616 0.251924 0.232585
765 2 0.12011 0.217051 0.81914
766 2 0.577758 0.633134 0.87913
767 2 0.292267 0.822925 0.973508
768 2 0.139275 0.448464 0.569505
769 2 0.238312 0.218479 0.30143
770 2 0.719432 0.364279 0.53053
771 2 0.343696 0.447765 0.451975
772 2 0.56197 0.893794 0.977768
773 1 0.803271 0.664306 0.564444
774 2 0.513356 0.293502 0.699226
775 2 0.79501 0.771063 0.81733
776 2 0.744238 0.405574 0.703239
777 1 0.687643 0.0525274 0.743592
778 2 0.757478 0.535207 0.50025
779 2 0.0843124 0.750742 0.570542
780 1 0.696744 0.578668 0.530884
781 2 0.761294 0.118892 0.641914
782 2 0.623765 0.701862 0.798228
783 1 0.694455 0.0282642 0.833164
784 2 0.929408 0.752796 0.860378
785 2 0.546888 0.743181 0.00255048
786 1 0.773251 0.59484 0.647185
787 2 0.158668 0.421916 0.97388
788 2 0.418501 0.0287646 0.525125
789 2 0.767067 0.849408 0.000805488
790 2 0.235604 0.31426 0.783093
791 1 0.412807 0.939465 0.600933
792 2 0.440442 0.093922 0.477875
793 2 0.392044 0.837149 0.530868
794 2 0.529743 0.911381 0.334927
795 2 0.718487 0.258154 0.0229683
796 2 0.259444 0.364273 0.0252826
797 2 0.750005 0.740528 0.624223
798 2 0.011422 0.780654 0.538747
799 2 0.556992 0.747824 0.913846
800 2 0.120111 0.17548 0.124118
801 2 0.394896 0.724589 0.0390686
802 2 0.920077 0.911405 0.579641
803 2 0.00233367 0.167305 0.672082
804 2 0.4405 0.672432 0.515926
805 2 0.19497 0.0712692 0.548555
806 1 0.529141 0.750442 0.105589
807 2 0.320155 0.673665 0.975036
808 2 0.389816 0.194561 0.490376
809 1 0.866536 0.645689 0.602804
810 2 0.289009 0.180971 0.617404
811 2 0.0411157 0.62528 0.0988652
812 2 0.763345 0.535872 0.554311
813 1 0.226823 0.142544 0.869248
814 2 0.893552 0.185792 0.829529
815 2 0.738784 0.616059 0.552815
816 1 0.7077 0.563793 0.581541
817 1 0.654342 0.0574378 0.840706
818 2 0.860739 0.960991 0.279805
819 1 0.757698 0.663601 0.506758
820 1 0.698695 0.918196 0.769311
821 2 0.654858 0.0387242 0.7866
822 2 0.639059 0.00697412 0.787956
823 1 0.992062 0.0983608 0.00867373
824 2 0.469418 0.268538 0.829498
825 2 0.73669 0.577872 0.542581
826 2 0.690677 0.654824 0.166511
827 1 0.908928 0.815566 0.259464
828 2 0.0365243 0.748285 0.554592
829 2 0.743163 0.553664 0.579164
830 2 0.116557 0.0807087 0.628943
831 1 0.572762 0.188702 0.814242
832 2 0.454704 0.968934 0.552084
833 1 0.304989 0.685454 0.381496
834 2 0.795536 0.550022 0.636059
835 2 0.548877 0.942019 0.306321
836 2 0.803652 0.333819 0.707787
837 2 0.0327966 0.90596 0.896272
838 2 0.334658 0.651229 0.027641
839 2 0.94782 0.298764 0.989434
840 2 0.642447 0.989533 0.76327
841 2 0.145702 0.327333 0.113552
842 2 0.157297 0.837247 0.575246
843 2 0.325064 0.0469341 0.314226
844 2 0.319559 0.0861874 0.455115
845 2 0.937875 0.838579 0.778041
846 2 0.65012 0.71457 0.492983
847 2 0.88643 0.0131 0.751014
848 2 0.75332 0.710902 0.845682
849 1 0.879405 0.384093 0.200638
850 2 0.683382 0.437586 0.149159
851 2 0.658819 0.012748 0.798985
852 2 0.569154 0.231357 0.735804
853 1 0.389316 0.654139 0.0244994
854 2 0.894047 0.981566 0.295039
855 2 0.868308 0.844832 0.237295
856 2 0.137754 0.487858 0.446634
857 2 0.353657 0.430016 0.0380599
858 2 0.989121 0.574019 0.416923
859 2 0.0218798 0.774951 0.912121
860 2 0.851551 0.135424 0.0869208
861 2 0.758068 0.314682 0.0986973
862 2 0.483861 0.834271 0.751281
863 2 0.660612 0.462582 0.0469112
864 2 0.672325 0.0112919 0.76255
865 2 0.0132562 0.500026 0.958871
866 2 0.752476 0.519757 0.576481
867 2 0.254005 0.433385 0.72069
868 2 0.348498 0.320885 -0.000728122
869 2 0.267828 0.251625 0.293995
870 2 0.99111 0.749706 0.614795
871 2 0.818479 0.565607 0.935069
872 2 0.668171 0.0236233 0.806045
873 2 0.644027 0.13534 0.353838
874 2 0.756465 0.637515 0.537547
875 2 0.350864 0.688738 0.427403
876 2 0.0285355 0.00588152 0.287862
877 2 0.951939 0.147486 0.274741
878 2 0.00618648 0.0797744 0.349757
879 2 0.118279 0.587498 0.446475
880 2 0.110895 0.216158 0.120316
881 2 0.360963 0.846204 0.609464
882 1 0.219692 0.380428 0.151343
883 1 0.70406 0.0802338 0.886598
884 2 0.179276 0.955046 0.259201
885 2 0.0579673 0.916014 0.3618
886 2 0.517401 0.836976 0.423925
887 1 0.844413 0.117674 0.355942
888 2 0.198584 0.735984 0.962045
889 2 0.0967834 0.35227 0.295521
890 1 0.775237 0.464646 0.601693
891 2 0.447095 0.533698 0.173503
892 2 0.761757 0.61265 0.587939
893 2 0.669408 0.404154 0.185199
894 2 0.582299 0.998904 0.764859
895 1 0.147575 0.464443 0.492345
896 2 0.103907 0.450083 0.12966
897 2 0.231054 0.189887 0.914863
898 2 0.499081 0.531006 0.951153
899 2 0.556878 0.44973 0.183973
900 2 0.590179 0.991351 0.755182
901 2 0.734303 0.0199186 0.375093
902 2 0.797459 0.551695 0.535782