ITEM: TIMESTEP
25200
ITEM: NUMBER OF ATOMS
1000
ITEM: BOX BOUNDS xy xz yz pp pp pp
0.0000000000000000e+00 1.3572088000000001e+01 0.0000000000000000e+00
0.0000000000000000e+00 1.3572088000000001e+01 0.0000000000000000e+00
0.0000000000000000e+00 1.3572088000000001e+01 0.0000000000000000e+00
ITEM: ATOMS id type xs ys zs
1 2 0.648254 0.349993 0.634197
2 2 0.080156 0.972223 0.262999
3 1 0.863279 0.156428 0.464283
4 2 0.165711 0.0582298 0.024059
5 2 0.549102 0.622526 0.531784
6 1 0.419587 0.99966 0.170784
7 2 0.375403 0.718452 0.0313349
8 2 0.834184 0.970452 0.253306
9 2 0.4024 0.774156 0.263981
10 2 0.111804 0.952604 0.350648
11 2 0.814757 0.127567 0.74012
12 2 0.822347 0.648057 0.931575
13 2 0.564485 0.373351 0.497951
14 1 0.785273 0.335905 0.555831
15 2 0.953794 0.180648 0.346702
16 2 0.442406 0.0786833 0.507082
17 1 0.928714 0.468842 0.0763983
18 2 0.00143183 0.96034 0.265365
19 2 0.51486 0.963059 0.443487
20 2 0.275719 0.753784 0.376677
21 2 0.0679491 0.624289 0.462537
22 2 0.354388 0.0238125 0.914332
23 2 0.43349 0.830012 0.501292
24 2 0.513435 0.779732 0.967226
25 1 0.531044 0.884664 0.0644807
26 2 0.599737 0.964699 0.0528228
27 2 0.649289 0.917102 0.75829
28 2 0.450882 0.798737 0.4314
29 2 0.505583 0.346501 0.571515
30 2 0.39526 0.470699 0.241943
31 1 0.043604 0.960565 0.359924
32 1 0.171134 0.825501 0.26852
33 1 0.612929 0.452829 0.600163
34 2 0.931955 0.785332 0.278489
35 2 0.0087909 0.617729 0.251187
36 1 0.660261 0.114944 0.718806
37 2 0.0929623 0.22898 0.395488
38 2 0.543109 0.177403 0.561523
39 2 0.570488 0.394997 0.283444
40 2 0.896005 0.778396 0.698523
41 2 0.123518 0.534616 0.887643
42 2 0.314628 0.29451 0.929441
43 2 0.60626 0.319583 0.642734
44 2 0.596558 0.217028 0.655267
45 2 0.35354 0.719349 0.69022
46 1 0.413946 0.997016 0.918631
47 2 0.497866 0.388958 0.770369
48 2 0.52583 0.298958 0.380107
49 2 0.567104 0.570518 0.621604
50 2 0.608353 0.456857 0.688084
51 2 0.672787 0.270862 0.928426
52 2 0.518758 0.876804 0.550452
53 2 0.708309 0.728907 0.113443
54 2 0.533253 0.194461 0.143238
55 1 0.319811 0.640275 0.664172
56 1 0.555249 0.346252 0.658558
57 2 0.761692 0.544129 0.498893
58 2 0.933608 0.0389847 0.702381
59 2 0.246145 0.934871 0.857029
60 2 0.189915 0.214769 0.173301
61 2 0.820994 0.604637 0.9466
62 2 0.690544 0.839037 0.743178
63 2 0.51313 0.756057 0.626881
64 2 0.843311 0.288138 0.442271
65 2 0.367889 0.915211 0.822669
66 1 0.441954 0.261234 0.0843457
67 2 0.465033 0.49632 0.556151
68 2 0.0738418 0.353035 0.368763
69 1 0.915129 0.270904 0.415863
70 2 0.0845554 0.487477 0.386124
71 1 0.580677 0.859903 0.0776423
72 2 0.612292 0.271476 0.000863259
73 2 0.740313 0.612981 0.199923
74 2 0.188785 0.332124 0.6649
75 2 0.00625453 0.0925747 0.640471
76 2 0.654556 0.120104 0.476712
77 1 0.468021 0.463785 0.96735
78 2 0.248543 0.509987 0.638389
79 2 0.820117 0.288094 0.630595
80 2 0.240874 0.34493 0.210739
81 2 0.633071 0.0457796 0.198791
82 2 0.729183 0.303798 0.619799
83 2 0.161729 0.169554 0.45304
84 2 0.128005 0.655172 0.398509
85 1 0.709936 0.338947 0.785058
86 2 0.396832 0.0389361 0.212835
87 2 0.977276 0.331317 0.00913864
88 2 0.248847 0.296475 0.818324
89 2 0.631589 0.869993 0.637724
90 2 0.23389 0.768638 0.904436
91 2 0.689426 0.772715 0.309792
92 2 0.16814 0.329625 0.0407569
93 2 0.73464 0.0440656 0.877194
94 1 0.222172 0.748639 0.325399
95 2 0.950181 0.212869 0.57297
96 2 0.582736 0.723556 0.0482695
97 2 0.386281 0.959476 0.421395
98 2 0.902741 0.0245913 0.813117
99 2 0.356892 0.108852 0.923386
100 2 0.470028 0.88623 0.0334506
101 1 0.364818 0.842139 0.430712
102 2 0.436718 0.479107 0.660264
103 2 0.762867 0.965221 0.853478
104 2 0.954732 0.91713 0.0767022
105 2 0.646519 0.812539 0.199304
106 2 0.119312 0.658856 0.822136
107 2 0.726555 0.34183 0.630817
108 2 0.364591 0.357488 0.558234
109 2 0.0977899 0.715939 0.368082
110 2 0.410623 0.67096 0.0110165
111 2 0.992897 0.0887843 0.588867
112 1 0.500033 0.6769 0.455032
113 1 0.682398 0.167263 0.37711
114 2 0.190859 0.976596 0.557858
115 2 0.523871 0.304039 0.812209
116 2 0.944986 0.362894 0.768545
117 2 0.206823 0.930447 0.0173726
118 2 0.308065 0.593968 0.959255
119 2 0.474187 0.389461 0.114061
120 2 0.889727 0.614503 0.489432
121 2 0.332884 0.936833 0.648715
122 2 0.657166 0.949638 0.31378
123 2 0.120537 0.112167 0.860611
124 2 0.171477 0.0185221 0.902404
125 1 0.562862 0.240206 0.727097
126 2 0.633934 0.06828 0.718045
127 2 0.478461 0.362505 0.691253
128 2 0.178244 0.129791 0.117495
129 1 0.955193 0.640855 0.223615
130 2 0.576957 0.111652 0.386082
131 2 0.597956 0.210868 0.377139
132 2 0.41359 0.712709 0.994812
133 2 0.384038 0.698283 0.458022
134 2 0.894642 0.203773 0.153624
135 2 0.931309 0.161915 0.747778
136 2 0.192045 0.270995 0.092175
137 1 0.855807 0.899775 0.364094
138 2 0.616651 0.580643 0.452625
139 2 0.68556 0.446835 0.415024
140 1 0.689063 0.860251 0.703866
141 2 0.664152 0.559323 0.875504
142 2 0.359227 0.200026 0.254329
143 2 0.900755 0.651994 0.989038
144 2 0.876385 0.388631 0.287443
145 2 0.729281 0.388106 0.626534
146 2 0.389308 0.659103 0.573558
147 1 0.586876 0.436578 0.22763
148 1 0.717345 0.65751 0.820781
149 2 0.192859 0.738128 0.492749
150 1 0.54622 0.989912 0.616549
151 2 0.7424 0.43439 0.0372092
152 2 0.917599 0.310914 0.470378
153 1 0.510577 0.747108 0.468124
154 1 0.575782 0.153566 0.610166
155 2 0.412286 0.273584 0.118295
156 2 0.5862 0.323672 0.234158
157 2 0.199027 0.772246 0.882587
158 2 0.598163 0.357081 0.526026
159 2 0.0105376 0.245107 0.134234
160 2 0.280239 0.0974826 0.698326
161 2 0.724713 0.481743 0.567281
162 2 0.481681 0.39206 0.316151
163 2 0.484239 0.357454 0.995192
164 2 0.082641 0.41557 0.383183
165 2 0.41783 0.0800652 0.763142
166 2 0.972394 0.863576 0.788961
167 2 0.754643 0.994125 0.868039
168 2 0.433971 0.803024 0.167107
169 2 0.637071 0.812279 0.563421
170 2 0.761141 0.471712 0.934056
171 2 0.0167273 0.703165 0.945843
172 2 0.442906 0.0318827 0.501073
173 1 0.535192 0.636281 0.576126
174 2 0.82676 0.802494 0.0631931
175 2 0.882494 0.197787 0.737286
176 2 0.376419 0.705751 0.848678
177 1 0.701398 0.937682 0.245989
178 2 0.679213 0.52408 0.900689
179 2 0.13856 0.925083 0.337294
180 2 0.511177 0.700623 0.519044
181 2 0.00949465 0.825092 0.279295
182 2 0.28731 0.434343 0.605934
183 2 0.216317 0.233378 0.230485
184 2 0.605963 0.365507 0.337791
185 2 0.458267 0.584557 0.61679
186 2 0.386939 0.126147 0.211109
187 2 0.27274 0.464782 0.661519
188 1 0.958808 0.110953 0.750784
189 2 0.468482 0.340896 0.276348
190 2 0.189394 0.137356 0.66044
191 2 0.111141 0.936957 0.217377
192 2 0.38949 0.3418 0.638484
193 2 0.59311 0.525632 0.990677
194 2 0.571456 0.141352 0.230174
195 2 0.497996 0.964191 0.549503
196 2 0.0911596 0.810464 0.826675
197 2 0.152726 0.511181 0.740019
198 2 0.233861 0.266101 0.871556
199 2 0.137999 0.670904 0.918159
200 1 0.57898 0.971227 0.462864
201 2 0.192645 0.701285 0.172192
202 2 0.577753 0.839169 0.376201
203 2 0.0799934 0.753218 0.558076
204 2 0.523989 0.621078 0.383376
205 2 0.327411 0.164373 0.160543
206 2 0.528773 0.849055 0.0144977
207 2 0.884728 0.582832 0.758295
208 2 0.342955 0.929832 0.790362
209 2 0.302686 0.218489 0.810604
210 2 0.92103 0.235491 0.64153
211 2 0.722081 0.178988 0.514824
212 1 0.612268 0.164716 0.960438
213 2 0.954242 0.342436 0.450696
214 2 0.971954 0.19322 0.232859
215 2 0.552735 0.913537 0.241831
216 2 0.13266 0.122559 0.235806
217 2 0.274699 0.922514 0.624544
218 2 0.460597 0.152973 0.569627
219 2 0.419893 0.704593 0.0376035
220 2 0.510489 0.243391 0.78345
221 2 0.477965 0.0279319 0.41585
222 2 0.795562 0.496353 0.573933
223 2 0.176303 0.716844 0.102788
224 2 0.987193 0.694605 0.924508
225 1 0.0740599 0.0420002 0.0744572
226 2 0.545045 0.368154 0.370797
227 2 0.985299 0.365291 0.946203
228 2 0.39369 0.676122 0.485363
229 2 0.845927 0.101928 0.426248
230 1 0.106601 0.422126 0.312457
231 2 0.994091 0.316826 0.417743
232 2 0.313271 0.510863 0.669261
233 1 0.209775 0.658429 0.601499
234 2 0.678065 0.073162 0.73988
235 2 0.544657 0.245298 0.880197
236 2 0.494393 0.978301 0.709639
237 2 0.373787 0.530796 0.817626
238 1 0.50905 0.431424 0.656379
239 1 0.00103498 0.0072202 0.124552
240 2 0.755363 0.72768 0.969114
241 2 0.620197 0.754893 0.291259
242 1 0.878039 0.139349 0.0682459
243 1 0.461695 0.0938645 0.438496
244 2 0.513425 0.535821 0.47319
245 2 0.194462 0.379659 0.725407
246 1 0.481856 0.41028 0.606851
247 2 0.450727 0.333359 0.598547
248 2 0.983258 0.157669 0.580982
249 2 0.102629 0.398649 0.22975
250 2 0.860167 0.224317 0.391208
251 2 0.942219 0.0169559 0.194518
252 2 0.591602 0.458969 0.416123
253 2 0.82068 0.224077 0.270299
254 2 0.946638 0.600296 0.572948
255 2 0.84579 0.137637 0.670483
256 2 0.464706 0.362415 0.654433
257 2 0.531601 0.235826 0.568503
258 2 0.51882 0.98291 0.858389
259 1 0.378578 0.391508 0.634559
260 2 0.731265 0.166883 0.666011
261 1 0.832761 0.265137 0.36822
262 2 0.952998 0.907137 0.747004
263 2 0.342415 0.256651 0.0225341
264 2 0.431352 0.593503 0.892462
265 1 0.0519522 0.527901 0.0179463
266 2 0.526443 0.234634 0.619555
267 2 0.419655 0.641745 0.444653
268 1 0.256182 0.554149 0.639867
269 1 0.524364 0.380422 0.560231
270 2 0.34837 0.79223 0.788523
271 2 0.575228 0.406565 0.671785
272 2 0.0186258 0.909437 0.623256
273 1 0.703241 0.363806 0.875386
274 2 0.724321 0.0260035 0.329049
275 2 0.171913 0.675014 0.981479
276 2 0.0873108 0.676572 0.6583
277 2 0.673934 0.382548 0.731901
278 2 0.618854 0.683537 0.570779
279 2 0.728248 0.399934 0.0350143
280 1 0.286464 0.065071 0.463936
281 2 0.545527 0.0572337 0.485925
282 2 0.378453 0.484132 0.482522
283 2 0.86212 0.25801 0.998984
284 1 0.627996 0.243202 0.238677
285 2 0.798136 0.110379 0.267717
286 2 0.262907 0.785223 0.528505
287 1 0.553635 0.723619 0.499633
288 2 0.271269 0.623643 0.0204253
289 2 0.494422 0.577363 0.606957
290 2 0.984205 0.546318 0.905561
291 2 0.934413 0.454978 0.432612
292 2 0.746296 0.447132 0.501305
293 2 0.00823976 0.301935 0.208619
294 2 0.0720453 0.771695 0.202418
295 2 0.925658 0.0218592 0.0673077
296 2 0.963863 0.112952 0.218262
297 2 0.279483 0.207912 0.530631
298 2 0.878492 0.647846 0.482732
299 1 0.469047 0.433768 0.397088
300 2 0.24822 0.415624 0.0874216
301 2 0.591265 0.849381 0.655165
302 2 0.0984701 0.58128 0.606939
303 2 0.883031 0.156622 0.395576
304 1 0.32328 0.455361 0.122049
305 2 0.223608 0.0198312 0.801453
306 2 0.057824 0.490187 0.826683
307 2 0.362144 0.525358 0.511645
308 2 0.776331 0.54157 0.623195
309 2 0.940976 0.66947 0.487276
310 2 0.601181 0.58991 0.639883
311 2 0.703339 0.369905 0.712826
312 2 0.763099 0.152747 0.350708
313 2 0.569614 0.890385 0.284143
314 2 0.652322 0.00463914 0.848933
315 2 0.564252 0.00169261 0.220192
316 2 0.644745 0.601935 0.807651
317 2 0.896703 0.514101 0.746775
318 2 0.274164 0.991232 0.678
319 2 0.978495 0.0592196 0.900535
320 2 0.194571 0.714832 0.87508
321 2 0.437596 0.972002 0.422869
322 2 0.432992 0.68529 0.544884
323 2 0.429816 0.00379775 0.460316
324 2 0.311971 0.87657 0.736995
325 2 0.169647 0.861685 0.955577
326 2 0.17593 0.761199 0.234409
327 2 0.289681 0.28204 0.918545
328 2 0.280256 0.211243 0.419021
329 1 0.996332 0.700707 0.300251
330 2 0.721795 0.0961945 0.0881572
331 2 0.228355 0.916641 0.898022
332 2 0.238663 0.0101801 0.832054
333 2 0.535222 0.000230731 0.289213
334 2 0.252853 0.342338 0.782708
335 1 0.674776 0.879149 0.140654
336 2 0.862215 0.166004 0.182684
337 2 0.132799 0.305074 0.446304
338 1 0.782529 0.321302 0.781151
339 2 0.896314 0.868498 0.343837
340 2 0.553965 0.697999 0.444183
341 2 0.396394 0.940189 0.16136
342 2 0.8258 0.599616 0.051246
343 2 0.898937 0.0220116 0.266449
344 1 0.709044 0.00848869 0.96922
345 1 0.405261 0.608971 0.58898
346 1 0.228032 0.0489251 0.0332117
347 1 0.857441 0.607534 0.00538121
348 2 0.936863 0.707783 0.480511
349 2 0.647989 0.675756 0.890477
350 2 0.972877 0.409446 0.41353
351 2 0.882126 0.804344 0.779545
352 2 0.352869 0.619296 0.262748
353 1 0.0842149 0.798972 0.227471
354 1 0.0738335 0.590452 0.933317
355 2 0.459271 0.828859 0.458185
356 2 0.45796 0.621713 0.033402
357 2 0.220177 0.403897 0.70548
358 2 0.0246601 0.980779 0.819393
359 2 0.546425 0.337753 0.529387
360 2 0.21682 0.881246 0.360063
361 1 0.0658237 0.71634 0.0528103
362 2 0.0056002 0.182401 0.698151
363 1 0.329347 0.641794 0.751611
364 2 0.496344 0.78207 0.123711
365 2 0.913543 0.381919 0.407998
366 2 0.289159 0.095084 0.556706
367 1 0.598862 0.880577 0.448667
368 1 0.838342 0.712428 0.984298
369 2 0.584066 0.176355 0.211634
370 2 0.330674 0.408187 0.388063
371 2 0.221208 0.321041 0.675059
372 1 0.886132 0.247357 0.475565
373 2 0.367928 0.949217 0.71304
374 2 0.420578 0.800869 0.26236
375 2 0.186534 0.464897 0.911182
376 2 0.0169577 0.0947423 0.660516
377 2 0.640035 0.699216 0.538408
378 2 0.959628 0.54744 0.834194
379 2 0.742631 0.523385 0.491269
380 2 0.635907 0.590031 0.234779
381 2 0.438562 0.802916 0.3758
382 2 0.228573 0.355591 0.561997
383 2 0.743389 0.309931 0.569234
384 1 0.766255 0.942641 0.202674
385 2 0.559248 0.244791 0.65002
386 2 0.0860713 0.308342 0.232408
387 1 0.689504 0.991054 0.829975
388 2 0.00686924 0.518422 0.538744
389 2 0.801843 0.528121 0.593724
390 2 0.61765 0.465717 0.7302
391 2 0.0431562 0.998233 0.380545
392 1 0.361325 0.450856 0.663686
393 2 0.596451 0.548263 0.835263
394 2 0.563413 0.844956 0.588064
395 2 0.920249 0.656892 0.284714
396 2 0.572908 0.953264 0.126946
397 2 0.323561 0.391548 0.346646
398 1 0.822656 0.672794 0.0854279
399 1 0.640205 0.228345 0.589531
400 1 0.914295 0.16128 0.981119
401 2 0.15428 0.672486 0.957735
402 2 0.334002 0.189612 0.784638
403 2 0.26678 0.815533 0.458944
404 2 0.741428 0.570497 0.99903
405 2 0.445688 0.125845 0.260536
406 2 0.3617 0.53208 0.948364
407 2 0.716775 0.738725 0.154811
408 2 0.152562 0.370341 0.949526
409 2 0.114117 0.605048 0.433858
410 2 0.0919317 0.966867 0.421288
411 2 0.340866 0.968029 0.077831
412 2 0.217989 0.819026 0.50198
413 2 0.610621 0.406215 0.487339
414 2 0.959541 0.532091 0.886982
415 2 0.382631 0.610228 0.540536
416 1 0.526009 0.585179 0.492493
417 2 0.668427 0.0972852 0.0884386
418 2 0.75698 0.94813 0.568958
419 2 0.949872 0.254474 0.874465
420 2 0.598476 0.705785 0.645018
421 1 0.541507 0.470584 0.591869
422 1 0.26064 0.693452 0.487719
423 2 0.282039 0.185654 0.710583
424 2 0.469572 0.409779 0.170762
425 1 0.393559 0.544854 0.492109
426 2 0.17275 0.77902 0.275334
427 2 0.299624 0.678599 0.679954
428 2 0.516964 0.573379 0.711583
429 2 0.956534 0.200412 0.397528
430 2 0.177973 0.737166 0.924408
431 2 0.651969 0.313443 0.355492
432 1 0.478938 0.329299 0.066451
433 2 0.0292083 0.468642 0.0348995
434 1 0.309106 0.587803 0.478997
435 2 0.376258 0.0455108 0.369815
436 2 0.798283 0.562132 0.533421
437 2 0.430704 0.965092 0.17401
438 2 0.966626 0.186169 0.0696825
439 1 0.572989 0.775169 0.407721
440 2 0.517883 0.373551 0.0978681
441 1 0.8459 0.51409 0.596519
442 1 0.365887 0.831489 0.164837
443 1 0.442591 0.922568 0.880522
444 2 0.226977 0.829424 0.443028
445 2 0.921133 0.684359 0.325007
446 2 0.687477 0.088201 0.547145
447 2 0.497867 0.5942 0.534501
448 2 0.516472 0.239651 0.693344
449 1 0.614163 0.131124 0.559869
450 2 0.458091 0.558392 0.579575
451 2 0.424792 0.379561 0.318154
452 2 0.201729 0.788137 0.912973
453 1 0.979701 0.20379 0.947116
454 2 0.481161 0.717711 0.860344
455 2 0.0529639 0.579409 0.497992
456 2 0.904869 0.786909 0.894999
457 2 0.542949 0.907042 0.121407
458 2 0.676326 0.52581 0.0667829
459 2 0.299906 0.503895 0.496493
460 2 0.521756 0.416289 0.106977
461 2 0.267341 0.746216 0.703562
462 2 0.61139 0.324332 0.410416
463 1 0.308116 0.481926 0.762692
464 2 0.448611 0.677832 0.121321
465 2 0.994094 0.218577 0.58063
466 2 0.715141 0.393212 0.680645
467 1 0.642893 0.11019 0.422152
468 2 0.141807 0.697954 0.717465
469 2 0.360269 0.487787 0.288526
470 2 0.558024 0.821681 0.0648832
471 2 0.0583046 0.693761 0.233938
472 2 0.202164 0.460017 0.838845
473 1 0.240329 0.4812 0.721876
474 1 0.978575 0.985347 0.61077
475 1 0.298997 0.760823 0.899584
476 2 0.907284 0.0878736 0.561562
477 2 0.681505 0.104233 0.147703
478 2 0.343102 0.265872 0.97364
479 2 0.732577 0.844372 0.84195
480 2 0.0473878 0.945653 0.782044
481 2 0.251453 0.512326 0.751581
482 2 0.0191065 0.793793 0.95534
483 2 0.702986 0.427081 0.990632
484 1 0.639333 0.419104 0.574028
485 1 0.654923 0.268119 0.651066
486 2 0.801065 0.777471 0.95644
487 2 0.82421 0.318853 0.575561
488 2 0.574026 0.646421 0.171382
489 2 0.931633 0.472978 0.192023
490 2 0.278454 0.0694328 0.634606
491 2 0.351688 0.562586 0.885834
492 2 0.0727704 0.904605 0.719464
493 2 0.869569 0.700624 0.862903
494 2 0.372911 0.946417 0.787507
495 2 0.505475 0.337498 0.298785
496 2 0.46625 0.738104 0.256248
497 2 0.720553 0.227586 0.211671
498 1 0.573011 0.941267 0.588991
499 2 0.464651 0.479113 0.220658
500 2 0.422471 0.688373 0.489707
501 1 0.51167 0.660949 0.183959
502 2 0.0188152 0.369068 0.212025
503 2 0.459548 0.00407382 0.618014
504 1 0.820618 0.0419634 0.817685
505 2 0.0774608 0.523183 0.253533
506 2 0.476177 0.141 0.344219
507 2 0.597799 0.806626 0.44057
508 2 0.151352 0.0711418 0.177049
509 1 0.840059 0.263613 0.617081
510 2 0.695845 0.445 0.052916
511 2 0.222971 0.160048 0.737108
512 2 0.0184489 0.190741 0.961277
513 1 0.958233 0.267124 0.610205
514 2 0.602016 0.382566 0.581204
515 1 0.667815 0.452799 0.679082
516 2 0.710784 0.103301 0.064448
517 1 0.800299 0.433623 0.710125
518 2 0.733462 0.350675 0.203054
519 2 0.0657687 0.34465 0.561148
520 2 0.302749 0.850553 0.406853
521 2 0.698488 0.217184 0.494079
522 2 0.363201 0.588145 0.441127
523 2 0.508034 0.363778 0.628905
524 2 0.608234 0.526688 0.90164
525 2 0.990234 0.816684 0.937307
526 2 0.658638 0.207671 0.912303
527 2 0.331303 0.855346 0.652768
528 1 0.629156 0.644147 0.0970403
529 2 0.0747417 0.928483 0.189913
530 2 0.4585 0.780553 0.50217
531 2 0.218378 0.852469 0.459659
532 2 0.828299 0.951861 0.353906
533 2 0.101218 0.369539 0.405862
534 1 0.0651464 0.683057 0.937438
535 2 0.861811 0.23978 0.552116
536 1 0.0940747 0.638554 0.957186
537 1 0.0674394 0.565753 0.270413
538 2 0.100085 0.91369 0.0655249
539 2 0.50161 0.16494 0.807951
540 2 0.832388 0.165549 0.613823
541 1 0.526527 0.539964 0.660204
542 2 0.226658 0.757345 0.671386
543 1 0.868444 0.827099 0.0377708
544 1 0.650083 0.780773 0.923432
545 2 0.972944 0.00397656 0.882256
546 2 0.629958 0.174153 0.612638
547 2 0.400666 0.562646 0.530987
548 2 0.762064 0.467457 0.66877
549 2 0.708422 0.453095 0.901323
550 2 0.686348 0.263226 0.164945
551 1 0.641703 0.399063 0.237286
552 2 0.0488563 0.140767 0.932687
553 2 0.23921 0.288562 0.238153
554 2 0.199903 0.210338 0.893408
555 1 0.983276 0.151261 0.863563
556 2 0.293281 0.126815 0.473228
557 2 0.880287 0.819242 0.0926568
558 1 0.579585 0.0450324 0.178694
559 2 0.296388 0.634797 0.503773
560 2 0.484601 0.65123 0.544162
561 2 0.480686 0.200953 0.675596
562 1 0.578278 0.505055 0.871974
563 2 0.106949 0.00923614 0.271922
564 2 0.779891 0.215585 0.324907
565 2 0.495198 0.409875 0.480234
566 2 0.758213 0.0570172 0.97864
567 2 0.278593 0.985467 0.80005
568 2 0.0878066 0.561032 0.693865
569 1 0.04921 0.496549 0.224384
570 2 0.441034 0.0564037 0.316683
571 2 0.0456796 0.138668 0.792134
572 2 0.512102 0.431343 0.755052
573 2 0.818108 0.876329 0.646041
574 2 0.453949 0.159555 0.856274
575 1 0.861743 0.293889 0.0764958
576 2 0.235033 0.986271 0.11744
577 2 0.934633 0.6859 0.910504
578 1 0.409548 0.47213 0.627132
579 2 0.916503 0.224271 0.736273
580 1 0.309888 0.718372 0.859324
581 2 0.766097 0.0705467 0.361795
582 2 0.566648 0.505142 0.727556
583 1 0.439772 0.536075 0.619092
584 2 0.220188 0.173552 0.28252
585 1 0.823474 0.130646 0.380313
586 2 0.759138 0.640228 0.906224
587 2 0.1417 0.717426 0.751602
588 2 0.668497 0.307758 0.747976
589 1 0.954141 0.580134 0.968301
590 1 0.86435 0.173087 0.116369
591 1 0.756165 0.468572 0.594778
592 2 0.244416 0.469956 0.933996
593 2 0.456089 0.352499 0.363128
594 1 0.80841 0.398703 0.838183
595 1 0.78665 0.0877345 0.767781
596 2 0.0690022 0.0254527 0.0281966
597 1 0.59915 0.0736347 0.262064
598 2 0.669149 0.298662 0.992836
599 2 0.633426 0.200227 0.405885
600 2 0.610166 0.938617 0.508787
601 2 0.225376 0.34403 0.407753
602 1 0.588351 0.0669948 0.962843
603 2 0.083138 0.0491439 0.425867
604 1 0.176058 0.625229 0.070659
605 2 0.192225 0.141438 0.249805
606 2 0.213927 0.47357 0.634288
607 1 0.498636 0.845157 0.917876
608 2 0.649434 0.225928 0.41734
609 2 0.228588 0.221944 0.453631
610 2 0.579954 0.339073 0.303962
611 2 0.173176 0.467873 0.710194
612 1 0.642146 0.00787846 0.771955
613 2 0.527338 0.83726 0.464319
614 1 0.589426 0.987392 0.535024
615 2 0.26318 0.233818 0.908734
616 1 0.0553649 0.731263 0.848744
617 2 0.381041 0.497991 0.601848
618 2 0.645467 0.986324 0.0099781
619 2 0.523131 0.0475144 0.860904
620 2 0.582913 0.943906 0.740336
621 2 0.223184 0.866244 0.770616
622 2 0.681734 0.412532 0.0154914
623 1 0.372359 0.00793707 0.427819
624 2 0.349008 0.702129 0.599606
625 2 0.530623 0.116649 0.370706
626 2 0.314281 0.516545 0.972298
627 2 0.452626 0.0151904 0.467389
628 2 0.572746 0.221824 0.944383
629 2 0.244305 0.275789 0.9051
630 1 0.308093 0.31891 0.743237
631 2 0.231087 0.916949 0.341991
632 2 0.938859 0.598655 0.606021
633 2 0.57003 0.689915 0.545308
634 2 0.558172 0.657116 0.524729
635 2 0.219411 0.548123 0.0262376
636 2 0.274052 0.928381 0.753766
637 2 0.668264 0.338188 0.599594
638 1 0.145886 0.283612 0.890773
639 2 0.0229041 0.333283 0.437116
640 2 0.281094 0.260957 0.841914
641 2 0.161736 0.718033 0.398531
642 2 0.789986 0.544861 0.690698
643 2 0.455792 0.620279 0.131221
644 2 0.234923 0.183436 0.200784
645 1 0.681629 0.762793 0.095187
646 2 0.888565 0.193778 0.653528
647 1 0.439054 0.369751 0.553636
648 2 0.678782 0.452947 0.875119
649 2 0.224861 0.720558 0.897066
650 2 0.553942 0.864804 0.387192
651 2 0.453839 0.554708 0.200019
652 2 0.194143 0.784404 0.323741
653 2 0.655875 0.920511 0.114742
654 1 0.481491 0.712574 0.388331
655 2 0.980733 0.219375 0.689916
656 2 0.455996 0.0559471 0.344029
657 2 0.247187 0.504734 0.331012
658 2 0.200083 0.0736962 0.40001
659 2 0.510412 0.404257 0.948155
660 2 0.238202 0.907395 0.0330597
661 1 0.905899 0.326588 0.677934
662 2 0.0157595 0.670001 0.319311
663 2 0.874438 0.146278 0.649045
664 1 0.983624 0.25008 0.538708
665 2 0.536299 0.423159 0.198413
666 2 0.378591 0.492422 0.539048
667 2 0.664187 0.228892 0.470942
668 2 0.651956 0.114801 0.142081
669 2 0.138632 0.118344 0.156598
670 1 0.439368 0.353228 0.711612
671 2 0.180739 0.674572 0.8601
672 1 0.609911 0.67152 0.482273
673 2 0.720701 0.00203489 0.227301
674 2 0.722168 0.264852 0.665283
675 2 0.486271 0.784102 0.388755
676 1 0.149078 0.920809 0.487179
677 2 0.832618 0.153062 0.0609617
678 2 0.0558507 0.00681834 0.600209
679 1 0.0732739 0.64894 0.42431
680 2 0.332534 0.697061 0.193668
681 1 0.550585 0.252943 0.041588
682 1 0.287881 0.713865 0.152091
683 2 0.711987 0.502736 0.129217
684 2 0.100043 0.973199 0.877434
685 2 0.35896 0.562309 0.475622
686 2 0.486486 0.834385 0.725286
687 1 0.719204 0.385206 0.747283
688 2 0.354299 0.166814 0.0573896
689 2 0.750588 0.965926 0.461868
690 2 0.425029 0.929382 0.534977
691 2 0.82774 0.982805 0.873212
692 1 0.235268 0.645655 0.476449
693 2 0.59561 0.309045 0.993329
694 2 0.662734 0.574541 0.0698443
695 1 0.0552238 0.158475 0.0696543
696 2 0.14098 0.794297 0.176521
697 2 0.956607 0.0766244 0.275996
698 2 0.616849 0.453933 0.958043
699 2 0.00874946 0.0497713 0.636283
700 1 0.369297 0.579166 0.680038
701 2 0.929526 0.132224 0.613728
702 2 0.370999 0.340217 0.146317
703 2 0.669008 0.0702374 0.693552
704 2 0.268105 0.545888 0.701086
705 2 0.193642 0.0883068 0.890303
706 2 0.265407 0.194246 0.560917
707 2 0.398023 0.649182 0.532321
708 1 0.315538 0.0811094 0.676427
709 2 0.485054 0.743217 0.333607
710 2 0.27198 0.701908 0.719846
711 2 0.80023 0.944646 0.15562
712 1 0.883118 0.21595 0.0748696
713 2 0.67561 0.336259 0.757371
714 1 0.638354 0.98701 0.91328
715 2 0.307992 0.824478 0.973522
716 1 0.645153 0.622379 0.590714
717 2 0.375475 0.187195 0.408787
718 2 0.846495 0.913254 0.207844
719 2 0.999991 0.683405 0.681704
720 2 0.54376 0.4703 0.86203
721 2 0.43792 0.0988557 0.793295
722 1 0.308546 0.727015 0.643918
723 2 0.454298 0.787713 0.281708
724 2 0.031178 0.638281 0.108546
725 2 0.0530141 0.468515 0.795423
726 2 0.266055 0.148372 0.666119
727 1 0.306691 0.311004 0.672144
728 1 0.844899 0.727063 0.576328
729 1 0.730344 0.304318 0.727628
730 1 0.864429 0.665959 0.285553
731 2 0.442686 0.684698 0.46979
732 1 0.552918 0.0564894 0.540364
733 2 0.913395 0.405838 0.69733
734 2 0.0583964 0.953386 0.943243
735 2 0.13983 0.442157 0.393781
736 1 0.381624 0.521136 0.648877
737 2 0.118135 0.885816 0.861158
738 2 0.652558 0.331466 0.732913
739 2 0.515736 0.32216 0.188058
740 2 0.489756 0.942168 0.497488
741 2 0.367204 0.321719 0.381428
742 1 0.117533 0.735714 0.239881
743 2 0.61777 0.880726 0.180256
744 2 0.404519 0.271975 0.0245859
745 2 0.456306 0.281985 0.309247
746 1 0.766605 0.314021 0.875346
747 2 0.700185 0.877011 0.597495
748 2 0.535554 0.889727 0.401547
749 2 0.6161 0.803942 0.141392
750 2 0.806237 0.100751 0.414465
751 2 0.558272 0.219143 0.429094
752 2 0.476408 0.606912 0.477183
753 2 0.894566 0.46393 0.402549
754 2 0.356565 0.594098 0.86504
755 2 0.273063 0.192921 0.168353
756 2 0.447605 0.309487 0.291721
757 2 0.570176 0.206827 0.262038
758 2 0.867975 0.54535 0.268559
759 2 0.890857 0.368426 0.853411
760 1 0.376285 0.0601684 0.720568
761 2 0.568202 0.186478 0.15126
762 2 0.025777 0.0837284 0.0222942
763 1 0.664291 0.287394 0.873005
764 2 0.600782 0.135505 0.533005
765 2 0.886427 0.589131 0.531025
766 2 0.495884 0.66479 0.0776898
767 2 0.308152 0.345003 0.397371
768 2 0.329502 0.590355 0.95666
769 2 0.597427 0.671693 0.558483
770 2 0.799147 0.808054 0.935629
771 2 0.701613 0.0567832 0.830736
772 2 0.602863 0.807447 0.24855
773 1 0.127135 0.830749 0.885331
774 2 0.904103 0.477496 0.580747
775 2 0.790811 0.969185 0.648795
776 2 0.432663 0.485196 0.185586
777 1 0.712189 0.0365733 0.777674
778 2 0.329653 0.836954 0.327549
779 2 0.43667 0.976441 0.504909
780 1 0.16852 0.750218 0.0275039
781 2 0.045818 0.354339 0.387428
782 2 0.15488 0.21585 0.891272
783 1 0.665638 0.633276 0.448199
784 2 0.461654 0.984077 0.468362
785 2 0.455361 0.73177 0.46446
786 1 0.910572 0.331691 0.623174
787 2 0.348659 0.611522 0.520194
788 2 0.916742 0.305386 0.883204
789 2 0.998232 0.17545 0.81677
790 2 0.502075 0.0300752 0.229518
791 1 0.134413 0.891202 0.243391
792 2 0.225234 0.520489 0.593091
793 2 0.985733 0.542769 0.41266
794 2 0.621821 0.364542 0.949865
795 2 0.708778 0.886415 0.0923535
796 2 0.396407 0.808135 0.363279
797 2 0.183483 0.148689 0.503089
798 2 0.475211 0.977838 0.472366
799 2 0.0640754 0.626426 0.376402
800 2 0.76648 0.479569 0.896175
801 2 0.511035 0.59334 0.558238
802 2 0.774284 0.408177 0.916308
803 2 0.253227 0.133424 0.228369
804 2 0.611014 0.483303 0.652245
805 2 0.146146 0.23288 0.388986
806 1 0.528853 0.806508 0.4559
807 2 0.912591 0.483504 0.6175
808 2 0.134232 0.524573 0.415162
809 1 0.866874 0.632478 0.401879
810 2 0.378457 0.11022 0.31277
811 2 0.609369 0.350006 0.384712
812 2 0.515668 0.398289 0.680843
813 1 0.700073 0.318507 0.630875
814 2 0.0883021 0.246679 0.0468395
815 2 0.0956548 0.371083 0.105413
816 1 0.724339 0.755023 0.249744
817 1 0.457675 0.419608 0.743223
818 2 0.981638 0.236309 0.80012
819 1 0.921922 0.648794 0.0377294
820 1 0.525047 0.751247 0.408479
821 2 0.656628 0.386302 0.991857
822 2 0.6274 0.507131 0.776853
823 1 0.570417 0.302029 0.187161
824 2 0.538081 0.212297 0.943643
825 2 0.0151806 0.019602 0.370841
826 2 0.346359 0.757277 0.941455
827 1 0.282543 0.547364 0.538994
828 2 0.853504 0.732577 0.95571
829 2 0.672472 0.754732 0.296636
830 2 0.671582 0.0218449 0.0730632
831 1 0.589945 0.387684 0.138853
832 2 0.666206 0.224319 0.380033
833 1 0.617235 0.289735 0.695673
834 2 0.654341 0.464035 0.50322
835 2 0.666502 0.284227 0.187254
836 2 0.757602 0.875222 0.660496
837 2 0.769559 0.915832 0.130921
838 2 0.140636 0.989479 0.240398
839 2 0.165844 0.761603 0.805149
840 2 0.762781 0.355178 0.702494
841 2 0.569329 0.474354 0.633856
842 2 0.44714 0.566515 0.8862
843 2 0.62924 0.610159 0.360231
844 2 0.890993 0.105935 0.869337
845 2 0.966737 0.683774 0.136177
846 2 0.57905 0.506242 0.567284
847 2 0.589943 0.121813 0.500717
848 2 0.854342 0.19272 0.644309
849 1 0.604807 0.062339 0.792713
850 2 0.235976 0.680855 0.901444
851 2 0.936351 0.128111 0.440971
852 2 0.191351 0.623564 0.274223
853 1 0.0810226 0.518041 0.835072
854 2 0.454008 0.989512 0.0948972
855 2 0.833932 0.293233 0.478559
856 2 0.422612 0.990337 0.654933
857 2 0.453475 0.809318 0.898225
858 2 0.287093 0.245979 0.629683
859 2 0.775495 0.976837 0.59437
860 2 0.843502 0.826271 0.396025
861 2 0.950011 0.215284 0.739992
862 2 0.382893 0.882087 0.954932
863 2 0.27643 0.173022 0.870314
864 2 0.56148 0.300815 0.393287
865 2 0.440518 0.836257 0.469249
866 2 0.105062 0.650549 0.910558
867 2 0.28965 0.124725 0.561201
868 2 0.113785 0.845244 0.53716
869 2 0.751461 0.921002 0.945945
870 2 0.199408 0.735646 0.979889
871 2 0.138038 0.91996 0.894625
872 2 0.8587 0.322401 0.50029
873 2 0.0212742 0.282247 0.489452
874 2 0.649215 0.26509 0.021633
875 2 0.629149 0.487203 0.341879
876 2 0.763976 0.00661 0.866049
877 2 0.708815 0.735917 0.291098
878 2 0.456706 0.708753 0.542503
879 2 0.379261 0.465948 0.925532
880 2 0.424927 0.502643 0.388772
881 2 0.28591 0.526993 0.69637
882 1 0.0741918 0.464454 0.717205
883 1 0.00823219 0.944009 0.430593
884 2 0.052112 0.818647 0.932888
885 2 0.0696067 0.264383 0.118456
886 2 0.655845 0.755212 0.0766256
887 1 0.593756 0.904404 0.0678958
888 2 0.592293 0.441195 0.675363
889 2 0.126741 0.83595 0.929745
890 1 0.555332 0.505177 0.798729
891 2 0.640675 0.586786 0.663794
892 2 0.474673 0.0696551 0.296206
893 2 0.662141 0.37735 0.563951
894 2 0.0491539 0.997 0.840413
895 1 0.538508 0.686991 0.703077
896 2 0.226054 0.800146 0.834361
897 2 0.543001 0.660202 0.0882867
898 2 0.168875 0.065009 0.19649
899 2 0.427499 0.0243235 0.971456
900 2 0.278877 0.95759 0.452262
901 2 0.773155 0.302377 0.933637
902 2 0.646025 0.367905 0.651068
903 2 0.899937 0.259201 0.534663
904 2 0.678346 0.346247 0.262082