ITEM: TIMESTEP
20300
ITEM: NUMBER OF ATOMS
1000
ITEM: BOX BOUNDS xy xz yz pp pp pp
0.0000000000000000e+00 1.3572088000000001e+01 0.0000000000000000e+00
0.0000000000000000e+00 1.3572088000000001e+01 0.0000000000000000e+00
0.0000000000000000e+00 1.3572088000000001e+01 0.0000000000000000e+00
ITEM: ATOMS id type xs ys zs
1 2 0.772871 0.834112 0.825337
2 2 0.239529 0.0554418 0.501227
3 1 0.65557 0.894167 0.725006
4 2 0.382157 0.462725 0.607434
5 2 0.424007 0.835912 0.436104
6 1 0.357319 0.0103474 0.247467
7 2 0.322986 0.828158 0.0736909
8 2 0.877727 0.661278 0.749897
9 2 0.360567 0.297047 0.0450622
10 2 0.339008 0.999698 0.19163
11 2 0.916382 0.704355 0.632781
12 2 0.798305 0.624862 0.799554
13 2 0.939815 0.671241 0.971287
14 1 0.79555 0.848463 0.884402
15 2 0.0121743 0.940852 0.409672
16 2 0.02954 0.246681 0.0100855
17 1 0.175965 0.641969 0.374924
18 2 0.684602 0.0976964 0.140309
19 2 0.364949 0.83029 0.0483701
20 2 0.455087 0.73 0.358822
21 2 0.349952 0.0735556 0.563078
22 2 0.24328 0.957443 0.372945
23 2 0.509831 0.55961 0.67197
24 2 0.172754 0.59408 0.998516
25 1 0.456259 0.138929 0.261499
26 2 0.762399 0.820702 0.869918
27 2 0.429427 0.455181 0.70817
28 2 0.794272 0.786039 0.964832
29 2 0.586267 0.118456 0.527243
30 2 0.859393 0.672451 0.778069
31 1 0.209313 0.0874885 0.575542
32 1 0.223183 0.342838 0.383143
33 1 0.372889 0.514137 0.762052
34 2 0.12955 0.423135 0.252004
35 2 0.0221245 0.277419 0.151781
36 1 0.902896 0.925311 0.899517
37 2 0.600542 0.506169 0.707026
38 2 0.220079 0.293986 0.150625
39 2 0.534554 0.579094 0.915532
40 2 0.60991 0.664146 0.973105
41 2 0.431514 0.587747 0.744585
42 2 0.42851 0.0645156 0.626536
43 2 0.780969 0.578815 0.128457
44 2 0.0389515 0.370986 0.637873
45 2 0.579012 0.525312 0.514641
46 1 0.887499 0.803052 0.108878
47 2 0.652658 0.910359 0.851967
48 2 0.155513 0.275774 0.0995751
49 2 0.539748 0.159829 0.178383
50 2 0.190062 0.910436 0.608422
51 2 0.707475 0.358147 0.286824
52 2 0.0223797 0.742256 0.809693
53 2 0.765316 0.239821 0.361409
54 2 0.644481 0.511875 0.82668
55 1 0.642038 0.518014 0.773383
56 1 0.53428 0.0405379 0.984785
57 2 0.854777 0.553624 0.195959
58 2 0.657614 0.645811 0.0502775
59 2 0.339985 0.991116 0.750139
60 2 0.67427 0.721085 0.378294
61 2 0.867111 0.451465 0.458174
62 2 0.918829 0.279896 0.397082
63 2 0.411743 0.070326 0.574806
64 2 0.500565 0.590333 0.664728
65 2 0.641336 0.627144 0.842053
66 1 0.101337 0.33342 0.597368
67 2 0.667109 0.0196366 0.680063
68 2 0.32574 0.446378 0.00384734
69 1 0.810764 0.25594 0.559929
70 2 0.474677 0.8049 0.745988
71 1 0.663967 0.499698 0.373211
72 2 0.778428 0.403176 0.314448
73 2 0.748698 0.225066 0.218234
74 2 0.824476 0.275127 0.641964
75 2 0.11141 0.813113 0.414154
76 2 0.0824931 0.753914 0.496941
77 1 0.558768 0.672741 0.115642
78 2 0.780214 0.989151 0.899722
79 2 0.429077 0.681266 0.445212
80 2 0.0731798 0.0652889 0.633146
81 2 0.836297 0.816791 0.0650661
82 2 0.0437207 0.345782 0.503032
83 2 0.945241 0.288488 0.166987
84 2 0.144435 0.0418521 0.561841
85 1 0.673197 0.201622 0.485512
86 2 0.47282 0.870651 0.637379
87 2 0.890427 0.199509 0.605465
88 2 0.321096 0.505037 0.481044
89 2 0.935675 0.512731 0.943684
90 2 0.538441 0.593448 0.641713
91 2 0.204131 0.268162 0.554464
92 2 0.638966 0.0772147 0.498697
93 2 0.159581 0.557933 0.12605
94 1 0.234716 0.858861 0.773147
95 2 0.852287 0.0845774 0.267885
96 2 0.538119 0.101031 0.477574
97 2 0.643841 0.475417 0.0040158
98 2 0.949301 0.860363 0.483429
99 2 0.217398 0.83401 0.970677
100 2 0.311136 0.851062 0.993695
101 1 0.00234034 0.123957 0.711373
102 2 0.661013 0.520472 0.878282
103 2 0.00466278 0.413033 0.679246
104 2 0.0465888 0.63187 0.56112
105 2 0.411737 0.624838 0.549117
106 2 0.240277 0.576441 0.934781
107 2 0.0194054 0.66696 0.370464
108 2 0.588267 0.169547 0.80981
109 2 0.702553 0.878221 0.323608
110 2 0.242753 0.0374089 0.676109
111 2 0.446224 0.497805 0.733885
112 1 0.876324 0.826121 0.203236
113 1 0.890282 0.487695 0.527486
114 2 0.830667 0.980249 0.951238
115 2 0.555078 0.734084 0.0605119
116 2 0.261052 0.142986 0.745019
117 2 0.847759 0.896402 0.0851324
118 2 0.0378648 0.346678 0.347053
119 2 0.593761 0.69964 0.0395928
120 2 0.641547 0.631823 0.283165
121 2 0.790357 0.46214 0.0203057
122 2 0.0724677 0.768229 0.334906
123 2 0.292856 0.890507 0.487115
124 2 0.836774 0.16941 0.19997
125 1 0.654295 0.00708848 0.731791
126 2 0.679226 0.865136 0.370779
127 2 0.616301 0.612877 0.2111
128 2 0.302473 0.0494386 0.664943
129 1 0.046764 0.843057 0.854625
130 2 0.41471 0.548301 0.706061
131 2 0.128909 0.18849 0.98807
132 2 0.495575 0.636991 0.888992
133 2 0.529666 0.310317 0.00228844
134 2 0.807908 0.0896253 0.64728
135 2 0.0591711 0.10023 0.39784
136 2 0.0625877 0.25556 0.121515
137 1 0.533305 0.0428058 0.453336
138 2 0.80435 0.203165 0.780069
139 2 0.714655 0.148743 0.285933
140 1 0.555217 0.171148 0.576514
141 2 0.769079 0.113978 0.175049
142 2 0.780154 0.824892 0.99928
143 2 0.530865 0.787237 0.435587
144 2 0.128083 0.948222 0.1169
145 2 0.663691 0.0734731 0.606814
146 2 0.803337 0.0377965 0.0174644
147 1 0.743737 0.279034 0.505066
148 1 0.675079 0.779751 0.761029
149 2 0.0507619 0.946981 0.0147498
150 1 0.544396 0.769267 0.489556
151 2 0.100306 0.360658 0.728249
152 2 0.948067 0.321798 0.0486627
153 1 0.537421 0.84469 0.429335
154 1 0.255775 0.876656 0.0483621
155 2 0.519748 0.98226 0.753451
156 2 0.91109 0.261385 0.711283
157 2 0.498185 0.268984 0.00456193
158 2 0.785455 0.45861 0.0662524
159 2 0.964767 0.707273 0.994066
160 2 0.732736 0.155395 0.335353
161 2 0.492548 0.739109 0.257054
162 2 0.530525 0.55995 0.193029
163 2 0.782056 0.426474 0.0513556
164 2 0.989413 0.589009 0.434747
165 2 0.175918 0.161772 0.796534
166 2 0.742158 0.834126 0.809185
167 2 0.420777 0.0966766 0.0341443
168 2 0.582664 0.138132 0.616617
169 2 0.0659247 0.0580965 0.585453
170 2 0.626649 0.849192 0.667113
171 2 0.517454 0.56685 0.956309
172 2 0.639416 0.12917 0.360535
173 1 0.597163 0.745751 0.628328
174 2 0.776763 0.339532 0.554713
175 2 0.00454516 0.968083 0.911507
176 2 0.582778 0.639264 0.854658
177 1 0.522207 0.900486 0.339984
178 2 0.215156 0.844975 0.626169
179 2 0.677387 0.307505 0.970411
180 2 0.434739 0.19686 0.536066
181 2 0.972105 0.372841 0.00242471
182 2 0.995966 0.415305 0.93956
183 2 0.327545 0.496564 0.963886
184 2 0.544975 0.177447 0.834775
185 2 0.705964 0.309655 0.0947744
186 2 0.921577 0.925223 0.212088
187 2 0.401184 0.179779 0.232766
188 1 0.987846 0.420098 0.530509
189 2 0.933367 0.130627 0.804119
190 2 0.207712 0.196915 0.748988
191 2 0.150987 0.616253 0.13375
192 2 0.596359 0.526814 0.458367
193 2 0.512572 0.935359 0.300431
194 2 0.819043 0.830217 0.224692
195 2 0.63928 0.951639 0.356446
196 2 0.437955 0.401794 0.249716
197 2 0.702762 0.458719 0.198991
198 2 0.977666 0.0184001 0.53828
199 2 0.0273733 0.414254 0.676388
200 1 0.613676 0.809031 0.72312
201 2 0.218766 0.0925451 0.895677
202 2 0.655543 0.858143 0.362401
203 2 0.96008 0.516674 0.769781
204 2 0.665755 0.573863 0.721176
205 2 0.439885 0.384522 0.446689
206 2 0.265868 0.870684 0.230913
207 2 0.578859 0.473116 0.822708
208 2 0.569549 0.443319 0.971642
209 2 0.902083 0.247192 0.338323
210 2 0.097487 0.89588 0.261559
211 2 0.772232 0.965934 0.959781
212 1 0.641915 0.345894 0.349736
213 2 0.609908 0.505064 0.401726
214 2 0.335052 0.790833 0.255563
215 2 0.100223 0.274068 0.981769
216 2 0.907701 0.411039 0.815529
217 2 0.366692 0.886654 0.232809
218 2 0.474935 0.807131 0.502237
219 2 0.825431 0.886444 0.108135
220 2 0.0978013 0.211021 0.948182
221 2 0.568915 0.653707 0.154353
222 2 0.943555 0.881613 0.471745
223 2 0.438542 0.676284 0.419576
224 2 0.161596 0.308503 0.279527
225 1 0.279955 0.361946 0.314093
226 2 0.558764 0.912233 0.992683
227 2 0.836199 0.124921 0.858853
228 2 0.700767 0.293736 0.75426
229 2 0.415304 0.188104 0.607928
230 1 0.20476 0.616791 0.690507
231 2 0.295298 0.489854 0.403072
232 2 0.736466 0.603319 0.962932
233 1 0.257326 0.86297 0.468395
234 2 0.737538 0.40572 0.814781
235 2 0.830085 0.699136 0.18429
236 2 0.806205 0.0349324 0.905229
237 2 0.53684 0.688317 0.458546
238 1 0.528972 0.350838 0.45096
239 1 0.857234 0.152331 0.254474
240 2 0.799575 0.890894 0.0969704
241 2 0.358861 0.136878 0.302319
242 1 0.742926 0.281414 0.400056
243 1 0.634629 0.534936 0.526514
244 2 0.998575 0.879606 0.646905
245 2 0.683537 0.766462 0.146211
246 1 0.324645 0.422753 0.574115
247 2 0.96073 0.0913136 0.226338
248 2 0.201757 0.350837 0.800511
249 2 0.94663 0.543159 0.961501
250 2 0.74537 0.677947 0.0566424
251 2 0.0539773 0.919992 0.935556
252 2 0.596043 0.976784 0.0137501
253 2 0.68055 0.290661 0.906153
254 2 0.860625 0.768158 0.488185
255 2 0.0364903 0.467074 0.533898
256 2 0.974628 0.969225 0.47757
257 2 0.637241 0.253144 0.785462
258 2 0.380019 0.439721 0.411858
259 1 0.103891 0.191383 0.0363117
260 2 0.345773 0.847123 0.484949
261 1 0.673986 0.791745 0.608338
262 2 0.594675 0.00290819 0.563415
263 2 0.904657 0.515934 0.598636
264 2 0.780787 0.603809 0.639161
265 1 0.937044 0.525646 0.500932
266 2 0.774563 0.427096 0.714645
267 2 0.643255 0.91302 0.37763
268 1 0.0782091 0.969624 0.419175
269 1 0.0346618 0.437572 0.347065
270 2 0.852215 0.504408 0.119247
271 2 0.620419 0.50626 0.628365
272 2 0.875277 0.772732 0.197124
273 1 0.502472 0.000569223 0.236739
274 2 0.747927 0.915243 0.352415
275 2 0.735823 0.515303 0.933993
276 2 0.277067 0.480192 0.558372
277 2 0.980992 0.0666343 0.654279
278 2 0.350148 0.749011 0.402923
279 2 0.0576383 0.584487 0.748949
280 1 0.0634871 0.511691 0.284533
281 2 0.446994 0.264984 0.353377
282 2 0.77224 0.288413 0.471309
283 2 0.782371 0.0338886 0.778805
284 1 0.61653 0.451139 0.965617
285 2 0.860953 0.682563 0.562246
286 2 0.954119 0.649015 0.618965
287 1 0.402294 0.82941 0.685397
288 2 0.326252 0.328669 0.769841
289 2 0.0163996 0.784254 0.574737
290 2 0.987102 0.856656 0.928242
291 2 0.249785 0.94281 0.107471
292 2 0.314743 0.394816 0.26901
293 2 0.50316 0.595607 0.602424
294 2 0.593482 0.31056 0.103141
295 2 0.847174 0.463222 0.0793518
296 2 0.424872 0.703858 0.550217
297 2 0.986312 0.452305 0.410768
298 2 0.417143 0.73331 0.656682
299 1 0.0733903 0.351338 0.468937
300 2 0.774631 0.0687549 0.618738
301 2 0.583594 0.561432 0.930154
302 2 0.391136 0.685928 0.395756
303 2 0.790629 0.00412123 0.876888
304 1 0.379491 0.305676 0.145603
305 2 0.745762 0.0923018 0.391004
306 2 0.300891 0.53855 0.991698
307 2 0.200404 0.138363 0.747261
308 2 0.464061 0.65451 0.975036
309 2 0.532502 0.806532 0.686132
310 2 0.659633 0.507599 0.451806
311 2 0.984453 0.578395 0.678306
312 2 0.21067 0.778881 0.487854
313 2 0.872791 0.59217 0.860283
314 2 0.791404 0.256719 0.518476
315 2 0.047083 0.0920692 0.665252
316 2 0.70548 0.887141 0.41355
317 2 0.169599 0.308824 0.487199
318 2 0.0831204 0.421421 0.659545
319 2 0.800614 0.758595 0.92136
320 2 0.0142168 0.695229 0.335588
321 2 0.246718 0.777235 0.782235
322 2 0.542838 0.637299 0.609537
323 2 0.0705749 0.902781 0.593189
324 2 0.640764 0.637322 0.768979
325 2 0.41957 0.115398 0.308155
326 2 0.420192 0.555613 0.806926
327 2 0.160545 0.472561 0.269152
328 2 0.877358 0.577628 0.719775
329 1 0.239783 0.617991 0.40718
330 2 0.49656 0.311592 0.991451
331 2 0.468043 0.485299 0.685751
332 2 0.550938 0.0450528 0.147671
333 2 0.539494 0.0827299 0.471973
334 2 0.624053 0.44538 0.797151
335 1 0.590494 0.909373 0.97924
336 2 0.277601 0.84773 0.23568
337 2 0.97239 0.457954 0.379949
338 1 0.773807 0.372189 1.00008
339 2 0.592595 0.858129 0.239922
340 2 0.245433 0.876776 0.640031
341 2 0.452004 0.0168936 0.115465
342 2 0.0849329 0.00807648 0.165821
343 2 0.310747 0.387617 0.0930745
344 1 0.829047 0.912087 0.224869
345 1 0.527441 0.196706 0.787743
346 1 0.834547 0.83582 0.941528
347 1 0.743117 0.56808 0.838792
348 2 0.899672 0.99095 0.534793
349 2 0.238553 0.773657 0.30705
350 2 0.398251 0.428667 0.0642937
351 2 0.821998 0.567104 0.227316
352 2 0.202812 0.126928 0.848488
353 1 0.118942 0.593284 0.0919778
354 1 0.208824 0.874822 0.914277
355 2 0.0062601 0.465894 0.94886
356 2 0.453559 0.887387 0.46832
357 2 0.433309 0.72326 0.746853
358 2 0.667677 0.67378 0.848213
359 2 0.544465 0.429014 0.373355
360 2 0.469557 0.581635 0.656067
361 1 0.256657 0.900011 0.192242
362 2 0.845605 0.226879 0.763849
363 1 0.0980448 0.702688 0.665817
364 2 0.78703 0.235584 0.427844
365 2 0.689707 0.159943 0.939815
366 2 0.295454 0.969237 0.375032
367 1 0.565099 0.875069 0.520058
368 1 0.957078 0.291194 0.103666
369 2 0.297049 0.718721 0.287803
370 2 0.150551 0.720731 0.37651
371 2 0.640428 0.891014 0.323564
372 1 0.0888705 0.456113 0.296671
373 2 0.117395 0.866662 0.552194
374 2 0.561381 0.485118 0.149054
375 2 0.834361 0.636645 0.138366
376 2 0.952364 0.0390306 0.902509
377 2 0.31566 0.853575 0.0531361
378 2 0.475876 0.858237 0.972217
379 2 0.609495 0.17848 0.534628
380 2 0.741513 0.824253 0.364237
381 2 0.553668 0.0753162 0.111496
382 2 0.384134 0.0449454 0.733865
383 2 0.835755 0.714717 0.282119
384 1 0.527548 0.809175 0.845143
385 2 0.625885 0.392411 0.779536
386 2 0.518684 0.663153 0.294244
387 1 0.796964 0.746807 0.977012
388 2 0.0781351 0.811557 0.596419
389 2 0.796749 0.272978 0.713577
390 2 0.561458 0.197131 0.370619
391 2 0.827475 0.133148 0.542995
392 1 0.796627 0.378058 0.81137
393 2 0.350081 0.984897 0.929343
394 2 0.299979 0.942068 0.187334
395 2 0.131986 0.455408 0.108343
396 2 0.701428 0.176295 0.726025
397 2 0.658901 0.612628 0.402662
398 1 0.616907 0.341797 0.916842
399 1 0.834975 0.337106 0.578512
400 1 0.791242 0.0972793 0.37388
401 2 0.643725 0.883186 0.160126
402 2 0.0608519 0.562596 0.805016
403 2 0.789687 0.0377302 0.96425
404 2 0.0602328 0.61165 0.0384826
405 2 0.519539 0.897823 0.550433
406 2 0.511049 0.273999 0.927067
407 2 0.667871 0.330067 0.300918
408 2 0.00812348 0.307009 0.12735
409 2 0.84909 0.308693 0.400356
410 2 0.151422 0.25587 0.536424
411 2 0.297173 0.803679 0.0533658
412 2 0.209086 0.0801648 0.163979
413 2 0.647727 0.476096 0.038201
414 2 0.871924 0.490067 0.624572
415 2 0.673069 0.0638925 0.886016
416 1 0.389706 0.539745 0.677736
417 2 0.870388 0.547808 0.150133
418 2 0.682193 0.402363 0.493489
419 2 0.515134 0.815747 0.373087
420 2 0.862916 0.180565 0.497573
421 1 0.603204 0.904499 0.599965
422 1 0.191382 0.801672 0.543259
423 2 0.078017 0.60476 0.240579
424 2 0.761891 0.291366 0.294982
425 1 0.270722 0.561008 0.903373
426 2 0.392299 0.210647 0.803793
427 2 0.158979 0.969634 0.988867
428 2 0.306009 0.431855 0.298099
429 2 0.0175176 0.522654 0.824867
430 2 0.327454 0.533943 0.301903
431 2 0.48697 0.880436 0.350146
432 1 0.536467 0.485058 0.18336
433 2 0.516876 0.275981 0.0645973
434 1 0.543451 0.226743 0.580215
435 2 0.282246 0.439098 0.120314
436 2 0.560923 0.847395 0.479514
437 2 0.144047 0.776455 0.794511
438 2 0.381092 0.316869 0.34029
439 1 0.554633 0.988294 0.542933
440 2 0.593786 0.11581 0.229327
441 1 0.618343 0.599174 0.363953
442 1 0.572821 0.102874 0.0754399
443 1 0.933607 0.682404 0.0624155
444 2 0.156298 0.848212 0.758092
445 2 0.870635 0.584275 0.348849
446 2 0.505068 0.0306144 0.616151
447 2 0.691761 0.809668 0.429185
448 2 0.0973779 0.824234 0.340037
449 1 0.874211 0.720664 0.724241
450 2 0.172632 0.119505 0.472714
451 2 0.569889 0.471092 0.954945
452 2 0.112728 0.52457 0.221289
453 1 0.965696 0.117462 0.296016
454 2 0.803028 0.531882 0.79791
455 2 0.632509 0.117742 0.586712
456 2 0.0126334 0.888298 0.431681
457 2 0.486272 0.644473 0.485636
458 2 0.745144 0.0281297 0.175164
459 2 0.564065 0.632165 0.446513
460 2 0.573842 0.36783 0.108723
461 2 0.971712 0.405385 0.95609
462 2 0.80464 0.972022 0.899526
463 1 0.42537 0.480114 0.647655
464 2 0.783003 0.297462 0.95222
465 2 0.961067 0.303913 0.803877
466 2 0.338275 0.0204792 0.930438
467 1 0.540868 0.177112 0.297285
468 2 0.933609 0.738447 0.157032
469 2 0.973858 0.38667 0.778835
470 2 0.445723 0.660656 0.833601
471 2 0.498938 0.448012 0.0202425
472 2 0.295124 0.771354 0.730918
473 1 0.165708 0.57376 0.655657
474 1 0.150197 0.00416473 0.614659
475 1 0.21663 0.644674 0.892686
476 2 0.550022 0.858014 0.156893
477 2 0.823093 0.557734 0.643402
478 2 0.475509 0.444896 0.253948
479 2 0.520352 0.878288 0.76211
480 2 0.513055 0.303139 0.457814
481 2 0.343964 0.835799 0.526348
482 2 0.440072 0.443113 0.592128
483 2 0.763616 0.512587 0.609097
484 1 0.797203 0.292567 0.377197
485 1 0.820457 0.929279 0.90287
486 2 0.0525814 0.438233 0.635818
487 2 0.895228 0.598781 0.0454445
488 2 0.980021 0.511582 0.327699
489 2 0.238654 0.588704 0.369775
490 2 0.75382 0.850869 0.781406
491 2 0.580446 0.992314 0.484764
492 2 0.433563 0.723682 0.476766
493 2 0.583416 0.12618 0.0289788
494 2 0.216832 0.962244 0.501048
495 2 0.545101 0.22989 0.342777
496 2 0.632102 0.256505 0.576682
497 2 0.882503 0.393008 0.39386
498 1 0.384317 0.799053 0.332396
499 2 0.28138 0.590435 0.70403
500 2 0.660647 0.576074 0.899445
501 1 0.738267 0.0606354 0.0420739
502 2 0.0745986 0.880214 0.134297
503 2 0.862953 0.718517 0.0120128
504 1 0.809726 0.840425 0.14601
505 2 0.150006 0.439378 0.207971
506 2 0.427481 0.386121 0.131692
507 2 0.893133 0.592018 0.13154
508 2 0.237406 0.795223 0.737061
509 1 0.00766801 0.468128 0.483595
510 2 0.641395 0.0905999 0.110664
511 2 0.601099 0.543807 0.837654
512 2 0.0549051 0.892576 0.942798
513 1 0.0468691 0.101849 0.485564
514 2 0.484739 0.915718 0.583549
515 1 0.545394 0.344343 0.383309
516 2 0.423098 0.88122 0.264543
517 1 0.713783 0.157382 0.631157
518 2 0.296612 0.780578 0.83982
519 2 0.736385 0.242866 0.457154
520 2 0.44499 0.755896 0.47974
521 2 0.889376 0.198755 0.159944
522 2 0.326007 0.608722 0.545307
523 2 0.886506 0.308985 0.287552
524 2 0.72251 0.937566 0.764078
525 2 0.598101 0.956059 0.353091
526 2 0.0391079 0.375046 0.77387
527 2 0.448759 0.932721 0.320332
528 1 0.209318 0.450964 0.446043
529 2 0.0588251 0.966516 0.9096
530 2 0.594245 0.976474 0.516554
531 2 0.498451 0.135494 0.997046
532 2 0.555897 0.968484 0.298462
533 2 0.596376 0.433394 0.242306
534 1 0.27969 0.976033 0.95337
535 2 0.547041 0.358905 0.973132
536 1 0.344631 0.122066 0.9966
537 1 0.934606 0.413955 0.0754455
538 2 0.258637 0.200446 0.69827
539 2 0.818787 0.288743 0.4962
540 2 0.434114 0.306711 0.714465
541 1 0.628097 0.880209 0.543
542 2 0.79994 0.727235 0.0421909
543 1 0.566757 0.107922 0.148232
544 1 0.490036 0.089727 0.140351
545 2 0.0664077 0.0166102 0.76875
546 2 0.156799 0.545751 0.735734
547 2 0.601599 0.860784 0.569425
548 2 0.693989 0.102655 0.521615
549 2 0.668691 0.402165 0.00573452
550 2 0.451515 0.545764 0.592167
551 1 0.729893 0.133703 0.383562
552 2 0.10947 0.717341 0.347453
553 2 0.453502 0.857553 0.679175
554 2 0.608391 0.522935 0.803245
555 1 0.773627 0.398215 0.909846
556 2 0.180706 0.764481 0.903488
557 2 0.699078 0.0120834 0.800061
558 1 0.405213 0.939399 0.195565
559 2 0.258192 0.329275 0.502291
560 2 0.0169077 0.281708 0.00905358
561 2 0.411111 0.263812 0.132005
562 1 0.466844 0.612845 0.775623
563 2 0.317466 0.159045 0.119475
564 2 0.765672 0.880679 0.349741
565 2 0.237752 0.356937 0.868077
566 2 0.0655441 0.719742 0.348976
567 2 0.0547045 0.935811 0.906889
568 2 0.13506 0.521369 0.409128
569 1 0.848913 0.460833 0.164045
570 2 0.842005 0.256768 0.701431
571 2 0.948992 0.549762 0.247318
572 2 0.027583 0.476912 0.34263
573 2 0.997364 0.676662 0.712347
574 2 0.303613 0.95182 0.979756
575 1 0.0587036 0.988454 0.617141
576 2 0.24665 0.261771 0.538213
577 2 0.0966339 0.954774 0.36711
578 1 0.436922 0.317902 0.512172
579 2 0.429464 0.643358 0.725118
580 1 0.384041 0.502342 0.476417
581 2 0.903451 0.987978 0.670204
582 2 0.259627 0.32899 0.872994
583 1 0.47907 0.52379 0.734247
584 2 0.817331 0.824502 0.0373709
585 1 0.402978 0.212935 0.279717
586 2 0.167116 0.249803 0.503888
587 2 0.179746 0.118568 0.0813775
588 2 0.946393 0.0548291 0.633163
589 1 0.0569364 0.329854 0.969753
590 1 0.807506 0.112863 0.451929
591 1 0.767638 0.207646 0.471238
592 2 0.782721 0.170422 0.983501
593 2 0.127715 0.240004 0.0384713
594 1 0.540671 0.377504 0.327229
595 1 0.984369 0.246147 0.973157
596 2 0.531566 0.961412 0.493784
597 1 0.564708 0.898469 0.173674
598 2 0.477349 0.501497 0.344384
599 2 0.62911 0.811786 0.650463
600 2 0.857004 0.727669 0.158872
601 2 0.972755 0.235045 0.212752
602 1 0.651132 0.411748 0.315082
603 2 0.876157 0.959671 0.802288
604 1 0.721614 0.407211 0.960098
605 2 0.576089 0.480111 0.578915
606 2 0.736903 0.370307 0.196939
607 1 0.122444 0.65942 0.68017
608 2 0.210522 0.423503 0.229978
609 2 0.911721 0.192771 0.842727
610 2 0.75739 0.708287 0.95828
611 2 0.799046 0.32658 0.476068
612 1 0.695689 0.138681 0.0139036
613 2 0.611852 0.012474 0.346507
614 1 0.699266 0.119011 0.488114
615 2 0.487448 0.110225 0.991168
616 1 0.126118 0.11105 0.618341
617 2 0.352963 0.0683998 0.419897
618 2 0.737629 0.747722 0.735599
619 2 0.235761 0.791103 0.699185
620 2 0.655417 0.0763161 0.0278962
621 2 0.755812 0.970458 0.990171
622 2 0.152392 0.804531 0.534051
623 1 0.410795 0.727212 0.430131
624 2 0.977681 0.518229 0.697036
625 2 0.256009 0.522946 0.169964
626 2 0.334051 0.988329 0.323976
627 2 0.591136 0.353979 0.364745
628 2 0.1555 0.273897 0.782845
629 2 0.469079 0.958752 0.208183
630 1 0.0565897 0.312451 0.125132
631 2 0.941086 0.508764 0.568226
632 2 0.118681 0.236093 0.694444
633 2 0.369339 0.0632983 0.724736
634 2 0.454451 0.189805 0.17145
635 2 0.235002 0.582942 0.596703
636 2 0.406764 0.533842 0.824654
637 2 0.551108 0.031942 0.508219
638 1 0.363631 0.172384 0.496996
639 2 0.639855 0.857464 0.624593
640 2 0.0587439 0.578889 0.0157188
641 2 0.533273 0.277474 0.992846
642 2 0.472327 0.67286 0.260996
643 2 0.172402 0.536549 0.849068
644 2 0.42789 0.911403 0.987808
645 1 0.707785 0.924627 0.406185
646 2 0.692489 0.114499 0.406585
647 1 0.297027 0.992702 0.0546944
648 2 0.755804 0.275646 0.556458
649 2 0.89695 0.0800198 0.0283002
650 2 0.632123 0.813822 0.256481
651 2 0.773807 0.919114 0.581503
652 2 0.634051 0.284104 0.223526
653 2 0.91999 0.954866 0.861547
654 1 0.531984 0.352432 0.0760739
655 2 0.279125 0.0413469 0.435382
656 2 0.167956 0.614065 0.347329
657 2 0.56494 0.892532 0.771649
658 2 0.122315 0.10914 0.309324
659 2 0.251631 0.258199 0.683258
660 2 0.577396 0.979422 0.117166
661 1 0.610147 0.276252 0.458147
662 2 0.759118 0.563243 0.247066
663 2 0.133699 0.0357746 0.652802
664 1 0.00530629 0.531819 0.40458
665 2 0.391457 0.621862 0.354508
666 2 0.627331 0.834865 0.647314
667 2 0.571076 0.220551 0.0961039
668 2 0.456574 0.19381 0.113069
669 2 0.793305 0.189577 0.239087
670 1 0.658347 0.504405 0.256034
671 2 0.780319 0.40315 0.0237858
672 1 0.618797 0.903284 0.468202
673 2 0.905769 0.214411 0.906583
674 2 0.553104 0.90368 0.4506
675 2 0.970567 0.554195 0.651308
676 1 0.172712 0.83984 0.633594
677 2 0.0847235 0.177141 0.447044
678 2 0.02768 0.129288 0.469069
679 1 0.931456 0.930407 0.824656
680 2 0.392976 0.847507 0.0511394
681 1 0.495281 0.438858 0.693744
682 1 0.9782 0.949944 0.885416
683 2 0.536903 0.225464 0.277479
684 2 0.128509 0.776052 0.680841
685 2 0.305785 0.770122 0.171797
686 2 0.453446 0.945753 0.735587
687 1 0.0747826 0.230975 0.000123045
688 2 0.244331 0.256299 0.61824
689 2 0.650198 0.626317 0.341821
690 2 0.800467 0.752774 0.731531
691 2 0.576408 0.150698 0.683176
692 1 0.681521 0.49827 0.02939
693 2 0.260055 0.59023 0.415338
694 2 0.767719 0.0764972 0.515103
695 1 0.612248 0.951263 0.0746096
696 2 0.0525169 0.260856 0.0910594
697 2 0.508133 0.38291 0.0193202
698 2 0.894476 0.557 0.706232
699 2 0.847169 0.000702184 0.930812
700 1 0.416788 0.542677 0.754579
701 2 0.467091 0.0454073 0.93026
702 2 0.0506674 0.4387 0.683223
703 2 0.22702 0.216901 0.644807
704 2 0.137092 0.766575 0.283995
705 2 0.561366 0.62116 0.319734
706 2 0.494701 0.880094 0.727146
707 2 0.831743 0.375221 0.569462
708 1 0.582783 0.0832749 0.735712
709 2 0.483676 0.680345 0.571956
710 2 0.520754 0.469553 0.362064
711 2 0.0269068 0.678231 0.378962
712 1 0.918362 0.0684248 0.0619504
713 2 0.790342 0.986894 0.980028
714 1 0.699606 0.273189 0.191379
715 2 0.143756 0.828813 0.0889974
716 1 0.606851 0.91314 0.754905
717 2 0.176649 0.960936 0.433436
718 2 0.456632 0.845646 0.312504
719 2 0.711113 0.384483 0.108109
720 2 0.322919 0.951052 0.481212
721 2 0.054709 0.592528 0.116717
722 1 0.0352975 0.519543 0.679118
723 2 0.340643 0.52667 0.757959
724 2 0.247214 0.817387 0.494664
725 2 0.501291 0.957987 0.202489
726 2 0.216732 0.509909 0.166754
727 1 0.452021 0.783906 0.69546
728 1 0.8214 0.601849 0.424174
729 1 0.518886 0.21765 0.970402
730 1 0.464147 0.802874 0.566855
731 2 0.287907 0.295204 0.429615
732 1 0.652921 0.916471 0.799476
733 2 0.753099 0.342382 0.92201
734 2 0.118559 0.509836 0.494411
735 2 0.391649 0.876284 0.221872
736 1 0.538249 0.562189 0.859797
737 2 0.346443 0.930914 0.164739
738 2 0.58493 0.703633 0.308806
739 2 0.0197872 0.68416 0.707745
740 2 0.0886703 0.667346 0.369505
741 2 0.115305 0.633869 0.397074
742 1 0.75034 0.900728 0.923578
743 2 0.988019 0.275769 0.537441
744 2 0.414665 0.752637 0.826318
745 2 0.408773 0.437495 0.637294
746 1 0.118017 0.516591 0.811787
747 2 0.6277 0.315285 0.139878
748 2 0.692243 0.662554 0.115104
749 2 0.279198 0.46817 0.971572
750 2 0.295172 0.370096 0.391805
751 2 0.41125 0.987716 0.308068
752 2 0.292921 0.82945 0.471233
753 2 0.512869 0.21455 0.712679
754 2 0.829639 0.148107 0.643258
755 2 0.937999 0.248609 0.598156
756 2 0.5291 0.453185 0.419847
757 2 0.854433 0.263968 0.34878
758 2 0.657027 0.235737 0.046619
759 2 0.869477 0.0692547 0.0742951
760 1 0.485754 0.501082 0.624215
761 2 0.883004 0.0822707 0.590268
762 2 0.614126 0.215669 0.524032
763 1 0.234051 0.281186 0.870235
764 2 0.289156 0.524396 0.0325121
765 2 0.314644 0.152354 0.0890152
766 2 0.576566 0.0497205 0.0808126
767 2 0.731251 0.138682 0.147034
768 2 0.336896 0.493861 0.921506
769 2 0.987676 0.534928 0.351627
770 2 0.784463 0.895211 0.196488
771 2 0.937676 0.879566 0.873112
772 2 0.388769 0.878394 0.369894
773 1 0.841813 0.740464 0.391223
774 2 0.546432 0.806789 0.275482
775 2 0.503549 0.0536588 0.653093
776 2 0.306672 0.455521 0.525947
777 1 0.594375 0.0632613 0.00859022
778 2 0.468481 0.364927 0.734165
779 2 0.817493 0.171206 0.0411296
780 1 0.235027 0.466418 0.232232
781 2 0.317531 0.400948 0.293076
782 2 0.556812 0.866509 0.754039
783 1 0.441535 0.809203 0.63931
784 2 0.633633 0.760041 0.526695
785 2 0.496367 0.492074 0.445648
786 1 0.352664 0.411456 0.512451
787 2 0.990816 0.847658 0.233053
788 2 0.66541 0.584336 0.284551
789 2 0.689664 0.222647 0.444798
790 2 0.73265 0.209135 0.344483
791 1 0.237224 0.518849 0.444758
792 2 0.178275 0.574821 0.234442
793 2 0.986735 0.283332 0.517561
794 2 0.237566 0.652893 0.124418
795 2 0.929764 0.432667 0.393693
796 2 0.233321 0.86113 0.410661
797 2 0.584462 0.733606 0.768371
798 2 0.997394 0.0477526 0.580856
799 2 0.0108848 0.629434 0.828661
800 2 0.526938 0.295709 0.0208511
801 2 0.701141 0.925027 0.749196
802 2 0.519804 0.555488 0.916165
803 2 0.129822 0.866377 0.0294649
804 2 0.0569411 0.207724 0.13726
805 2 0.363163 0.573448 0.482951
806 1 0.458458 0.876814 0.791317
807 2 0.892916 0.760865 0.579574
808 2 0.64112 0.211572 0.237617
809 1 0.569147 0.273245 0.363655
810 2 0.500176 0.967065 0.705893
811 2 0.654606 0.316755 0.826616
812 2 0.822374 0.76374 0.225401
813 1 0.72006 0.216039 0.39362
814 2 0.516254 0.13583 0.361606
815 2 0.677835 0.60771 0.559356
816 1 0.511768 0.874445 0.257035
817 1 0.526536 0.213014 0.656937
818 2 0.712367 0.848036 0.214695
819 1 0.500517 0.62699 0.16449
820 1 0.361314 0.768783 0.461254
821 2 0.460479 0.0423353 0.664416
822 2 0.444902 0.675782 0.542741
823 1 0.785957 0.319072 0.580409
824 2 0.680345 0.434729 0.135113
825 2 0.362616 0.543727 0.315455
826 2 0.456569 0.486389 0.394484
827 1 0.629662 0.372051 0.649773
828 2 0.612102 0.682687 0.634744
829 2 0.331649 0.200847 0.562517
830 2 0.460324 0.568222 0.617564
831 1 0.170071 0.143427 0.304032
832 2 0.368742 0.498903 0.71257
833 1 0.754942 0.410475 0.479258
834 2 0.674912 0.865271 0.463897
835 2 0.666537 0.0184938 0.314632
836 2 0.0539912 0.468865 0.114837
837 2 0.592044 0.183481 0.264193
838 2 0.863299 0.98312 0.942515
839 2 0.409285 0.861813 0.526265
840 2 0.305691 0.879319 0.657325
841 2 0.545723 0.834335 0.617197
842 2 0.206103 0.217086 0.123139
843 2 0.149921 0.462577 0.345024
844 2 0.160294 0.0921466 0.524545
845 2 0.623456 0.657186 0.817173
846 2 0.588943 0.175308 0.542956
847 2 0.611442 0.53283 0.963275
848 2 0.180759 0.765272 0.220847
849 1 0.595682 0.216015 0.948338
850 2 0.555023 0.663982 0.890233
851 2 0.539999 0.937136 0.45968
852 2 0.768179 0.752794 0.257463
853 1 0.101967 0.544754 0.749126
854 2 0.632503 0.878608 0.791719
855 2 0.424997 0.650878 0.531241
856 2 0.754368 0.960743 0.894503
857 2 0.534033 0.364171 0.0190585
858 2 0.39473 0.568964 0.779143
859 2 0.761149 0.636375 0.258314
860 2 0.439181 0.980862 0.751023
861 2 0.0502477 0.88385 0.482039
862 2 0.765812 0.716959 0.277087
863 2 0.891616 0.387384 0.752183
864 2 0.240559 0.662515 0.84693
865 2 0.924248 0.476927 0.553709
866 2 0.855859 0.0961509 0.651706
867 2 0.665154 0.415046 0.223228
868 2 0.398687 0.0919575 0.82824
869 2 0.566257 0.22276 0.558713
870 2 0.480784 0.545881 0.658794
871 2 0.905303 0.299636 0.559143
872 2 0.380068 0.739267 0.254337
873 2 0.411974 0.0592121 0.142468
874 2 0.097495 0.0803945 0.336859
875 2 0.472395 0.110169 0.621625
876 2 0.6326 0.513465 0.997241
877 2 0.619277 0.0195852 0.38192
878 2 0.633544 0.925037 0.507726
879 2 0.801427 0.34392 0.722281
880 2 0.580803 0.799157 0.43296
881 2 0.305552 0.814817 0.514856
882 1 0.648041 0.313752 0.547722
883 1 0.236931 0.653125 0.313389
884 2 0.633197 0.309405 0.599737
885 2 0.739413 0.383994 0.663045
886 2 0.0301398 0.569357 0.891979
887 1 0.831587 0.801133 0.981001
888 2 0.462554 0.725899 0.423292
889 2 0.0831324 0.22835 0.232795
890 1 0.076571 0.649501 0.698666
891 2 0.109146 0.921928 0.130936
892 2 0.178711 -5.8157e-05 0.497898
893 2 0.66392 0.484062 0.68122
894 2 0.326317 0.822239 0.587145
895 1 0.631276 0.831703 0.582468
896 2 0.0142401 0.653431 0.0925041
897 2 0.400168 0.992091 0.867743
898 2 0.732575 0.33487 0.591138
899 2 0.65406 0.253368 0.934817
900 2 0.706261 0.880957 0.854933
901 2 0.049526 0.171522 0.391646
902 2 0.332208 0.434207 0.26744
903 2 0.0903386 0.387483 0.696063