ITEM: TIMESTEP
49700
ITEM: NUMBER OF ATOMS
1000
ITEM: BOX BOUNDS xy xz yz pp pp pp
0.0000000000000000e+00 1.3572088000000001e+01 0.0000000000000000e+00
0.0000000000000000e+00 1.3572088000000001e+01 0.0000000000000000e+00
0.0000000000000000e+00 1.3572088000000001e+01 0.0000000000000000e+00
ITEM: ATOMS id type xs ys zs
1 2 0.0196903 0.652769 0.891567
2 2 0.749451 0.0393844 0.561298
3 1 0.660075 0.945671 0.892841
4 2 0.0981489 0.851799 0.765803
5 2 0.845217 0.606799 0.789508
6 1 0.36418 0.213005 0.696386
7 2 0.615885 0.044945 0.753236
8 2 0.0299105 0.431133 0.46081
9 2 0.138062 0.641115 0.969946
10 2 0.667089 0.0409654 0.779536
11 2 0.971926 0.639064 0.859856
12 2 0.659584 0.99232 0.76582
13 2 0.713133 0.652817 0.638929
14 1 0.367464 0.505947 0.432434
15 2 0.768071 0.589344 0.536978
16 2 0.0201585 0.944201 0.228994
17 1 0.722268 0.605327 0.632633
18 2 0.936418 0.536097 0.444259
19 2 0.915936 0.147855 0.346015
20 2 0.174495 0.349039 0.299779
21 2 0.636486 0.0238159 0.77921
22 2 0.252657 0.822282 0.0138988
23 2 0.355409 0.0943296 0.389682
24 2 0.82504 0.581063 0.59614
25 1 0.222045 0.676057 0.188635
26 2 0.459073 0.366356 0.640044
27 2 0.670139 0.976001 0.752168
28 2 0.649528 0.0124919 0.799118
29 2 0.827113 0.524795 0.712373
30 2 0.801318 0.931054 0.744323
31 1 0.282444 0.603763 0.249621
32 1 0.816756 0.727227 0.691601
33 1 0.817999 0.517989 0.625918
34 2 0.741787 0.589131 0.607217
35 2 0.740571 0.227852 0.916953
36 1 0.70274 0.0216169 0.717608
37 2 0.787783 0.577378 0.635893
38 2 0.605604 0.995409 0.754476
39 2 0.0532706 0.139577 0.584714
40 2 0.0115414 0.272141 0.604957
41 2 0.612723 0.986885 0.747512
42 2 0.65043 0.977827 0.761496
43 2 0.219046 0.521893 0.0880155
44 2 0.259145 0.157913 0.384268
45 2 0.165592 0.634856 0.799481
46 1 0.181281 0.82723 0.159957
47 2 0.828013 0.584223 0.640504
48 2 0.600147 0.0123794 0.731721
49 2 0.333038 0.186056 0.348472
50 2 0.784386 0.615874 0.644681
51 2 0.729966 0.847179 0.340022
52 2 0.369881 0.433222 0.859035
53 2 0.321245 0.390137 0.535917
54 2 0.635354 0.0402182 0.811748
55 1 0.840167 0.605103 0.526136
56 1 0.525096 0.0234468 0.0243833
57 2 0.161709 0.507147 0.839592
58 2 0.544204 0.363142 0.408331
59 2 0.842083 0.137863 0.193053
60 2 0.652301 0.926009 0.201985
61 2 0.50436 0.994829 0.429549
62 2 0.244637 0.870791 0.602631
63 2 0.2591 0.247843 0.446636
64 2 0.949734 0.106007 0.892643
65 2 0.811669 0.565446 0.603189
66 1 0.946989 0.758221 0.681698
67 2 0.709783 0.929861 0.780052
68 2 0.658587 0.0174383 0.813059
69 1 0.15321 0.069845 0.79018
70 2 0.974168 0.264983 0.739876
71 1 0.561059 0.00594758 0.782414
72 2 0.397926 0.060703 0.751007
73 2 0.685159 0.890306 0.686901
74 2 0.452917 0.115456 0.44291
75 2 0.563005 0.293134 0.470106
76 2 0.633743 0.000473497 0.839904
77 1 0.152586 0.2228 0.178924
78 2 0.811969 0.185947 0.527543
79 2 0.589724 0.791853 0.881071
80 2 0.687489 0.222059 0.312861
81 2 0.620074 0.00775283 0.738557
82 2 0.569122 0.037135 0.49381
83 2 0.683019 0.244159 0.387771
84 2 0.126883 0.08158 0.592394
85 1 0.733467 0.409148 0.423648
86 2 0.799339 0.593224 0.5474
87 2 0.424598 0.942285 0.801832
88 2 0.0308288 0.987409 0.987172
89 2 0.76597 0.748904 0.246962
90 2 0.676142 0.0341424 0.774167
91 2 0.869583 0.606886 0.362422
92 2 0.243848 0.431372 0.666887
93 2 0.850773 0.601001 0.616871
94 1 0.133151 0.492495 0.720545
95 2 0.193866 0.0398114 0.118314
96 2 0.712787 0.94856 0.870765
97 2 0.755874 0.304675 0.490355
98 2 0.260528 0.991847 0.735766
99 2 0.524745 0.50331 0.871065
100 2 0.316559 0.484377 0.0914285
101 1 0.276977 0.350611 0.0616086
102 2 0.137661 0.870953 0.6308
103 2 0.74424 0.600999 0.562363
104 2 0.38663 0.671411 0.101005
105 2 0.833883 0.553562 0.623184
106 2 0.00327014 0.770124 0.717651
107 2 0.453473 0.705095 0.252422
108 2 0.756838 0.583191 0.592106
109 2 0.801041 0.596251 0.633038
110 2 0.701745 0.909126 0.719478
111 2 0.399133 0.881859 0.562973
112 1 0.159038 0.857659 0.76305
113 1 0.755916 0.660198 0.663141
114 2 0.800583 0.630398 0.591623
115 2 0.27704 0.110235 0.71355
116 2 0.43718 0.00377082 0.945596
117 2 0.48056 0.939591 0.130732
118 2 0.825214 0.546561 0.606394
119 2 0.179213 0.825979 0.644027
120 2 0.771543 0.562758 0.621366
121 2 0.663528 0.0296967 0.75934
122 2 0.651805 0.941892 0.794249
123 2 0.822839 0.615818 0.641492
124 2 0.829472 0.586818 0.622227
125 1 0.816081 0.659782 0.535709
126 2 0.632641 0.000905721 0.772308
127 2 0.799053 0.624697 0.611619
128 2 0.288851 0.918751 0.0620142
129 1 0.99324 0.0224372 0.280936
130 2 0.85211 0.358856 0.277985
131 2 0.520534 0.704168 0.74781
132 2 0.162333 0.0136958 0.400017
133 2 0.832751 0.627004 0.625864
134 2 0.56103 0.657437 0.112536
135 2 0.649434 0.0128278 0.78175
136 2 0.336293 0.704154 0.763146
137 1 0.678256 0.0155847 0.257241
138 2 0.642793 0.961608 0.810074
139 2 0.628342 0.0266166 0.752895
140 1 0.751457 0.651888 0.526427
141 2 0.710096 0.100391 0.841728
142 2 0.265952 0.738214 0.427648
143 2 0.968436 0.240792 0.0940954
144 2 0.00955571 0.462422 0.933494
145 2 0.340765 0.0954149 0.932204
146 2 0.119334 0.88657 0.272237
147 1 0.645227 0.939753 0.664507
148 1 0.897466 0.597472 0.584045
149 2 0.892659 0.10963 0.962555
150 1 0.879775 0.594453 0.643684
151 2 0.599078 0.0482287 0.0530712
152 2 0.140788 0.530084 0.449708
153 1 0.811929 0.664525 0.629922
154 1 0.186463 0.261136 0.775457
155 2 0.734026 0.46018 0.92227
156 2 0.776622 0.272328 0.0545567
157 2 0.244325 0.0793729 0.844431
158 2 0.476795 0.340087 0.946017
159 2 0.649522 0.0386362 0.743667
160 2 0.648036 0.997264 0.762845
161 2 0.63768 0.998255 0.738796
162 2 0.628352 0.0449271 0.732468
163 2 0.64856 0.0600758 0.801892
164 2 0.62276 0.823522 0.422108
165 2 0.773773 0.607088 0.629097
166 2 0.115366 0.818596 0.172966
167 2 0.877351 0.23186 0.722453
168 2 0.643211 0.990343 0.807308
169 2 0.474552 0.734862 0.237705
170 2 0.389402 0.606497 0.983546
171 2 0.105246 0.473548 0.733503
172 2 0.125187 0.305157 0.788877
173 1 0.790781 0.587433 0.694144
174 2 0.161635 0.96508 0.193544
175 2 0.448573 0.950699 0.122594
176 2 0.75706 0.904212 0.944807
177 1 0.792643 0.303049 0.544986
178 2 0.788648 0.167248 0.776783
179 2 0.391245 0.202592 0.400259
180 2 0.766278 0.592776 0.573238
181 2 0.72145 0.948299 0.764176
182 2 0.146208 0.793981 0.402742
183 2 0.144423 0.332102 0.368677
184 2 0.394986 0.913849 0.542725
185 2 0.827192 0.603624 0.618332
186 2 0.719002 0.351886 0.279158
187 2 0.117655 0.572338 0.809262
188 1 0.703563 0.0674569 0.800227
189 2 0.621574 0.0248429 0.80202
190 2 0.611007 0.476699 0.301615
191 2 0.0259939 0.844252 0.718764
192 2 0.595515 0.0372806 0.777321
193 2 0.617072 0.0464322 0.78022
194 2 0.212387 0.662067 0.0999991
195 2 0.681829 0.992912 0.81441
196 2 0.601725 0.992244 0.795014
197 2 0.742212 0.0410758 0.84882
198 2 0.211193 0.042612 0.206626
199 2 0.220926 0.269897 0.0765932
200 1 0.731682 0.638382 0.616231
201 2 0.336252 0.261555 0.072011
202 2 0.301613 0.833513 0.849634
203 2 0.657431 0.0556525 0.825974
204 2 0.0327035 0.741653 0.40981
205 2 0.685029 0.985421 0.792228
206 2 0.612828 0.222431 0.370638
207 2 0.78299 0.34775 0.677764
208 2 0.278236 0.240322 0.366346
209 2 0.800038 0.553113 0.563181
210 2 0.329197 0.209696 0.535055
211 2 0.353923 0.698181 0.0944521
212 1 0.664205 0.967975 0.846133
213 2 0.783544 0.623552 0.57346
214 2 0.785003 0.579116 0.559487
215 2 0.787518 0.591112 0.582465
216 2 0.19627 0.579275 0.0404361
217 2 0.579631 0.00682415 0.52023
218 2 0.859908 0.609763 0.437099
219 2 0.615671 0.0366403 0.816623
220 2 0.874497 0.0739329 0.318622
221 2 0.750937 0.734018 0.550257
222 2 0.308109 0.428728 0.357651
223 2 0.0703438 0.364268 0.437758
224 2 0.625611 0.0403272 0.767611
225 1 0.440269 0.662053 0.480897
226 2 0.639536 0.00690675 0.818097
227 2 0.733846 0.823221 0.365324
228 2 0.769788 0.583425 0.518146
229 2 0.835034 0.103681 0.628647
230 1 0.368038 0.368291 0.891243
231 2 0.616318 0.03057 0.731274
232 2 0.715727 0.495039 0.460774
233 1 0.781966 0.733397 0.19167
234 2 0.770943 0.568977 0.642097
235 2 0.780105 0.576126 0.613069
236 2 0.256392 0.825224 0.992215
237 2 0.169788 0.902259 0.531105
238 1 0.982404 0.435622 0.454347
239 1 0.707384 0.620861 0.374125
240 2 0.780854 0.636738 0.643827
241 2 0.615282 0.00684654 0.825989
242 1 0.768526 0.672952 0.617808
243 1 0.717768 0.678413 0.582095
244 2 0.811539 0.911909 0.234915
245 2 0.467435 0.574244 0.900041
246 1 0.196396 0.386129 0.453207
247 2 0.173052 0.990239 0.873649
248 2 0.187545 0.0618427 0.119184
249 2 0.531462 0.448045 0.280561
250 2 0.667451 0.00362377 0.773115
251 2 0.623367 0.283551 0.31046
252 2 0.886704 0.1976 0.71227
253 2 0.0208713 0.625097 0.0990815
254 2 0.391994 0.953194 0.283004
255 2 0.611232 0.0582263 0.806155
256 2 0.58259 0.00226279 0.768297
257 2 0.0397141 0.0815889 0.694399
258 2 0.00908567 0.404469 0.480423
259 1 0.0380509 0.546213 0.440024
260 2 0.771837 0.613462 0.590839
261 1 0.666728 0.07638 0.694978
262 2 0.652837 0.242362 0.648066
263 2 0.792855 0.578009 0.620978
264 2 0.436258 0.991378 0.76395
265 1 0.547297 0.834175 0.475571
266 2 0.995045 0.298581 0.749858
267 2 0.643298 0.0518752 0.755748
268 1 0.634128 0.915721 0.818092
269 1 0.315496 0.059776 0.46697
270 2 0.974603 0.588466 0.182148
271 2 0.10381 0.477954 0.299496
272 2 0.181948 0.952637 0.990001
273 1 0.719527 0.607192 0.582368
274 2 0.815054 0.544122 0.586836
275 2 0.487745 0.722129 0.775946
276 2 0.908386 0.44195 0.311207
277 2 0.802944 0.305139 0.671505
278 2 0.677546 0.774462 0.813175
279 2 0.699626 0.0532662 0.839891
280 1 0.798919 0.317472 0.100616
281 2 0.805515 0.570505 0.455985
282 2 0.625434 0.000373864 0.804819
283 2 0.0441575 0.24186 0.695055
284 1 0.595551 0.0761655 0.772182
285 2 0.636453 0.987906 0.787129
286 2 0.627926 0.0177562 0.800361
287 1 0.164761 0.594431 0.232317
288 2 0.617948 0.0213585 0.777311
289 2 0.0336826 0.293502 0.882459
290 2 0.32303 0.582736 0.960405
291 2 0.78235 0.554306 0.64207
292 2 0.203359 0.94278 0.170913
293 2 0.783529 0.576876 0.632175
294 2 0.358847 0.319685 0.471615
295 2 0.810151 0.572705 0.560035
296 2 0.396848 0.71048 0.560474
297 2 0.627127 0.957982 0.76362
298 2 0.777034 0.626566 0.590031
299 1 0.703958 0.971336 0.737921
300 2 0.615706 0.969294 0.806259
301 2 0.379556 0.404411 0.0380014
302 2 0.476923 0.44711 0.557608
303 2 0.642503 0.0393026 0.789427
304 1 0.0197993 0.149534 0.517988
305 2 0.909281 0.216896 0.63895
306 2 0.627434 0.0614783 0.789302
307 2 0.352088 0.823664 0.86437
308 2 0.534075 0.506906 0.480932
309 2 0.0281001 0.583736 0.223673
310 2 0.548699 0.763973 0.658402
311 2 0.755087 0.594382 0.585139
312 2 0.630036 0.960436 0.799554
313 2 0.838031 0.600493 0.568751
314 2 0.054271 0.114028 0.123749
315 2 0.884761 0.941328 0.206935
316 2 0.919927 0.446896 0.803208
317 2 0.591792 0.983946 0.764888
318 2 0.244694 0.884248 0.367023
319 2 0.969939 0.877278 0.653307
320 2 0.804408 0.634683 0.558289
321 2 0.781742 0.558261 0.605825
322 2 0.0144973 0.277504 0.458758
323 2 0.322992 0.362041 0.315139
324 2 0.131821 0.257296 0.835013
325 2 0.758054 0.598644 0.615194
326 2 0.617029 0.965628 0.76061
327 2 0.0746711 0.903035 0.232399
328 2 0.809203 0.613255 0.572886
329 1 0.129255 0.226514 0.132297
330 2 0.793741 0.581754 0.597299
331 2 0.816072 0.615646 0.543793
332 2 0.571118 0.32611 0.334474
333 2 0.239339 0.913118 0.844941
334 2 0.659004 0.993386 0.73786
335 1 0.823798 0.247728 0.747673
336 2 0.693812 0.10796 0.298886
337 2 0.27833 0.836976 0.550963
338 1 0.512195 0.0230673 0.902308
339 2 0.753642 0.564243 0.592358
340 2 0.983808 0.440202 0.708586
341 2 0.605015 0.973794 0.749072
342 2 0.87062 0.81929 0.527012
343 2 0.795382 0.559825 0.617237
344 1 0.776884 0.0759216 0.823335
345 1 0.756741 0.523649 0.56621
346 1 0.537071 0.977284 0.775227
347 1 0.0192498 0.0158628 0.704604
348 2 0.357231 0.776599 0.152606
349 2 0.791795 0.0356774 0.727117
350 2 0.398293 0.386001 0.760708
351 2 0.381592 0.0274846 0.309531
352 2 0.423807 0.848457 0.736107
353 1 0.849627 0.650337 0.582209
354 1 0.773423 0.0926849 0.0270098
355 2 0.471354 0.324052 0.55504
356 2 0.780173 0.558854 0.626412
357 2 0.0112969 0.47674 0.580167
358 2 0.377265 0.474571 0.496282
359 2 0.766733 0.108771 0.685327
360 2 0.663824 0.945623 0.776308
361 1 0.659623 0.058732 0.862103
362 2 0.476873 0.923662 0.0746014
363 1 0.549217 0.0133689 0.749165
364 2 0.601462 0.0317889 0.787126
365 2 0.800372 0.590712 0.589484
366 2 0.773018 0.582315 0.59764
367 1 0.131996 0.619525 0.290257
368 1 0.21562 0.225049 0.129624
369 2 0.100031 0.262612 0.568633
370 2 0.450969 0.372108 0.402673
371 2 0.77498 0.595923 0.603173
372 1 0.495881 0.0822283 0.294754
373 2 0.188826 0.963983 0.243163
374 2 0.409359 0.499838 0.749567
375 2 0.643226 0.976812 0.765358
376 2 0.345815 0.359168 0.470708
377 2 0.522691 0.181523 0.401556
378 2 0.056179 0.809375 0.99047
379 2 0.913264 0.0142255 0.550043
380 2 0.682188 0.0271611 0.791401
381 2 0.901478 0.176138 0.605695
382 2 0.283902 0.00825712 0.193815
383 2 0.945095 0.388187 0.394659
384 1 0.114851 0.554917 0.944641
385 2 0.910988 0.146292 0.92435
386 2 0.216634 0.446386 0.802419
387 1 0.0816828 0.596644 0.678585
388 2 0.629626 0.016957 0.726567
389 2 0.749268 0.610037 0.612513
390 2 0.304293 0.404464 0.852973
391 2 0.599858 0.360149 0.175462
392 1 0.828503 0.577219 0.681462
393 2 0.470678 0.262983 0.726438
394 2 0.540015 0.0812298 0.836145
395 2 0.65982 0.0180159 0.774186
396 2 0.613508 0.997487 0.795317
397 2 0.805628 0.589777 0.605511
398 1 0.00333991 0.997623 0.225035
399 1 0.794746 0.657212 0.689363
400 1 0.785026 0.272375 0.140777
401 2 0.656416 0.0127599 0.746656
402 2 0.785942 0.240016 0.518493
403 2 0.245864 0.596459 0.853431
404 2 0.93377 0.895874 0.164892
405 2 0.11427 0.552791 0.28654
406 2 0.57354 0.996484 0.273988
407 2 0.765264 0.348579 0.627692
408 2 0.82253 0.607869 0.583014
409 2 0.684851 0.0153596 0.764813
410 2 0.460672 0.000692851 0.0131247
411 2 0.387392 0.568126 0.532102
412 2 0.340422 0.747582 0.284828
413 2 0.781412 0.602099 0.544802
414 2 0.347753 0.446763 0.426197
415 2 0.564878 0.0502755 0.80091
416 1 0.792311 0.617137 0.509908
417 2 0.764226 0.469074 0.524521
418 2 0.285028 0.284601 0.77464
419 2 0.00861938 0.610122 0.859434
420 2 0.89411 0.417813 0.706596
421 1 0.433636 0.35073 0.435837
422 1 0.61336 0.986627 0.865019
423 2 0.305534 0.665184 0.6986
424 2 0.640617 0.981886 0.744493
425 1 0.089957 0.32412 0.413348
426 2 0.0834975 0.25259 0.342722
427 2 0.0255059 0.217477 0.266073
428 2 0.267643 0.139739 0.03456
429 2 0.646867 0.0265711 0.76844
430 2 0.782518 0.531181 0.578734
431 2 0.806669 0.547428 0.598976
432 1 0.3249 0.568703 0.265853
433 2 0.669558 0.700151 0.76026
434 1 0.946259 0.864711 0.00779561
435 2 0.127822 0.15689 0.623064
436 2 0.851069 0.593742 0.584718
437 2 0.148262 0.709325 0.0651776
438 2 0.385595 0.79813 0.341533
439 1 0.329462 0.762831 0.119309
440 2 0.794383 0.520505 0.711469
441 1 0.176556 0.693383 0.0816526
442 1 0.71794 0.561815 0.612417
443 1 0.254015 0.530493 0.26365
444 2 0.806097 0.602435 0.593534
445 2 0.0325772 0.934111 0.855441
446 2 0.496121 0.509601 0.507754
447 2 0.717117 0.425605 0.893863
448 2 0.496045 0.485964 0.159147
449 1 0.296545 0.386996 0.15687
450 2 0.012956 0.567159 0.679371
451 2 0.594103 0.973581 0.783095
452 2 0.296927 0.193751 0.550496
453 1 0.57961 0.276755 0.57878
454 2 0.814818 0.584212 0.605354
455 2 0.95565 0.0448164 0.590873
456 2 0.700402 0.614946 0.933045
457 2 0.589922 0.0268585 0.755354
458 2 0.671231 0.962929 0.76051
459 2 0.243043 0.0957385 0.401088
460 2 0.806603 0.617396 0.651547
461 2 0.422198 0.602306 0.0324485
462 2 0.781613 0.590541 0.581775
463 1 0.188393 0.673827 0.921362
464 2 0.819762 0.317292 0.955061
465 2 0.483615 0.925584 0.104232
466 2 0.330701 0.412234 0.347227
467 1 0.222859 0.638577 0.867091
468 2 0.636213 0.593165 0.226971
469 2 0.802855 0.607376 0.671012
470 2 0.067355 0.0118272 0.543098
471 2 0.802363 0.60085 0.603701
472 2 0.788556 0.63772 0.63832
473 1 0.819179 0.506929 0.577597
474 1 0.22293 0.356811 0.267022
475 1 0.186435 0.676594 0.0292083
476 2 0.57045 0.234213 0.838502
477 2 0.606229 0.00648333 0.778557
478 2 0.365991 0.0274019 0.929499
479 2 0.210895 0.145505 0.403651
480 2 0.605512 0.961555 0.748812
481 2 0.814918 0.593904 0.640118
482 2 0.742182 0.128559 0.285712
483 2 0.792735 0.615584 0.577912
484 1 0.331298 0.929238 0.918531
485 1 0.237261 0.176894 0.336875
486 2 0.809701 0.587775 0.545633
487 2 0.252475 0.600491 0.219666
488 2 0.822367 0.601996 0.637389
489 2 0.0952905 0.516616 0.531658
490 2 0.515769 0.940503 0.371641
491 2 0.853952 0.610726 0.599631
492 2 0.81048 0.636556 0.63767
493 2 0.835462 0.617013 0.602944
494 2 0.639595 0.00976059 0.736685
495 2 0.600952 0.0189421 0.776998
496 2 0.81689 0.62975 0.575227
497 2 0.13962 0.484478 0.493202
498 1 0.215622 0.113358 0.876739
499 2 0.145671 0.73175 0.296047
500 2 0.491375 0.00857057 0.499537
501 1 0.792159 0.520639 0.541461
502 2 0.718717 0.429541 0.355207
503 2 0.799855 0.564618 0.581742
504 1 0.648226 0.908031 0.775812
505 2 0.447147 0.545167 0.976082
506 2 0.926549 0.966761 0.612027
507 2 0.1618 0.413809 0.915081
508 2 0.600856 0.0135824 0.801388
509 1 0.584571 0.0487697 0.833209
510 2 0.833254 0.560016 0.595762
511 2 0.576324 0.0412538 0.775094
512 2 0.81748 0.591669 0.562623
513 1 0.464794 0.0603353 0.923946
514 2 0.631489 0.945484 0.746342
515 1 0.667335 0.979602 0.700058
516 2 0.605031 0.965407 0.773941
517 1 0.85286 0.57567 0.548081
518 2 0.746609 0.131139 0.393925
519 2 0.627597 0.0403277 0.795837
520 2 0.684448 0.992216 0.837555
521 2 0.135366 0.600982 0.166732
522 2 0.0817819 0.903355 0.481374
523 2 0.799968 0.58462 0.653121
524 2 0.378676 0.440626 0.728958
525 2 0.440726 0.159839 0.314362
526 2 0.429117 0.0574631 0.034724
527 2 0.767909 0.56986 0.608236
528 1 0.454668 0.605274 0.990439
529 2 0.761662 0.560463 0.578152
530 2 0.757453 0.113308 0.363642
531 2 0.648433 0.987926 0.724076
532 2 0.653763 0.951675 0.750044
533 2 0.278711 0.704801 0.456353
534 1 0.634487 0.0920194 0.823438
535 2 0.750302 0.577668 0.790299
536 1 0.767911 0.516512 0.6302
537 1 0.568122 0.958479 0.807738
538 2 0.28364 0.795779 0.12946
539 2 0.787618 0.539659 0.608735
540 2 0.489442 0.23051 0.0348855
541 1 0.849891 0.53556 0.556526
542 2 0.628936 0.968403 0.790607
543 1 0.440997 0.144953 0.762288
544 1 0.808225 0.682927 0.573349
545 2 0.804346 0.557397 0.62851
546 2 0.205591 0.163874 0.832538
547 2 0.742 0.276832 0.0562407
548 2 0.628716 0.98951 0.822408
549 2 0.161583 0.921544 0.862813
550 2 0.69111 0.991994 0.402578
551 1 0.872186 0.546197 0.602205
552 2 0.441656 0.391565 0.86664
553 2 0.82673 0.562771 0.574726
554 2 0.626405 0.997162 0.794886
555 1 0.387772 0.707756 0.00708934
556 2 0.437881 0.910133 0.185814
557 2 0.836761 0.512199 0.514013
558 1 0.772176 0.553879 0.7481
559 2 0.597044 0.43611 0.51624
560 2 0.145804 0.979889 0.229638
561 2 0.518081 0.800932 0.722541
562 1 0.799149 0.625475 0.435824
563 2 0.808518 0.634342 0.605236
564 2 0.409431 0.940927 0.750074
565 2 0.76305 0.603176 0.548592
566 2 0.44599 0.734318 0.145892
567 2 0.781451 0.633551 0.61285
568 2 0.439021 0.853145 0.0723241
569 1 0.689832 0.153525 0.277356
570 2 0.985129 0.51191 0.69967
571 2 0.452842 0.846476 0.167861
572 2 0.132529 0.109105 0.192215
573 2 0.776578 0.562544 0.589261
574 2 0.050522 0.116661 0.547264
575 1 0.884712 0.678589 0.696018
576 2 0.958448 0.841274 0.878128
577 2 0.659442 0.979911 0.793303
578 1 0.705583 0.0500758 0.756788
579 2 0.606809 0.0237672 0.763129
580 1 0.0579702 0.847124 0.841797
581 2 0.211037 0.866272 0.7622
582 2 0.751619 0.997362 0.571592
583 1 0.0580359 0.539206 0.855664
584 2 0.0385889 0.150978 0.0147537
585 1 0.797924 0.532688 0.659293
586 2 0.827276 0.582066 0.609198
587 2 0.659685 0.0234281 0.792808
588 2 0.593782 0.12978 0.486779
589 1 0.537929 0.056727 0.762978
590 1 0.263428 0.402449 0.628659
591 1 0.582639 0.0354759 0.702844
592 2 0.473447 0.34112 0.675274
593 2 0.637986 0.973508 0.776975
594 1 0.261626 0.944127 0.947482
595 1 0.949298 0.589255 0.121608
596 2 0.157667 0.196959 0.663022
597 1 0.126893 0.51645 0.262819
598 2 0.588222 0.957376 0.228746
599 2 0.752835 0.573284 0.622459
600 2 0.313424 0.7041 0.293924
601 2 0.837801 0.599211 0.598805
602 1 0.433043 0.454458 0.538415
603 2 0.279275 0.961973 0.577802
604 1 0.51491 0.0831359 0.0415341
605 2 0.740441 0.0295583 0.231886
606 2 0.470915 0.794493 0.254231
607 1 0.844298 0.55126 0.652952
608 2 0.689616 0.26809 0.896592
609 2 0.274093 0.372835 0.362333
610 2 0.818965 0.617881 0.612453
611 2 0.657776 0.956992 0.793268
612 1 0.187902 0.262617 0.521239
613 2 0.13083 0.557133 0.696373
614 1 0.42109 0.760028 0.80308
615 2 0.609686 0.0459967 0.315175
616 1 0.615491 0.956236 0.836818
617 2 0.661518 0.0324938 0.802956
618 2 0.34508 0.394889 0.614842
619 2 0.568377 0.806176 0.828916
620 2 0.251044 0.838939 0.587536
621 2 0.762984 0.632432 0.560565
622 2 0.781046 0.596262 0.568209
623 1 0.347881 0.45923 0.156625
624 2 0.0102193 0.370307 0.391114
625 2 0.442769 0.23428 0.0422944
626 2 0.553354 0.302552 0.0942246
627 2 0.630571 0.982588 0.798544
628 2 0.152759 0.608429 0.913407
629 2 0.269333 0.302219 0.447524
630 1 0.0789167 0.541989 0.675273
631 2 0.182792 0.542676 0.599082
632 2 0.811288 0.576261 0.583159
633 2 0.411847 0.849814 0.843913
634 2 0.0835301 0.590182 0.273919
635 2 0.485415 0.401407 0.627181
636 2 0.619232 0.985965 0.781766
637 2 0.659193 0.0256396 0.739704
638 1 0.973791 0.270289 0.404777
639 2 0.647211 0.972258 0.798274
640 2 0.399814 0.311053 0.490144
641 2 0.794812 0.580019 0.663256
642 2 0.106763 0.839102 0.891519
643 2 0.902931 0.819112 0.457842
644 2 0.955236 0.159702 0.684268
645 1 0.91794 0.268061 0.349214
646 2 0.686494 0.965468 0.7843
647 1 0.0964521 0.557365 0.24666
648 2 0.26855 0.413997 0.721517
649 2 0.811016 0.589061 0.621567
650 2 0.0113008 0.294195 0.0933578
651 2 0.551185 0.516597 0.295426
652 2 0.712284 0.883696 0.295501
653 2 0.799432 0.573035 0.605562
654 1 0.876716 0.649558 0.554712
655 2 0.493729 0.725372 0.799011
656 2 0.639114 0.0379396 0.769067
657 2 0.194623 0.627728 0.0802173
658 2 0.227067 0.563357 0.679176
659 2 0.633941 0.0310233 0.819951
660 2 0.258295 0.884414 0.031544
661 1 0.239775 0.311881 0.163839
662 2 0.782362 0.375382 0.42144
663 2 0.903824 0.0224082 0.425374
664 1 0.215627 0.0226043 0.780326
665 2 0.101612 0.963556 0.416377
666 2 0.850692 0.0385964 0.549118
667 2 0.472162 0.866064 0.103581
668 2 0.65227 0.993675 0.786198
669 2 0.213824 0.0750209 0.431105
670 1 0.0287488 0.638955 0.331031
671 2 0.657721 0.304967 0.464947
672 1 0.704067 0.599843 0.542117
673 2 0.146294 0.123166 0.804754
674 2 0.114888 0.887177 0.780612
675 2 0.164944 0.801751 0.615239
676 1 0.308306 0.88966 0.726479
677 2 0.665282 0.0446287 0.746086
678 2 0.665661 0.000276219 0.806488
679 1 0.351436 0.903774 0.387288
680 2 0.897589 0.503654 0.805419
681 1 0.514966 0.781429 0.944562
682 1 0.219617 0.355686 0.741334
683 2 0.6539 0.128883 0.11759
684 2 0.121731 0.488693 0.471418
685 2 0.50542 0.558271 0.0176203
686 2 0.430919 0.586329 0.922914
687 1 0.673519 0.923076 0.74484
688 2 0.129204 0.603553 0.895451
689 2 0.807918 0.645301 0.596926
690 2 0.767309 0.54503 0.603564
691 2 0.272866 0.0102784 0.767466
692 1 0.617286 0.0913522 0.714472
693 2 0.449977 0.526995 0.99504
694 2 0.344719 0.847012 0.565412
695 1 0.505223 0.184835 0.0117889
696 2 0.324883 0.753195 0.3348
697 2 0.130861 0.303742 0.0199005
698 2 0.785063 0.607906 0.596132
699 2 0.623736 0.434187 0.454134
700 1 0.826908 0.138456 0.742196
701 2 0.784141 0.614457 0.60665
702 2 0.654362 0.058481 0.760814
703 2 0.0583036 0.300929 0.588226
704 2 0.105809 0.331042 0.200708
705 2 0.853216 0.622542 0.560697
706 2 0.834907 0.587987 0.583207
707 2 0.2416 0.78735 0.551368
708 1 0.831282 0.540548 0.461449
709 2 0.174203 0.695609 0.224588
710 2 0.708348 0.46231 0.737267
711 2 0.550511 0.236654 0.120155
712 1 0.13226 0.770294 0.99129
713 2 0.789298 0.598192 0.654313
714 1 0.748212 0.551204 0.52651
715 2 0.683757 0.99195 0.764815
716 1 0.92949 0.772037 0.0283717
717 2 0.629746 0.98515 0.75877
718 2 0.830782 0.76473 0.203302
719 2 0.817561 0.624642 0.601141
720 2 0.297257 0.362627 0.422573
721 2 0.740162 0.262767 0.166633
722 1 0.407098 0.914256 0.103496
723 2 0.53486 0.0330705 0.528442
724 2 0.606023 0.0102339 0.812717
725 2 0.108068 0.532945 0.655435
726 2 0.804898 0.547363 0.578803
727 1 0.197309 0.100666 0.75951
728 1 0.370535 0.0483707 0.260799
729 1 0.606533 0.975061 0.701662
730 1 0.532198 0.0281547 0.830363
731 2 0.0820059 0.633491 0.0550868
732 1 0.415491 0.731408 0.343025
733 2 0.645821 0.216037 0.253242
734 2 0.698527 0.517314 0.587771
735 2 0.391748 0.88375 0.324658
736 1 0.571627 0.960868 0.739482
737 2 0.143455 0.952373 0.856132
738 2 0.840372 0.316426 0.156241
739 2 0.673635 0.985018 0.734783
740 2 0.0749945 0.5289 0.214057
741 2 0.66668 0.0113338 0.786167
742 1 0.669097 0.00719804 0.876056
743 2 0.852061 0.588386 0.626168
744 2 0.455407 0.501056 0.628493
745 2 0.67813 0.930522 0.804528
746 1 0.971239 0.300995 0.784199
747 2 0.984132 0.924397 0.261577
748 2 0.329164 0.4836 0.397643
749 2 0.846809 0.600529 0.63762
750 2 0.469231 0.781758 0.336034
751 2 0.641265 0.998714 0.79074
752 2 0.284342 0.782397 0.356807
753 2 0.165519 0.543669 0.678443
754 2 0.392011 0.423965 0.172438
755 2 0.265936 0.543305 0.675859
756 2 0.10201 0.658852 0.0694977
757 2 0.817571 0.565181 0.638408
758 2 0.931749 0.103604 0.30212
759 2 0.84953 0.367735 0.519457
760 1 0.782615 0.304559 0.730715
761 2 0.647008 0.99727 0.810686
762 2 0.641925 0.992167 0.732033
763 1 0.486419 0.0589867 0.356941
764 2 0.148079 0.0424382 0.47511
765 2 0.111482 0.263747 0.142533
766 2 0.529062 0.556117 0.72849
767 2 0.0190558 0.202022 0.58503
768 2 0.233431 0.599541 0.387548
769 2 0.8666 0.580393 0.588614
770 2 0.777242 0.618989 0.549216
771 2 0.0493482 0.192253 0.0595931
772 2 0.790676 0.274983 0.856031
773 1 0.851879 0.65847 0.637582
774 2 0.619977 0.168303 0.129688
775 2 0.195644 0.151236 0.922014
776 2 0.779505 0.131067 0.730439
777 1 0.702998 0.95679 0.809717
778 2 0.76779 0.614612 0.572003
779 2 0.482357 0.101688 0.514818
780 1 0.763091 0.665657 0.574465
781 2 0.579637 0.998184 0.733893
782 2 0.608413 0.338812 0.143627
783 1 0.698862 0.0199996 0.83037
784 2 0.83128 0.630388 0.575423
785 2 0.0304548 0.0471537 0.276772
786 1 0.843916 0.623481 0.663431
787 2 0.704407 0.981661 0.165812
788 2 0.320646 0.736914 0.29238
789 2 0.214038 0.422114 0.98351
790 2 0.442528 0.0989107 0.933191
791 1 0.406516 0.816628 0.665733
792 2 0.507754 0.364835 0.388438
793 2 0.0272622 0.970146 0.299764
794 2 0.32664 0.93061 0.597989
795 2 0.548875 0.0401819 0.778366
796 2 0.388265 0.343036 0.0590082
797 2 0.832546 0.636077 0.60377
798 2 0.326555 0.317378 0.458068
799 2 0.658641 0.967456 0.7845
800 2 0.353696 0.353164 0.997236
801 2 0.603908 0.884587 0.0148822
802 2 0.958464 0.763745 0.24334
803 2 0.282526 0.594949 0.896718
804 2 0.339427 0.463732 0.995
805 2 0.717161 0.803448 0.154365
806 1 0.329356 0.897002 0.0400594
807 2 0.923107 0.804902 0.899662
808 2 0.131551 0.0398781 0.135418
809 1 0.876752 0.628114 0.619153
810 2 0.149466 0.480014 0.132575
811 2 0.2308 0.564157 0.0447443
812 2 0.850788 0.579573 0.610448
813 1 0.193118 0.288772 0.11912
814 2 0.257926 0.00903805 0.573611
815 2 0.81593 0.605398 0.604245
816 1 0.718139 0.553035 0.563607
817 1 0.586514 0.988931 0.829057
818 2 0.196601 0.638217 0.041393
819 1 0.813336 0.555452 0.516408
820 1 0.651692 0.0880316 0.74371
821 2 0.611078 0.976964 0.799458
822 2 0.67705 0.997923 0.793969
823 1 0.820297 0.830177 0.299974
824 2 0.657614 0.867945 0.377605
825 2 0.78566 0.561984 0.578246
826 2 0.659641 0.484555 0.98048
827 1 0.107395 0.726863 0.318985
828 2 0.740514 0.830456 0.200872
829 2 0.750465 0.582998 0.566316
830 2 0.670345 0.449339 0.481347
831 1 0.625227 0.0358424 0.84342
832 2 0.293169 0.854296 0.519921
833 1 0.460716 0.691664 0.209419
834 2 0.806577 0.607949 0.625137
835 2 0.284603 0.233219 0.427109
836 2 0.784604 0.56613 0.551135
837 2 0.501109 0.649515 0.168535
838 2 0.45001 0.413991 0.979947
839 2 0.445657 0.106979 0.104913
840 2 0.625325 0.0112109 0.763937
841 2 0.127833 0.423454 0.889077
842 2 0.37457 0.656272 0.0566874
843 2 0.699243 0.369127 0.458263
844 2 0.697628 0.631792 0.655777
845 2 0.840908 0.571709 0.578324
846 2 0.7637 0.558245 0.644465
847 2 0.657076 0.417662 0.197864
848 2 0.410155 0.545311 0.989272
849 1 0.801278 0.35739 0.253056
850 2 0.924221 0.148882 0.958178
851 2 0.67383 0.988355 0.777212
852 2 0.617829 0.108044 0.774696
853 1 0.510244 0.446001 0.026506
854 2 0.797184 0.290757 0.257055
855 2 0.972555 0.914469 0.107998
856 2 0.911425 0.0749849 0.466211
857 2 0.963856 0.520932 0.885029
858 2 0.211805 0.4915 0.28489
859 2 0.788736 0.650621 0.61018
860 2 0.556296 0.188297 0.133403
861 2 0.711754 0.516381 0.206583
862 2 0.115529 0.690822 0.718696
863 2 0.586304 0.0193366 0.800934
864 2 0.661844 0.00294687 0.827931
865 2 0.827014 0.369886 0.711381
866 2 0.785618 0.560612 0.589711
867 2 0.941726 0.172909 0.943841
868 2 0.533737 0.319398 0.569921
869 2 0.158448 0.459974 0.347393
870 2 0.821965 0.604442 0.56575
871 2 0.661057 0.950922 0.822723
872 2 0.67607 0.00547794 0.751249
873 2 0.313823 0.957118 0.780343
874 2 0.770975 0.592226 0.640981
875 2 0.116835 0.57554 0.750113
876 2 0.0873161 0.501108 0.782705
877 2 0.660991 0.957349 0.737263
878 2 0.0116738 0.0873303 0.132278
879 2 0.679835 0.251071 0.753476
880 2 0.440798 0.861132 0.798052
881 2 0.826769 0.224185 0.00283192
882 1 0.0389238 0.551775 0.0992803
883 1 0.944717 0.348409 0.688524
884 2 0.992044 0.714617 0.121908
885 2 0.315551 0.397722 0.559422
886 2 0.798124 0.628787 0.599385
887 1 0.399789 0.187499 0.433686
888 2 0.377711 0.0362566 0.789396
889 2 0.206365 0.436493 0.943509
890 1 0.754021 0.59246 0.679604
891 2 0.645978 0.0636859 0.303011
892 2 0.798427 0.616168 0.643589
893 2 0.363825 0.0575123 0.0965406
894 2 0.607566 0.991795 0.772517
895 1 0.159279 0.657529 0.664581
896 2 0.0996737 0.333025 0.143423
897 2 0.0870167 0.377867 0.32076
898 2 0.449813 0.601362 0.363099
899 2 0.609412 0.990633 0.244096
900 2 0.612603 0.00329307 0.753837
901 2 0.616059 0.979769 0.73097
902 2 0.781525 0.595916 0.619942