ITEM: TIMESTEP
29400
ITEM: NUMBER OF ATOMS
1000
ITEM: BOX BOUNDS xy xz yz pp pp pp
0.0000000000000000e+00 1.3572088000000001e+01 0.0000000000000000e+00
0.0000000000000000e+00 1.3572088000000001e+01 0.0000000000000000e+00
0.0000000000000000e+00 1.3572088000000001e+01 0.0000000000000000e+00
ITEM: ATOMS id type xs ys zs
1 2 0.276647 0.501276 0.621746
2 2 0.688732 0.100922 0.522141
3 1 0.0195156 0.323154 0.521247
4 2 0.937879 0.986043 0.43089
5 2 0.134205 0.867486 0.526728
6 1 0.753645 0.769215 0.205651
7 2 0.509249 0.604184 0.928277
8 2 0.702657 0.78418 0.0706375
9 2 0.414966 0.371966 0.271001
10 2 0.499856 0.521062 0.370284
11 2 0.22943 0.996285 0.376917
12 2 0.191803 0.772902 0.608267
13 2 1.00225 0.703268 0.464809
14 1 0.17541 0.171465 0.470585
15 2 0.30216 0.812047 0.490805
16 2 0.266332 0.627785 0.448561
17 1 0.837631 0.464566 0.0710903
18 2 0.157211 0.951825 0.468637
19 2 0.359598 0.804663 0.430037
20 2 0.342231 0.716335 0.578398
21 2 0.976662 0.126169 0.252402
22 2 0.443625 0.746342 0.134099
23 2 0.254403 0.0554976 0.439613
24 2 0.513204 0.67813 0.464727
25 1 0.454586 0.630542 0.928981
26 2 0.882605 0.0960575 0.771234
27 2 0.427719 0.28754 0.443765
28 2 0.478518 0.0432791 0.650112
29 2 0.318538 0.663622 0.624397
30 2 0.549338 0.398832 0.275444
31 1 0.167396 0.652684 0.881089
32 1 0.855771 0.74938 0.314416
33 1 0.446234 0.424361 0.672283
34 2 0.330322 0.698767 0.274824
35 2 0.712091 0.390165 0.829258
36 1 0.547484 0.0977318 0.78453
37 2 0.382673 0.945837 0.571962
38 2 0.198015 0.294158 0.621897
39 2 0.312243 0.427794 0.618102
40 2 0.124023 0.0334587 0.315782
41 2 0.935595 0.270203 0.789734
42 2 0.775031 0.240214 0.678128
43 2 0.230961 0.854648 0.470233
44 2 0.529226 0.379485 0.594373
45 2 0.754896 0.351785 0.214693
46 1 0.727991 0.0451517 0.983613
47 2 0.339886 0.444768 0.800019
48 2 0.392717 0.315351 0.162065
49 2 0.491512 0.711911 0.430594
50 2 0.312201 0.509131 0.371773
51 2 0.159348 0.0211555 0.540483
52 2 0.356397 0.643213 0.394091
53 2 0.460697 0.334229 0.302782
54 2 0.395396 0.178869 0.39945
55 1 0.290745 0.681656 0.605378
56 1 0.49755 0.196747 0.727942
57 2 0.520637 0.0123155 0.541083
58 2 0.675969 0.347296 0.759926
59 2 0.776073 0.690093 0.696542
60 2 0.72246 0.0394306 0.17481
61 2 0.666238 0.065548 0.840076
62 2 0.822424 0.717207 0.713873
63 2 0.379769 0.657171 0.745732
64 2 0.948715 0.845031 0.386932
65 2 0.0741771 0.192481 0.105948
66 1 0.384035 0.499263 0.217912
67 2 0.389238 0.316275 0.544736
68 2 0.754123 0.311864 0.978254
69 1 0.909465 0.855265 0.547965
70 2 0.324452 0.483227 0.032456
71 1 0.396297 0.989373 0.931861
72 2 0.511036 0.0444554 0.628015
73 2 0.374954 0.703127 0.562959
74 2 0.494807 0.445599 0.714589
75 2 0.255761 0.98437 0.934783
76 2 0.497806 0.670417 0.620939
77 1 0.617571 0.270078 0.051407
78 2 0.354272 0.317094 0.679763
79 2 0.888851 0.200702 0.834259
80 2 0.799774 0.5102 0.0614098
81 2 0.829552 0.00211615 0.126197
82 2 0.878095 0.0606419 0.0737118
83 2 0.00234453 0.277705 0.921122
84 2 0.659596 0.434511 0.615182
85 1 0.655407 0.496993 0.682241
86 2 0.494192 0.469107 0.361784
87 2 0.949993 0.732016 0.909076
88 2 0.751374 0.822517 0.382498
89 2 0.435316 0.318939 0.612188
90 2 0.329625 0.080967 0.0961027
91 2 0.872385 0.967535 0.579184
92 2 0.0658548 0.0465703 0.2525
93 2 0.481048 0.975906 0.719429
94 1 0.113026 0.570191 0.595639
95 2 0.98233 0.0223921 0.164646
96 2 0.904603 0.299843 0.498699
97 2 0.489961 0.335614 0.194839
98 2 0.374597 0.41777 0.458435
99 2 0.669082 0.325897 0.0427255
100 2 0.306891 0.489947 0.603554
101 1 0.693209 0.684006 0.28409
102 2 0.402961 0.627122 0.718446
103 2 0.460229 0.857697 0.666267
104 2 0.894813 0.773526 0.14731
105 2 0.356925 0.262466 0.285976
106 2 0.948815 0.213575 0.728391
107 2 0.746583 0.675762 0.257833
108 2 0.799452 0.205633 0.569461
109 2 0.213148 0.988136 0.571595
110 2 0.154469 0.142132 0.884356
111 2 0.0491447 0.280085 0.0957823
112 1 0.459086 0.348042 0.784113
113 1 0.0450778 0.277552 0.162745
114 2 0.536852 0.206275 0.557733
115 2 0.750815 0.789692 0.907622
116 2 0.739444 0.725172 0.748282
117 2 0.0391241 0.998769 0.892514
118 2 0.445145 0.449668 0.538927
119 2 0.477999 0.712079 0.0279168
120 2 0.886011 0.0450588 0.773078
121 2 0.418869 0.168039 0.326847
122 2 0.506137 0.574052 0.82
123 2 0.828055 0.280208 0.0471353
124 2 0.257914 0.400305 0.310891
125 1 0.493765 0.343065 0.992081
126 2 0.497272 0.747346 0.830394
127 2 0.55796 0.569194 0.706099
128 2 0.110875 0.966819 0.573286
129 1 0.189409 0.564427 0.274808
130 2 0.655992 0.111959 0.364267
131 2 0.158515 0.134347 0.450065
132 2 0.447428 0.456253 0.2849
133 2 0.151557 0.724446 0.76713
134 2 0.150453 0.170746 0.797679
135 2 0.922859 0.213537 0.749351
136 2 0.563285 0.625597 0.554494
137 1 0.160612 0.822576 0.284671
138 2 0.0402819 0.88854 0.917656
139 2 0.975496 0.408016 0.741287
140 1 0.411583 0.641011 0.393197
141 2 0.0601291 0.387691 0.829202
142 2 0.651031 0.552884 0.906761
143 2 0.308861 0.140498 0.911881
144 2 0.868345 0.41528 0.840693
145 2 0.832609 0.544397 0.226052
146 2 0.289762 0.768193 0.642278
147 1 0.422026 0.810381 0.10136
148 1 0.492229 0.250004 0.241809
149 2 0.0729237 0.0946716 0.666772
150 1 0.467859 0.079616 0.618263
151 2 0.0240504 0.492607 0.0755346
152 2 0.641019 0.225952 0.0871775
153 1 0.642171 0.653717 0.445912
154 1 0.569957 0.220846 0.674389
155 2 0.040788 0.480773 0.863402
156 2 0.662059 0.549607 0.974687
157 2 0.542871 0.354142 0.699713
158 2 0.0542354 0.390309 0.0926005
159 2 0.779395 0.830177 0.52377
160 2 0.474954 0.666887 0.449794
161 2 0.344478 0.240777 0.339078
162 2 0.962473 0.50723 0.38675
163 2 0.362729 0.947011 0.272543
164 2 0.25856 0.219011 0.781645
165 2 0.112671 0.709794 0.470354
166 2 0.783209 0.865236 0.212989
167 2 0.852391 0.233627 0.482925
168 2 0.00325996 0.672419 0.170819
169 2 0.019664 0.351759 0.0409685
170 2 0.447142 0.9699 0.787617
171 2 0.690377 0.488067 0.192816
172 2 0.665502 0.422305 0.647646
173 1 0.738747 0.54282 0.499892
174 2 0.475008 0.316292 0.189795
175 2 0.875361 0.740979 0.769594
176 2 0.64568 0.975385 0.412667
177 1 0.887875 0.135109 0.25998
178 2 0.236357 0.894269 0.561814
179 2 0.30212 0.999193 0.160072
180 2 0.768875 0.600251 0.706773
181 2 0.745474 0.37247 0.473967
182 2 0.412071 0.0249826 0.93499
183 2 0.977727 0.743707 0.835669
184 2 0.478404 0.363256 0.73237
185 2 0.510881 0.563872 0.376691
186 2 0.764243 0.363973 0.459872
187 2 0.188063 0.487553 0.813501
188 1 0.897661 0.983438 0.862872
189 2 0.57007 0.0351774 0.326359
190 2 0.806237 0.87222 0.441371
191 2 0.348407 0.247543 0.396137
192 2 0.629813 0.872882 0.566905
193 2 0.493685 0.781771 0.914207
194 2 0.452379 0.0149097 0.202535
195 2 0.745046 0.622826 0.296572
196 2 0.840169 0.950768 0.761361
197 2 0.0839025 0.323835 0.0328268
198 2 0.792826 0.141669 0.375667
199 2 0.0313632 0.417588 0.869955
200 1 0.638634 0.163394 0.473017
201 2 0.356458 0.433545 0.597447
202 2 0.556408 0.548439 0.638832
203 2 0.539828 0.626834 0.308489
204 2 0.551352 0.661555 0.281194
205 2 0.981001 0.974632 0.539315
206 2 0.274133 0.813332 0.318026
207 2 0.172278 0.0444098 0.610906
208 2 0.391671 0.352598 0.584114
209 2 0.271801 0.843941 0.872237
210 2 0.816125 0.244273 0.482616
211 2 0.753075 0.896344 0.8868
212 1 0.583525 0.0282404 0.714778
213 2 0.596 0.89899 0.43509
214 2 0.997648 0.241884 0.877375
215 2 0.727239 0.0659662 0.302716
216 2 0.634625 0.902758 0.723544
217 2 0.536275 0.19982 0.189181
218 2 0.745055 0.578147 0.636924
219 2 0.29964 0.805125 0.898389
220 2 0.944572 0.10733 0.254447
221 2 0.844661 0.948291 0.822034
222 2 0.0868771 0.754721 0.196445
223 2 0.346075 0.5229 0.485433
224 2 0.805715 0.166913 0.0701844
225 1 0.629599 0.329844 0.0813667
226 2 0.129959 0.166157 0.569509
227 2 0.613968 0.401715 0.05281
228 2 0.655403 0.598363 0.58301
229 2 0.670312 0.57896 0.475988
230 1 0.183092 0.215869 0.294168
231 2 0.427079 0.44394 0.68535
232 2 0.290594 0.165068 0.924302
233 1 0.0967356 0.0525423 0.539407
234 2 0.376954 0.100108 0.647929
235 2 0.248754 0.960314 0.981821
236 2 0.0602474 0.449424 0.743786
237 2 0.328256 0.535639 0.168486
238 1 0.0696165 0.377529 0.98779
239 1 0.489347 0.640927 0.423649
240 2 0.268521 0.793643 0.550127
241 2 0.484797 0.697893 0.380542
242 1 0.898518 0.504233 0.054594
243 1 0.683377 0.941287 0.624777
244 2 0.862608 0.999941 0.75258
245 2 0.630736 0.928518 0.552918
246 1 0.312432 0.661635 0.665576
247 2 0.391002 0.494071 0.723087
248 2 0.0315884 0.737604 0.25895
249 2 0.692279 0.560706 0.721968
250 2 0.535851 0.687123 0.204093
251 2 0.640729 0.625589 0.0320901
252 2 0.572561 0.526992 0.487666
253 2 0.497853 0.306663 0.255564
254 2 0.314468 0.75978 0.519546
255 2 0.889431 0.895565 0.672163
256 2 0.958051 0.724967 0.976461
257 2 0.222332 0.0258228 0.801636
258 2 0.804041 0.5778 0.896767
259 1 0.517603 0.633737 0.639434
260 2 0.961517 0.0210712 0.844505
261 1 0.972218 0.367521 0.472602
262 2 0.63067 0.584504 0.902758
263 2 0.312665 0.301029 0.165821
264 2 0.213612 0.331473 0.497546
265 1 0.0689088 0.513744 0.393245
266 2 0.485053 0.152922 0.475665
267 2 0.285754 0.260623 0.264967
268 1 0.328355 0.823874 0.479279
269 1 0.396212 0.412232 0.588986
270 2 0.825556 0.52866 0.642154
271 2 0.228911 0.342139 0.429326
272 2 0.131481 0.00692269 0.713551
273 1 0.79122 0.520443 0.67496
274 2 0.0320604 0.0261887 0.382547
275 2 0.534474 0.116565 0.330847
276 2 0.398888 0.0534031 0.195894
277 2 0.163857 0.628214 0.409855
278 2 0.523165 0.345716 0.958077
279 2 0.299735 0.472381 0.731961
280 1 0.430929 0.17962 0.498802
281 2 0.356063 0.212204 0.29571
282 2 0.652776 0.523509 0.256101
283 2 0.420261 0.300947 0.740143
284 1 0.00454588 0.266528 0.43413
285 2 0.744782 0.365281 0.836484
286 2 0.22075 0.393687 0.211384
287 1 0.809236 0.394194 0.557143
288 2 0.277743 0.024808 0.456018
289 2 0.335911 0.781029 0.550448
290 2 0.324661 0.418701 0.46266
291 2 0.0283926 0.564581 0.73136
292 2 0.669048 0.526051 0.556522
293 2 0.636638 0.657438 0.333229
294 2 0.665155 0.457749 0.641613
295 2 0.622711 0.896192 0.084129
296 2 0.788485 0.906359 0.201782
297 2 0.508006 0.263638 0.960176
298 2 0.763428 0.275835 0.969861
299 1 0.521012 0.154493 0.289129
300 2 0.23871 0.726554 0.566314
301 2 0.690459 0.965301 0.36152
302 2 0.0415605 0.594382 0.584685
303 2 0.292212 0.790742 0.572453
304 1 0.85848 0.196436 0.0604528
305 2 0.413554 0.975166 0.406322
306 2 0.0432749 0.518612 0.441615
307 2 0.995805 0.295731 0.698075
308 2 0.702551 0.550435 0.564799
309 2 0.505906 0.600028 0.718607
310 2 0.718523 0.0364727 0.717485
311 2 0.591988 0.515789 0.615433
312 2 0.391916 0.120074 0.213025
313 2 0.634528 0.0263505 0.294506
314 2 0.517868 0.0209917 0.759917
315 2 0.78007 0.676995 0.278779
316 2 0.801274 0.653094 0.350404
317 2 0.828422 0.558714 0.653912
318 2 0.483681 0.977073 0.85007
319 2 0.796813 0.17063 0.119781
320 2 0.217313 0.791096 0.426623
321 2 0.864622 0.776563 0.156199
322 2 0.987917 0.607184 0.21008
323 2 0.719912 0.144821 0.483522
324 2 0.415276 0.0475867 0.72325
325 2 0.703257 0.69774 0.736705
326 2 0.313278 0.0128787 0.806915
327 2 0.55043 0.266608 0.148547
328 2 0.238961 0.43057 0.307744
329 1 0.966448 0.737323 0.487513
330 2 0.838915 0.473812 0.131974
331 2 0.792232 0.661237 0.854841
332 2 0.447815 0.0234768 0.861975
333 2 0.095077 0.655925 0.510807
334 2 0.91212 0.78219 0.77452
335 1 0.514149 0.959881 0.261472
336 2 0.357956 0.0671942 0.23576
337 2 0.32027 0.867824 0.250345
338 1 0.533971 0.467667 0.892367
339 2 0.746274 0.597026 0.341838
340 2 0.314248 0.543688 0.62156
341 2 0.643174 0.0044312 0.332996
342 2 0.248165 0.616391 0.15573
343 2 0.0812351 0.714671 0.0139388
344 1 0.388479 0.959742 0.779348
345 1 0.599682 0.557332 0.550816
346 1 0.444045 0.261413 0.21777
347 1 0.736661 0.695965 0.336436
348 2 0.907403 0.818235 0.652573
349 2 0.392321 0.240924 0.220501
350 2 0.807456 0.305195 0.510609
351 2 0.356227 0.805561 0.982491
352 2 0.518722 0.857795 0.196526
353 1 0.2406 0.517577 0.290426
354 1 0.837748 0.636836 0.104136
355 2 0.442834 0.0322867 0.60974
356 2 0.194976 0.68659 0.272622
357 2 0.433499 0.126439 0.619071
358 2 0.119882 0.110966 0.843735
359 2 0.56155 0.134093 0.843502
360 2 0.85305 0.309842 0.846559
361 1 0.238823 0.570616 0.387321
362 2 0.652872 0.213814 0.617898
363 1 0.292053 0.623243 0.622348
364 2 0.866781 0.23781 0.101993
365 2 0.216784 0.110293 0.125887
366 2 0.160305 0.226106 0.922253
367 1 0.679721 0.838118 0.639404
368 1 0.576919 0.0122407 0.984202
369 2 0.369989 0.405469 0.03348
370 2 0.282773 0.758624 0.585996
371 2 0.177004 0.592133 0.96445
372 1 0.354883 0.974344 0.340474
373 2 0.270551 0.749333 0.552091
374 2 0.526487 0.382291 0.634905
375 2 0.141604 0.481699 0.734923
376 2 0.344852 0.000708163 0.518903
377 2 0.746713 0.408759 0.611291
378 2 0.637137 0.531979 0.195291
379 2 0.948297 0.0572221 0.761556
380 2 0.219093 0.249209 0.0927164
381 2 0.465181 0.718183 0.479184
382 2 0.842324 0.646677 0.851208
383 2 0.381657 0.986519 0.034227
384 1 0.561969 0.0994997 0.449728
385 2 0.411212 0.370275 0.727958
386 2 0.639005 0.731577 0.732977
387 1 0.587113 0.892152 0.829749
388 2 0.989178 0.379431 0.13591
389 2 0.56945 0.976037 0.842016
390 2 0.630232 0.469926 0.622589
391 2 0.172046 0.924637 0.678457
392 1 0.307522 0.541506 0.426355
393 2 0.525931 0.506356 0.7846
394 2 0.704012 0.150351 0.678959
395 2 0.604969 0.586084 0.688165
396 2 0.654649 0.191445 0.158416
397 2 0.184267 0.990114 0.542481
398 1 0.654796 0.0293333 0.115236
399 1 0.514701 0.412233 0.464484
400 1 0.875562 0.492762 0.934683
401 2 0.274662 0.495096 0.238582
402 2 0.764316 0.064862 0.354362
403 2 0.765574 0.917001 0.778293
404 2 0.91941 0.669185 0.233714
405 2 0.914123 0.498887 0.746373
406 2 0.236254 0.887203 0.219517
407 2 0.190357 0.0878395 0.868268
408 2 0.352588 0.638016 0.78177
409 2 0.798247 0.678818 0.235529
410 2 0.664893 0.369197 0.255518
411 2 0.832287 0.917448 0.841068
412 2 0.190393 0.479696 0.693912
413 2 0.0328851 0.406812 0.195154
414 2 0.61913 0.192277 0.757735
415 2 0.291122 0.620932 0.550078
416 1 0.160691 0.652381 0.437705
417 2 0.456196 0.402339 0.451654
418 2 0.792697 0.933234 0.804572
419 2 0.20698 0.72236 0.246033
420 2 0.443819 0.929381 0.0765725
421 1 0.617779 0.570601 0.481614
422 1 0.332667 0.0784424 0.409008
423 2 0.0388538 0.464461 0.708339
424 2 0.917147 0.382483 0.839623
425 1 0.241979 0.823487 0.617648
426 2 0.766985 0.772783 0.67671
427 2 0.0277467 0.276179 0.244234
428 2 0.424216 0.0804172 0.253958
429 2 0.175638 0.501935 0.195244
430 2 0.71743 0.644774 0.738567
431 2 0.789563 0.827101 0.0763228
432 1 0.379309 0.454659 0.284786
433 2 0.273986 0.44234 0.246738
434 1 0.409145 0.356335 0.328558
435 2 0.915661 0.572743 0.232909
436 2 0.272799 0.430962 0.788349
437 2 0.712141 0.0268791 0.373493
438 2 0.160551 0.279062 0.843095
439 1 0.507652 0.646759 0.586555
440 2 0.129175 0.55881 0.666714
441 1 0.799218 0.438403 0.621807
442 1 0.256244 0.53211 0.237908
443 1 0.347874 0.335021 0.622679
444 2 0.512783 0.931326 0.450812
445 2 0.908814 0.129133 0.910253
446 2 0.421473 0.432177 0.252205
447 2 0.694738 0.360609 0.0841276
448 2 0.485157 0.872727 0.964919
449 1 0.487283 0.195557 0.61497
450 2 0.340296 0.556292 0.184872
451 2 0.547662 0.0419 0.603863
452 2 0.25776 0.970549 0.334972
453 1 0.357897 0.132332 0.462699
454 2 0.470463 0.120015 0.571599
455 2 0.641611 0.515061 0.0525616
456 2 0.811023 0.748568 0.0309591
457 2 0.610237 0.326379 0.0119741
458 2 0.270344 0.80201 0.365735
459 2 0.838488 0.413283 0.541067
460 2 0.957623 0.688022 0.170218
461 2 0.268695 0.583819 0.553149
462 2 0.75187 0.893174 0.438143
463 1 0.00945364 0.402726 0.734913
464 2 0.328968 0.476384 0.426007
465 2 0.00117255 0.46403 0.63098
466 2 0.619874 0.511567 0.65588
467 1 0.455024 0.00761704 0.750615
468 2 0.167958 0.632235 0.220824
469 2 0.41564 0.79899 0.474367
470 2 0.578763 0.59747 0.517276
471 2 0.0294479 0.483817 0.293285
472 2 0.19045 0.947884 0.681452
473 1 0.0334636 0.588803 0.784601
474 1 0.0725467 0.94502 0.816781
475 1 0.928511 0.824956 0.00758265
476 2 0.121678 0.788619 0.672322
477 2 0.643771 0.103687 0.75767
478 2 0.955289 0.124954 0.965028
479 2 0.635343 0.0799471 0.42082
480 2 0.321912 0.595566 0.379007
481 2 0.392127 0.0886382 0.915712
482 2 0.340878 0.514599 0.598343
483 2 0.056064 0.0835649 0.361973
484 1 0.391712 0.459412 0.71168
485 1 0.909952 0.598593 0.0994799
486 2 0.148783 0.699517 0.959097
487 2 0.693023 0.541059 0.528949
488 2 0.681217 0.712668 0.856602
489 2 0.257284 0.830121 0.548331
490 2 0.237231 0.781822 0.63224
491 2 0.803657 0.85273 0.697012
492 2 0.0290577 0.973638 0.609035
493 2 0.23425 0.755076 0.109584
494 2 0.522987 0.667177 0.701496
495 2 0.356686 0.728738 0.0956938
496 2 0.0985172 0.765878 0.146489
497 2 0.21329 0.845888 0.101279
498 1 0.834449 0.680248 0.125151
499 2 0.0255773 0.702211 0.887736
500 2 0.758532 0.658502 0.370938
501 1 0.618007 0.916626 0.322376
502 2 0.830608 0.133307 0.947767
503 2 0.375325 0.156916 0.895896
504 1 0.586981 0.0103081 0.783214
505 2 0.669787 0.585345 0.160606
506 2 0.0352728 0.207892 0.513403
507 2 0.735736 0.871265 0.286628
508 2 0.748235 0.215636 0.399809
509 1 0.127974 0.863152 0.761308
510 2 0.57486 0.133104 0.191086
511 2 0.0531689 0.654683 0.897234
512 2 0.0101319 0.0364153 0.96647
513 1 0.0580573 0.200265 0.918059
514 2 0.106047 0.198244 0.95389
515 1 0.487266 0.520701 0.72413
516 2 0.259497 0.706528 0.660886
517 1 0.546624 0.953327 0.880987
518 2 0.250023 0.0405526 0.996294
519 2 0.0412859 0.569443 0.905932
520 2 0.826637 0.947475 0.696029
521 2 0.28254 0.885749 0.521188
522 2 0.618705 0.36371 0.411228
523 2 0.772174 0.662644 0.751414
524 2 0.43728 0.286589 0.994736
525 2 0.32031 0.7789 0.804281
526 2 0.99602 0.828124 0.168414
527 2 0.990135 0.584045 0.136275
528 1 0.62052 0.538285 0.0169634
529 2 0.393803 0.099372 0.393905
530 2 0.874908 0.611548 0.983602
531 2 0.561597 0.920497 0.994038
532 2 0.533274 0.403247 0.595271
533 2 0.540597 0.732734 0.628455
534 1 0.300162 0.504698 0.808749
535 2 0.0635215 0.816588 0.948881
536 1 0.873867 0.658067 0.841823
537 1 0.463192 0.615529 0.352445
538 2 0.933242 0.0409244 0.867675
539 2 0.791469 0.717025 0.835058
540 2 0.163928 0.846162 0.943966
541 1 0.575164 0.525116 0.692197
542 2 0.0342837 0.550709 0.337949
543 1 0.292723 0.892817 0.0393756
544 1 0.7779 0.712663 0.884087
545 2 0.759569 0.553234 0.687079
546 2 0.858984 0.186453 0.27239
547 2 0.931726 0.0960652 0.723967
548 2 0.639269 0.763151 0.881491
549 2 0.435063 0.732323 0.306499
550 2 0.714975 0.463416 0.642428
551 1 0.616414 0.447427 0.26522
552 2 0.614722 0.117734 0.941892
553 2 0.395041 0.00398043 0.821862
554 2 0.403463 0.144228 0.849587
555 1 0.345097 0.0166455 0.607808
556 2 0.228863 0.0785811 0.442013
557 2 0.823118 0.799587 0.0733154
558 1 0.345701 0.502115 0.776343
559 2 0.662431 0.629021 0.183344
560 2 0.0780302 0.896408 0.17593
561 2 0.663276 0.888561 0.710987
562 1 0.520475 0.386848 0.760693
563 2 0.307545 0.792246 0.215212
564 2 0.738 0.0957339 0.016848
565 2 0.303555 0.305889 0.861029
566 2 0.659867 0.368233 0.934897
567 2 0.690758 0.327336 0.906641
568 2 0.439619 0.478343 0.227417
569 1 0.966836 0.795788 0.117066
570 2 0.0127564 0.694614 0.636724
571 2 0.785737 0.544487 0.236548
572 2 0.903646 0.410819 0.895853
573 2 0.556157 0.315255 0.951872
574 2 0.77938 0.966784 0.367601
575 1 0.840834 0.708323 0.895691
576 2 0.54957 0.282234 0.492767
577 2 0.821326 0.338837 0.442815
578 1 0.46693 0.594183 0.414842
579 2 0.423741 0.33904 0.231892
580 1 0.213284 0.929291 0.846595
581 2 0.44673 0.307956 0.756429
582 2 0.384135 0.222597 0.162679
583 1 0.736588 0.564462 0.591554
584 2 0.488527 0.761135 0.365268
585 1 0.824266 0.289102 0.987824
586 2 0.625314 0.0345924 0.954895
587 2 0.18589 0.721835 0.356175
588 2 0.249138 0.457507 0.133153
589 1 0.222417 0.694382 0.761947
590 1 0.787318 0.671201 0.915152
591 1 0.728783 0.499339 0.654998
592 2 0.478176 0.0224331 0.704734
593 2 0.466181 0.789762 0.125578
594 1 0.13182 0.21875 0.791127
595 1 0.412973 0.113139 0.662498
596 2 0.602779 0.0892196 0.752997
597 1 0.699836 0.00944187 0.762896
598 2 0.40042 0.309466 0.778162
599 2 0.213365 0.774641 0.627665
600 2 0.196141 0.537637 0.895892
601 2 0.493823 0.814913 0.460018
602 1 0.761291 0.0870956 0.448949
603 2 0.127525 0.0223659 0.570096
604 1 0.363218 0.943782 0.0449289
605 2 0.487687 0.672671 0.536907
606 2 0.843194 0.364693 0.537885
607 1 0.348815 0.120077 0.0524299
608 2 0.0444738 0.703962 0.64162
609 2 0.289352 0.0449736 0.425637
610 2 0.693452 0.422996 0.160237
611 2 0.110621 0.203662 0.905858
612 1 0.631576 0.236267 0.397092
613 2 0.128429 0.910584 0.864144
614 1 0.529576 0.289631 0.613858
615 2 0.286899 0.172191 0.626508
616 1 0.120301 0.76681 0.320045
617 2 0.298188 0.58053 0.678168
618 2 0.541508 0.696582 0.233018
619 2 0.378904 0.188612 0.170746
620 2 0.458204 0.419059 0.0225431
621 2 0.589552 0.640632 0.651802
622 2 0.296223 0.945097 0.421918
623 1 0.176385 0.0276522 0.7813
624 2 1.00018 0.593161 0.309073
625 2 0.217442 0.865395 0.818349
626 2 0.238521 0.0367586 0.137367
627 2 0.33677 0.65009 0.546725
628 2 0.875043 0.665888 0.754752
629 2 0.826979 0.108171 0.289428
630 1 0.381151 0.352292 0.740976
631 2 0.650984 0.680473 0.212941
632 2 0.193227 0.332766 0.446977
633 2 0.68633 0.505837 0.586147
634 2 0.951519 0.865732 0.320302
635 2 0.478227 0.993652 0.984426
636 2 0.251775 0.112628 0.632048
637 2 0.342967 0.576601 0.442868
638 1 0.0898996 0.962474 0.881885
639 2 0.628674 0.211659 0.358732
640 2 0.34849 0.0538448 0.767367
641 2 0.915714 0.455577 0.581592
642 2 0.605401 0.31031 0.82232
643 2 0.270234 0.258175 0.831871
644 2 0.354699 0.348476 0.76654
645 1 0.612346 0.544668 0.769075
646 2 0.997909 0.88139 0.2673
647 1 0.695738 0.495109 0.610211
648 2 0.804969 0.0823767 0.444707
649 2 0.20111 0.370033 0.591469
650 2 0.917731 0.460486 0.557313
651 2 0.367592 0.357043 0.0934886
652 2 0.379782 0.172802 0.481671
653 2 0.910594 0.676079 0.140033
654 1 0.390451 0.735372 0.769184
655 2 0.476577 0.879159 0.825692
656 2 0.328906 0.85223 0.533538
657 2 0.876306 0.248533 0.909724
658 2 0.186045 0.393848 0.889686
659 2 0.335456 0.417938 0.387931
660 2 0.619462 0.959088 0.424917
661 1 0.244029 0.0639999 0.0749922
662 2 0.221573 0.0386661 0.83001
663 2 0.00831233 0.0929814 0.383778
664 1 0.951076 0.860217 0.781581
665 2 0.822401 0.492676 0.397536
666 2 0.149138 0.706756 0.777088
667 2 0.685508 0.622359 0.496578
668 2 0.614809 0.983041 0.818616
669 2 0.406714 0.0167552 0.762426
670 1 0.365844 0.393999 0.717451
671 2 0.92318 0.971118 0.739708
672 1 0.759149 0.654178 0.425806
673 2 0.0612642 0.416569 0.55546
674 2 0.585636 0.453854 0.913574
675 2 0.736183 0.60844 0.563816
676 1 0.133188 0.00354842 0.659033
677 2 0.832234 0.601519 0.894211
678 2 0.186228 0.94005 0.899596
679 1 0.756829 0.433416 0.0487046
680 2 0.497038 0.492039 0.407598
681 1 0.929024 0.331695 0.166167
682 1 0.378097 0.930945 0.443036
683 2 0.0537761 0.0975997 0.0273205
684 2 0.293773 0.715335 0.559204
685 2 0.100313 0.58355 0.143681
686 2 0.222864 0.353385 0.418155
687 1 0.588793 0.237449 0.762076
688 2 0.78672 0.562079 0.538904
689 2 0.249444 0.30008 0.413249
690 2 0.459337 0.154216 0.130969
691 2 0.503807 0.10741 0.872633
692 1 0.191143 0.749226 0.681949
693 2 0.794122 0.976871 0.103958
694 2 0.932211 0.0338084 0.328594
695 1 0.653383 0.0284097 0.873934
696 2 0.664976 0.566141 0.534413
697 2 0.690719 0.587759 0.551182
698 2 0.293608 0.569377 0.936816
699 2 0.680107 0.641878 0.227373
700 1 0.475779 0.718137 0.771304
701 2 0.312931 0.902443 0.989997
702 2 0.626804 0.02654 0.152303
703 2 0.275914 0.825251 0.724919
704 2 0.141719 0.542268 0.514637
705 2 0.752207 0.914639 0.0856577
706 2 0.865262 0.140265 0.0112799
707 2 0.555421 0.54857 0.726379
708 1 0.350276 0.732246 0.536393
709 2 0.0500394 0.993836 0.527026
710 2 0.30938 0.071007 0.33385
711 2 0.710429 0.0823844 0.614693
712 1 0.812507 0.468179 0.842368
713 2 0.735081 0.401449 0.893506
714 1 0.612031 0.86804 0.611567
715 2 0.716139 0.782766 0.669966
716 1 0.707788 0.267447 0.524576
717 2 0.192827 0.926079 0.660659
718 2 0.635739 0.778047 0.927558
719 2 0.168238 0.746315 0.566687
720 2 0.520297 0.362036 0.240483
721 2 0.813084 0.66923 0.52298
722 1 0.346751 0.663341 0.589289
723 2 0.104472 0.104928 0.30806
724 2 0.230538 0.669594 0.140712
725 2 0.0444924 0.228995 0.337611
726 2 0.724205 0.830611 0.918662
727 1 0.642591 0.00347 0.691146
728 1 0.694463 0.665133 0.483199
729 1 0.688195 0.55983 0.675492
730 1 0.924326 0.68863 0.523483
731 2 0.532201 0.4704 0.625034
732 1 0.347679 0.719894 0.651458
733 2 0.670651 0.945395 0.714773
734 2 0.0417258 0.0568953 0.70586
735 2 0.300293 0.584144 0.40783
736 1 0.22277 0.683659 0.652054
737 2 0.701545 0.363273 0.748614
738 2 0.31221 0.104655 0.203005
739 2 0.610192 0.883887 0.0192155
740 2 0.226131 0.317097 0.760012
741 2 0.221503 0.429992 0.445334
742 1 0.310978 0.624705 0.436127
743 2 0.826463 0.532864 0.575938
744 2 0.625088 0.768225 0.717201
745 2 0.751077 0.923692 0.0618135
746 1 0.215628 0.313476 0.280663
747 2 0.859182 0.641616 0.515294
748 2 0.478462 0.100493 0.587245
749 2 0.554597 0.264523 0.300562
750 2 0.918751 0.427948 0.758014
751 2 0.520718 0.128137 0.739518
752 2 0.785622 0.503534 0.341343
753 2 0.681072 0.401319 0.605956
754 2 0.598678 0.391318 0.430478
755 2 0.502557 0.00137984 0.604777
756 2 0.816385 0.753413 0.118365
757 2 0.841916 0.187267 0.971693
758 2 0.199762 0.468348 0.113866
759 2 0.166869 0.91058 0.82822
760 1 0.405138 0.00407447 0.885683
761 2 0.990957 0.991423 0.604362
762 2 0.154131 -0.000970168 0.696051
763 1 0.638562 0.334533 0.853124
764 2 0.430091 0.887792 0.811529
765 2 0.441897 0.45903 0.915472
766 2 0.753717 0.886482 0.575628
767 2 0.458561 0.882987 0.567349
768 2 0.568996 0.335987 0.0294699
769 2 0.158262 0.311354 0.08277
770 2 0.892961 0.515642 0.563591
771 2 0.290205 0.353604 0.4499
772 2 0.869232 0.235164 0.616457
773 1 0.460758 0.217589 0.165145
774 2 0.430673 0.305511 0.997541
775 2 0.326506 0.602286 0.470587
776 2 0.403979 0.967799 0.831773
777 1 0.551528 0.0547879 0.862963
778 2 0.713968 0.524769 0.621824
779 2 0.303066 0.588453 0.127369
780 1 0.943161 0.425304 0.870749
781 2 0.789531 0.45841 0.702387
782 2 0.787263 0.148899 0.542392
783 1 0.657802 0.754005 0.48459
784 2 0.769857 0.11884 0.576814
785 2 0.0153508 0.535763 0.761859
786 1 0.787246 0.799877 0.623667
787 2 0.653551 0.176886 0.393508
788 2 0.0674755 0.576848 0.604762
789 2 0.536309 0.212154 0.875563
790 2 0.190412 0.714193 0.633041
791 1 0.0240438 0.327266 0.221274
792 2 0.87234 0.639456 0.928481
793 2 0.507748 0.020583 0.791421
794 2 0.462867 0.455967 0.597902
795 2 0.746396 0.906685 0.985459
796 2 0.225506 0.740224 0.622344
797 2 0.793663 0.587195 0.690398
798 2 0.674858 0.0817465 0.844587
799 2 0.603697 0.0355876 0.348656
800 2 0.683495 0.593968 0.581795
801 2 0.376902 0.699076 0.1042
802 2 0.211053 0.299616 0.213959
803 2 0.131893 0.0546454 0.598306
804 2 0.823685 0.131893 0.615859
805 2 0.659942 0.470506 0.93594
806 1 0.758089 0.765228 0.288825
807 2 0.232117 0.623985 0.192172
808 2 0.866508 0.51245 0.0258295
809 1 0.540385 0.965295 0.796416
810 2 0.535571 0.0777372 0.714868
811 2 0.783357 0.00624586 0.0613422
812 2 0.255174 0.579349 0.13315
813 1 0.636538 0.618594 0.644541
814 2 0.225848 0.950316 0.697255
815 2 0.94479 0.430913 0.0387173
816 1 0.834889 0.885354 0.0321654
817 1 0.182856 0.503916 0.486554
818 2 0.906876 0.101906 0.308172
819 1 0.114743 0.696549 0.962377
820 1 0.597578 0.00578777 0.491756
821 2 0.0454494 0.54297 0.239985
822 2 0.830506 0.960574 0.028307
823 1 0.489981 0.412332 0.248917
824 2 0.0955538 0.980043 0.567857
825 2 0.723887 0.953384 0.292843
826 2 0.193903 0.307608 0.0417164
827 1 0.249281 0.114925 0.390978
828 2 0.526677 0.00540635 0.810084
829 2 0.511508 0.916699 0.393043
830 2 0.51748 0.398302 0.990185
831 1 0.716705 0.883029 0.0558218
832 2 0.230396 0.985708 0.401327
833 1 0.5689 0.404539 0.614075
834 2 0.00871824 0.90562 0.967886
835 2 0.168317 0.999025 0.579708
836 2 0.114951 0.0216726 0.856225
837 2 0.50474 0.905842 0.291627
838 2 0.0186008 0.453682 0.957191
839 2 0.128302 0.67824 0.202015
840 2 0.967164 0.693323 0.424928
841 2 0.786033 0.576634 0.63064
842 2 0.625217 0.259724 0.177867
843 2 0.560459 0.00753156 0.550636
844 2 0.764876 0.711265 0.23438
845 2 0.0754674 0.748822 0.580452
846 2 0.882277 0.536902 0.14378
847 2 0.41118 0.237361 0.361182
848 2 0.0607253 0.267406 0.325798
849 1 0.721044 0.938085 0.814848
850 2 0.533519 0.193938 0.249614
851 2 0.823772 0.0614858 0.632687
852 2 0.0888015 0.986283 0.225208
853 1 0.191348 0.513727 0.731658
854 2 0.386938 0.00901568 0.526609
855 2 0.109705 0.288429 0.857179
856 2 0.763752 0.104623 0.28703
857 2 0.426918 0.0232475 0.130626
858 2 0.575571 0.286839 0.272674
859 2 0.969726 0.910663 0.117782
860 2 0.549208 0.289454 0.846066
861 2 0.066599 0.979478 0.52456
862 2 0.0171183 0.603018 0.61802
863 2 0.541193 0.693288 0.611066
864 2 0.251287 0.346755 0.975042
865 2 0.850377 0.913026 0.201194
866 2 0.918605 0.73095 0.569474
867 2 0.670762 0.405816 0.0361358
868 2 0.968935 0.0178163 0.539048
869 2 0.909602 0.89583 0.802972
870 2 0.524848 0.617647 0.0379825
871 2 0.0198614 0.61839 0.444603
872 2 0.0268049 0.680636 0.611011
873 2 0.148183 0.480068 0.806748
874 2 0.193345 0.810215 0.757865
875 2 0.445706 0.993123 0.18483
876 2 0.85226 0.668532 0.898744
877 2 0.397488 0.170969 0.512379
878 2 0.67137 0.541323 0.606181
879 2 0.536075 0.161248 0.939964
880 2 0.419827 0.453814 0.276235
881 2 0.977734 0.787829 0.883134
882 1 0.663962 0.623458 0.551185
883 1 0.154925 0.149779 0.294958
884 2 0.154187 0.705319 0.471199
885 2 0.239675 0.732279 0.54289
886 2 0.684365 0.650045 0.795385
887 1 0.925526 0.174382 0.904736
888 2 0.667559 0.4917 0.647308
889 2 0.0172077 0.949055 0.695738
890 1 0.31398 0.361256 0.645247
891 2 0.100006 0.438152 0.00587301
892 2 0.639609 0.460765 0.969439
893 2 0.998036 0.702543 0.670476
894 2 0.569041 0.680788 0.501906
895 1 0.689524 0.625827 0.0573671
896 2 0.294033 0.684263 0.734608
897 2 0.389247 0.993097 0.406076
898 2 0.980246 0.463684 0.0525919
899 2 0.112289 0.0158656 0.512265
900 2 0.277003 0.16976 0.332993
901 2 0.249113 0.707912 0.629454
902 2 0.702429 0.609444 0.431123
903 2 0.037191 0.510387 0.947796