ITEM: TIMESTEP
67200
ITEM: NUMBER OF ATOMS
1000
ITEM: BOX BOUNDS xy xz yz pp pp pp
0.0000000000000000e+00 1.3572088000000001e+01 0.0000000000000000e+00
0.0000000000000000e+00 1.3572088000000001e+01 0.0000000000000000e+00
0.0000000000000000e+00 1.3572088000000001e+01 0.0000000000000000e+00
ITEM: ATOMS id type xs ys zs
1 2 0.421491 0.0679042 0.999609
2 2 0.767334 0.785241 0.654656
3 1 0.639965 0.831758 0.771505
4 2 0.574938 0.0850355 0.705666
5 2 0.694143 0.832163 0.693707
6 1 0.72735 0.907919 0.739656
7 2 0.694733 0.758617 0.700414
8 2 0.712816 0.807099 0.681465
9 2 0.825401 0.56336 0.782294
10 2 0.723479 0.829421 0.7211
11 2 0.778446 0.793838 0.712103
12 2 0.759701 0.757083 0.702008
13 2 0.752207 0.807422 0.691562
14 1 0.78743 0.78276 0.586312
15 2 0.742757 0.851114 0.707724
16 2 0.708822 0.00292732 0.0450899
17 1 0.687182 0.870573 0.68302
18 2 0.739238 0.806611 0.695421
19 2 0.801435 0.0878417 0.72179
20 2 0.717053 0.754308 0.666786
21 2 0.754802 0.74984 0.686317
22 2 0.142092 0.0181617 0.90256
23 2 0.268707 0.232404 0.722165
24 2 0.786143 0.766106 0.69414
25 1 0.764575 0.00226276 0.0154069
26 2 0.718891 0.829847 0.663522
27 2 0.719201 0.75009 0.717006
28 2 0.750815 0.797151 0.712751
29 2 0.127154 0.0151135 0.968859
30 2 0.699408 0.764888 0.684439
31 1 0.669617 0.733995 0.695295
32 1 0.753635 0.860859 0.75633
33 1 0.758006 0.751366 0.758824
34 2 0.764655 0.763837 0.68462
35 2 0.758103 0.807649 0.649342
36 1 0.700952 0.724103 0.612626
37 2 0.754856 0.8077 0.708912
38 2 0.701968 0.794893 0.707595
39 2 0.29931 0.298821 0.579674
40 2 0.727516 0.754277 0.701291
41 2 0.721239 0.794513 0.716166
42 2 0.732209 0.806151 0.729766
43 2 0.546726 0.949771 0.390241
44 2 0.952238 0.742272 0.786
45 2 0.768337 0.838202 0.713166
46 1 0.428447 0.959804 0.20177
47 2 0.776917 0.832355 0.699948
48 2 0.707566 0.780895 0.677018
49 2 0.812135 0.0123626 0.286753
50 2 0.784591 0.777093 0.686989
51 2 0.690527 0.80507 0.739971
52 2 0.522961 0.389894 0.148451
53 2 0.82372 0.0972798 0.10867
54 2 0.682704 0.822133 0.712873
55 1 0.780055 0.725667 0.747635
56 1 0.671065 0.800626 0.635008
57 2 0.742209 0.748279 0.677232
58 2 0.708017 0.781958 0.694184
59 2 0.756461 0.847663 0.705134
60 2 0.692805 0.827703 0.707158
61 2 0.395252 0.616108 0.119397
62 2 0.704586 0.804971 0.694899
63 2 0.746639 0.811901 0.636827
64 2 0.727298 0.792476 0.727494
65 2 0.724309 0.809801 0.679662
66 1 0.762746 0.87527 0.72424
67 2 0.685131 0.763886 0.713361
68 2 0.727911 0.766269 0.738885
69 1 0.695549 0.832363 0.807536
70 2 0.717962 0.851999 0.718767
71 1 0.704984 0.90646 0.605353
72 2 0.79167 0.797211 0.698262
73 2 0.698518 0.772408 0.698794
74 2 0.716707 0.778936 0.693822
75 2 0.133803 0.534918 0.810199
76 2 0.721791 0.783368 0.683054
77 1 0.82166 0.849769 0.74865
78 2 0.838142 0.0830609 0.274254
79 2 0.671541 0.798962 0.702565
80 2 0.00917386 0.607553 0.421726
81 2 0.706666 0.773271 0.657885
82 2 0.721414 0.824344 0.683387
83 2 0.708456 0.794828 0.739478
84 2 0.704861 0.787893 0.690657
85 1 0.765199 0.695827 0.658487
86 2 0.708377 0.791239 0.649443
87 2 0.7169 0.798297 0.669822
88 2 0.742413 0.849074 0.670867
89 2 0.75602 0.759132 0.734777
90 2 0.741972 0.764133 0.734909
91 2 0.963677 0.556584 0.493114
92 2 0.753771 0.813578 0.665749
93 2 0.758921 0.751457 0.699686
94 1 0.357929 0.77827 0.107409
95 2 0.955913 0.303897 0.583203
96 2 0.686545 0.825502 0.731653
97 2 0.749437 0.741423 0.705987
98 2 0.753457 0.80199 0.701537
99 2 0.556799 0.945493 0.546794
100 2 0.711585 0.756111 0.731866
101 1 0.369339 0.0563655 0.547833
102 2 0.108732 0.51038 0.222809
103 2 0.789071 0.795449 0.689295
104 2 0.738602 0.757825 0.702017
105 2 0.737386 0.800977 0.68117
106 2 0.512774 0.930652 0.967735
107 2 0.966921 0.280561 0.0174679
108 2 0.76137 0.846061 0.666298
109 2 0.752067 0.803295 0.681369
110 2 0.703667 0.766099 0.7092
111 2 0.974255 0.649778 0.871121
112 1 0.719081 0.879688 0.673153
113 1 0.737303 0.737081 0.640142
114 2 0.789735 0.785753 0.704174
115 2 0.694203 0.419268 0.0575978
116 2 0.769356 0.777554 0.705256
117 2 0.295795 0.190684 0.219379
118 2 0.74579 0.790907 0.677869
119 2 0.759756 0.303342 0.747334
120 2 0.740521 0.81344 0.674815
121 2 0.73053 0.770474 0.689739
122 2 0.709258 0.808669 0.6734
123 2 0.720716 0.815889 0.699834
124 2 0.725727 0.839845 0.656012
125 1 0.836172 0.831771 0.620637
126 2 0.710849 0.752539 0.670999
127 2 0.731696 0.808561 0.735566
128 2 0.711969 0.832092 0.720713
129 1 0.0873304 0.0647205 0.930074
130 2 0.425329 0.454814 0.748598
131 2 0.704925 0.818004 0.730095
132 2 0.735554 0.789153 0.694307
133 2 0.78217 0.802615 0.65491
134 2 0.424021 0.63519 0.318138
135 2 0.746912 0.784241 0.732549
136 2 0.77776 0.827217 0.728214
137 1 0.621971 0.836836 0.703151
138 2 0.723589 0.781237 0.686795
139 2 0.71606 0.831575 0.708691
140 1 0.735307 0.765283 0.605009
141 2 0.701757 0.822509 0.679338
142 2 0.712529 0.842049 0.722563
143 2 0.948144 0.107602 0.442672
144 2 0.775258 0.777603 0.736833
145 2 0.750936 0.845107 0.679808
146 2 0.706211 0.745752 0.700995
147 1 0.254795 0.889169 0.394855
148 1 0.715287 0.758494 0.620432
149 2 0.732234 0.767439 0.660151
150 1 0.807817 0.754496 0.694566
151 2 0.695782 0.790304 0.670712
152 2 0.751338 0.816333 0.68797
153 1 0.722084 0.868222 0.750693
154 1 0.450374 0.593099 0.997885
155 2 0.781979 0.797265 0.680453
156 2 0.751889 0.836624 0.705391
157 2 0.77 0.839543 0.686345
158 2 0.0519865 0.457012 0.115393
159 2 0.71595 0.791244 0.730308
160 2 0.705488 0.792544 0.679503
161 2 0.730009 0.759417 0.670754
162 2 0.709339 0.789786 0.703121
163 2 0.733076 0.742949 0.682539
164 2 0.774942 0.780501 0.674335
165 2 0.72865 0.85955 0.723567
166 2 0.696823 0.820852 0.684227
167 2 0.418945 0.590766 0.369138
168 2 0.762516 0.767204 0.718743
169 2 0.499943 0.443636 0.534205
170 2 0.610032 0.182335 0.461147
171 2 0.708337 0.809959 0.664089
172 2 0.195334 0.485474 0.398479
173 1 0.717523 0.717667 0.653392
174 2 0.71895 0.798795 0.698692
175 2 0.125707 0.265435 0.429501
176 2 0.700794 0.759572 0.692762
177 1 0.18868 0.942917 0.00437309
178 2 0.870428 0.356725 0.124722
179 2 0.683933 0.33495 0.671328
180 2 0.761971 0.790292 0.665543
181 2 0.710657 0.830134 0.745327
182 2 0.723781 0.845136 0.731664
183 2 0.960513 0.78193 0.524192
184 2 0.709361 0.821742 0.695749
185 2 0.768487 0.800505 0.702508
186 2 0.748685 0.801737 0.688191
187 2 0.786607 0.0132119 0.108285
188 1 0.723656 0.750284 0.767185
189 2 0.726022 0.793987 0.662082
190 2 0.735288 0.82318 0.691436
191 2 0.72826 0.81853 0.727941
192 2 0.67443 0.7915 0.686503
193 2 0.71226 0.817753 0.685189
194 2 0.867783 0.8874 0.043064
195 2 0.744805 0.753552 0.662526
196 2 0.702656 0.773926 0.673264
197 2 0.767912 0.807634 0.671804
198 2 0.658234 0.501822 0.256748
199 2 0.0824782 0.190819 0.131998
200 1 0.808771 0.838902 0.700037
201 2 0.710193 0.796719 0.715246
202 2 0.785315 0.39573 0.0842411
203 2 0.714289 0.796154 0.669433
204 2 0.732156 0.757499 0.73593
205 2 0.722546 0.827608 0.738127
206 2 0.721942 0.753232 0.69165
207 2 0.119344 0.038832 0.449685
208 2 0.71399 0.798686 0.754879
209 2 0.747223 0.798548 0.674355
210 2 0.778557 0.808825 0.691821
211 2 0.2859 0.624371 0.612727
212 1 0.670016 0.8529 0.761851
213 2 0.754097 0.791346 0.686555
214 2 0.752711 0.768598 0.706643
215 2 0.752083 0.76903 0.653399
216 2 0.752926 0.78102 0.663061
217 2 0.718386 0.784329 0.702747
218 2 0.721795 0.801745 0.756241
219 2 0.710348 0.830344 0.714589
220 2 0.74623 0.811254 0.737803
221 2 0.709255 0.851581 0.676874
222 2 0.215093 0.136148 0.273161
223 2 0.734508 0.767781 0.665006
224 2 0.71335 0.813384 0.724166
225 1 0.79265 0.866295 0.68778
226 2 0.704667 0.754422 0.665931
227 2 0.703589 0.778843 0.646828
228 2 0.711247 0.857069 0.711922
229 2 0.733232 0.761793 0.705133
230 1 0.730248 0.886308 0.707979
231 2 0.748939 0.772251 0.699165
232 2 0.732146 0.821796 0.685741
233 1 0.772709 0.735853 0.649361
234 2 0.788345 0.814988 0.699839
235 2 0.766501 0.78753 0.695899
236 2 0.693778 0.83665 0.722481
237 2 0.615876 0.453129 0.918143
238 1 0.435425 0.374402 0.853318
239 1 0.762334 0.765503 0.617295
240 2 0.758197 0.809218 0.686864
241 2 0.686147 0.790316 0.686486
242 1 0.818639 0.810684 0.687827
243 1 0.782107 0.796761 0.624408
244 2 0.771382 0.83452 0.655251
245 2 0.681186 0.789245 0.711831
246 1 0.711531 0.717489 0.721018
247 2 0.756228 0.822718 0.741821
248 2 0.705437 0.787917 0.742974
249 2 0.691806 0.800151 0.73198
250 2 0.692494 0.77009 0.72416
251 2 0.723427 0.76792 0.721961
252 2 0.348943 0.967511 0.169828
253 2 0.693517 0.751864 0.688641
254 2 0.736927 0.783202 0.726304
255 2 0.75712 0.75895 0.724413
256 2 0.734743 0.782867 0.733303
257 2 0.709108 0.81119 0.720216
258 2 0.772259 0.825395 0.672834
259 1 0.545293 0.843252 0.136168
260 2 0.733243 0.80995 0.67912
261 1 0.738858 0.692694 0.777056
262 2 0.490252 0.223619 0.713867
263 2 0.752993 0.814524 0.707971
264 2 0.676491 0.396163 0.965358
265 1 0.726342 0.711921 0.698894
266 2 0.75694 0.825402 0.734027
267 2 0.739012 0.792764 0.71132
268 1 0.693478 0.74093 0.646832
269 1 0.359651 0.82422 0.270985
270 2 0.198589 0.886675 0.999095
271 2 0.584699 0.396538 0.0139323
272 2 0.700684 0.795669 0.729712
273 1 0.668975 0.858253 0.713265
274 2 0.74082 0.812246 0.686291
275 2 0.728824 0.796205 0.681899
276 2 0.725581 0.78226 0.700722
277 2 0.764761 0.790238 0.708739
278 2 0.942268 0.139092 0.455102
279 2 0.703877 0.814057 0.741516
280 1 0.746107 0.728462 0.603746
281 2 0.0824281 0.887035 0.0719669
282 2 0.733642 0.7594 0.689641
283 2 0.836012 0.518333 0.849253
284 1 0.78154 0.849218 0.753319
285 2 0.738467 0.792863 0.7438
286 2 0.725024 0.778735 0.669196
287 1 0.69017 0.197348 0.0500313
288 2 0.709039 0.797627 0.706621
289 2 0.726051 0.821418 0.691533
290 2 0.708326 0.804468 0.64672
291 2 0.715993 0.842162 0.689966
292 2 0.950665 0.189041 0.607462
293 2 0.74462 0.782973 0.687862
294 2 0.765819 0.768021 0.706043
295 2 0.75261 0.773023 0.734389
296 2 0.245905 0.167124 0.59957
297 2 0.694105 0.843004 0.674819
298 2 0.745051 0.830423 0.676796
299 1 0.684817 0.732449 0.722706
300 2 0.714166 0.817038 0.655646
301 2 0.69786 0.755207 0.727642
302 2 0.532675 0.523817 0.710812
303 2 0.712769 0.76739 0.697101
304 1 0.725579 0.21064 0.130258
305 2 0.702791 0.832051 0.688528
306 2 0.710097 0.776116 0.747842
307 2 0.554938 0.0485621 0.804193
308 2 0.371363 0.278806 0.967093
309 2 0.787971 0.769743 0.716203
310 2 0.731459 0.826558 0.704644
311 2 0.751997 0.830682 0.716283
312 2 0.705339 0.756217 0.710255
313 2 0.745842 0.823277 0.733071
314 2 0.244545 0.443225 0.460452
315 2 0.752571 0.78973 0.725617
316 2 0.760647 0.786758 0.682856
317 2 0.711633 0.794942 0.693568
318 2 0.600067 0.683432 0.986398
319 2 0.730943 0.812658 0.691675
320 2 0.761204 0.805201 0.724977
321 2 0.742145 0.848136 0.727481
322 2 0.731284 0.830241 0.746512
323 2 0.883713 0.281295 0.408151
324 2 0.69796 0.331032 0.407321
325 2 0.738658 0.817915 0.671337
326 2 0.695271 0.820673 0.718537
327 2 0.734902 0.745442 0.688363
328 2 0.735647 0.803377 0.710664
329 1 0.608304 0.176795 0.727192
330 2 0.737814 0.793206 0.646068
331 2 0.764576 0.824378 0.705638
332 2 0.742138 0.793158 0.71875
333 2 0.742466 0.839431 0.745156
334 2 0.68933 0.807121 0.699578
335 1 0.203844 0.437201 0.94582
336 2 0.755631 0.769651 0.694251
337 2 0.0203068 0.831152 0.309878
338 1 0.663408 0.777091 0.654947
339 2 0.759244 0.830673 0.715371
340 2 0.740141 0.803976 0.747731
341 2 0.695845 0.839109 0.712396
342 2 0.737686 0.809126 0.704781
343 2 0.746931 0.853952 0.693893
344 1 0.767078 0.854944 0.801879
345 1 0.722964 0.795987 0.609299
346 1 0.707205 0.910701 0.671668
347 1 0.489329 0.450591 0.740831
348 2 0.754526 0.753232 0.665876
349 2 0.510662 0.973836 0.422162
350 2 0.853556 0.925586 0.20142
351 2 0.724609 0.839804 0.726636
352 2 0.79492 0.992417 0.137015
353 1 0.796916 0.845692 0.594865
354 1 0.648721 0.922499 0.963224
355 2 0.246137 0.734016 0.523946
356 2 0.742212 0.822596 0.711385
357 2 0.452785 0.783896 0.77268
358 2 0.182591 0.146482 0.444328
359 2 0.678331 0.84043 0.68996
360 2 0.712539 0.780194 0.735104
361 1 0.663311 0.893924 0.702561
362 2 0.311681 0.171423 0.0352734
363 1 0.714198 0.788245 0.810504
364 2 0.739514 0.815751 0.748093
365 2 0.754545 0.762599 0.675943
366 2 0.712021 0.834366 0.702918
367 1 0.372817 0.694126 0.0506791
368 1 0.648516 0.806544 0.722736
369 2 0.292531 0.0635407 0.379151
370 2 0.670248 0.881264 0.660386
371 2 0.74846 0.818523 0.662792
372 1 0.828345 0.870831 0.703728
373 2 0.744483 0.842273 0.660939
374 2 0.680424 0.81745 0.151808
375 2 0.772122 0.775871 0.716753
376 2 0.762473 0.756331 0.684913
377 2 0.6344 0.761334 0.600442
378 2 0.72385 0.788093 0.675926
379 2 0.75717 0.8292 0.674072
380 2 0.72434 0.772696 0.682376
381 2 0.728222 0.787115 0.716983
382 2 0.175593 0.741812 0.385327
383 2 0.714979 0.757637 0.649761
384 1 0.990243 0.609445 0.169109
385 2 0.699627 0.820954 0.664573
386 2 0.919051 0.740328 0.688675
387 1 0.18669 0.876097 0.965799
388 2 0.727483 0.808 0.715222
389 2 0.745982 0.844278 0.716924
390 2 0.686073 0.786637 0.705004
391 2 0.734708 0.793503 0.672629
392 1 0.845883 0.799295 0.737875
393 2 0.982981 0.323454 0.475872
394 2 0.717284 0.753229 0.681387
395 2 0.734971 0.796737 0.75441
396 2 0.695962 0.814086 0.709918
397 2 0.753687 0.802824 0.637381
398 1 0.542682 0.637604 0.579276
399 1 0.823596 0.718101 0.686043
400 1 0.901246 0.365297 0.479441
401 2 0.684847 0.791853 0.668156
402 2 0.883086 0.274152 0.988777
403 2 0.701505 0.839552 0.727577
404 2 0.75036 0.807255 0.66241
405 2 0.175838 0.171748 0.142322
406 2 0.748788 0.790191 0.704073
407 2 0.785875 0.919394 0.0351703
408 2 0.747694 0.809878 0.678698
409 2 0.678655 0.805141 0.686025
410 2 0.76858 0.746759 0.69492
411 2 0.934138 0.0170995 0.652807
412 2 0.247204 0.759384 0.242567
413 2 0.723849 0.792878 0.65161
414 2 0.766187 0.791738 0.644214
415 2 0.706159 0.797945 0.671924
416 1 0.675912 0.8376 0.643184
417 2 0.780103 0.211501 0.203518
418 2 0.73572 0.764447 0.723904
419 2 0.722893 0.809127 0.752814
420 2 0.241293 0.0848309 0.216508
421 1 0.705223 0.84842 0.771499
422 1 0.757429 0.713253 0.702581
423 2 0.726313 0.747276 0.665577
424 2 0.686818 0.773272 0.723966
425 1 0.647559 0.816464 0.693039
426 2 0.0790849 0.646788 0.0271892
427 2 0.959099 0.601416 0.78879
428 2 0.532492 0.987614 0.916483
429 2 0.679548 0.80595 0.722878
430 2 0.733527 0.836442 0.717867
431 2 0.717795 0.780308 0.650381
432 1 0.772222 0.811118 0.772146
433 2 0.395305 0.845804 0.429312
434 1 0.887238 0.370377 0.655951
435 2 0.277039 0.555043 0.920851
436 2 0.774062 0.790628 0.67225
437 2 0.578037 0.110278 0.739166
438 2 0.272442 0.382398 0.265942
439 1 0.659235 0.703672 0.652257
440 2 0.742066 0.818649 0.698846
441 1 0.59405 0.0199968 0.925692
442 1 0.84131 0.830248 0.673822
443 1 0.962217 0.957788 0.901243
444 2 0.765917 0.781517 0.672773
445 2 0.583234 0.124271 0.578745
446 2 0.697503 0.812185 0.665325
447 2 0.760393 0.837288 0.680066
448 2 0.212425 0.901908 0.510725
449 1 0.0510659 0.912767 0.949478
450 2 0.735847 0.792705 0.699769
451 2 0.747345 0.758775 0.681967
452 2 0.739249 0.741952 0.727767
453 1 0.804639 0.786542 0.754639
454 2 0.719432 0.831355 0.674262
455 2 0.596744 0.497132 0.968913
456 2 0.471664 0.80236 0.224331
457 2 0.725804 0.774106 0.698097
458 2 0.715878 0.769731 0.666445
459 2 0.748636 0.787488 0.736976
460 2 0.770602 0.799096 0.653148
461 2 0.980286 0.308413 0.763988
462 2 0.757266 0.777357 0.687229
463 1 0.719794 0.870397 0.631273
464 2 0.911799 0.116043 0.328985
465 2 0.705339 0.794233 0.688749
466 2 0.770869 0.828595 0.664458
467 1 0.739259 0.777868 0.785919
468 2 0.888905 0.719448 0.180175
469 2 0.761042 0.833811 0.74797
470 2 0.718751 0.77844 0.704121
471 2 0.788528 0.780336 0.665456
472 2 0.76584 0.817339 0.68214
473 1 0.780884 0.898148 0.741977
474 1 0.980124 0.571499 0.143562
475 1 0.210222 0.542165 0.0526662
476 2 0.726808 0.779369 0.745513
477 2 0.672968 0.802083 0.675675
478 2 0.719118 0.82118 0.674514
479 2 0.995794 0.128419 0.710753
480 2 0.680866 0.813375 0.695188
481 2 0.777514 0.831385 0.686892
482 2 0.023101 0.912739 0.582036
483 2 0.72657 0.813916 0.663243
484 1 0.703422 0.841903 0.636778
485 1 0.792448 0.748903 0.775956
486 2 0.724377 0.772683 0.637618
487 2 0.766213 0.76141 0.660722
488 2 0.771184 0.804883 0.699507
489 2 0.748797 0.787635 0.647849
490 2 0.735149 0.849026 0.683774
491 2 0.738435 0.785111 0.675401
492 2 0.761748 0.796499 0.737029
493 2 0.754903 0.824926 0.689838
494 2 0.720647 0.781638 0.719674
495 2 0.715669 0.740023 0.690537
496 2 0.729909 0.859735 0.691899
497 2 0.876993 0.562786 0.85157
498 1 0.8211 0.783287 0.711256
499 2 0.708141 0.80964 0.712797
500 2 0.74772 0.830981 0.670643
501 1 0.782232 0.72904 0.6811
502 2 0.755166 0.797744 0.653147
503 2 0.728989 0.842058 0.690352
504 1 0.673707 0.81487 0.59796
505 2 0.719658 0.848139 0.711344
506 2 0.768654 0.816847 0.719183
507 2 0.721818 0.818942 0.737459
508 2 0.711303 0.769273 0.684654
509 1 0.690164 0.744209 0.757767
510 2 0.697671 0.786763 0.647944
511 2 0.690946 0.787956 0.73145
512 2 0.743465 0.801821 0.701026
513 1 0.351132 0.445465 0.494625
514 2 0.687645 0.818924 0.675911
515 1 0.731152 0.685682 0.716291
516 2 0.69174 0.810126 0.716058
517 1 0.734692 0.827996 0.581602
518 2 0.763316 0.797334 0.69071
519 2 0.713578 0.821322 0.713727
520 2 0.681102 0.812833 0.723383
521 2 0.205243 0.785701 0.544068
522 2 0.760625 0.775746 0.742232
523 2 0.712051 0.815124 0.67469
524 2 0.729601 0.776246 0.756303
525 2 0.764855 0.81442 0.728069
526 2 0.184253 0.693594 0.5547
527 2 0.712989 0.836302 0.68718
528 1 0.521163 0.441059 0.0241982
529 2 0.754772 0.807859 0.737207
530 2 0.742112 0.779131 0.690637
531 2 0.711668 0.773681 0.681729
532 2 0.782223 0.784693 0.724741
533 2 0.733506 0.71876 0.438696
534 1 0.674575 0.869943 0.622262
535 2 0.749726 0.823426 0.682713
536 1 0.691614 0.870818 0.649645
537 1 0.654096 0.840041 0.725715
538 2 0.719782 0.853228 0.733921
539 2 0.757027 0.820224 0.696718
540 2 0.36427 0.498086 0.283345
541 1 0.748699 0.718747 0.675518
542 2 0.704951 0.74871 0.694755
543 1 0.0759594 0.209299 0.688789
544 1 0.800439 0.777838 0.643072
545 2 0.775081 0.814373 0.706475
546 2 0.784635 0.796421 0.702821
547 2 0.105161 0.414646 0.658203
548 2 0.753396 0.800551 0.752973
549 2 0.741695 0.744557 0.705646
550 2 0.320061 0.277438 0.169464
551 1 0.787357 0.896308 0.649032
552 2 0.483363 0.865796 0.689259
553 2 0.758743 0.778088 0.694453
554 2 0.722735 0.831311 0.70709
555 1 0.1339 0.40833 0.0249334
556 2 0.997191 0.460205 0.225076
557 2 0.783468 0.812873 0.722814
558 1 0.700549 0.8869 0.715481
559 2 0.745862 0.79438 0.654618
560 2 0.708064 0.837208 0.66081
561 2 0.742858 0.764536 0.668841
562 1 0.746699 0.857985 0.637846
563 2 0.782239 0.811768 0.734339
564 2 0.97359 0.622027 0.652378
565 2 0.719028 0.809704 0.669637
566 2 0.497433 0.447183 0.192278
567 2 0.720614 0.831196 0.660387
568 2 0.733522 0.845498 0.702611
569 1 0.657547 0.856218 0.677575
570 2 0.777306 0.812402 0.676071
571 2 0.462884 0.632976 0.252058
572 2 0.685419 0.792322 0.726961
573 2 0.742495 0.841125 0.700467
574 2 0.958095 0.961997 0.146698
575 1 0.270571 0.904878 0.487947
576 2 0.768742 0.793382 0.680479
577 2 0.727365 0.801266 0.722897
578 1 0.655874 0.741316 0.729931
579 2 0.77578 0.768744 0.721902
580 1 0.630802 0.741206 0.673339
581 2 0.204027 0.0552368 0.850382
582 2 0.698922 0.816096 0.686147
583 1 0.741599 0.948876 0.759552
584 2 0.720974 0.806086 0.741194
585 1 0.721656 0.877635 0.786221
586 2 0.75158 0.770134 0.717072
587 2 0.715743 0.782172 0.671742
588 2 0.979956 0.00419509 0.915683
589 1 0.789433 0.738517 0.624426
590 1 0.667805 0.747875 0.671756
591 1 0.715661 0.722833 0.753866
592 2 0.78782 0.234285 0.0461996
593 2 0.719869 0.804929 0.704625
594 1 0.867414 0.801052 0.0879415
595 1 0.766502 0.440213 0.850812
596 2 0.760325 0.915281 0.810256
597 1 0.446069 0.781296 0.895824
598 2 0.72264 0.785536 0.752626
599 2 0.717765 0.828052 0.692089
600 2 0.720184 0.854832 0.682485
601 2 0.743166 0.799812 0.720822
602 1 0.754376 0.870364 0.606548
603 2 0.726238 0.794281 0.699319
604 1 0.29106 0.269648 0.219164
605 2 0.802571 0.511086 0.516177
606 2 0.310376 0.770015 0.293032
607 1 0.864714 0.79271 0.693631
608 2 0.175809 0.669398 0.588146
609 2 0.729159 0.808542 0.643502
610 2 0.727027 0.846589 0.66437
611 2 0.699093 0.780722 0.746018
612 1 0.850234 0.0376638 0.0285553
613 2 0.871846 0.683786 0.740321
614 1 0.853488 0.0949006 0.410169
615 2 0.957543 0.771444 0.11387
616 1 0.661617 0.748037 0.627909
617 2 0.699424 0.80375 0.729889
618 2 0.805775 0.788935 0.0503171
619 2 0.292029 0.678238 0.913453
620 2 0.882876 0.682851 0.00898126
621 2 0.759953 0.777536 0.658655
622 2 0.731 0.787285 0.648909
623 1 0.452718 0.263446 0.0966171
624 2 0.745787 0.769497 0.730564
625 2 0.142473 0.556754 0.484182
626 2 0.516054 0.439997 0.157064
627 2 0.705674 0.770961 0.667648
628 2 0.101617 0.276749 0.195517
629 2 0.77802 0.814516 0.661345
630 1 0.68884 0.864408 0.736558
631 2 0.726046 0.848846 0.672373
632 2 0.740855 0.778866 0.666748
633 2 0.743806 0.76914 0.68204
634 2 0.751048 0.965064 0.978211
635 2 0.680501 0.376825 0.141227
636 2 0.699384 0.780861 0.729534
637 2 0.728702 0.748953 0.70113
638 1 0.0334073 0.303126 0.28313
639 2 0.733666 0.773355 0.716852
640 2 0.750002 0.75309 0.721612
641 2 0.742649 0.834176 0.659001
642 2 0.784589 0.770604 0.678746
643 2 0.814421 0.491801 0.409279
644 2 0.692684 0.765359 0.677543
645 1 0.793885 0.825644 0.748658
646 2 0.695106 0.815112 0.702035
647 1 0.673416 0.786749 0.757148
648 2 0.365835 0.0316631 0.484839
649 2 0.744014 0.786713 0.704689
650 2 0.705999 0.805866 0.738268
651 2 0.765751 0.849304 0.695904
652 2 0.770662 0.819775 0.695055
653 2 0.743516 0.838554 0.738091
654 1 0.79997 0.750296 0.660452
655 2 0.0472898 0.00651642 0.83972
656 2 0.691536 0.803007 0.671596
657 2 0.119804 0.366461 0.515029
658 2 0.763089 0.837808 0.722778
659 2 0.693239 0.782846 0.68188
660 2 0.410084 0.960456 0.248286
661 1 0.988148 0.546556 0.425687
662 2 0.767457 0.780371 0.72303
663 2 0.704315 0.764292 0.726344
664 1 0.321648 0.865147 0.355508
665 2 0.0925267 0.0706004 0.168065
666 2 0.722697 0.811106 0.646951
667 2 0.700705 0.785547 0.719548
668 2 0.693055 0.79949 0.693851
669 2 0.12248 0.257052 0.128231
670 1 0.351734 0.704092 0.917447
671 2 0.46456 0.103949 0.00251613
672 1 0.762301 0.831737 0.621887
673 2 0.772423 0.806671 0.684609
674 2 0.728584 0.814527 0.712266
675 2 0.785343 0.181489 0.0957875
676 1 0.807334 0.00204537 0.728569
677 2 0.705234 0.747619 0.721703
678 2 0.719727 0.802815 0.711862
679 1 0.628693 0.956468 0.905259
680 2 0.719582 0.813866 0.706677
681 1 0.731248 0.830417 0.617553
682 1 0.796939 0.702604 0.709181
683 2 0.548801 0.174606 0.167968
684 2 0.33181 0.625398 0.310122
685 2 0.690788 0.818232 0.692232
686 2 0.0564651 0.269956 0.467321
687 1 0.691013 0.691554 0.686573
688 2 0.194791 0.425044 0.224629
689 2 0.77502 0.805848 0.714589
690 2 0.748569 0.755687 0.695411
691 2 0.704292 0.833022 0.738299
692 1 0.666746 0.815096 0.746495
693 2 0.738053 0.821975 0.645363
694 2 0.713878 0.765903 0.719638
695 1 0.631419 0.776925 0.756207
696 2 0.579556 0.165607 0.535382
697 2 0.236802 0.566114 0.302908
698 2 0.73178 0.781927 0.722648
699 2 0.718387 0.805862 0.694972
700 1 0.655835 0.748688 0.772487
701 2 0.758939 0.777399 0.710461
702 2 0.735419 0.799498 0.73384
703 2 0.771953 0.758674 0.667425
704 2 0.08789 0.350541 0.523866
705 2 0.750282 0.796819 0.71978
706 2 0.789583 0.79235 0.681698
707 2 0.800624 0.21067 0.988687
708 1 0.810058 0.815391 0.719078
709 2 0.524361 0.475767 0.0855098
710 2 0.782767 0.800765 0.725512
711 2 0.692611 0.80418 0.655878
712 1 0.801329 0.843467 0.669288
713 2 0.76448 0.81644 0.665961
714 1 0.77564 0.861634 0.656031
715 2 0.676026 0.776198 0.686576
716 1 0.57364 0.721904 0.852652
717 2 0.7212 0.758165 0.711854
718 2 0.704935 0.38412 0.395547
719 2 0.714657 0.79474 0.678548
720 2 0.760071 0.831527 0.700382
721 2 0.737083 0.821224 0.723339
722 1 0.0642513 0.871257 0.670831
723 2 0.116743 0.332544 0.229754
724 2 0.703821 0.772582 0.724758
725 2 0.185955 0.829973 0.144714
726 2 0.73033 0.830546 0.672669
727 1 0.0992504 0.289946 0.916379
728 1 0.770507 0.234222 0.173467
729 1 0.746774 0.809098 0.793579
730 1 0.686352 0.816882 0.770781
731 2 0.760363 0.817501 0.731755
732 1 0.540719 0.817234 0.224897
733 2 0.699856 0.845615 0.699006
734 2 0.694886 0.794372 0.746656
735 2 0.78122 0.824924 0.707168
736 1 0.741337 0.738351 0.786074
737 2 0.743615 0.772123 0.711781
738 2 0.685655 0.776013 0.673223
739 2 0.756089 0.794016 0.745423
740 2 0.771202 0.783275 0.687945
741 2 0.720845 0.784242 0.739115
742 1 0.66333 0.825246 0.66372
743 2 0.757857 0.796013 0.698426
744 2 0.733987 0.773375 0.676753
745 2 0.687263 0.80681 0.687142
746 1 0.677726 0.702746 0.757878
747 2 0.757527 0.180665 0.109405
748 2 0.749054 0.807692 0.717115
749 2 0.774047 0.839547 0.696579
750 2 0.53769 0.0803057 0.245087
751 2 0.700894 0.808368 0.746539
752 2 0.683444 0.774172 0.713675
753 2 0.764121 0.772463 0.731612
754 2 0.148543 0.448607 0.478008
755 2 0.739452 0.780868 0.714554
756 2 0.754766 0.822073 0.653628
757 2 0.758234 0.815577 0.719516
758 2 0.705465 0.842375 0.708465
759 2 0.6842 0.80916 0.707107
760 1 0.302321 0.850669 0.104222
761 2 0.7187 0.776867 0.734074
762 2 0.723247 0.76806 0.648559
763 1 0.506289 0.912757 0.494551
764 2 0.711899 0.760411 0.694572
765 2 0.69158 0.787184 0.659529
766 2 0.719328 0.847092 0.693985
767 2 0.118597 0.125378 0.861289
768 2 0.730849 0.751323 0.727007
769 2 0.717548 0.812067 0.69093
770 2 0.742145 0.823373 0.727246
771 2 0.108052 0.777783 0.33062
772 2 0.430226 0.854151 0.811311
773 1 0.825769 0.753155 0.744047
774 2 0.280365 0.0733444 0.501096
775 2 0.638708 0.297133 0.726823
776 2 0.74058 0.803964 0.657919
777 1 0.648129 0.766486 0.703249
778 2 0.754664 0.856102 0.711969
779 2 0.978281 0.193806 0.902903
780 1 0.754971 0.795311 0.61342
781 2 0.701568 0.776143 0.708182
782 2 0.774396 0.212141 0.0564709
783 1 0.696937 0.724901 0.676624
784 2 0.745273 0.814408 0.652772
785 2 0.737034 0.840272 0.686065
786 1 0.781207 0.777891 0.768502
787 2 0.776491 0.763743 0.681293
788 2 0.745716 0.827671 0.695142
789 2 0.179808 0.854326 0.214863
790 2 0.678586 0.827574 0.697479
791 1 0.793398 0.759451 0.737376
792 2 0.775995 0.78505 0.71379
793 2 0.133855 0.464229 0.326342
794 2 0.742009 0.777555 0.705947
795 2 0.727117 0.797744 0.69016
796 2 0.677785 0.765326 0.711557
797 2 0.747703 0.789846 0.666053
798 2 0.889555 0.74524 0.524808
799 2 0.73015 0.786862 0.704041
800 2 0.971553 0.469039 0.161479
801 2 0.703603 0.799656 0.694788
802 2 0.674767 0.808805 0.708231
803 2 0.771064 0.800573 0.732959
804 2 0.515136 0.56391 0.628648
805 2 0.914312 0.54521 0.591085
806 1 0.0683515 0.99698 0.379462
807 2 0.730919 0.76651 0.731636
808 2 0.712057 0.796625 0.721369
809 1 0.786981 0.737244 0.716395
810 2 0.717227 0.790483 0.638627
811 2 0.734845 0.780092 0.66138
812 2 0.756428 0.806159 0.741068
813 1 0.44187 0.338773 0.99551
814 2 0.774416 0.786239 0.697691
815 2 0.733327 0.791136 0.656447
816 1 0.809666 0.80729 0.652633
817 1 0.740171 0.837442 0.7771
818 2 0.775376 0.818577 0.715326
819 1 0.760632 0.882744 0.692381
820 1 0.638994 0.792231 0.634602
821 2 0.69761 0.796387 0.680411
822 2 0.697298 0.776899 0.659535
823 1 0.795369 0.828814 0.634224
824 2 0.852887 0.704351 0.924986
825 2 0.72107 0.839017 0.677145
826 2 0.761869 0.410665 0.337969
827 1 0.626023 0.829413 0.657111
828 2 0.787751 0.817176 0.680749
829 2 0.750459 0.742217 0.688655
830 2 0.551745 0.182734 0.449564
831 1 0.69857 0.779327 0.581136
832 2 0.750484 0.754396 0.659827
833 1 0.74272 0.880096 0.65979
834 2 0.720166 0.80516 0.659944
835 2 0.827565 0.228195 0.0233678
836 2 0.734706 0.807845 0.718646
837 2 0.739201 0.772787 0.751507
838 2 0.724002 0.792066 0.712834
839 2 0.726029 0.779075 0.146019
840 2 0.68938 0.773169 0.695521
841 2 0.701931 0.838244 0.696492
842 2 0.70169 0.0497219 0.544765
843 2 0.750901 0.818004 0.69859
844 2 0.745595 0.774408 0.68072
845 2 0.753545 0.781546 0.675219
846 2 0.771564 0.797274 0.720164
847 2 0.774615 0.7798 0.658304
848 2 0.737011 0.766091 0.64512
849 1 0.675861 0.789471 0.794088
850 2 0.754744 0.836542 0.653789
851 2 0.692007 0.790236 0.693129
852 2 0.720566 0.766043 0.670439
853 1 0.662415 0.776912 0.735273
854 2 0.194499 0.450154 0.805039
855 2 0.783032 0.782662 0.697976
856 2 0.7195 0.821243 0.645272
857 2 0.697229 0.774648 0.681823
858 2 0.766737 0.804377 0.663113
859 2 0.709243 0.822001 0.664454
860 2 0.495352 0.138799 0.550805
861 2 0.746203 0.822542 0.716604
862 2 0.618641 0.117434 0.458861
863 2 0.733766 0.803229 0.699121
864 2 0.718007 0.823204 0.750029
865 2 0.755778 0.785591 0.706957
866 2 0.746004 0.793346 0.689841
867 2 0.13129 0.237 0.0522233
868 2 0.767626 0.789074 0.746209
869 2 0.745134 0.840789 0.684384
870 2 0.739802 0.796485 0.638912
871 2 0.708055 0.775731 0.720793
872 2 0.681834 0.776351 0.694095
873 2 0.774776 0.766656 0.706749
874 2 0.78513 0.821751 0.69115
875 2 0.510581 0.664339 0.609915
876 2 0.681617 0.825284 0.679408
877 2 0.697117 0.801597 0.714442
878 2 0.702884 0.82646 0.705594
879 2 0.711547 0.791201 0.661142
880 2 0.508773 0.382131 0.994376
881 2 0.74957 0.794629 0.668087
882 1 0.163778 0.348959 0.959266
883 1 0.5178 0.764332 0.18851
884 2 0.339368 0.866919 0.627248
885 2 0.731797 0.791206 0.736567
886 2 0.769111 0.771726 0.692958
887 1 0.686305 0.265625 0.0676791
888 2 0.0511524 0.792716 0.442511
889 2 0.427996 0.240354 0.785873
890 1 0.617325 0.788963 0.69891
891 2 0.617703 0.575561 0.819393
892 2 0.76286 0.822911 0.678369
893 2 0.713166 0.776409 0.710879
894 2 0.696245 0.794909 0.651736
895 1 0.823143 0.778021 0.675304
896 2 0.690175 0.832543 0.661045
897 2 0.736272 0.85301 0.714002
898 2 0.741901 0.753409 0.712331
899 2 0.956894 0.686492 0.711383
900 2 0.731283 0.773889 0.702267
901 2 0.741552 0.766809 0.694615
902 2 0.764328 0.801198 0.713894
903 2 0.714454 0.820698 0.734322
904 2 0.71106 0.789683 0.727235
905 2 0.735818 0.827788 0.653767
906 2 0.746906 0.818596 0.755896
907 2 0.77347 0.832278 0.728262
908 1 0.750463 0.72574 0.734134
909 2 0.74284 0.777042 0.649364