ITEM: TIMESTEP
65800
ITEM: NUMBER OF ATOMS
1000
ITEM: BOX BOUNDS xy xz yz pp pp pp
0.0000000000000000e+00 1.3572088000000001e+01 0.0000000000000000e+00
0.0000000000000000e+00 1.3572088000000001e+01 0.0000000000000000e+00
0.0000000000000000e+00 1.3572088000000001e+01 0.0000000000000000e+00
ITEM: ATOMS id type xs ys zs
1 2 0.399933 0.234072 0.192161
2 2 0.762212 0.757634 0.675209
3 1 0.642605 0.798235 0.747605
4 2 0.758096 0.116572 0.736495
5 2 0.694209 0.828554 0.687649
6 1 0.739004 0.943102 0.676391
7 2 0.679558 0.764335 0.720178
8 2 0.714281 0.801541 0.67655
9 2 0.691724 0.468031 0.620043
10 2 0.730384 0.829292 0.706318
11 2 0.766835 0.78023 0.729071
12 2 0.744188 0.750777 0.7168
13 2 0.7504 0.805111 0.697727
14 1 0.757115 0.733552 0.654413
15 2 0.758597 0.842164 0.693292
16 2 0.941455 0.875751 0.312612
17 1 0.740559 0.873944 0.651107
18 2 0.741375 0.799144 0.691849
19 2 0.916429 0.104522 0.682765
20 2 0.69695 0.750287 0.684241
21 2 0.715474 0.743757 0.684298
22 2 0.778985 0.0941462 0.970503
23 2 0.266687 0.208612 0.946399
24 2 0.735975 0.748017 0.699028
25 1 0.776563 0.91854 0.130406
26 2 0.718241 0.817537 0.662414
27 2 0.699231 0.761775 0.732573
28 2 0.726954 0.79498 0.741861
29 2 0.974785 0.84975 0.00768805
30 2 0.674812 0.789316 0.688276
31 1 0.645761 0.714821 0.714285
32 1 0.743929 0.867022 0.752858
33 1 0.75428 0.763255 0.766712
34 2 0.751118 0.776755 0.699971
35 2 0.771798 0.789754 0.654918
36 1 0.669998 0.743221 0.625217
37 2 0.755971 0.797537 0.713199
38 2 0.700222 0.82228 0.69488
39 2 0.361146 0.470442 0.41757
40 2 0.716747 0.766788 0.712807
41 2 0.718125 0.808023 0.718721
42 2 0.720791 0.82333 0.726735
43 2 0.804597 0.0204069 0.234449
44 2 0.406995 0.00570437 0.771406
45 2 0.770037 0.826819 0.710704
46 1 0.477789 0.99121 0.230416
47 2 0.785962 0.817981 0.698032
48 2 0.710291 0.796482 0.670966
49 2 0.725117 0.131609 0.153034
50 2 0.755158 0.763857 0.706366
51 2 0.611157 0.882309 0.683111
52 2 0.540628 0.113433 0.230968
53 2 0.600601 0.167765 0.0806789
54 2 0.700815 0.850871 0.687457
55 1 0.766876 0.69512 0.768284
56 1 0.68568 0.818071 0.619673
57 2 0.703038 0.751549 0.702822
58 2 0.686739 0.789768 0.695804
59 2 0.772682 0.825309 0.683822
60 2 0.6905 0.850014 0.697449
61 2 0.263061 0.580099 0.180859
62 2 0.703234 0.81879 0.686889
63 2 0.742301 0.783076 0.64279
64 2 0.733094 0.809138 0.721647
65 2 0.726219 0.816236 0.673764
66 1 0.787861 0.867962 0.692866
67 2 0.671922 0.793098 0.701109
68 2 0.719528 0.784232 0.736009
69 1 0.689655 0.893675 0.758457
70 2 0.747529 0.858702 0.692659
71 1 0.676893 0.862087 0.595686
72 2 0.78787 0.779497 0.697722
73 2 0.696051 0.79168 0.707448
74 2 0.706009 0.795836 0.70082
75 2 0.0690294 0.4399 0.817605
76 2 0.706907 0.79908 0.682274
77 1 0.822616 0.846101 0.674363
78 2 0.849 0.100803 0.481527
79 2 0.692613 0.844288 0.725531
80 2 0.118452 0.438889 0.269562
81 2 0.698259 0.779158 0.664652
82 2 0.71938 0.822393 0.673553
83 2 0.71994 0.834474 0.730954
84 2 0.699184 0.799541 0.693229
85 1 0.726311 0.692143 0.675735
86 2 0.703561 0.798858 0.642234
87 2 0.701095 0.815172 0.65917
88 2 0.76265 0.824347 0.652762
89 2 0.714455 0.760935 0.736425
90 2 0.732284 0.772336 0.745727
91 2 0.036293 0.439891 0.427368
92 2 0.752081 0.811288 0.670752
93 2 0.719104 0.748632 0.702021
94 1 0.270589 0.804215 0.953697
95 2 0.884584 0.214261 0.747459
96 2 0.709257 0.835303 0.724292
97 2 0.746628 0.746216 0.709652
98 2 0.76343 0.794243 0.690725
99 2 0.390324 0.934962 0.492033
100 2 0.689999 0.789619 0.74136
101 1 0.386864 0.190163 0.579039
102 2 0.211254 0.763473 0.659576
103 2 0.786053 0.774117 0.701678
104 2 0.715303 0.749117 0.718516
105 2 0.727006 0.79039 0.663655
106 2 0.589943 0.912055 0.0860851
107 2 0.857262 0.644544 0.294272
108 2 0.763926 0.816967 0.651667
109 2 0.754256 0.794372 0.680547
110 2 0.699737 0.765703 0.701127
111 2 0.886321 0.426811 0.718625
112 1 0.731061 0.845714 0.625874
113 1 0.701561 0.733093 0.647926
114 2 0.780483 0.776801 0.718867
115 2 0.755026 0.115955 0.212375
116 2 0.753923 0.780306 0.724194
117 2 0.530486 0.316668 0.0975308
118 2 0.736278 0.790558 0.688901
119 2 0.74519 0.158662 0.45303
120 2 0.734739 0.809846 0.65968
121 2 0.708642 0.764401 0.697001
122 2 0.711046 0.818735 0.664558
123 2 0.740508 0.820326 0.701838
124 2 0.732564 0.84268 0.648339
125 1 0.82286 0.808493 0.61756
126 2 0.683679 0.77997 0.671858
127 2 0.742116 0.813346 0.721172
128 2 0.716028 0.846272 0.710468
129 1 0.143639 0.965181 0.960579
130 2 0.405835 0.493176 0.612929
131 2 0.727747 0.830566 0.717078
132 2 0.726202 0.797834 0.695777
133 2 0.769817 0.77206 0.679263
134 2 0.355208 0.662965 0.314914
135 2 0.729973 0.806106 0.73771
136 2 0.778729 0.81869 0.721244
137 1 0.637041 0.862834 0.740722
138 2 0.708308 0.781309 0.689678
139 2 0.722392 0.834736 0.700541
140 1 0.73811 0.697707 0.623851
141 2 0.71089 0.832191 0.673568
142 2 0.740971 0.842869 0.701592
143 2 0.0983741 0.0253517 0.437212
144 2 0.771284 0.791592 0.735996
145 2 0.773247 0.813517 0.656421
146 2 0.676621 0.781486 0.720707
147 1 0.287846 0.862453 0.380301
148 1 0.706918 0.757529 0.627854
149 2 0.719457 0.77172 0.676588
150 1 0.765847 0.720506 0.717326
151 2 0.694477 0.794121 0.672585
152 2 0.749871 0.808999 0.676991
153 1 0.762512 0.872735 0.725836
154 1 0.393426 0.537998 0.125285
155 2 0.776771 0.771232 0.663766
156 2 0.763238 0.84701 0.683052
157 2 0.776184 0.83941 0.673625
158 2 0.735264 0.591581 0.654914
159 2 0.717072 0.805906 0.725863
160 2 0.701173 0.805356 0.675334
161 2 0.703696 0.760786 0.679563
162 2 0.712558 0.805072 0.705415
163 2 0.699682 0.759388 0.689941
164 2 0.771635 0.753154 0.696627
165 2 0.746421 0.854156 0.675313
166 2 0.701306 0.827919 0.673374
167 2 0.467184 0.42263 0.184311
168 2 0.743743 0.769256 0.733161
169 2 0.346611 0.714506 0.587291
170 2 0.662521 0.946014 0.404617
171 2 0.719398 0.810516 0.646905
172 2 0.1828 0.568292 0.434343
173 1 0.67887 0.706497 0.677864
174 2 0.718797 0.816163 0.684399
175 2 0.144305 0.329772 0.384357
176 2 0.680596 0.773831 0.709219
177 1 0.207694 0.991119 0.965358
178 2 0.725891 0.408411 0.173519
179 2 0.881485 0.15403 0.876693
180 2 0.752468 0.780029 0.657354
181 2 0.732674 0.830888 0.73275
182 2 0.729341 0.847923 0.719211
183 2 0.194405 0.652096 0.369253
184 2 0.719066 0.837432 0.698401
185 2 0.757963 0.789001 0.707007
186 2 0.746229 0.79327 0.692462
187 2 0.900623 0.110028 0.149618
188 1 0.694707 0.775403 0.772015
189 2 0.703562 0.80103 0.663248
190 2 0.764316 0.833149 0.67983
191 2 0.731055 0.825569 0.728411
192 2 0.674431 0.825354 0.689049
193 2 0.703482 0.819726 0.676669
194 2 0.747541 0.20631 0.126958
195 2 0.698364 0.761704 0.666067
196 2 0.676139 0.778733 0.67772
197 2 0.782171 0.791656 0.683894
198 2 0.751558 0.398974 0.120224
199 2 0.858837 0.939314 0.0725049
200 1 0.826358 0.81149 0.716177
201 2 0.729864 0.803336 0.70809
202 2 0.831583 0.435493 0.873025
203 2 0.688283 0.7931 0.684224
204 2 0.71111 0.772471 0.734646
205 2 0.731926 0.843797 0.736828
206 2 0.707903 0.761895 0.706025
207 2 0.992653 0.481794 0.651944
208 2 0.709437 0.813245 0.74173
209 2 0.741797 0.793558 0.679424
210 2 0.764824 0.776208 0.678391
211 2 0.393528 0.595837 0.682464
212 1 0.691025 0.888063 0.704918
213 2 0.743733 0.772817 0.690904
214 2 0.736137 0.77415 0.706826
215 2 0.743191 0.751819 0.666649
216 2 0.716743 0.770271 0.687909
217 2 0.704935 0.791195 0.708979
218 2 0.719098 0.834474 0.745378
219 2 0.717776 0.857122 0.704421
220 2 0.75621 0.818325 0.741507
221 2 0.718362 0.836489 0.667536
222 2 0.0817634 0.939614 0.260458
223 2 0.727979 0.755162 0.677577
224 2 0.693464 0.824217 0.710014
225 1 0.805722 0.846755 0.706064
226 2 0.693319 0.767744 0.676741
227 2 0.687223 0.772075 0.657104
228 2 0.727663 0.854831 0.680608
229 2 0.699258 0.776821 0.713381
230 1 0.773481 0.873977 0.669638
231 2 0.730209 0.77623 0.697723
232 2 0.741294 0.815141 0.673445
233 1 0.7631 0.721325 0.682167
234 2 0.785696 0.789921 0.715912
235 2 0.756518 0.766678 0.688893
236 2 0.72948 0.859661 0.702704
237 2 0.863001 0.505425 0.929335
238 1 0.451672 0.345313 0.728633
239 1 0.737476 0.746064 0.630224
240 2 0.758002 0.790795 0.688471
241 2 0.689031 0.798798 0.692429
242 1 0.814272 0.77799 0.701644
243 1 0.812586 0.76808 0.629023
244 2 0.773383 0.803576 0.674196
245 2 0.649293 0.848698 0.765269
246 1 0.70118 0.734717 0.739509
247 2 0.756189 0.827769 0.735949
248 2 0.686698 0.813049 0.745666
249 2 0.688889 0.813501 0.727624
250 2 0.692533 0.801347 0.73874
251 2 0.707464 0.7731 0.727728
252 2 0.215834 0.0611277 0.86797
253 2 0.572259 0.729215 0.712224
254 2 0.727484 0.791065 0.720612
255 2 0.744941 0.77173 0.742717
256 2 0.721632 0.798596 0.732265
257 2 0.716235 0.82698 0.721645
258 2 0.783066 0.810686 0.665369
259 1 0.554325 0.920046 0.189233
260 2 0.729139 0.793804 0.674264
261 1 0.70622 0.706704 0.763034
262 2 0.349614 0.366083 0.868739
263 2 0.750467 0.813199 0.712823
264 2 0.0937848 0.419021 0.812271
265 1 0.707007 0.724887 0.690632
266 2 0.777499 0.831335 0.731532
267 2 0.725724 0.790919 0.708378
268 1 0.660487 0.771518 0.647445
269 1 0.308144 0.913348 0.314444
270 2 0.867892 0.914158 0.118754
271 2 0.612513 0.901932 0.401837
272 2 0.696509 0.822027 0.728545
273 1 0.721909 0.89656 0.687795
274 2 0.735452 0.802295 0.678845
275 2 0.724373 0.797503 0.676588
276 2 0.706155 0.782159 0.694624
277 2 0.762441 0.779701 0.711901
278 2 0.995291 0.31849 0.278632
279 2 0.701045 0.832646 0.727208
280 1 0.692631 0.69916 0.636081
281 2 0.943652 0.750387 0.163756
282 2 0.720924 0.765871 0.700868
283 2 0.696372 0.391528 0.843803
284 1 0.770261 0.836451 0.7615
285 2 0.740766 0.812124 0.755618
286 2 0.700376 0.773091 0.664764
287 1 0.68253 0.218117 0.0871042
288 2 0.712933 0.80715 0.703447
289 2 0.732004 0.815843 0.688811
290 2 0.710694 0.803085 0.653419
291 2 0.728607 0.839908 0.670197
292 2 0.655462 0.159355 0.710051
293 2 0.732549 0.774051 0.68661
294 2 0.752604 0.774219 0.709214
295 2 0.7404 0.792306 0.737111
296 2 0.0107626 0.178362 0.461093
297 2 0.683456 0.827685 0.667597
298 2 0.745456 0.817713 0.669298
299 1 0.661814 0.744027 0.731199
300 2 0.698564 0.811134 0.640636
301 2 0.695807 0.780045 0.745456
302 2 0.571759 0.395512 0.772407
303 2 0.696609 0.778478 0.700383
304 1 0.802557 0.143976 0.104641
305 2 0.7141 0.846683 0.684905
306 2 0.717807 0.822627 0.754942
307 2 0.636801 0.254457 0.925459
308 2 0.364908 0.124304 0.977031
309 2 0.755393 0.754171 0.720688
310 2 0.731751 0.830176 0.689873
311 2 0.767287 0.820329 0.702018
312 2 0.691161 0.787177 0.716818
313 2 0.744951 0.835608 0.717745
314 2 0.65365 0.157789 0.497359
315 2 0.776353 0.786617 0.721639
316 2 0.740828 0.767678 0.691373
317 2 0.718692 0.795835 0.693476
318 2 0.866898 0.450105 0.926081
319 2 0.724142 0.809961 0.690182
320 2 0.760676 0.800562 0.708448
321 2 0.748159 0.853607 0.711436
322 2 0.754708 0.845988 0.719361
323 2 0.893708 0.319745 0.483516
324 2 0.0370874 0.0875021 0.458034
325 2 0.728398 0.802347 0.676027
326 2 0.708746 0.850779 0.715855
327 2 0.732053 0.739217 0.705723
328 2 0.731428 0.807894 0.703794
329 1 0.737701 0.156699 0.691309
330 2 0.726282 0.784495 0.656136
331 2 0.774174 0.813131 0.703812
332 2 0.727559 0.812372 0.71829
333 2 0.738751 0.857898 0.721606
334 2 0.690232 0.834525 0.686658
335 1 0.187796 0.449848 0.942813
336 2 0.740485 0.757905 0.704618
337 2 0.936516 0.996934 0.51014
338 1 0.650194 0.794978 0.660974
339 2 0.752653 0.81131 0.709246
340 2 0.746328 0.821703 0.738925
341 2 0.707455 0.848677 0.694247
342 2 0.749607 0.813817 0.703387
343 2 0.768712 0.838259 0.696681
344 1 0.758524 0.898257 0.76199
345 1 0.734948 0.775212 0.612807
346 1 0.722621 0.900868 0.649173
347 1 0.584953 0.456496 0.849991
348 2 0.753475 0.742138 0.693837
349 2 0.535571 0.764854 0.066642
350 2 0.919967 0.108871 0.0305513
351 2 0.744607 0.848349 0.700144
352 2 0.56878 0.0564207 0.261236
353 1 0.772519 0.729823 0.616232
354 1 0.566274 0.985761 0.054848
355 2 0.305401 0.667274 0.489777
356 2 0.751144 0.826981 0.709724
357 2 0.342899 0.818279 0.546727
358 2 0.938019 0.452747 0.403002
359 2 0.620269 0.0143863 0.634862
360 2 0.713475 0.798783 0.719084
361 1 0.721914 0.917575 0.72504
362 2 0.0803937 0.0789566 0.750092
363 1 0.727659 0.851657 0.798587
364 2 0.741984 0.831213 0.745773
365 2 0.750538 0.753816 0.673475
366 2 0.723295 0.843391 0.692181
367 1 0.475108 0.686292 0.980406
368 1 0.648476 0.842077 0.705192
369 2 0.405555 0.677006 0.483348
370 2 0.528027 0.826997 0.833222
371 2 0.741652 0.806541 0.651549
372 1 0.781376 0.9073 0.656651
373 2 0.774063 0.828855 0.644919
374 2 0.734466 0.75491 0.994618
375 2 0.757472 0.793327 0.747337
376 2 0.72666 0.755363 0.708329
377 2 0.883912 0.117716 0.734756
378 2 0.716095 0.786101 0.676098
379 2 0.76672 0.81848 0.676767
380 2 0.716458 0.773883 0.6998
381 2 0.71424 0.791113 0.726536
382 2 0.249713 0.458235 0.790261
383 2 0.7092 0.757547 0.68144
384 1 0.00342206 0.467143 0.410071
385 2 0.712651 0.819191 0.654836
386 2 0.425806 0.593969 0.413471
387 1 0.0445683 0.922072 0.972089
388 2 0.704819 0.823535 0.714297
389 2 0.760005 0.840956 0.717538
390 2 0.673675 0.814874 0.680383
391 2 0.721199 0.791092 0.675271
392 1 0.783512 0.779933 0.791419
393 2 0.946109 0.285882 0.715668
394 2 0.679224 0.772566 0.692888
395 2 0.727175 0.823815 0.74474
396 2 0.687438 0.839718 0.711512
397 2 0.737138 0.778259 0.649208
398 1 0.577597 0.583573 0.621095
399 1 0.810131 0.720968 0.726218
400 1 0.979803 0.523668 0.430098
401 2 0.676927 0.812054 0.656668
402 2 0.709559 0.031864 0.985239
403 2 0.719119 0.859439 0.706618
404 2 0.744128 0.79489 0.656226
405 2 0.293211 0.990269 0.149291
406 2 0.736859 0.795777 0.713168
407 2 0.615411 0.940256 0.392404
408 2 0.739201 0.801314 0.675259
409 2 0.675073 0.826856 0.670565
410 2 0.757144 0.759574 0.728333
411 2 0.844177 0.21971 0.620312
412 2 0.226726 0.727364 0.466945
413 2 0.714652 0.797079 0.652729
414 2 0.753504 0.765944 0.654005
415 2 0.709304 0.811003 0.670698
416 1 0.703966 0.840406 0.622848
417 2 0.788305 0.045255 0.998083
418 2 0.718187 0.778066 0.718912
419 2 0.731112 0.812775 0.731623
420 2 0.242116 0.236611 0.215208
421 1 0.713568 0.876634 0.732586
422 1 0.719086 0.719643 0.724055
423 2 0.68739 0.766558 0.693289
424 2 0.676155 0.805307 0.706399
425 1 0.672734 0.863542 0.685638
426 2 0.340107 0.386781 0.785369
427 2 0.154468 0.848972 0.97269
428 2 0.381118 0.187431 0.00386615
429 2 0.68321 0.817897 0.710186
430 2 0.738084 0.831103 0.700677
431 2 0.703226 0.78575 0.649627
432 1 0.78176 0.812511 0.777993
433 2 0.565874 0.702251 0.653469
434 1 0.988994 0.328192 0.62286
435 2 0.626667 0.453253 0.056506
436 2 0.74638 0.756714 0.676713
437 2 0.752487 0.112863 0.521227
438 2 0.326834 0.381061 0.273715
439 1 0.64817 0.746551 0.663231
440 2 0.742012 0.817991 0.681742
441 1 0.588007 0.0214408 0.963024
442 1 0.829232 0.784397 0.664193
443 1 0.925355 0.0172942 0.91026
444 2 0.752178 0.778523 0.668633
445 2 0.747096 0.156525 0.814
446 2 0.702612 0.829207 0.661894
447 2 0.761327 0.809091 0.674147
448 2 0.337943 0.0449561 0.431033
449 1 0.906505 0.777718 0.998439
450 2 0.733278 0.788128 0.692212
451 2 0.727327 0.76157 0.713765
452 2 0.720242 0.758408 0.734455
453 1 0.797943 0.818967 0.741421
454 2 0.736743 0.843279 0.651405
455 2 0.534366 0.440024 0.87356
456 2 0.480527 0.728875 0.991177
457 2 0.719484 0.780127 0.692754
458 2 0.698417 0.779114 0.680611
459 2 0.726709 0.787972 0.749945
460 2 0.767313 0.808612 0.665234
461 2 0.139226 0.227862 0.766916
462 2 0.741874 0.764749 0.676621
463 1 0.732473 0.846061 0.587756
464 2 0.206406 0.136458 0.383935
465 2 0.688232 0.818219 0.684675
466 2 0.763138 0.803113 0.659647
467 1 0.723357 0.802515 0.778138
468 2 0.780921 0.555826 0.353997
469 2 0.757645 0.833975 0.728841
470 2 0.715214 0.787478 0.715579
471 2 0.77429 0.765832 0.687705
472 2 0.758248 0.807411 0.693467
473 1 0.82807 0.877254 0.71338
474 1 0.866821 0.459589 0.129292
475 1 0.227863 0.534369 0.915154
476 2 0.717979 0.781595 0.74492
477 2 0.691213 0.812978 0.653892
478 2 0.740452 0.827621 0.669664
479 2 0.821011 0.190765 0.686052
480 2 0.696772 0.843894 0.684035
481 2 0.779453 0.82758 0.693097
482 2 0.97301 0.0445046 0.639357
483 2 0.729101 0.80193 0.658145
484 1 0.735356 0.813034 0.6089
485 1 0.789579 0.750469 0.826175
486 2 0.73443 0.765697 0.663791
487 2 0.741731 0.737156 0.690984
488 2 0.768373 0.794139 0.706525
489 2 0.740837 0.759862 0.652171
490 2 0.748461 0.848803 0.668401
491 2 0.729658 0.779754 0.673482
492 2 0.762085 0.79909 0.726309
493 2 0.753905 0.823273 0.683285
494 2 0.700454 0.819496 0.718387
495 2 0.683254 0.757539 0.696722
496 2 0.74498 0.843507 0.659915
497 2 0.202695 0.446343 0.839743
498 1 0.786142 0.748924 0.726478
499 2 0.715663 0.821906 0.686849
500 2 0.754277 0.813078 0.659869
501 1 0.742032 0.703355 0.70318
502 2 0.743546 0.789472 0.667345
503 2 0.73855 0.840957 0.675616
504 1 0.692728 0.816496 0.581648
505 2 0.753054 0.844383 0.682247
506 2 0.756575 0.800257 0.69586
507 2 0.732193 0.831023 0.739811
508 2 0.6979 0.793326 0.686054
509 1 0.692865 0.74852 0.768243
510 2 0.699062 0.791027 0.654401
511 2 0.68657 0.828668 0.731796
512 2 0.731844 0.802421 0.690118
513 1 0.324705 0.553788 0.408481
514 2 0.691444 0.828352 0.669498
515 1 0.702358 0.695604 0.713906
516 2 0.702056 0.828917 0.701568
517 1 0.737228 0.739159 0.58916
518 2 0.76665 0.786313 0.697779
519 2 0.70446 0.830818 0.698236
520 2 0.69099 0.839928 0.717907
521 2 0.480666 0.537362 0.49526
522 2 0.73146 0.786963 0.75513
523 2 0.713791 0.809006 0.672117
524 2 0.70707 0.789529 0.755547
525 2 0.763689 0.813012 0.717933
526 2 0.190729 0.781577 0.730805
527 2 0.727212 0.845703 0.679242
528 1 0.473911 0.450244 0.839794
529 2 0.771548 0.810593 0.725966
530 2 0.744179 0.795262 0.704708
531 2 0.71125 0.791612 0.680236
532 2 0.761576 0.772553 0.74352
533 2 0.810888 0.683254 0.304975
534 1 0.661406 0.824809 0.638227
535 2 0.751111 0.810562 0.683765
536 1 0.700787 0.865048 0.642016
537 1 0.639324 0.879756 0.685658
538 2 0.717305 0.855656 0.756819
539 2 0.771643 0.798777 0.685949
540 2 0.354129 0.459466 0.309904
541 1 0.727455 0.722173 0.663038
542 2 0.689844 0.765346 0.712869
543 1 0.11573 0.220321 0.37117
544 1 0.787866 0.704236 0.657156
545 2 0.792328 0.792206 0.703604
546 2 0.775702 0.810048 0.713548
547 2 0.804461 0.293782 0.801025
548 2 0.747073 0.793116 0.744308
549 2 0.713612 0.745877 0.705949
550 2 0.449027 0.249379 0.148332
551 1 0.814412 0.861929 0.641813
552 2 0.365216 0.734617 0.553876
553 2 0.749704 0.779239 0.692705
554 2 0.71077 0.8274 0.704242
555 1 0.109794 0.362471 0.00474691
556 2 0.037814 0.715783 0.206824
557 2 0.776852 0.800674 0.70781
558 1 0.759411 0.883948 0.694136
559 2 0.740076 0.770514 0.659542
560 2 0.708279 0.840965 0.665116
561 2 0.741712 0.767117 0.700398
562 1 0.762862 0.827495 0.61491
563 2 0.769234 0.831278 0.722181
564 2 0.980899 0.921712 0.367426
565 2 0.730346 0.808294 0.667843
566 2 0.539235 0.199504 0.530226
567 2 0.749738 0.822823 0.647988
568 2 0.757581 0.829726 0.693407
569 1 0.700007 0.876968 0.671293
570 2 0.78741 0.798379 0.679727
571 2 0.203806 0.466283 0.685766
572 2 0.673604 0.799263 0.733257
573 2 0.745374 0.834121 0.67149
574 2 0.723066 0.951588 0.121404
575 1 0.278969 0.971819 0.469243
576 2 0.757293 0.788967 0.670697
577 2 0.734047 0.818206 0.714832
578 1 0.633052 0.750119 0.708359
579 2 0.740058 0.786308 0.747813
580 1 0.617596 0.773462 0.740445
581 2 0.406971 0.0717062 0.989611
582 2 0.713587 0.831532 0.683689
583 1 0.754299 0.0395151 0.735962
584 2 0.721037 0.812984 0.730068
585 1 0.781123 0.911184 0.725129
586 2 0.739193 0.782761 0.719562
587 2 0.707693 0.785396 0.678147
588 2 0.0450668 0.993934 0.181567
589 1 0.787316 0.680828 0.70181
590 1 0.652032 0.770854 0.688351
591 1 0.724935 0.760214 0.767426
592 2 0.860429 0.3855 0.870101
593 2 0.723779 0.811705 0.705677
594 1 0.885196 0.840044 0.111242
595 1 0.775408 0.394425 0.810939
596 2 0.814893 0.104537 0.774919
597 1 0.565647 0.719675 0.971948
598 2 0.705324 0.811918 0.756112
599 2 0.722689 0.831018 0.673973
600 2 0.675736 0.887802 0.53303
601 2 0.734476 0.83147 0.709037
602 1 0.79065 0.861832 0.602644
603 2 0.720346 0.804515 0.698272
604 1 0.390073 0.281339 0.200849
605 2 0.621717 0.508727 0.519591
606 2 0.259675 0.807362 0.179858
607 1 0.830017 0.794129 0.752618
608 2 0.0662812 0.558283 0.50119
609 2 0.717761 0.821049 0.643255
610 2 0.756258 0.845353 0.66837
611 2 0.680769 0.797197 0.714291
612 1 0.83271 0.953082 0.16045
613 2 0.709317 0.36484 0.875863
614 1 0.804289 0.133516 0.330725
615 2 0.633997 0.911576 0.29571
616 1 0.645128 0.790301 0.623039
617 2 0.690237 0.829614 0.711302
618 2 0.794757 0.00888816 0.0743817
619 2 0.256068 0.840663 0.911554
620 2 0.186909 0.615481 0.831608
621 2 0.752865 0.762014 0.669756
622 2 0.728894 0.770921 0.650663
623 1 0.439094 0.206412 0.0850332
624 2 0.729237 0.783154 0.735458
625 2 0.268635 0.427039 0.650856
626 2 0.842387 0.612129 0.195573
627 2 0.688888 0.786715 0.662487
628 2 0.149796 0.16932 0.282023
629 2 0.780111 0.781229 0.665961
630 1 0.739316 0.887224 0.715165
631 2 0.74736 0.83151 0.645688
632 2 0.745302 0.787727 0.681223
633 2 0.724853 0.748118 0.691739
634 2 0.942632 0.0866672 0.929728
635 2 0.940317 0.469464 0.0415912
636 2 0.69952 0.796617 0.71996
637 2 0.694059 0.749158 0.707137
638 1 0.966685 0.297179 0.329368
639 2 0.70557 0.781038 0.706184
640 2 0.74362 0.746388 0.735846
641 2 0.732474 0.815473 0.656753
642 2 0.749007 0.777286 0.678758
643 2 0.968766 0.712686 0.480254
644 2 0.682699 0.800205 0.66514
645 1 0.810987 0.847263 0.74695
646 2 0.709769 0.821936 0.692132
647 1 0.66484 0.833797 0.75129
648 2 0.427242 0.784241 0.542272
649 2 0.735822 0.797859 0.698371
650 2 0.702152 0.810588 0.731054
651 2 0.785061 0.831129 0.676181
652 2 0.766884 0.808559 0.68566
653 2 0.744368 0.843317 0.730854
654 1 0.800181 0.749366 0.696228
655 2 0.974439 0.95162 0.696737
656 2 0.691832 0.80652 0.668474
657 2 0.105459 0.236726 0.693833
658 2 0.783562 0.830978 0.706593
659 2 0.709421 0.807207 0.68849
660 2 0.280349 0.923108 0.435954
661 1 0.0694523 0.511283 0.462722
662 2 0.762449 0.79133 0.737949
663 2 0.712778 0.795537 0.743247
664 1 0.378176 0.879965 0.45243
665 2 0.870665 0.981213 0.946931
666 2 0.712133 0.806655 0.637013
667 2 0.679276 0.81612 0.723924
668 2 0.684479 0.821002 0.695452
669 2 0.280724 0.317297 0.226288
670 1 0.273039 0.839632 0.813786
671 2 0.504304 0.936096 0.678825
672 1 0.785501 0.797817 0.629149
673 2 0.772764 0.7845 0.691205
674 2 0.725947 0.82417 0.702029
675 2 0.763956 0.310721 0.203938
676 1 0.89249 0.106636 0.777667
677 2 0.673709 0.78789 0.72404
678 2 0.701938 0.80944 0.69951
679 1 0.824437 0.981194 0.914512
680 2 0.722197 0.822659 0.706539
681 1 0.762408 0.793525 0.600262
682 1 0.733754 0.663543 0.735031
683 2 0.559255 0.379463 0.0885447
684 2 0.245629 0.653178 0.238921
685 2 0.697767 0.846958 0.675389
686 2 0.361947 0.552219 0.483592
687 1 0.677108 0.727157 0.70773
688 2 0.187863 0.605292 0.292571
689 2 0.768589 0.804698 0.712265
690 2 0.74517 0.766804 0.721511
691 2 0.717516 0.850966 0.724627
692 1 0.668893 0.867204 0.726721
693 2 0.745906 0.808229 0.646187
694 2 0.691044 0.796703 0.708964
695 1 0.617359 0.836714 0.676023
696 2 0.383411 0.152032 0.520399
697 2 0.503308 0.552922 0.0955054
698 2 0.733526 0.802118 0.725995
699 2 0.730671 0.808396 0.679633
700 1 0.666614 0.771129 0.744632
701 2 0.753932 0.779638 0.713688
702 2 0.740586 0.80779 0.738248
703 2 0.761745 0.748951 0.685784
704 2 0.19631 0.282708 0.651279
705 2 0.735812 0.805196 0.71708
706 2 0.781579 0.772023 0.680426
707 2 0.967264 0.16405 0.978612
708 1 0.803347 0.781708 0.733688
709 2 0.660202 0.50162 0.108937
710 2 0.771774 0.789853 0.714022
711 2 0.692332 0.823869 0.655729
712 1 0.810633 0.811855 0.675763
713 2 0.753093 0.804115 0.652602
714 1 0.799652 0.829009 0.641711
715 2 0.680422 0.81831 0.700204
716 1 0.459172 0.61087 0.980669
717 2 0.6876 0.765848 0.731768
718 2 0.572344 0.159872 0.684274
719 2 0.720322 0.799935 0.686857
720 2 0.773042 0.812233 0.687249
721 2 0.741935 0.837176 0.737238
722 1 0.103839 0.0616463 0.656269
723 2 0.906959 0.320398 0.633948
724 2 0.689437 0.798314 0.729167
725 2 0.18973 0.885178 0.146377
726 2 0.729446 0.828821 0.680959
727 1 0.996892 0.246802 0.91352
728 1 0.88413 0.144439 0.159524
729 1 0.748984 0.819432 0.782069
730 1 0.686601 0.857125 0.750118
731 2 0.773436 0.800008 0.732178
732 1 0.517597 0.707866 0.376064
733 2 0.716912 0.852967 0.667166
734 2 0.691427 0.821668 0.739428
735 2 0.788538 0.811039 0.714698
736 1 0.721185 0.737276 0.796877
737 2 0.720577 0.775756 0.727482
738 2 0.660217 0.801929 0.692249
739 2 0.729891 0.802712 0.750388
740 2 0.765613 0.76701 0.697921
741 2 0.706104 0.786972 0.734136
742 1 0.663128 0.861611 0.645496
743 2 0.756825 0.785217 0.697832
744 2 0.729475 0.765598 0.676916
745 2 0.676436 0.810802 0.690183
746 1 0.660306 0.714063 0.808926
747 2 0.907122 0.116602 0.258428
748 2 0.740285 0.808188 0.707322
749 2 0.756255 0.823472 0.699657
750 2 0.37461 0.123063 0.211272
751 2 0.71243 0.825674 0.744784
752 2 0.674602 0.797224 0.707205
753 2 0.756729 0.772495 0.805674
754 2 0.698107 0.395168 0.278894
755 2 0.715645 0.77947 0.708163
756 2 0.731945 0.818985 0.636935
757 2 0.749164 0.803512 0.72009
758 2 0.698007 0.853692 0.70427
759 2 0.676736 0.829423 0.703447
760 1 0.35372 0.782597 0.163931
761 2 0.707248 0.794277 0.739963
762 2 0.715288 0.769861 0.652059
763 1 0.537639 0.875792 0.480663
764 2 0.686678 0.778554 0.708782
765 2 0.678594 0.797635 0.648639
766 2 0.735444 0.859972 0.685923
767 2 0.309048 0.067771 0.240609
768 2 0.724097 0.773305 0.733845
769 2 0.724374 0.825477 0.686677
770 2 0.754642 0.824765 0.722107
771 2 0.100957 0.727848 0.381739
772 2 0.613119 0.693619 0.182654
773 1 0.79307 0.749732 0.769365
774 2 0.227772 0.963468 0.432482
775 2 0.663048 0.284211 0.643574
776 2 0.741758 0.785677 0.651319
777 1 0.641053 0.798643 0.709318
778 2 0.774687 0.838074 0.693173
779 2 0.00678745 0.221322 0.961871
780 1 0.772396 0.76323 0.634003
781 2 0.693398 0.806134 0.710312
782 2 0.796399 0.377814 0.208341
783 1 0.678215 0.742064 0.670039
784 2 0.750692 0.79562 0.635867
785 2 0.749571 0.824589 0.664186
786 1 0.751294 0.78615 0.780019
787 2 0.769343 0.767951 0.704542
788 2 0.764386 0.831432 0.699735
789 2 0.590133 0.935434 0.999717
790 2 0.704648 0.840245 0.715304
791 1 0.785657 0.783132 0.754934
792 2 0.757871 0.785004 0.733431
793 2 0.314473 0.355835 0.532238
794 2 0.735385 0.790396 0.714036
795 2 0.714877 0.805627 0.695227
796 2 0.609242 0.821168 0.710235
797 2 0.715797 0.785661 0.667921
798 2 0.0602877 0.76751 0.478149
799 2 0.715894 0.79342 0.702383
800 2 0.119786 0.454775 0.313896
801 2 0.692056 0.807965 0.697244
802 2 0.683743 0.836547 0.675403
803 2 0.765317 0.809249 0.740531
804 2 0.567906 0.443362 0.443028
805 2 0.76772 0.17258 0.728205
806 1 0.184276 0.0183807 0.204978
807 2 0.734218 0.773474 0.723175
808 2 0.708424 0.826818 0.733886
809 1 0.766554 0.739066 0.745013
810 2 0.711983 0.779769 0.660078
811 2 0.725682 0.793939 0.656994
812 2 0.755107 0.801106 0.730826
813 1 0.506342 0.445166 0.979858
814 2 0.775952 0.778388 0.704186
815 2 0.722064 0.772823 0.668754
816 1 0.788905 0.746243 0.663327
817 1 0.71225 0.847289 0.772926
818 2 0.789988 0.801496 0.693847
819 1 0.792943 0.842806 0.664898
820 1 0.623645 0.787438 0.684093
821 2 0.683576 0.80629 0.675477
822 2 0.669772 0.800368 0.678255
823 1 0.799579 0.783667 0.659457
824 2 0.796589 0.567809 0.897995
825 2 0.745801 0.833717 0.657106
826 2 0.747844 0.408574 0.67863
827 1 0.681975 0.901928 0.656453
828 2 0.777663 0.789718 0.675212
829 2 0.71386 0.756131 0.655298
830 2 0.264759 0.026186 0.742216
831 1 0.695649 0.753355 0.592205
832 2 0.717761 0.749473 0.671136
833 1 0.773473 0.858067 0.634658
834 2 0.716399 0.790655 0.637563
835 2 0.691888 0.322111 0.000517895
836 2 0.745908 0.819832 0.721016
837 2 0.614442 0.857777 0.889111
838 2 0.718857 0.794555 0.71503
839 2 0.146295 0.922106 0.761172
840 2 0.672594 0.775744 0.702753
841 2 0.714304 0.856973 0.685084
842 2 0.692331 0.0510935 0.44142
843 2 0.744442 0.816241 0.696121
844 2 0.728605 0.768032 0.686758
845 2 0.739559 0.781876 0.6743
846 2 0.75338 0.809088 0.729619
847 2 0.765539 0.769183 0.663705
848 2 0.726773 0.761371 0.652874
849 1 0.665425 0.83776 0.795404
850 2 0.754412 0.79542 0.657412
851 2 0.675747 0.799162 0.689195
852 2 0.713034 0.767075 0.666278
853 1 0.643701 0.823664 0.730834
854 2 0.472969 0.968016 0.707557
855 2 0.76888 0.766919 0.712852
856 2 0.729413 0.803445 0.641433
857 2 0.679002 0.789748 0.673622
858 2 0.763316 0.800296 0.64684
859 2 0.727219 0.833772 0.655081
860 2 0.52557 0.2698 0.525925
861 2 0.757838 0.816942 0.695165
862 2 0.470175 0.16364 0.434828
863 2 0.723381 0.798233 0.710366
864 2 0.698448 0.843199 0.740388
865 2 0.736681 0.790104 0.702414
866 2 0.728369 0.786632 0.692756
867 2 0.999514 0.145106 0.114205
868 2 0.77322 0.804577 0.750969
869 2 0.763881 0.822191 0.667394
870 2 0.752987 0.778094 0.645497
871 2 0.699947 0.783023 0.72061
872 2 0.66501 0.811629 0.693042
873 2 0.756834 0.768706 0.726652
874 2 0.774674 0.791647 0.696155
875 2 0.27612 0.763314 0.518603
876 2 0.698573 0.828462 0.655613
877 2 0.703193 0.813323 0.705023
878 2 0.693239 0.830362 0.698676
879 2 0.696221 0.779546 0.680208
880 2 0.657202 0.212691 0.951619
881 2 0.747424 0.791819 0.67104
882 1 0.0277111 0.251611 0.0177984
883 1 0.535466 0.733064 0.154743
884 2 0.225407 0.178152 0.517514
885 2 0.715971 0.819652 0.747706
886 2 0.749374 0.757674 0.696548
887 1 0.607992 0.398528 0.0255416
888 2 0.204821 0.647403 0.277268
889 2 0.244838 0.297084 0.073057
890 1 0.63254 0.837498 0.625226
891 2 0.968185 0.454525 0.856761
892 2 0.762679 0.796484 0.668069
893 2 0.706557 0.794596 0.716611
894 2 0.694393 0.803355 0.658575
895 1 0.830409 0.749127 0.728487
896 2 0.70789 0.83803 0.659869
897 2 0.735744 0.845072 0.713294
898 2 0.726824 0.763705 0.721519
899 2 0.934533 0.728104 0.523177
900 2 0.728923 0.78363 0.710571
901 2 0.739197 0.77102 0.709132
902 2 0.753194 0.795933 0.705935
903 2 0.716183 0.824328 0.715046
904 2 0.70602 0.805862 0.723266
905 2 0.740085 0.820225 0.646044
906 2 0.771797 0.852016 0.778188
907 2 0.782952 0.823873 0.71926
908 1 0.737882 0.731051 0.752831