ITEM: TIMESTEP
2800
ITEM: NUMBER OF ATOMS
1000
ITEM: BOX BOUNDS xy xz yz pp pp pp
0.0000000000000000e+00 1.3572088000000001e+01 0.0000000000000000e+00
0.0000000000000000e+00 1.3572088000000001e+01 0.0000000000000000e+00
0.0000000000000000e+00 1.3572088000000001e+01 0.0000000000000000e+00
ITEM: ATOMS id type xs ys zs
1 2 0.530367 0.114574 0.0917069
2 2 0.327998 0.421427 0.64827
3 1 0.445421 0.787875 0.195825
4 2 0.102211 0.22258 0.0852505
5 2 0.113285 0.792882 0.813653
6 1 1.00001 0.252577 0.811961
7 2 0.790497 0.57661 0.624719
8 2 0.973533 0.703069 0.251033
9 2 0.822047 0.797509 0.399749
10 2 0.978196 0.701361 0.196393
11 2 0.796053 0.210321 0.740127
12 2 0.895034 0.270697 0.557196
13 2 0.343305 0.476879 0.955691
14 1 0.156356 0.153415 0.0404304
15 2 0.338968 0.199066 0.577289
16 2 0.860207 0.787096 0.19807
17 1 0.849871 0.358142 0.370369
18 2 0.683853 0.396547 0.780381
19 2 0.0800845 0.207536 0.271453
20 2 0.0194564 0.747077 0.515732
21 2 0.0778753 0.53783 0.331968
22 2 0.366067 0.697635 0.498737
23 2 0.769942 0.681209 0.209422
24 2 0.82404 0.670596 0.0483811
25 1 0.943598 0.444944 0.0745384
26 2 0.617687 0.471321 0.39776
27 2 0.0474388 0.686302 0.987033
28 2 0.99018 0.924005 0.323852
29 2 0.30977 0.38195 0.00693297
30 2 0.736418 0.696555 0.0411472
31 1 0.69424 0.622057 0.382895
32 1 0.381214 0.777339 0.30124
33 1 0.19259 0.340806 0.918136
34 2 0.562409 0.146674 0.92377
35 2 0.0860603 0.33675 0.579949
36 1 0.971613 0.109094 0.756236
37 2 0.890696 0.428293 0.471808
38 2 0.269002 0.288931 0.148313
39 2 0.0117909 0.998925 0.235403
40 2 0.590891 0.275007 0.917269
41 2 0.940627 0.553239 0.712337
42 2 0.936264 0.194101 0.332825
43 2 0.20404 0.493465 0.64715
44 2 0.119981 0.687764 0.435218
45 2 0.235336 0.0403056 0.202891
46 1 0.29082 0.298184 0.381687
47 2 0.927752 0.397201 0.267226
48 2 0.165058 0.366595 0.31498
49 2 0.600692 0.80291 0.0558414
50 2 0.616267 0.496559 0.0912504
51 2 0.395196 0.672047 0.369508
52 2 0.885696 0.798573 0.154733
53 2 0.371851 0.192656 0.491632
54 2 0.270799 0.948161 0.300113
55 1 0.0910463 0.338156 0.799959
56 1 0.799425 0.137431 0.761782
57 2 0.265555 0.338661 0.370395
58 2 0.747708 0.176286 0.801612
59 2 0.742145 0.570987 0.30931
60 2 0.949161 0.813522 0.327406
61 2 0.531037 0.445753 0.0327895
62 2 0.878882 0.251257 0.988083
63 2 0.675113 0.937187 0.804015
64 2 0.456038 0.879335 0.0351619
65 2 0.412388 0.166889 0.455681
66 1 0.70993 0.577451 0.345766
67 2 0.313772 0.185703 0.658453
68 2 0.495575 0.738474 0.034566
69 1 0.072576 0.161271 0.582684
70 2 0.418234 0.0708428 0.626269
71 1 0.708736 0.80534 0.639099
72 2 0.921059 0.135964 0.436912
73 2 0.702483 0.405325 0.818722
74 2 0.233393 0.0841025 0.0542334
75 2 0.339533 0.599111 0.315237
76 2 0.0119765 0.0415385 0.95644
77 1 0.789403 0.271456 0.995364
78 2 0.458348 0.290155 0.574623
79 2 0.449297 0.214134 0.18468
80 2 0.0823958 0.0316095 0.266263
81 2 0.367932 0.177463 0.309133
82 2 0.988307 0.911372 0.0543725
83 2 0.281825 0.12992 0.094544
84 2 0.0843109 0.185863 0.31401
85 1 0.306054 0.254012 0.840088
86 2 0.77646 0.0911689 0.647868
87 2 0.343877 0.300164 0.224131
88 2 0.9901 0.0188769 0.907807
89 2 0.420304 0.84218 0.308108
90 2 0.325667 0.690808 0.169117
91 2 0.409804 0.274279 0.960352
92 2 0.599194 0.446947 0.490223
93 2 0.848802 0.213875 0.901894
94 1 0.93591 0.445398 0.154942
95 2 0.905165 0.750863 0.256479
96 2 0.250079 0.867688 0.591954
97 2 0.773042 0.874732 0.998729
98 2 0.702615 0.901406 0.596683
99 2 0.851059 0.556742 0.809965
100 2 0.62415 0.516742 0.467629
101 1 0.94644 0.778713 0.203696
102 2 0.84671 0.425365 0.344743
103 2 0.66078 0.52515 0.909075
104 2 0.827424 0.889779 0.376079
105 2 0.420338 0.30544 0.191731
106 2 0.737356 0.260623 0.404819
107 2 0.722683 0.449374 0.87199
108 2 0.27865 0.808734 0.697718
109 2 0.225307 0.573797 0.247205
110 2 0.431832 0.593184 0.309011
111 2 0.0398347 0.390165 0.925935
112 1 0.333855 0.998203 0.0528089
113 1 0.643205 0.432993 0.91716
114 2 0.556518 0.4406 0.225734
115 2 0.813039 0.367692 0.50404
116 2 0.239213 0.139958 0.617427
117 2 0.597955 0.673491 0.224095
118 2 0.287543 0.246912 0.709006
119 2 0.533821 0.586253 0.266691
120 2 0.446491 0.211769 0.430455
121 2 0.266611 0.669129 0.680076
122 2 0.698825 0.236557 0.54487
123 2 0.819286 0.48334 0.522681
124 2 0.809981 0.925886 0.562899
125 1 0.34573 0.616768 0.426013
126 2 0.297671 0.285821 0.181743
127 2 0.501971 0.872757 0.225258
128 2 0.176241 0.951371 0.798147
129 1 0.0856802 0.751316 0.437342
130 2 0.541721 0.346887 0.516801
131 2 0.187343 0.088032 0.81622
132 2 0.922811 0.0673992 0.649316
133 2 0.762267 0.210964 0.883677
134 2 0.523979 0.652361 0.194326
135 2 0.933919 0.874251 0.803205
136 2 0.994679 0.30879 0.800279
137 1 0.925957 0.718304 0.252009
138 2 0.174398 0.24088 0.203777
139 2 0.862375 0.952167 0.846612
140 1 0.0198011 0.6715 0.849528
141 2 0.288409 0.672144 0.241412
142 2 0.707589 0.989816 0.0786806
143 2 0.229249 0.410904 0.871952
144 2 0.596154 0.935557 0.879239
145 2 0.32049 0.821539 0.507291
146 2 0.0162249 0.783814 0.965713
147 1 0.429991 0.245382 0.796582
148 1 0.0315686 0.728708 0.913458
149 2 0.865391 0.433146 0.840503
150 1 0.2799 0.817489 0.376465
151 2 0.336748 0.439929 0.0349888
152 2 0.120242 0.379774 0.321358
153 1 0.370093 0.729396 0.0610782
154 1 0.289118 0.876774 0.28761
155 2 0.663749 0.302328 0.401295
156 2 0.223032 0.9583 0.972419
157 2 0.305859 0.100794 0.923644
158 2 0.426292 0.181775 0.780956
159 2 0.275643 0.755247 0.888163
160 2 0.975002 0.0404834 0.88513
161 2 0.506493 0.960898 0.904365
162 2 0.509783 0.263935 0.0726472
163 2 0.722377 0.594848 0.775517
164 2 0.0843015 0.335039 0.28542
165 2 0.393908 0.910009 0.088767
166 2 0.351396 0.517977 0.762416
167 2 0.171856 0.542418 0.256357
168 2 0.61497 0.245738 0.66418
169 2 0.341925 0.735228 0.376887
170 2 0.391354 0.9845 0.0540258
171 2 0.855019 0.921829 0.701691
172 2 0.347263 0.393063 0.439294
173 1 0.56941 0.591953 0.397621
174 2 0.462042 0.599121 0.256932
175 2 0.941739 0.909184 0.914073
176 2 0.861178 0.920959 0.26782
177 1 0.162914 0.670275 0.454138
178 2 0.691795 0.811321 0.950671
179 2 0.930287 0.404671 0.829291
180 2 0.83329 0.427794 0.267429
181 2 0.573325 0.952191 0.971287
182 2 0.253148 0.720386 0.533175
183 2 0.59528 0.389364 0.529921
184 2 0.157582 0.493334 0.971656
185 2 0.152436 0.597268 0.69611
186 2 0.826877 0.422823 0.310469
187 2 0.952769 0.0226753 0.898394
188 1 0.849873 0.706427 0.419944
189 2 0.781924 0.869552 0.938279
190 2 0.461906 0.806341 0.763788
191 2 0.721736 0.0791157 0.606695
192 2 0.345553 0.818444 0.706068
193 2 0.14425 0.378914 0.127069
194 2 0.244407 0.731466 0.324099
195 2 0.326191 0.899225 0.686213
196 2 0.0871089 0.111583 0.0333825
197 2 0.83355 0.471668 0.341361
198 2 0.847043 0.64978 0.616723
199 2 0.914623 0.959547 0.867844
200 1 0.124871 0.304797 0.58998
201 2 0.633696 0.558015 0.952098
202 2 0.654965 0.382675 0.724305
203 2 0.104567 0.141973 0.413778
204 2 0.531773 0.752276 0.223734
205 2 0.922053 0.799532 0.0729365
206 2 0.750547 0.944894 0.448865
207 2 0.679433 0.0241453 0.723058
208 2 0.453255 0.877466 0.706564
209 2 0.376646 0.736829 0.573744
210 2 0.792939 0.642511 0.614793
211 2 0.592143 0.559239 0.204624
212 1 0.876824 0.979705 0.708854
213 2 0.23906 0.0511223 0.942551
214 2 0.766377 0.843431 0.927925
215 2 0.616339 0.850772 0.903473
216 2 0.0938232 0.674688 0.894122
217 2 0.749413 0.488478 0.79056
218 2 0.0181372 0.875902 0.581376
219 2 0.166281 0.279882 0.799986
220 2 0.939109 0.79794 0.167623
221 2 0.571185 0.235683 0.444606
222 2 0.280926 0.900772 0.931095
223 2 0.975482 0.47862 0.9952
224 2 0.0819846 0.242143 0.519253
225 1 0.558453 0.36487 0.983589
226 2 0.650861 0.996377 0.20527
227 2 0.439325 0.645399 0.33722
228 2 0.103032 0.542451 0.911119
229 2 0.966555 0.893197 0.525697
230 1 0.602293 0.561035 0.462639
231 2 0.199502 0.615042 0.185158
232 2 0.503265 0.661258 0.0327676
233 1 0.239163 0.283516 0.530069
234 2 0.877618 0.434178 0.398691
235 2 0.343315 0.478153 0.796297
236 2 0.293046 0.346294 0.574139
237 2 0.783015 0.183071 0.57801
238 1 0.330026 0.310702 0.687258
239 1 0.583659 0.470621 0.00856674
240 2 0.850786 0.515258 0.597524
241 2 0.366118 0.640041 0.354379
242 1 0.413135 0.816103 0.776522
243 1 0.572774 0.250125 0.178794
244 2 0.545455 0.696008 0.455886
245 2 0.619465 0.0323545 0.174707
246 1 0.323876 0.146545 0.0500948
247 2 0.87528 0.399338 0.871976
248 2 0.0666448 0.533197 0.0522817
249 2 0.672679 0.543268 0.501128
250 2 0.653844 0.179093 0.595146
251 2 0.456147 0.997524 0.825336
252 2 0.972326 0.461982 0.257053
253 2 0.501659 0.352463 0.480742
254 2 0.271904 0.491775 0.187379
255 2 0.070624 0.444334 0.265697
256 2 0.194301 0.805588 0.880687
257 2 0.52158 0.877948 0.559197
258 2 0.737798 0.889818 0.527154
259 1 0.28742 0.399192 0.863701
260 2 0.911814 0.823494 0.181787
261 1 0.834575 0.358326 0.785042
262 2 0.678554 0.532786 0.967987
263 2 0.0888515 0.218955 0.285696
264 2 0.809087 0.512928 0.967618
265 1 0.403462 0.44292 0.0126173
266 2 0.707409 0.57737 0.239024
267 2 0.170205 0.592574 0.870644
268 1 0.353767 0.679042 0.40045
269 1 0.0759056 0.940214 0.0870387
270 2 0.194696 0.730629 0.462783
271 2 0.641018 0.313032 0.346245
272 2 0.757786 0.679734 0.340168
273 1 0.858212 0.554055 0.14767
274 2 0.0229601 0.73653 0.974358
275 2 0.486643 0.720196 0.852639
276 2 0.904356 0.761014 0.81948
277 2 0.211957 0.971226 0.720511
278 2 0.586252 0.934474 0.122403
279 2 0.662211 0.792616 0.154573
280 1 0.6474 0.362497 0.333018
281 2 0.0514169 0.612425 0.879098
282 2 0.502655 0.619549 0.365046
283 2 0.382018 0.42263 0.737738
284 1 0.582553 0.119345 0.843585
285 2 0.553733 0.153794 0.134367
286 2 0.730723 0.721387 0.985916
287 1 0.0420629 0.209142 0.781889
288 2 0.536013 0.0190362 0.819825
289 2 0.862069 0.269144 0.343915
290 2 0.206243 0.275713 0.888251
291 2 0.55383 0.827172 0.717644
292 2 0.57947 0.0713227 0.595374
293 2 0.112719 0.59129 0.00697921
294 2 0.889478 0.226418 0.473697
295 2 0.06059 0.574657 0.297253
296 2 0.0474985 0.376797 0.866348
297 2 0.260404 0.927883 0.384942
298 2 0.295164 0.343151 0.435527
299 1 0.366307 0.903364 0.662062
300 2 0.417767 0.846848 0.860699
301 2 0.353794 0.893148 0.628403
302 2 0.879475 0.106104 0.563951
303 2 0.170967 0.275931 0.482766
304 1 0.0534288 0.802749 0.246152
305 2 0.46497 0.910936 0.00181209
306 2 0.262012 0.550394 0.0698369
307 2 0.872199 0.282239 0.998453
308 2 0.354058 0.412903 0.153839
309 2 0.0892506 0.967872 0.0754127
310 2 0.255754 0.326892 0.402519
311 2 0.0401004 0.777271 0.617415
312 2 0.346385 0.517261 0.517634
313 2 0.878606 0.29106 0.76668
314 2 0.0440232 0.872514 0.241366
315 2 0.553086 0.100925 0.833981
316 2 0.524287 0.187912 0.0555101
317 2 0.397787 0.99229 0.448231
318 2 0.576743 0.818123 0.264562
319 2 0.26717 0.910656 0.00175844
320 2 0.402297 0.424568 0.543503
321 2 0.592503 0.987507 0.122273
322 2 0.47963 0.768467 0.510258
323 2 0.480766 0.13833 0.127105
324 2 0.681737 0.356528 0.535211
325 2 0.467548 0.321442 0.181218
326 2 0.552524 0.747729 0.646569
327 2 0.0556434 0.745729 0.54892
328 2 0.0778748 0.725004 0.86439
329 1 0.753072 0.782017 0.123945
330 2 0.807355 0.150178 0.0922677
331 2 0.37983 0.658508 0.429928
332 2 0.266491 0.642715 0.234488
333 2 0.57974 0.958626 0.848677
334 2 0.143175 0.884152 0.802065
335 1 0.715969 0.11914 0.560034
336 2 0.00858239 0.928018 0.882256
337 2 0.408556 0.0974102 0.434666
338 1 0.0567336 0.440461 0.835924
339 2 0.732369 0.539432 0.21769
340 2 0.823872 0.565313 0.78742
341 2 0.729079 0.146486 0.862261
342 2 0.0589397 0.507723 0.912228
343 2 0.670701 0.945158 0.081414
344 1 0.312509 0.0352386 0.944453
345 1 0.635216 0.957254 0.277292
346 1 0.649456 0.445822 0.521354
347 1 0.152015 0.91429 0.769084
348 2 0.0349505 0.194941 0.278114
349 2 0.565439 0.109237 0.107296
350 2 0.680973 0.658084 0.199716
351 2 0.569248 0.492519 0.533942
352 2 0.261524 0.433504 0.220038
353 1 0.164138 0.647229 0.295963
354 1 0.623547 0.0620478 0.96116
355 2 0.168485 0.407687 0.548788
356 2 0.516394 0.753191 0.888894
357 2 0.916731 0.557936 0.63977
358 2 0.740915 0.383282 0.400338
359 2 0.6791 0.381491 0.430162
360 2 0.596871 0.650772 0.599396
361 1 0.912005 0.898712 0.799899
362 2 0.940299 0.49696 0.0930558
363 1 0.790359 0.467781 0.816875
364 2 0.424604 0.609372 0.50863
365 2 0.802812 0.742216 0.345997
366 2 0.715506 0.404672 0.579622
367 1 0.564481 0.849832 0.967238
368 1 0.345358 0.567355 0.254924
369 2 0.0173443 0.0422667 0.773846
370 2 0.289334 0.473627 0.969299
371 2 0.924697 0.743228 0.859409
372 1 0.890879 0.958924 0.798288
373 2 0.937422 0.0351237 0.791141
374 2 0.63253 0.89047 0.490665
375 2 0.61505 0.183261 0.986695
376 2 0.115284 0.960486 0.492994
377 2 0.417258 0.390418 0.132575
378 2 0.193601 0.285364 0.38804
379 2 0.378084 0.128469 0.30824
380 2 0.824484 0.985571 0.792198
381 2 0.443817 0.999762 0.494335
382 2 0.45753 0.217431 0.15418
383 2 0.577724 0.179686 0.632341
384 1 0.361835 0.849686 0.249428
385 2 0.165458 0.477505 0.937986
386 2 0.94266 0.692856 0.792707
387 1 0.0179506 0.0278333 0.651842
388 2 0.100873 0.252859 0.255232
389 2 0.569196 0.376735 0.228582
390 2 0.878802 0.695848 0.558604
391 2 0.842981 0.488395 0.452098
392 1 0.0348559 0.296859 0.290186
393 2 0.055106 0.388544 0.260263
394 2 0.910181 0.707921 0.206777
395 2 0.584551 0.871045 0.163466
396 2 0.802788 0.0590154 0.656351
397 2 0.80693 0.653952 0.46454
398 1 0.404078 0.31144 0.0592322
399 1 0.816165 0.523804 0.119925
400 1 0.069899 0.462341 0.339365
401 2 0.980034 0.150152 0.392738
402 2 0.275562 0.922014 0.405704
403 2 0.308188 0.774412 0.875453
404 2 0.133525 0.632681 0.333596
405 2 0.814652 0.937417 0.401289
406 2 0.46809 0.732656 0.979321
407 2 0.87489 0.556472 0.4597
408 2 0.771616 0.272782 0.725426
409 2 0.682242 0.0804368 0.604963
410 2 0.656012 0.49127 0.867806
411 2 0.850819 0.496412 0.685969
412 2 0.994782 0.763385 0.0161973
413 2 0.862615 0.782426 0.461716
414 2 0.573583 0.241755 0.964004
415 2 0.264361 0.901648 0.15299
416 1 0.344486 0.794005 0.619844
417 2 0.907211 0.998651 0.986506
418 2 0.642738 0.863249 0.730462
419 2 0.297704 0.831456 0.557103
420 2 0.237099 0.785884 0.177242
421 1 0.703544 0.993439 0.198929
422 1 0.892563 0.557554 0.571594
423 2 0.862317 0.740531 0.247026
424 2 0.359542 0.565233 0.311356
425 1 0.363468 0.176753 0.345112
426 2 0.766478 0.5135 0.312574
427 2 0.764802 0.614614 0.807503
428 2 0.294632 0.687098 0.64599
429 2 0.973683 0.388367 0.599398
430 2 0.0370857 0.858064 0.744553
431 2 0.892572 0.167991 0.91759
432 1 0.44203 0.745815 0.521326
433 2 0.834658 0.476849 0.247688
434 1 0.217784 0.676642 0.536737
435 2 0.963911 0.72438 0.564829
436 2 0.341412 0.550731 0.683832
437 2 0.941505 0.215752 0.471023
438 2 0.808353 0.755383 0.802391
439 1 0.791878 0.303851 0.530474
440 2 0.453326 0.422872 0.290102
441 1 0.513887 0.770961 0.412977
442 1 0.848176 0.968256 0.313593
443 1 0.133319 0.351625 0.259008
444 2 0.773716 0.629802 0.514929
445 2 0.8616 0.417946 0.448046
446 2 0.2198 0.872788 0.281996
447 2 0.566866 0.912176 0.750535
448 2 0.540744 0.242923 0.124452
449 1 0.0595192 0.737463 0.142582
450 2 0.254913 0.575823 0.294507
451 2 0.325442 0.0189793 0.360399
452 2 0.760472 0.256676 0.557451
453 1 0.732244 0.529956 0.793699
454 2 0.494395 0.214303 0.142853
455 2 0.655158 0.89183 0.145136
456 2 0.90431 0.584773 0.191975
457 2 0.910027 0.466979 0.0313588
458 2 0.787021 0.985717 0.309986
459 2 0.0481651 0.776381 0.752132
460 2 0.295199 0.356555 0.0808596
461 2 0.303412 0.67994 0.920617
462 2 0.919259 0.654388 0.280031
463 1 0.703402 0.336613 0.468098
464 2 0.171577 0.993813 0.971091
465 2 0.533352 0.303381 0.605016
466 2 0.989952 0.993902 0.96891
467 1 0.678216 0.553543 0.235168
468 2 0.86605 0.935218 0.0537347
469 2 0.165036 0.494495 0.662265
470 2 0.230209 0.0961924 0.351659
471 2 0.289223 0.963141 0.263079
472 2 0.135714 0.496764 0.193423
473 1 0.557072 0.117424 0.554979
474 1 0.789506 0.909085 0.909606
475 1 0.806233 0.782678 0.0660334
476 2 0.719658 0.263203 0.078421
477 2 0.529741 0.2645 0.131773
478 2 0.172735 0.733911 0.0206042
479 2 0.393481 0.430118 0.110131
480 2 0.983994 0.948808 0.835496
481 2 0.300096 0.631659 0.669503
482 2 0.679954 0.554308 0.807009
483 2 0.683057 0.111849 0.0294556
484 1 0.941922 0.670936 0.385081
485 1 0.597067 0.480249 0.46778
486 2 0.0361522 0.209494 0.188933
487 2 0.167797 0.252874 0.332572
488 2 0.887538 0.14374 0.975241
489 2 0.36235 0.120331 0.0191111
490 2 0.0705047 0.0827296 0.057953
491 2 0.534006 0.382963 0.780603
492 2 0.8615 0.925787 0.582637
493 2 0.25356 0.832432 0.405866
494 2 0.878432 0.42736 0.818242
495 2 0.467003 0.724044 0.0680452
496 2 0.297494 0.0127668 0.0484489
497 2 0.838259 0.810377 0.717491
498 1 0.456558 0.481007 0.913889
499 2 0.784415 0.493927 0.16025
500 2 0.800313 0.956795 0.842873
501 1 0.288189 0.236321 0.220351
502 2 0.974239 0.951689 0.68398
503 2 0.930259 0.14411 0.00502102
504 1 0.221093 0.10578 0.966693
505 2 0.647905 0.585311 0.454959
506 2 0.715903 0.739168 0.86304
507 2 0.765827 0.425596 0.344839
508 2 0.930924 0.926496 0.430882
509 1 0.88079 0.675171 0.351408
510 2 0.623087 0.0947023 0.223834
511 2 0.922934 0.925772 0.33362
512 2 0.336682 0.158592 0.863903
513 1 0.911023 0.437993 0.220249
514 2 0.551288 0.267178 0.780312
515 1 0.572569 0.764937 0.890536
516 2 0.705655 0.483225 0.69888
517 1 0.342657 0.710038 0.608798
518 2 0.672721 0.738418 0.538713
519 2 0.344556 0.135802 0.8771
520 2 0.637621 0.849871 0.34748
521 2 0.0826776 0.768313 0.287731
522 2 0.584322 0.974254 0.744147
523 2 0.00833207 0.261362 0.660366
524 2 0.0318813 0.754256 0.495971
525 2 0.442012 0.614422 0.462999
526 2 0.507017 0.103822 0.49347
527 2 0.142196 0.322395 0.193985
528 1 0.10547 0.276504 0.877699
529 2 0.0802627 0.752796 0.949023
530 2 0.714062 0.902225 0.69421
531 2 0.0398637 0.529073 0.866904
532 2 0.0780925 0.119855 0.744268
533 2 0.392785 0.643288 0.250936
534 1 0.764021 0.614512 0.274169
535 2 0.670476 0.291346 0.203457
536 1 0.124831 0.437289 0.0378664
537 1 0.919682 0.828996 0.130069
538 2 0.443449 0.86454 0.313992
539 2 0.799903 0.92778 0.839269
540 2 0.0253748 0.549035 0.0538546
541 1 0.810245 0.536901 0.270382
542 2 0.645159 0.0909057 0.352958
543 1 0.393663 0.0173371 0.392706
544 1 0.635516 0.528516 0.885341
545 2 0.166827 0.697881 0.377848
546 2 0.52013 0.501507 0.867854
547 2 0.986075 0.937745 0.0712383
548 2 0.760611 0.536119 0.559655
549 2 0.131442 0.371119 0.0701792
550 2 0.625044 0.48219 0.967557
551 1 0.372039 0.291495 0.848856
552 2 0.675446 0.986485 0.0205434
553 2 0.751467 0.0626933 0.836605
554 2 0.648515 0.0938585 0.787701
555 1 0.332538 0.952643 0.528366
556 2 0.791339 0.847983 0.575743
557 2 0.0735552 0.259156 0.275986
558 1 0.628813 0.140597 0.594033
559 2 0.6488 0.796292 0.998705
560 2 0.733691 0.443343 0.5449
561 2 0.385156 0.864474 0.14093
562 1 0.513842 0.945006 0.860699
563 2 0.184897 0.948516 0.947825
564 2 0.927543 0.4931 0.93166
565 2 0.498159 0.876944 0.20165
566 2 0.650539 0.918663 0.956646
567 2 0.564352 0.438574 0.480195
568 2 0.777258 0.654389 0.0922756
569 1 0.939072 0.0383236 0.71958
570 2 0.400712 0.799553 0.259192
571 2 0.940971 0.589091 0.758517
572 2 0.850034 0.499276 0.275067
573 2 0.720817 0.336469 0.927252
574 2 0.491318 0.905413 0.303885
575 1 0.924638 0.811969 0.414244
576 2 0.304403 0.108674 0.418487
577 2 0.455726 0.448854 0.874836
578 1 0.0766726 0.603269 0.0371284
579 2 0.774258 0.256437 0.530148
580 1 0.062579 0.810284 0.18602
581 2 0.0963905 0.431875 0.162545
582 2 0.602283 0.878837 0.14542
583 1 0.210739 0.350424 0.335079
584 2 0.924874 0.474678 0.105908
585 1 0.904065 0.0698232 0.970174
586 2 0.43201 0.0713498 0.630469
587 2 0.501904 0.180595 0.404092
588 2 0.558326 0.89883 0.445252
589 1 0.844022 0.456708 0.47607
590 1 0.675396 0.107625 0.441605
591 1 0.54323 0.0263156 0.615041
592 2 0.739042 0.919912 0.132375
593 2 0.880752 0.18381 0.657173
594 1 0.567588 0.0844534 0.501119
595 1 0.822473 0.300949 0.902089
596 2 0.156651 0.609307 0.0900276
597 1 0.968902 0.872238 0.232997
598 2 0.430906 0.0477307 0.702162
599 2 0.0507391 0.245798 0.764176
600 2 0.292961 0.458385 0.188727
601 2 0.644497 0.251271 0.712009
602 1 0.740689 0.538683 0.267518
603 2 0.726848 0.384698 0.843508
604 1 0.2692 0.952936 0.589384
605 2 0.906903 0.762985 0.385887
606 2 0.0819678 0.383633 0.265416
607 1 0.208649 0.736118 0.816451
608 2 0.838847 0.423564 0.807663
609 2 0.0256876 0.709583 0.692781
610 2 0.611975 0.456889 0.0860818
611 2 0.265151 0.889428 0.185737
612 1 0.900591 0.356098 0.0998218
613 2 0.14394 0.742603 0.53646
614 1 0.361702 0.218065 0.438478
615 2 0.465108 0.583219 0.00607207
616 1 0.624861 0.204617 0.609635
617 2 0.650027 0.0420852 0.223588
618 2 0.108036 0.125899 0.176463
619 2 0.750344 0.761612 0.532088
620 2 0.001741 0.205811 0.282775
621 2 0.523028 0.491206 0.648717
622 2 0.966836 0.591999 0.69349
623 1 0.779177 0.0295698 0.987401
624 2 0.704605 0.775397 0.566235
625 2 0.0525902 0.475234 0.694499
626 2 0.0879241 0.638 0.950239
627 2 0.599794 0.91158 0.771448
628 2 0.676132 0.647587 0.106701
629 2 0.641778 0.532125 0.167841
630 1 0.306722 0.6745 0.422286
631 2 0.82513 0.0991342 0.236537
632 2 0.70881 0.503537 0.990098
633 2 0.803944 0.45586 0.435182
634 2 0.323631 0.461809 0.013684
635 2 0.773571 0.799746 0.397324
636 2 0.142699 0.770706 0.131178
637 2 0.435926 0.151344 0.307399
638 1 0.00622865 0.44697 0.537308
639 2 0.679957 0.0308076 0.380645
640 2 0.277659 0.0178698 0.173433
641 2 0.126264 0.540476 0.833158
642 2 0.300636 0.231769 0.444143
643 2 0.70932 0.906494 0.102561
644 2 0.915488 0.585599 0.00951088
645 1 0.357665 0.831926 0.172549
646 2 0.228271 0.70034 0.700948
647 1 0.863911 0.228242 0.944154
648 2 0.0861861 0.113048 0.268958
649 2 0.533776 0.867266 0.726393
650 2 0.667378 0.0535077 0.342744
651 2 0.0560073 0.273745 0.252765
652 2 0.0900447 0.39249 0.993503
653 2 0.0247172 0.474179 0.843908
654 1 0.139954 0.323803 0.0271526
655 2 0.490278 0.184136 0.216389
656 2 0.660445 0.507907 0.977267
657 2 0.760543 0.257255 0.487882
658 2 0.293579 0.323498 0.239622
659 2 0.169211 0.0836165 0.342066
660 2 0.737723 0.651203 0.420342
661 1 0.923843 0.67921 0.196103
662 2 0.69346 0.757891 0.308425
663 2 0.121927 0.496771 0.412431
664 1 0.729397 0.960219 0.12695
665 2 0.335321 0.947887 0.0562215
666 2 0.231527 0.081244 0.879403
667 2 0.615671 0.363039 0.584984
668 2 0.0751511 0.804495 0.755454
669 2 0.649598 0.457718 0.967602
670 1 0.792918 0.761978 0.691585
671 2 0.207659 0.545938 0.858047
672 1 0.963602 0.929621 0.767804
673 2 0.0632128 0.764919 0.164269
674 2 0.817606 0.799622 0.834475
675 2 0.708602 0.158531 0.439071
676 1 0.754172 0.531107 0.744103
677 2 0.22962 0.202158 0.962059
678 2 0.891429 0.988689 0.746087
679 1 0.694101 0.6286 0.730578
680 2 0.333691 0.369091 0.35515
681 1 0.410054 0.217816 0.492131
682 1 0.155211 0.935558 0.996236
683 2 0.0852009 0.316573 0.991282
684 2 0.648536 0.945959 0.552968
685 2 0.919903 0.759909 0.329776
686 2 0.904976 0.444897 0.303148
687 1 0.847884 0.505679 0.0589906
688 2 0.298771 0.233539 0.475628
689 2 0.143821 0.917834 0.421512
690 2 0.472701 0.191439 0.441754
691 2 0.563434 0.965959 0.54817
692 1 0.818684 0.294002 0.445071
693 2 0.162242 0.848466 0.695758
694 2 0.597962 0.381525 0.917584
695 1 0.499655 0.425336 0.266977
696 2 0.894139 0.913603 0.477979
697 2 0.490411 0.0406278 0.620893
698 2 0.626667 0.410541 0.475838
699 2 0.74042 0.572777 0.622562
700 1 0.218153 0.30221 0.587803
701 2 0.854962 0.678602 0.765747
702 2 0.362549 0.229047 0.574083
703 2 0.0511452 0.264148 0.578679
704 2 0.0288704 0.983895 0.913655
705 2 0.205291 0.748891 0.64239
706 2 0.636098 0.512974 0.0069276
707 2 0.15314 0.368461 0.901204
708 1 0.526367 0.400192 0.356943
709 2 0.425357 0.173614 0.874349
710 2 0.0477697 0.705599 0.825428
711 2 0.442049 0.54255 0.453923
712 1 0.174744 0.434484 0.950069
713 2 0.86835 0.545438 0.37293
714 1 0.414854 0.597895 0.922815
715 2 0.110091 0.90906 0.694444
716 1 0.889533 0.329691 0.139196
717 2 0.860495 0.587161 0.317934
718 2 0.407284 0.60967 0.74657
719 2 0.256138 0.241844 0.184742
720 2 0.14214 0.64449 0.444155
721 2 0.772916 0.810494 0.0171089
722 1 0.899606 0.484021 0.840658
723 2 0.422179 0.477668 0.770626
724 2 0.0071433 0.205502 0.728148
725 2 0.895592 0.40972 0.559323
726 2 0.843102 0.523926 0.642346
727 1 0.329948 0.732192 0.491769
728 1 0.498368 0.648199 0.309968
729 1 0.0936804 0.69953 0.701375
730 1 0.234867 0.71826 0.237712
731 2 0.128638 0.61063 0.386541
732 1 0.134253 0.815221 0.0559339
733 2 0.711225 0.911764 0.203729
734 2 0.160978 0.93302 0.724251
735 2 0.41299 0.373052 0.417152
736 1 0.271219 0.854394 0.820405
737 2 0.347217 0.889891 0.593314
738 2 0.970237 0.960393 0.828345
739 2 0.709703 0.321768 0.948892
740 2 0.512246 0.698479 0.639949
741 2 0.862324 0.978416 0.0520843
742 1 0.52302 0.0492577 0.873635
743 2 0.203973 0.129048 0.534315
744 2 0.768646 0.502256 0.0492224
745 2 0.0613384 0.136601 0.998928
746 1 0.131128 0.844551 0.766454
747 2 0.636343 0.572527 0.533592
748 2 0.36383 0.808631 0.515665
749 2 0.874094 0.838888 0.334443
750 2 0.627415 0.52057 0.608724
751 2 0.485976 0.280347 0.62739
752 2 0.568072 0.656167 0.417705
753 2 0.477902 0.226514 0.217166
754 2 0.740162 0.480881 0.602708
755 2 0.605974 0.197764 0.164248
756 2 0.750514 0.914336 0.845109
757 2 0.298361 0.636703 0.875495
758 2 0.729373 0.203417 0.104518
759 2 0.74042 0.296685 0.901918
760 1 0.853405 0.920202 0.880874
761 2 0.652483 0.988343 0.631808
762 2 0.94652 0.736533 0.314039
763 1 0.141804 0.657572 0.66811
764 2 0.626942 0.411427 0.579591
765 2 0.360008 0.253629 0.716821
766 2 0.139416 0.192237 0.0506893
767 2 0.880276 0.545412 0.0971123
768 2 0.00497504 0.529565 0.432808
769 2 0.566452 0.724453 0.505614
770 2 0.688634 0.617021 0.195874
771 2 0.65619 0.817346 0.83459
772 2 0.292764 0.214877 0.273221
773 1 0.84085 0.367793 0.251205
774 2 0.932572 0.994209 0.489646
775 2 0.882577 0.810271 0.798531
776 2 0.483106 0.842793 0.0329241
777 1 0.239273 0.935716 0.345538
778 2 0.658125 0.650868 0.631942
779 2 0.504385 0.207078 0.477954
780 1 0.526148 0.513962 0.929955
781 2 0.891971 0.0611382 0.810048
782 2 0.674573 0.125973 0.290891
783 1 0.0376857 0.402004 0.0209766
784 2 0.765477 0.540407 0.794201
785 2 0.831204 0.453049 0.320498
786 1 0.765549 0.480632 0.011216
787 2 0.455994 0.364722 0.803844
788 2 0.237593 0.904584 0.121889
789 2 0.0970146 0.64149 0.261291
790 2 0.447724 0.932973 0.0580105
791 1 0.168965 0.826055 0.979936
792 2 0.332174 0.0612674 0.351092
793 2 0.108198 0.15381 0.777073
794 2 0.554486 0.72742 0.257234
795 2 0.386298 0.141412 0.174065
796 2 0.599476 0.534732 0.505645
797 2 0.568094 0.326959 0.171699
798 2 0.878619 0.148617 0.043614
799 2 0.694262 0.767097 0.147813
800 2 0.763265 0.975377 0.397462
801 2 0.504083 0.266581 0.806374
802 2 0.817702 0.940493 0.0541006
803 2 0.61027 0.877642 0.316601
804 2 0.832819 0.463132 0.677689
805 2 0.179869 0.602316 0.0586674
806 1 0.308508 0.227527 0.0202316
807 2 0.761678 0.114623 0.440498
808 2 0.662742 0.429162 0.0854384
809 1 0.515819 0.322789 0.0452649
810 2 0.300185 0.559538 0.909821
811 2 0.0353009 0.32344 0.358446
812 2 0.346869 0.195985 0.82726
813 1 0.26217 0.33449 0.665559
814 2 0.598445 0.269554 0.712119
815 2 0.283683 0.492733 0.335388
816 1 0.26223 0.781008 0.932593
817 1 0.476166 0.713435 0.711387
818 2 0.087505 0.717617 0.188761
819 1 0.002614 0.660297 0.717101
820 1 0.778396 0.421159 0.271668
821 2 0.235438 0.0364973 0.673894
822 2 0.17369 0.177377 0.341409
823 1 0.0108627 0.918207 0.814101
824 2 0.74809 0.040045 0.635645
825 2 0.864772 0.290117 0.63918
826 2 0.322472 0.102979 0.843445
827 1 0.800216 0.610992 0.579024
828 2 0.670127 0.380275 0.46206
829 2 0.681516 0.500876 0.896686
830 2 0.0330379 0.352765 0.650633
831 1 0.0528052 0.977614 0.122937
832 2 0.118353 0.106133 0.970592
833 1 0.731225 0.399151 0.922467
834 2 0.443522 0.644679 0.717473
835 2 0.434315 0.649112 0.547439
836 2 0.436164 0.191304 0.31695
837 2 0.894288 0.505383 0.168478
838 2 0.76527 0.166582 0.891643
839 2 0.822097 0.664815 0.104183
840 2 0.626228 0.156547 0.249858
841 2 0.343863 0.985088 0.240616
842 2 0.38726 0.740457 0.493583
843 2 0.295812 0.994532 0.243623
844 2 0.744359 0.548196 0.304204
845 2 0.535408 0.518907 0.83155
846 2 0.0385405 0.342986 0.207713
847 2 0.218202 0.960896 0.582751
848 2 0.951762 0.810041 0.124342
849 1 0.876047 0.894098 0.977833
850 2 0.00273148 0.857815 0.762388
851 2 0.874503 0.341376 0.797594
852 2 0.225429 0.673562 0.450677
853 1 0.470001 0.649805 0.230564
854 2 0.135572 0.171506 0.985425
855 2 0.746185 0.0728342 0.394539
856 2 0.870747 0.42132 0.267558
857 2 0.0112562 0.204558 0.548884
858 2 0.526794 0.169353 0.475946
859 2 0.169276 0.227925 0.247643
860 2 0.312064 0.217558 0.460387
861 2 0.402521 0.638726 0.199708
862 2 0.764895 0.565778 0.564832
863 2 0.631818 0.463827 0.0207861
864 2 0.365824 0.0684707 0.324978
865 2 0.0953076 0.341284 0.218438
866 2 0.951519 0.574072 0.740431
867 2 0.0701144 0.598868 0.606953
868 2 0.762613 0.932651 0.541436
869 2 0.780206 0.903131 0.876776
870 2 0.779941 0.00828935 0.308943
871 2 0.296229 0.692407 0.525314
872 2 0.456837 0.639966 0.853726
873 2 0.13556 0.798814 0.0261528
874 2 0.490934 0.993076 0.416273
875 2 0.35496 0.404647 0.685395
876 2 0.703208 0.894711 0.758558
877 2 0.0511449 0.174943 0.985998
878 2 0.106788 0.180412 0.314859
879 2 0.24919 0.654161 0.961547
880 2 0.587317 0.095282 0.579964
881 2 0.785866 0.321507 0.868296
882 1 0.357798 0.659345 0.252614
883 1 0.973056 0.885728 0.330081
884 2 0.040057 0.036712 0.356771
885 2 0.834251 0.552148 0.682542
886 2 0.666647 0.0159191 0.089208
887 1 0.497909 0.830217 0.89057
888 2 0.626803 0.380472 0.459671
889 2 0.090792 0.46481 0.183642
890 1 0.792561 0.541744 0.83897
891 2 0.811815 0.525799 0.646611
892 2 0.324764 0.585185 0.16839
893 2 0.519969 0.195826 0.985174
894 2 0.0258512 0.322761 0.162261
895 1 0.890862 0.0104611 0.783539
896 2 0.10606 0.696385 0.598235
897 2 0.568664 0.283378 0.946674
898 2 0.231204 0.629456 0.537503
899 2 0.566219 0.294475 0.629496
900 2 0.692056 0.465905 0.0594846
901 2 0.494528 0.0307059 0.164259
902 2 0.524085 0.882502 0.309248
903 2 0.493528 0.951348 0.672022