ITEM: TIMESTEP
70000
ITEM: NUMBER OF ATOMS
1000
ITEM: BOX BOUNDS xy xz yz pp pp pp
0.0000000000000000e+00 1.3572088000000001e+01 0.0000000000000000e+00
0.0000000000000000e+00 1.3572088000000001e+01 0.0000000000000000e+00
0.0000000000000000e+00 1.3572088000000001e+01 0.0000000000000000e+00
ITEM: ATOMS id type xs ys zs
1 2 0.348198 0.78732 0.848344
2 2 0.752383 0.847995 0.679318
3 1 0.741709 0.723107 0.747561
4 2 0.672809 0.299035 0.228835
5 2 0.69972 0.789366 0.705999
6 1 0.642246 0.789594 0.760191
7 2 0.72759 0.735417 0.692789
8 2 0.717724 0.798656 0.692459
9 2 0.784058 0.616812 0.0222758
10 2 0.715425 0.794661 0.739041
11 2 0.792534 0.799792 0.728113
12 2 0.782183 0.76493 0.719847
13 2 0.74781 0.797522 0.698875
14 1 0.767399 0.834509 0.587041
15 2 0.731967 0.839845 0.738094
16 2 0.790316 0.13632 0.573971
17 1 0.65529 0.81141 0.739899
18 2 0.753956 0.789323 0.705163
19 2 0.706697 0.806184 0.751571
20 2 0.766231 0.765293 0.66157
21 2 0.782801 0.779154 0.696667
22 2 0.636415 0.263178 0.159505
23 2 0.985729 0.137462 0.641972
24 2 0.784287 0.832853 0.680608
25 1 0.697821 0.992156 0.796015
26 2 0.701931 0.809992 0.680211
27 2 0.760468 0.758194 0.698431
28 2 0.751195 0.805617 0.70762
29 2 0.520398 0.560293 0.307794
30 2 0.70609 0.771557 0.657895
31 1 0.701854 0.691995 0.66756
32 1 0.730336 0.787298 0.787325
33 1 0.806638 0.761905 0.737971
34 2 0.777637 0.806478 0.668326
35 2 0.741228 0.834197 0.66961
36 1 0.721313 0.810954 0.580369
37 2 0.743289 0.803556 0.717693
38 2 0.702924 0.769451 0.690575
39 2 0.575419 0.876792 0.366903
40 2 0.769328 0.750199 0.669995
41 2 0.751319 0.774489 0.715939
42 2 0.749944 0.785412 0.725618
43 2 0.520931 0.568522 0.130551
44 2 0.751135 0.746063 0.665541
45 2 0.72307 0.831572 0.739062
46 1 0.494129 0.907672 0.0218902
47 2 0.718507 0.830553 0.718923
48 2 0.728795 0.789252 0.672914
49 2 0.921706 0.521102 0.582783
50 2 0.781285 0.839072 0.705657
51 2 0.703192 0.746731 0.709615
52 2 0.0938348 0.833513 0.700332
53 2 0.824686 0.554234 0.385064
54 2 0.706948 0.756831 0.736804
55 1 0.839612 0.772293 0.732626
56 1 0.651903 0.783973 0.672014
57 2 0.765533 0.787934 0.64861
58 2 0.724833 0.799346 0.683972
59 2 0.722847 0.792975 0.721164
60 2 0.685291 0.791433 0.726936
61 2 0.543952 0.93851 0.0860464
62 2 0.716229 0.776553 0.698945
63 2 0.722186 0.841462 0.666911
64 2 0.739874 0.786166 0.704134
65 2 0.729106 0.80342 0.694724
66 1 0.73836 0.828864 0.776241
67 2 0.70372 0.753615 0.674571
68 2 0.746031 0.763464 0.720131
69 1 0.81623 0.789755 0.80718
70 2 0.697258 0.798213 0.745913
71 1 0.691874 0.87598 0.762614
72 2 0.768035 0.803681 0.682846
73 2 0.723582 0.774578 0.689847
74 2 0.758679 0.778747 0.683772
75 2 0.349274 0.812225 0.690721
76 2 0.737477 0.776697 0.691332
77 1 0.83024 0.867335 0.715424
78 2 0.924168 0.9727 0.138579
79 2 0.697385 0.771138 0.686157
80 2 0.926371 0.016704 0.63675
81 2 0.723369 0.779201 0.6692
82 2 0.696804 0.829677 0.702753
83 2 0.736721 0.777687 0.715572
84 2 0.723804 0.765193 0.68078
85 1 0.800305 0.760801 0.612264
86 2 0.713147 0.809459 0.649796
87 2 0.714892 0.795689 0.666908
88 2 0.72239 0.837004 0.724798
89 2 0.772787 0.78284 0.736853
90 2 0.778548 0.772356 0.724814
91 2 0.750002 0.727527 0.403579
92 2 0.742561 0.811516 0.692643
93 2 0.767201 0.744696 0.686136
94 1 0.406919 0.476484 0.343473
95 2 0.2408 0.371624 0.774414
96 2 0.684722 0.799344 0.714165
97 2 0.792703 0.787845 0.690979
98 2 0.75404 0.802147 0.709508
99 2 0.696107 0.828882 0.679619
100 2 0.744879 0.751545 0.710201
101 1 0.29186 0.905534 0.56182
102 2 0.139961 0.360552 0.54731
103 2 0.74954 0.835359 0.704837
104 2 0.734636 0.746571 0.688593
105 2 0.735795 0.792466 0.691402
106 2 0.0932809 0.566821 0.36468
107 2 0.210274 0.208172 0.670337
108 2 0.720545 0.844651 0.711938
109 2 0.733847 0.819073 0.682577
110 2 0.731111 0.750159 0.665862
111 2 0.200241 0.194437 0.865711
112 1 0.658408 0.83983 0.717493
113 1 0.744122 0.783524 0.612151
114 2 0.770367 0.842479 0.684815
115 2 0.70922 0.973429 0.920639
116 2 0.775277 0.807656 0.707263
117 2 0.180518 0.396419 0.0293446
118 2 0.75524 0.796422 0.690077
119 2 0.742995 0.734764 0.69016
120 2 0.723974 0.814862 0.690059
121 2 0.751028 0.784465 0.674417
122 2 0.695031 0.794948 0.667962
123 2 0.717084 0.766205 0.714356
124 2 0.682136 0.819546 0.693863
125 1 0.781713 0.906876 0.670764
126 2 0.730061 0.759224 0.649704
127 2 0.772839 0.780954 0.744557
128 2 0.712804 0.776512 0.741322
129 1 0.0209982 0.201285 0.704215
130 2 0.482218 0.299323 0.156335
131 2 0.704996 0.76763 0.714804
132 2 0.746643 0.785239 0.681789
133 2 0.752902 0.826074 0.674466
134 2 0.307966 0.965038 0.657017
135 2 0.779696 0.788491 0.710938
136 2 0.764933 0.82809 0.745388
137 1 0.672099 0.704714 0.715023
138 2 0.752418 0.799039 0.680345
139 2 0.704857 0.777343 0.731927
140 1 0.729574 0.811108 0.617778
141 2 0.686585 0.804049 0.679567
142 2 0.702034 0.775733 0.745283
143 2 0.720815 0.642283 0.699687
144 2 0.788333 0.827064 0.703921
145 2 0.711528 0.83834 0.733682
146 2 0.747179 0.746195 0.67025
147 1 0.319016 0.858727 0.233052
148 1 0.722577 0.773236 0.581647
149 2 0.749487 0.805606 0.662523
150 1 0.822171 0.796139 0.705707
151 2 0.714339 0.780361 0.679536
152 2 0.743612 0.822847 0.712868
153 1 0.67805 0.798736 0.763689
154 1 0.475 0.767276 0.733194
155 2 0.736683 0.852697 0.69663
156 2 0.758715 0.833563 0.735276
157 2 0.766322 0.848966 0.703787
158 2 0.276095 0.460087 0.633207
159 2 0.735522 0.772851 0.728564
160 2 0.723527 0.788534 0.6813
161 2 0.740368 0.794509 0.649133
162 2 0.726826 0.772193 0.678004
163 2 0.765472 0.787262 0.672246
164 2 0.79015 0.802959 0.681378
165 2 0.707114 0.820226 0.745929
166 2 0.700219 0.786242 0.693985
167 2 0.320017 0.399522 0.678719
168 2 0.784011 0.769775 0.709328
169 2 0.589863 0.259635 0.665125
170 2 0.666743 0.235749 0.00733703
171 2 0.685807 0.814331 0.677066
172 2 0.112239 0.0110053 0.356756
173 1 0.763429 0.760807 0.627609
174 2 0.737419 0.788666 0.719185
175 2 0.00226226 0.0267681 0.464573
176 2 0.710534 0.779609 0.661555
177 1 0.196651 0.00739835 0.0857531
178 2 0.958461 0.375911 0.317602
179 2 0.280789 0.686681 0.430715
180 2 0.776578 0.814485 0.661871
181 2 0.713691 0.774987 0.754528
182 2 0.73082 0.8062 0.76227
183 2 0.752777 0.838254 0.658963
184 2 0.70585 0.795382 0.722807
185 2 0.766534 0.824672 0.715361
186 2 0.74827 0.835277 0.692614
187 2 0.730781 0.963016 0.80759
188 1 0.787599 0.728619 0.736481
189 2 0.714144 0.813731 0.666024
190 2 0.72804 0.814958 0.702549
191 2 0.725088 0.783566 0.714724
192 2 0.720757 0.754904 0.659837
193 2 0.709161 0.809716 0.693505
194 2 0.750989 0.303557 0.505519
195 2 0.771337 0.798879 0.673534
196 2 0.732696 0.778645 0.670563
197 2 0.759056 0.838238 0.700972
198 2 0.517547 0.621814 0.592035
199 2 0.0872536 0.270787 0.0948633
200 1 0.718662 0.865655 0.754593
201 2 0.731783 0.771453 0.694992
202 2 0.714957 0.482676 0.907301
203 2 0.717923 0.792943 0.674799
204 2 0.768954 0.771727 0.703701
205 2 0.730173 0.773473 0.736044
206 2 0.748806 0.744631 0.702068
207 2 0.501092 0.294594 0.0566054
208 2 0.768189 0.762374 0.735257
209 2 0.744503 0.80375 0.687535
210 2 0.755563 0.841274 0.720505
211 2 0.0110693 0.868571 0.41885
212 1 0.731002 0.718074 0.781239
213 2 0.751931 0.805466 0.682403
214 2 0.77423 0.793292 0.696565
215 2 0.768995 0.799987 0.651013
216 2 0.746338 0.821198 0.661014
217 2 0.718669 0.788142 0.686549
218 2 0.742717 0.767489 0.737298
219 2 0.704573 0.781533 0.719257
220 2 0.750414 0.821653 0.738037
221 2 0.68017 0.815153 0.708807
222 2 0.0832088 0.239345 0.524536
223 2 0.753897 0.823979 0.648462
224 2 0.727015 0.790747 0.737388
225 1 0.708604 0.844021 0.773782
226 2 0.736162 0.743427 0.672154
227 2 0.721037 0.782143 0.642733
228 2 0.703924 0.833928 0.721712
229 2 0.757653 0.761323 0.672647
230 1 0.707028 0.807598 0.780604
231 2 0.779574 0.784518 0.679416
232 2 0.723673 0.823982 0.694906
233 1 0.771131 0.8224 0.621578
234 2 0.766563 0.828601 0.725489
235 2 0.783539 0.818907 0.693223
236 2 0.696183 0.780704 0.739315
237 2 0.132484 0.300646 0.0732077
238 1 0.389139 0.366844 0.0230049
239 1 0.814609 0.826109 0.618142
240 2 0.721862 0.838413 0.686582
241 2 0.700549 0.768335 0.669832
242 1 0.768416 0.876577 0.716312
243 1 0.741445 0.838251 0.628249
244 2 0.708806 0.825185 0.711065
245 2 0.716839 0.748786 0.718297
246 1 0.771948 0.72259 0.680268
247 2 0.742597 0.802632 0.737527
248 2 0.743868 0.752105 0.739263
249 2 0.747573 0.74525 0.717193
250 2 0.72592 0.739165 0.717263
251 2 0.778458 0.757182 0.710808
252 2 0.722382 0.83431 0.619659
253 2 0.762816 0.772784 0.653983
254 2 0.739689 0.771953 0.709654
255 2 0.78943 0.770455 0.697936
256 2 0.761497 0.795972 0.739402
257 2 0.732628 0.770629 0.714521
258 2 0.771851 0.83483 0.711976
259 1 0.430496 0.829256 0.128515
260 2 0.724575 0.821621 0.69023
261 1 0.761933 0.686727 0.684632
262 2 0.905373 0.146427 0.466382
263 2 0.732152 0.822273 0.725853
264 2 0.812195 0.255413 0.340884
265 1 0.798853 0.743631 0.675242
266 2 0.756347 0.815201 0.742186
267 2 0.74626 0.80382 0.712403
268 1 0.730155 0.755571 0.621435
269 1 0.471125 0.756725 0.296951
270 2 0.0584225 0.587919 0.908155
271 2 0.104783 0.469214 0.512897
272 2 0.741032 0.748771 0.724289
273 1 0.64519 0.788206 0.708756
274 2 0.737044 0.798153 0.698639
275 2 0.733238 0.792431 0.68275
276 2 0.740763 0.775538 0.670565
277 2 0.76656 0.807477 0.698593
278 2 0.767259 0.200983 0.609153
279 2 0.710508 0.752682 0.733362
280 1 0.782008 0.793578 0.615377
281 2 0.140585 0.0919406 0.895509
282 2 0.767905 0.780955 0.667036
283 2 0.672208 0.203854 0.790461
284 1 0.792071 0.907736 0.71994
285 2 0.790115 0.800255 0.744654
286 2 0.744405 0.802457 0.663941
287 1 0.718724 0.86531 0.0577652
288 2 0.736675 0.777331 0.724107
289 2 0.71001 0.803664 0.730391
290 2 0.710402 0.795718 0.685171
291 2 0.71279 0.785445 0.705514
292 2 0.598002 0.264972 0.273086
293 2 0.75924 0.798819 0.692873
294 2 0.774748 0.795358 0.692328
295 2 0.781069 0.781011 0.745672
296 2 0.586077 0.540438 0.806827
297 2 0.674556 0.789765 0.710213
298 2 0.716053 0.808112 0.718739
299 1 0.732765 0.71009 0.690191
300 2 0.710391 0.808965 0.660447
301 2 0.760559 0.74676 0.69412
302 2 0.396972 0.485157 0.493152
303 2 0.739371 0.764068 0.683783
304 1 0.499926 0.208021 0.0899211
305 2 0.709277 0.819016 0.702386
306 2 0.74575 0.788178 0.745978
307 2 0.694611 0.765333 0.723065
308 2 0.667182 0.746686 0.324099
309 2 0.790464 0.816353 0.699712
310 2 0.712183 0.796228 0.712964
311 2 0.726894 0.804875 0.723986
312 2 0.732395 0.756356 0.692696
313 2 0.758042 0.794271 0.727582
314 2 0.32394 0.84717 0.731088
315 2 0.771685 0.769854 0.735217
316 2 0.769182 0.827314 0.658391
317 2 0.728495 0.781821 0.697459
318 2 0.85824 0.272852 0.971977
319 2 0.710031 0.801443 0.679425
320 2 0.76094 0.812815 0.713482
321 2 0.728969 0.817879 0.751089
322 2 0.737869 0.791825 0.755528
323 2 0.0889678 0.529225 0.178345
324 2 0.00457945 0.555285 0.186337
325 2 0.73694 0.818159 0.698658
326 2 0.702988 0.776212 0.71336
327 2 0.771408 0.779444 0.690558
328 2 0.735614 0.798989 0.703669
329 1 0.565976 0.09113 0.738527
330 2 0.723068 0.820852 0.663853
331 2 0.749264 0.821147 0.726197
332 2 0.748272 0.798543 0.727698
333 2 0.724178 0.800645 0.750655
334 2 0.688708 0.777046 0.679832
335 1 0.230258 0.678314 0.97601
336 2 0.76185 0.809878 0.670676
337 2 0.0439838 0.594201 0.809435
338 1 0.701229 0.786277 0.622343
339 2 0.737954 0.807026 0.724033
340 2 0.756769 0.783832 0.753538
341 2 0.712054 0.762694 0.726677
342 2 0.735498 0.787386 0.706053
343 2 0.711224 0.81801 0.718353
344 1 0.760342 0.760131 0.816915
345 1 0.67375 0.794119 0.633528
346 1 0.681942 0.832653 0.759018
347 1 0.359007 0.554924 0.584452
348 2 0.758854 0.818231 0.655528
349 2 0.674142 0.833147 0.738803
350 2 0.836686 0.589283 0.575962
351 2 0.695482 0.806999 0.73513
352 2 0.545908 0.28253 0.159432
353 1 0.689751 0.846623 0.643173
354 1 0.705374 0.84083 0.806029
355 2 0.154666 0.284039 0.791432
356 2 0.740216 0.807199 0.73118
357 2 0.637642 0.710445 0.329981
358 2 0.644471 0.716974 0.630319
359 2 0.687656 0.778849 0.699824
360 2 0.744492 0.762418 0.740757
361 1 0.710634 0.738984 0.756916
362 2 0.657681 0.401955 0.289578
363 1 0.770426 0.855348 0.783569
364 2 0.749401 0.776223 0.741773
365 2 0.782228 0.805386 0.660404
366 2 0.700337 0.783372 0.728058
367 1 0.230542 0.731435 0.163013
368 1 0.638545 0.743117 0.714746
369 2 0.430716 0.18421 0.930481
370 2 0.684096 0.807711 0.720879
371 2 0.730106 0.845724 0.683106
372 1 0.743149 0.873455 0.73973
373 2 0.739437 0.844487 0.677095
374 2 0.731019 0.983151 0.268367
375 2 0.762961 0.773125 0.723339
376 2 0.778645 0.77827 0.70874
377 2 0.732734 0.772012 0.656295
378 2 0.734438 0.804228 0.679157
379 2 0.713373 0.846149 0.696998
380 2 0.755785 0.782014 0.644647
381 2 0.758708 0.774867 0.714684
382 2 0.0455879 0.538769 0.833424
383 2 0.738774 0.787219 0.669118
384 1 0.0663027 0.201143 0.959889
385 2 0.679662 0.785855 0.698153
386 2 0.795425 0.800847 0.708316
387 1 0.437535 0.616581 0.866678
388 2 0.719743 0.781712 0.704934
389 2 0.714879 0.807671 0.750644
390 2 0.722985 0.743344 0.693246
391 2 0.728467 0.807569 0.671376
392 1 0.799616 0.853911 0.676015
393 2 0.847428 0.416217 0.0189664
394 2 0.72983 0.799383 0.649925
395 2 0.757289 0.772289 0.751406
396 2 0.71509 0.772015 0.725258
397 2 0.725011 0.832722 0.699093
398 1 0.562685 0.823803 0.437805
399 1 0.805584 0.873361 0.639773
400 1 0.739951 0.0736552 0.568193
401 2 0.684248 0.786486 0.662433
402 2 0.359728 0.0844583 0.0268663
403 2 0.721341 0.759025 0.740839
404 2 0.729575 0.829438 0.672129
405 2 0.303399 0.216414 0.190787
406 2 0.760816 0.808166 0.699177
407 2 0.742666 0.848097 0.723994
408 2 0.726033 0.836047 0.689671
409 2 0.685541 0.795044 0.665914
410 2 0.788336 0.806471 0.697484
411 2 0.0437105 0.521565 0.737571
412 2 0.419066 0.686664 0.846836
413 2 0.737725 0.783925 0.652084
414 2 0.760972 0.840876 0.684246
415 2 0.733795 0.79029 0.66122
416 1 0.651696 0.810702 0.666472
417 2 0.506403 0.657286 0.605407
418 2 0.758212 0.763209 0.715414
419 2 0.744369 0.79947 0.750096
420 2 0.912685 0.852259 0.245253
421 1 0.702732 0.770297 0.770294
422 1 0.790618 0.748362 0.647722
423 2 0.737953 0.780504 0.641587
424 2 0.707384 0.746864 0.70331
425 1 0.69068 0.732253 0.663493
426 2 0.836856 0.0743539 0.547088
427 2 0.705893 0.36508 0.484117
428 2 0.295543 0.726841 0.558591
429 2 0.690135 0.768496 0.701648
430 2 0.712476 0.795416 0.753065
431 2 0.710319 0.799138 0.648642
432 1 0.784422 0.830944 0.765896
433 2 0.69698 0.372272 0.982951
434 1 0.621941 0.38179 0.657375
435 2 0.787045 0.786542 0.684047
436 2 0.78884 0.803985 0.668778
437 2 0.633117 0.221808 0.352773
438 2 0.0772422 0.615598 0.863489
439 1 0.748296 0.738889 0.631962
440 2 0.723061 0.81164 0.713708
441 1 0.636083 0.898326 0.770387
442 1 0.837611 0.838236 0.686388
443 1 0.971088 0.747488 0.881938
444 2 0.775484 0.821044 0.689958
445 2 0.405611 0.975162 0.31806
446 2 0.699137 0.806289 0.725898
447 2 0.730426 0.852281 0.713938
448 2 0.73064 0.879205 0.630665
449 1 0.276935 0.225811 0.818814
450 2 0.757455 0.795089 0.675899
451 2 0.779989 0.78879 0.660036
452 2 0.763633 0.757231 0.679877
453 1 0.818849 0.826756 0.715679
454 2 0.711768 0.810615 0.70872
455 2 0.522701 0.508361 0.229404
456 2 0.819874 0.911573 0.42073
457 2 0.759341 0.775306 0.67493
458 2 0.744145 0.795509 0.640348
459 2 0.74952 0.794527 0.718571
460 2 0.733846 0.842237 0.694731
461 2 0.31871 0.360881 0.847623
462 2 0.751984 0.772523 0.680596
463 1 0.683334 0.864734 0.696227
464 2 0.20861 0.0549603 0.285236
465 2 0.736316 0.778008 0.682556
466 2 0.742326 0.828345 0.723411
467 1 0.79108 0.757407 0.765389
468 2 0.591248 0.689397 0.60118
469 2 0.745808 0.792897 0.742841
470 2 0.717463 0.747654 0.690339
471 2 0.745247 0.849328 0.69112
472 2 0.740467 0.826008 0.680282
473 1 0.808857 0.864753 0.757985
474 1 0.0670106 0.53646 0.891039
475 1 0.163563 0.540682 0.331079
476 2 0.723614 0.786259 0.743938
477 2 0.693423 0.807141 0.658986
478 2 0.7123 0.826429 0.686366
479 2 0.296974 0.411779 0.964575
480 2 0.685731 0.777104 0.723016
481 2 0.753033 0.825599 0.707621
482 2 0.980843 0.215666 0.620014
483 2 0.712414 0.843478 0.678686
484 1 0.68487 0.864875 0.671363
485 1 0.807181 0.828005 0.787357
486 2 0.758727 0.808568 0.651626
487 2 0.751521 0.801092 0.647011
488 2 0.741142 0.81253 0.71162
489 2 0.76363 0.828818 0.664417
490 2 0.707105 0.832632 0.708843
491 2 0.745591 0.818121 0.677882
492 2 0.781077 0.809746 0.725218
493 2 0.722974 0.818939 0.717726
494 2 0.747193 0.762367 0.703968
495 2 0.743999 0.7551 0.657751
496 2 0.700229 0.819324 0.717728
497 2 0.198103 0.760267 0.673314
498 1 0.799372 0.855478 0.71227
499 2 0.710448 0.77604 0.697264
500 2 0.725834 0.817408 0.679561
501 1 0.818355 0.782345 0.679166
502 2 0.748301 0.824798 0.651956
503 2 0.70318 0.796219 0.695206
504 1 0.667048 0.832213 0.614146
505 2 0.719316 0.807208 0.75845
506 2 0.758026 0.817589 0.719442
507 2 0.729377 0.793787 0.722513
508 2 0.755038 0.76407 0.661291
509 1 0.739698 0.700179 0.720579
510 2 0.715694 0.794726 0.657131
511 2 0.73287 0.763599 0.702624
512 2 0.742152 0.794683 0.716581
513 1 0.353086 0.276158 0.68811
514 2 0.68538 0.794842 0.682433
515 1 0.839622 0.737841 0.703288
516 2 0.726894 0.762763 0.71218
517 1 0.718146 0.857219 0.618292
518 2 0.776195 0.804018 0.697422
519 2 0.721397 0.786207 0.722086
520 2 0.724012 0.746462 0.708338
521 2 0.875656 0.224939 0.549859
522 2 0.78991 0.786717 0.728471
523 2 0.693498 0.794931 0.699965
524 2 0.769619 0.763031 0.724384
525 2 0.761708 0.825265 0.726573
526 2 0.398718 0.732715 0.194766
527 2 0.719495 0.80223 0.71572
528 1 0.681853 0.344318 0.261741
529 2 0.744714 0.786901 0.762908
530 2 0.783392 0.782077 0.71864
531 2 0.722868 0.766243 0.666264
532 2 0.780847 0.814954 0.735351
533 2 0.654398 0.762291 0.709899
534 1 0.633497 0.850106 0.650774
535 2 0.732412 0.811989 0.715161
536 1 0.653898 0.876336 0.709868
537 1 0.662339 0.769853 0.736888
538 2 0.726928 0.776178 0.753981
539 2 0.748458 0.851072 0.720135
540 2 0.369827 0.61425 0.213905
541 1 0.803198 0.776569 0.656078
542 2 0.742193 0.762255 0.651424
543 1 0.713576 0.0370009 0.132618
544 1 0.775399 0.852815 0.648769
545 2 0.774009 0.82329 0.703033
546 2 0.787374 0.820731 0.728082
547 2 0.698008 0.767171 0.418501
548 2 0.776597 0.799408 0.748121
549 2 0.773542 0.768485 0.684426
550 2 0.282009 0.372076 0.255871
551 1 0.721424 0.87875 0.713129
552 2 0.533772 0.12023 0.280017
553 2 0.777229 0.813291 0.682587
554 2 0.699649 0.789295 0.71403
555 1 0.316369 0.481919 0.921212
556 2 0.884876 0.100906 0.285616
557 2 0.776072 0.829333 0.710655
558 1 0.663645 0.815213 0.791587
559 2 0.723289 0.805144 0.66265
560 2 0.681312 0.803226 0.705782
561 2 0.732168 0.830701 0.688864
562 1 0.695609 0.881981 0.637936
563 2 0.754291 0.818438 0.748238
564 2 0.905706 0.0966651 0.0226005
565 2 0.719024 0.808423 0.696235
566 2 0.0791843 0.766819 0.215526
567 2 0.717617 0.830257 0.683091
568 2 0.739814 0.816956 0.750248
569 1 0.651242 0.815598 0.7047
570 2 0.761649 0.851748 0.690157
571 2 0.613849 0.903885 0.725242
572 2 0.71461 0.763896 0.700569
573 2 0.704851 0.798836 0.729384
574 2 0.149684 0.761135 0.899149
575 1 0.218848 0.878743 0.579628
576 2 0.762724 0.827613 0.698106
577 2 0.755827 0.779672 0.702485
578 1 0.763991 0.737259 0.594263
579 2 0.783381 0.810588 0.712775
580 1 0.668058 0.743395 0.636788
581 2 0.987691 0.132925 0.67207
582 2 0.69963 0.802583 0.701984
583 1 0.707292 0.772196 0.811662
584 2 0.726456 0.778473 0.724033
585 1 0.664689 0.761518 0.785149
586 2 0.766149 0.780056 0.719231
587 2 0.735082 0.800264 0.658613
588 2 0.194684 0.76354 0.380222
589 1 0.83803 0.809908 0.646229
590 1 0.709323 0.727634 0.637859
591 1 0.765951 0.717407 0.716192
592 2 0.625044 0.522547 0.863823
593 2 0.731489 0.780862 0.705963
594 1 0.837817 0.652341 0.881138
595 1 0.732389 0.603936 0.0554325
596 2 0.756804 0.800021 0.750128
597 1 0.166614 0.962584 0.776095
598 2 0.736782 0.748767 0.740384
599 2 0.721833 0.789012 0.700522
600 2 0.693768 0.831417 0.703065
601 2 0.743277 0.780453 0.726306
602 1 0.720999 0.911699 0.649405
603 2 0.730722 0.790332 0.695223
604 1 0.0985734 0.131129 0.200639
605 2 0.1289 0.617458 0.322892
606 2 0.120393 0.427933 0.420668
607 1 0.77849 0.873232 0.688887
608 2 0.470911 0.677268 0.0869061
609 2 0.702981 0.83333 0.663881
610 2 0.706243 0.846515 0.70104
611 2 0.753087 0.752603 0.727919
612 1 0.882892 0.177511 0.781195
613 2 0.764669 0.836305 0.704636
614 1 0.00216427 0.988468 0.54715
615 2 0.369297 0.249539 0.944504
616 1 0.728406 0.719982 0.607534
617 2 0.691418 0.756186 0.69945
618 2 0.735982 0.177758 0.196373
619 2 0.528792 0.417493 0.8395
620 2 0.47144 0.934161 0.405461
621 2 0.736738 0.810292 0.650245
622 2 0.727182 0.801409 0.668469
623 1 0.610192 0.444231 0.246868
624 2 0.753694 0.7541 0.723589
625 2 0.938681 0.97892 0.199794
626 2 0.316062 0.195107 0.874289
627 2 0.754767 0.783946 0.664997
628 2 0.24693 0.824003 0.24651
629 2 0.76917 0.831221 0.684875
630 1 0.684122 0.755922 0.756286
631 2 0.680892 0.798724 0.695959
632 2 0.757769 0.784552 0.65962
633 2 0.759687 0.797761 0.666514
634 2 0.306033 0.00295592 0.0917442
635 2 0.816646 0.648435 0.145412
636 2 0.721653 0.755031 0.703727
637 2 0.756417 0.747416 0.68459
638 1 0.153474 0.348149 0.254187
639 2 0.758422 0.781577 0.692508
640 2 0.771782 0.765514 0.703052
641 2 0.717952 0.856377 0.702174
642 2 0.77221 0.815658 0.707305
643 2 0.746706 0.945171 0.257053
644 2 0.716235 0.750727 0.663265
645 1 0.811165 0.829254 0.746312
646 2 0.700821 0.778502 0.698071
647 1 0.708523 0.719288 0.726592
648 2 0.225194 0.890367 0.859024
649 2 0.744849 0.788221 0.706264
650 2 0.722514 0.775678 0.731126
651 2 0.730083 0.810693 0.734362
652 2 0.759212 0.821856 0.68981
653 2 0.752945 0.809418 0.761796
654 1 0.803031 0.800276 0.639571
655 2 0.299699 0.0818504 0.988629
656 2 0.693646 0.785409 0.690104
657 2 0.0748539 0.76661 0.876059
658 2 0.738984 0.828294 0.738921
659 2 0.710205 0.791218 0.668763
660 2 0.314177 0.825731 0.507837
661 1 0.910054 0.579547 0.521059
662 2 0.768323 0.805476 0.714009
663 2 0.766576 0.755551 0.724947
664 1 0.140393 0.72587 0.143721
665 2 0.405611 0.113339 0.756037
666 2 0.721048 0.833689 0.662263
667 2 0.735887 0.73852 0.712723
668 2 0.712547 0.783905 0.690383
669 2 0.924257 0.332016 0.963082
670 1 0.585576 0.410915 0.167703
671 2 0.620615 0.285542 0.536759
672 1 0.725043 0.85883 0.650996
673 2 0.742675 0.826557 0.692364
674 2 0.709145 0.787002 0.720121
675 2 0.468767 0.232943 0.742048
676 1 0.763224 0.894479 0.760233
677 2 0.768276 0.750226 0.70146
678 2 0.734704 0.808604 0.714829
679 1 0.409607 0.968782 0.827407
680 2 0.728602 0.796245 0.709637
681 1 0.66944 0.831737 0.657137
682 1 0.833708 0.760852 0.648804
683 2 0.382901 0.0019779 0.253744
684 2 0.971535 0.845344 0.41669
685 2 0.698557 0.766967 0.707912
686 2 0.564644 0.0116901 0.409539
687 1 0.820616 0.713892 0.663315
688 2 0.82334 0.0792224 0.992489
689 2 0.785613 0.799333 0.711517
690 2 0.762914 0.772933 0.692752
691 2 0.695185 0.762962 0.730628
692 1 0.677294 0.740284 0.727436
693 2 0.717674 0.82936 0.672031
694 2 0.734424 0.744474 0.706874
695 1 0.651797 0.715853 0.668509
696 2 0.0786503 0.600095 0.0861539
697 2 0.861466 0.611738 0.445851
698 2 0.763845 0.781764 0.717512
699 2 0.72836 0.799734 0.702061
700 1 0.77138 0.68826 0.747006
701 2 0.786959 0.79224 0.713018
702 2 0.731439 0.756794 0.724645
703 2 0.789217 0.771403 0.686221
704 2 0.948617 0.0705921 0.0768275
705 2 0.762204 0.800029 0.721222
706 2 0.766261 0.843297 0.724358
707 2 0.90657 0.281716 0.00634118
708 1 0.783867 0.8606 0.74047
709 2 0.197158 0.385631 0.994101
710 2 0.75124 0.808275 0.725485
711 2 0.695394 0.820225 0.664289
712 1 0.746074 0.888086 0.693713
713 2 0.729955 0.832232 0.709308
714 1 0.711662 0.875849 0.672954
715 2 0.703223 0.780376 0.676267
716 1 0.711434 0.68949 0.723216
717 2 0.764708 0.75431 0.708357
718 2 0.130739 0.949229 0.840618
719 2 0.719059 0.798339 0.697985
720 2 0.735125 0.826455 0.714439
721 2 0.714256 0.785452 0.73477
722 1 0.972095 0.510612 0.752117
723 2 0.35963 0.798346 0.361589
724 2 0.737399 0.764634 0.698834
725 2 0.196509 0.715907 0.135143
726 2 0.704031 0.840681 0.687503
727 1 0.291072 0.41465 0.79918
728 1 0.485885 0.411198 0.0896736
729 1 0.762528 0.806968 0.788544
730 1 0.682816 0.713777 0.760001
731 2 0.775749 0.831409 0.72463
732 1 0.497381 0.0452467 0.00837444
733 2 0.691996 0.810013 0.698289
734 2 0.760255 0.745252 0.735229
735 2 0.751922 0.842348 0.738409
736 1 0.811373 0.690298 0.70005
737 2 0.748965 0.763247 0.695961
738 2 0.717372 0.773672 0.674438
739 2 0.766505 0.795881 0.727967
740 2 0.755545 0.817599 0.68579
741 2 0.775137 0.748368 0.717046
742 1 0.653572 0.848505 0.763776
743 2 0.761829 0.801307 0.688674
744 2 0.732496 0.786659 0.678845
745 2 0.701565 0.796258 0.682647
746 1 0.729982 0.715356 0.660939
747 2 0.983627 0.824637 0.200617
748 2 0.733812 0.793349 0.733323
749 2 0.746718 0.835087 0.716664
750 2 0.773613 0.037944 0.285211
751 2 0.726048 0.75737 0.721754
752 2 0.739944 0.752648 0.690998
753 2 0.79162 0.787171 0.709663
754 2 0.79056 0.722684 0.63687
755 2 0.770533 0.78317 0.704247
756 2 0.732696 0.82752 0.706108
757 2 0.749139 0.818398 0.700718
758 2 0.697366 0.801094 0.713673
759 2 0.706309 0.757613 0.685184
760 1 0.154505 0.0284372 0.992621
761 2 0.752237 0.771955 0.703517
762 2 0.724523 0.769614 0.648721
763 1 0.616429 0.0287595 0.726432
764 2 0.748477 0.752963 0.680797
765 2 0.703121 0.797722 0.663551
766 2 0.704956 0.792598 0.747138
767 2 0.683341 0.062047 0.480041
768 2 0.780621 0.759552 0.685041
769 2 0.716579 0.792847 0.704582
770 2 0.746918 0.789072 0.73718
771 2 0.638792 0.715335 0.224296
772 2 0.967838 0.905692 0.17887
773 1 0.850371 0.793431 0.688848
774 2 0.0517206 0.963713 0.7777
775 2 0.650631 0.346444 0.902142
776 2 0.726486 0.799333 0.672378
777 1 0.677087 0.736278 0.693905
778 2 0.736869 0.834288 0.746699
779 2 0.326555 0.979884 0.844881
780 1 0.698638 0.822599 0.623897
781 2 0.725203 0.762681 0.696151
782 2 0.28202 0.299231 0.486896
783 1 0.762593 0.714236 0.646789
784 2 0.716398 0.810321 0.675731
785 2 0.712709 0.825778 0.743255
786 1 0.815654 0.801351 0.732489
787 2 0.782171 0.822855 0.684573
788 2 0.736652 0.811946 0.745754
789 2 0.767451 0.792651 0.557141
790 2 0.679143 0.773682 0.682053
791 1 0.814804 0.784392 0.760907
792 2 0.775351 0.782253 0.729379
793 2 0.762695 0.734577 0.155436
794 2 0.766296 0.782662 0.698292
795 2 0.743907 0.779586 0.698443
796 2 0.716226 0.748433 0.677255
797 2 0.767207 0.820246 0.673716
798 2 0.763077 0.840446 0.668398
799 2 0.743853 0.770444 0.684838
800 2 0.906186 0.956635 0.217747
801 2 0.701939 0.750384 0.693481
802 2 0.691045 0.758082 0.708955
803 2 0.772896 0.803591 0.736848
804 2 0.95357 0.210495 0.967701
805 2 0.19564 0.286737 0.461653
806 1 0.847727 0.839172 0.796609
807 2 0.739377 0.753872 0.714632
808 2 0.755479 0.769755 0.71095
809 1 0.818029 0.76376 0.702981
810 2 0.705035 0.818736 0.673924
811 2 0.731271 0.817792 0.662029
812 2 0.765497 0.814657 0.752861
813 1 0.374179 0.115524 0.127312
814 2 0.78738 0.818333 0.71814
815 2 0.734754 0.822571 0.669224
816 1 0.79738 0.832013 0.646576
817 1 0.732766 0.75669 0.778739
818 2 0.737166 0.840089 0.716362
819 1 0.687774 0.854861 0.732113
820 1 0.613717 0.81831 0.714671
821 2 0.698668 0.789284 0.681117
822 2 0.72487 0.780456 0.660752
823 1 0.75033 0.874412 0.659635
824 2 0.667475 0.723883 0.238652
825 2 0.707966 0.805884 0.7043
826 2 0.653219 0.191201 0.0289817
827 1 0.658677 0.758318 0.686468
828 2 0.731295 0.848274 0.701064
829 2 0.775754 0.770582 0.668292
830 2 0.00187802 0.41145 0.137006
831 1 0.679185 0.782057 0.59037
832 2 0.771253 0.808875 0.662381
833 1 0.69384 0.897344 0.6934
834 2 0.709795 0.823437 0.68089
835 2 0.936017 0.00345135 0.216057
836 2 0.732096 0.792296 0.741661
837 2 0.785165 0.783357 0.734515
838 2 0.75106 0.786748 0.690872
839 2 0.428089 0.228489 0.929274
840 2 0.72837 0.75335 0.677451
841 2 0.687011 0.797567 0.734661
842 2 0.701128 0.106424 0.806126
843 2 0.718749 0.830909 0.706552
844 2 0.76412 0.809664 0.644086
845 2 0.750101 0.82511 0.68508
846 2 0.77259 0.791703 0.709774
847 2 0.771923 0.826164 0.680455
848 2 0.750627 0.810664 0.671989
849 1 0.776942 0.722515 0.784424
850 2 0.708302 0.846994 0.715599
851 2 0.714784 0.769954 0.687265
852 2 0.743233 0.778073 0.64876
853 1 0.700544 0.719069 0.691468
854 2 0.438546 0.409795 0.426012
855 2 0.756015 0.833581 0.687795
856 2 0.675357 0.803775 0.687556
857 2 0.714838 0.762955 0.678511
858 2 0.742054 0.840869 0.660002
859 2 0.700527 0.82036 0.688593
860 2 0.100019 0.940858 0.798245
861 2 0.704778 0.816808 0.731549
862 2 0.862893 0.889473 0.694429
863 2 0.73327 0.814772 0.704406
864 2 0.727124 0.757887 0.734593
865 2 0.764423 0.797601 0.705872
866 2 0.740369 0.811659 0.684544
867 2 0.303562 0.587437 0.877223
868 2 0.764359 0.807083 0.742855
869 2 0.724833 0.802778 0.7366
870 2 0.729188 0.821678 0.651626
871 2 0.742107 0.768482 0.665362
872 2 0.697017 0.771231 0.671161
873 2 0.769587 0.80013 0.725494
874 2 0.754944 0.855836 0.708493
875 2 0.725828 0.743978 0.727074
876 2 0.697814 0.81519 0.698749
877 2 0.707353 0.768783 0.699972
878 2 0.678073 0.775633 0.699663
879 2 0.707579 0.780581 0.653343
880 2 0.385298 0.834468 0.940698
881 2 0.753717 0.815513 0.67219
882 1 0.35177 0.398256 0.974099
883 1 0.424676 0.772403 0.157815
884 2 0.761233 0.764383 0.751586
885 2 0.738004 0.77964 0.744471
886 2 0.791085 0.810746 0.68057
887 1 0.919464 0.204232 0.0639768
888 2 0.69503 0.890229 0.719429
889 2 0.876569 0.0873686 0.187228
890 1 0.625619 0.78348 0.644825
891 2 0.16075 0.854638 0.00456125
892 2 0.747311 0.844556 0.705398
893 2 0.755177 0.764714 0.679912
894 2 0.69724 0.792016 0.657894
895 1 0.81256 0.819883 0.673254
896 2 0.685454 0.81238 0.686575
897 2 0.702172 0.826243 0.737876
898 2 0.78263 0.764483 0.697356
899 2 0.955722 0.386428 0.290853
900 2 0.749095 0.773685 0.690941
901 2 0.763991 0.790188 0.680609
902 2 0.769187 0.81552 0.724718
903 2 0.708516 0.760341 0.709586
904 2 0.741768 0.779078 0.7082
905 2 0.700258 0.839139 0.679837
906 2 0.744264 0.773977 0.753371
907 2 0.752286 0.806554 0.74865
908 1 0.797938 0.727165 0.70151