ITEM: TIMESTEP
30100
ITEM: NUMBER OF ATOMS
1000
ITEM: BOX BOUNDS xy xz yz pp pp pp
0.0000000000000000e+00 1.3572088000000001e+01 0.0000000000000000e+00
0.0000000000000000e+00 1.3572088000000001e+01 0.0000000000000000e+00
0.0000000000000000e+00 1.3572088000000001e+01 0.0000000000000000e+00
ITEM: ATOMS id type xs ys zs
1 2 0.284683 0.468558 0.555572
2 2 0.767377 0.973465 0.811781
3 1 0.0358089 0.29272 0.531063
4 2 0.864741 0.988992 0.537282
5 2 0.0313724 0.962276 0.221445
6 1 0.825361 0.745589 0.260504
7 2 0.495568 0.565237 0.0535296
8 2 0.716408 0.787228 0.0939927
9 2 0.367567 0.365378 0.226347
10 2 0.463765 0.347551 0.379182
11 2 0.108908 0.988403 0.502862
12 2 0.192356 0.778338 0.642612
13 2 0.180183 0.756063 0.488966
14 1 0.21193 0.121037 0.496252
15 2 0.328799 0.86293 0.478475
16 2 0.275918 0.626383 0.351863
17 1 0.902196 0.451299 0.0602583
18 2 0.212292 0.962351 0.514891
19 2 0.417548 0.793035 0.414897
20 2 0.287589 0.669366 0.590242
21 2 0.888727 0.192346 0.37778
22 2 0.290971 0.697186 0.0620249
23 2 0.203897 0.0660156 0.326611
24 2 0.265789 0.629347 0.696033
25 1 0.415244 0.576822 0.955987
26 2 0.900009 0.175328 0.648578
27 2 0.446412 0.180696 0.485523
28 2 0.427748 0.0760957 0.750067
29 2 0.343589 0.622585 0.536276
30 2 0.569942 0.394759 0.283034
31 1 0.150529 0.626157 0.927384
32 1 0.91513 0.701657 0.314171
33 1 0.423291 0.379537 0.63476
34 2 0.336459 0.880242 0.3065
35 2 0.685988 0.299603 0.881262
36 1 0.550391 0.0564047 0.72812
37 2 0.413636 0.864533 0.496444
38 2 0.0585603 0.251369 0.58614
39 2 0.299929 0.336159 0.612367
40 2 0.0796738 0.957755 0.303071
41 2 0.732938 0.101342 0.764923
42 2 0.77629 0.218755 0.779456
43 2 0.36772 0.947187 0.52246
44 2 0.366704 0.399677 0.456472
45 2 0.752141 0.229883 0.126448
46 1 0.629915 0.0399896 0.962051
47 2 0.430983 0.394994 0.717109
48 2 0.382641 0.264604 0.187814
49 2 0.509778 0.689375 0.41821
50 2 0.411344 0.472871 0.370457
51 2 0.0491417 0.992407 0.514458
52 2 0.252041 0.765102 0.318737
53 2 0.481369 0.250604 0.269414
54 2 0.457308 0.170162 0.247729
55 1 0.252108 0.717418 0.591972
56 1 0.485475 0.161995 0.700938
57 2 0.47474 0.979323 0.564268
58 2 0.645343 0.32822 0.582809
59 2 0.676871 0.741428 0.70075
60 2 0.733372 0.927748 0.146293
61 2 0.824281 0.03589 0.766878
62 2 0.832615 0.660904 0.668948
63 2 0.432069 0.665684 0.743363
64 2 0.930717 0.75187 0.346105
65 2 0.0319511 0.130602 0.16435
66 1 0.340459 0.557425 0.240562
67 2 0.389218 0.348039 0.565962
68 2 0.832393 0.386057 0.00943164
69 1 0.9246 0.778866 0.590205
70 2 0.42051 0.502797 0.0923181
71 1 0.351722 0.942467 0.938997
72 2 0.512987 0.932225 0.560868
73 2 0.30472 0.686752 0.550053
74 2 0.504989 0.346178 0.660819
75 2 0.377923 0.028606 0.0312078
76 2 0.482649 0.756457 0.675864
77 1 0.678007 0.273531 0.0706781
78 2 0.304323 0.370953 0.727133
79 2 0.883797 0.105162 0.812863
80 2 0.884603 0.59322 0.91542
81 2 0.77141 0.91142 0.139513
82 2 0.819177 0.85913 0.890706
83 2 0.966131 0.341873 0.094475
84 2 0.606573 0.517389 0.543472
85 1 0.656677 0.572981 0.640612
86 2 0.421881 0.484111 0.430936
87 2 0.951789 0.488584 0.936532
88 2 0.615273 0.688218 0.375061
89 2 0.420934 0.328107 0.619684
90 2 0.215432 0.121062 0.0862089
91 2 0.779455 0.95258 0.439928
92 2 0.143915 0.132865 0.233168
93 2 0.463768 0.948756 0.701876
94 1 0.117918 0.582309 0.572215
95 2 0.940689 0.9612 0.0983329
96 2 0.00482988 0.368156 0.309438
97 2 0.448375 0.255916 0.12793
98 2 0.426625 0.393965 0.480856
99 2 0.688626 0.334312 0.0874609
100 2 0.321131 0.40871 0.70729
101 1 0.700579 0.66964 0.230159
102 2 0.456159 0.699347 0.763179
103 2 0.537699 0.769487 0.741691
104 2 0.833866 0.754499 0.214579
105 2 0.358294 0.160862 0.202051
106 2 0.853136 0.236447 0.756651
107 2 0.877289 0.798668 0.106308
108 2 0.650035 0.194339 0.653062
109 2 0.225744 0.962399 0.560926
110 2 0.214486 0.0169378 0.712899
111 2 0.0339797 0.26652 0.0778362
112 1 0.451682 0.357161 0.839195
113 1 0.0575276 0.325401 0.167566
114 2 0.53425 0.308516 0.643556
115 2 0.684419 0.710481 0.886895
116 2 0.752721 0.736221 0.802591
117 2 0.851378 0.113116 0.889076
118 2 0.489356 0.297969 0.525202
119 2 0.428789 0.812808 0.130177
120 2 0.836375 0.0106413 0.849476
121 2 0.446867 0.0890045 0.237864
122 2 0.464481 0.566404 0.986544
123 2 0.0425185 0.363398 0.1157
124 2 0.302808 0.489786 0.431083
125 1 0.4865 0.334086 0.0201387
126 2 0.487693 0.531141 0.94476
127 2 0.486724 0.671671 0.636777
128 2 0.997092 0.067464 0.594497
129 1 0.253071 0.549922 0.269919
130 2 0.641004 0.148417 0.201588
131 2 0.0601747 0.107883 0.33113
132 2 0.426733 0.362757 0.217685
133 2 0.37061 0.685424 0.630284
134 2 0.0505674 0.954876 0.885214
135 2 0.864307 0.135097 0.698864
136 2 0.510165 0.698428 0.557917
137 1 0.188881 0.827731 0.262027
138 2 0.211936 0.907005 0.944294
139 2 0.854009 0.605153 0.82055
140 1 0.421545 0.671342 0.387285
141 2 0.885153 0.276991 0.877715
142 2 0.646372 0.673037 0.875595
143 2 0.447961 0.0671395 0.807157
144 2 0.926067 0.491232 0.808064
145 2 0.765231 0.704389 0.297211
146 2 0.361461 0.807771 0.505148
147 1 0.433371 0.858771 0.0941781
148 1 0.503681 0.191856 0.309375
149 2 0.112426 0.0664216 0.539361
150 1 0.483007 0.0867912 0.602284
151 2 0.80772 0.527862 0.139912
152 2 0.583561 0.134131 0.0123376
153 1 0.624041 0.632887 0.421607
154 1 0.595914 0.236129 0.692928
155 2 0.0172964 0.532812 0.949625
156 2 0.653213 0.471523 0.0696439
157 2 0.539501 0.374784 0.686016
158 2 0.0716352 0.287517 0.0924541
159 2 0.798165 0.84993 0.580587
160 2 0.365118 0.965421 0.47121
161 2 0.411242 0.299219 0.514405
162 2 0.809718 0.440255 0.315242
163 2 0.31321 0.832123 0.336838
164 2 0.329075 0.129857 0.783306
165 2 0.951362 0.594001 0.412287
166 2 0.758167 0.00490919 0.237764
167 2 0.822888 0.19131 0.427563
168 2 0.914983 0.740159 0.0635147
169 2 0.05343 0.321839 0.107725
170 2 0.441175 0.0194426 0.826461
171 2 0.596545 0.393044 0.214127
172 2 0.746443 0.498998 0.72088
173 1 0.711306 0.592473 0.499107
174 2 0.534009 0.376298 0.214218
175 2 0.953166 0.631817 0.82604
176 2 0.675858 0.0565456 0.412041
177 1 0.892581 0.162359 0.272512
178 2 0.359339 0.864243 0.576603
179 2 0.37666 0.97179 0.981816
180 2 0.68066 0.643102 0.818164
181 2 0.726161 0.318079 0.541351
182 2 0.328479 0.131041 0.979976
183 2 0.753349 0.653231 0.873837
184 2 0.403989 0.303461 0.768572
185 2 0.650755 0.560164 0.442351
186 2 0.812093 0.30661 0.410117
187 2 0.246299 0.444655 0.885313
188 1 0.8911 0.966211 0.811895
189 2 0.73793 0.0597988 0.214156
190 2 0.736941 0.714797 0.571161
191 2 0.605168 0.29413 0.404153
192 2 0.613063 0.103548 0.672032
193 2 0.576653 0.655602 0.781226
194 2 0.455339 0.0971116 0.267813
195 2 0.805857 0.722364 0.294686
196 2 0.76272 0.0225866 0.774714
197 2 0.993657 0.238968 0.119379
198 2 0.859985 0.153741 0.32928
199 2 0.0834378 0.272951 0.0612551
200 1 0.602943 0.256324 0.455276
201 2 0.330737 0.260679 0.745924
202 2 0.496112 0.601763 0.680186
203 2 0.416863 0.496459 0.27873
204 2 0.509284 0.479416 0.389701
205 2 0.864886 0.0236827 0.655526
206 2 0.219692 0.815256 0.346603
207 2 0.191689 0.0338276 0.610884
208 2 0.464046 0.372919 0.522192
209 2 0.171996 0.737419 0.806093
210 2 0.765086 0.176219 0.48643
211 2 0.72674 0.915588 0.780229
212 1 0.478474 0.0405142 0.681723
213 2 0.587174 0.970114 0.368041
214 2 0.0483682 0.346078 0.853474
215 2 0.733206 0.0689094 0.400985
216 2 0.539242 0.838609 0.752679
217 2 0.442975 0.0966968 0.188333
218 2 0.751189 0.632103 0.703356
219 2 0.406665 0.700414 0.8494
220 2 0.897018 0.141652 0.365708
221 2 0.903339 0.137548 0.904391
222 2 0.127927 0.768197 0.108395
223 2 0.334756 0.548218 0.427447
224 2 0.49475 0.953806 0.19098
225 1 0.577138 0.374624 0.0256643
226 2 0.148765 0.106871 0.571378
227 2 0.582803 0.380925 0.96569
228 2 0.680145 0.546029 0.558866
229 2 0.705206 0.708483 0.441628
230 1 0.201184 0.201661 0.311072
231 2 0.31068 0.517534 0.544567
232 2 0.222415 0.221815 0.826048
233 1 0.175907 0.0801317 0.616938
234 2 0.251006 0.0471232 0.6638
235 2 0.397264 0.076025 0.986925
236 2 0.0376902 0.295393 0.755651
237 2 0.302027 0.559547 0.400458
238 1 0.00399219 0.398983 0.0213921
239 1 0.504356 0.634579 0.428317
240 2 0.38766 0.786059 0.424776
241 2 0.328631 0.766082 0.417329
242 1 0.877994 0.605142 0.083009
243 1 0.707685 0.906753 0.663483
244 2 0.800552 0.0486146 0.477506
245 2 0.563243 0.0274385 0.501223
246 1 0.219798 0.660418 0.703883
247 2 0.280347 0.658748 0.759831
248 2 0.0833741 0.639541 0.375176
249 2 0.503819 0.650205 0.688194
250 2 0.564227 0.803347 0.214798
251 2 0.565344 0.64636 0.0115778
252 2 0.555429 0.534828 0.607078
253 2 0.441862 0.239329 0.377694
254 2 0.320115 0.845073 0.350033
255 2 0.810409 0.879481 0.636515
256 2 0.895484 0.591335 0.963383
257 2 0.187335 0.977309 0.906865
258 2 0.803672 0.638566 0.882824
259 1 0.553346 0.690145 0.683868
260 2 0.840724 0.119168 0.916698
261 1 0.961614 0.401012 0.483725
262 2 0.646917 0.612709 0.897255
263 2 0.447748 0.317898 0.200561
264 2 0.135534 0.319437 0.681918
265 1 0.087369 0.504624 0.461591
266 2 0.479563 0.17251 0.45472
267 2 0.215181 0.29631 0.247665
268 1 0.37751 0.849288 0.467685
269 1 0.413291 0.441511 0.59744
270 2 0.834059 0.443383 0.549268
271 2 0.120655 0.250129 0.339012
272 2 0.209938 0.0140328 0.67787
273 1 0.788213 0.535748 0.638951
274 2 0.940863 0.977005 0.227039
275 2 0.545496 0.971127 0.33494
276 2 0.421806 0.983552 0.209412
277 2 0.191582 0.490785 0.373609
278 2 0.63194 0.333168 0.994585
279 2 0.264367 0.534647 0.592668
280 1 0.484622 0.182261 0.522587
281 2 0.286843 0.0963635 0.211351
282 2 0.675659 0.582808 0.198458
283 2 0.524332 0.388427 0.657474
284 1 0.038552 0.323728 0.469878
285 2 0.955337 0.364061 0.743
286 2 0.202742 0.386855 0.160493
287 1 0.833932 0.3101 0.664768
288 2 0.319753 0.0127534 0.50431
289 2 0.351055 0.744041 0.500298
290 2 0.330641 0.218471 0.357158
291 2 0.0840936 0.605771 0.801531
292 2 0.648871 0.516742 0.539801
293 2 0.742727 0.607955 0.469436
294 2 0.699375 0.449926 0.703121
295 2 0.739389 0.912871 0.168565
296 2 0.704396 0.983565 0.25132
297 2 0.611388 0.311316 0.97467
298 2 0.677122 0.305944 0.00161159
299 1 0.478724 0.131663 0.245675
300 2 0.292793 0.854471 0.656396
301 2 0.640179 0.997396 0.427084
302 2 0.0825943 0.633693 0.619961
303 2 0.415167 0.693034 0.526252
304 1 0.830848 0.138942 0.0515683
305 2 0.381432 0.0185259 0.342773
306 2 0.110859 0.293461 0.522084
307 2 0.856615 0.207467 0.659166
308 2 0.644986 0.602635 0.559058
309 2 0.369621 0.466241 0.737145
310 2 0.744315 0.928929 0.59772
311 2 0.658647 0.5338 0.522766
312 2 0.491801 0.115391 0.137065
313 2 0.479369 0.923157 0.529983
314 2 0.48376 0.985255 0.714234
315 2 0.674712 0.557309 0.297657
316 2 0.754894 0.63088 0.291022
317 2 0.743523 0.540364 0.566633
318 2 0.463309 0.979652 0.82452
319 2 0.861707 0.273983 0.211974
320 2 0.365507 0.883146 0.340929
321 2 0.832726 0.577481 0.231726
322 2 0.1921 0.550008 0.2792
323 2 0.775576 0.202894 0.468287
324 2 0.429987 0.153378 0.715878
325 2 0.760696 0.794816 0.72766
326 2 0.263791 0.920168 0.9665
327 2 0.392952 0.297434 0.164019
328 2 0.365636 0.460273 0.571938
329 1 0.952468 0.746721 0.558134
330 2 0.777808 0.544567 0.0769969
331 2 0.774004 0.680735 0.882194
332 2 0.482958 0.022956 0.837125
333 2 0.997015 0.642796 0.515044
334 2 0.95005 0.686689 0.772741
335 1 0.44246 0.966111 0.280624
336 2 0.149575 0.953155 0.227338
337 2 0.241612 0.000921932 0.217591
338 1 0.491045 0.487131 0.947011
339 2 0.750413 0.610216 0.299083
340 2 0.277816 0.49423 0.59937
341 2 0.716448 0.0812772 0.438688
342 2 0.355001 0.46886 0.400224
343 2 0.112031 0.868199 0.208675
344 1 0.434665 0.935658 0.73522
345 1 0.608479 0.557592 0.546142
346 1 0.444956 0.403731 0.271975
347 1 0.701101 0.669357 0.319524
348 2 0.76279 0.900561 0.623349
349 2 0.336819 0.129057 0.194507
350 2 0.763563 0.2793 0.475196
351 2 0.140212 0.91237 0.995351
352 2 0.61462 0.955403 0.140427
353 1 0.283201 0.467892 0.30962
354 1 0.82134 0.581809 0.112701
355 2 0.340008 0.125028 0.598646
356 2 0.495738 0.583342 0.426849
357 2 0.452974 0.131118 0.572512
358 2 0.0972638 0.00589768 0.875325
359 2 0.584368 0.2632 0.911663
360 2 0.824371 0.181066 0.794192
361 1 0.293332 0.562161 0.466797
362 2 0.572353 0.161036 0.688977
363 1 0.242795 0.646046 0.603483
364 2 0.926402 0.192075 0.995178
365 2 0.246682 0.0255731 0.0963123
366 2 0.146975 0.145935 0.943245
367 1 0.681816 0.776808 0.670645
368 1 0.565253 0.030174 0.0190913
369 2 0.407225 0.333434 0.948564
370 2 0.329717 0.816312 0.593778
371 2 0.175827 0.585226 0.0265502
372 1 0.249822 0.922088 0.33659
373 2 0.30998 0.857288 0.54966
374 2 0.455124 0.357839 0.579314
375 2 0.141487 0.464247 0.766502
376 2 0.454618 0.809929 0.552571
377 2 0.806896 0.358575 0.628758
378 2 0.518736 0.500076 0.0278167
379 2 0.746635 0.0619127 0.841849
380 2 0.184401 0.169068 0.0853617
381 2 0.462661 0.637896 0.403183
382 2 0.908594 0.632939 0.885785
383 2 0.412702 0.874833 0.990398
384 1 0.530922 0.196063 0.45036
385 2 0.597379 0.28438 0.734224
386 2 0.43595 0.898863 0.812076
387 1 0.584378 0.831786 0.839596
388 2 0.0160006 0.279328 0.110976
389 2 0.69082 0.0984159 0.829172
390 2 0.699671 0.389022 0.453603
391 2 0.172273 0.925126 0.729221
392 1 0.388367 0.466156 0.422395
393 2 0.481478 0.541999 0.72619
394 2 0.711742 0.0831389 0.787804
395 2 0.55999 0.543968 0.553755
396 2 0.625189 0.43153 0.0600707
397 2 0.202995 0.937796 0.566427
398 1 0.644101 0.91839 0.110487
399 1 0.536173 0.428744 0.415835
400 1 0.840379 0.542213 0.932863
401 2 0.296123 0.534487 0.297122
402 2 0.858074 0.0710142 0.355586
403 2 0.759098 0.969223 0.833894
404 2 0.0552127 0.751802 0.153152
405 2 0.952061 0.605658 0.836452
406 2 0.204603 0.903744 0.3692
407 2 0.200532 0.999565 0.857209
408 2 0.441775 0.665181 0.697834
409 2 0.838259 0.606696 0.438129
410 2 0.71054 0.327753 0.294994
411 2 0.703026 0.946304 0.794111
412 2 0.176497 0.434692 0.499909
413 2 0.852301 0.444642 0.337538
414 2 0.737229 0.295611 0.859487
415 2 0.297684 0.564816 0.590112
416 1 0.0950111 0.693929 0.476737
417 2 0.412183 0.33406 0.543024
418 2 0.79056 0.0992723 0.822573
419 2 0.199106 0.769906 0.362876
420 2 0.243486 0.984175 0.0236047
421 1 0.692942 0.582793 0.379934
422 1 0.289938 0.0989912 0.429871
423 2 0.975939 0.550493 0.728591
424 2 0.0240447 0.444363 0.717288
425 1 0.211044 0.847739 0.652253
426 2 0.906033 0.692182 0.811575
427 2 0.0928738 0.285434 0.216573
428 2 0.47152 0.124596 0.302359
429 2 0.159677 0.461433 0.193108
430 2 0.667313 0.690554 0.694158
431 2 0.845133 0.783157 0.150218
432 1 0.348591 0.563206 0.336055
433 2 0.374515 0.475392 0.335433
434 1 0.47491 0.334582 0.32071
435 2 0.133648 0.468673 0.187659
436 2 0.36393 0.332566 0.92155
437 2 0.60616 0.0381139 0.230886
438 2 0.0859702 0.432969 0.814708
439 1 0.505972 0.579514 0.606572
440 2 0.0769597 0.475511 0.602489
441 1 0.758155 0.42422 0.54751
442 1 0.273077 0.516148 0.200063
443 1 0.371417 0.401243 0.566127
444 2 0.560558 0.789269 0.500198
445 2 0.985361 0.179756 0.911081
446 2 0.489952 0.413309 0.0998616
447 2 0.763066 0.38522 0.989609
448 2 0.412147 0.950688 0.0766639
449 1 0.495483 0.125229 0.648449
450 2 0.254575 0.571115 0.192801
451 2 0.486603 0.937389 0.566575
452 2 0.262569 0.997651 0.446126
453 1 0.429062 0.11319 0.449548
454 2 0.533775 0.105487 0.558882
455 2 0.653599 0.586723 0.0761721
456 2 0.810046 0.659687 0.998924
457 2 0.53363 0.311535 0.0411454
458 2 0.151555 0.78853 0.304911
459 2 0.863457 0.340107 0.409408
460 2 0.0652613 0.724187 0.107162
461 2 0.244767 0.546864 0.60793
462 2 0.816303 0.912468 0.462889
463 1 0.00468186 0.408167 0.696315
464 2 0.402753 0.449672 0.523459
465 2 0.844493 0.378635 0.7014
466 2 0.648201 0.631849 0.575497
467 1 0.495416 0.926973 0.780361
468 2 0.209577 0.581448 0.197615
469 2 0.245386 0.698262 0.472021
470 2 0.594353 0.649522 0.495533
471 2 0.987308 0.540711 0.267758
472 2 0.235194 0.016264 0.629802
473 1 0.047138 0.646339 0.795626
474 1 0.10177 0.906418 0.8446
475 1 0.881121 0.881293 0.022735
476 2 0.202736 0.774298 0.724895
477 2 0.713945 0.125888 0.800204
478 2 0.0567839 0.00353342 0.0944237
479 2 0.550438 0.135626 0.259467
480 2 0.302142 0.626696 0.35845
481 2 0.371113 0.146016 0.813632
482 2 0.313344 0.519004 0.596944
483 2 0.940366 0.996707 0.257847
484 1 0.471146 0.436533 0.705727
485 1 0.943408 0.687092 0.0390049
486 2 0.17453 0.635544 0.854696
487 2 0.810986 0.432145 0.481991
488 2 0.720423 0.814476 0.96792
489 2 0.352892 0.798696 0.795418
490 2 0.330108 0.716023 0.654618
491 2 0.614636 0.862539 0.657543
492 2 0.270078 0.918532 0.561721
493 2 0.271694 0.84613 0.217277
494 2 0.647373 0.674537 0.805384
495 2 0.389633 0.669174 0.0336492
496 2 0.027077 0.851209 0.07848
497 2 0.172205 0.873424 0.032779
498 1 0.8994 0.730699 0.101448
499 2 0.7766 0.554753 0.919593
500 2 0.856338 0.781037 0.451419
501 1 0.662671 0.840047 0.390683
502 2 0.756336 0.128793 0.892243
503 2 0.392677 0.0773451 0.858281
504 1 0.505718 0.0376997 0.815217
505 2 0.651766 0.55317 0.198451
506 2 0.858575 0.345344 0.605091
507 2 0.792572 0.988126 0.267273
508 2 0.831541 0.189977 0.374738
509 1 0.162187 0.845092 0.724146
510 2 0.586339 0.0998459 0.25738
511 2 0.185386 0.690153 0.830682
512 2 0.853018 0.906434 0.0228755
513 1 0.0520453 0.194422 0.964082
514 2 0.14327 0.1764 0.142169
515 1 0.482725 0.595541 0.774284
516 2 0.269075 0.690812 0.694431
517 1 0.50503 0.995858 0.892304
518 2 0.420648 0.0112606 0.970594
519 2 0.0865923 0.637403 0.923618
520 2 0.821899 0.0420384 0.680716
521 2 0.198507 0.991456 0.370417
522 2 0.561562 0.471551 0.431602
523 2 0.732644 0.704919 0.695219
524 2 0.570527 0.123776 0.970603
525 2 0.549169 0.906511 0.657122
526 2 0.95521 0.879432 0.187303
527 2 0.948487 0.571071 0.0640609
528 1 0.567701 0.592704 0.934658
529 2 0.516176 0.111606 0.273506
530 2 0.871968 0.73149 0.265359
531 2 0.574098 0.984877 0.882301
532 2 0.408634 0.359692 0.585512
533 2 0.526371 0.676397 0.615449
534 1 0.353317 0.523739 0.773032
535 2 0.979763 0.682246 0.779515
536 1 0.794054 0.626325 0.80237
537 1 0.501594 0.632549 0.357332
538 2 0.922434 0.03213 0.903397
539 2 0.688785 0.789815 0.827343
540 2 0.371573 0.829847 0.150154
541 1 0.525855 0.563472 0.74957
542 2 0.0075466 0.553165 0.245728
543 1 0.253175 0.887727 0.0503476
544 1 0.796809 0.730683 0.781232
545 2 0.718336 0.601099 0.799544
546 2 0.854437 0.118927 0.383172
547 2 0.712542 0.0881094 0.863113
548 2 0.655594 0.742862 0.960148
549 2 0.270706 0.718516 0.282762
550 2 0.55452 0.407692 0.614544
551 1 0.594766 0.443983 0.301687
552 2 0.746314 0.252126 0.0677464
553 2 0.507435 0.0261937 0.749113
554 2 0.386312 0.111656 0.778202
555 1 0.411773 0.012578 0.602886
556 2 0.176707 0.198741 0.405806
557 2 0.846101 0.86664 0.0578059
558 1 0.348707 0.440308 0.672679
559 2 0.645436 0.630143 0.00579728
560 2 0.96883 0.959923 0.124142
561 2 0.634899 0.901121 0.82566
562 1 0.476656 0.372521 0.711723
563 2 0.313446 0.778606 0.235228
564 2 0.805374 0.130232 0.871766
565 2 0.264549 0.298594 0.825334
566 2 0.692252 0.346436 0.892149
567 2 0.835627 0.414582 0.983752
568 2 0.456608 0.603849 0.213426
569 1 0.97137 0.867582 0.114979
570 2 0.109995 0.766393 0.55554
571 2 0.687329 0.369818 0.304853
572 2 0.90984 0.455292 0.0113094
573 2 0.656161 0.321715 0.936474
574 2 0.820557 0.917984 0.476408
575 1 0.842416 0.751348 0.987702
576 2 0.47249 0.146318 0.591544
577 2 0.860892 0.288389 0.371185
578 1 0.395508 0.551417 0.413924
579 2 0.400301 0.40917 0.226342
580 1 0.191157 0.94206 0.868998
581 2 0.451211 0.379056 0.674487
582 2 0.394314 0.240683 0.161732
583 1 0.730447 0.569489 0.617673
584 2 0.491778 0.783535 0.537361
585 1 0.830375 0.321331 0.946991
586 2 0.542942 0.0869981 0.0249844
587 2 0.263308 0.589613 0.372383
588 2 0.31155 0.431256 0.176854
589 1 0.223639 0.67378 0.76637
590 1 0.811068 0.697487 0.888348
591 1 0.72885 0.489942 0.590755
592 2 0.320624 0.228107 0.731068
593 2 0.469279 0.662434 0.161861
594 1 0.186804 0.20979 0.775399
595 1 0.422925 0.120293 0.653825
596 2 0.705987 0.995884 0.651575
597 1 0.764959 0.0595647 0.712457
598 2 0.459775 0.377817 0.768593
599 2 0.310885 0.722857 0.56907
600 2 0.0833075 0.579242 0.000584946
601 2 0.408167 0.898908 0.452482
602 1 0.738141 0.161186 0.373672
603 2 0.855771 0.0554489 0.561435
604 1 0.449125 0.0117941 0.0880241
605 2 0.513904 0.794871 0.610892
606 2 0.84963 0.540213 0.435982
607 1 0.289904 0.179952 0.0715188
608 2 0.965485 0.79597 0.555028
609 2 0.243066 0.985417 0.334895
610 2 0.756499 0.479802 0.243652
611 2 0.163241 0.238562 0.00539099
612 1 0.644296 0.236437 0.395819
613 2 0.97592 0.855128 0.907334
614 1 0.501312 0.36926 0.620221
615 2 0.299595 0.145587 0.449738
616 1 0.168107 0.846002 0.358947
617 2 0.349769 0.585631 0.79438
618 2 0.494269 0.689766 0.123597
619 2 0.302387 0.238903 0.200153
620 2 0.694613 0.260535 0.00196939
621 2 0.555956 0.715047 0.590343
622 2 0.00557051 0.992256 0.414052
623 1 0.142313 0.0213767 0.864323
624 2 0.176842 0.529026 0.378381
625 2 0.139787 0.892031 0.853036
626 2 0.261028 0.15171 0.33267
627 2 0.354391 0.817955 0.525347
628 2 0.799175 0.652839 0.658488
629 2 0.921355 0.10951 0.24522
630 1 0.359633 0.318097 0.73829
631 2 0.723058 0.653901 0.168703
632 2 0.136887 0.31897 0.371387
633 2 0.676871 0.524439 0.58958
634 2 0.854637 0.076892 0.426657
635 2 0.394093 0.998677 0.924334
636 2 0.20262 0.121834 0.554603
637 2 0.431035 0.558883 0.300377
638 1 0.130552 0.958373 0.922367
639 2 0.574121 0.04648 0.285808
640 2 0.453837 0.948875 0.574586
641 2 0.836848 0.363788 0.652278
642 2 0.528541 0.198987 0.87132
643 2 0.259137 0.085247 0.675864
644 2 0.419139 0.285912 0.812411
645 1 0.621842 0.408422 0.686598
646 2 0.980565 0.857978 0.17472
647 1 0.717521 0.490867 0.54077
648 2 0.963028 0.112912 0.475566
649 2 0.131528 0.32728 0.48869
650 2 0.96604 0.32027 0.468606
651 2 0.278029 0.376535 0.016266
652 2 0.465742 0.346405 0.476769
653 2 0.944806 0.673813 0.0953883
654 1 0.407832 0.684913 0.796684
655 2 0.559358 0.00608135 0.762863
656 2 0.236505 0.817517 0.504254
657 2 0.979778 0.180197 0.946016
658 2 0.28587 0.406931 0.125916
659 2 0.26162 0.445587 0.368232
660 2 0.652062 0.111943 0.39627
661 1 0.34843 0.0159226 0.0948404
662 2 0.110481 0.997122 0.927314
663 2 0.996533 0.986523 0.234354
664 1 0.907141 0.815891 0.751457
665 2 0.904247 0.580784 0.258004
666 2 0.19126 0.730763 0.667865
667 2 0.495144 0.622327 0.491679
668 2 0.584522 0.921554 0.803007
669 2 0.442268 0.968212 0.697881
670 1 0.375481 0.380048 0.675048
671 2 0.858518 0.039083 0.725006
672 1 0.769208 0.644951 0.417463
673 2 0.251798 0.412317 0.720332
674 2 0.626841 0.560566 0.928951
675 2 0.723873 0.537858 0.584578
676 1 0.191437 0.979871 0.65981
677 2 0.817721 0.631971 0.936107
678 2 0.14617 0.925599 0.952666
679 1 0.687334 0.434546 0.0816777
680 2 0.599265 0.629607 0.472597
681 1 0.943833 0.354236 0.136034
682 1 0.404401 0.0138886 0.522588
683 2 0.930051 0.220893 0.936943
684 2 0.311274 0.668779 0.574873
685 2 0.142012 0.569889 0.944988
686 2 0.211143 0.284125 0.409817
687 1 0.583207 0.226087 0.761133
688 2 0.767648 0.60127 0.491692
689 2 0.188392 0.349007 0.342746
690 2 0.554762 0.225425 0.199364
691 2 0.507794 0.0512412 0.86374
692 1 0.252758 0.791146 0.651142
693 2 0.696948 0.053502 0.0314045
694 2 0.98813 0.0374443 0.359141
695 1 0.722169 0.99555 0.771136
696 2 0.586801 0.600517 0.448836
697 2 0.662437 0.526585 0.558435
698 2 0.22377 0.651285 0.0439166
699 2 0.690246 0.598361 0.149478
700 1 0.498833 0.756463 0.767843
701 2 0.171601 0.873323 0.842264
702 2 0.542855 0.830371 0.210676
703 2 0.0953344 0.887608 0.643522
704 2 0.0726966 0.606774 0.672059
705 2 0.747423 0.953843 0.156545
706 2 0.903702 0.930455 0.00479526
707 2 0.552779 0.536259 0.851525
708 1 0.304077 0.687938 0.475106
709 2 0.0162034 0.969539 0.663994
710 2 0.38096 0.00844921 0.260942
711 2 0.75268 0.29037 0.624068
712 1 0.819816 0.502505 0.820447
713 2 0.687929 0.526091 0.950203
714 1 0.614417 0.857739 0.519426
715 2 0.772609 0.8518 0.659469
716 1 0.746368 0.145875 0.536939
717 2 0.131366 0.890387 0.688359
718 2 0.648342 0.694425 0.855177
719 2 0.116888 0.736352 0.500919
720 2 0.483595 0.403646 0.451322
721 2 0.683492 0.776619 0.476211
722 1 0.377949 0.547385 0.570419
723 2 0.167704 0.174815 0.382627
724 2 0.191364 0.69707 0.917713
725 2 0.118417 0.254 0.14244
726 2 0.763013 0.836799 0.0280143
727 1 0.699727 0.982938 0.72299
728 1 0.691783 0.721229 0.484492
729 1 0.731631 0.551626 0.686646
730 1 0.8737 0.703533 0.514199
731 2 0.533252 0.405901 0.712217
732 1 0.3235 0.742143 0.604765
733 2 0.70717 0.917111 0.745695
734 2 0.231244 0.0268157 0.623168
735 2 0.379925 0.571743 0.46935
736 1 0.206007 0.711406 0.619621
737 2 0.731128 0.249154 0.648805
738 2 0.268403 0.0732772 0.28912
739 2 0.579146 0.883095 0.0154438
740 2 0.174159 0.355501 0.840478
741 2 0.138491 0.309101 0.311648
742 1 0.326085 0.650055 0.444501
743 2 0.742636 0.59212 0.565861
744 2 0.589106 0.850404 0.689871
745 2 0.744772 0.820889 0.988136
746 1 0.284862 0.286399 0.327867
747 2 0.0604238 0.531768 0.662252
748 2 0.524531 0.155149 0.572906
749 2 0.421923 0.31801 0.356113
750 2 0.833806 0.500409 0.629578
751 2 0.474526 0.0391896 0.809294
752 2 0.809307 0.497662 0.114607
753 2 0.69819 0.498095 0.704727
754 2 0.704195 0.258174 0.599567
755 2 0.320431 0.990638 0.678068
756 2 0.948844 0.718288 0.895577
757 2 0.961231 0.267333 0.850955
758 2 0.113314 0.394994 0.0497656
759 2 0.153467 0.90088 0.889558
760 1 0.437359 0.0522727 0.886896
761 2 0.00263991 0.0190186 0.661543
762 2 0.213999 0.933061 0.718927
763 1 0.637544 0.333931 0.876951
764 2 0.489671 0.990795 0.635702
765 2 0.452853 0.556795 0.903137
766 2 0.778941 0.956945 0.495461
767 2 0.519752 0.872557 0.673591
768 2 0.621508 0.292183 0.984648
769 2 0.209913 0.162715 0.0179872
770 2 0.0674361 0.410466 0.501678
771 2 0.291371 0.341286 0.22781
772 2 0.88925 0.25617 0.64506
773 1 0.536957 0.272802 0.232839
774 2 0.615571 0.228442 0.0328565
775 2 0.236563 0.57883 0.496353
776 2 0.477825 0.079299 0.843423
777 1 0.529584 0.0783743 0.92505
778 2 0.748107 0.544183 0.521532
779 2 0.396614 0.507338 0.209103
780 1 0.949582 0.386602 0.820723
781 2 0.723342 0.452768 0.61823
782 2 0.78871 0.184142 0.372417
783 1 0.661992 0.786548 0.541382
784 2 0.771327 0.135128 0.689162
785 2 0.0180089 0.488168 0.737546
786 1 0.820118 0.779657 0.599864
787 2 0.664629 0.29646 0.592744
788 2 0.10668 0.4154 0.51267
789 2 0.426664 0.226221 0.0105554
790 2 0.128876 0.679679 0.639062
791 1 0.045048 0.381555 0.211047
792 2 0.816292 0.662409 0.940045
793 2 0.479449 0.049282 0.851787
794 2 0.485606 0.333731 0.569779
795 2 0.793508 0.904897 0.0436232
796 2 0.240495 0.780727 0.621863
797 2 0.722605 0.653482 0.916831
798 2 0.668975 0.00912179 0.789006
799 2 0.780449 0.954556 0.391384
800 2 0.645827 0.552277 0.533735
801 2 0.401503 0.613766 0.0805518
802 2 0.170911 0.239975 0.34588
803 2 0.2114 0.0518737 0.663585
804 2 0.76627 0.960246 0.753336
805 2 0.579675 0.527448 0.0123429
806 1 0.644433 0.722781 0.248423
807 2 0.321956 0.70274 0.131274
808 2 0.746789 0.526662 0.914761
809 1 0.546701 0.943927 0.863248
810 2 0.507578 0.126671 0.675206
811 2 0.736376 0.0118424 0.0516006
812 2 0.224362 0.754591 0.183367
813 1 0.774427 0.618964 0.648007
814 2 0.26668 0.953735 0.476931
815 2 0.899109 0.548983 0.0718492
816 1 0.817262 0.893754 0.0124355
817 1 0.142572 0.527546 0.416875
818 2 0.965049 0.02014 0.26471
819 1 0.114409 0.650108 0.965228
820 1 0.601498 0.0584469 0.504526
821 2 0.968342 0.695174 0.250128
822 2 0.760727 0.0835946 0.982108
823 1 0.480825 0.409509 0.16114
824 2 0.089027 0.078205 0.593004
825 2 0.704777 0.934009 0.393671
826 2 0.250678 0.475154 0.16442
827 1 0.199332 0.12828 0.337328
828 2 0.557503 0.043483 0.780959
829 2 0.343881 0.841087 0.284073
830 2 0.556918 0.308936 0.023609
831 1 0.683572 0.78954 0.0164837
832 2 0.104578 0.895277 0.416184
833 1 0.589206 0.372475 0.596437
834 2 0.0932036 0.939967 0.902304
835 2 0.123514 0.0198759 0.657158
836 2 0.250508 0.970694 0.885413
837 2 0.415279 0.882989 0.289406
838 2 0.0552494 0.549738 0.892882
839 2 0.229023 0.631221 0.203718
840 2 0.919558 0.82269 0.51207
841 2 0.716217 0.548078 0.654293
842 2 0.735373 0.194521 0.397047
843 2 0.560746 0.104965 0.543225
844 2 0.817342 0.657371 0.212137
845 2 0.012629 0.568029 0.565061
846 2 0.8424 0.686268 0.0774256
847 2 0.386198 0.092203 0.393915
848 2 0.159023 0.34953 0.358741
849 1 0.648147 0.930034 0.795621
850 2 0.53527 0.173848 0.261665
851 2 0.810131 0.937335 0.703311
852 2 0.0648407 0.121753 0.291329
853 1 0.183273 0.536246 0.746272
854 2 0.309645 0.0172736 0.380248
855 2 0.181844 0.260543 0.875541
856 2 0.777613 0.205115 0.377049
857 2 0.326674 0.838837 0.197227
858 2 0.488347 0.0718083 0.175741
859 2 0.978151 0.859953 0.0375327
860 2 0.659705 0.298777 0.804241
861 2 0.0284605 0.973947 0.495844
862 2 0.00916241 0.595276 0.593035
863 2 0.441593 0.677279 0.599105
864 2 0.289621 0.350129 0.870313
865 2 0.981096 0.824487 0.275838
866 2 0.927414 0.698649 0.558892
867 2 0.712917 0.439783 0.202563
868 2 0.0769131 0.974374 0.483564
869 2 0.747571 0.835474 0.687139
870 2 0.433078 0.490662 0.235586
871 2 0.991197 0.629918 0.42677
872 2 0.0493654 0.782523 0.529635
873 2 0.199726 0.485869 0.736565
874 2 0.350154 0.747702 0.688396
875 2 0.457216 0.864721 0.164067
876 2 0.684462 0.686425 0.900263
877 2 0.324267 0.173048 0.535648
878 2 0.548485 0.648529 0.630801
879 2 0.581653 0.0189604 0.910082
880 2 0.412463 0.491514 0.170972
881 2 0.96985 0.652728 0.905568
882 1 0.696815 0.586755 0.565
883 1 0.217603 0.14434 0.220898
884 2 0.062552 0.73061 0.55583
885 2 0.317967 0.738878 0.538805
886 2 0.721489 0.718069 0.823289
887 1 0.037746 0.27606 0.831493
888 2 0.638621 0.547957 0.581845
889 2 0.00457621 0.928192 0.518176
890 1 0.283733 0.382145 0.657902
891 2 0.976116 0.44301 0.0801131
892 2 0.597861 0.564218 0.966398
893 2 0.972317 0.626054 0.72027
894 2 0.490795 0.671076 0.5032
895 1 0.707741 0.558674 0.118084
896 2 0.393167 0.722973 0.775451
897 2 0.328092 0.0675646 0.479136
898 2 0.955826 0.636707 0.96906
899 2 0.17037 0.941577 0.510714
900 2 0.360955 0.990422 0.240305
901 2 0.306194 0.748516 0.521022
902 2 0.805035 0.58817 0.333637
903 2 0.095261 0.602926 0.920196
904 2 0.180453 0.375875 0.0738404