ITEM: TIMESTEP
7700
ITEM: NUMBER OF ATOMS
1000
ITEM: BOX BOUNDS xy xz yz pp pp pp
0.0000000000000000e+00 1.3572088000000001e+01 0.0000000000000000e+00
0.0000000000000000e+00 1.3572088000000001e+01 0.0000000000000000e+00
0.0000000000000000e+00 1.3572088000000001e+01 0.0000000000000000e+00
ITEM: ATOMS id type xs ys zs
1 2 0.68699 0.712767 0.340211
2 2 0.476609 0.955716 0.903427
3 1 0.236289 0.92907 0.411765
4 2 0.679954 0.031649 0.202688
5 2 0.978287 0.477011 0.260945
6 1 0.456278 0.0990436 0.285715
7 2 0.307482 0.0792563 0.559861
8 2 0.645792 0.827661 0.314057
9 2 0.570988 0.297861 0.100595
10 2 0.842128 0.174345 0.946939
11 2 0.356875 0.825432 0.0245694
12 2 0.540856 0.797108 0.460557
13 2 0.209455 0.329889 0.723626
14 1 0.262451 0.854796 0.899421
15 2 0.691657 0.511181 0.60641
16 2 0.810594 0.151736 0.191541
17 1 0.747031 0.403309 0.185221
18 2 0.941287 0.404196 0.0687102
19 2 0.874853 0.309644 0.882727
20 2 0.188755 0.343313 0.878666
21 2 0.856249 0.619032 0.745486
22 2 0.31612 0.846427 0.246819
23 2 0.219212 0.516499 0.900932
24 2 0.760742 0.861848 0.201733
25 1 0.984673 0.0317683 0.538802
26 2 0.599023 0.335836 0.667716
27 2 0.552482 0.962573 0.975592
28 2 0.369027 0.249248 0.510143
29 2 0.436879 0.391613 0.258553
30 2 0.84799 0.181947 0.573436
31 1 0.746974 0.698496 0.71213
32 1 0.928974 0.479696 0.171102
33 1 0.163298 0.19746 0.225622
34 2 0.321384 0.188739 0.787498
35 2 0.98152 0.528391 0.17914
36 1 0.875082 0.889532 0.040809
37 2 0.275376 0.822809 0.791232
38 2 0.889511 0.261837 0.708361
39 2 0.487521 0.686533 0.549198
40 2 0.750962 0.717874 0.76476
41 2 0.0163761 0.544333 0.715506
42 2 0.402337 0.260176 0.60924
43 2 0.153074 0.698587 0.0687977
44 2 0.394572 0.0612805 0.777597
45 2 0.285719 0.00124427 0.254818
46 1 0.61868 0.313038 0.863928
47 2 0.809469 0.618026 0.959813
48 2 0.123607 0.393489 0.907986
49 2 0.916343 0.459111 0.115651
50 2 0.768756 0.294817 0.841171
51 2 0.527949 0.268541 0.139377
52 2 0.907654 0.742892 0.308666
53 2 0.878949 0.89842 0.833278
54 2 0.231606 0.361229 0.41081
55 1 0.41856 0.327733 0.669774
56 1 0.805905 0.178473 0.502969
57 2 0.461992 0.13443 0.114852
58 2 0.193164 0.309247 0.47367
59 2 0.700631 0.0718834 0.398795
60 2 0.586416 0.180444 0.397229
61 2 0.850748 0.554595 0.621701
62 2 0.526821 0.982656 0.360396
63 2 0.658061 0.40134 0.0522948
64 2 0.664175 0.930321 0.108508
65 2 0.307131 0.1414 0.538865
66 1 0.641531 0.486537 0.199463
67 2 0.724001 0.944111 0.609939
68 2 0.542811 0.822534 0.396716
69 1 0.174022 0.215361 0.274705
70 2 0.0906756 0.962216 0.335737
71 1 0.943743 0.803353 0.530396
72 2 0.40502 0.506138 0.449976
73 2 0.806059 0.874195 0.548434
74 2 0.67374 0.0979089 0.629604
75 2 0.635796 0.47102 0.602255
76 2 0.767157 0.34106 0.992845
77 1 0.955543 0.938291 0.992005
78 2 0.605193 0.195988 0.439265
79 2 0.958292 0.24132 0.958429
80 2 0.690208 0.368974 0.43308
81 2 0.982535 0.717916 0.120086
82 2 0.918012 0.444704 0.388685
83 2 0.256501 0.876199 0.446144
84 2 0.477062 0.743752 0.567807
85 1 0.273364 0.520599 0.738709
86 2 0.722062 0.994558 0.0844591
87 2 0.192736 0.414285 0.243959
88 2 0.795607 0.238323 0.862398
89 2 0.0573248 0.348129 0.422531
90 2 0.965042 0.596567 0.658093
91 2 0.00222758 0.70513 0.609583
92 2 0.0258299 0.988845 0.0442719
93 2 0.484411 0.603197 0.233766
94 1 0.36881 0.0293227 0.0859558
95 2 0.695703 0.563786 0.898073
96 2 0.085481 0.867226 0.0362277
97 2 0.747176 0.90184 0.0434788
98 2 0.693969 0.118241 0.849339
99 2 0.845717 0.211631 0.414087
100 2 0.410765 0.948249 0.107057
101 1 0.928426 0.71229 0.218764
102 2 0.0650496 0.435014 0.958982
103 2 0.0922268 0.774232 0.552915
104 2 0.314796 0.101948 0.205495
105 2 0.0097179 0.504867 0.759625
106 2 0.369438 0.852827 0.317777
107 2 0.751106 0.263303 0.936165
108 2 0.407349 0.618604 0.643142
109 2 0.0673187 0.654208 0.530438
110 2 0.802993 0.0463987 0.197468
111 2 0.114259 0.309644 0.882206
112 1 0.394041 0.241398 0.0552746
113 1 0.336318 0.361565 0.981272
114 2 0.26581 0.410217 0.943031
115 2 0.737562 0.89375 0.408515
116 2 0.0676852 0.648838 0.575863
117 2 0.321273 0.474696 0.293035
118 2 0.303954 0.958875 0.649714
119 2 0.50913 0.941604 0.120368
120 2 0.922498 0.762643 0.585379
121 2 0.504153 0.941768 0.987392
122 2 0.727675 0.369003 0.500143
123 2 0.694173 0.680032 0.0288729
124 2 0.739744 0.874231 0.656796
125 1 0.12806 0.447634 0.55601
126 2 0.444393 0.830794 0.255779
127 2 0.580802 0.93643 0.979969
128 2 0.431034 0.404453 0.900404
129 1 0.814728 0.144631 0.114435
130 2 0.566471 0.816901 0.0763374
131 2 0.677546 0.947215 0.649186
132 2 0.899215 0.210434 0.280093
133 2 0.658138 0.893228 0.830776
134 2 0.450264 0.651276 0.846069
135 2 0.059516 0.834118 0.260741
136 2 0.786953 0.989123 0.736303
137 1 0.935814 0.561346 0.469405
138 2 0.276745 0.147904 0.958851
139 2 0.0449363 0.069426 0.343596
140 1 0.977741 0.975988 0.567615
141 2 0.906298 0.639394 0.101369
142 2 0.43274 0.164107 0.0653279
143 2 0.291442 0.521633 0.775176
144 2 0.104542 0.475386 0.944026
145 2 0.071573 0.920848 0.297942
146 2 0.383506 0.821638 0.427567
147 1 0.381204 0.0422862 0.533669
148 1 0.830081 0.014752 0.874787
149 2 0.498101 0.941008 0.88987
150 1 0.130448 0.55747 0.904075
151 2 0.604656 0.221236 0.2727
152 2 0.698624 0.88761 0.618149
153 1 0.263539 0.606761 0.859346
154 1 0.266969 0.886414 0.177203
155 2 0.82601 0.152936 0.550228
156 2 0.819838 0.139239 0.570521
157 2 0.842976 0.713371 0.252969
158 2 0.731942 0.861204 0.138678
159 2 0.794517 0.873297 0.0732488
160 2 0.268239 0.544631 0.975247
161 2 0.279993 0.0287187 0.669052
162 2 0.400401 0.732216 0.193842
163 2 0.538762 0.707106 0.737423
164 2 0.455789 0.333719 0.531826
165 2 0.0399879 0.745412 0.25665
166 2 0.663736 0.609635 0.582348
167 2 0.95277 0.858858 0.400873
168 2 0.444853 0.247328 0.606811
169 2 0.22807 0.803343 0.63873
170 2 0.5874 0.0368363 0.334255
171 2 0.99506 0.979225 0.843529
172 2 0.644872 0.1466 0.218142
173 1 0.75714 0.528089 0.581293
174 2 0.396069 0.78477 0.897243
175 2 0.292858 0.933309 0.958738
176 2 0.537208 0.932866 0.990101
177 1 0.183567 0.876229 0.00189649
178 2 0.442475 0.631592 0.206302
179 2 0.629377 0.414012 0.762581
180 2 0.698336 0.124489 0.905298
181 2 0.711049 0.617141 0.0780839
182 2 0.627195 0.567953 0.600638
183 2 0.959131 0.379052 0.215628
184 2 0.568702 0.109296 0.0427884
185 2 0.425742 0.735688 0.961878
186 2 0.223334 0.441361 0.767885
187 2 0.915833 0.940033 0.0280085
188 1 0.831618 0.7804 0.466474
189 2 0.343734 0.222627 0.205083
190 2 0.0747372 0.214079 0.242243
191 2 0.208518 0.878465 0.936014
192 2 0.4647 0.366437 0.108828
193 2 0.228025 0.117731 0.860845
194 2 0.257946 0.0828869 0.31958
195 2 0.441427 0.0396538 0.0590302
196 2 0.536605 0.62353 0.375432
197 2 0.311703 0.547262 0.233224
198 2 0.0518674 0.853794 0.214898
199 2 0.921738 0.0829995 0.997933
200 1 0.373106 0.139022 0.0657037
201 2 0.395431 0.0911588 0.626558
202 2 0.88842 0.60211 0.641289
203 2 0.716513 0.0189231 0.492179
204 2 0.0828967 0.935612 0.629411
205 2 0.200534 0.929161 0.91657
206 2 0.409484 0.830423 0.849247
207 2 0.252996 0.108325 0.537529
208 2 0.856862 0.0460828 0.727095
209 2 0.838797 0.764144 0.919733
210 2 0.555461 0.834551 0.16238
211 2 0.702487 0.861707 0.389817
212 1 0.76235 0.108744 0.811217
213 2 0.0715548 0.43219 0.534632
214 2 0.679435 0.610346 0.894534
215 2 0.401423 0.891996 0.179285
216 2 0.118361 0.367639 0.251771
217 2 0.572186 0.710985 0.295055
218 2 0.459567 0.0512151 0.090963
219 2 0.966203 0.866191 0.522396
220 2 0.955322 0.676349 0.789472
221 2 0.411936 0.740233 0.118029
222 2 0.927714 0.537024 0.210579
223 2 0.44646 0.0691629 0.0184827
224 2 0.227207 0.310626 0.75946
225 1 0.674557 0.169726 0.90597
226 2 0.0557418 0.320563 0.466169
227 2 0.461352 0.233228 0.0639609
228 2 0.781924 0.450278 0.169456
229 2 0.578237 0.245758 0.472942
230 1 0.161582 0.755766 0.742051
231 2 0.322241 0.596481 0.0259438
232 2 0.713689 0.400087 0.010344
233 1 0.219219 0.689102 0.313516
234 2 0.314074 0.214686 0.85209
235 2 0.756362 0.739076 0.861791
236 2 0.854929 0.698491 0.9669
237 2 0.364893 0.624053 0.390612
238 1 0.793394 0.531658 0.419788
239 1 0.754962 0.537267 0.193597
240 2 0.568604 0.328352 0.114037
241 2 0.19696 0.085557 0.372949
242 1 0.218805 0.984852 0.882165
243 1 0.646909 0.268855 0.897353
244 2 0.624305 0.763737 0.814205
245 2 0.248332 0.699163 0.211468
246 1 0.20931 0.0720727 0.145463
247 2 0.169447 0.10955 0.751441
248 2 0.59004 0.676309 0.596927
249 2 0.834005 0.0497388 0.847283
250 2 0.728139 0.661794 0.577599
251 2 0.412152 0.581267 0.354901
252 2 0.9759 0.75622 0.767897
253 2 0.978278 0.107322 0.13331
254 2 0.405577 0.972462 0.442397
255 2 0.113704 0.305829 0.393584
256 2 0.946631 0.273007 0.682052
257 2 0.13604 0.175648 0.498582
258 2 0.230899 0.358907 0.925678
259 1 0.118558 0.488973 0.89194
260 2 0.4624 0.890906 0.781076
261 1 0.810207 0.706507 0.905949
262 2 0.902916 0.688336 0.856256
263 2 0.637786 0.19298 0.0322309
264 2 0.935434 0.501268 0.222572
265 1 0.193244 0.458419 0.912722
266 2 0.98129 0.660833 0.497915
267 2 0.557517 0.830464 0.966459
268 1 0.64382 0.878289 0.556341
269 1 0.0797653 0.795629 0.921865
270 2 0.575598 0.0630737 0.59315
271 2 0.260829 0.163989 0.127765
272 2 0.588941 0.675035 0.241514
273 1 0.607584 0.630313 0.190237
274 2 0.21359 0.0683391 0.353025
275 2 0.698648 0.672412 0.656722
276 2 0.821084 0.388988 0.2802
277 2 0.594819 0.0672138 0.204533
278 2 0.86545 0.152881 0.17859
279 2 0.860655 0.920956 0.799286
280 1 0.79198 0.563113 0.615163
281 2 0.173795 0.518557 0.824025
282 2 0.0589391 0.224108 0.499675
283 2 0.109999 0.451019 0.465924
284 1 0.906917 0.719848 0.605693
285 2 0.0502994 0.938141 0.381528
286 2 0.266791 0.595784 0.658708
287 1 0.731392 0.674549 0.924936
288 2 0.375144 0.122246 0.618836
289 2 0.437879 0.654546 0.339459
290 2 0.399084 0.818317 0.335155
291 2 0.777221 0.529314 0.6575
292 2 0.0734251 0.713746 0.825794
293 2 0.948462 0.617195 0.236359
294 2 0.959518 0.984166 0.963042
295 2 0.400087 0.582779 0.237728
296 2 0.675599 0.0517406 0.0261899
297 2 0.829806 0.519529 0.957767
298 2 0.295721 0.933478 0.392743
299 1 0.149358 0.365068 0.418124
300 2 0.285301 0.228792 0.187282
301 2 0.795679 0.322883 0.746453
302 2 0.92978 0.787347 0.739021
303 2 0.0916247 0.300195 0.485437
304 1 0.276202 0.946992 0.185301
305 2 0.109419 0.331241 0.186672
306 2 0.00313299 0.340693 0.624534
307 2 0.96997 0.533546 0.758332
308 2 0.741966 0.783501 0.521697
309 2 0.116232 0.136999 0.710263
310 2 0.372677 0.737575 0.717744
311 2 0.0171313 0.782693 0.26298
312 2 0.213924 0.558519 0.904306
313 2 0.995679 0.143076 0.835896
314 2 0.732001 0.935421 0.551042
315 2 0.795062 0.732293 0.523148
316 2 0.264219 0.648333 0.955091
317 2 0.93995 0.249883 0.308687
318 2 0.293334 0.810458 0.67808
319 2 0.170024 0.159946 0.730697
320 2 0.536958 0.0118852 0.434246
321 2 0.540039 0.159577 0.0215019
322 2 0.432686 0.506327 0.957392
323 2 0.421474 0.148838 0.0894087
324 2 0.021105 0.60124 0.604521
325 2 0.00648613 0.286218 0.637608
326 2 0.963882 0.3322 0.142419
327 2 0.652799 0.802063 0.273302
328 2 0.76722 0.10612 0.504896
329 1 0.981082 0.649558 0.113696
330 2 0.57475 0.0665679 0.373932
331 2 0.641902 0.0307917 0.887903
332 2 0.745808 0.687086 0.317873
333 2 0.0179238 0.414956 0.735489
334 2 0.120024 0.634836 0.317379
335 1 0.378264 0.558619 0.373082
336 2 0.0612191 0.369147 0.815586
337 2 0.957046 0.002279 0.746304
338 1 0.116526 0.286663 0.995998
339 2 0.76391 0.459193 0.182952
340 2 0.744212 0.373217 0.0143296
341 2 0.581391 0.213213 0.151016
342 2 0.303473 0.0975295 0.271377
343 2 0.0352622 0.363518 0.185593
344 1 0.507108 0.0319462 0.686643
345 1 0.52556 0.971536 0.122159
346 1 0.735939 0.593895 0.859119
347 1 0.125587 0.985295 0.427166
348 2 0.298973 0.991417 0.689772
349 2 0.464235 0.257608 0.633066
350 2 0.264342 0.67518 0.257806
351 2 0.156676 0.0934506 0.372961
352 2 0.791275 0.697867 0.354279
353 1 0.0468502 0.52568 0.0374736
354 1 0.417316 0.273623 0.52724
355 2 0.873616 0.847839 0.00649638
356 2 0.548972 0.321084 0.767243
357 2 0.196302 0.0181124 0.591289
358 2 0.812987 0.165724 0.573591
359 2 0.373037 0.713295 0.0115024
360 2 0.1891 0.50957 0.113694
361 1 0.0635405 0.987373 0.995627
362 2 0.801507 0.5737 0.12064
363 1 0.964301 0.111502 0.796612
364 2 0.0615818 0.818923 0.959988
365 2 0.979073 0.210183 0.283759
366 2 0.184363 0.942505 0.067651
367 1 0.596356 0.859167 0.069514
368 1 0.0130706 0.207564 0.562213
369 2 0.0090088 0.638211 0.190133
370 2 0.91122 0.844576 0.409685
371 2 0.455983 0.720178 0.0286527
372 1 0.725951 0.460801 0.598638
373 2 0.900011 0.252705 0.95517
374 2 0.0703844 0.903246 0.940858
375 2 0.237526 0.266625 0.949804
376 2 0.982178 0.441735 0.29044
377 2 0.496047 0.339614 0.57746
378 2 0.111074 0.428541 0.866453
379 2 0.791362 0.246785 0.903111
380 2 0.138075 0.0500643 0.595267
381 2 0.989659 0.979592 0.301136
382 2 0.160171 0.547739 0.884291
383 2 0.604668 0.27892 0.477901
384 1 0.302864 0.616235 0.589425
385 2 0.44763 0.945091 0.163342
386 2 0.973416 0.17522 0.624003
387 1 0.737951 0.39367 0.32569
388 2 0.901936 0.296296 0.189089
389 2 0.48292 0.384273 0.613881
390 2 0.0932216 0.181376 0.541177
391 2 0.682914 0.390189 0.47196
392 1 0.252486 0.43008 0.358917
393 2 0.859387 0.131352 0.424027
394 2 0.097112 0.414471 0.999152
395 2 0.968023 0.694843 0.142826
396 2 0.593617 0.333982 0.506874
397 2 0.873846 0.488717 0.21643
398 1 0.40533 0.29304 0.991947
399 1 0.555118 0.5493 0.592279
400 1 0.345286 0.363829 0.288513
401 2 0.594361 0.302094 0.231406
402 2 0.987292 0.779119 0.171529
403 2 0.387652 0.478054 0.365932
404 2 0.856295 0.0516197 0.87281
405 2 0.508892 0.502207 0.303894
406 2 0.440521 0.143606 0.0688706
407 2 0.734447 0.475884 0.283525
408 2 0.690663 0.966333 0.593362
409 2 0.888921 0.608911 0.21034
410 2 0.178475 0.925164 0.0125248
411 2 0.716959 0.730704 0.932336
412 2 0.849155 0.36111 0.461008
413 2 0.52243 0.403452 0.180065
414 2 0.503336 0.810922 0.257315
415 2 0.527819 0.227057 0.0380325
416 1 0.296745 0.252841 0.811647
417 2 0.663391 0.525865 0.643113
418 2 0.832811 0.461028 0.313901
419 2 0.454442 0.0529527 0.249443
420 2 0.285823 0.876547 0.571538
421 1 0.832432 0.082199 0.207392
422 1 0.914249 0.161382 0.802884
423 2 0.405589 0.0116371 0.1544
424 2 0.0850362 0.71115 0.167302
425 1 0.984345 0.0386423 0.914241
426 2 0.873029 0.812871 0.22082
427 2 0.975364 0.297474 0.150842
428 2 0.492097 0.761781 0.425445
429 2 0.297715 0.00681118 0.421322
430 2 0.531023 0.99494 0.55746
431 2 0.870088 0.352837 0.341615
432 1 0.444792 0.82162 0.694411
433 2 0.828481 0.151205 0.226298
434 1 0.206037 0.887829 0.59738
435 2 0.566869 0.228412 0.999805
436 2 0.662284 0.694817 0.869986
437 2 0.6076 0.999583 0.851559
438 2 0.976164 0.995762 0.371155
439 1 0.936999 0.186317 0.736897
440 2 0.521493 0.751682 0.266453
441 1 0.662636 0.583312 0.0259337
442 1 0.397476 0.2216 0.356379
443 1 0.324561 0.566196 0.984817
444 2 0.0390521 0.922035 0.986856
445 2 0.889216 0.370456 0.210178
446 2 0.456184 0.289066 0.400316
447 2 0.932044 0.480072 0.0137346
448 2 0.0291166 0.274086 0.401321
449 1 0.726948 0.937794 0.113019
450 2 0.447765 0.599474 0.233083
451 2 0.663016 0.457269 0.551575
452 2 0.501874 0.750682 0.813652
453 1 0.0179765 0.762033 0.133742
454 2 0.0301938 0.760783 0.0013408
455 2 0.738415 0.443291 0.104716
456 2 0.202774 0.720575 0.251751
457 2 0.0038057 0.683578 0.895532
458 2 0.116941 0.263717 0.423434
459 2 0.191137 0.483154 0.489815
460 2 0.545806 0.652326 0.113118
461 2 0.63806 0.907192 0.81586
462 2 0.764667 0.709359 0.445146
463 1 0.602921 0.516262 0.498944
464 2 0.251953 0.835174 0.182977
465 2 0.183545 0.984941 0.0417761
466 2 0.845594 0.539346 0.500668
467 1 0.483873 0.470861 0.289967
468 2 0.8248 0.866951 0.830184
469 2 0.971439 0.630966 0.169206
470 2 0.136697 0.938776 0.18735
471 2 0.0402041 0.286921 0.166723
472 2 0.912978 0.148979 0.0829156
473 1 0.075752 0.393127 0.607392
474 1 0.928151 0.757347 0.96987
475 1 0.896521 0.978539 0.0416489
476 2 0.114317 0.136343 0.823704
477 2 0.0532395 0.0333895 0.542697
478 2 0.0178491 0.331576 0.658555
479 2 0.498488 0.706649 0.852229
480 2 0.296895 0.146533 0.800181
481 2 0.248387 0.49238 0.823111
482 2 0.773825 0.596234 0.789959
483 2 0.0932592 0.334564 0.962252
484 1 0.868856 0.553182 0.251972
485 1 0.441795 0.959387 0.740128
486 2 0.628289 0.880079 0.808658
487 2 0.218501 0.996612 0.620154
488 2 0.150458 0.305368 0.743669
489 2 0.136283 0.743456 0.574766
490 2 0.513952 0.254034 0.243183
491 2 0.169209 0.161603 0.982709
492 2 0.974219 0.928701 0.438661
493 2 0.722733 0.664068 0.868342
494 2 0.821717 0.137156 0.588961
495 2 0.298725 0.431822 0.796224
496 2 0.487462 0.322345 0.138378
497 2 0.628676 0.820049 0.298033
498 1 0.645076 0.659632 0.919191
499 2 0.258903 0.107552 0.793302
500 2 0.967795 0.275688 0.534875
501 1 0.0717031 0.64441 0.173896
502 2 0.414486 0.877381 0.299776
503 2 0.810886 0.999836 0.708275
504 1 0.503854 0.859309 0.199193
505 2 0.49667 0.539797 0.307702
506 2 0.359098 0.162515 0.522995
507 2 0.0688788 0.505529 0.262838
508 2 0.244983 0.957243 0.979516
509 1 0.758885 0.549934 0.0763084
510 2 0.0763831 0.248577 0.201145
511 2 0.371976 0.478618 0.330338
512 2 0.14756 0.739688 0.261497
513 1 0.0782877 0.240149 0.334473
514 2 0.399573 0.083132 0.0297664
515 1 0.564226 0.866963 0.698213
516 2 0.720113 0.37884 0.138625
517 1 0.343548 0.755905 0.443697
518 2 0.747772 0.635981 0.845582
519 2 0.472573 0.662198 0.654912
520 2 0.0810493 0.791003 0.595192
521 2 0.90767 0.794621 0.211706
522 2 0.522005 0.631022 0.997007
523 2 0.653901 0.0840865 0.265189
524 2 0.647807 0.703227 0.294731
525 2 0.420113 0.582415 0.27784
526 2 0.15934 0.158818 0.387733
527 2 0.349229 0.0011481 0.792156
528 1 0.282959 0.237603 0.714723
529 2 0.23305 0.544871 0.944093
530 2 0.510905 0.34912 0.0581906
531 2 0.818818 0.0524135 0.698325
532 2 0.0918589 0.440544 0.497767
533 2 0.72669 0.667779 0.453062
534 1 0.661944 0.436929 0.25263
535 2 0.566534 0.62866 0.740054
536 1 0.188357 0.251037 0.01697
537 1 0.92372 0.761114 0.129034
538 2 0.0501259 0.711572 0.219073
539 2 0.114152 0.0435139 0.798394
540 2 0.95163 0.185488 0.684894
541 1 0.623792 0.632029 0.628655
542 2 0.911516 0.42944 0.26505
543 1 0.00282171 0.981038 0.756619
544 1 0.882479 0.373272 0.0547171
545 2 0.257154 0.918288 0.904366
546 2 0.762113 0.405349 0.070639
547 2 0.889547 0.778399 0.20812
548 2 0.798916 0.15601 0.172217
549 2 0.272782 0.406419 0.0544898
550 2 0.0470405 0.501441 0.787746
551 1 0.248989 0.281604 0.856104
552 2 0.971432 0.88901 0.11978
553 2 0.550766 0.196206 0.879192
554 2 0.450316 0.692206 0.0885257
555 1 0.412705 0.847771 0.521931
556 2 0.548108 0.821726 0.212553
557 2 0.923098 0.270874 0.0332162
558 1 0.644942 0.305442 0.465185
559 2 0.188025 0.255991 0.726964
560 2 0.269823 0.446759 0.100978
561 2 0.314992 0.133212 0.577396
562 1 0.909683 0.86168 0.596766
563 2 0.102225 0.0575072 0.57132
564 2 0.920389 0.846185 0.249495
565 2 0.439615 0.490041 0.901457
566 2 0.822837 0.126752 0.0676226
567 2 0.505088 0.017991 0.429121
568 2 0.964365 0.0515 0.0887589
569 1 0.940368 0.885317 0.551366
570 2 0.727648 0.427983 0.549623
571 2 0.00902155 0.84972 0.182896
572 2 0.0897964 0.22023 0.893592
573 2 0.677317 0.667706 0.503641
574 2 0.8789 0.604177 0.885541
575 1 0.000553638 0.818687 0.239867
576 2 0.614919 0.679408 0.250999
577 2 0.431283 0.406866 0.43735
578 1 0.0294422 0.142197 0.766942
579 2 0.56757 0.625838 0.53822
580 1 0.963171 0.592529 0.287408
581 2 0.841191 0.549886 0.668904
582 2 0.994743 0.536284 0.139669
583 1 0.0674693 0.220178 0.0766334
584 2 0.881745 0.770929 0.348406
585 1 0.737738 0.00870556 0.866322
586 2 0.828365 0.83229 0.0558397
587 2 0.552368 0.665538 0.872759
588 2 0.0119791 0.22003 0.772422
589 1 0.648474 0.477611 0.744493
590 1 0.509665 0.786534 0.0972372
591 1 0.940815 0.892017 0.477036
592 2 0.541986 0.183729 0.0366038
593 2 0.483545 0.825152 0.291493
594 1 0.725928 0.141539 0.481592
595 1 0.204943 0.470375 0.997772
596 2 0.58263 0.467717 0.733768
597 1 0.917055 0.666414 0.178498
598 2 0.59064 0.664926 0.737311
599 2 0.417442 0.0251368 0.898117
600 2 0.397627 0.978051 0.172863
601 2 0.767228 0.81715 0.443776
602 1 0.662046 0.322854 0.349869
603 2 0.477519 0.899386 0.320252
604 1 0.347485 0.909281 0.284677
605 2 0.208107 0.744222 0.585828
606 2 0.852508 0.485372 0.233187
607 1 0.702078 0.832567 0.422887
608 2 0.230868 0.496489 0.635352
609 2 0.567763 0.565413 0.0274301
610 2 0.044824 0.942786 0.685696
611 2 0.99754 0.840325 0.489407
612 1 0.476697 0.294101 0.856021
613 2 0.146143 0.261326 0.700109
614 1 0.546692 0.28256 0.356436
615 2 0.948035 0.82928 0.240708
616 1 0.810637 0.186151 0.595662
617 2 0.00455324 0.146179 0.0292882
618 2 0.0897598 0.164014 0.786526
619 2 0.713301 0.743627 0.327239
620 2 0.0632633 0.54507 0.968493
621 2 0.37629 0.159229 0.757886
622 2 0.0545589 0.39825 0.788854
623 1 0.198656 0.817551 0.938685
624 2 0.985378 0.111332 0.382566
625 2 0.900329 0.84415 0.967702
626 2 0.889231 0.342321 0.261533
627 2 0.0333482 0.54461 0.156932
628 2 0.780297 0.436868 0.0959106
629 2 0.990005 0.239213 0.144143
630 1 0.0602978 0.36863 0.561782
631 2 0.599257 0.30968 0.526254
632 2 0.547605 0.422067 0.138476
633 2 0.828383 0.643187 0.9203
634 2 0.261547 0.158545 0.0853768
635 2 0.658294 0.254497 0.547656
636 2 0.62981 0.734908 0.334941
637 2 0.331484 0.91083 0.167534
638 1 0.0609785 0.363192 0.872139
639 2 0.243583 0.362617 0.0447648
640 2 0.10509 0.354835 0.844181
641 2 0.696897 0.569141 0.565529
642 2 0.649576 0.694945 0.711399
643 2 0.755065 0.939279 0.444949
644 2 0.299038 0.33342 0.843505
645 1 0.460475 0.885955 0.266444
646 2 0.247635 0.74988 0.857916
647 1 0.277628 0.441572 0.980832
648 2 0.836954 0.32377 0.0698631
649 2 0.813504 0.444245 0.148998
650 2 0.048987 0.264882 0.652534
651 2 0.931394 0.196487 0.614769
652 2 0.446805 0.969452 0.281045
653 2 0.558301 0.545595 0.800981
654 1 0.0143483 0.979051 0.925424
655 2 0.192282 0.978524 0.552638
656 2 0.769398 0.388628 0.844774
657 2 0.674251 0.534646 0.217616
658 2 0.499744 0.225939 0.61472
659 2 0.584104 0.985243 0.183562
660 2 0.527101 0.00548597 0.346826
661 1 0.918711 0.748455 0.259485
662 2 0.670347 0.723358 0.1392
663 2 0.573342 0.678076 0.746251
664 1 0.937213 0.0178527 0.179532
665 2 0.300847 0.360567 0.0398363
666 2 0.722531 0.851635 0.74632
667 2 0.807909 0.67467 0.325549
668 2 0.967032 0.814426 0.830691
669 2 0.688224 0.123752 0.447322
670 1 0.990041 0.877854 0.0543096
671 2 0.14685 0.446055 0.454061
672 1 0.266867 0.878387 0.959802
673 2 0.350225 0.132582 0.578762
674 2 0.608935 0.689915 0.225871
675 2 0.877722 0.273197 0.0648976
676 1 0.731901 0.63812 0.502799
677 2 0.47508 0.887931 0.202724
678 2 0.728007 0.843128 0.442011
679 1 0.314878 0.954125 0.43239
680 2 0.190002 0.187015 0.890291
681 1 0.297024 0.399087 0.508509
682 1 0.103388 0.729044 0.996607
683 2 0.758711 0.496953 0.30326
684 2 0.677014 0.461845 0.794974
685 2 0.300022 0.487564 0.73783
686 2 0.0246241 0.467033 0.213804
687 1 0.062591 0.169966 0.826423
688 2 0.670293 0.419358 0.571804
689 2 0.0631752 0.0987155 0.944142
690 2 0.408878 0.272034 0.416397
691 2 0.240356 0.664494 0.901611
692 1 0.729769 0.468368 0.503759
693 2 0.116403 0.352278 0.520918
694 2 0.596377 0.433064 0.828656
695 1 0.990416 0.353992 0.0686678
696 2 0.744653 0.4609 0.42058
697 2 0.399244 0.59903 0.617468
698 2 0.706322 0.836692 0.034395
699 2 0.109928 0.608078 0.0555374
700 1 0.00139664 0.228676 0.616948
701 2 0.221729 0.971792 0.478007
702 2 0.27807 0.497146 0.354666
703 2 0.970594 0.850905 0.477858
704 2 0.635581 0.640554 0.443752
705 2 0.242828 0.496841 0.992883
706 2 0.425671 0.166241 0.291879
707 2 0.770988 0.673152 0.889014
708 1 0.741046 0.284396 0.350399
709 2 0.360123 0.883029 0.821878
710 2 0.0868935 0.232104 0.251489
711 2 0.930105 0.706186 0.176307
712 1 0.45634 0.212892 0.135552
713 2 0.989927 0.967792 0.869585
714 1 0.735284 0.235101 0.881722
715 2 0.627658 0.486966 0.572757
716 1 0.718976 0.329021 0.465439
717 2 0.767323 0.189366 0.742276
718 2 0.599953 0.509395 0.217198
719 2 0.535056 0.072277 0.266119
720 2 0.954605 0.176387 0.800823
721 2 0.384107 0.416568 0.0496754
722 1 0.905799 0.0339873 0.0530236
723 2 0.701489 0.365829 0.277255
724 2 0.291662 0.0242928 0.347271
725 2 0.0460134 0.304633 0.880663
726 2 0.793929 0.526225 0.16836
727 1 0.460812 0.224001 0.418446
728 1 0.681614 0.630407 0.96799
729 1 0.904393 0.644004 0.599333
730 1 0.0836107 0.854413 0.401491
731 2 0.218453 0.0937297 0.661149
732 1 0.925642 0.697348 0.338862
733 2 0.285194 0.277525 0.719558
734 2 0.859289 0.112238 0.109413
735 2 0.71384 0.55705 0.338621
736 1 0.300739 0.0317956 0.733276
737 2 0.784814 0.256054 0.316822
738 2 0.942151 0.835001 0.209766
739 2 0.736679 0.276563 0.4887
740 2 0.628078 0.748164 0.934986
741 2 0.729578 0.191165 0.550145
742 1 0.48625 0.180302 0.0534252
743 2 0.984528 0.341122 0.423791
744 2 0.453866 0.704214 0.0580357
745 2 0.911055 0.328492 0.172049
746 1 0.600828 0.807612 0.87798
747 2 0.0730558 0.770906 0.125366
748 2 0.154919 0.982925 0.854268
749 2 0.937276 0.618324 0.760856
750 2 0.305017 0.0388899 0.567432
751 2 0.708451 0.943018 0.425635
752 2 0.867163 0.795489 0.51551
753 2 0.0535654 0.599281 0.150094
754 2 0.401494 0.527668 0.332973
755 2 0.338196 0.0615338 0.258918
756 2 0.424697 0.185227 0.503401
757 2 0.929208 0.212934 0.124198
758 2 0.211362 0.816613 0.845352
759 2 0.467592 0.208281 -0.000539034
760 1 0.0864117 0.832588 0.110957
761 2 0.653176 0.359357 0.424656
762 2 0.0164242 0.297732 0.513048
763 1 0.154158 0.895758 0.905495
764 2 0.0794864 0.446858 0.48207
765 2 0.469833 0.684772 0.842791
766 2 0.67008 0.836664 0.0919728
767 2 0.871391 0.489751 0.257789
768 2 0.0537586 0.575015 0.181408
769 2 0.760042 0.0909756 0.192188
770 2 0.727355 0.45158 0.262964
771 2 0.466819 0.762051 0.32489
772 2 0.382924 0.39483 0.686216
773 1 0.865282 0.5108 0.327118
774 2 0.1621 0.366726 0.278752
775 2 0.862477 0.583553 0.494769
776 2 0.261291 0.101286 0.395211
777 1 0.92209 0.95964 0.0755941
778 2 0.323677 0.29386 0.518317
779 2 0.0147773 0.407877 0.426478
780 1 0.182314 0.380339 0.944716
781 2 0.560905 0.190926 0.667661
782 2 0.800015 0.875123 0.585411
783 1 0.0530092 0.733121 0.663572
784 2 0.563906 0.12481 0.0760874
785 2 0.572357 0.0863187 0.0898498
786 1 0.735684 0.468898 0.227525
787 2 0.392281 0.188522 0.596823
788 2 0.515104 0.882251 0.307255
789 2 0.283297 0.565771 0.458969
790 2 0.511743 0.551239 0.433033
791 1 0.0192655 0.70556 0.145104
792 2 0.926797 0.440919 0.171699
793 2 0.488666 0.619927 0.818285
794 2 0.248238 0.652046 0.0584638
795 2 0.415964 0.0614719 0.9597
796 2 0.0590929 0.718349 0.871831
797 2 0.184748 0.187644 0.545145
798 2 0.794882 0.292484 0.206503
799 2 0.983675 0.74328 0.0924129
800 2 0.660546 0.919122 0.84641
801 2 0.985423 0.308285 0.439823
802 2 0.227082 0.932122 0.518805
803 2 0.995875 0.450902 0.991677
804 2 0.0444299 0.401421 0.944223
805 2 0.0268729 0.735956 0.183238
806 1 0.0709844 0.262014 0.150091
807 2 0.00198449 0.294318 0.91421
808 2 0.267752 0.275788 0.57508
809 1 0.395318 0.290459 0.157462
810 2 0.402191 0.186264 0.105552
811 2 0.881239 0.484941 0.306992
812 2 0.597468 0.85723 0.873868
813 1 0.362681 0.451926 0.813871
814 2 0.764264 0.354132 0.801982
815 2 0.432222 0.681845 0.563565
816 1 0.334761 0.0569277 0.682094
817 1 0.159513 0.347644 0.896992
818 2 0.271588 0.743357 0.636414
819 1 0.229772 0.614392 0.979371
820 1 0.412116 0.851048 0.207074
821 2 0.912688 0.56118 0.260281
822 2 0.640456 0.160611 0.471763
823 1 0.680441 0.682679 0.8367
824 2 0.331243 0.148436 0.622794
825 2 0.612099 0.243324 0.374353
826 2 0.986664 0.49963 0.981663
827 1 0.844482 0.523159 0.756575
828 2 0.509547 0.881793 0.162777
829 2 0.122242 0.44368 0.193378
830 2 0.350231 0.0159232 0.472971
831 1 0.998169 0.0626676 0.0675414
832 2 0.827559 0.813458 0.654324
833 1 0.71866 0.608812 0.927578
834 2 0.74024 0.733432 0.653422
835 2 0.0325385 0.597846 0.794615
836 2 0.442146 0.997404 0.0475531
837 2 0.119319 0.42641 0.153889
838 2 0.837364 0.578382 0.474285
839 2 0.447331 0.309754 0.164597
840 2 0.828912 0.0782989 0.332504
841 2 0.152277 0.907908 0.393081
842 2 0.192766 0.968107 0.601451
843 2 0.886763 0.888385 0.410473
844 2 0.807334 0.864572 0.790837
845 2 0.534064 0.260685 0.0848567
846 2 0.397663 0.619703 0.399833
847 2 0.436992 0.923864 0.246337
848 2 0.058369 0.026834 0.914759
849 1 0.687849 0.256142 0.675204
850 2 0.409902 0.000602483 0.236278
851 2 0.769346 0.231072 0.114196
852 2 0.607058 0.266406 0.510615
853 1 0.840179 0.786953 0.173938
854 2 0.499434 0.390633 0.357507
855 2 0.386705 0.377736 0.364956
856 2 0.0551997 0.118816 0.884833
857 2 0.286205 0.601664 0.985651
858 2 0.349578 0.664705 0.763285
859 2 0.713225 0.571191 0.528662
860 2 0.702682 0.775552 0.831823
861 2 0.919752 0.258799 0.774975
862 2 0.662836 0.873066 0.447399
863 2 0.0551273 0.882763 0.555877
864 2 0.171444 0.318962 0.0783112
865 2 0.454229 0.93644 0.301115
866 2 0.289302 0.29059 0.300696
867 2 0.814304 0.465902 0.12881
868 2 0.312172 0.110458 0.654236
869 2 0.528736 0.0460161 0.407384
870 2 0.186214 0.278528 0.54827
871 2 0.571701 0.758416 0.208333
872 2 0.585024 0.0225317 0.981826
873 2 0.8083 0.625928 0.84681
874 2 0.984857 0.890239 0.432832
875 2 0.358375 0.670358 0.61306
876 2 0.747426 0.838174 0.401986
877 2 0.631581 0.544346 0.237657
878 2 0.342069 0.0738231 0.961284
879 2 0.524319 0.624611 0.484935
880 2 0.467781 0.384277 0.527613
881 2 0.132102 0.228439 0.443565
882 1 0.54206 0.607337 0.783229
883 1 0.0194052 0.40089 0.679187
884 2 0.797923 0.4655 0.485495
885 2 0.547885 0.681039 0.581005
886 2 0.505744 0.399595 0.325534
887 1 0.483355 0.87449 0.640519
888 2 0.634968 0.249892 0.490754
889 2 0.857816 0.18464 0.679203
890 1 0.774944 0.578462 0.379766
891 2 0.0974761 0.807457 0.851229
892 2 0.223673 0.234786 0.585034
893 2 0.951911 0.019125 0.936099
894 2 0.254974 0.589683 0.595048
895 1 0.668125 0.895469 0.402808
896 2 0.943555 0.982646 0.981016
897 2 0.669306 0.791825 0.492606
898 2 0.153365 0.395788 0.744235
899 2 0.920728 0.198203 0.323861
900 2 0.554269 0.9211 0.946004
901 2 0.254803 0.212799 0.796583
902 2 0.701153 0.679417 0.41767
903 2 0.969555 0.196855 0.584869