ITEM: TIMESTEP
13300
ITEM: NUMBER OF ATOMS
1000
ITEM: BOX BOUNDS xy xz yz pp pp pp
0.0000000000000000e+00 1.3572088000000001e+01 0.0000000000000000e+00
0.0000000000000000e+00 1.3572088000000001e+01 0.0000000000000000e+00
0.0000000000000000e+00 1.3572088000000001e+01 0.0000000000000000e+00
ITEM: ATOMS id type xs ys zs
1 2 0.957495 0.844233 0.357927
2 2 0.00676565 0.0279918 0.0893155
3 1 0.511074 0.0528797 0.644003
4 2 0.352495 0.435888 0.0558604
5 2 0.497669 0.376415 0.120827
6 1 0.617279 0.948101 0.130222
7 2 0.0191929 0.240716 0.240738
8 2 0.770156 0.876552 0.987576
9 2 0.589636 0.927966 0.466582
10 2 0.432354 0.878239 0.14458
11 2 0.19855 0.735555 0.238363
12 2 0.740147 0.991191 0.990424
13 2 0.284923 0.939965 0.912557
14 1 0.805637 0.904518 0.106248
15 2 0.876969 0.532264 0.641712
16 2 0.0644649 0.537175 0.669423
17 1 0.334802 0.571622 0.0793529
18 2 0.861313 0.036594 0.00472544
19 2 0.825471 0.143518 0.641539
20 2 0.145169 0.244598 0.297365
21 2 0.516513 0.123396 0.231452
22 2 0.546525 0.414923 0.51577
23 2 0.14216 0.495125 0.789893
24 2 0.779022 0.369464 0.359265
25 1 0.132314 0.655891 0.550636
26 2 0.990076 0.565152 0.840908
27 2 0.708337 0.626054 0.286333
28 2 0.107123 0.219974 0.856252
29 2 0.85825 0.508635 0.246443
30 2 0.141062 0.469528 0.288946
31 1 0.739569 0.250458 0.870035
32 1 0.127119 0.682186 0.214745
33 1 0.112456 0.0267374 0.938282
34 2 0.24616 0.373159 0.612538
35 2 0.282512 0.461257 0.762025
36 1 0.864999 0.924385 0.977947
37 2 0.65383 0.811036 0.380278
38 2 0.097947 0.505144 0.92493
39 2 0.159167 0.424707 0.00808414
40 2 0.849388 0.11782 0.423054
41 2 0.433783 0.357022 0.0482598
42 2 0.504028 0.191101 0.399453
43 2 0.507921 0.34354 0.138025
44 2 0.116566 0.664605 0.27594
45 2 0.47281 0.439897 0.185287
46 1 0.842172 0.456723 0.721357
47 2 0.973585 0.72316 0.405433
48 2 0.228023 0.578873 0.85459
49 2 0.875817 0.757383 0.298537
50 2 0.0216993 0.503801 0.148464
51 2 0.0968582 0.439509 0.142345
52 2 0.15914 0.767227 0.196282
53 2 0.282414 0.785488 0.49902
54 2 0.00104059 0.586137 0.214539
55 1 0.554373 0.436795 0.835385
56 1 0.697906 0.647299 0.526254
57 2 0.325566 0.521454 0.352064
58 2 0.774537 0.162463 0.869244
59 2 0.876698 0.813555 0.262806
60 2 0.500133 0.180635 0.851709
61 2 0.861571 0.646949 0.179776
62 2 0.951222 0.0158733 0.852731
63 2 0.123215 0.748161 0.69799
64 2 0.255891 0.947778 0.968853
65 2 0.325809 0.923519 0.49173
66 1 0.779512 0.872401 0.231806
67 2 0.134678 0.329616 0.139211
68 2 0.98623 0.547898 0.410044
69 1 0.027292 0.306953 0.548267
70 2 0.183152 0.327181 0.0399651
71 1 0.965243 0.0611734 0.553452
72 2 0.535854 0.938537 0.405476
73 2 0.692638 0.654792 0.696871
74 2 0.835856 0.588899 0.580658
75 2 0.313597 0.63343 0.766326
76 2 0.972259 0.139557 0.205542
77 1 0.675425 0.784981 0.175214
78 2 0.989974 0.442032 0.202153
79 2 0.791951 0.573683 0.0197499
80 2 0.986214 0.0198059 0.256468
81 2 0.207563 0.221086 0.0528662
82 2 0.154526 0.680597 0.451401
83 2 0.992905 0.608344 0.317905
84 2 0.208352 0.0407574 0.990308
85 1 0.295801 0.655513 0.871644
86 2 0.898186 0.0793581 0.947188
87 2 0.588722 0.500606 0.790833
88 2 0.86881 0.641378 0.138616
89 2 0.172349 0.705479 0.503916
90 2 0.665128 0.610573 0.902086
91 2 0.245902 0.0912288 0.570549
92 2 0.714107 0.399396 0.102302
93 2 0.593394 0.909557 0.156091
94 1 0.206906 0.959986 0.840463
95 2 0.818213 0.103721 0.911249
96 2 0.00541512 0.224643 0.99889
97 2 0.608546 0.783516 0.857904
98 2 0.411801 0.29559 0.884353
99 2 0.234556 0.836505 0.822276
100 2 0.409536 0.25888 0.212001
101 1 0.961911 0.392079 0.29394
102 2 0.543515 0.0345366 0.595449
103 2 0.48118 0.85273 0.256673
104 2 0.190404 0.411498 0.660137
105 2 0.607144 0.396528 0.885267
106 2 0.968879 0.604569 0.361109
107 2 0.549518 0.812721 0.564339
108 2 0.149502 0.839299 0.850282
109 2 0.353163 0.0413514 0.523443
110 2 0.632715 0.892294 0.151793
111 2 0.194695 0.596445 0.450203
112 1 0.261202 0.133816 0.227674
113 1 0.960876 0.717502 0.577008
114 2 0.347317 0.546453 0.741194
115 2 0.534711 0.429644 0.709914
116 2 0.212599 0.531711 0.571633
117 2 0.72892 0.445123 0.320342
118 2 0.0296205 0.442471 0.869727
119 2 0.0146387 0.0753945 0.877603
120 2 0.338394 0.0875506 0.163577
121 2 0.361028 0.625384 0.854205
122 2 0.710168 0.83096 0.243188
123 2 0.956048 0.279283 0.278501
124 2 0.799901 0.216992 0.944887
125 1 0.0296715 0.173651 0.261354
126 2 0.457146 0.712966 0.483262
127 2 0.883515 0.51035 0.625736
128 2 0.0654764 0.346028 0.828432
129 1 0.896327 0.45258 0.0867814
130 2 0.124015 0.562594 0.0218178
131 2 0.475438 0.174585 0.64083
132 2 0.914303 0.307685 0.280785
133 2 0.397027 0.108361 0.862436
134 2 0.172449 0.133381 0.837329
135 2 0.655783 0.829809 0.197224
136 2 0.297398 0.479847 0.565269
137 1 0.770201 0.696213 0.596662
138 2 0.688044 0.775814 0.267072
139 2 0.465793 0.770269 0.752388
140 1 0.32304 0.79503 0.445452
141 2 0.617037 0.745621 0.324799
142 2 0.666528 0.658826 0.963702
143 2 0.833769 0.969785 0.540246
144 2 0.113359 0.484882 0.75804
145 2 0.744023 0.148184 0.79735
146 2 0.548186 0.758936 0.0251705
147 1 0.152504 0.446288 0.563113
148 1 0.279872 0.547475 0.978204
149 2 0.877263 0.589844 0.631428
150 1 0.504355 0.43548 0.859124
151 2 0.480778 0.379515 0.44341
152 2 0.360064 0.486385 0.861874
153 1 0.473667 0.260156 0.625042
154 1 0.108421 0.737472 0.185312
155 2 0.906999 0.756424 0.442857
156 2 0.911142 0.469947 0.299472
157 2 0.37875 0.682062 0.828385
158 2 0.441333 0.834671 0.735679
159 2 0.719837 0.252487 0.506829
160 2 0.269024 0.250297 0.924885
161 2 0.800003 0.639767 0.268536
162 2 0.0130783 0.980833 0.0427932
163 2 0.240083 0.419002 0.956527
164 2 0.65549 0.977732 0.298653
165 2 0.33498 0.920333 0.19729
166 2 0.483611 0.518361 0.123249
167 2 0.262759 0.598364 0.349529
168 2 0.513727 0.998653 0.745493
169 2 0.643396 0.298908 0.838275
170 2 0.534313 0.292354 0.615536
171 2 0.166395 0.739465 0.941951
172 2 0.369919 0.952593 0.911545
173 1 0.11445 0.168288 0.632567
174 2 0.0883558 0.488088 0.282374
175 2 0.516148 0.833338 0.405466
176 2 0.815874 0.960689 0.83989
177 1 0.458568 0.780518 0.402161
178 2 0.345046 0.754101 0.793599
179 2 0.100149 0.658035 0.2371
180 2 0.565836 0.430107 0.883674
181 2 0.419673 0.588751 0.601494
182 2 0.105353 0.6955 0.612858
183 2 0.237232 0.648672 0.0741362
184 2 0.550739 0.037131 0.415217
185 2 0.0503552 0.54316 0.726792
186 2 0.0183484 0.74015 0.550894
187 2 0.387972 0.823613 0.908562
188 1 0.134953 0.0812411 0.768073
189 2 0.902496 0.34598 0.79094
190 2 0.0355576 0.287561 0.344725
191 2 0.732109 0.426387 0.119194
192 2 0.540182 0.728986 0.975329
193 2 0.699601 0.298761 0.780757
194 2 0.786307 0.426778 0.433187
195 2 0.351064 0.431977 0.626748
196 2 0.372228 0.713021 0.916173
197 2 0.76514 0.402514 0.83201
198 2 0.558392 0.525215 0.241974
199 2 0.914806 0.988725 0.526413
200 1 0.56944 0.0488039 0.736938
201 2 0.878715 0.494534 0.281334
202 2 0.789809 0.589304 0.66512
203 2 0.296184 0.81184 0.63556
204 2 0.890998 0.698368 0.123915
205 2 0.110671 0.737055 0.622315
206 2 0.621569 0.0630378 0.801556
207 2 0.548216 0.846259 0.928697
208 2 0.824642 0.229329 0.224916
209 2 0.818169 0.334766 0.663901
210 2 0.363351 0.979177 0.166142
211 2 0.102016 0.731481 0.66425
212 1 0.741469 0.392243 0.912503
213 2 0.566087 0.92277 0.572886
214 2 0.449599 0.00745867 0.672955
215 2 0.296782 0.600694 0.00518338
216 2 0.00523876 0.0963527 0.850924
217 2 0.98351 0.535803 0.379139
218 2 0.906551 0.450018 0.279535
219 2 0.119054 0.355125 0.559593
220 2 0.905077 0.866836 0.892632
221 2 0.19965 0.00099154 0.205565
222 2 0.0031071 0.625847 0.205647
223 2 0.761287 0.163489 0.695824
224 2 0.883385 0.504366 0.410328
225 1 0.959817 0.31087 0.780555
226 2 0.586373 0.734058 0.64986
227 2 0.247487 0.383082 0.447574
228 2 0.8679 0.559949 0.698229
229 2 0.184174 0.657301 0.201166
230 1 0.482982 0.399638 0.515329
231 2 0.633652 0.270758 0.133983
232 2 0.0536123 0.0482582 0.957234
233 1 0.369927 0.934368 0.148554
234 2 0.567185 0.0433756 0.495382
235 2 0.0151168 0.378916 0.208616
236 2 0.605647 0.719091 0.31391
237 2 0.445184 0.345585 0.791136
238 1 0.468504 0.0170513 0.201756
239 1 0.744614 0.511239 0.213299
240 2 0.834137 0.199094 0.187775
241 2 0.728651 0.737139 0.61062
242 1 0.535435 0.910377 0.723413
243 1 0.0929618 0.396769 0.786023
244 2 0.677458 0.67338 0.54303
245 2 0.795832 0.904437 0.00125751
246 1 0.33906 0.889873 0.620535
247 2 0.265598 0.0170462 0.71422
248 2 0.13759 0.431631 0.819697
249 2 0.0202124 0.191587 0.978476
250 2 0.321986 0.337567 0.479258
251 2 0.639026 0.44821 0.680265
252 2 0.138347 0.110371 0.880231
253 2 0.205656 0.113763 0.873458
254 2 0.309533 0.905259 0.710776
255 2 0.861784 0.717058 0.0222054
256 2 0.838831 0.927805 0.121649
257 2 0.587076 0.599056 0.577318
258 2 0.028098 0.505902 0.999555
259 1 0.133625 0.90864 0.926689
260 2 0.599468 0.814127 0.499961
261 1 0.557207 0.920174 0.896574
262 2 0.737856 0.313086 0.602145
263 2 0.889912 0.106552 0.873198
264 2 0.660326 0.289048 0.699378
265 1 0.563546 0.448243 0.0483695
266 2 0.291475 0.825707 0.362919
267 2 0.094853 0.367917 0.972371
268 1 0.897574 0.428112 0.778149
269 1 0.439941 0.523579 0.443157
270 2 0.130301 0.508496 0.536036
271 2 0.93302 0.307592 0.499428
272 2 0.0801801 0.322444 0.063744
273 1 0.378799 0.871729 0.200599
274 2 0.870425 0.634939 0.312173
275 2 0.847781 0.883127 0.209402
276 2 0.589279 0.418268 0.850345
277 2 0.792792 0.552151 0.542947
278 2 0.341614 0.554857 0.147937
279 2 0.13488 0.0360873 0.681318
280 1 0.770584 0.0811035 0.286408
281 2 0.670585 0.953026 0.658162
282 2 0.844637 0.1357 0.874549
283 2 0.722602 0.660365 0.378942
284 1 0.873329 0.179646 0.584753
285 2 0.618436 0.615038 0.422473
286 2 0.209858 0.943305 0.610504
287 1 0.77024 0.270746 0.990701
288 2 0.111823 0.887951 0.186345
289 2 0.109497 0.696759 0.759987
290 2 0.737599 0.598797 0.342372
291 2 0.465163 0.00706207 0.647163
292 2 0.310691 0.83195 0.375541
293 2 0.832036 0.0181353 0.908222
294 2 0.718364 0.263135 0.624992
295 2 0.0586321 0.0360873 0.995893
296 2 0.267738 0.97035 0.901797
297 2 0.450957 0.668982 0.393421
298 2 0.0598829 0.168834 0.227849
299 1 0.0996631 0.946678 0.540145
300 2 0.730901 0.931562 0.755482
301 2 0.235665 0.859711 0.454679
302 2 0.681924 0.361656 0.534385
303 2 0.857027 0.368268 0.603216
304 1 0.396064 0.0711074 0.104239
305 2 0.837856 0.829208 0.819835
306 2 0.268786 0.18682 0.668304
307 2 0.113784 0.396732 0.141386
308 2 0.576503 0.95119 0.874799
309 2 0.0618597 0.122823 0.0738974
310 2 0.435071 0.0277327 0.701597
311 2 0.339724 0.36767 0.960199
312 2 0.389405 0.890807 0.164969
313 2 0.673046 0.131763 0.710723
314 2 0.492018 0.201001 0.243134
315 2 0.410516 0.726037 0.239839
316 2 0.922422 0.886117 0.70194
317 2 0.879625 0.396848 0.331746
318 2 0.524875 0.671912 0.248273
319 2 0.818425 0.992796 0.461055
320 2 0.502703 0.447926 0.330645
321 2 0.601747 0.190199 0.761841
322 2 0.438849 0.571005 0.576471
323 2 0.246732 0.743882 0.388509
324 2 0.832736 0.0910939 0.379279
325 2 0.700089 0.393152 0.343176
326 2 0.987297 0.327166 0.785026
327 2 0.138184 0.201432 0.887911
328 2 0.429287 0.454114 0.984401
329 1 0.938177 0.467117 0.227315
330 2 0.124574 0.362554 0.764802
331 2 0.581612 0.250911 0.756526
332 2 0.665468 0.85633 0.715625
333 2 0.808761 0.6914 0.00860957
334 2 0.69266 0.197503 0.958213
335 1 0.468546 0.754027 0.190503
336 2 0.594241 0.0780096 0.358387
337 2 0.362934 0.758058 0.787455
338 1 0.860556 0.166609 0.904659
339 2 0.268762 0.849611 0.603308
340 2 0.134411 0.595647 0.430278
341 2 0.751689 0.942882 0.733333
342 2 0.793493 0.465729 0.650404
343 2 0.597643 0.79005 0.906753
344 1 0.968405 0.855491 0.611568
345 1 0.497657 0.539244 0.443377
346 1 0.501423 0.863819 0.679359
347 1 0.090465 0.618174 0.915312
348 2 0.978602 0.986146 0.546208
349 2 0.092855 0.888479 0.82913
350 2 0.895851 0.336484 0.489366
351 2 0.179638 0.313973 0.133834
352 2 0.923237 0.346707 0.635421
353 1 0.853633 0.690285 0.221092
354 1 0.941529 0.611408 0.558282
355 2 0.3292 0.85881 0.347534
356 2 0.433776 0.424219 0.0807485
357 2 0.354955 0.0576364 0.306588
358 2 0.797797 0.0587943 0.766079
359 2 0.853601 0.457387 0.678633
360 2 0.0571157 0.461407 0.78692
361 1 0.813487 0.86975 0.895929
362 2 0.762074 0.379358 0.126502
363 1 0.0286212 0.103116 0.909574
364 2 0.818914 0.227236 0.0164649
365 2 0.0858997 0.199719 0.28633
366 2 0.336104 0.841406 0.276115
367 1 0.658218 0.801082 0.817505
368 1 0.865221 0.0429997 0.852701
369 2 0.766104 0.0866384 0.654114
370 2 0.366206 0.790776 0.408294
371 2 0.815079 0.734578 0.0416109
372 1 0.528198 0.470846 0.282397
373 2 0.879846 0.0902259 0.846815
374 2 0.848687 0.689297 0.0203243
375 2 0.370553 0.170967 0.651984
376 2 0.83827 0.724882 0.504941
377 2 0.543436 0.689993 0.963455
378 2 0.912076 0.308783 0.817215
379 2 0.0671146 0.294607 0.745151
380 2 0.299702 0.694241 0.122457
381 2 0.254835 0.152609 0.335033
382 2 0.0168574 0.723943 0.286146
383 2 0.500693 0.889621 0.386039
384 1 0.936103 0.551568 0.676529
385 2 0.667744 0.699319 0.658929
386 2 0.114696 0.734468 0.444749
387 1 0.668863 0.878846 0.180418
388 2 0.697848 0.363463 0.151266
389 2 0.408091 0.131224 0.0758564
390 2 0.802688 0.65059 0.321983
391 2 0.938978 0.943663 0.847443
392 1 0.404179 0.624685 0.6535
393 2 0.133865 0.182357 0.830214
394 2 0.658801 0.0590847 0.769744
395 2 0.328692 0.339064 0.920074
396 2 0.380791 0.675844 0.476674
397 2 0.860987 0.398832 0.935332
398 1 0.111757 0.0391397 0.09587
399 1 0.53335 0.225972 0.282881
400 1 0.568653 0.195112 0.262921
401 2 0.00317426 0.430164 0.0482677
402 2 0.447985 0.558771 0.151338
403 2 0.796055 0.754707 0.328958
404 2 0.257205 0.198614 0.614049
405 2 0.565946 0.188307 0.208199
406 2 0.108156 0.299515 0.504006
407 2 0.765848 0.474741 0.589497
408 2 0.529309 0.0382221 0.46222
409 2 0.590412 0.235103 0.0141307
410 2 0.818931 0.843989 0.578847
411 2 0.600482 0.422674 0.102541
412 2 0.451738 0.765475 0.872986
413 2 0.778804 0.49656 0.663894
414 2 0.728048 0.766701 0.207456
415 2 0.507367 0.673385 0.346949
416 1 0.331616 0.487123 0.70384
417 2 0.15978 0.000805977 0.551105
418 2 0.339721 0.0949195 0.863954
419 2 0.824521 0.202392 0.159525
420 2 0.0020681 0.46234 0.476231
421 1 0.916506 0.739623 0.257238
422 1 0.970273 0.0992672 0.803045
423 2 0.0426031 0.178104 0.201937
424 2 0.239912 0.578442 0.477782
425 1 0.157565 0.069143 0.658471
426 2 0.908323 0.217153 0.268599
427 2 0.199774 0.617349 0.507105
428 2 0.188721 0.706426 0.630772
429 2 0.703972 0.0748138 0.601367
430 2 0.559996 0.115447 0.764026
431 2 0.383148 0.920691 0.34821
432 1 0.668398 0.893549 0.0703662
433 2 0.998287 0.71427 0.456328
434 1 0.309543 0.880881 0.543151
435 2 0.908842 0.665464 0.160189
436 2 0.164179 0.255138 0.92598
437 2 0.513049 0.559068 0.335888
438 2 0.809712 0.208728 0.787863
439 1 0.165737 0.861483 0.545762
440 2 0.765956 0.140661 0.672168
441 1 0.790884 0.523116 0.0225568
442 1 0.842761 0.0591331 0.78976
443 1 0.417664 0.486223 0.00941355
444 2 0.369339 0.681809 0.583094
445 2 0.554028 0.949466 0.083606
446 2 0.0846202 0.176539 0.309991
447 2 0.510962 0.407951 0.459467
448 2 0.376072 0.704812 0.476952
449 1 0.334756 0.29688 0.736288
450 2 0.678427 0.499608 0.268096
451 2 0.607236 0.154082 0.502541
452 2 0.371836 0.556401 0.0784295
453 1 0.526498 0.0180206 0.944032
454 2 0.628942 0.870032 0.214678
455 2 0.271809 0.018899 0.776069
456 2 0.334424 0.966609 0.62545
457 2 0.311545 0.672298 0.723098
458 2 0.799523 0.00692616 0.744588
459 2 0.00317585 0.615516 0.545975
460 2 0.966796 0.877652 0.0919269
461 2 0.856176 0.104646 0.839954
462 2 0.16068 0.94512 0.388201
463 1 0.17969 0.607852 0.554185
464 2 0.457535 0.667956 0.556139
465 2 0.0490105 0.0878925 0.968644
466 2 0.292448 0.0687634 0.364559
467 1 0.540002 0.492855 0.346346
468 2 0.660017 0.881954 0.257064
469 2 0.44633 0.26313 0.36367
470 2 0.0126791 0.0909148 0.214106
471 2 0.196704 0.0185217 0.954205
472 2 0.960426 0.156479 0.952339
473 1 0.187592 0.552425 0.865134
474 1 0.101726 0.848148 0.930936
475 1 0.167363 0.656364 0.978457
476 2 0.2423 0.708302 0.131402
477 2 0.321383 0.401625 0.406358
478 2 0.242671 0.847573 0.00078216
479 2 0.556528 0.772247 0.729824
480 2 0.674857 0.877303 0.479922
481 2 0.22621 0.0772094 0.325408
482 2 0.0571482 0.269237 0.791756
483 2 0.393034 0.0158771 0.2992
484 1 0.62206 0.21376 0.289518
485 1 0.622196 0.84546 0.862395
486 2 0.732984 0.800558 0.897589
487 2 0.580724 0.056505 0.572225
488 2 0.395398 0.563949 0.934262
489 2 0.0249867 0.127958 0.980789
490 2 0.25271 0.0484178 0.768439
491 2 0.558454 0.329804 0.803697
492 2 0.390547 0.385484 0.966175
493 2 0.732592 0.76483 0.748468
494 2 0.0328612 0.251154 0.183172
495 2 0.389163 0.286729 0.00593463
496 2 0.809659 0.0434158 0.8404
497 2 0.498976 0.591054 0.411797
498 1 0.706756 0.735428 0.21794
499 2 0.296524 0.0248704 0.519193
500 2 0.568749 0.506439 0.449365
501 1 0.952167 0.460583 0.31668
502 2 0.0772393 0.0273081 0.263999
503 2 0.0918411 0.679053 0.0344982
504 1 0.817599 0.584203 0.281774
505 2 0.199779 0.809523 0.882579
506 2 0.178187 0.109877 0.447992
507 2 0.0374981 0.683059 0.589632
508 2 0.954824 0.307915 0.312157
509 1 0.44556 0.708303 0.0483024
510 2 0.224509 0.00674538 0.733863
511 2 0.978914 0.468009 0.297434
512 2 0.404948 0.670902 0.951666
513 1 0.965127 0.310647 0.243862
514 2 0.717243 0.807762 0.842688
515 1 0.856917 0.0227069 0.420553
516 2 0.513669 0.676778 0.539329
517 1 0.417458 0.798052 0.330914
518 2 0.828549 0.362696 0.771923
519 2 0.657017 0.949152 0.486662
520 2 0.344682 0.550343 0.649943
521 2 0.727308 0.402967 0.141486
522 2 0.391641 0.212918 0.828605
523 2 0.731779 0.501214 0.87758
524 2 0.438859 0.263629 0.327089
525 2 0.289417 0.656988 0.408181
526 2 0.0928023 0.786212 0.691473
527 2 0.246028 0.644832 0.559894
528 1 0.163462 0.324878 0.0926346
529 2 0.587158 0.933143 0.134277
530 2 0.0672324 0.943504 0.564586
531 2 0.537087 0.0197335 0.85187
532 2 0.011364 0.51874 0.217094
533 2 0.251994 0.720322 0.778763
534 1 0.803303 0.530626 0.268478
535 2 0.34672 0.0664941 0.829545
536 1 0.467867 0.847725 0.0362776
537 1 0.99723 0.107099 0.953717
538 2 0.268643 0.58679 0.0181734
539 2 0.417397 0.97035 0.509746
540 2 0.510959 0.818021 0.238188
541 1 0.431246 0.80079 0.605219
542 2 0.567989 0.870981 0.287225
543 1 0.245217 0.0016654 0.828466
544 1 0.768811 0.26797 0.0497869
545 2 0.369985 0.894546 0.0749877
546 2 0.884379 0.4361 0.280676
547 2 0.561095 0.760629 0.285032
548 2 0.479048 0.713095 0.776328
549 2 0.680049 0.780076 0.209285
550 2 0.931287 0.522711 0.712035
551 1 0.729521 0.10451 0.651164
552 2 0.982222 0.759344 0.450781
553 2 0.593112 0.226232 0.424333
554 2 0.665297 0.346259 0.972896
555 1 0.934014 0.316145 0.599263
556 2 0.460008 0.407826 0.981187
557 2 0.297935 0.091457 0.655072
558 1 0.504227 0.289916 0.0124782
559 2 0.431049 0.404359 0.22933
560 2 0.984304 0.389254 0.020047
561 2 0.433722 0.428155 0.791842
562 1 0.0923278 0.0976497 0.613219
563 2 0.533431 0.238765 0.982882
564 2 0.170012 0.121734 0.0920546
565 2 0.87235 0.0882788 0.785926
566 2 0.535009 0.643003 0.692016
567 2 0.0901355 0.830245 0.611867
568 2 0.274745 0.606953 0.955764
569 1 0.923033 0.735646 0.534602
570 2 0.847788 0.87539 0.052115
571 2 0.00145993 0.577054 0.176569
572 2 0.893014 0.521099 0.33046
573 2 0.724732 0.885247 0.812683
574 2 0.249949 0.429545 0.417875
575 1 0.0839407 0.569432 0.230596
576 2 0.601132 0.620108 0.959137
577 2 0.121185 0.382487 0.121031
578 1 0.332751 0.690872 0.770839
579 2 0.572783 0.0183628 0.366689
580 1 0.49187 0.406896 0.379584
581 2 0.172289 0.0320314 0.154799
582 2 0.323601 0.902824 0.219195
583 1 0.219796 0.0933505 0.684426
584 2 0.785148 0.213056 0.228395
585 1 0.382391 0.261521 0.159233
586 2 0.0704282 0.661998 0.0780618
587 2 0.0827561 0.678451 0.697646
588 2 0.604499 0.900285 0.511749
589 1 0.351475 0.411834 0.00568306
590 1 0.17344 0.324775 0.301593
591 1 0.770542 0.956733 0.328952
592 2 0.407594 0.54003 0.313007
593 2 0.167783 0.174098 0.525022
594 1 0.947677 0.367038 0.830722
595 1 0.237452 0.548986 0.0204972
596 2 0.616374 0.156737 0.0688104
597 1 0.804903 0.708431 0.247119
598 2 0.814469 0.512021 0.926136
599 2 0.7036 0.731229 0.715948
600 2 0.655073 0.203313 0.371981
601 2 0.822377 0.2305 0.447772
602 1 0.505929 0.263095 0.328819
603 2 0.551492 0.253959 0.00137356
604 1 0.676129 0.598037 0.389402
605 2 0.305735 0.222519 0.804145
606 2 0.262584 0.923304 0.582386
607 1 0.744692 0.661266 0.754046
608 2 0.904668 0.963592 0.887337
609 2 0.324706 0.298888 0.0584652
610 2 0.174174 0.00241848 0.498048
611 2 0.467143 0.728563 0.135088
612 1 0.39799 0.325746 0.909554
613 2 0.00916713 0.139545 0.285406
614 1 0.724462 0.0776158 0.406969
615 2 0.664239 0.835055 0.442323
616 1 0.0139544 0.253618 0.503952
617 2 0.773392 0.436111 0.849682
618 2 0.0278879 0.876831 0.809122
619 2 0.248951 0.438852 0.122677
620 2 0.826992 0.548262 0.165012
621 2 0.95556 0.182442 0.77465
622 2 0.371495 0.967553 0.661569
623 1 0.313397 0.00504972 0.247994
624 2 0.650958 0.190926 0.326213
625 2 0.296159 0.689417 0.420243
626 2 0.825693 0.454759 0.269703
627 2 0.797283 0.115645 0.816512
628 2 0.990784 0.507433 0.0514955
629 2 0.955081 0.423384 0.354271
630 1 0.991331 0.400542 0.0976763
631 2 0.256071 0.540211 0.527916
632 2 0.0710292 0.353406 0.888937
633 2 0.890487 0.169184 0.411339
634 2 0.969998 0.0633839 0.310466
635 2 0.742493 0.577237 0.796708
636 2 0.400422 0.981723 0.616442
637 2 0.227958 0.794592 0.122486
638 1 0.481032 0.0500288 0.521859
639 2 0.605026 0.636015 0.164135
640 2 0.772419 0.648572 0.224773
641 2 0.106584 0.41167 0.300002
642 2 0.887131 0.933038 0.923006
643 2 0.465605 0.284426 0.311058
644 2 0.591625 0.795788 0.383396
645 1 0.656925 0.979775 0.161538
646 2 0.838936 0.689243 0.121093
647 1 0.272544 0.803323 0.0885745
648 2 0.53664 0.177365 0.316008
649 2 0.811151 0.445396 0.0914808
650 2 0.0680959 0.126758 0.574317
651 2 0.320503 0.244534 0.497499
652 2 0.368308 0.854212 0.598776
653 2 0.236334 0.304891 0.625269
654 1 0.16507 0.809155 0.833284
655 2 0.242207 0.387099 0.159695
656 2 0.992622 0.742091 0.500912
657 2 0.788985 0.945962 0.526524
658 2 0.565375 0.00689428 0.0503582
659 2 0.296483 0.912241 0.0633722
660 2 0.160778 0.330115 0.893118
661 1 0.475022 0.68205 0.456906
662 2 0.00587964 0.216108 0.285555
663 2 0.271968 0.32669 0.464798
664 1 0.943004 0.689994 0.176464
665 2 0.233985 0.75913 0.750791
666 2 0.774041 0.320421 0.960274
667 2 0.302979 0.791354 0.858121
668 2 0.713544 0.78552 0.574791
669 2 0.288027 0.561142 0.538877
670 1 0.451129 0.670724 0.513569
671 2 0.738304 0.447325 0.409902
672 1 0.476496 0.904971 0.301672
673 2 0.0282151 0.422034 0.0623502
674 2 0.943343 0.934785 0.578448
675 2 0.937915 0.996717 0.432503
676 1 0.917937 0.53305 0.589908
677 2 0.148422 0.399443 0.971508
678 2 0.435715 0.239616 0.111777
679 1 0.958981 0.294457 0.555732
680 2 0.354225 0.227291 0.753379
681 1 0.374119 0.540991 0.687324
682 1 0.166215 0.734239 0.852251
683 2 0.287917 0.679996 0.471839
684 2 0.348702 0.602284 0.763611
685 2 0.121506 0.669897 0.419331
686 2 0.847788 0.942398 0.0472134
687 1 0.791463 0.317406 0.886655
688 2 0.218091 0.30449 0.903564
689 2 0.874366 0.109849 0.928407
690 2 0.492012 0.579396 0.57388
691 2 0.819642 0.58933 0.997712
692 1 0.853555 0.448462 0.637918
693 2 0.950359 0.666731 0.435189
694 2 0.139443 0.212304 0.526797
695 1 0.913734 0.00098437 0.0488689
696 2 0.567468 0.042457 0.445471
697 2 0.688072 0.841655 0.877812
698 2 0.224771 0.12558 0.390685
699 2 0.968743 0.457139 0.381799
700 1 0.579164 0.882616 0.63794
701 2 0.706757 0.441685 0.519556
702 2 0.628474 0.603862 0.805644
703 2 0.286211 0.623611 0.141672
704 2 0.0705843 0.787879 0.813314
705 2 0.0543865 0.925539 0.917898
706 2 0.754575 0.480975 0.538453
707 2 0.52961 0.00376068 0.817621
708 1 0.670415 0.308305 0.277363
709 2 0.606317 0.282659 0.268699
710 2 0.864265 0.451215 0.829646
711 2 0.165524 0.805315 0.206998
712 1 0.115489 0.0733241 0.990161
713 2 0.18388 0.86101 0.598205
714 1 0.0126173 0.420644 0.93848
715 2 0.22414 0.93461 0.676995
716 1 0.494742 0.789568 0.143369
717 2 0.467857 0.857856 0.526686
718 2 0.878058 0.60982 0.149056
719 2 0.561616 0.231533 0.677962
720 2 0.481365 0.139947 0.762818
721 2 0.392876 0.229511 0.140311
722 1 0.473926 0.23033 0.11612
723 2 0.985612 0.534991 0.7028
724 2 0.663714 0.935728 0.114564
725 2 0.0199655 0.564745 0.921276
726 2 0.655583 0.53266 0.607142
727 1 0.537441 0.727265 0.906056
728 1 0.914809 0.577663 0.937163
729 1 0.422124 0.320174 0.178663
730 1 0.00515243 0.932606 0.549469
731 2 0.653085 0.812066 0.673217
732 1 0.949093 0.459384 0.123544
733 2 0.537375 0.167946 0.122848
734 2 0.666069 0.318208 0.606545
735 2 0.900739 0.24101 0.512356
736 1 0.310359 0.197545 0.689967
737 2 0.243899 0.126729 0.511211
738 2 0.845462 0.840979 0.231258
739 2 0.644163 0.0578033 0.889459
740 2 0.372231 0.580168 0.91034
741 2 0.869117 0.604733 0.906323
742 1 0.977094 0.925812 0.880011
743 2 0.881115 0.372108 0.785706
744 2 0.804239 0.013414 0.799224
745 2 0.539265 0.247442 0.559514
746 1 0.336758 0.632153 0.995283
747 2 0.531549 0.772868 0.636928
748 2 0.960785 0.180846 0.290113
749 2 0.742295 0.814038 0.188777
750 2 0.32643 0.966274 0.802778
751 2 0.283286 0.208027 0.734526
752 2 0.350146 0.625769 0.251173
753 2 0.515588 0.460747 0.167684
754 2 0.7512 0.113329 0.346412
755 2 0.896125 0.587302 0.47817
756 2 0.690382 0.632659 0.909878
757 2 0.450328 0.279259 0.526626
758 2 0.217394 0.715474 0.424362
759 2 0.214439 0.941128 0.245277
760 1 0.07809 0.759919 0.916271
761 2 0.0921375 0.640253 0.294724
762 2 0.317571 0.585738 0.411975
763 1 0.297151 0.889015 0.795556
764 2 0.0544446 0.522159 0.0296793
765 2 0.918153 0.206052 0.883903
766 2 0.365824 0.624721 0.0892392
767 2 0.990479 0.147755 0.998252
768 2 0.809679 0.336299 0.34719
769 2 0.028918 0.522007 0.0441449
770 2 0.102044 0.583006 0.277512
771 2 0.450683 0.445913 0.692549
772 2 0.275484 0.706185 0.807706
773 1 0.961638 0.714313 0.504655
774 2 0.653072 0.19079 0.562978
775 2 0.773809 0.572102 0.967346
776 2 0.268968 0.440925 0.678571
777 1 0.055038 0.621096 0.236771
778 2 0.462208 0.644185 0.267666
779 2 0.550594 0.573521 0.298008
780 1 0.319959 0.722689 0.19562
781 2 0.760177 0.707825 0.564701
782 2 0.285122 0.327266 0.208969
783 1 0.207006 0.00624371 0.996093
784 2 0.405103 0.378924 0.473738
785 2 0.667734 0.660116 0.994977
786 1 0.899692 0.867329 0.188037
787 2 0.282094 0.792439 0.411625
788 2 0.349463 0.0402895 0.59023
789 2 0.890249 0.138856 0.363254
790 2 0.266292 0.466703 0.120028
791 1 0.0951817 0.647256 0.639939
792 2 0.0458983 0.225242 0.207735
793 2 0.191164 0.714498 0.927776
794 2 0.676801 0.964556 0.91696
795 2 0.47366 0.377142 0.0618796
796 2 0.165507 0.546651 0.407209
797 2 0.85453 0.498578 0.688926
798 2 0.0494924 0.186039 0.159898
799 2 0.00296314 0.239899 0.232358
800 2 0.956389 0.4845 0.160816
801 2 0.580769 0.375384 0.568128
802 2 0.164287 0.321782 0.17628
803 2 0.229435 0.019868 0.302076
804 2 0.919563 0.115663 0.626864
805 2 0.822364 0.721043 0.388241
806 1 0.838062 0.0969917 0.895758
807 2 0.845021 0.769815 0.820757
808 2 0.951926 0.783738 0.304019
809 1 0.309588 0.980027 0.487221
810 2 0.755104 0.718046 0.701227
811 2 0.783437 0.979329 0.355732
812 2 0.766193 0.56329 0.861235
813 1 0.159131 0.40205 0.894621
814 2 0.402247 0.177688 0.649559
815 2 0.81466 0.0435466 0.91655
816 1 0.322147 0.130855 0.603623
817 1 0.92093 0.0340266 0.813339
818 2 0.432096 0.914225 0.0946183
819 1 0.296642 0.575857 0.892275
820 1 0.525513 0.125169 0.827932
821 2 0.38527 0.451389 0.843479
822 2 0.370998 0.134374 0.939629
823 1 0.0140692 0.593484 0.595323
824 2 0.573866 0.439138 0.425541
825 2 0.513608 0.223738 0.827375
826 2 0.767617 0.733699 0.766131
827 1 0.929334 0.117466 0.230946
828 2 0.836269 0.795078 0.717467
829 2 0.0777306 0.790347 0.854821
830 2 0.00577688 0.837326 0.952851
831 1 0.938971 0.0670666 0.883285
832 2 0.915728 0.500503 0.645607
833 1 0.989326 0.531733 0.10086
834 2 0.586777 0.836403 0.20639
835 2 0.770698 0.604575 0.251138
836 2 0.308981 0.422388 0.779193
837 2 0.58192 0.212568 0.418476
838 2 0.927166 0.991109 0.927917
839 2 0.782483 0.82801 0.600309
840 2 0.293053 0.67813 0.23835
841 2 0.162091 0.785504 0.0280133
842 2 0.839089 0.576 0.772104
843 2 0.928202 0.760535 0.357792
844 2 0.649891 0.682766 0.0192374
845 2 0.109613 0.497875 0.157518
846 2 0.487977 0.0797991 0.140624
847 2 0.978862 0.388045 0.0657553
848 2 0.356553 0.425937 0.909268
849 1 0.501099 0.372599 0.206213
850 2 0.648738 0.612562 0.42304
851 2 0.415573 0.815715 0.448676
852 2 0.585883 0.0552474 0.791082
853 1 0.983401 0.508302 0.300289
854 2 0.567838 0.0240498 0.141777
855 2 0.597416 0.515866 0.634006
856 2 0.769564 0.898041 0.668147
857 2 0.451035 0.0746333 0.204469
858 2 0.709756 0.909749 0.817984
859 2 0.673639 0.82418 0.766476
860 2 0.909117 0.393775 0.958288
861 2 0.148649 0.205819 0.614046
862 2 0.67768 0.0998481 0.773697
863 2 0.65565 0.33044 0.498055
864 2 0.477821 0.388341 0.806953
865 2 0.825815 0.816165 0.613646
866 2 0.974139 0.248659 0.27694
867 2 0.00613552 0.464039 0.0295221
868 2 0.000589576 0.598478 0.0719579
869 2 0.542187 0.235681 0.350628
870 2 0.51676 0.296677 0.36312
871 2 0.334415 0.872765 0.0628557
872 2 0.287946 0.225316 0.0725207
873 2 0.308978 0.610266 0.0427818
874 2 0.631687 0.523421 0.4484
875 2 0.388574 0.762058 0.569863
876 2 0.134333 0.591197 0.256581
877 2 0.360333 0.684591 0.86949
878 2 0.932119 0.907054 0.224784
879 2 0.523299 0.22726 0.497146
880 2 0.120746 0.477513 0.332879
881 2 0.473135 0.273409 0.881933
882 1 0.786809 0.788633 0.680039
883 1 0.334149 0.609407 0.843688
884 2 0.503275 0.494689 0.960727
885 2 0.830946 0.0986274 0.954846
886 2 0.643291 0.777746 0.767163
887 1 0.709998 0.693093 0.62904
888 2 0.415182 0.15694 0.389212
889 2 0.589874 0.450251 0.217431
890 1 0.364038 0.874396 0.481183
891 2 0.175368 0.865605 0.682309
892 2 0.975154 0.196684 0.972937
893 2 0.496292 0.258126 0.939782
894 2 0.209204 0.296173 0.0543992
895 1 0.481208 0.715519 0.33869
896 2 0.291961 0.789251 0.563181
897 2 0.119922 0.566334 0.827339
898 2 0.985433 0.246895 0.964486
899 2 0.0518637 0.485979 0.316778
900 2 0.884855 0.516639 0.929816
901 2 0.981595 0.415045 0.262489