LAMMPS Description

1000 atoms

2 atom types
0 13.572088 xlo xhi
0 13.572088 ylo yhi
0 13.572088 zlo zhi

PairIJ Coeffs

1 1 morse 0.5 3 1 2
1 2 morse 0.5 3 0.8 1.6
2 2 morse 0.5 3 0.6 1.2

Atoms

1 2 0.6 2.35 7.23098 0.602699 13.4778
2 2 0.6 2.35 0.772715 6.11288 1.10636
3 1 1 2.35 8.11705 10.1369 3.12891
4 2 0.6 2.35 1.40625 1.73655 13.4163
5 2 0.6 2.35 10.1943 9.51596 8.5077
6 1 1 2.35 12.9782 5.24654 8.29419
7 2 0.6 2.35 11.1443 5.01663 8.69142
8 2 0.6 2.35 13.3416 6.37706 1.68178
9 2 0.6 2.35 5.07408 13.0697 6.96763
10 2 0.6 2.35 6.77114 10.1965 2.19527
11 2 0.6 2.35 8.84703 1.14528 10.7766
12 2 0.6 2.35 9.11174 5.25953 9.08849
13 2 0.6 2.35 4.03969 5.89321 5.31418
14 1 1 2.35 13.1988 0.565407 2.24522
15 2 0.6 2.35 3.71566 0.551859 0.0511253
16 2 0.6 2.35 3.32813 0.508023 0.927305
17 1 1 2.35 11.579 3.97238 4.13601
18 2 0.6 2.35 10.1814 5.35927 9.04265
19 2 0.6 2.35 5.50252 7.32003 4.68944
20 2 0.6 2.35 1.71329 4.31761 9.28958
21 2 0.6 2.35 13.1608 9.90479 6.85223
22 2 0.6 2.35 2.65397 7.55009 3.49409
23 2 0.6 2.35 12.0359 0.0119159 0.887866
24 2 0.6 2.35 11.0117 6.13022 13.0726
25 1 1 2.35 10.3576 7.38822 0.0349299
26 2 0.6 2.35 12.1826 11.8261 4.24496
27 2 0.6 2.35 2.54791 8.58719 1.18115
28 2 0.6 2.35 3.74391 1.95151 5.8049
29 2 0.6 2.35 12.7705 3.7628 0.127128
30 2 0.6 2.35 4.44374 9.60607 10.0751
31 1 1 2.35 10.1437 10.1117 4.87378
32 1 1 2.35 6.98126 11.5963 3.1614
33 1 1 2.35 2.38383 3.95056 8.20685
34 2 0.6 2.35 3.97075 8.35349 13.2099
35 2 0.6 2.35 10.5765 8.90772 1.73626
36 1 1 2.35 0.498863 1.96245 8.32035
37 2 0.6 2.35 12.1418 8.74473 4.34317
38 2 0.6 2.35 6.59518 5.07972 2.05188
39 2 0.6 2.35 6.24413 2.6575 1.74911
40 2 0.6 2.35 6.96957 2.03746 11.4152
41 2 0.6 2.35 3.82001 10.3756 5.77356
42 2 0.6 2.35 8.34824 11.575 2.72868
43 2 0.6 2.35 7.83063 7.70746 8.39185
44 2 0.6 2.35 11.1286 9.18014 8.43217
45 2 0.6 2.35 2.98585 9.59369 7.84225
46 1 1 2.35 4.22855 3.0575 6.40066
47 2 0.6 2.35 9.31204 6.95532 5.83701
48 2 0.6 2.35 6.94114 10.1301 6.31515
49 2 0.6 2.35 10.2146 8.45273 3.87082
50 2 0.6 2.35 8.98814 8.67591 1.29187
51 2 0.6 2.35 8.03143 11.1722 5.66086
52 2 0.6 2.35 12.7602 4.82411 1.12137
53 2 0.6 2.35 3.10924 3.24362 1.90622
54 2 0.6 2.35 0.228739 6.90926 2.68297
55 1 1 2.35 0.278913 3.40753 0.716736
56 1 1 2.35 9.61603 2.93917 0.212975
57 2 0.6 2.35 8.2279 3.68918 6.5011
58 2 0.6 2.35 7.7734 3.03246 12.285
59 2 0.6 2.35 10.797 11.9515 7.6843
60 2 0.6 2.35 10.2676 1.44201 1.73465
61 2 0.6 2.35 10.2874 7.46902 13.5618
62 2 0.6 2.35 0.178526 2.80011 1.2818
63 2 0.6 2.35 8.9668 13.476 10.234
64 2 0.6 2.35 11.9092 11.1255 11.5317
65 2 0.6 2.35 5.79368 12.6951 4.42199
66 1 1 2.35 10.1715 4.1533 2.92691
67 2 0.6 2.35 5.76537 3.3203 8.0727
68 2 0.6 2.35 6.74418 1.65621 9.82286
69 1 1 2.35 0.531351 3.72645 10.2475
70 2 0.6 2.35 5.48514 13.1172 9.21112
71 1 1 2.35 7.49597 10.1126 11.7372
72 2 0.6 2.35 12.075 2.84658 10.5734
73 2 0.6 2.35 11.7689 4.06065 11.0988
74 2 0.6 2.35 7.31367 2.09636 10.9505
75 2 0.6 2.35 6.93415 8.03705 2.54392
76 2 0.6 2.35 4.02345 10.0572 10.742
77 1 1 2.35 9.88723 5.93211 0.216767
78 2 0.6 2.35 4.62446 9.65149 1.14921
79 2 0.6 2.35 5.24285 2.84648 9.51556
80 2 0.6 2.35 11.8432 11.4448 4.3344
81 2 0.6 2.35 4.77312 0.360644 9.90789
82 2 0.6 2.35 12.7711 11.8028 7.42754
83 2 0.6 2.35 11.0198 10.3368 3.31944
84 2 0.6 2.35 1.29024 2.61553 4.0107
85 1 1 2.35 5.00478 3.63636 11.0792
86 2 0.6 2.35 11.7183 4.54433 11.473
87 2 0.6 2.35 2.5592 4.06411 0.282893
88 2 0.6 2.35 10.0949 0.237891 10.9264
89 2 0.6 2.35 11.8746 6.05696 7.46918
90 2 0.6 2.35 7.70425 11.2154 6.88515
91 2 0.6 2.35 1.23377 4.22832 5.99553
92 2 0.6 2.35 11.5359 12.7792 5.9681
93 2 0.6 2.35 9.22501 2.01213 12.927
94 1 1 2.35 1.79604 9.35915 0.832078
95 2 0.6 2.35 6.84141 11.7859 13.3143
96 2 0.6 2.35 2.53234 7.58588 9.73331
97 2 0.6 2.35 2.93005 4.12788 1.14884
98 2 0.6 2.35 5.7516 12.3264 8.89251
99 2 0.6 2.35 11.9528 10.9663 2.83791
100 2 0.6 2.35 1.38942 8.62648 1.45606
101 1 1 2.35 1.71091 10.9611 1.82081
102 2 0.6 2.35 4.56972 12.7226 12.9495
103 2 0.6 2.35 12.2192 6.52548 1.27923
104 2 0.6 2.35 8.95368 2.94332 6.2169
105 2 0.6 2.35 3.57926 8.47008 10.3837
106 2 0.6 2.35 9.84754 5.51962 2.53333
107 2 0.6 2.35 10.6072 7.86711 13.2692
108 2 0.6 2.35 8.03185 3.31158 7.37101
109 2 0.6 2.35 12.3271 10.1235 5.78279
110 2 0.6 2.35 5.19836 7.17678 1.6804
111 2 0.6 2.35 2.07006 2.67449 2.03727
112 1 1 2.35 5.34503 2.15099 13.3992
113 1 1 2.35 10.111 6.1139 12.7581
114 2 0.6 2.35 8.05324 1.95448 9.26237
115 2 0.6 2.35 12.9022 9.2932 6.13074
116 2 0.6 2.35 11.7101 5.84969 12.3081
117 2 0.6 2.35 7.2149 9.24008 6.71021
118 2 0.6 2.35 5.11767 2.14041 6.17216
119 2 0.6 2.35 5.64869 6.93797 1.2422
120 2 0.6 2.35 8.70393 12.0018 4.69813
121 2 0.6 2.35 3.24815 0.0543856 0.77463
122 2 0.6 2.35 8.72198 0.56728 7.81984
123 2 0.6 2.35 3.32292 9.40103 3.9468
124 2 0.6 2.35 11.6004 11.5943 7.63342
125 1 1 2.35 7.68523 10.8187 7.46445
126 2 0.6 2.35 7.13223 6.11237 10.9812
127 2 0.6 2.35 6.11882 0.231076 7.41289
128 2 0.6 2.35 6.66332 9.17574 7.56428
129 1 1 2.35 3.0558 8.59108 6.88183
130 2 0.6 2.35 3.9575 4.98378 8.67853
131 2 0.6 2.35 6.80333 2.76819 7.6782
132 2 0.6 2.35 6.16364 12.9426 7.52006
133 2 0.6 2.35 3.82645 6.2009 11.3516
134 2 0.6 2.35 10.0315 0.955952 3.5932
135 2 0.6 2.35 13.2493 11.809 9.42384
136 2 0.6 2.35 0.999879 6.08289 12.7251
137 1 1 2.35 11.314 10.3703 1.84194
138 2 0.6 2.35 5.62346 3.43563 8.59638
139 2 0.6 2.35 13.0041 2.13618 0.35516
140 1 1 2.35 13.1556 9.12442 13.2872
141 2 0.6 2.35 7.59318 11.6013 4.21568
142 2 0.6 2.35 8.4201 13.2879 2.43508
143 2 0.6 2.35 0.302245 6.01214 11.9253
144 2 0.6 2.35 1.13399 13.0536 7.32661
145 2 0.6 2.35 4.79589 6.42034 7.11172
146 2 0.6 2.35 2.96346 6.56531 13.3273
147 1 1 2.35 4.14334 5.03008 11.0133
148 1 1 2.35 0.995512 9.29886 13.0113
149 2 0.6 2.35 10.0377 6.61515 0.854602
150 1 1 2.35 6.65087 9.83743 8.59713
151 2 0.6 2.35 0.486973 4.92001 10.8568
152 2 0.6 2.35 7.87514 8.42737 5.83542
153 1 1 2.35 6.78556 10.7285 2.08906
154 1 1 2.35 3.19514 12.3077 4.57635
155 2 0.6 2.35 6.43424 5.67102 3.38888
156 2 0.6 2.35 1.10929 1.79945 9.42864
157 2 0.6 2.35 9.18739 7.86206 10.356
158 2 0.6 2.35 2.23349 3.54393 13.0314
159 2 0.6 2.35 1.10223 8.03075 8.07806
160 2 0.6 2.35 0.39935 13.2392 12.5389
161 2 0.6 2.35 5.25508 0.914077 7.59328
162 2 0.6 2.35 7.69882 0.800486 2.1829
163 2 0.6 2.35 12.1965 4.69526 12.0286
164 2 0.6 2.35 1.48231 12.4827 5.49948
165 2 0.6 2.35 8.84144 1.18893 12.4827
166 2 0.6 2.35 5.90831 12.3975 5.72271
167 2 0.6 2.35 6.08223 10.4436 2.58737
168 2 0.6 2.35 8.44824 2.46807 9.33473
169 2 0.6 2.35 13.3383 4.93637 4.75395
170 2 0.6 2.35 0.918849 12.7203 0.204618
171 2 0.6 2.35 2.06635 1.66421 10.7422
172 2 0.6 2.35 8.25871 5.07978 9.08157
173 1 1 2.35 5.34902 5.42363 3.28211
174 2 0.6 2.35 6.25468 8.63296 4.13369
175 2 0.6 2.35 12.5106 8.8924 13.3183
176 2 0.6 2.35 0.871852 6.07172 11.2343
177 1 1 2.35 5.92401 7.67205 5.98329
178 2 0.6 2.35 13.0732 11.0644 1.63561
179 2 0.6 2.35 10.6525 4.07425 10.9842
180 2 0.6 2.35 4.62535 1.69698 4.3087
181 2 0.6 2.35 9.39982 10.4229 10.6305
182 2 0.6 2.35 4.60223 11.2791 6.17586
183 2 0.6 2.35 6.42031 3.64881 5.41217
184 2 0.6 2.35 12.5785 3.55995 1.28512
185 2 0.6 2.35 3.18691 4.13262 8.50192
186 2 0.6 2.35 11.0681 7.1534 4.31361
187 2 0.6 2.35 10.143 10.9502 11.5611
188 1 1 2.35 13.432 10.5406 5.94123
189 2 0.6 2.35 11.1562 11.2556 9.91343
190 2 0.6 2.35 5.92423 10.0085 7.36743
191 2 0.6 2.35 5.48657 5.54769 11.2462
192 2 0.6 2.35 6.10285 7.07714 8.49974
193 2 0.6 2.35 12.3875 2.45361 0.196729
194 2 0.6 2.35 11.0695 12.2545 10.4323
195 2 0.6 2.35 2.12216 13.2437 2.03026
196 2 0.6 2.35 5.13104 0.915371 0.734328
197 2 0.6 2.35 9.57011 10.3403 4.69166
198 2 0.6 2.35 10.3104 6.50826 9.05367
199 2 0.6 2.35 3.413 11.9449 12.2795
200 1 1 2.35 1.339 2.35645 9.39939
201 2 0.6 2.35 5.78893 0.601991 3.85372
202 2 0.6 2.35 8.97966 13.036 5.30547
203 2 0.6 2.35 2.49342 12.4736 7.47388
204 2 0.6 2.35 10.4897 0.271266 4.15874
205 2 0.6 2.35 12.4529 12.138 1.6008
206 2 0.6 2.35 6.66184 1.53818 9.04029
207 2 0.6 2.35 13.3098 5.01343 10.2692
208 2 0.6 2.35 5.14755 12.5711 11.1645
209 2 0.6 2.35 5.97912 3.36488 3.74675
210 2 0.6 2.35 3.98508 10.1221 8.60249
211 2 0.6 2.35 4.98118 6.58323 0.0403321
212 1 1 2.35 1.22681 0.69899 10.7957
213 2 0.6 2.35 0.336953 8.27874 8.26434
214 2 0.6 2.35 12.382 6.57285 1.71426
215 2 0.6 2.35 7.96905 7.8927 8.7986
216 2 0.6 2.35 3.4299 12.9801 6.48947
217 2 0.6 2.35 10.1254 7.95109 10.0715
218 2 0.6 2.35 13.56 11.6454 10.5052
219 2 0.6 2.35 4.06694 4.23247 11.7806
220 2 0.6 2.35 10.8466 12.4711 3.3271
221 2 0.6 2.35 0.570898 6.1507 4.67174
222 2 0.6 2.35 12.4981 1.54408 11.2336
223 2 0.6 2.35 11.3012 10.219 10.2404
224 2 0.6 2.35 2.17528 6.57265 7.0803
225 1 1 2.35 11.5946 6.7713 1.33712
226 2 0.6 2.35 9.68325 1.44695 3.84541
227 2 0.6 2.35 2.72666 12.7923 1.71807
228 2 0.6 2.35 2.71066 8.27457 12.2947
229 2 0.6 2.35 10.6534 8.31164 3.81641
230 1 1 2.35 7.90653 11.9422 4.98901
231 2 0.6 2.35 1.30957 7.74449 7.97719
232 2 0.6 2.35 4.12796 12.5803 13.2134
233 1 1 2.35 5.62941 2.21168 9.7798
234 2 0.6 2.35 13.2267 3.64258 7.05365
235 2 0.6 2.35 4.66282 6.20325 13.317
236 2 0.6 2.35 4.08014 3.44639 10.2117
237 2 0.6 2.35 11.7379 4.59433 5.13264
238 1 1 2.35 3.71234 3.37217 10.3646
239 1 1 2.35 8.32365 6.30976 12.5671
240 2 0.6 2.35 7.61377 4.93351 11.0412
241 2 0.6 2.35 10.7569 7.00179 7.29315
242 1 1 2.35 4.04765 10.8844 11.5802
243 1 1 2.35 8.46939 1.28881 4.24913
244 2 0.6 2.35 6.37256 12.102 7.52307
245 2 0.6 2.35 8.69173 11.0643 9.34927
246 1 1 2.35 3.24736 0.39308 12.9507
247 2 0.6 2.35 13.4634 8.27067 10.4511
248 2 0.6 2.35 2.52168 6.58227 5.92993
249 2 0.6 2.35 8.22877 8.0568 10.1798
250 2 0.6 2.35 11.6695 1.12327 4.7858
251 2 0.6 2.35 9.37872 0.0216143 0.751201
252 2 0.6 2.35 1.03773 10.024 2.73037
253 2 0.6 2.35 8.12811 2.13553 5.33351
254 2 0.6 2.35 5.30708 5.91163 13.3346
255 2 0.6 2.35 3.12005 6.9641 7.88129
256 2 0.6 2.35 0.368761 6.13855 6.8529
257 2 0.6 2.35 10.5021 11.6145 10.7948
258 2 0.6 2.35 7.12371 3.36705 2.41022
259 1 1 2.35 5.51795 4.09385 9.51023
260 2 0.6 2.35 3.66816 11.3437 4.93012
261 1 1 2.35 10.8272 4.23566 10.7511
262 2 0.6 2.35 9.4533 2.01075 7.92751
263 2 0.6 2.35 12.5186 5.52251 2.10401
264 2 0.6 2.35 9.81146 2.8892 4.43814
265 1 1 2.35 4.22595 4.67794 2.34611
266 2 0.6 2.35 4.15472 8.29813 2.5061
267 2 0.6 2.35 3.22896 2.7112 4.12094
268 1 1 2.35 6.97539 12.0385 5.45314
269 1 1 2.35 12.6845 12.3864 4.37692
270 2 0.6 2.35 11.1326 6.07145 6.80884
271 2 0.6 2.35 9.12435 4.05681 7.86253
272 2 0.6 2.35 10.3578 10.5319 13.0174
273 1 1 2.35 0.871763 8.33227 2.65457
274 2 0.6 2.35 0.295844 7.6446 12.4513
275 2 0.6 2.35 7.8479 4.98436 11.9999
276 2 0.6 2.35 2.34264 4.36448 10.4905
277 2 0.6 2.35 0.970867 3.38273 9.23128
278 2 0.6 2.35 4.8912 10.725 0.694935
279 2 0.6 2.35 8.27447 9.30603 2.61545
280 1 1 2.35 6.3326 5.6961 4.24238
281 2 0.6 2.35 12.1624 6.93804 10.6912
282 2 0.6 2.35 7.01254 9.30511 4.97198
283 2 0.6 2.35 8.48287 5.14365 9.19505
284 1 1 2.35 6.99665 4.34792 0.597006
285 2 0.6 2.35 9.24657 0.266203 12.3929
286 2 0.6 2.35 10.0189 9.04098 1.99154
287 1 1 2.35 1.80537 4.1168 0.173064
288 2 0.6 2.35 9.40597 13.4724 6.18043
289 2 0.6 2.35 1.80751 4.12641 8.8359
290 2 0.6 2.35 7.24496 8.14036 1.93434
291 2 0.6 2.35 7.96934 13.3689 8.55431
292 2 0.6 2.35 7.68358 0.657853 7.81961
293 2 0.6 2.35 12.9911 8.88852 12.3011
294 2 0.6 2.35 6.95137 11.3514 1.27
295 2 0.6 2.35 8.8314 6.17368 9.80093
296 2 0.6 2.35 1.95009 7.50164 3.84593
297 2 0.6 2.35 8.04802 1.79487 6.21366
298 2 0.6 2.35 1.54693 8.95726 6.76351
299 1 1 2.35 3.62382 12.9849 6.66411
300 2 0.6 2.35 4.35915 9.85333 12.6713
301 2 0.6 2.35 7.58428 9.12725 5.70399
302 2 0.6 2.35 10.5323 0.107806 7.12143
303 2 0.6 2.35 2.17188 10.037 4.17867
304 1 1 2.35 0.0661372 10.6906 3.27893
305 2 0.6 2.35 4.51427 12.7153 12.2677
306 2 0.6 2.35 3.95451 12.9352 1.77166
307 2 0.6 2.35 9.01635 2.68295 13.273
308 2 0.6 2.35 2.89105 3.35332 3.02103
309 2 0.6 2.35 11.458 12.3808 6.41265
310 2 0.6 2.35 0.969954 6.21814 2.40609
311 2 0.6 2.35 9.1184 0.0927659 2.39382
312 2 0.6 2.35 3.50426 5.21408 7.6554
313 2 0.6 2.35 7.62495 7.06171 6.09239
314 2 0.6 2.35 11.0535 8.64222 0.891683
315 2 0.6 2.35 5.24559 12.9608 3.81208
316 2 0.6 2.35 3.88781 8.44402 9.43474
317 2 0.6 2.35 10.8752 0.673489 0.540575
318 2 0.6 2.35 6.72256 10.0133 6.62054
319 2 0.6 2.35 13.3304 10.7795 1.45967
320 2 0.6 2.35 3.6608 3.3481 12.1945
321 2 0.6 2.35 5.9063 5.44269 0.67437
322 2 0.6 2.35 7.73378 9.64525 3.38971
323 2 0.6 2.35 1.21161 4.79977 3.44701
324 2 0.6 2.35 10.9031 6.14022 6.40035
325 2 0.6 2.35 10.312 2.23679 11.5281
326 2 0.6 2.35 5.58758 10.9164 8.64457
327 2 0.6 2.35 0.798823 12.3026 6.96981
328 2 0.6 2.35 7.33633 7.49614 1.12102
329 1 1 2.35 8.34063 9.6099 2.34864
330 2 0.6 2.35 0.627951 5.34636 1.40064
331 2 0.6 2.35 5.42951 10.9024 6.34952
332 2 0.6 2.35 5.21997 8.72855 4.60462
333 2 0.6 2.35 9.32117 2.29952 4.5013
334 2 0.6 2.35 7.12489 7.75514 12.5346
335 1 1 2.35 9.96335 12.3557 9.58244
336 2 0.6 2.35 12.362 0.642851 4.15713
337 2 0.6 2.35 6.97597 2.78752 5.23208
338 1 1 2.35 0.740988 8.83621 12.8768
339 2 0.6 2.35 9.51977 8.85136 4.37918
340 2 0.6 2.35 13.0089 4.22826 9.88279
341 2 0.6 2.35 6.2776 11.5087 12.1965
342 2 0.6 2.35 4.93359 3.84438 0.746918
343 2 0.6 2.35 9.18142 10.0039 12.5566
344 1 1 2.35 0.109613 1.91268 0.190824
345 1 1 2.35 9.85252 0.223014 0.910969
346 1 1 2.35 9.49169 4.53956 4.99289
347 1 1 2.35 3.87563 10.4966 10.2054
348 2 0.6 2.35 1.36419 6.61374 3.3352
349 2 0.6 2.35 4.93293 5.41626 11.3263
350 2 0.6 2.35 9.07882 11.0925 2.32833
351 2 0.6 2.35 7.15294 5.69277 7.21761
352 2 0.6 2.35 3.82677 9.22516 2.24666
353 1 1 2.35 5.01844 7.49964 3.59557
354 1 1 2.35 8.20327 1.32832 0.83378
355 2 0.6 2.35 1.58001 7.6605 6.52274
356 2 0.6 2.35 9.98871 6.20557 3.1475
357 2 0.6 2.35 11.0875 9.30002 8.34877
358 2 0.6 2.35 12.213 5.43761 4.55378
359 2 0.6 2.35 5.28013 9.59822 6.11463
360 2 0.6 2.35 6.80994 11.6545 9.44781
361 1 1 2.35 10.6131 0.143953 7.43238
362 2 0.6 2.35 4.3333 13.3233 10.151
363 1 1 2.35 10.4183 5.86758 0.718113
364 2 0.6 2.35 6.37106 10.2721 11.1505
365 2 0.6 2.35 0.508913 9.63036 2.50567
366 2 0.6 2.35 7.91103 6.80478 7.29824
367 1 1 2.35 8.72531 12.8434 11.8302
368 1 1 2.35 4.17747 6.91565 6.13049
369 2 0.6 2.35 9.22439 13.0029 9.34912
370 2 0.6 2.35 1.71119 3.94577 4.0069
371 2 0.6 2.35 6.33967 10.1605 13.3639
372 1 1 2.35 1.08033 12.4918 13.4763
373 2 0.6 2.35 9.24085 0.131537 8.45215
374 2 0.6 2.35 4.64643 8.52069 6.5185
375 2 0.6 2.35 7.03372 0.527186 5.13535
376 2 0.6 2.35 4.44207 8.68861 3.30693
377 2 0.6 2.35 5.46485 2.64508 8.37736
378 2 0.6 2.35 12.2655 7.65374 5.73548
379 2 0.6 2.35 5.53247 0.621786 5.43305
380 2 0.6 2.35 11.938 11.9503 1.50631
381 2 0.6 2.35 0.259134 9.8971 5.74401
382 2 0.6 2.35 2.08782 3.44251 1.78398
383 2 0.6 2.35 4.97288 3.20636 12.2743
384 1 1 2.35 6.18104 11.2838 1.1984
385 2 0.6 2.35 6.22436 4.47655 8.34624
386 2 0.6 2.35 2.53968 3.9916 12.2321
387 1 1 2.35 0.830146 11.767 12.5538
388 2 0.6 2.35 2.34823 2.95695 6.41802
389 2 0.6 2.35 8.64292 5.46834 12.3824
390 2 0.6 2.35 5.68541 9.83821 12.1222
391 2 0.6 2.35 13.3241 4.65401 4.46426
392 1 1 2.35 0.649689 1.75699 5.21967
393 2 0.6 2.35 10.6889 5.99584 1.45627
394 2 0.6 2.35 12.2204 0.680576 0.341113
395 2 0.6 2.35 8.17566 13.2628 12.8939
396 2 0.6 2.35 7.11507 7.26946 9.99785
397 2 0.6 2.35 8.98757 7.36078 6.16638
398 1 1 2.35 4.68228 5.69663 0.91899
399 1 1 2.35 0.697942 6.27251 1.15937
400 1 1 2.35 1.10987 9.05559 5.84583
401 2 0.6 2.35 8.05472 1.2471 2.23356
402 2 0.6 2.35 3.77769 12.4629 7.73093
403 2 0.6 2.35 3.73592 0.674238 12.274
404 2 0.6 2.35 3.15969 9.72458 6.4635
405 2 0.6 2.35 2.18901 1.40892 10.0961
406 2 0.6 2.35 7.85724 0.0249056 1.33163
407 2 0.6 2.35 9.34544 3.77616 8.18546
408 2 0.6 2.35 12.0023 1.86483 10.8634
409 2 0.6 2.35 9.35951 4.55317 6.35524
410 2 0.6 2.35 9.3625 2.92448 11.227
411 2 0.6 2.35 8.53739 7.38087 0.285198
412 2 0.6 2.35 12.8457 13.3021 1.79083
413 2 0.6 2.35 0.605815 13.44 7.09394
414 2 0.6 2.35 11.0785 2.72349 10.031
415 2 0.6 2.35 5.36588 10.4634 6.09424
416 1 1 2.35 2.61626 10.4474 9.31974
417 2 0.6 2.35 7.17696 3.55249 9.568
418 2 0.6 2.35 11.2049 12.0973 13.3158
419 2 0.6 2.35 4.08889 6.53445 5.25028
420 2 0.6 2.35 3.6182 8.36775 7.01436
421 1 1 2.35 9.29926 13.365 1.02741
422 1 1 2.35 9.44223 8.97478 7.27882
423 2 0.6 2.35 9.18161 7.68367 10.9241
424 2 0.6 2.35 2.33268 3.43864 8.3791
425 1 1 2.35 8.37474 2.80565 2.75663
426 2 0.6 2.35 3.55215 0.440677 9.91616
427 2 0.6 2.35 11.6995 8.72059 11.9258
428 2 0.6 2.35 7.0109 2.77078 2.03331
429 2 0.6 2.35 12.7892 10.1974 5.80324
430 2 0.6 2.35 0.583301 8.47768 9.18021
431 2 0.6 2.35 12.6327 3.40292 12.7687
432 1 1 2.35 7.72449 8.32235 7.70671
433 2 0.6 2.35 0.335521 6.50825 2.058
434 1 1 2.35 3.03456 7.85786 6.48567
435 2 0.6 2.35 8.63015 13.3334 8.50821
436 2 0.6 2.35 8.49173 6.30085 5.26311
437 2 0.6 2.35 11.1085 7.03192 4.35712
438 2 0.6 2.35 10.4442 12.4982 3.14573
439 1 1 2.35 9.78731 4.98917 5.20211
440 2 0.6 2.35 7.08757 10.2848 5.45677
441 1 1 2.35 5.58823 10.1012 6.32818
442 1 1 2.35 12.4422 3.26763 6.36145
443 1 1 2.35 1.03558 1.03204 6.84458
444 2 0.6 2.35 3.36769 6.90085 4.71445
445 2 0.6 2.35 11.4391 1.11891 5.64341
446 2 0.6 2.35 3.93572 0.807953 5.93246
447 2 0.6 2.35 5.6168 1.77773 5.98123
448 2 0.6 2.35 10.7952 1.49829 12.2853
449 1 1 2.35 1.15981 10.6492 3.79931
450 2 0.6 2.35 5.00007 7.70585 5.07437
451 2 0.6 2.35 2.67508 7.83931 1.17424
452 2 0.6 2.35 9.61852 1.33821 6.34931
453 1 1 2.35 9.01856 7.76017 12.4333
454 2 0.6 2.35 5.98721 9.56776 1.51177
455 2 0.6 2.35 4.5386 11.0117 12.8059
456 2 0.6 2.35 12.2271 8.19977 0.646257
457 2 0.6 2.35 7.50007 9.09383 13.2678
458 2 0.6 2.35 10.456 6.55017 13.3115
459 2 0.6 2.35 12.1378 0.801417 3.36946
460 2 0.6 2.35 13.0954 7.57449 2.78222
461 2 0.6 2.35 2.14287 9.65147 9.77307
462 2 0.6 2.35 7.56986 8.63978 1.0024
463 1 1 2.35 10.5804 4.69468 4.02141
464 2 0.6 2.35 13.245 8.0341 10.2715
465 2 0.6 2.35 3.75084 4.95066 11.1694
466 2 0.6 2.35 0.816154 3.28775 6.26162
467 1 1 2.35 7.68446 7.87672 3.98261
468 2 0.6 2.35 9.05408 3.32342 2.39455
469 2 0.6 2.35 0.22534 5.32308 5.31206
470 2 0.6 2.35 3.86561 4.76752 0.952556
471 2 0.6 2.35 4.04208 3.45515 2.77939
472 2 0.6 2.35 3.13661 5.60312 10.2131
473 1 1 2.35 8.69179 0.950298 7.97789
474 1 1 2.35 9.66368 11.807 11.8948
475 1 1 2.35 11.8739 9.01714 2.47877
476 2 0.6 2.35 8.02219 7.00348 12.4872
477 2 0.6 2.35 3.3009 5.26379 1.77968
478 2 0.6 2.35 9.9755 5.0416 12.1871
479 2 0.6 2.35 5.29419 6.64405 1.9961
480 2 0.6 2.35 10.719 2.40103 10.3829
481 2 0.6 2.35 9.96834 10.2611 7.55995
482 2 0.6 2.35 7.20436 5.22598 5.61482
483 2 0.6 2.35 8.97226 6.84646 1.84424
484 1 1 2.35 11.7896 5.86345 3.98246
485 1 1 2.35 7.73046 11.7056 3.17532
486 2 0.6 2.35 10.5737 1.31473 5.38865
487 2 0.6 2.35 5.48532 13.4721 2.88847
488 2 0.6 2.35 10.2683 11.9756 1.82858
489 2 0.6 2.35 0.563139 0.650842 13.3757
490 2 0.6 2.35 13.2754 7.90501 10.3569
491 2 0.6 2.35 7.20113 6.65251 7.97962
492 2 0.6 2.35 0.212933 2.61849 9.39628
493 2 0.6 2.35 11.985 11.6351 6.80257
494 2 0.6 2.35 11.2365 5.41419 11.5672
495 2 0.6 2.35 3.73204 8.63009 2.54052
496 2 0.6 2.35 4.589 8.8539 6.78023
497 2 0.6 2.35 8.07791 5.13609 7.45602
498 1 1 2.35 3.84845 4.48326 0.386067
499 2 0.6 2.35 10.7132 2.61103 2.33144
500 2 0.6 2.35 9.49058 11.1515 13.276
501 1 1 2.35 6.04266 3.12895 4.15235
502 2 0.6 2.35 11.8946 0.224914 13.2892
503 2 0.6 2.35 1.94978 4.307 13.4237
504 1 1 2.35 0.608479 1.30714 0.659626
505 2 0.6 2.35 11.0165 5.58211 7.71154
506 2 0.6 2.35 5.81955 10.6833 11.3102
507 2 0.6 2.35 9.16618 10.13 7.79464
508 2 0.6 2.35 1.90724 8.00855 4.65483
509 1 1 2.35 12.4602 11.2595 5.92803
510 2 0.6 2.35 9.04668 2.75224 12.633
511 2 0.6 2.35 4.8575 9.65186 8.02332
512 2 0.6 2.35 5.47364 11.8517 9.0028
513 1 1 2.35 9.87584 4.01869 2.33193
514 2 0.6 2.35 4.15995 3.71513 10.9401
515 1 1 2.35 9.13896 11.7784 1.5333
516 2 0.6 2.35 12.4161 12.71 7.53496
517 1 1 2.35 7.03998 7.19706 6.13031
518 2 0.6 2.35 5.75377 7.29836 9.67208
519 2 0.6 2.35 9.1894 0.120745 8.99929
520 2 0.6 2.35 5.41723 8.93981 8.08149
521 2 0.6 2.35 5.51005 8.20077 5.54762
522 2 0.6 2.35 4.90068 5.32149 9.24684
523 2 0.6 2.35 1.35551 8.28636 5.48335
524 2 0.6 2.35 13.3604 2.18965 10.1062
525 2 0.6 2.35 3.98468 13.5055 5.32172
526 2 0.6 2.35 3.00299 10.4725 0.361557
527 2 0.6 2.35 5.62777 5.16848 11.4027
528 1 1 2.35 3.82524 3.98242 9.09855
529 2 0.6 2.35 3.68534 3.43372 0.796634
530 2 0.6 2.35 8.15422 13.0017 10.1497
531 2 0.6 2.35 6.60101 8.0728 13.1304
532 2 0.6 2.35 4.38911 5.31473 10.9411
533 2 0.6 2.35 6.8907 13.2213 6.90478
534 1 1 2.35 0.153253 8.6651 3.24719
535 2 0.6 2.35 5.20228 1.92563 3.96945
536 1 1 2.35 11.9236 8.55105 12.1452
537 1 1 2.35 13.481 11.1857 0.0995878
538 2 0.6 2.35 6.02699 0.105395 5.4656
539 2 0.6 2.35 9.45439 1.69294 11.1398
540 2 0.6 2.35 0.360903 9.26626 12.5617
541 1 1 2.35 12.6534 7.63309 2.72977
542 2 0.6 2.35 5.57986 9.3466 3.88503
543 1 1 2.35 9.6581 10.804 4.14664
544 1 1 2.35 7.43718 5.37291 7.66941
545 2 0.6 2.35 1.78695 10.257 9.22487
546 2 0.6 2.35 8.85533 3.98763 9.23686
547 2 0.6 2.35 1.35257 10.499 4.92377
548 2 0.6 2.35 3.43245 13.294 4.89192
549 2 0.6 2.35 12.0812 3.76579 3.46905
550 2 0.6 2.35 6.47054 12.0002 0.970121
551 1 1 2.35 6.35515 6.76332 11.5939
552 2 0.6 2.35 13.3815 2.70023 0.694492
553 2 0.6 2.35 1.6414 11.0209 1.24057
554 2 0.6 2.35 9.08848 2.49628 10.5555
555 1 1 2.35 4.04559 0.450256 4.47967
556 2 0.6 2.35 3.85766 1.30901 5.51574
557 2 0.6 2.35 13.1327 2.73125 2.8217
558 1 1 2.35 8.50938 13.2993 8.3485
559 2 0.6 2.35 12.3537 5.94463 12.0259
560 2 0.6 2.35 3.47952 4.06412 7.13108
561 2 0.6 2.35 1.13625 1.99525 2.42823
562 1 1 2.35 6.27314 10.4098 13.2773
563 2 0.6 2.35 2.46765 9.82999 6.79818
564 2 0.6 2.35 1.71358 3.67941 9.42441
565 2 0.6 2.35 8.66562 8.50543 7.62867
566 2 0.6 2.35 5.39495 1.58508 2.13272
567 2 0.6 2.35 11.7376 6.0269 9.8464
568 2 0.6 2.35 1.93969 12.2067 11.2934
569 1 1 2.35 0.154397 3.957 6.97329
570 2 0.6 2.35 5.92524 10.654 0.993731
571 2 0.6 2.35 12.5847 6.19262 8.09461
572 2 0.6 2.35 13.0763 11.2955 0.804773
573 2 0.6 2.35 12.2439 6.20913 12.1898
574 2 0.6 2.35 3.3706 13.2379 3.33307
575 1 1 2.35 0.243465 11.1283 9.56483
576 2 0.6 2.35 8.06467 3.07963 5.20778
577 2 0.6 2.35 4.19953 3.25153 2.88522
578 1 1 2.35 1.17757 9.81023 4.14635
579 2 0.6 2.35 11.4288 2.41149 0.706786
580 1 1 2.35 2.21705 12.8165 12.5609
581 2 0.6 2.35 1.43405 6.11712 0.426677
582 2 0.6 2.35 3.33318 11.8178 12.9513
583 1 1 2.35 4.24075 6.55444 3.10857
584 2 0.6 2.35 12.7221 7.59067 3.89338
585 1 1 2.35 11.0656 1.02713 13.1807
586 2 0.6 2.35 6.24806 8.34806 5.60136
587 2 0.6 2.35 6.45269 6.74194 8.26382
588 2 0.6 2.35 9.14092 10.0035 5.60827
589 1 1 2.35 12.4553 6.15002 4.10458
590 1 1 2.35 8.67059 1.22439 6.84462
591 1 1 2.35 4.33924 1.49069 6.92682
592 2 0.6 2.35 4.35088 12.2275 3.4447
593 2 0.6 2.35 1.30806 5.2357 1.72669
594 1 1 2.35 9.33924 1.02706 7.56008
595 1 1 2.35 7.9048 2.75189 11.0126
596 2 0.6 2.35 12.5638 5.18473 9.01821
597 1 1 2.35 0.910034 9.473 6.79973
598 2 0.6 2.35 12.3164 13.0189 4.7585
599 2 0.6 2.35 12.3046 4.66972 8.08408
600 2 0.6 2.35 10.5902 2.16109 8.07023
601 2 0.6 2.35 10.7761 3.44143 11.3678
602 1 1 2.35 13.144 10.2916 11.8146
603 2 0.6 2.35 9.60811 7.61003 10.0137
604 1 1 2.35 0.688797 1.51881 8.21633
605 2 0.6 2.35 10.2466 0.804149 10.0749
606 2 0.6 2.35 5.9607 7.84011 10.8414
607 1 1 2.35 1.46745 8.79352 10.8252
608 2 0.6 2.35 6.29643 0.835306 13.4507
609 2 0.6 2.35 4.97004 6.69803 9.51843
610 2 0.6 2.35 5.31937 4.54487 12.6329
611 2 0.6 2.35 12.8081 5.64673 8.5529
612 1 1 2.35 8.52495 8.02788 13.2797
613 2 0.6 2.35 11.8301 9.98042 6.8912
614 1 1 2.35 2.01913 0.823923 4.45319
615 2 0.6 2.35 5.15699 0.735285 8.53596
616 1 1 2.35 8.49343 3.80665 5.45171
617 2 0.6 2.35 7.71401 9.31551 6.63934
618 2 0.6 2.35 1.30288 7.22245 5.04974
619 2 0.6 2.35 10.5571 8.40329 7.94749
620 2 0.6 2.35 10.1648 9.41311 6.19666
621 2 0.6 2.35 8.58865 7.60361 1.79838
622 2 0.6 2.35 0.832324 6.20461 10.3343
623 1 1 2.35 7.79067 1.5208 3.85537
624 2 0.6 2.35 0.658917 4.31049 10.0472
625 2 0.6 2.35 10.0307 9.68161 8.17428
626 2 0.6 2.35 0.388023 4.77043 9.31016
627 2 0.6 2.35 6.68594 11.3587 5.45497
628 2 0.6 2.35 11.2555 5.06467 2.2052
629 2 0.6 2.35 8.20692 7.70704 1.81557
630 1 1 2.35 2.71431 7.18618 7.64019
631 2 0.6 2.35 11.4597 3.20333 0.288929
632 2 0.6 2.35 13.2489 1.67028 11.1515
633 2 0.6 2.35 3.0482 10.6195 5.17466
634 2 0.6 2.35 6.39774 2.43942 1.27016
635 2 0.6 2.35 12.3891 6.07611 9.98625
636 2 0.6 2.35 0.735194 13.3433 12.6707
637 2 0.6 2.35 4.62044 1.6975 1.78889
638 1 1 2.35 12.2426 3.51483 4.94069
639 2 0.6 2.35 8.62605 1.80008 2.0348
640 2 0.6 2.35 2.99026 11.8309 3.85436
641 2 0.6 2.35 1.56533 5.59692 11.6601
642 2 0.6 2.35 1.53694 11.0153 5.51536
643 2 0.6 2.35 9.50524 10.8202 5.55141
644 2 0.6 2.35 0.983116 8.52813 12.9671
645 1 1 2.35 7.13322 10.2684 3.10913
646 2 0.6 2.35 12.6224 9.41566 13.0225
647 1 1 2.35 7.58957 2.39541 12.5661
648 2 0.6 2.35 1.55246 13.1017 0.0823011
649 2 0.6 2.35 2.95834 11.3897 9.13348
650 2 0.6 2.35 4.32777 13.3875 6.4039
651 2 0.6 2.35 11.5951 1.00839 8.62352
652 2 0.6 2.35 12.3612 0.481906 8.16002
653 2 0.6 2.35 0.332967 8.21065 13.4989
654 1 1 2.35 2.75872 7.88641 3.04252
655 2 0.6 2.35 4.6809 9.33218 12.7084
656 2 0.6 2.35 5.17683 12.9204 8.51798
657 2 0.6 2.35 3.16951 13.4822 8.53131
658 2 0.6 2.35 1.46685 0.810787 12.3573
659 2 0.6 2.35 12.4458 1.01762 1.42069
660 2 0.6 2.35 6.06423 8.36732 2.09233
661 1 1 2.35 12.1773 7.30297 4.32564
662 2 0.6 2.35 11.1591 10.4094 4.53466
663 2 0.6 2.35 9.54992 0.567561 3.35072
664 1 1 2.35 9.9721 12.7148 0.939386
665 2 0.6 2.35 5.49553 11.8664 1.48728
666 2 0.6 2.35 2.61387 3.37122 8.05608
667 2 0.6 2.35 2.62351 2.72507 4.18146
668 2 0.6 2.35 0.200814 11.8543 11.2632
669 2 0.6 2.35 12.7715 8.63825 4.48102
670 1 1 2.35 10.6045 7.29239 9.25532
671 2 0.6 2.35 0.402761 10.3959 8.01281
672 1 1 2.35 12.7646 12.6335 10.0698
673 2 0.6 2.35 1.493 12.1794 4.90487
674 2 0.6 2.35 13.4982 10.0112 9.44375
675 2 0.6 2.35 7.20701 12.8415 9.91562
676 1 1 2.35 13.0002 4.05757 10.6707
677 2 0.6 2.35 0.407741 0.802274 2.32247
678 2 0.6 2.35 12.1774 2.22073 4.21248
679 1 1 2.35 10.062 9.14585 11.6737
680 2 0.6 2.35 10.7666 4.19058 11.9161
681 1 1 2.35 7.33437 1.73889 4.29574
682 1 1 2.35 0.880125 11.2896 12.1694
683 2 0.6 2.35 1.04317 3.16368 0.532809
684 2 0.6 2.35 10.9274 8.31694 8.4856
685 2 0.6 2.35 13.3409 5.71079 3.55333
686 2 0.6 2.35 0.398296 4.68193 2.9679
687 1 1 2.35 8.76026 9.91849 12.6665
688 2 0.6 2.35 3.58673 0.414686 6.25133
689 2 0.6 2.35 3.93392 2.88673 3.07049
690 2 0.6 2.35 4.78423 3.33808 7.33544
691 2 0.6 2.35 12.7676 0.909085 5.77595
692 1 1 2.35 10.6432 0.777116 6.01903
693 2 0.6 2.35 3.7314 3.54047 10.3517
694 2 0.6 2.35 10.5431 6.75119 12.042
695 1 1 2.35 6.65728 7.50824 13.2438
696 2 0.6 2.35 7.76259 8.03391 5.28712
697 2 0.6 2.35 8.02514 5.36802 6.3074
698 2 0.6 2.35 4.70931 7.88832 2.58241
699 2 0.6 2.35 12.0792 11.0743 10.527
700 1 1 2.35 2.72686 5.73361 8.94874
701 2 0.6 2.35 12.903 7.25304 4.12406
702 2 0.6 2.35 5.95011 8.56554 7.78866
703 2 0.6 2.35 2.7291 1.23862 7.66419
704 2 0.6 2.35 0.244144 11.9379 1.73015
705 2 0.6 2.35 0.785326 13.4116 5.96697
706 2 0.6 2.35 11.3784 13.084 2.01988
707 2 0.6 2.35 6.30014 4.70379 0.224106
708 1 1 2.35 9.5068 7.26091 5.9667
709 2 0.6 2.35 9.13761 7.0683 9.31989
710 2 0.6 2.35 10.5626 13.0184 6.06433
711 2 0.6 2.35 6.86788 6.83256 4.90317
712 1 1 2.35 12.3068 7.56632 11.9082
713 2 0.6 2.35 13.414 6.34799 4.64857
714 1 1 2.35 4.89115 10.1258 13.5582
715 2 0.6 2.35 12.2231 3.83875 3.04814
716 1 1 2.35 12.4616 2.27791 2.61192
717 2 0.6 2.35 10.9653 9.09142 5.06396
718 2 0.6 2.35 3.25432 11.2539 2.76709
719 2 0.6 2.35 4.00325 1.39156 13.319
720 2 0.6 2.35 0.613805 6.06541 12.6037
721 2 0.6 2.35 10.9733 6.4544 9.65862
722 1 1 2.35 9.29189 4.22711 11.9167
723 2 0.6 2.35 5.50887 9.58182 10.5099
724 2 0.6 2.35 6.50234 5.39667 5.33491
725 2 0.6 2.35 7.75645 2.79216 4.41778
726 2 0.6 2.35 10.5078 6.51352 4.38793
727 1 1 2.35 4.08972 6.75937 6.78894
728 1 1 2.35 8.69861 8.97989 5.01567
729 1 1 2.35 2.40982 11.3143 8.49169
730 1 1 2.35 4.11313 10.5895 4.98447
731 2 0.6 2.35 10.5457 11.1468 11.1895
732 1 1 2.35 3.07839 10.9468 3.8412
733 2 0.6 2.35 0.700745 1.23078 1.03939
734 2 0.6 2.35 11.7608 2.36141 12.5584
735 2 0.6 2.35 1.33663 5.93445 8.88433
736 1 1 2.35 0.947799 12.3991 9.59935
737 2 0.6 2.35 13.2505 8.29241 5.43616
738 2 0.6 2.35 12.8142 8.25378 11.1938
739 2 0.6 2.35 10.0078 11.2075 1.55236
740 2 0.6 2.35 10.9748 12.9029 6.71499
741 2 0.6 2.35 2.92636 0.646934 0.692051
742 1 1 2.35 8.0698 12.299 12.5469
743 2 0.6 2.35 1.47389 3.49036 4.91158
744 2 0.6 2.35 11.0165 8.36163 0.874827
745 2 0.6 2.35 5.85603 9.03359 12.5511
746 1 1 2.35 12.2641 10.7772 9.66266
747 2 0.6 2.35 9.18295 8.59026 12.4589
748 2 0.6 2.35 3.73796 11.8651 4.73848
749 2 0.6 2.35 7.96074 10.5288 4.40008
750 2 0.6 2.35 12.9134 0.537472 6.50743
751 2 0.6 2.35 0.298802 3.66501 10.713
752 2 0.6 2.35 5.24916 9.8485 3.70025
753 2 0.6 2.35 13.0058 0.493858 13.3242
754 2 0.6 2.35 12.1403 6.73116 8.01697
755 2 0.6 2.35 0.509343 11.4512 4.96757
756 2 0.6 2.35 1.42361 12.9748 13.0332
757 2 0.6 2.35 0.672959 12.1378 1.22601
758 2 0.6 2.35 3.73369 9.19844 11.0776
759 2 0.6 2.35 5.04864 5.13655 11.9614
760 1 1 2.35 9.5613 12.3082 9.88568
761 2 0.6 2.35 5.80739 7.92461 10.2117
762 2 0.6 2.35 4.97333 8.89367 6.61728
763 1 1 2.35 0.183889 6.09003 10.8607
764 2 0.6 2.35 6.82325 3.79443 11.5965
765 2 0.6 2.35 1.88423 6.33076 2.09447
766 2 0.6 2.35 0.691809 10.676 8.45579
767 2 0.6 2.35 11.7932 10.3584 13.3187
768 2 0.6 2.35 1.25838 3.73608 4.03091
769 2 0.6 2.35 1.45138 2.46136 9.75025
770 2 0.6 2.35 8.85654 3.93853 12.4962
771 2 0.6 2.35 9.5538 0.140915 6.20731
772 2 0.6 2.35 1.43048 7.87388 8.18457
773 1 1 2.35 0.276145 2.42758 4.28754
774 2 0.6 2.35 10.096 12.6492 7.99916
775 2 0.6 2.35 2.1209 1.84227 9.29438
776 2 0.6 2.35 12.308 7.61224 6.41627