LAMMPS Description

50 atoms

1 atom types
0 3.968503 xlo xhi
0 3.968503 ylo yhi
0 3.968503 zlo zhi


Atoms # sphere

1 1 1 2.35 3.20569 0.358471 0.084998
2 1 1 2.35 2.16712 2.81276 0.378472
3 1 1 2.35 2.532 1.25379 0.623072
4 1 1 2.35 1.74779 2.91333 3.94443
5 1 1 2.35 0.725845 2.82691 1.84404
6 1 1 2.35 1.32018 0.829934 3.45579
7 1 1 2.35 0.529574 1.26184 1.78227
8 1 1 2.35 3.57581 3.04763 3.44977
9 1 1 2.35 1.76851 3.75097 3.11112
10 1 1 2.35 0.27914 1.67021 1.36529
11 1 1 2.35 2.02595 1.13656 0.050722
12 1 1 2.35 3.02851 0.401824 2.56249
13 1 1 2.35 0.377658 0.564784 1.44016
14 1 1 2.35 0.322318 1.98292 2.37826
15 1 1 2.35 1.13638 1.96443 3.42555
16 1 1 2.35 0.162483 3.63722 1.00774
17 1 1 2.35 0.757495 1.41012 0.582831
18 1 1 2.35 1.00842 1.76191 1.0769
19 1 1 2.35 2.58913 1.42987 0.456323
20 1 1 2.35 2.08468 2.89875 2.25805
21 1 1 2.35 0.179683 0.869926 0.908287
22 1 1 2.35 0.874495 2.91597 3.59609
23 1 1 2.35 0.691695 2.9199 3.32542
24 1 1 2.35 1.8622 0.788123 3.42627
25 1 1 2.35 0.0523624 3.49582 1.14449
26 1 1 2.35 0.419033 0.467605 3.76689
27 1 1 2.35 2.13927 1.13161 2.09098
28 1 1 2.35 2.04234 3.29573 3.53647
29 1 1 2.35 2.58937 1.98286 1.28365
30 1 1 2.35 2.35113 3.4504 1.6729
31 1 1 2.35 2.54774 3.61579 2.61511
32 1 1 2.35 3.17166 3.28827 2.81192
33 1 1 2.35 2.15775 3.49275 3.03155
34 1 1 2.35 0.256173 3.25448 2.87925
35 1 1 2.35 2.95403 1.48658 2.64652
36 1 1 2.35 2.42372 0.635269 0.810003
37 1 1 2.35 1.02433 3.91742 3.78172
38 1 1 2.35 1.42782 2.41228 3.64112
39 1 1 2.35 3.7042 1.50324 1.73801
40 1 1 2.35 3.41409 0.671582 0.267986
41 1 1 2.35 0.0179724 3.06276 2.7447
42 1 1 2.35 2.36692 0.230872 1.41195
43 1 1 2.35 0.472668 3.24741 1.4535
44 1 1 2.35 0.330984 2.83282 1.7292
45 1 1 2.35 0.147923 3.88373 0.987666
46 1 1 2.35 0.153619 1.01261 2.80986
47 1 1 2.35 2.28581 3.01918 3.95762
48 1 1 2.35 0.512496 0.546136 3.92402
49 1 1 2.35 0.307337 3.1424 0.569644
50 1 1 2.35 2.67798 2.60946 3.65935
