ITEM: TIMESTEP
590000
ITEM: NUMBER OF ATOMS
50
ITEM: BOX BOUNDS xy xz yz pp pp pp
0.0000000000000000e+00 3.9685030000000001e+00 0.0000000000000000e+00
0.0000000000000000e+00 3.9685030000000001e+00 0.0000000000000000e+00
0.0000000000000000e+00 3.9685030000000001e+00 0.0000000000000000e+00
ITEM: ATOMS id x y z radius
1 2.46698 1.38175 3.29863 0.5
2 0.750632 2.02926 3.74366 0.5
3 0.888253 3.2736 0.465025 0.5
4 1.73914 3.9144 2.87868 0.5
5 0.881072 1.02827 2.1809 0.5
6 2.03736 3.35609 1.25435 0.5
7 3.35091 2.07287 1.49048 0.5
8 0.944963 3.92912 1.02284 0.5
9 2.3759 0.147353 3.57829 0.5
10 2.30388 1.25213 2.53736 0.5
11 0.837022 0.136114 0.123901 0.5
12 3.59225 3.86015 1.55094 0.5
13 3.13231 0.308495 3.70614 0.5
14 2.62263 0.925337 2.65472 0.5
15 3.15167 2.95856 1.73672 0.5
16 2.80824 3.48821 0.574517 0.5
17 2.39567 3.66117 2.19308 0.5
18 2.77393 3.28125 1.21246 0.5
19 3.1646 1.00126 2.02408 0.5
20 2.44879 3.00674 2.35145 0.5
21 1.50395 2.90971 1.97564 0.5
22 1.63841 3.31196 2.82068 0.5
23 0.709156 3.09748 2.15864 0.5
24 2.13522 0.744216 1.97188 0.5
25 3.9265 1.27103 1.83733 0.5
26 1.26919 0.0227033 1.49878 0.5
27 0.431804 2.46519 1.77728 0.5
28 1.37862 1.75053 2.46638 0.5
29 2.62003 1.44704 1.59861 0.5
30 0.50704 1.14176 1.61543 0.5
31 2.1919 1.66783 0.521366 0.5
32 1.41086 2.65695 1.50041 0.5
33 2.33246 1.04297 0.830634 0.5
34 0.242903 0.15529 2.0255 0.5
35 3.85513 1.49839 2.39573 0.5
36 0.178457 0.440454 1.08379 0.5
37 3.96043 0.176753 3.51015 0.5
38 0.754189 1.84837 1.60936 0.5
39 3.55456 0.881582 3.28188 0.5
40 3.34878 0.748308 1.21841 0.5
41 2.63353 2.68654 0.645459 0.5
42 1.3559 3.28392 0.336365 0.5
43 1.8917 0.629917 3.64289 0.5
44 0.126303 0.756837 3.28732 0.5
45 0.655872 1.53876 3.8663 0.5
46 2.55166 2.49834 3.7182 0.5
47 3.06911 0.465715 1.58245 0.5
48 0.578886 3.0515 3.32583 0.5
49 3.45202 0.20276 0.412601 0.5
50 1.78172 1.81825 0.469936 0.5
