ITEM: TIMESTEP
490000
ITEM: NUMBER OF ATOMS
50
ITEM: BOX BOUNDS xy xz yz pp pp pp
0.0000000000000000e+00 3.9685030000000001e+00 0.0000000000000000e+00
0.0000000000000000e+00 3.9685030000000001e+00 0.0000000000000000e+00
0.0000000000000000e+00 3.9685030000000001e+00 0.0000000000000000e+00
ITEM: ATOMS id x y z radius
1 1.83631 0.52062 1.94382 0.5
2 2.49152 3.70109 3.02833 0.5
3 2.86531 3.61262 0.490292 0.5
4 1.23772 0.561513 0.0928434 0.5
5 3.79109 2.27319 2.20485 0.5
6 0.86164 2.56884 1.65071 0.5
7 3.00681 1.82503 0.92658 0.5
8 0.110241 0.597669 1.92025 0.5
9 3.30122 3.69196 3.77753 0.5
10 3.87124 3.41695 1.38021 0.5
11 3.31653 1.81968 0.24748 0.5
12 0.0330732 2.16759 2.88715 0.5
13 3.54571 2.63778 0.973227 0.5
14 2.49655 3.04453 0.751813 0.5
15 0.90417 0.202699 1.9771 0.5
16 0.745983 0.0121534 3.65718 0.5
17 1.99853 0.771012 0.905604 0.5
18 1.42954 2.64657 0.873502 0.5
19 0.0092762 3.70073 1.22168 0.5
20 1.32207 2.4763 2.12599 0.5
21 2.08663 1.13715 3.524 0.5
22 3.10262 3.75075 3.53792 0.5
23 0.32461 0.716347 2.59889 0.5
24 2.96128 1.34421 0.230742 0.5
25 2.2143 1.07556 0.565109 0.5
26 0.198523 3.34512 2.14426 0.5
27 0.107735 3.55119 2.74587 0.5
28 0.545642 3.281 1.498 0.5
29 0.791096 0.198888 0.229881 0.5
30 2.32668 2.28582 1.1159 0.5
31 0.754959 2.86566 2.10656 0.5
32 1.792 2.38051 3.01644 0.5
33 2.11433 2.2171 3.5098 0.5
34 0.794995 0.777643 1.43505 0.5
35 3.29239 2.1798 3.32888 0.5
36 2.64838 2.85135 2.74783 0.5
37 0.64245 2.68641 0.199635 0.5
38 3.06232 1.2582 1.70795 0.5
39 2.19294 0.491055 2.89989 0.5
40 2.05981 1.61889 2.19172 0.5
41 3.92018 2.06013 0.770358 0.5
42 3.85539 2.53136 3.86526 0.5
43 2.98365 0.296181 1.83091 0.5
44 2.76944 1.1589 2.84807 0.5
45 0.52266 2.40646 2.93747 0.5
46 1.09916 1.05537 2.79702 0.5
47 0.854747 3.63984 2.21347 0.5
48 0.154832 1.03297 0.328588 0.5
49 3.94198 2.03441 3.94815 0.5
50 3.45375 0.683365 3.65365 0.5
