ITEM: TIMESTEP
940000
ITEM: NUMBER OF ATOMS
50
ITEM: BOX BOUNDS xy xz yz pp pp pp
0.0000000000000000e+00 3.9685030000000001e+00 0.0000000000000000e+00
0.0000000000000000e+00 3.9685030000000001e+00 0.0000000000000000e+00
0.0000000000000000e+00 3.9685030000000001e+00 0.0000000000000000e+00
ITEM: ATOMS id x y z radius
1 0.359658 1.42071 3.67521 0.5
2 0.996748 2.4568 1.19452 0.5
3 2.02618 2.43774 0.285096 0.5
4 2.97678 1.96184 0.56892 0.5
5 0.494281 0.0632941 0.184595 0.5
6 2.43815 2.65126 0.842106 0.5
7 0.74145 1.37761 2.44676 0.5
8 2.49692 2.41335 2.92581 0.5
9 0.865641 1.43178 0.0451146 0.5
10 1.31748 1.8994 3.13413 0.5
11 2.70507 1.10684 0.404512 0.5
12 2.72207 2.27822 1.02541 0.5
13 2.66908 0.372557 1.15023 0.5
14 3.76119 3.61077 3.42588 0.5
15 2.18435 0.820523 3.01326 0.5
16 1.74787 1.14051 1.3784 0.5
17 3.67575 1.498 1.79961 0.5
18 3.86345 3.10729 2.28256 0.5
19 0.345702 2.00039 2.42663 0.5
20 1.03418 1.76079 2.87146 0.5
21 1.55996 0.0304435 1.187 0.5
22 2.42525 3.86995 2.69117 0.5
23 2.97188 2.15861 2.88212 0.5
24 2.9654 3.45494 0.410106 0.5
25 1.69503 3.05953 2.90412 0.5
26 0.66392 3.91775 0.770587 0.5
27 2.83888 2.55193 0.0284048 0.5
28 2.13826 0.485258 3.7452 0.5
29 3.29635 0.75005 -0.0386715 0.5
30 1.1995 0.737436 2.56492 0.5
31 3.56611 1.56704 3.19674 0.5
32 1.30969 0.999997 0.732227 0.5
33 3.51189 3.54827 1.98908 0.5
34 1.64988 2.64718 2.9883 0.5
35 3.55437 0.056332 0.470747 0.5
36 1.37811 3.93928 2.66289 0.5
37 1.81144 1.18023 0.674018 0.5
38 3.19634 0.373331 1.54428 0.5
39 3.03621 0.128721 1.16417 0.5
40 3.6945 2.26516 1.64813 0.5
41 1.95927 1.34313 3.23313 0.5
42 0.928822 2.02602 0.561249 0.5
43 2.58281 2.84883 3.13097 0.5
44 0.716172 2.8012 1.24159 0.5
45 1.96567 3.34691 2.12169 0.5
46 3.64263 3.22815 1.40482 0.5
47 0.198977 1.02633 1.13618 0.5
48 2.25376 0.0578017 2.36499 0.5
49 1.06491 0.462791 1.66156 0.5
50 1.48299 0.550919 1.50594 0.5
