ITEM: TIMESTEP
500000
ITEM: NUMBER OF ATOMS
50
ITEM: BOX BOUNDS xy xz yz pp pp pp
0.0000000000000000e+00 3.9685030000000001e+00 0.0000000000000000e+00
0.0000000000000000e+00 3.9685030000000001e+00 0.0000000000000000e+00
0.0000000000000000e+00 3.9685030000000001e+00 0.0000000000000000e+00
ITEM: ATOMS id x y z radius
1 1.88015 1.91662 2.44096 0.5
2 1.51873 3.33878 1.81851 0.5
3 2.38172 3.08497 2.86846 0.5
4 1.4198 2.20968 0.13006 0.5
5 2.42864 3.39849 3.71287 0.5
6 1.13601 3.85546 1.44174 0.5
7 3.50345 3.702 2.04462 0.5
8 0.349199 3.0509 3.83791 0.5
9 3.76562 1.01641 3.40122 0.5
10 3.51444 3.35183 2.22956 0.5
11 0.864416 0.62576 3.2795 0.5
12 1.9086 0.827255 2.4203 0.5
13 3.13983 0.580134 0.661115 0.5
14 0.306649 0.122414 3.02106 0.5
15 1.83056 2.50474 3.57878 0.5
16 0.400693 1.33874 2.37171 0.5
17 3.41542 0.186615 3.70829 0.5
18 3.01127 0.2651 3.06553 0.5
19 0.953434 1.81129 2.2595 0.5
20 0.277101 2.30399 3.90301 0.5
21 0.36486 1.63534 0.574931 0.5
22 0.0911041 3.4359 3.77819 0.5
23 1.92253 2.16215 0.357336 0.5
24 2.05351 0.401215 2.29088 0.5
25 2.33005 3.55556 2.48404 0.5
26 1.60158 3.54635 3.46524 0.5
27 3.01194 1.34625 2.33155 0.5
28 1.07516 3.39008 3.0752 0.5
29 2.73088 0.851578 1.27892 0.5
30 1.43932 2.90571 2.68541 0.5
31 0.666744 1.61271 3.52002 0.5
32 3.60697 1.17849 0.469605 0.5
33 3.83669 3.60168 0.201208 0.5
34 3.23523 0.143829 1.41565 0.5
35 1.93748 2.04696 3.21471 0.5
36 2.83287 2.49849 4.0107 0.5
37 1.03249 3.12501 2.1078 0.5
38 0.376138 0.0058906 1.89598 0.5
39 1.44786 3.66625 1.30679 0.5
40 0.493473 2.69951 3.07724 0.5
41 0.877591 1.34181 1.38323 0.5
42 2.48847 2.69478 2.08192 0.5
43 3.11696 2.92208 2.73841 0.5
44 2.28183 3.49616 1.82875 0.5
45 2.20366 1.74588 3.60154 0.5
46 2.84795 1.87301 3.21045 0.5
47 3.68654 1.98022 1.71846 0.5
48 3.56868 1.01423 3.71669 0.5
49 2.01561 2.18814 1.18493 0.5
50 3.53259 0.572297 2.20545 0.5
