ITEM: TIMESTEP
830000
ITEM: NUMBER OF ATOMS
50
ITEM: BOX BOUNDS xy xz yz pp pp pp
0.0000000000000000e+00 3.9685030000000001e+00 0.0000000000000000e+00
0.0000000000000000e+00 3.9685030000000001e+00 0.0000000000000000e+00
0.0000000000000000e+00 3.9685030000000001e+00 0.0000000000000000e+00
ITEM: ATOMS id x y z radius
1 3.37601 2.57082 1.70613 0.5
2 3.81565 0.676002 0.257583 0.5
3 2.82309 1.98988 3.73836 0.5
4 3.30406 1.89782 2.51959 0.5
5 0.320071 2.67315 2.51744 0.5
6 3.73799 1.36615 0.45705 0.5
7 2.51038 0.945774 0.088804 0.5
8 2.61462 3.25755 0.555507 0.5
9 2.25062 3.10051 0.550809 0.5
10 0.0850371 3.25175 1.41319 0.5
11 3.08229 3.88267 1.60669 0.5
12 0.571707 1.30217 0.216398 0.5
13 0.586406 2.06394 0.173718 0.5
14 2.70746 1.47158 2.67591 0.5
15 0.0880347 0.339724 3.06358 0.5
16 3.84028 3.94526 1.75405 0.5
17 3.66529 1.83099 1.80327 0.5
18 3.69071 3.70756 0.152488 0.5
19 3.29895 0.19483 2.7498 0.5
20 2.98755 3.36653 3.52378 0.5
21 1.11863 3.62344 3.83596 0.5
22 1.66185 1.11967 0.364602 0.5
23 1.39475 1.84303 3.51176 0.5
24 3.63395 2.43528 1.39875 0.5
25 0.880043 1.66763 2.85308 0.5
26 2.95485 2.90251 1.32235 0.5
27 2.44052 2.62257 2.12087 0.5
28 0.066015 1.45417 3.02397 0.5
29 3.19637 1.4077 3.47759 0.5
30 2.02746 1.67291 1.99708 0.5
31 2.08205 2.7127 0.636138 0.5
32 1.11395 0.644841 1.94777 0.5
33 1.83672 0.590299 1.51376 0.5
34 1.6399 2.90415 1.42202 0.5
35 3.06169 3.57663 0.725678 0.5
36 3.82209 0.265455 2.30693 0.5
37 3.64146 0.543501 1.05639 0.5
38 0.0924597 3.28735 0.106184 0.5
39 0.142554 2.12837 3.59699 0.5
40 0.173874 1.23566 1.13546 0.5
41 2.48622 0.115658 2.44921 0.5
42 0.981344 3.0138 2.56843 0.5
43 0.552956 2.24818 0.573054 0.5
44 0.0972724 0.0455045 0.722353 0.5
45 1.99241 2.5375 3.48749 0.5
46 2.27656 2.97054 1.42725 0.5
47 2.41108 1.73103 0.623736 0.5
48 1.67906 0.490006 2.75255 0.5
49 1.35412 3.62581 1.08404 0.5
50 0.544101 3.87817 2.09235 0.5
