ITEM: TIMESTEP
610000
ITEM: NUMBER OF ATOMS
50
ITEM: BOX BOUNDS xy xz yz pp pp pp
0.0000000000000000e+00 3.9685030000000001e+00 0.0000000000000000e+00
0.0000000000000000e+00 3.9685030000000001e+00 0.0000000000000000e+00
0.0000000000000000e+00 3.9685030000000001e+00 0.0000000000000000e+00
ITEM: ATOMS id x y z radius
1 0.0453416 0.948844 2.41969 0.5
2 1.51445 1.22542 1.08713 0.5
3 0.695149 2.09749 0.858011 0.5
4 0.345876 3.61874 1.82381 0.5
5 0.953362 2.30626 3.34063 0.5
6 3.80018 3.01457 3.76575 0.5
7 3.88753 0.754371 1.81963 0.5
8 1.39195 1.22974 1.97054 0.5
9 2.06813 1.46996 3.55816 0.5
10 0.815485 3.35871 -0.00561696 0.5
11 0.550711 3.42887 3.29292 0.5
12 0.505519 3.23608 2.95684 0.5
13 0.648839 0.0263674 2.75671 0.5
14 1.92381 3.03667 0.453342 0.5
15 3.61822 0.925477 1.60085 0.5
16 1.46301 0.202832 3.64002 0.5
17 2.61137 2.01067 2.80507 0.5
18 3.78343 0.855172 0.57821 0.5
19 3.72826 2.84256 0.940023 0.5
20 1.75503 1.40285 0.120364 0.5
21 3.55497 3.52829 3.02374 0.5
22 0.873128 3.03465 3.66169 0.5
23 0.434423 0.242127 1.68413 0.5
24 1.52626 0.647883 2.82774 0.5
25 1.02291 1.08382 0.58843 0.5
26 0.29668 0.42847 0.14301 0.5
27 2.03214 2.76382 2.23624 0.5
28 0.234116 2.90155 1.72074 0.5
29 2.12026 1.15262 2.07584 0.5
30 3.78585 3.5462 1.22007 0.5
31 1.83568 3.65434 0.940715 0.5
32 0.609328 1.20592 2.84477 0.5
33 3.05108 2.68561 0.398016 0.5
34 1.92925 0.260506 0.997817 0.5
35 3.01797 1.32257 2.39228 0.5
36 0.51533 1.71897 1.53914 0.5
37 2.95115 0.438165 3.15229 0.5
38 1.51928 3.63382 1.43081 0.5
39 3.15434 0.360853 0.5343 0.5
40 1.50464 3.16617 0.115775 0.5
41 1.35479 3.58675 2.92522 0.5
42 1.09246 3.328 0.977199 0.5
43 2.20992 2.19863 0.721576 0.5
44 1.37556 0.200081 3.3751 0.5
45 2.27518 3.75802 0.130942 0.5
46 2.45125 0.384573 3.92254 0.5
47 3.4424 2.15087 2.24507 0.5
48 0.158591 2.48024 2.3482 0.5
49 1.12806 1.31301 3.41374 0.5
50 1.24431 0.0235419 2.22571 0.5
