ITEM: TIMESTEP
530000
ITEM: NUMBER OF ATOMS
50
ITEM: BOX BOUNDS xy xz yz pp pp pp
0.0000000000000000e+00 3.9685030000000001e+00 0.0000000000000000e+00
0.0000000000000000e+00 3.9685030000000001e+00 0.0000000000000000e+00
0.0000000000000000e+00 3.9685030000000001e+00 0.0000000000000000e+00
ITEM: ATOMS id x y z radius
1 1.0795 0.324625 0.551718 0.5
2 2.94089 1.35376 2.81495 0.5
3 2.60908 3.32683 0.932588 0.5
4 3.57974 3.42157 2.22241 0.5
5 1.61098 0.670941 0.289936 0.5
6 1.57232 1.98549 2.89208 0.5
7 0.526867 1.81682 0.934216 0.5
8 2.29689 3.84001 0.437022 0.5
9 0.0556211 1.1627 2.12104 0.5
10 1.32606 3.20924 3.3292 0.5
11 2.2103 0.746998 3.67427 0.5
12 1.37191 3.51848 2.19615 0.5
13 2.42564 1.96031 3.9085 0.5
14 1.49315 0.715454 1.71824 0.5
15 2.24962 2.85725 3.50608 0.5
16 2.519 0.652716 2.55609 0.5
17 3.83965 1.5642 2.62898 0.5
18 2.90813 0.200729 3.71356 0.5
19 2.36647 3.79809 3.54927 0.5
20 0.254045 3.21672 0.399814 0.5
21 0.432924 1.58402 0.210926 0.5
22 3.31173 0.978087 3.37548 0.5
23 3.93783 0.514843 2.33298 0.5
24 1.10309 1.602 0.33789 0.5
25 3.5423 1.38295 2.13658 0.5
26 2.5595 3.44623 0.404293 0.5
27 1.30207 2.36908 1.79517 0.5
28 1.9317 0.349486 1.22009 0.5
29 1.41619 1.93796 2.12359 0.5
30 3.08337 2.92121 0.70719 0.5
31 1.24392 1.80958 1.46562 0.5
32 0.961564 1.17102 1.31795 0.5
33 2.17211 1.96879 1.12733 0.5
34 3.23589 2.94696 1.72807 0.5
35 0.616842 2.56634 2.32226 0.5
36 0.470881 3.73295 3.00822 0.5
37 3.30271 3.98337 1.76916 0.5
38 2.51927 2.68117 2.36823 0.5
39 3.15597 1.35623 1.07364 0.5
40 1.27027 0.598512 0.562255 0.5
41 2.07137 3.0304 2.99105 0.5
42 3.45816 3.39552 3.25399 0.5
43 3.68921 1.96962 2.93004 0.5
44 1.02547 2.3807 0.0666562 0.5
45 2.52271 3.43347 1.90029 0.5
46 1.47381 0.143422 2.27245 0.5
47 0.0642834 0.474089 1.3916 0.5
48 3.9394 3.0503 3.29239 0.5
49 3.94856 1.80253 1.22119 0.5
50 1.68206 3.20493 0.512213 0.5
