ITEM: TIMESTEP
160000
ITEM: NUMBER OF ATOMS
50
ITEM: BOX BOUNDS xy xz yz pp pp pp
0.0000000000000000e+00 3.9685030000000001e+00 0.0000000000000000e+00
0.0000000000000000e+00 3.9685030000000001e+00 0.0000000000000000e+00
0.0000000000000000e+00 3.9685030000000001e+00 0.0000000000000000e+00
ITEM: ATOMS id x y z radius
1 2.18306 1.92358 0.82852 0.5
2 1.82992 3.49639 3.26554 0.5
3 3.27833 2.97625 2.03958 0.5
4 1.45967 2.58314 1.40515 0.5
5 1.80767 3.11142 0.482664 0.5
6 3.74491 2.38337 1.09805 0.5
7 3.47095 2.96385 3.03186 0.5
8 0.757805 3.59485 1.27403 0.5
9 3.7741 0.266775 1.38839 0.5
10 0.996045 3.24711 1.49075 0.5
11 2.05616 2.502 2.02914 0.5
12 0.275121 1.58794 2.09757 0.5
13 0.205573 2.77956 0.925775 0.5
14 2.11148 3.86324 0.378139 0.5
15 0.449163 3.42696 3.66338 0.5
16 0.637442 1.16408 0.485212 0.5
17 2.75018 0.838657 0.651985 0.5
18 3.28928 0.040661 2.26703 0.5
19 3.70806 1.52606 2.96966 0.5
20 3.39747 2.62545 3.2991 0.5
21 2.34297 1.56765 3.9506 0.5
22 2.23936 2.18004 2.79737 0.5
23 1.50476 2.49729 2.47437 0.5
24 0.198125 3.45449 3.13201 0.5
25 0.23179 0.860302 0.872441 0.5
26 2.8115 0.607068 2.74396 0.5
27 1.3721 2.78752 3.69475 0.5
28 0.403324 2.89643 2.86061 0.5
29 3.66757 2.04917 0.450384 0.5
30 1.71674 1.48179 1.49437 0.5
31 1.31386 1.52828 0.707135 0.5
32 2.01239 2.37212 3.65636 0.5
33 3.13594 1.05431 2.2211 0.5
34 2.49355 3.08942 2.70404 0.5
35 2.42387 3.77539 0.102122 0.5
36 1.15959 0.187718 2.96355 0.5
37 0.905522 0.0988862 1.65061 0.5
38 0.431537 1.32287 1.01395 0.5
39 2.71218 1.83959 1.32817 0.5
40 0.454157 2.02855 2.20769 0.5
41 2.28649 1.20379 1.67607 0.5
42 0.499449 0.459479 2.35914 0.5
43 3.20426 2.0061 0.0337665 0.5
44 3.0459 3.18862 0.35087 0.5
45 1.16128 0.679285 3.26814 0.5
46 0.823922 2.47373 1.77895 0.5
47 0.125348 2.92741 3.46734 0.5
48 3.59564 3.72053 2.15142 0.5
49 1.05797 3.72532 2.34455 0.5
50 1.26197 2.13273 0.0675901 0.5
