ITEM: TIMESTEP
550000
ITEM: NUMBER OF ATOMS
50
ITEM: BOX BOUNDS xy xz yz pp pp pp
0.0000000000000000e+00 3.9685030000000001e+00 0.0000000000000000e+00
0.0000000000000000e+00 3.9685030000000001e+00 0.0000000000000000e+00
0.0000000000000000e+00 3.9685030000000001e+00 0.0000000000000000e+00
ITEM: ATOMS id x y z radius
1 1.61714 1.39401 3.89755 0.5
2 3.47828 3.13637 3.66739 0.5
3 0.0338129 0.531582 3.98258 0.5
4 2.88062 1.23466 1.99189 0.5
5 0.808003 0.0343278 1.37282 0.5
6 1.61391 1.46765 2.76224 0.5
7 3.41528 3.01138 0.892623 0.5
8 3.54294 0.458176 3.6363 0.5
9 1.17779 2.92223 1.68634 0.5
10 2.60765 2.0257 1.60374 0.5
11 0.939682 -0.0366322 3.59051 0.5
12 0.155799 2.60698 2.14239 0.5
13 3.28776 3.77391 3.06872 0.5
14 2.13739 2.29882 2.06716 0.5
15 3.78276 3.9699 1.9221 0.5
16 1.84056 3.57869 1.89358 0.5
17 2.66862 2.13435 2.69556 0.5
18 2.23228 2.47591 3.37239 0.5
19 3.0222 2.70676 3.22561 0.5
20 0.146882 3.32022 2.24775 0.5
21 0.506142 1.0149 3.50041 0.5
22 1.19056 2.2593 2.02961 0.5
23 1.52915 0.629697 0.206168 0.5
24 3.81259 0.724531 1.20304 0.5
25 3.44891 0.796782 2.09323 0.5
26 0.600339 1.97385 1.35604 0.5
27 2.57653 0.0766458 3.23925 0.5
28 1.57483 0.0332345 0.773479 0.5
29 2.09904 2.1633 0.345889 0.5
30 2.81268 1.16027 1.28428 0.5
31 2.89731 2.45405 0.542482 0.5
32 0.616829 3.39573 1.69861 0.5
33 1.40444 1.05038 0.895221 0.5
34 1.30466 2.32048 0.46207 0.5
35 3.99649 0.348899 2.94329 0.5
36 3.52253 2.24184 2.19634 0.5
37 2.04899 3.03342 2.81844 0.5
38 0.643712 2.43425 3.29773 0.5
39 3.58152 1.45934 3.27606 0.5
40 1.47821 0.505805 2.3069 0.5
41 2.52627 0.39748 2.44431 0.5
42 2.64103 0.385567 0.502434 0.5
43 2.56282 0.780122 3.34106 0.5
44 1.24688 3.07442 3.21709 0.5
45 3.24695 1.91253 2.93806 0.5
46 3.87942 1.93021 0.5656 0.5
47 0.749491 1.09961 2.47449 0.5
48 1.15624 1.47119 0.389633 0.5
49 1.02336 0.294262 3.06834 0.5
50 2.61372 2.78763 0.371618 0.5
