ITEM: TIMESTEP
700000
ITEM: NUMBER OF ATOMS
50
ITEM: BOX BOUNDS xy xz yz pp pp pp
0.0000000000000000e+00 3.9685030000000001e+00 0.0000000000000000e+00
0.0000000000000000e+00 3.9685030000000001e+00 0.0000000000000000e+00
0.0000000000000000e+00 3.9685030000000001e+00 0.0000000000000000e+00
ITEM: ATOMS id x y z radius
1 0.341847 1.82194 2.23803 0.5
2 1.64183 3.00671 2.33353 0.5
3 3.98676 1.62058 3.07307 0.5
4 1.78929 0.649404 3.03825 0.5
5 1.28183 0.349079 3.34224 0.5
6 2.1749 1.44628 1.74525 0.5
7 3.12199 0.92253 2.35382 0.5
8 0.267372 0.996889 3.1147 0.5
9 2.21001 0.687585 0.591631 0.5
10 3.50079 3.72079 1.31836 0.5
11 0.321098 1.49847 0.96012 0.5
12 3.77903 3.18113 2.1298 0.5
13 2.11853 3.0926 1.37933 0.5
14 2.63849 0.192179 0.663957 0.5
15 2.03249 2.8262 0.683955 0.5
16 3.87223 1.22069 2.56895 0.5
17 3.14927 2.21807 0.226181 0.5
18 1.45598 3.44432 3.71776 0.5
19 1.68809 3.92807 2.76942 0.5
20 1.4927 3.22206 1.06167 0.5
21 1.07215 2.36411 3.11496 0.5
22 0.299043 1.75981 0.526689 0.5
23 0.966945 0.363789 0.0555729 0.5
24 0.29491 3.21842 1.20031 0.5
25 1.00493 3.92578 3.18391 0.5
26 2.16585 0.39619 1.73131 0.5
27 2.66635 3.916 1.47279 0.5
28 0.470003 1.86723 1.10383 0.5
29 0.906245 3.14495 2.91638 0.5
30 2.86873 1.72995 2.74612 0.5
31 2.10998 2.77866 3.38946 0.5
32 3.11133 2.81559 2.44208 0.5
33 2.9221 0.173801 3.2265 0.5
34 2.03328 1.92972 2.1111 0.5
35 0.752257 0.794771 0.977874 0.5
36 0.217306 3.82697 2.77469 0.5
37 1.70892 2.77173 0.101144 0.5
38 3.08606 3.2104 2.23917 0.5
39 1.76016 0.100102 0.328353 0.5
40 1.11565 0.396804 1.84555 0.5
41 3.69212 3.6539 3.90814 0.5
42 1.9742 3.92353 1.22976 0.5
43 1.52902 1.97498 0.481693 0.5
44 0.427571 3.44472 0.47727 0.5
45 3.91895 2.15421 3.89515 0.5
46 2.88519 2.38698 3.36381 0.5
47 2.46576 1.26521 3.88958 0.5
48 0.94244 1.2058 2.64861 0.5
49 0.640643 0.483412 2.64289 0.5
50 3.87138 1.10564 0.228715 0.5
