ITEM: TIMESTEP
680000
ITEM: NUMBER OF ATOMS
50
ITEM: BOX BOUNDS xy xz yz pp pp pp
0.0000000000000000e+00 3.9685030000000001e+00 0.0000000000000000e+00
0.0000000000000000e+00 3.9685030000000001e+00 0.0000000000000000e+00
0.0000000000000000e+00 3.9685030000000001e+00 0.0000000000000000e+00
ITEM: ATOMS id x y z radius
1 3.49435 2.02527 3.15489 0.5
2 2.94766 1.41181 2.10709 0.5
3 1.99274 1.93933 2.84792 0.5
4 3.82733 3.78481 0.831854 0.5
5 3.81516 3.1893 1.90244 0.5
6 3.78949 2.70427 1.49704 0.5
7 1.58639 3.58924 1.40867 0.5
8 0.190511 2.1396 1.276 0.5
9 0.930376 2.12298 2.17018 0.5
10 0.391538 3.82172 2.1701 0.5
11 0.284758 2.08823 3.79315 0.5
12 3.06788 1.57758 3.30128 0.5
13 1.82294 0.124688 2.98308 0.5
14 1.04196 1.78026 0.965845 0.5
15 3.68565 3.4217 1.01876 0.5
16 2.13912 3.47099 0.543573 0.5
17 0.310364 0.282598 1.34275 0.5
18 3.04649 1.10012 2.70571 0.5
19 0.40368 1.59089 3.11421 0.5
20 3.12694 0.875203 1.48574 0.5
21 1.08211 1.2701 0.272656 0.5
22 2.95303 3.89881 1.32723 0.5
23 2.39928 2.25297 1.83352 0.5
24 3.80312 0.231159 1.84986 0.5
25 2.35707 2.04817 1.04976 0.5
26 2.9262 1.69845 0.0119791 0.5
27 1.42624 3.44515 2.27718 0.5
28 3.9132 0.462301 0.301141 0.5
29 0.766509 3.03143 1.07469 0.5
30 3.55162 3.5896 3.41299 0.5
31 2.79764 3.64708 0.3365 0.5
32 1.31349 0.474916 2.18945 0.5
33 3.29206 1.1878 1.21789 0.5
34 1.74929 0.597861 3.09332 0.5
35 0.0296491 1.24833 0.575348 0.5
36 3.51071 2.09492 0.229454 0.5
37 0.534842 0.221008 3.78862 0.5
38 2.84295 2.74146 0.111404 0.5
39 0.621373 2.75616 2.16951 0.5
40 1.4295 1.32943 3.05427 0.5
41 3.95051 2.99022 2.22342 0.5
42 2.05432 3.7782 0.184673 0.5
43 2.19454 3.0863 0.130934 0.5
44 3.31413 3.45801 3.80214 0.5
45 1.6928 0.83681 0.144116 0.5
46 1.87265 1.22293 2.13964 0.5
47 0.565618 1.29856 2.48599 0.5
48 1.59791 2.60342 0.416251 0.5
49 0.169445 0.783084 1.65957 0.5
50 2.07386 1.80348 3.67414 0.5
