ITEM: TIMESTEP
720000
ITEM: NUMBER OF ATOMS
50
ITEM: BOX BOUNDS xy xz yz pp pp pp
0.0000000000000000e+00 3.9685030000000001e+00 0.0000000000000000e+00
0.0000000000000000e+00 3.9685030000000001e+00 0.0000000000000000e+00
0.0000000000000000e+00 3.9685030000000001e+00 0.0000000000000000e+00
ITEM: ATOMS id x y z radius
1 1.20339 3.08291 1.4658 0.5
2 3.39813 1.76272 0.677626 0.5
3 2.79568 0.316276 1.62923 0.5
4 2.5698 2.47857 0.568373 0.5
5 3.21182 3.04384 2.1823 0.5
6 0.246 1.86951 1.66036 0.5
7 0.824617 2.42767 0.0370164 0.5
8 2.35363 3.49591 2.66191 0.5
9 0.693016 3.82552 1.83436 0.5
10 0.182847 1.15201 2.63661 0.5
11 3.41623 2.41188 2.26895 0.5
12 1.42017 3.28009 3.52445 0.5
13 1.79145 0.358206 0.469717 0.5
14 2.67446 0.149462 0.29521 0.5
15 0.796113 1.22876 2.17524 0.5
16 2.37281 3.9057 1.05259 0.5
17 2.25782 0.505343 0.310353 0.5
18 0.189866 2.76032 0.701448 0.5
19 3.64883 1.70292 3.90757 0.5
20 3.0207 0.79715 0.984204 0.5
21 1.70048 1.8229 1.44843 0.5
22 3.87653 2.60578 1.28773 0.5
23 1.4031 0.989102 1.43789 0.5
24 3.49565 1.00283 3.9174 0.5
25 1.85017 2.6566 0.264015 0.5
26 2.52159 2.76596 1.87268 0.5
27 0.825315 2.85233 1.7917 0.5
28 2.77269 1.55149 1.19432 0.5
29 1.83897 3.087 0.968407 0.5
30 3.63433 3.22583 3.51399 0.5
31 2.62366 1.58252 1.74289 0.5
32 2.18911 1.62026 0.0233155 0.5
33 2.63356 1.01004 3.38024 0.5
34 2.97887 2.36639 0.0780468 0.5
35 0.235884 3.59772 3.59309 0.5
36 1.49494 1.77985 3.87464 0.5
37 3.4244 1.3989 2.02988 0.5
38 3.10121 2.79896 3.0437 0.5
39 2.7653 1.56735 0.253426 0.5
40 0.852833 1.48179 2.72894 0.5
41 0.418383 0.335596 0.295267 0.5
42 0.254405 2.94754 2.50159 0.5
43 2.63276 2.64131 1.15718 0.5
44 1.26836 0.453434 2.71803 0.5
45 3.59276 0.669291 1.13959 0.5
46 3.87192 0.272985 1.24442 0.5
47 1.71434 2.17214 2.72766 0.5
48 3.6314 2.46733 2.84516 0.5
49 3.69946 1.41398 0.319123 0.5
50 2.27974 3.46823 3.22184 0.5
