ITEM: TIMESTEP
20000
ITEM: NUMBER OF ATOMS
50
ITEM: BOX BOUNDS xy xz yz pp pp pp
0.0000000000000000e+00 3.9685030000000001e+00 0.0000000000000000e+00
0.0000000000000000e+00 3.9685030000000001e+00 0.0000000000000000e+00
0.0000000000000000e+00 3.9685030000000001e+00 0.0000000000000000e+00
ITEM: ATOMS id x y z radius
1 0.233674 3.24695 0.628859 0.5
2 1.19735 3.93637 3.76039 0.5
3 3.43658 3.96784 0.911638 0.5
4 1.28324 3.75709 1.15039 0.5
5 1.18447 1.2195 1.24286 0.5
6 3.13674 0.135176 3.61648 0.5
7 3.77839 0.555109 1.86424 0.5
8 2.60919 0.973041 0.380294 0.5
9 1.88716 2.18357 2.62376 0.5
10 0.778684 2.43703 1.63445 0.5
11 1.55502 1.34466 3.65132 0.5
12 2.37601 2.78746 2.61635 0.5
13 1.1563 2.25935 3.49612 0.5
14 2.67651 2.93162 0.422128 0.5
15 2.63977 1.45549 3.6006 0.5
16 3.14112 3.58851 1.2198 0.5
17 1.22881 1.4383 0.852502 0.5
18 2.33295 2.18126 1.94788 0.5
19 0.430542 3.88287 3.57883 0.5
20 1.68779 2.18241 1.18162 0.5
21 0.525 2.54521 2.44275 0.5
22 0.14849 0.503398 3.2027 0.5
23 1.162 0.623518 2.14322 0.5
24 2.00905 1.87124 2.13112 0.5
25 0.489676 3.1836 2.00718 0.5
26 1.61646 3.58789 2.46635 0.5
27 3.65032 1.1223 1.23546 0.5
28 3.7914 0.973868 2.90483 0.5
29 0.135732 0.81675 3.71713 0.5
30 1.31553 1.75793 3.81903 0.5
31 2.8996 0.706846 1.989 0.5
32 3.0728 2.19905 0.433441 0.5
33 1.31423 3.70811 0.670014 0.5
34 0.6823 2.29152 2.79053 0.5
35 2.21419 0.00135937 2.24972 0.5
36 3.2634 2.45525 2.97239 0.5
37 0.526573 0.489821 2.02122 0.5
38 1.13114 0.569545 3.50062 0.5
39 3.54894 1.79924 3.65216 0.5
40 1.46484 2.04105 0.683763 0.5
41 3.00346 1.41072 3.13068 0.5
42 2.86239 0.704122 3.6141 0.5
43 0.123639 2.75125 1.49747 0.5
44 3.7765 2.04439 3.22942 0.5
45 0.00493082 1.55246 2.88776 0.5
46 2.40903 0.485326 1.47582 0.5
47 2.06138 2.20601 0.110898 0.5
48 1.21224 1.83136 2.30073 0.5
49 0.0140268 2.59968 3.44886 0.5
50 3.59593 3.86378 2.36005 0.5
