ITEM: TIMESTEP
930000
ITEM: NUMBER OF ATOMS
50
ITEM: BOX BOUNDS xy xz yz pp pp pp
0.0000000000000000e+00 3.9685030000000001e+00 0.0000000000000000e+00
0.0000000000000000e+00 3.9685030000000001e+00 0.0000000000000000e+00
0.0000000000000000e+00 3.9685030000000001e+00 0.0000000000000000e+00
ITEM: ATOMS id x y z radius
1 1.11632 1.12267 1.46909 0.5
2 1.32428 2.12534 2.38152 0.5
3 3.00833 3.60101 0.619216 0.5
4 0.998074 3.8213 0.901432 0.5
5 1.87489 0.487292 0.164363 0.5
6 2.14128 2.63027 1.36803 0.5
7 0.390106 1.48562 1.03356 0.5
8 3.97984 2.84719 2.48773 0.5
9 2.55398 1.36615 1.88546 0.5
10 2.30495 1.26437 0.138659 0.5
11 0.995822 2.72625 1.37918 0.5
12 2.29607 1.0822 1.29601 0.5
13 2.76543 0.717625 1.08442 0.5
14 1.35834 1.90977 0.666055 0.5
15 0.907764 0.617309 3.77313 0.5
16 1.29065 1.26215 2.57892 0.5
17 1.22939 1.77383 3.50895 0.5
18 3.28728 2.92366 2.83815 0.5
19 0.591382 2.71156 0.266269 0.5
20 2.59199 0.0246441 1.93612 0.5
21 0.554525 2.16382 0.788328 0.5
22 2.02008 1.70968 1.92867 0.5
23 2.35251 1.94712 2.14076 0.5
24 1.11919 0.810055 3.06366 0.5
25 1.79891 3.42486 1.50296 0.5
26 1.88656 0.354796 1.665 0.5
27 0.833306 3.244 2.17659 0.5
28 0.598347 3.48594 3.86276 0.5
29 0.258573 3.66824 2.56201 0.5
30 3.47799 0.976261 1.52349 0.5
31 3.10875 1.96497 3.55983 0.5
32 3.78758 0.82753 1.77349 0.5
33 0.392871 1.2604 0.785952 0.5
34 2.72737 2.90026 0.805279 0.5
35 3.90663 0.0127412 1.81164 0.5
36 2.31865 2.29832 2.46055 0.5
37 2.35235 3.95453 0.735903 0.5
38 2.65276 1.26253 0.444419 0.5
39 3.60733 3.76015 0.21547 0.5
40 2.80323 1.06603 0.0529567 0.5
41 0.117342 1.94279 2.37056 0.5
42 1.65013 3.87285 0.273997 0.5
43 3.75086 0.315012 0.319576 0.5
44 2.06963 2.87898 3.53757 0.5
45 0.0809196 1.3088 0.391039 0.5
46 3.9545 2.36909 1.17984 0.5
47 3.05534 1.31001 3.05689 0.5
48 1.14184 0.267129 2.64066 0.5
49 3.94056 0.407554 1.74192 0.5
50 1.38771 2.92706 2.5414 0.5
