ITEM: TIMESTEP
280000
ITEM: NUMBER OF ATOMS
50
ITEM: BOX BOUNDS xy xz yz pp pp pp
0.0000000000000000e+00 3.9685030000000001e+00 0.0000000000000000e+00
0.0000000000000000e+00 3.9685030000000001e+00 0.0000000000000000e+00
0.0000000000000000e+00 3.9685030000000001e+00 0.0000000000000000e+00
ITEM: ATOMS id x y z radius
1 3.90978 0.219249 0.947233 0.5
2 1.56168 3.96717 0.462773 0.5
3 1.07545 3.33747 1.53784 0.5
4 2.15822 3.15537 1.97605 0.5
5 0.100608 0.274893 2.62128 0.5
6 1.86077 0.846917 2.71671 0.5
7 1.6593 1.88591 1.79721 0.5
8 1.32903 2.87318 3.37132 0.5
9 0.326904 1.74501 1.69339 0.5
10 1.33167 0.76045 3.25083 0.5
11 3.0616 0.113461 3.09958 0.5
12 0.16322 3.16846 3.15587 0.5
13 1.26863 1.61192 1.41911 0.5
14 1.80051 2.67111 1.75791 0.5
15 0.257807 1.23341 0.873586 0.5
16 0.783557 0.954737 2.05511 0.5
17 1.91808 2.81058 2.9834 0.5
18 3.55457 3.74954 0.972293 0.5
19 3.82851 3.41948 0.478893 0.5
20 3.10693 2.00747 0.931719 0.5
21 3.16737 3.51825 0.0494665 0.5
22 3.6585 3.9016 3.90027 0.5
23 0.686184 0.120595 0.609328 0.5
24 1.83726 0.655348 0.048743 0.5
25 2.82878 3.12926 2.06008 0.5
26 3.56093 3.34937 2.41165 0.5
27 1.23182 2.31677 0.204704 0.5
28 0.972465 1.20183 2.63103 0.5
29 3.34514 1.54044 3.30461 0.5
30 0.704416 0.52562 2.50554 0.5
31 0.432627 2.31367 2.10689 0.5
32 1.21343 3.71113 3.77287 0.5
33 0.0693957 2.40364 1.03513 0.5
34 3.83471 2.432 0.216289 0.5
35 2.89928 1.93216 2.40644 0.5
36 2.60142 0.575442 1.73468 0.5
37 1.68789 3.91803 1.69582 0.5
38 2.83487 2.35142 0.334217 0.5
39 3.36236 0.342729 2.022 0.5
40 1.84425 1.48254 3.63443 0.5
41 2.12412 2.80479 1.21331 0.5
42 2.29242 1.90768 3.65205 0.5
43 0.595788 1.96907 2.38859 0.5
44 1.77833 3.55131 3.8372 0.5
45 3.02532 2.72428 3.0634 0.5
46 2.59715 3.69281 0.0171677 0.5
47 3.73544 1.02238 1.57984 0.5
48 1.08954 0.204628 3.18311 0.5
49 3.43982 1.39036 0.657854 0.5
50 2.20463 1.33379 1.21614 0.5
