ITEM: TIMESTEP
210000
ITEM: NUMBER OF ATOMS
50
ITEM: BOX BOUNDS xy xz yz pp pp pp
0.0000000000000000e+00 3.9685030000000001e+00 0.0000000000000000e+00
0.0000000000000000e+00 3.9685030000000001e+00 0.0000000000000000e+00
0.0000000000000000e+00 3.9685030000000001e+00 0.0000000000000000e+00
ITEM: ATOMS id x y z radius
1 0.646501 3.88347 3.62295 0.5
2 0.753084 2.91911 3.38016 0.5
3 2.36227 3.17258 1.06458 0.5
4 0.428581 2.59995 3.5017 0.5
5 0.940339 1.58341 0.659047 0.5
6 2.05811 0.3386 0.626143 0.5
7 3.75509 1.29081 0.622623 0.5
8 3.57772 1.33429 2.1334 0.5
9 3.77534 2.29934 2.48918 0.5
10 3.83708 1.00853 2.95502 0.5
11 3.72064 1.66154 0.817512 0.5
12 0.88082 3.24153 0.360132 0.5
13 3.15505 3.1053 0.213513 0.5
14 3.04332 0.39105 2.83233 0.5
15 0.636892 0.981745 1.31755 0.5
16 1.88624 1.83614 0.769835 0.5
17 3.06634 2.94795 2.39815 0.5
18 2.67478 0.157142 1.19115 0.5
19 1.11777 1.62216 3.13341 0.5
20 3.31339 1.90182 2.17784 0.5
21 0.744833 0.209113 1.93185 0.5
22 3.0641 0.396326 0.442608 0.5
23 0.580562 0.195514 0.710457 0.5
24 0.392378 1.8495 1.27536 0.5
25 2.16646 3.9114 2.7886 0.5
26 3.38898 2.32059 0.483788 0.5
27 2.99424 2.74506 3.21258 0.5
28 1.17328 0.260837 1.01112 0.5
29 1.46273 3.62349 1.10991 0.5
30 1.56449 1.53463 0.256657 0.5
31 2.71977 2.74504 1.83891 0.5
32 2.17399 0.510007 1.46891 0.5
33 2.58771 1.07267 1.95758 0.5
34 2.85935 1.78359 0.460373 0.5
35 1.45146 0.478809 2.23631 0.5
36 3.50473 0.578369 0.264432 0.5
37 3.90235 2.50059 2.11972 0.5
38 1.40545 3.55972 2.47912 0.5
39 2.71464 1.34794 2.6296 0.5
40 0.380964 2.21572 2.8068 0.5
41 0.0187567 3.60767 0.89239 0.5
42 1.26427 2.09902 2.58441 0.5
43 1.23163 1.17988 3.40839 0.5
44 2.43348 3.4942 0.590725 0.5
45 3.3681 0.110419 1.52483 0.5
46 1.2734 1.82178 1.62942 0.5
47 2.83602 2.10438 1.49943 0.5
48 2.22724 1.97283 3.41008 0.5
49 0.192218 2.76677 1.29216 0.5
50 2.97404 3.91938 3.07515 0.5
