ITEM: TIMESTEP
330000
ITEM: NUMBER OF ATOMS
50
ITEM: BOX BOUNDS xy xz yz pp pp pp
0.0000000000000000e+00 3.9685030000000001e+00 0.0000000000000000e+00
0.0000000000000000e+00 3.9685030000000001e+00 0.0000000000000000e+00
0.0000000000000000e+00 3.9685030000000001e+00 0.0000000000000000e+00
ITEM: ATOMS id x y z radius
1 2.25927 2.04229 1.76574 0.5
2 2.80771 0.549541 0.812148 0.5
3 2.75938 1.65028 2.52705 0.5
4 1.98907 0.304475 3.54463 0.5
5 2.65478 3.00349 3.50557 0.5
6 0.365213 0.365642 3.11762 0.5
7 2.24515 0.900084 0.0104767 0.5
8 0.589128 2.74689 3.44056 0.5
9 2.56351 0.0197664 2.55468 0.5
10 3.92865 3.23781 2.47615 0.5
11 3.35057 2.15903 0.0682959 0.5
12 3.90872 1.11713 0.0953067 0.5
13 3.64512 2.27986 2.02425 0.5
14 1.39611 2.37965 2.30455 0.5
15 3.38889 1.32615 1.00252 0.5
16 2.87688 1.41116 0.26736 0.5
17 2.45312 3.3057 0.093503 0.5
18 1.41323 1.18143 0.0280382 0.5
19 3.95461 3.45456 3.69271 0.5
20 0.342172 0.79466 1.85288 0.5
21 2.44316 1.30221 3.35246 0.5
22 3.32057 0.0174186 3.05609 0.5
23 2.14974 3.69744 3.26315 0.5
24 1.62925 3.91794 1.27542 0.5
25 1.06114 3.35164 1.30637 0.5
26 0.642049 3.59121 2.17133 0.5
27 0.549877 2.05507 3.50995 0.5
28 1.45395 0.761387 1.36402 0.5
29 3.81057 3.34196 3.05493 0.5
30 0.306907 2.26153 1.09108 0.5
31 2.75551 3.95103 1.35196 0.5
32 3.90299 3.05842 1.57623 0.5
33 0.97505 0.68827 0.58094 0.5
34 1.65892 2.8766 3.6324 0.5
35 0.151585 2.28063 1.75342 0.5
36 3.35165 0.373989 2.33783 0.5
37 1.30826 0.583148 1.95089 0.5
38 1.09924 2.73875 0.527598 0.5
39 0.321783 0.740423 1.11598 0.5
40 1.81554 2.6368 1.98827 0.5
41 0.755328 3.66122 3.5786 0.5
42 1.69607 1.70317 0.593709 0.5
43 2.87625 0.926337 2.69884 0.5
44 2.96173 1.05803 3.40964 0.5
45 3.9608 1.38113 1.99976 0.5
46 1.35664 1.52101 2.41649 0.5
47 1.14356 1.77343 1.65078 0.5
48 2.57002 3.00494 1.26252 0.5
49 0.460344 2.35117 0.203767 0.5
50 3.30125 3.32431 2.33645 0.5
