ITEM: TIMESTEP
200000
ITEM: NUMBER OF ATOMS
50
ITEM: BOX BOUNDS xy xz yz pp pp pp
0.0000000000000000e+00 3.9685030000000001e+00 0.0000000000000000e+00
0.0000000000000000e+00 3.9685030000000001e+00 0.0000000000000000e+00
0.0000000000000000e+00 3.9685030000000001e+00 0.0000000000000000e+00
ITEM: ATOMS id x y z radius
1 3.24907 3.04106 2.36143 0.5
2 0.725383 0.849015 1.7769 0.5
3 2.09387 2.69073 2.32938 0.5
4 3.3171 3.07939 1.19232 0.5
5 1.33391 1.88065 2.91951 0.5
6 1.3074 0.138005 3.37113 0.5
7 0.698909 1.05113 0.37128 0.5
8 1.29673 2.28589 3.46473 0.5
9 1.58705 3.81248 3.02829 0.5
10 3.56214 3.88326 0.298785 0.5
11 0.23908 1.1268 3.53043 0.5
12 2.0351 2.21911 0.910025 0.5
13 1.77994 3.66076 2.16724 0.5
14 1.79771 0.654684 1.37821 0.5
15 1.90998 0.850128 0.34674 0.5
16 0.898347 3.75625 0.476493 0.5
17 0.90115 1.73735 3.1101 0.5
18 0.489424 2.86433 3.4032 0.5
19 1.82368 2.7359 1.72742 0.5
20 2.86078 2.13047 0.450031 0.5
21 0.506832 2.24417 3.68539 0.5
22 0.48421 2.08312 2.1003 0.5
23 1.42562 2.86723 1.94148 0.5
24 3.26397 3.65271 3.15726 0.5
25 0.47341 2.34126 1.06259 0.5
26 0.492039 1.4167 2.68986 0.5
27 1.68336 1.35724 1.67923 0.5
28 0.829538 2.43809 2.32047 0.5
29 3.12737 1.9705 3.75502 0.5
30 1.38474 3.22859 1.84813 0.5
31 1.45524 0.137713 2.11335 0.5
32 3.77766 1.97799 3.56046 0.5
33 1.70425 0.0385219 1.48271 0.5
34 1.09883 1.00858 2.87153 0.5
35 0.786957 2.60738 0.768162 0.5
36 2.57831 1.45344 0.644703 0.5
37 2.62535 2.87004 2.91087 0.5
38 0.0708614 3.68843 1.57654 0.5
39 2.29123 3.40655 1.11562 0.5
40 2.73202 0.708417 2.10169 0.5
41 0.994194 3.88508 3.583 0.5
42 2.42222 1.10043 2.81893 0.5
43 3.29293 3.81719 2.67248 0.5
44 1.54872 3.13205 3.73608 0.5
45 1.23237 1.12531 1.91365 0.5
46 1.73647 0.777139 2.66611 0.5
47 0.951815 3.54701 3.26317 0.5
48 0.801983 3.82669 2.41303 0.5
49 2.94712 1.49137 2.69942 0.5
50 2.21212 2.41943 3.70404 0.5
