ITEM: TIMESTEP
780000
ITEM: NUMBER OF ATOMS
50
ITEM: BOX BOUNDS xy xz yz pp pp pp
0.0000000000000000e+00 3.9685030000000001e+00 0.0000000000000000e+00
0.0000000000000000e+00 3.9685030000000001e+00 0.0000000000000000e+00
0.0000000000000000e+00 3.9685030000000001e+00 0.0000000000000000e+00
ITEM: ATOMS id x y z radius
1 0.671899 1.418 1.76866 0.5
2 3.10717 0.720487 1.34842 0.5
3 3.72432 2.1908 1.78988 0.5
4 0.0648565 3.77998 3.81158 0.5
5 2.44015 2.72548 2.883 0.5
6 1.45525 2.15154 2.78058 0.5
7 0.615098 3.59241 3.12084 0.5
8 1.75512 2.20448 1.20846 0.5
9 2.58938 1.27077 0.421873 0.5
10 1.76271 2.39434 3.28902 0.5
11 1.60325 0.71756 2.80486 0.5
12 1.58471 3.05297 0.346849 0.5
13 1.86292 0.143256 1.59277 0.5
14 3.3452 3.19389 3.70425 0.5
15 2.34609 2.23609 0.349857 0.5
16 1.46416 0.552154 1.40566 0.5
17 0.737752 0.097899 0.795972 0.5
18 0.571543 1.64138 2.99709 0.5
19 0.602859 0.707258 3.78749 0.5
20 2.15042 2.08751 2.00719 0.5
21 2.37784 1.64203 0.798562 0.5
22 3.87333 2.66861 0.107659 0.5
23 1.49872 0.338872 0.47729 0.5
24 1.28378 3.06921 1.01683 0.5
25 0.187786 1.52096 0.980105 0.5
26 2.87475 3.65576 2.08737 0.5
27 2.97721 3.87458 2.69243 0.5
28 1.84912 3.2885 1.75519 0.5
29 1.54085 2.85111 1.17527 0.5
30 2.74738 0.599445 0.359963 0.5
31 3.66248 1.13548 3.12388 0.5
32 2.50843 3.91047 3.96965 0.5
33 3.01537 3.06791 0.386618 0.5
34 0.413634 2.35354 1.50485 0.5
35 2.70862 2.68752 1.65532 0.5
36 0.959989 0.400863 2.76594 0.5
37 0.204269 1.81507 0.172258 0.5
38 2.60619 2.01701 2.15145 0.5
39 3.39373 0.0472255 1.83013 0.5
40 2.71969 3.15361 3.50861 0.5
41 0.872934 3.34966 3.91333 0.5
42 3.27631 1.05527 2.16318 0.5
43 1.61588 0.791268 0.48416 0.5
44 0.748524 1.69394 0.214931 0.5
45 2.41909 3.18285 2.08283 0.5
46 1.40579 3.55069 3.60278 0.5
47 1.34824 3.61892 0.84443 0.5
48 2.32303 0.0130449 2.17101 0.5
49 1.05626 1.57772 0.555181 0.5
50 3.81992 3.31933 0.860893 0.5
