ITEM: TIMESTEP
320000
ITEM: NUMBER OF ATOMS
50
ITEM: BOX BOUNDS xy xz yz pp pp pp
0.0000000000000000e+00 3.9685030000000001e+00 0.0000000000000000e+00
0.0000000000000000e+00 3.9685030000000001e+00 0.0000000000000000e+00
0.0000000000000000e+00 3.9685030000000001e+00 0.0000000000000000e+00
ITEM: ATOMS id x y z radius
1 1.82516 1.14649 0.0751787 0.5
2 0.799919 1.55724 3.79153 0.5
3 1.97645 0.156281 0.668337 0.5
4 3.5695 2.89816 0.416497 0.5
5 1.6462 3.4302 1.704 0.5
6 1.99249 0.420843 2.03073 0.5
7 0.0366703 3.37446 2.50952 0.5
8 3.7204 2.71583 2.95915 0.5
9 3.88501 0.560966 0.369961 0.5
10 3.9743 3.30024 1.8244 0.5
11 3.2128 0.485308 3.21509 0.5
12 3.33895 2.49009 1.23484 0.5
13 3.17247 2.30724 2.60388 0.5
14 1.6282 3.65717 3.27104 0.5
15 1.4727 1.98695 0.973859 0.5
16 3.37857 1.53383 1.25227 0.5
17 2.68241 2.62349 2.81694 0.5
18 3.22389 3.35888 1.45478 0.5
19 3.75205 1.78559 3.64804 0.5
20 0.636852 3.26947 3.54006 0.5
21 0.878207 3.94711 2.53452 0.5
22 2.85756 4.01189 1.889 0.5
23 1.2686 3.50501 0.859072 0.5
24 1.17829 2.52864 1.78884 0.5
25 2.68367 2.42582 3.69011 0.5
26 1.71469 1.23733 3.23453 0.5
27 1.84613 3.57575 0.537757 0.5
28 3.90844 0.634159 2.28088 0.5
29 2.78754 1.01325 0.99836 0.5
30 2.03556 3.07563 3.86528 0.5
31 3.84023 3.81799 0.462481 0.5
32 3.8087 0.444727 1.96236 0.5
33 2.36334 2.42537 2.69009 0.5
34 2.10279 2.77305 3.55296 0.5
35 1.0072 1.15215 1.43594 0.5
36 2.47584 0.0213251 3.15968 0.5
37 3.08466 3.76712 1.85205 0.5
38 2.73076 2.19394 1.28208 0.5
39 0.26403 1.92928 0.457617 0.5
40 0.362106 1.38616 2.11783 0.5
41 0.716025 3.47606 1.70847 0.5
42 1.29035 0.734011 0.620619 0.5
43 2.91968 3.29132 2.14053 0.5
44 1.47507 3.40549 2.79328 0.5
45 2.31452 0.988133 1.68844 0.5
46 2.6512 1.11248 2.68364 0.5
47 3.36041 1.04307 2.90777 0.5
48 3.31348 0.540607 0.371377 0.5
49 1.44343 1.18717 1.16304 0.5
50 3.97902 2.39445 2.47469 0.5
