ITEM: TIMESTEP
950000
ITEM: NUMBER OF ATOMS
50
ITEM: BOX BOUNDS xy xz yz pp pp pp
0.0000000000000000e+00 3.9685030000000001e+00 0.0000000000000000e+00
0.0000000000000000e+00 3.9685030000000001e+00 0.0000000000000000e+00
0.0000000000000000e+00 3.9685030000000001e+00 0.0000000000000000e+00
ITEM: ATOMS id x y z radius
1 2.93052 0.751227 2.81676 0.5
2 3.42112 1.37073 2.86213 0.5
3 3.48521 2.0927 2.09968 0.5
4 2.01553 2.10371 3.91194 0.5
5 3.11765 2.28535 3.94697 0.5
6 0.620296 0.865233 2.06768 0.5
7 1.09866 1.89223 1.48157 0.5
8 3.98639 0.452087 1.47948 0.5
9 3.37342 3.75081 3.87978 0.5
10 0.043935 3.3035 3.76773 0.5
11 3.6503 2.61934 3.28819 0.5
12 1.31554 3.09197 1.44896 0.5
13 3.82656 1.09153 2.68336 0.5
14 2.64407 2.34305 2.93625 0.5
15 0.165485 3.35477 1.44545 0.5
16 3.8263 0.917895 1.7327 0.5
17 2.83168 0.989739 3.56467 0.5
18 1.62366 1.60881 1.25656 0.5
19 0.231793 0.349234 2.67136 0.5
20 0.0957135 0.443442 0.315138 0.5
21 0.815138 3.35854 1.79386 0.5
22 3.45104 2.20379 0.471189 0.5
23 3.29168 2.88702 1.03339 0.5
24 3.38003 1.06528 3.69857 0.5
25 2.33577 0.796382 2.39346 0.5
26 1.03339 3.92689 3.45523 0.5
27 2.72865 0.206775 2.22307 0.5
28 0.412053 1.07772 3.56767 0.5
29 2.06519 3.54768 0.0127738 0.5
30 1.53009 0.88928 0.622225 0.5
31 0.426823 3.87459 1.48523 0.5
32 3.05961 3.28777 0.5755 0.5
33 3.82503 2.45873 0.763269 0.5
34 1.37762 2.1497 3.06427 0.5
35 2.03386 3.82758 1.43981 0.5
36 0.943821 3.29766 3.83564 0.5
37 1.01501 0.699895 1.35211 0.5
38 2.69044 0.201124 1.59885 0.5
39 0.718952 2.09368 2.47724 0.5
40 1.17325 0.928541 3.17428 0.5
41 1.6748 3.42762 2.26913 0.5
42 0.586997 2.88732 2.0051 0.5
43 0.669722 2.35662 3.58261 0.5
44 3.03829 1.14638 2.29438 0.5
45 1.68872 2.22222 0.226366 0.5
46 1.54464 3.86822 2.12261 0.5
47 2.49658 1.69587 3.10171 0.5
48 1.55893 1.0472 2.04386 0.5
49 2.60626 2.23858 1.73559 0.5
50 2.23627 3.7827 3.39355 0.5
