ITEM: TIMESTEP
620000
ITEM: NUMBER OF ATOMS
50
ITEM: BOX BOUNDS xy xz yz pp pp pp
0.0000000000000000e+00 3.9685030000000001e+00 0.0000000000000000e+00
0.0000000000000000e+00 3.9685030000000001e+00 0.0000000000000000e+00
0.0000000000000000e+00 3.9685030000000001e+00 0.0000000000000000e+00
ITEM: ATOMS id x y z radius
1 3.80534 0.894108 0.213627 0.5
2 3.67787 1.48077 3.11424 0.5
3 2.51956 2.78383 1.08266 0.5
4 2.12742 1.81407 1.01815 0.5
5 2.37039 2.64249 0.00385572 0.5
6 1.36898 2.91424 3.3688 0.5
7 0.061624 3.27262 3.24843 0.5
8 2.1582 2.12688 2.20392 0.5
9 0.688929 2.8816 0.751391 0.5
10 0.382704 2.84198 3.31667 0.5
11 2.49364 3.13943 0.465715 0.5
12 1.57093 2.35844 3.14409 0.5
13 1.66854 3.7232 1.36822 0.5
14 3.04972 0.677773 2.5111 0.5
15 0.242242 1.44182 0.942719 0.5
16 3.4415 1.82384 1.33821 0.5
17 3.89792 2.37377 1.61071 0.5
18 2.39227 1.40711 2.6387 0.5
19 1.90629 3.64266 2.89315 0.5
20 2.14981 2.5594 1.55111 0.5
21 0.518145 1.11886 1.42891 0.5
22 1.51466 0.720341 2.5149 0.5
23 2.29643 3.27687 1.8664 0.5
24 2.08332 1.21887 1.09801 0.5
25 2.98833 2.74976 2.75973 0.5
26 2.76629 0.423184 1.14903 0.5
27 0.0818602 2.37221 0.369354 0.5
28 3.47762 0.4409 0.0371327 0.5
29 0.765899 2.45866 1.86559 0.5
30 0.297346 3.39207 3.84972 0.5
31 0.484706 0.501059 2.3138 0.5
32 3.71146 2.19129 0.326267 0.5
33 2.9383 3.88511 0.172708 0.5
34 3.84269 3.78852 0.866933 0.5
35 2.45163 0.119413 3.02253 0.5
36 3.79197 2.6437 3.14664 0.5
37 3.62662 3.23093 3.07402 0.5
38 0.986436 2.11735 2.93412 0.5
39 3.00538 1.01092 1.39567 0.5
40 2.48727 2.70737 3.29423 0.5
41 0.993133 0.942655 -0.00650547 0.5
42 3.00513 0.892924 0.380077 0.5
43 2.98026 3.52854 2.40723 0.5
44 3.23917 1.86231 3.69248 0.5
45 1.61858 0.344968 1.04883 0.5
46 2.75194 3.41672 1.70734 0.5
47 1.35731 0.628028 1.9317 0.5
48 3.70385 0.872021 1.92184 0.5
49 2.94666 0.778372 3.27042 0.5
50 3.93177 2.69476 1.00184 0.5
