ITEM: TIMESTEP
300000
ITEM: NUMBER OF ATOMS
50
ITEM: BOX BOUNDS xy xz yz pp pp pp
0.0000000000000000e+00 3.9685030000000001e+00 0.0000000000000000e+00
0.0000000000000000e+00 3.9685030000000001e+00 0.0000000000000000e+00
0.0000000000000000e+00 3.9685030000000001e+00 0.0000000000000000e+00
ITEM: ATOMS id x y z radius
1 0.0754546 0.958094 2.88183 0.5
2 3.9923 3.02333 3.02067 0.5
3 2.3564 1.04109 2.80396 0.5
4 1.18568 0.392847 2.6079 0.5
5 3.73051 3.39997 2.02993 0.5
6 1.1116 1.55033 2.73355 0.5
7 1.16404 1.92096 0.982678 0.5
8 1.26315 3.56631 3.25867 0.5
9 3.35528 2.64662 2.81671 0.5
10 1.51213 1.76614 2.84037 0.5
11 0.0134648 0.564318 1.64671 0.5
12 2.15998 0.42867 3.41379 0.5
13 0.640315 1.2082 2.44157 0.5
14 2.42339 2.14415 1.91645 0.5
15 2.29873 2.1197 2.56478 0.5
16 2.49952 1.99204 3.48388 0.5
17 2.18207 2.47402 3.2809 0.5
18 3.07091 3.11281 3.74089 0.5
19 2.11193 2.25777 0.447743 0.5
20 0.82656 0.315209 1.34968 0.5
21 1.58714 0.501314 1.67418 0.5
22 1.94834 2.79294 3.74296 0.5
23 3.5219 0.477722 1.40841 0.5
24 1.2129 3.57195 1.00523 0.5
25 0.745681 1.4874 0.889044 0.5
26 2.96268 0.411434 3.77527 0.5
27 3.906 2.88283 0.256359 0.5
28 3.67949 2.71624 1.56147 0.5
29 3.45715 3.47106 3.07555 0.5
30 0.25868 3.52121 3.2675 0.5
31 -0.00647761 1.05733 0.402663 0.5
32 2.19624 3.29448 1.46751 0.5
33 0.458475 1.94186 1.21265 0.5
34 1.67844 2.27195 1.87971 0.5
35 0.422466 3.83407 2.27577 0.5
36 0.154485 3.77301 1.04448 0.5
37 1.02873 2.43607 2.3956 0.5
38 2.72408 0.947515 3.4581 0.5
39 2.10681 0.429514 2.5281 0.5
40 3.46484 0.508325 2.05276 0.5
41 0.792557 0.845735 3.72512 0.5
42 2.26822 3.22843 3.44883 0.5
43 1.69533 0.686788 3.63722 0.5
44 0.567331 0.420435 3.24698 0.5
45 1.54431 1.5792 1.98583 0.5
46 2.58379 0.0643908 2.66852 0.5
47 0.435984 3.47892 0.517495 0.5
48 0.658276 3.55548 3.80021 0.5
49 1.68438 3.82133 3.37541 0.5
50 1.09535 2.26869 3.36434 0.5
