ITEM: TIMESTEP
10000
ITEM: NUMBER OF ATOMS
50
ITEM: BOX BOUNDS xy xz yz pp pp pp
0.0000000000000000e+00 3.9685030000000001e+00 0.0000000000000000e+00
0.0000000000000000e+00 3.9685030000000001e+00 0.0000000000000000e+00
0.0000000000000000e+00 3.9685030000000001e+00 0.0000000000000000e+00
ITEM: ATOMS id x y z radius
1 0.294753 1.80767 2.30325 0.5
2 0.404406 2.36002 2.54453 0.5
3 3.6921 3.97161 3.85635 0.5
4 0.577768 2.76295 0.314155 0.5
5 1.96396 2.5743 1.51693 0.5
6 0.734371 2.71536 3.62316 0.5
7 2.40021 2.45753 1.08026 0.5
8 1.94491 1.03677 2.47889 0.5
9 0.150316 0.69882 3.3856 0.5
10 1.33042 3.38758 3.45575 0.5
11 1.4893 2.96316 0.382976 0.5
12 0.792341 1.00772 2.56545 0.5
13 2.94077 2.39165 2.21143 0.5
14 2.15416 2.35854 3.28177 0.5
15 1.22572 2.97578 1.75969 0.5
16 0.212298 1.2174 2.94477 0.5
17 3.13637 3.54756 1.31276 0.5
18 1.41609 1.12045 2.98828 0.5
19 3.08348 3.20682 3.93146 0.5
20 1.44547 0.183106 2.43732 0.5
21 2.72652 1.96449 0.195958 0.5
22 2.27015 1.2151 3.13077 0.5
23 1.4102 2.8849 1.10603 0.5
24 0.805254 2.52152 1.55838 0.5
25 1.0369 1.7715 1.59202 0.5
26 2.77659 1.28187 1.83004 0.5
27 1.58159 3.79212 1.81158 0.5
28 3.42444 0.691507 0.771087 0.5
29 1.23985 3.15801 2.54958 0.5
30 3.42254 3.05212 0.861092 0.5
31 2.6666 0.331424 0.467157 0.5
32 0.723521 3.92192 0.58845 0.5
33 0.503621 1.08813 0.573861 0.5
34 0.882287 2.19955 0.640394 0.5
35 2.95924 0.804016 3.95821 0.5
36 1.05974 1.28663 0.629564 0.5
37 2.23587 0.241976 3.82323 0.5
38 2.19394 2.04732 2.8732 0.5
39 1.43272 0.181857 1.16744 0.5
40 3.33288 2.44027 0.0830357 0.5
41 1.6595 2.18713 0.984224 0.5
42 3.14138 1.21305 0.374721 0.5
43 2.5036 3.37577 2.0631 0.5
44 1.10031 0.257988 1.57342 0.5
45 1.746 2.8563 3.47185 0.5
46 0.290942 3.35093 2.50729 0.5
47 2.78506 3.77849 0.161225 0.5
48 0.901893 0.741354 1.16442 0.5
49 0.101345 3.62224 1.6044 0.5
50 0.534758 0.124418 3.1044 0.5
