ITEM: TIMESTEP
880000
ITEM: NUMBER OF ATOMS
50
ITEM: BOX BOUNDS xy xz yz pp pp pp
0.0000000000000000e+00 3.9685030000000001e+00 0.0000000000000000e+00
0.0000000000000000e+00 3.9685030000000001e+00 0.0000000000000000e+00
0.0000000000000000e+00 3.9685030000000001e+00 0.0000000000000000e+00
ITEM: ATOMS id x y z radius
1 2.44347 2.14234 0.406007 0.5
2 2.99393 2.67265 1.78286 0.5
3 0.467823 0.73782 1.30038 0.5
4 3.42933 3.83555 3.22301 0.5
5 2.37299 0.394306 1.71437 0.5
6 1.12493 3.06049 2.63185 0.5
7 0.893087 2.55171 2.19635 0.5
8 1.4256 0.415011 3.25689 0.5
9 3.16287 0.0880627 0.00676144 0.5
10 1.3085 0.574002 2.16653 0.5
11 3.89431 1.27591 1.18219 0.5
12 1.94829 0.0493562 2.44763 0.5
13 0.889309 3.68411 3.3743 0.5
14 2.6765 1.96073 3.60221 0.5
15 0.588979 3.80339 1.24402 0.5
16 3.71135 0.740814 3.86706 0.5
17 0.120266 0.45612 2.16474 0.5
18 2.8767 3.35245 1.57334 0.5
19 2.93 2.56671 0.289322 0.5
20 2.17987 3.00302 2.15664 0.5
21 2.29008 2.01891 2.03966 0.5
22 2.12275 1.16603 2.09979 0.5
23 0.587828 2.50939 3.63341 0.5
24 2.63364 1.39172 3.92949 0.5
25 3.10224 2.44622 2.59829 0.5
26 3.10943 0.0261448 1.34915 0.5
27 2.25208 1.77826 1.32266 0.5
28 3.53201 1.49412 1.57519 0.5
29 3.71522 1.97419 2.30684 0.5
30 0.703669 0.829771 2.41539 0.5
31 3.926 1.66027 3.88536 0.5
32 2.50896 1.47231 0.570429 0.5
33 0.883023 1.72081 3.27815 0.5
34 3.97847 2.85565 1.6832 0.5
35 1.65451 0.641164 0.0624051 0.5
36 1.90646 3.08393 2.6293 0.5
37 2.48748 0.305096 2.73705 0.5
38 3.22443 0.619544 1.088 0.5
39 3.75349 2.61508 3.40448 0.5
40 3.51782 3.23412 3.06506 0.5
41 2.07835 0.19727 1.0037 0.5
42 3.02491 2.85314 0.688227 0.5
43 0.694197 1.34182 -0.0162141 0.5
44 0.915944 2.48666 1.05224 0.5
45 3.5432 3.9428 0.525061 0.5
46 0.938235 3.18618 1.1069 0.5
47 2.23126 3.60605 0.936375 0.5
48 1.47616 2.52254 0.340475 0.5
49 3.28055 3.63526 2.49524 0.5
50 1.10753 0.212705 1.20314 0.5
