ITEM: TIMESTEP
270000
ITEM: NUMBER OF ATOMS
50
ITEM: BOX BOUNDS xy xz yz pp pp pp
0.0000000000000000e+00 3.9685030000000001e+00 0.0000000000000000e+00
0.0000000000000000e+00 3.9685030000000001e+00 0.0000000000000000e+00
0.0000000000000000e+00 3.9685030000000001e+00 0.0000000000000000e+00
ITEM: ATOMS id x y z radius
1 0.0149281 3.74942 3.01047 0.5
2 2.70116 1.82789 0.529382 0.5
3 1.08402 0.852082 3.2963 0.5
4 2.04078 3.10589 2.3911 0.5
5 1.16625 2.80241 1.35234 0.5
6 1.68055 3.83849 3.00867 0.5
7 0.861521 3.70372 1.89457 0.5
8 1.15735 1.99947 1.30009 0.5
9 3.22008 2.81358 2.57882 0.5
10 2.35771 1.94425 1.58782 0.5
11 2.12961 0.764614 3.28899 0.5
12 0.0046148 2.13795 3.53305 0.5
13 1.96233 1.29663 1.22807 0.5
14 3.17594 3.38749 1.45707 0.5
15 1.39044 0.192379 1.28322 0.5
16 1.90141 3.50614 0.214822 0.5
17 3.21918 3.82092 0.303226 0.5
18 1.88446 0.943277 2.00886 0.5
19 1.40511 0.451849 3.80445 0.5
20 1.7109 3.04733 1.39249 0.5
21 3.20861 3.05213 3.38392 0.5
22 1.94578 2.68883 0.299489 0.5
23 1.97187 3.20015 1.5941 0.5
24 3.00969 2.0982 0.619199 0.5
25 1.49047 2.15717 3.39776 0.5
26 0.387979 0.0427147 1.09183 0.5
27 1.06042 2.46457 2.12876 0.5
28 3.1869 1.53149 3.16454 0.5
29 0.192114 0.612256 1.1182 0.5
30 0.393068 2.01384 1.90903 0.5
31 2.68865 1.71355 2.09909 0.5
32 1.98819 3.52846 3.40244 0.5
33 1.57576 3.06628 0.779472 0.5
34 1.24258 3.55476 2.04231 0.5
35 3.26808 3.71896 2.74442 0.5
36 0.28036 1.5286 1.49089 0.5
37 -0.022344 2.24861 0.27836 0.5
38 0.869934 2.96707 1.94532 0.5
39 0.235376 1.18577 3.77874 0.5
40 0.522195 1.44308 2.5886 0.5
41 2.36522 3.22182 1.11586 0.5
42 2.35187 1.19127 0.661575 0.5
43 0.813986 0.6622 1.49615 0.5
44 2.74931 3.9259 1.85854 0.5
45 0.72861 2.5518 1.31646 0.5
46 1.16256 1.13548 2.87463 0.5
47 3.7537 0.518248 3.32322 0.5
48 3.25592 0.532032 0.613387 0.5
49 1.32886 0.591716 0.249349 0.5
50 1.7644 1.76447 2.76544 0.5
