ITEM: TIMESTEP
190000
ITEM: NUMBER OF ATOMS
50
ITEM: BOX BOUNDS xy xz yz pp pp pp
0.0000000000000000e+00 3.9685030000000001e+00 0.0000000000000000e+00
0.0000000000000000e+00 3.9685030000000001e+00 0.0000000000000000e+00
0.0000000000000000e+00 3.9685030000000001e+00 0.0000000000000000e+00
ITEM: ATOMS id x y z radius
1 0.865678 3.25961 1.72031 0.5
2 0.88237 0.179686 2.34806 0.5
3 3.03784 2.4736 1.90488 0.5
4 3.17917 0.0422841 1.16132 0.5
5 3.81935 0.84524 2.40382 0.5
6 3.92587 1.25358 3.2494 0.5
7 3.29991 3.22322 0.770689 0.5
8 2.46447 2.12042 2.15626 0.5
9 0.0242708 3.21919 3.10817 0.5
10 1.30865 1.22541 1.29861 0.5
11 1.19321 0.69997 0.778255 0.5
12 3.41436 2.37827 3.6567 0.5
13 2.72668 3.00004 3.45084 0.5
14 2.06639 2.83221 1.17466 0.5
15 3.59644 2.45102 2.4339 0.5
16 1.253 2.02563 2.77968 0.5
17 2.276 1.88041 1.35758 0.5
18 1.1534 2.80059 2.61254 0.5
19 3.84943 0.670703 0.89331 0.5
20 0.1442 0.516846 1.37099 0.5
21 2.96902 2.1949 2.4017 0.5
22 2.1415 1.90395 3.12578 0.5
23 0.104719 2.10504 0.186445 0.5
24 3.80321 1.8799 1.45503 0.5
25 3.70899 3.90997 0.688756 0.5
26 2.99068 3.7898 2.41374 0.5
27 0.317369 0.360716 3.29377 0.5
28 1.73684 2.16487 3.8804 0.5
29 0.0847008 0.864108 1.66391 0.5
30 3.85997 0.259858 2.89841 0.5
31 2.51948 2.33534 3.41858 0.5
32 0.953368 2.95252 1.0224 0.5
33 1.06288 0.636444 2.17643 0.5
34 0.491002 2.66515 2.09714 0.5
35 0.94967 2.33909 0.511836 0.5
36 2.09677 0.539815 3.74269 0.5
37 2.79373 0.231974 0.930428 0.5
38 2.87137 0.0380999 3.94657 0.5
39 2.81776 2.11908 0.756862 0.5
40 0.345017 1.7261 1.67402 0.5
41 1.71087 3.79326 2.72521 0.5
42 2.79702 1.00063 2.52395 0.5
43 1.87601 0.320792 2.72864 0.5
44 1.68309 2.01907 2.36234 0.5
45 3.17842 1.69739 0.695189 0.5
46 0.8749 0.334623 0.203055 0.5
47 3.80738 1.20407 1.92884 0.5
48 1.22745 1.41875 2.1213 0.5
49 1.14871 2.41854 0.207074 0.5
50 3.27842 0.932916 1.15294 0.5
