ITEM: TIMESTEP
350000
ITEM: NUMBER OF ATOMS
50
ITEM: BOX BOUNDS xy xz yz pp pp pp
0.0000000000000000e+00 3.9685030000000001e+00 0.0000000000000000e+00
0.0000000000000000e+00 3.9685030000000001e+00 0.0000000000000000e+00
0.0000000000000000e+00 3.9685030000000001e+00 0.0000000000000000e+00
ITEM: ATOMS id x y z radius
1 3.95004 0.245625 3.27497 0.5
2 0.991125 3.51743 3.14434 0.5
3 2.43054 2.91105 2.35427 0.5
4 1.99015 3.93401 1.32662 0.5
5 0.0341284 3.88532 3.8328 0.5
6 3.47486 1.44964 1.34119 0.5
7 0.33527 1.90007 1.14591 0.5
8 2.976 0.258616 3.93759 0.5
9 3.19898 2.34552 0.00424408 0.5
10 1.11714 3.24216 0.205635 0.5
11 1.48278 1.58687 2.80879 0.5
12 2.91799 2.72745 2.84179 0.5
13 0.665301 2.11759 2.89756 0.5
14 2.23954 2.00311 1.99715 0.5
15 3.5709 1.5858 0.371273 0.5
16 3.44272 2.20052 2.36283 0.5
17 0.803494 1.07815 1.73526 0.5
18 0.764417 3.266 2.72328 0.5
19 3.69027 1.05403 1.00291 0.5
20 1.66216 1.99724 1.19646 0.5
21 3.66065 0.749776 2.44788 0.5
22 1.02624 2.36349 2.62967 0.5
23 3.0935 3.10511 2.868 0.5
24 1.8407 3.92475 0.530961 0.5
25 1.53551 0.527254 3.07033 0.5
26 1.39801 1.16395 2.58693 0.5
27 0.0947698 3.2791 1.2611 0.5
28 2.21582 3.01375 3.08101 0.5
29 1.9374 2.02075 2.51343 0.5
30 0.885098 2.66831 0.423704 0.5
31 3.54854 3.07067 1.82308 0.5
32 1.01313 2.67181 0.801966 0.5
33 2.23477 2.78277 0.668088 0.5
34 0.0641642 2.61333 2.62961 0.5
35 0.152659 0.477171 3.78536 0.5
36 0.376524 1.84111 2.15914 0.5
37 2.15333 0.916428 1.23623 0.5
38 2.49923 3.42662 0.999321 0.5
39 3.90471 1.1903 3.56793 0.5
40 1.84753 3.00647 2.76818 0.5
41 3.29029 3.82269 1.25238 0.5
42 3.51883 1.67712 3.44802 0.5
43 1.25997 2.92528 3.13333 0.5
44 3.52516 0.858079 3.23426 0.5
45 2.06099 0.278243 1.86963 0.5
46 3.31385 1.25914 1.05922 0.5
47 0.0216526 1.77187 1.24138 0.5
48 2.96656 2.97528 1.69061 0.5
49 2.33055 1.5989 3.90573 0.5
50 1.20457 1.81146 0.340574 0.5
