ITEM: TIMESTEP
480000
ITEM: NUMBER OF ATOMS
50
ITEM: BOX BOUNDS xy xz yz pp pp pp
0.0000000000000000e+00 3.9685030000000001e+00 0.0000000000000000e+00
0.0000000000000000e+00 3.9685030000000001e+00 0.0000000000000000e+00
0.0000000000000000e+00 3.9685030000000001e+00 0.0000000000000000e+00
ITEM: ATOMS id x y z radius
1 3.58775 3.31325 0.873944 0.5
2 0.318185 1.87868 1.10014 0.5
3 2.07091 3.77514 2.4716 0.5
4 3.4747 0.840102 1.62695 0.5
5 2.47606 3.61501 1.81491 0.5
6 3.3255 0.139688 3.2536 0.5
7 3.25935 1.30387 1.21265 0.5
8 1.77672 0.0799634 3.10628 0.5
9 1.69255 2.16315 0.539344 0.5
10 0.970265 2.24105 0.551913 0.5
11 0.0339419 0.153005 1.75925 0.5
12 0.949222 1.62609 1.08735 0.5
13 3.51475 2.59946 3.54929 0.5
14 0.351422 0.298698 3.44488 0.5
15 1.79352 0.0132326 3.81534 0.5
16 0.722983 0.348064 0.915286 0.5
17 3.41815 2.25821 2.33361 0.5
18 0.251638 3.68293 0.479097 0.5
19 2.39039 3.27898 2.7655 0.5
20 0.205477 3.11679 3.10963 0.5
21 0.501525 2.64175 1.11646 0.5
22 2.3527 1.84835 2.06749 0.5
23 0.682323 2.71584 1.79792 0.5
24 1.30107 3.70749 0.644319 0.5
25 1.8285 2.46906 0.0658271 0.5
26 0.33072 0.511286 2.05624 0.5
27 2.56229 2.64951 1.72721 0.5
28 0.309606 2.77927 0.373975 0.5
29 0.723216 1.67691 3.01338 0.5
30 0.40542 2.15881 3.12263 0.5
31 2.27382 1.71073 1.45009 0.5
32 1.569 3.9021 2.29423 0.5
33 3.93613 0.393153 1.19321 0.5
34 1.69109 2.53047 1.59319 0.5
35 1.34981 0.808037 2.68495 0.5
36 2.96621 3.654 3.91022 0.5
37 1.75235 3.38089 2.51652 0.5
38 1.89717 0.357869 1.19107 0.5
39 2.73852 2.67457 3.54459 0.5
40 0.516261 3.88127 2.64808 0.5
41 3.21632 3.44393 3.19572 0.5
42 1.50129 1.25188 0.599466 0.5
43 3.23619 0.369559 0.794226 0.5
44 1.96201 3.72959 0.932312 0.5
45 1.05675 2.40333 1.83625 0.5
46 2.63904 1.68456 3.42706 0.5
47 1.27143 2.86932 3.77496 0.5
48 0.796427 0.340983 0.119998 0.5
49 1.8334 1.07803 0.0376238 0.5
50 3.02292 2.78082 2.05511 0.5
