ITEM: TIMESTEP
760000
ITEM: NUMBER OF ATOMS
50
ITEM: BOX BOUNDS xy xz yz pp pp pp
0.0000000000000000e+00 3.9685030000000001e+00 0.0000000000000000e+00
0.0000000000000000e+00 3.9685030000000001e+00 0.0000000000000000e+00
0.0000000000000000e+00 3.9685030000000001e+00 0.0000000000000000e+00
ITEM: ATOMS id x y z radius
1 0.609309 3.20566 1.40744 0.5
2 3.64578 3.26696 3.76002 0.5
3 3.4941 1.89866 0.999747 0.5
4 3.21818 3.83126 3.93104 0.5
5 2.42565 0.122274 2.16614 0.5
6 1.32779 1.4111 3.148 0.5
7 3.11859 1.27994 2.93161 0.5
8 3.43716 1.87597 1.99475 0.5
9 3.42771 3.70628 2.83203 0.5
10 2.21777 0.560827 0.044761 0.5
11 2.91818 1.55555 3.42635 0.5
12 2.59447 1.99544 2.21252 0.5
13 3.41259 1.82405 0.0267181 0.5
14 2.12753 3.24139 1.95737 0.5
15 2.68497 2.88517 1.23422 0.5
16 0.729664 3.21887 2.15873 0.5
17 2.59938 2.36644 0.245311 0.5
18 0.835701 2.29464 0.636013 0.5
19 1.62465 2.12149 2.8777 0.5
20 1.50283 3.81046 0.83882 0.5
21 0.0225269 2.16148 0.590851 0.5
22 1.35725 1.22391 0.636429 0.5
23 2.16577 0.239904 2.73166 0.5
24 2.33476 0.644121 2.60231 0.5
25 2.05136 2.958 3.58579 0.5
26 3.06027 0.783346 2.93188 0.5
27 3.57733 0.314293 2.13277 0.5
28 2.85574 1.40002 0.75793 0.5
29 0.966662 0.598355 1.57153 0.5
30 3.31331 0.233552 1.36419 0.5
31 3.74901 1.38134 2.83688 0.5
32 0.143667 3.08557 1.26476 0.5
33 0.116354 1.07766 1.08634 0.5
34 0.37384 2.28463 1.503 0.5
35 3.09855 0.986784 0.0460333 0.5
36 1.65641 3.82358 2.53207 0.5
37 2.01431 0.672039 1.39119 0.5
38 0.320425 1.69338 3.2081 0.5
39 1.87539 1.33749 3.07454 0.5
40 0.672719 0.270988 3.15547 0.5
41 1.09317 2.17234 3.70251 0.5
42 2.15663 3.79172 1.2919 0.5
43 3.14634 1.33401 3.92552 0.5
44 2.78578 3.50337 0.542899 0.5
45 3.35187 2.74402 1.66179 0.5
46 0.29681 3.81893 2.8657 0.5
47 2.87181 2.15988 0.795989 0.5
48 0.45959 2.72371 2.56789 0.5
49 0.778588 0.383677 1.28578 0.5
50 0.0942801 2.88567 3.09044 0.5
