ITEM: TIMESTEP
840000
ITEM: NUMBER OF ATOMS
50
ITEM: BOX BOUNDS xy xz yz pp pp pp
0.0000000000000000e+00 3.9685030000000001e+00 0.0000000000000000e+00
0.0000000000000000e+00 3.9685030000000001e+00 0.0000000000000000e+00
0.0000000000000000e+00 3.9685030000000001e+00 0.0000000000000000e+00
ITEM: ATOMS id x y z radius
1 1.26586 0.701968 1.63873 0.5
2 0.718794 2.83537 3.17585 0.5
3 3.82403 3.24478 2.35927 0.5
4 3.71811 0.145678 0.0875395 0.5
5 2.31425 0.787718 1.95781 0.5
6 3.04446 0.204268 1.66292 0.5
7 3.15646 2.28201 2.95896 0.5
8 2.80007 3.80297 3.0688 0.5
9 2.63852 3.73284 2.91553 0.5
10 0.413157 1.21916 0.78846 0.5
11 1.59243 3.88438 2.52686 0.5
12 3.70654 3.9471 2.40718 0.5
13 3.91634 2.1966 0.955979 0.5
14 0.404505 1.81871 2.72717 0.5
15 2.1079 3.04853 1.24464 0.5
16 0.477743 1.58132 3.60726 0.5
17 1.59005 2.55853 2.74738 0.5
18 3.69416 1.21581 3.79662 0.5
19 3.16633 3.40341 0.380496 0.5
20 0.218018 0.0368946 1.70331 0.5
21 3.82632 2.95311 0.0761587 0.5
22 2.98877 1.2579 2.6761 0.5
23 0.992829 1.91827 2.4065 0.5
24 0.885505 2.94554 0.802889 0.5
25 0.0823387 3.74861 3.64219 0.5
26 3.9234 2.79329 1.33986 0.5
27 3.81354 2.02157 0.316399 0.5
28 3.36519 1.66329 0.748804 0.5
29 2.78229 3.5399 0.54265 0.5
30 1.12195 2.81714 0.204769 0.5
31 3.73911 0.425435 2.43163 0.5
32 1.41058 0.823711 1.11691 0.5
33 0.566276 0.457464 -0.0204844 0.5
34 2.68314 0.57504 3.37024 0.5
35 3.17337 2.66672 1.55569 0.5
36 3.98054 0.719204 2.85242 0.5
37 0.884792 3.89764 1.86744 0.5
38 1.15874 2.24022 3.73759 0.5
39 1.9894 0.525284 1.86613 0.5
40 2.5101 1.3342 3.21403 0.5
41 1.27266 2.5903 2.14249 0.5
42 1.73373 1.43855 3.50703 0.5
43 3.51558 0.730011 3.43059 0.5
44 3.14 3.85002 0.542329 0.5
45 2.19354 3.16597 2.82843 0.5
46 2.26593 2.40558 2.97427 0.5
47 1.21877 1.04149 0.27391 0.5
48 1.86113 2.30795 0.258982 0.5
49 1.4986 3.09784 0.601703 0.5
50 3.27216 0.529443 1.57649 0.5
