ITEM: TIMESTEP
990000
ITEM: NUMBER OF ATOMS
50
ITEM: BOX BOUNDS xy xz yz pp pp pp
0.0000000000000000e+00 3.9685030000000001e+00 0.0000000000000000e+00
0.0000000000000000e+00 3.9685030000000001e+00 0.0000000000000000e+00
0.0000000000000000e+00 3.9685030000000001e+00 0.0000000000000000e+00
ITEM: ATOMS id x y z radius
1 1.55841 3.72386 2.35275 0.5
2 0.478265 2.26484 0.135119 0.5
3 1.27937 2.57494 0.969614 0.5
4 3.32884 2.98926 2.30767 0.5
5 1.35651 2.15476 2.0011 0.5
6 3.8279 1.11903 2.51784 0.5
7 0.716606 2.57694 3.89306 0.5
8 0.546489 1.71626 3.47242 0.5
9 3.23094 0.00893369 3.93715 0.5
10 2.64649 1.84375 1.35671 0.5
11 1.17278 3.42518 0.0652105 0.5
12 0.589454 0.822393 2.82557 0.5
13 1.68862 1.19666 1.9347 0.5
14 3.59358 2.42594 3.80295 0.5
15 3.31044 2.38661 1.73172 0.5
16 3.57854 1.39231 1.21513 0.5
17 0.424652 3.11366 2.5627 0.5
18 2.31677 1.965 3.808 0.5
19 1.78302 3.64615 2.72517 0.5
20 1.79948 3.43959 3.18507 0.5
21 0.94138 2.47099 2.9903 0.5
22 0.610701 1.42215 2.61833 0.5
23 3.56692 0.185373 1.73039 0.5
24 2.56902 3.48362 2.74812 0.5
25 3.34902 2.60184 0.86911 0.5
26 0.799013 2.19125 1.49568 0.5
27 1.41874 0.888274 0.62903 0.5
28 2.2994 1.50538 0.386943 0.5
29 1.83786 0.862483 1.40893 0.5
30 0.326933 3.12569 0.352013 0.5
31 2.10998 1.94774 0.0433929 0.5
32 2.05598 2.35917 1.72848 0.5
33 1.0825 2.17629 3.02886 0.5
34 3.00411 2.10327 1.15566 0.5
35 0.229372 1.50692 1.98434 0.5
36 1.93807 2.80341 3.81036 0.5
37 3.81258 3.23542 2.83183 0.5
38 3.39875 3.52189 0.902617 0.5
39 3.09314 2.26906 3.4523 0.5
40 0.64406 1.75076 0.215634 0.5
41 0.633153 3.59281 1.40682 0.5
42 3.34844 1.68367 3.29507 0.5
43 3.25343 1.87515 2.4385 0.5
44 2.66543 2.92578 1.18141 0.5
45 1.40751 0.819536 0.813341 0.5
46 0.265686 2.28888 0.767967 0.5
47 2.57086 3.38856 1.91561 0.5
48 2.79965 2.37991 2.53006 0.5
49 2.53554 1.00308 3.4426 0.5
50 2.91814 -0.0572337 0.590075 0.5
