ITEM: TIMESTEP
100000
ITEM: NUMBER OF ATOMS
50
ITEM: BOX BOUNDS xy xz yz pp pp pp
0.0000000000000000e+00 3.9685030000000001e+00 0.0000000000000000e+00
0.0000000000000000e+00 3.9685030000000001e+00 0.0000000000000000e+00
0.0000000000000000e+00 3.9685030000000001e+00 0.0000000000000000e+00
ITEM: ATOMS id x y z radius
1 1.09529 2.28001 3.74698 0.5
2 2.64779 2.93184 2.92706 0.5
3 3.21654 3.20221 2.79252 0.5
4 1.30847 3.12571 3.57516 0.5
5 2.17189 3.70314 0.662129 0.5
6 0.451487 2.79462 3.30037 0.5
7 0.237536 3.28099 1.8778 0.5
8 3.08055 3.76677 3.84812 0.5
9 2.41448 3.5815 2.5282 0.5
10 2.6223 -0.00499739 1.16862 0.5
11 1.517 1.49556 1.13299 0.5
12 0.0509671 3.56888 0.542969 0.5
13 1.44664 3.38016 0.177766 0.5
14 3.31369 2.43511 1.18284 0.5
15 3.28213 1.31236 2.91197 0.5
16 0.807209 1.01189 0.596395 0.5
17 3.66357 3.73875 0.64083 0.5
18 1.00968 2.06893 1.26056 0.5
19 2.02964 3.95294 2.00309 0.5
20 3.80163 0.530406 3.36364 0.5
21 2.06105 2.57555 2.63546 0.5
22 1.68211 0.812289 3.26663 0.5
23 1.42093 0.611379 1.48346 0.5
24 0.748199 0.765975 3.73107 0.5
25 1.53419 3.71907 2.51994 0.5
26 0.623164 3.75014 3.85632 0.5
27 1.23375 2.04358 2.53913 0.5
28 1.77848 2.21493 1.51359 0.5
29 3.38475 0.970486 1.34939 0.5
30 3.77877 1.81812 3.05959 0.5
31 0.527299 3.32283 3.37102 0.5
32 2.76093 2.59169 0.490204 0.5
33 0.300926 1.93335 0.971376 0.5
34 3.89917 0.617417 2.12708 0.5
35 1.56946 3.48662 1.7213 0.5
36 1.60808 3.22066 3.22405 0.5
37 2.61227 2.71702 0.121756 0.5
38 2.80637 3.3012 0.549785 0.5
39 2.06734 3.17122 0.957324 0.5
40 1.98734 1.93046 1.95118 0.5
41 3.72845 2.01819 2.90506 0.5
42 3.06972 1.58509 1.60669 0.5
43 0.456233 1.92589 0.172857 0.5
44 0.441844 0.0459916 2.13789 0.5
45 2.55658 1.32606 3.63261 0.5
46 0.818303 3.91109 0.594785 0.5
47 3.73735 3.71484 3.6773 0.5
48 3.75477 2.80061 0.674984 0.5
49 3.92723 1.24626 0.304544 0.5
50 3.63747 2.69793 2.17704 0.5
