ITEM: TIMESTEP
960000
ITEM: NUMBER OF ATOMS
50
ITEM: BOX BOUNDS xy xz yz pp pp pp
0.0000000000000000e+00 3.9685030000000001e+00 0.0000000000000000e+00
0.0000000000000000e+00 3.9685030000000001e+00 0.0000000000000000e+00
0.0000000000000000e+00 3.9685030000000001e+00 0.0000000000000000e+00
ITEM: ATOMS id x y z radius
1 1.95857 0.197585 0.861312 0.5
2 0.647201 0.528157 1.94411 0.5
3 3.54758 0.877809 0.0412012 0.5
4 2.82965 2.5779 2.2339 0.5
5 0.432233 3.40463 1.86845 0.5
6 3.58473 2.94988 3.88733 0.5
7 0.728032 3.64354 1.44611 0.5
8 2.24869 3.17457 0.769028 0.5
9 0.146258 1.17711 1.69349 0.5
10 2.71845 2.92358 1.45907 0.5
11 0.0520776 0.883589 3.51531 0.5
12 2.67285 2.87769 0.68442 0.5
13 1.17611 1.46793 0.0743004 0.5
14 2.21043 2.03044 2.22327 0.5
15 2.8997 2.33364 3.13373 0.5
16 2.40493 0.361228 3.07592 0.5
17 3.35718 3.11772 1.66259 0.5
18 1.10499 2.20733 2.61009 0.5
19 2.67606 1.71542 1.22404 0.5
20 2.71296 2.32228 3.92875 0.5
21 1.42187 0.718482 2.46415 0.5
22 0.361978 1.60081 2.75576 0.5
23 0.08522 1.23144 2.05071 0.5
24 1.17137 0.39659 1.34393 0.5
25 0.530162 2.25225 3.03236 0.5
26 1.22166 0.181647 0.271689 0.5
27 2.29816 2.88334 2.51097 0.5
28 0.625329 1.08638 3.64838 0.5
29 1.87465 0.642086 1.11896 0.5
30 2.95027 3.64281 3.40125 0.5
31 2.85276 1.63264 3.03811 0.5
32 2.96108 0.104416 3.20377 0.5
33 1.69332 3.16893 1.57133 0.5
34 2.02969 2.34906 2.96231 0.5
35 0.227619 3.24384 0.834027 0.5
36 2.61446 3.52953 2.67411 0.5
37 0.137075 0.692342 3.7864 0.5
38 0.1852 2.95544 3.80202 0.5
39 0.724283 3.49948 2.5127 0.5
40 0.165302 1.8191 1.35152 0.5
41 3.01231 1.82457 0.133552 0.5
42 0.0460603 0.306424 2.41016 0.5
43 0.847569 1.77544 0.432595 0.5
44 3.29687 1.24674 3.35942 0.5
45 1.66524 -0.0458584 2.20101 0.5
46 1.96851 3.08366 3.08358 0.5
47 1.6902 1.79961 0.53575 0.5
48 2.82072 0.348608 0.986364 0.5
49 2.22889 1.36537 1.78863 0.5
50 1.02197 1.116 1.92996 0.5
