ITEM: TIMESTEP
900000
ITEM: NUMBER OF ATOMS
50
ITEM: BOX BOUNDS xy xz yz pp pp pp
0.0000000000000000e+00 3.9685030000000001e+00 0.0000000000000000e+00
0.0000000000000000e+00 3.9685030000000001e+00 0.0000000000000000e+00
0.0000000000000000e+00 3.9685030000000001e+00 0.0000000000000000e+00
ITEM: ATOMS id x y z radius
1 2.51309 0.748741 1.27941 0.5
2 3.19332 2.5908 1.14195 0.5
3 3.03901 1.69767 3.25453 0.5
4 0.752224 0.353136 2.54683 0.5
5 0.131656 3.80655 1.17344 0.5
6 2.68851 0.887535 2.90615 0.5
7 1.10904 1.11936 2.59657 0.5
8 2.32907 3.95041 1.8019 0.5
9 2.90454 0.597804 3.96751 0.5
10 0.112773 1.04288 0.99726 0.5
11 2.1578 0.23535 0.241712 0.5
12 2.43809 1.16932 0.731178 0.5
13 2.15839 0.993664 0.459468 0.5
14 1.34029 3.89853 1.23385 0.5
15 0.446151 3.20493 0.0658175 0.5
16 2.76098 0.172623 3.59522 0.5
17 1.03967 2.56667 3.67893 0.5
18 2.92288 2.09378 2.11386 0.5
19 3.10394 3.0846 0.792755 0.5
20 2.02594 2.2415 1.21495 0.5
21 3.54283 1.67275 0.799993 0.5
22 3.61838 3.04305 3.26012 0.5
23 3.73599 2.38956 3.34103 0.5
24 0.30136 0.874733 2.70928 0.5
25 0.72567 2.69932 1.40443 0.5
26 1.84459 2.41133 0.488419 0.5
27 0.761385 3.72675 1.22664 0.5
28 3.61654 1.79665 1.15451 0.5
29 3.47159 3.52686 1.54571 0.5
30 2.52077 2.92011 3.28031 0.5
31 0.62051 1.78528 0.0847851 0.5
32 3.88975 2.04278 2.97396 0.5
33 2.59826 3.60957 2.04001 0.5
34 3.58804 0.6788 1.03265 0.5
35 3.67972 3.77177 3.35309 0.5
36 3.99004 3.05834 3.10135 0.5
37 1.26858 1.60221 1.19854 0.5
38 2.9773 1.62123 2.74232 0.5
39 1.78695 3.2749 3.90082 0.5
40 3.53781 2.72623 1.38791 0.5
41 3.5167 0.502304 1.97808 0.5
42 2.36173 3.02443 1.69214 0.5
43 3.61822 0.42754 2.99541 0.5
44 2.19625 3.23809 0.48417 0.5
45 3.13933 1.56577 1.5398 0.5
46 2.14622 3.72274 3.66428 0.5
47 0.251668 1.53716 2.22916 0.5
48 1.71347 2.81515 3.36536 0.5
49 0.717228 0.733416 1.925 0.5
50 1.71378 3.84252 2.87085 0.5
