ITEM: TIMESTEP
710000
ITEM: NUMBER OF ATOMS
50
ITEM: BOX BOUNDS xy xz yz pp pp pp
0.0000000000000000e+00 3.9685030000000001e+00 0.0000000000000000e+00
0.0000000000000000e+00 3.9685030000000001e+00 0.0000000000000000e+00
0.0000000000000000e+00 3.9685030000000001e+00 0.0000000000000000e+00
ITEM: ATOMS id x y z radius
1 3.22464 3.57384 1.11629 0.5
2 1.75781 1.28782 1.03083 0.5
3 2.81431 3.34736 1.54978 0.5
4 3.52635 3.51699 0.311341 0.5
5 3.76578 0.788278 2.91928 0.5
6 2.03666 2.85348 1.41216 0.5
7 0.966105 3.03471 2.17028 0.5
8 1.41167 3.96518 1.92598 0.5
9 1.36799 0.496559 0.261891 0.5
10 1.69228 2.78542 0.776449 0.5
11 2.95249 2.58021 0.446993 0.5
12 2.16952 3.74447 3.84128 0.5
13 3.68566 2.01321 1.72539 0.5
14 1.91928 1.59483 2.27644 0.5
15 3.38217 1.20961 1.32771 0.5
16 1.34591 1.26906 2.19219 0.5
17 0.737834 0.846422 0.736018 0.5
18 3.81634 0.923124 1.03639 0.5
19 2.08068 1.34396 3.28225 0.5
20 3.75649 2.76122 1.23628 0.5
21 1.08298 1.13151 3.69741 0.5
22 0.755926 3.86592 0.571328 0.5
23 2.95579 0.213041 2.1041 0.5
24 3.49674 2.7449 2.18503 0.5
25 2.61559 2.31755 1.63969 0.5
26 2.68416 0.511738 2.69814 0.5
27 0.800503 3.81759 1.60462 0.5
28 0.108624 3.75403 3.41431 0.5
29 0.204127 1.18797 2.62002 0.5
30 3.04739 2.36472 2.19314 0.5
31 1.74818 2.46756 3.09816 0.5
32 3.15594 2.2105 1.52704 0.5
33 2.16344 3.12033 0.690514 0.5
34 2.53766 2.85243 2.89827 0.5
35 2.90503 3.21585 2.55259 0.5
36 3.66418 0.405849 0.455285 0.5
37 2.65425 0.544979 0.935099 0.5
38 1.67282 1.81188 1.7592 0.5
39 1.85212 2.9968 3.92717 0.5
40 0.560271 3.42928 2.16774 0.5
41 0.257219 0.634999 1.58874 0.5
42 2.28428 0.925658 1.44449 0.5
43 2.7372 1.78065 2.56038 0.5
44 1.15669 0.198917 2.65458 0.5
45 2.81667 3.73766 3.60415 0.5
46 0.508341 1.24664 3.64418 0.5
47 1.27851 0.555577 3.18966 0.5
48 1.18084 2.17436 3.83263 0.5
49 1.64073 2.49259 0.628248 0.5
50 1.74483 0.481487 2.1023 0.5
