ITEM: TIMESTEP
630000
ITEM: NUMBER OF ATOMS
50
ITEM: BOX BOUNDS xy xz yz pp pp pp
0.0000000000000000e+00 3.9685030000000001e+00 0.0000000000000000e+00
0.0000000000000000e+00 3.9685030000000001e+00 0.0000000000000000e+00
0.0000000000000000e+00 3.9685030000000001e+00 0.0000000000000000e+00
ITEM: ATOMS id x y z radius
1 3.83843 1.32341 2.63753 0.5
2 0.411582 0.613964 0.1062 0.5
3 2.95135 1.81268 0.315199 0.5
4 3.6532 2.31633 3.40646 0.5
5 0.684327 1.4754 2.18677 0.5
6 3.67578 1.07694 0.0774863 0.5
7 0.792528 3.38415 2.76992 0.5
8 2.81995 1.93772 3.05687 0.5
9 3.50724 0.16434 1.37107 0.5
10 0.912663 2.35262 1.99439 0.5
11 0.596767 3.01742 2.28704 0.5
12 0.18004 1.30992 0.543745 0.5
13 1.33217 3.84715 3.52377 0.5
14 2.61131 1.46396 0.785589 0.5
15 0.531586 2.70623 3.6148 0.5
16 3.15693 3.30761 3.10051 0.5
17 2.17567 3.60467 0.05901 0.5
18 1.56173 2.78146 1.0116 0.5
19 3.52741 1.42897 0.797316 0.5
20 3.21728 0.0980837 4.00113 0.5
21 2.44652 3.77085 3.56684 0.5
22 1.71287 3.78965 1.70169 0.5
23 1.10395 0.746269 1.65664 0.5
24 0.733376 2.23232 3.65782 0.5
25 0.991519 1.79483 0.908108 0.5
26 1.77562 1.02762 0.363406 0.5
27 1.81922 2.10989 2.82858 0.5
28 0.79046 3.43871 1.22942 0.5
29 0.934553 0.84899 3.04733 0.5
30 1.65209 2.52442 1.97132 0.5
31 0.511002 2.09608 0.56713 0.5
32 -0.00259481 3.54709 1.91096 0.5
33 3.08039 0.73821 1.45061 0.5
34 2.26101 0.97941 2.25466 0.5
35 0.301429 2.25295 2.12794 0.5
36 3.14541 2.77175 2.3171 0.5
37 3.51877 3.20332 0.784335 0.5
38 1.45846 2.55772 3.43965 0.5
39 3.48234 1.30499 2.9953 0.5
40 3.6577 2.85627 2.72788 0.5
41 1.08523 0.41528 2.73397 0.5
42 2.57586 2.98404 2.87227 0.5
43 0.279073 2.44268 2.65556 0.5
44 0.888818 0.317648 1.75863 0.5
45 1.68831 3.83936 0.0132166 0.5
46 2.08867 3.28053 0.801565 0.5
47 3.82574 0.874774 1.86469 0.5
48 3.18795 0.748851 0.642929 0.5
49 0.166601 3.13487 3.73947 0.5
50 3.44572 0.476321 3.32799 0.5
