ITEM: TIMESTEP
870000
ITEM: NUMBER OF ATOMS
50
ITEM: BOX BOUNDS xy xz yz pp pp pp
0.0000000000000000e+00 3.9685030000000001e+00 0.0000000000000000e+00
0.0000000000000000e+00 3.9685030000000001e+00 0.0000000000000000e+00
0.0000000000000000e+00 3.9685030000000001e+00 0.0000000000000000e+00
ITEM: ATOMS id x y z radius
1 1.64204 0.572407 2.8196 0.5
2 0.575824 1.83451 0.74387 0.5
3 3.70496 3.64066 2.57542 0.5
4 2.9348 1.38932 2.49605 0.5
5 3.59303 0.0130149 1.54092 0.5
6 0.123167 1.43533 0.523156 0.5
7 3.15567 2.6946 1.81902 0.5
8 3.85475 3.39898 0.741866 0.5
9 3.19426 0.57295 3.68824 0.5
10 1.59497 2.45706 3.30282 0.5
11 1.5676 1.6026 0.719181 0.5
12 1.14353 2.06963 1.94863 0.5
13 3.63655 1.86782 0.608144 0.5
14 2.81425 0.462193 0.870272 0.5
15 1.27308 1.73108 3.01753 0.5
16 2.85711 1.1703 3.19634 0.5
17 3.25074 3.34828 0.765167 0.5
18 0.240108 0.829137 2.48358 0.5
19 1.14696 3.88585 2.07234 0.5
20 3.67725 3.02493 2.14342 0.5
21 2.03117 0.104366 3.63054 0.5
22 2.55066 2.21334 1.18119 0.5
23 1.74936 1.0785 3.23245 0.5
24 2.99678 0.953934 0.546066 0.5
25 1.58018 3.2988 2.76709 0.5
26 0.955234 3.06842 2.56319 0.5
27 0.672989 2.45535 3.38933 0.5
28 2.33542 3.36631 1.26806 0.5
29 1.80498 0.734543 0.0553034 0.5
30 0.224186 1.43353 3.27415 0.5
31 0.396954 0.961789 3.80995 0.5
32 2.47758 0.594133 2.53985 0.5
33 3.40609 0.583522 0.463126 0.5
34 1.14707 0.853997 3.86028 0.5
35 3.60968 3.43474 1.92229 0.5
36 3.64966 0.12651 3.42214 0.5
37 0.60769 2.83405 1.23419 0.5
38 0.641315 3.47541 0.901764 0.5
39 0.0467767 1.87737 1.51856 0.5
40 1.4135 0.550628 1.1571 0.5
41 2.7288 3.53765 3.06382 0.5
42 2.15507 2.34017 1.77541 0.5
43 2.55296 1.39104 3.31642 0.5
44 2.66745 3.02107 1.64879 0.5
45 1.67902 3.90262 3.05359 0.5
46 3.01535 0.470822 2.01424 0.5
47 1.96683 3.27739 3.50239 0.5
48 2.62824 3.82796 2.3957 0.5
49 2.2554 2.81365 2.5185 0.5
50 2.75394 2.57794 3.39938 0.5
