ITEM: TIMESTEP
450000
ITEM: NUMBER OF ATOMS
50
ITEM: BOX BOUNDS xy xz yz pp pp pp
0.0000000000000000e+00 3.9685030000000001e+00 0.0000000000000000e+00
0.0000000000000000e+00 3.9685030000000001e+00 0.0000000000000000e+00
0.0000000000000000e+00 3.9685030000000001e+00 0.0000000000000000e+00
ITEM: ATOMS id x y z radius
1 1.40502 2.7696 0.189807 0.5
2 1.61808 0.177596 0.15665 0.5
3 1.87549 0.711499 3.4538 0.5
4 2.08106 0.285644 2.77199 0.5
5 3.51337 3.89003 1.97813 0.5
6 0.0243981 1.33008 3.15613 0.5
7 2.8511 3.65069 2.31119 0.5
8 0.939166 1.45271 3.26076 0.5
9 0.449763 1.66598 3.13332 0.5
10 1.81134 0.18557 0.934671 0.5
11 0.84495 1.68587 3.94128 0.5
12 3.58433 0.379956 0.297478 0.5
13 3.29612 0.392126 -0.0168567 0.5
14 2.0098 2.94541 1.99939 0.5
15 1.69823 1.26911 0.159416 0.5
16 2.62756 3.62416 0.938962 0.5
17 3.66141 1.20101 1.39537 0.5
18 1.84019 3.42634 1.53048 0.5
19 2.77707 1.90787 3.86861 0.5
20 0.102743 1.02744 1.32852 0.5
21 1.82934 3.54832 0.422267 0.5
22 3.49016 2.99122 3.16167 0.5
23 3.91903 2.29959 0.251301 0.5
24 0.542403 2.40563 0.800617 0.5
25 3.72164 1.68131 0.934558 0.5
26 3.20355 3.35761 0.722619 0.5
27 2.73024 1.80764 2.60035 0.5
28 1.0599 2.30827 2.56249 0.5
29 1.63944 2.26598 2.19167 0.5
30 2.98552 0.0303144 0.717004 0.5
31 1.00428 2.29681 1.439 0.5
32 2.79571 3.82381 3.43205 0.5
33 1.3228 2.33257 0.883078 0.5
34 2.66205 1.45117 0.636859 0.5
35 2.97407 1.06282 3.55209 0.5
36 3.04664 1.74561 0.859244 0.5
37 2.70062 1.31666 1.19053 0.5
38 0.336318 1.17922 2.14043 0.5
39 0.78967 2.95373 3.38603 0.5
40 3.51117 0.702787 2.78613 0.5
41 0.156199 1.99801 3.03463 0.5
42 1.98634 2.92341 0.754527 0.5
43 1.59067 3.82102 2.31728 0.5
44 0.950315 1.17014 1.90701 0.5
45 3.82854 3.48974 1.45606 0.5
46 0.970989 2.99867 1.23125 0.5
47 0.118011 2.73814 0.863365 0.5
48 2.12545 3.12915 3.7964 0.5
49 2.50172 2.28014 2.70142 0.5
50 1.20853 3.0405 2.10538 0.5
