ITEM: TIMESTEP
34
ITEM: NUMBER OF ATOMS
50
ITEM: BOX BOUNDS xy xz yz pp pp pp
0.0000000000000000e+00 3.9685030000000001e+00 0.0000000000000000e+00
0.0000000000000000e+00 3.9685030000000001e+00 0.0000000000000000e+00
0.0000000000000000e+00 3.9685030000000001e+00 0.0000000000000000e+00
ITEM: ATOMS id x y z radius
1 2.92133 0.0591833 3.92662 0.5
2 1.90049 2.83509 0.506028 0.5
3 2.37668 0.981399 0.874849 0.5
4 2.03018 3.30695 0.136461 0.5
5 0.871637 2.85075 1.88425 0.5
6 1.49203 0.929657 3.34923 0.5
7 0.754452 1.29872 2.10822 0.5
8 3.38336 3.04096 3.64859 0.5
9 1.6409 3.80875 3.14133 0.5
10 0.117042 1.56312 1.17672 0.5
11 2.02165 1.27794 0.188849 0.5
12 3.12578 0.354671 2.59706 0.5
13 0.373759 0.539084 1.31233 0.5
14 0.309358 1.967 2.43529 0.5
15 1.05043 1.8294 3.35671 0.5
16 0.223411 3.30141 0.777098 0.5
17 0.723605 1.43041 0.582415 0.5
18 1.28783 1.91471 0.988968 0.5
19 2.84926 1.75769 0.169221 0.5
20 2.04754 2.83422 2.34337 0.5
21 0.100414 0.893003 0.958112 0.5
22 1.10933 2.87521 3.9274 0.5
23 0.63454 2.80767 3.15907 0.5
24 1.79439 0.762572 3.20937 0.5
25 0.121561 3.81232 1.30689 0.5
26 0.143983 0.441301 3.71745 0.5
27 2.05627 1.13482 2.0534 0.5
28 2.02233 3.20613 3.57869 0.5
29 2.56367 1.95538 1.30079 0.5
30 2.38475 3.59511 1.53829 0.5
31 2.59363 3.54139 2.51433 0.5
32 3.19432 3.4399 2.81676 0.5
33 2.10411 3.39308 3.07137 0.5
34 0.118511 3.39191 2.65266 0.5
35 3.0303 1.53538 2.68612 0.5
36 2.54919 0.549355 0.819046 0.5
37 0.970482 0.000654909 3.80842 0.5
38 1.47619 2.39039 3.62718 0.5
39 3.57122 1.56099 1.78752 0.5
40 3.64518 0.995521 0.437526 0.5
41 0.245645 3.03041 2.59556 0.5
42 2.36904 0.126037 1.42931 0.5
43 0.470195 3.21104 1.40506 0.5
44 0.156899 2.78418 1.65582 0.5
45 3.95715 3.85684 0.990725 0.5
46 0.123529 0.977153 2.83062 0.5
47 2.2975 2.60369 3.78404 0.5
48 0.609637 0.491347 0.0785505 0.5
49 0.301285 3.1709 0.631235 0.5
50 2.65402 2.71391 3.657 0.5
