ITEM: TIMESTEP
810000
ITEM: NUMBER OF ATOMS
50
ITEM: BOX BOUNDS xy xz yz pp pp pp
0.0000000000000000e+00 3.9685030000000001e+00 0.0000000000000000e+00
0.0000000000000000e+00 3.9685030000000001e+00 0.0000000000000000e+00
0.0000000000000000e+00 3.9685030000000001e+00 0.0000000000000000e+00
ITEM: ATOMS id x y z radius
1 2.14883 0.227494 1.41656 0.5
2 0.747536 1.4678 0.442889 0.5
3 1.24614 1.31359 3.89421 0.5
4 3.27646 0.108172 3.40486 0.5
5 0.0340272 3.93212 2.6735 0.5
6 1.26844 0.834867 1.13293 0.5
7 1.61053 2.44609 0.823777 0.5
8 2.78141 2.2193 0.744981 0.5
9 3.41425 3.71676 0.436851 0.5
10 0.60864 0.61761 2.68362 0.5
11 2.39115 0.698653 3.58679 0.5
12 3.09835 0.16254 2.37886 0.5
13 1.76424 1.58956 1.47252 0.5
14 1.77283 2.32107 2.42953 0.5
15 2.71633 0.76757 2.18887 0.5
16 1.10973 0.653586 1.81722 0.5
17 0.542115 2.0777 0.894333 0.5
18 3.68801 0.196155 3.95462 0.5
19 2.96564 2.72283 3.36531 0.5
20 3.56674 2.0256 2.3481 0.5
21 2.50715 1.76376 2.39131 0.5
22 0.848589 1.83759 1.42735 0.5
23 0.500896 0.672548 3.96763 0.5
24 2.72519 0.976194 0.699209 0.5
25 3.898 1.92259 0.329852 0.5
26 1.27738 2.74342 1.14624 0.5
27 0.524817 2.52232 3.53106 0.5
28 1.41702 0.656692 3.16629 0.5
29 2.20498 3.73775 0.6759 0.5
30 3.45476 2.47904 3.87273 0.5
31 2.8617 3.51378 0.734222 0.5
32 1.27308 1.43341 2.25044 0.5
33 2.45489 2.06264 3.53377 0.5
34 1.65054 3.77271 2.96954 0.5
35 1.9313 1.84758 3.86117 0.5
36 2.25301 1.09263 0.144941 0.5
37 0.41639 3.37753 1.28673 0.5
38 3.27786 1.16402 3.51933 0.5
39 0.920764 2.87302 1.39359 0.5
40 2.5916 0.174376 1.05824 0.5
41 1.42219 2.88737 2.76269 0.5
42 0.0981939 3.43588 2.31731 0.5
43 2.85421 2.32807 1.28762 0.5
44 0.662226 0.18208 3.8594 0.5
45 3.85174 2.86283 1.01132 0.5
46 3.4493 1.80795 3.76032 0.5
47 3.19432 2.85726 1.17964 0.5
48 0.227916 1.32048 2.86927 0.5
49 0.711066 3.65498 1.11534 0.5
50 0.531537 3.13212 3.28767 0.5
