ITEM: TIMESTEP
80000
ITEM: NUMBER OF ATOMS
50
ITEM: BOX BOUNDS xy xz yz pp pp pp
0.0000000000000000e+00 3.9685030000000001e+00 0.0000000000000000e+00
0.0000000000000000e+00 3.9685030000000001e+00 0.0000000000000000e+00
0.0000000000000000e+00 3.9685030000000001e+00 0.0000000000000000e+00
ITEM: ATOMS id x y z radius
1 2.59139 2.20289 0.0387945 0.5
2 3.90836 -0.00774897 3.71182 0.5
3 3.38068 2.96096 2.64146 0.5
4 3.37129 3.77684 2.20987 0.5
5 0.578415 1.59579 3.57281 0.5
6 3.58818 3.20019 1.11911 0.5
7 0.783742 2.00249 0.685654 0.5
8 3.93829 0.563853 3.63499 0.5
9 1.66258 3.91637 2.81994 0.5
10 1.47515 3.87789 3.61937 0.5
11 1.99856 3.86757 1.1335 0.5
12 1.58142 1.12936 0.162859 0.5
13 1.77595 2.18752 2.53429 0.5
14 2.91462 3.51775 0.439086 0.5
15 2.27192 3.11914 3.95753 0.5
16 2.48555 3.47646 1.90454 0.5
17 3.82532 3.05716 0.194595 0.5
18 1.8416 3.79216 0.311492 0.5
19 1.94114 2.15231 1.36503 0.5
20 2.54491 1.29773 0.617558 0.5
21 1.17345 1.37206 1.96309 0.5
22 3.68069 0.214241 2.98277 0.5
23 0.220109 1.47217 1.06549 0.5
24 1.6295 2.27922 1.13379 0.5
25 3.2575 1.6678 1.4358 0.5
26 2.58079 2.74061 1.34492 0.5
27 1.34057 0.448154 3.12729 0.5
28 0.601898 1.94113 2.37519 0.5
29 1.83087 1.93744 3.17127 0.5
30 3.52791 1.82175 2.09588 0.5
31 1.51428 3.07777 2.4421 0.5
32 0.318165 3.23202 0.393275 0.5
33 1.4139 3.1558 3.29054 0.5
34 3.52255 3.04832 0.589366 0.5
35 3.45614 0.594635 3.86256 0.5
36 1.10545 1.283 1.15536 0.5
37 2.32333 1.78435 2.7183 0.5
38 1.04458 3.25393 0.0997139 0.5
39 0.302239 0.2629 2.0047 0.5
40 2.88623 2.14886 1.77091 0.5
41 3.73123 3.94391 1.59219 0.5
42 2.04382 2.26142 0.53323 0.5
43 2.49363 1.04318 1.16273 0.5
44 2.92911 0.885586 2.24861 0.5
45 2.42728 0.310573 2.54717 0.5
46 2.45426 2.83328 2.65656 0.5
47 0.938517 2.46556 2.87353 0.5
48 3.84524 1.73406 3.21281 0.5
49 1.44696 2.89492 0.704782 0.5
50 0.150251 3.27037 2.36671 0.5
