ITEM: TIMESTEP
250000
ITEM: NUMBER OF ATOMS
50
ITEM: BOX BOUNDS xy xz yz pp pp pp
0.0000000000000000e+00 3.9685030000000001e+00 0.0000000000000000e+00
0.0000000000000000e+00 3.9685030000000001e+00 0.0000000000000000e+00
0.0000000000000000e+00 3.9685030000000001e+00 0.0000000000000000e+00
ITEM: ATOMS id x y z radius
1 0.02993 2.94956 0.439267 0.5
2 2.0387 2.94176 0.121432 0.5
3 0.817101 4.02316 1.22749 0.5
4 2.15057 2.25122 2.22613 0.5
5 2.50156 1.27784 2.35517 0.5
6 3.24968 2.76302 3.83244 0.5
7 1.22584 3.60048 2.26724 0.5
8 2.73754 3.4199 3.72922 0.5
9 0.0342978 2.00805 1.11601 0.5
10 0.504208 0.601265 0.838636 0.5
11 3.23589 3.68982 3.20104 0.5
12 2.45625 0.546976 2.87162 0.5
13 3.09558 2.49842 1.60559 0.5
14 2.31081 1.25385 1.20386 0.5
15 2.57552 0.296995 2.44494 0.5
16 0.574489 3.44888 2.88594 0.5
17 1.45552 2.57183 0.47909 0.5
18 3.27608 1.52177 3.66559 0.5
19 2.75574 0.0532516 1.87466 0.5
20 0.0661902 0.755569 3.37993 0.5
21 3.9777 2.69007 3.27577 0.5
22 1.42173 1.35366 3.47698 0.5
23 3.84418 3.79937 3.03758 0.5
24 0.952249 0.733074 3.64472 0.5
25 0.221625 1.69818 1.5281 0.5
26 1.07045 1.13125 2.69084 0.5
27 2.43157 1.20804 3.37167 0.5
28 1.9561 2.03433 3.48858 0.5
29 3.8941 3.17712 0.755311 0.5
30 0.183365 1.19619 1.92698 0.5
31 3.95546 2.19571 0.0842039 0.5
32 3.84444 0.401198 0.584332 0.5
33 1.72834 3.45523 2.59686 0.5
34 0.401265 0.258698 1.90996 0.5
35 3.21567 0.576544 2.83818 0.5
36 1.32061 0.413463 0.132155 0.5
37 3.68928 2.8288 2.24563 0.5
38 3.60512 1.15795 2.42921 0.5
39 0.654992 0.569667 2.33529 0.5
40 1.6743 2.19153 2.52525 0.5
41 2.84871 2.5825 2.17093 0.5
42 3.25554 0.998968 3.37363 0.5
43 1.97868 3.89974 0.710663 0.5
44 0.0957067 2.31698 2.31787 0.5
45 0.669559 1.64386 2.61515 0.5
46 2.82538 3.83954 0.683039 0.5
47 1.89045 3.42159 3.25419 0.5
48 1.53065 2.98079 0.349401 0.5
49 0.116679 3.76897 0.904836 0.5
50 0.398608 2.1321 0.509327 0.5
