ITEM: TIMESTEP
460000
ITEM: NUMBER OF ATOMS
50
ITEM: BOX BOUNDS xy xz yz pp pp pp
0.0000000000000000e+00 3.9685030000000001e+00 0.0000000000000000e+00
0.0000000000000000e+00 3.9685030000000001e+00 0.0000000000000000e+00
0.0000000000000000e+00 3.9685030000000001e+00 0.0000000000000000e+00
ITEM: ATOMS id x y z radius
1 2.59864 1.52736 1.78426 0.5
2 0.351775 3.3637 0.300161 0.5
3 3.24551 1.98948 3.83203 0.5
4 1.41088 0.899398 1.43617 0.5
5 0.144162 1.2075 0.263642 0.5
6 1.34849 2.52348 1.86892 0.5
7 3.4412 1.21358 2.57327 0.5
8 2.41806 2.99939 1.48806 0.5
9 2.38155 0.274136 1.75716 0.5
10 3.87566 1.22221 0.862876 0.5
11 0.93982 0.0844162 2.15539 0.5
12 1.40054 1.58471 1.07035 0.5
13 0.544474 3.12193 1.97998 0.5
14 3.68097 2.66095 3.66791 0.5
15 3.09966 0.900313 3.57491 0.5
16 2.87852 2.63343 2.64147 0.5
17 0.234754 3.86914 1.93318 0.5
18 0.733082 3.41905 3.87856 0.5
19 2.64397 0.991277 1.69757 0.5
20 2.2256 3.06141 0.284475 0.5
21 0.549021 3.40899 1.51453 0.5
22 3.65059 3.4519 0.643445 0.5
23 2.58942 1.23519 0.123924 0.5
24 1.90208 3.76674 1.39906 0.5
25 0.0479738 1.35059 2.0926 0.5
26 2.03499 0.3933 2.55934 0.5
27 1.40611 3.64996 2.80839 0.5
28 1.6742 2.35547 1.10718 0.5
29 0.117982 2.46549 3.95797 0.5
30 1.15074 1.42233 0.603502 0.5
31 2.96461 3.34625 3.35908 0.5
32 1.90892 3.39751 3.79751 0.5
33 2.37971 3.83781 2.13929 0.5
34 2.5517 1.1131 2.6302 0.5
35 3.89763 3.17784 2.48808 0.5
36 2.48525 2.08911 3.51307 0.5
37 0.956648 2.15158 0.929469 0.5
38 0.875494 0.523272 3.26776 0.5
39 2.72683 3.52054 0.337247 0.5
40 3.49841 1.57103 1.5327 0.5
41 1.432 0.426802 0.406047 0.5
42 3.5913 3.64124 3.55596 0.5
43 3.86806 1.15048 3.49949 0.5
44 3.08293 2.08024 3.41163 0.5
45 2.55733 0.791724 2.77748 0.5
46 1.45817 3.09543 2.84982 0.5
47 1.77627 2.46527 3.56483 0.5
48 1.51119 2.89788 3.68006 0.5
49 3.85355 0.264515 2.51989 0.5
50 2.58459 2.50879 1.38053 0.5
