ITEM: TIMESTEP
540000
ITEM: NUMBER OF ATOMS
50
ITEM: BOX BOUNDS xy xz yz pp pp pp
0.0000000000000000e+00 3.9685030000000001e+00 0.0000000000000000e+00
0.0000000000000000e+00 3.9685030000000001e+00 0.0000000000000000e+00
0.0000000000000000e+00 3.9685030000000001e+00 0.0000000000000000e+00
ITEM: ATOMS id x y z radius
1 0.135597 1.09913 3.06438 0.5
2 0.509978 1.20836 3.692 0.5
3 1.15494 2.02955 2.95337 0.5
4 1.29004 0.100499 2.17846 0.5
5 2.51639 2.7315 3.32315 0.5
6 0.785117 3.22634 1.66083 0.5
7 1.71026 0.145355 3.11965 0.5
8 2.15846 3.64323 1.82337 0.5
9 3.81296 2.71984 0.363457 0.5
10 2.44508 1.51541 0.0977446 0.5
11 2.85411 0.265683 3.86707 0.5
12 0.0314159 2.92788 2.5617 0.5
13 3.83775 0.48575 2.24544 0.5
14 0.419629 2.23589 1.58157 0.5
15 2.73014 0.389107 0.807131 0.5
16 3.84207 0.0677823 3.5719 0.5
17 3.75125 1.02461 0.747894 0.5
18 2.12421 2.20935 1.08989 0.5
19 1.34896 2.86661 3.31335 0.5
20 1.68468 3.17489 0.208031 0.5
21 2.6691 3.2358 0.790915 0.5
22 0.512367 1.65041 3.20673 0.5
23 2.59028 1.35332 2.01822 0.5
24 2.05156 1.56352 1.23346 0.5
25 0.253444 0.302832 0.542115 0.5
26 0.371046 0.0462114 1.45293 0.5
27 2.23446 2.66447 1.5383 0.5
28 1.73995 1.4916 3.19982 0.5
29 1.81716 0.518719 1.78839 0.5
30 3.9203 2.50719 3.18013 0.5
31 2.33887 3.97389 3.90375 0.5
32 0.125063 2.74328 1.74365 0.5
33 0.826736 0.749079 3.16815 0.5
34 2.76798 0.613213 1.22202 0.5
35 3.30788 1.07002 2.17443 0.5
36 3.63796 1.76996 3.2917 0.5
37 1.13107 3.69742 1.06784 0.5
38 0.85689 3.8915 3.63766 0.5
39 2.79263 0.152032 2.87947 0.5
40 2.77602 3.29354 2.70667 0.5
41 2.33696 0.408573 0.827996 0.5
42 2.76969 1.61001 1.18479 0.5
43 1.55788 3.2633 3.11936 0.5
44 0.942462 3.50506 0.413445 0.5
45 3.01546 1.40194 3.91081 0.5
46 3.25059 1.65439 1.21765 0.5
47 2.71218 1.8416 0.771157 0.5
48 2.5806 0.998243 3.11025 0.5
49 3.79012 2.98202 1.60089 0.5
50 3.86126 2.20332 0.358834 0.5
