ITEM: TIMESTEP
400000
ITEM: NUMBER OF ATOMS
50
ITEM: BOX BOUNDS xy xz yz pp pp pp
0.0000000000000000e+00 3.9685030000000001e+00 0.0000000000000000e+00
0.0000000000000000e+00 3.9685030000000001e+00 0.0000000000000000e+00
0.0000000000000000e+00 3.9685030000000001e+00 0.0000000000000000e+00
ITEM: ATOMS id x y z radius
1 3.27711 1.03672 1.62824 0.5
2 2.71555 0.0213306 1.06955 0.5
3 0.562596 2.77473 0.290893 0.5
4 2.06636 2.73182 2.7339 0.5
5 3.91061 1.31298e-05 2.12515 0.5
6 2.83898 3.2198 0.41142 0.5
7 0.713764 2.19835 0.6193 0.5
8 3.70858 1.57094 2.61702 0.5
9 2.69334 0.345295 2.8519 0.5
10 2.2125 2.27912 3.93911 0.5
11 2.82862 0.92396 3.4361 0.5
12 3.44671 2.08896 0.926404 0.5
13 0.646494 1.24026 1.1726 0.5
14 1.16176 0.800278 0.435772 0.5
15 1.11147 0.310838 3.90787 0.5
16 3.15654 3.73087 2.28084 0.5
17 3.17894 3.16539 1.14266 0.5
18 2.87188 0.871657 2.68644 0.5
19 1.79187 1.32898 2.43051 0.5
20 0.771148 0.858339 3.53035 0.5
21 3.86021 2.53124 1.92918 0.5
22 0.140742 1.41261 3.02301 0.5
23 1.43931 1.80058 0.3872 0.5
24 2.80043 1.77537 0.528188 0.5
25 0.26015 2.4812 3.19816 0.5
26 2.28526 2.05659 2.68184 0.5
27 1.02735 0.500142 1.31568 0.5
28 1.742 1.8085 2.12282 0.5
29 2.45558 0.964673 2.01301 0.5
30 3.23863 0.511452 0.630693 0.5
31 2.12501 0.500592 3.5705 0.5
32 3.72133 0.687204 1.36563 0.5
33 2.06774 2.78964 0.123391 0.5
34 1.09252 1.19389 1.68651 0.5
35 2.54026 0.940688 0.739986 0.5
36 2.39994 3.30487 0.630234 0.5
37 0.524962 2.44431 3.4514 0.5
38 0.774343 0.127227 0.282932 0.5
39 2.95826 1.27871 3.06107 0.5
40 1.00021 3.67682 0.280449 0.5
41 2.8107 2.55233 3.4642 0.5
42 2.47005 0.930943 0.233324 0.5
43 0.265814 2.79558 0.87565 0.5
44 3.71853 2.94003 3.84976 0.5
45 0.980436 3.50428 1.87399 0.5
46 3.92748 1.12553 1.67293 0.5
47 3.70974 3.73082 0.871987 0.5
48 0.0262253 1.29874 3.81493 0.5
49 0.825431 3.41567 0.878278 0.5
50 1.82754 0.676823 0.833449 0.5
