ITEM: TIMESTEP
370000
ITEM: NUMBER OF ATOMS
50
ITEM: BOX BOUNDS xy xz yz pp pp pp
0.0000000000000000e+00 3.9685030000000001e+00 0.0000000000000000e+00
0.0000000000000000e+00 3.9685030000000001e+00 0.0000000000000000e+00
0.0000000000000000e+00 3.9685030000000001e+00 0.0000000000000000e+00
ITEM: ATOMS id x y z radius
1 3.74219 3.37271 3.30594 0.5
2 0.599328 2.87241 0.781795 0.5
3 3.88543 3.35002 3.64536 0.5
4 1.18814 1.42959 1.09902 0.5
5 1.52154 0.00289792 2.63291 0.5
6 0.293748 3.65815 0.665103 0.5
7 0.0359172 1.64606 0.511459 0.5
8 3.0745 1.92135 3.46739 0.5
9 1.46687 2.65733 0.336769 0.5
10 1.80564 2.70587 1.64982 0.5
11 3.6802 1.61594 2.91186 0.5
12 2.0553 0.995261 2.99763 0.5
13 0.15306 1.95044 2.75736 0.5
14 3.13927 2.82388 1.61555 0.5
15 3.63353 0.832184 2.38966 0.5
16 2.4137 3.84192 1.86844 0.5
17 1.99026 2.17124 1.52526 0.5
18 2.89407 3.8196 0.99824 0.5
19 3.20262 0.0423146 2.37733 0.5
20 1.4257 3.55855 3.09496 0.5
21 2.49076 1.24186 1.75082 0.5
22 0.904024 0.172853 2.07702 0.5
23 2.18567 2.8006 3.71916 0.5
24 2.66252 0.229412 0.395324 0.5
25 0.773148 0.22758 2.17609 0.5
26 3.0263 0.0626029 0.0994144 0.5
27 3.46928 0.998956 0.53279 0.5
28 3.25324 1.04182 1.09708 0.5
29 3.04072 2.18306 3.00703 0.5
30 3.08689 3.14544 0.798753 0.5
31 1.0662 3.21934 1.37716 0.5
32 0.427729 3.16149 2.13638 0.5
33 2.65506 2.91407 1.07491 0.5
34 3.65214 3.34311 3.06367 0.5
35 3.70034 0.447054 2.59442 0.5
36 1.93288 0.575105 0.0219957 0.5
37 0.83102 0.00793601 3.96264 0.5
38 0.461357 1.74662 2.16665 0.5
39 3.20152 1.92084 3.72894 0.5
40 3.79497 3.58709 2.5593 0.5
41 0.399922 0.415413 0.276945 0.5
42 0.427464 3.83277 3.18805 0.5
43 2.12401 1.73612 0.0475092 0.5
44 1.78633 0.768454 2.13934 0.5
45 1.86437 1.725 1.13386 0.5
46 3.4528 2.42602 3.18903 0.5
47 3.63918 3.12408 0.403742 0.5
48 0.132114 0.751839 1.39747 0.5
49 0.428392 1.44693 0.00750983 0.5
50 1.60964 0.670506 0.871557 0.5
