ITEM: TIMESTEP
60000
ITEM: NUMBER OF ATOMS
50
ITEM: BOX BOUNDS xy xz yz pp pp pp
0.0000000000000000e+00 3.9685030000000001e+00 0.0000000000000000e+00
0.0000000000000000e+00 3.9685030000000001e+00 0.0000000000000000e+00
0.0000000000000000e+00 3.9685030000000001e+00 0.0000000000000000e+00
ITEM: ATOMS id x y z radius
1 3.91022 2.36507 1.48828 0.5
2 2.65441 0.568026 3.50043 0.5
3 1.75728 3.34293 0.158683 0.5
4 0.271299 3.75873 0.881442 0.5
5 2.17881 3.22609 3.44657 0.5
6 2.83208 2.65149 2.7495 0.5
7 0.0921005 1.01398 2.45634 0.5
8 3.12739 0.104771 1.57299 0.5
9 3.66136 2.63976 2.52565 0.5
10 0.860708 3.65136 3.07092 0.5
11 2.79346 2.78324 0.0318414 0.5
12 2.96329 3.84025 1.03673 0.5
13 1.23189 2.03249 1.24888 0.5
14 0.951348 2.40182 3.80657 0.5
15 2.09441 0.436465 2.74737 0.5
16 1.66375 2.7281 2.36542 0.5
17 1.70637 0.437553 2.275 0.5
18 2.47703 1.07389 0.217228 0.5
19 1.76582 3.375 3.03407 0.5
20 3.94115 1.39769 3.85818 0.5
21 0.949533 1.57442 0.398725 0.5
22 1.87934 3.46353 1.93749 0.5
23 2.61365 1.34772 2.64606 0.5
24 1.56597 2.65625 1.15831 0.5
25 0.419875 2.22056 2.68862 0.5
26 1.78339 0.629696 3.48066 0.5
27 1.20212 1.08094 0.592514 0.5
28 3.50642 3.44968 1.07267 0.5
29 3.60579 0.236888 0.361774 0.5
30 0.33512 0.313732 1.7066 0.5
31 3.69648 0.966086 2.9258 0.5
32 1.99609 2.11992 3.18771 0.5
33 2.27097 0.126187 3.03563 0.5
34 1.07934 2.55778 2.93851 0.5
35 3.04698 2.86043 1.73626 0.5
36 0.987852 2.01605 1.48274 0.5
37 2.34202 3.0826 1.28429 0.5
38 3.5997 3.64814 3.83315 0.5
39 1.30917 2.19946 3.5827 0.5
40 2.29632 2.34111 1.97648 0.5
41 1.54881 1.73882 1.72939 0.5
42 1.43171 0.105628 0.29441 0.5
43 1.1078 0.212663 1.50947 0.5
44 3.12216 1.1173 1.85574 0.5
45 1.01514 1.42583 2.88703 0.5
46 2.43264 0.846471 3.73232 0.5
47 3.29793 1.98145 1.95264 0.5
48 0.22105 1.91003 0.780828 0.5
49 3.90307 0.475415 2.09739 0.5
50 3.1804 2.65821 2.19391 0.5
