ITEM: TIMESTEP
230000
ITEM: NUMBER OF ATOMS
50
ITEM: BOX BOUNDS xy xz yz pp pp pp
0.0000000000000000e+00 3.9685030000000001e+00 0.0000000000000000e+00
0.0000000000000000e+00 3.9685030000000001e+00 0.0000000000000000e+00
0.0000000000000000e+00 3.9685030000000001e+00 0.0000000000000000e+00
ITEM: ATOMS id x y z radius
1 0.776086 0.459362 0.367066 0.5
2 0.684057 0.240087 3.02428 0.5
3 2.5345 2.6217 3.10991 0.5
4 1.6159 2.07514 2.67581 0.5
5 3.33704 1.09069 0.764038 0.5
6 2.3354 1.75674 1.24152 0.5
7 1.66812 1.18761 2.76582 0.5
8 3.58016 1.13697 2.9841 0.5
9 1.43318 0.991525 0.167078 0.5
10 1.26132 2.80345 0.230676 0.5
11 0.168017 3.10638 0.940131 0.5
12 2.30438 2.72622 2.57414 0.5
13 3.04978 3.00641 1.19894 0.5
14 0.742233 3.11914 1.58676 0.5
15 0.774888 0.32084 1.44825 0.5
16 3.02891 1.39941 2.03501 0.5
17 2.07241 0.698748 2.76275 0.5
18 3.66221 0.142643 1.49052 0.5
19 1.08758 3.57969 1.46347 0.5
20 0.173405 2.07491 0.657852 0.5
21 3.26371 2.79115 2.89677 0.5
22 3.23525 2.46409 0.147199 0.5
23 2.86958 3.53321 3.30016 0.5
24 1.40437 0.41593 2.75376 0.5
25 0.664598 2.77331 3.06068 0.5
26 2.38161 2.89921 2.22327 0.5
27 1.85467 3.15473 0.925363 0.5
28 1.99878 3.02766 2.71151 0.5
29 2.05269 0.481726 0.595527 0.5
30 4.00423 3.83549 1.79341 0.5
31 1.54627 0.068622 3.14199 0.5
32 0.191498 2.45547 2.25338 0.5
33 1.77744 3.56316 1.43271 0.5
34 0.0749241 0.776882 1.59787 0.5
35 3.41884 0.55552 3.58436 0.5
36 1.67207 2.58323 2.00186 0.5
37 1.60306 3.47881 2.99633 0.5
38 1.70217 2.10922 3.75931 0.5
39 2.67887 0.067075 2.09364 0.5
40 3.38097 3.73142 2.52626 0.5
41 3.16985 1.45294 1.33845 0.5
42 1.64363 1.11807 1.33316 0.5
43 3.83527 3.12784 2.32859 0.5
44 1.90545 2.12442 1.22411 0.5
45 2.55042 0.273227 3.45318 0.5
46 2.27306 1.05085 0.495682 0.5
47 2.65713 3.65879 1.73737 0.5
48 0.14387 1.86432 0.379704 0.5
49 0.164941 3.89612 0.503759 0.5
50 0.335196 1.29007 3.51744 0.5
