ITEM: TIMESTEP
290000
ITEM: NUMBER OF ATOMS
50
ITEM: BOX BOUNDS xy xz yz pp pp pp
0.0000000000000000e+00 3.9685030000000001e+00 0.0000000000000000e+00
0.0000000000000000e+00 3.9685030000000001e+00 0.0000000000000000e+00
0.0000000000000000e+00 3.9685030000000001e+00 0.0000000000000000e+00
ITEM: ATOMS id x y z radius
1 0.135348 2.29469 3.55457 0.5
2 3.22563 2.6006 3.85377 0.5
3 0.166627 0.834169 1.0327 0.5
4 1.95052 3.92952 1.58979 0.5
5 0.723948 2.81741 0.0726164 0.5
6 1.8776 1.1508 3.60195 0.5
7 0.680193 0.243274 1.90064 0.5
8 1.05043 0.18969 3.64938 0.5
9 3.00602 0.402686 2.64507 0.5
10 0.22275 3.59479 0.696113 0.5
11 2.57543 2.25338 0.238707 0.5
12 1.53846 0.464205 1.32606 0.5
13 0.864629 0.838374 3.11116 0.5
14 0.34532 0.776116 1.37605 0.5
15 1.25173 2.26015 0.754093 0.5
16 3.23327 1.54752 0.874505 0.5
17 1.80682 1.72912 3.87987 0.5
18 3.51822 0.223587 0.771367 0.5
19 2.76235 0.988222 2.45974 0.5
20 3.44364 2.65445 0.636137 0.5
21 0.734104 2.3786 0.888876 0.5
22 2.9288 0.895646 0.107707 0.5
23 2.41596 3.16562 0.878584 0.5
24 0.904529 2.66793 2.8757 0.5
25 3.67268 3.80367 3.76673 0.5
26 2.37415 1.5582 2.49607 0.5
27 2.66257 1.10314 3.62874 0.5
28 1.0559 0.286512 1.56316 0.5
29 1.7465 1.37812 2.42153 0.5
30 3.38539 2.66122 1.30626 0.5
31 1.04277 2.06066 3.48954 0.5
32 2.11759 2.78567 3.55169 0.5
33 1.70775 0.687421 2.52145 0.5
34 2.78288 0.972039 1.41624 0.5
35 2.21305 2.6056 1.15064 0.5
36 2.59245 2.09917 2.40541 0.5
37 3.72108 1.93799 1.19761 0.5
38 0.112989 0.710271 2.92609 0.5
39 3.81686 3.25588 3.70507 0.5
40 2.0495 0.823609 0.586566 0.5
41 1.46005 3.6843 2.97076 0.5
42 0.238889 0.365799 3.53077 0.5
43 3.16993 3.1962 3.6548 0.5
44 0.474481 3.64634 3.3239 0.5
45 3.70029 3.76031 2.59898 0.5
46 2.81495 0.205766 1.93946 0.5
47 2.63317 0.577513 1.24432 0.5
48 0.327851 2.76135 2.88144 0.5
49 1.88065 1.82646 3.0652 0.5
50 1.62731 1.56943 1.38281 0.5
