LAMMPS Description

50 atoms

1 atom types
0 3.815714 xlo xhi
0 3.815714 ylo yhi
0 3.815714 zlo zhi


Atoms # sphere

1 1 1 2.35 1.84162 1.68798 1.01066
2 1 1 2.35 3.13619 3.75155 0.667899
3 1 1 2.35 2.98729 0.0791151 0.00948697
4 1 1 2.35 1.48306 2.73923 1.17644
5 1 1 2.35 1.70034 3.57434 3.17474
6 1 1 2.35 2.91311 1.34415 1.08648
7 1 1 2.35 3.28465 0.362643 2.29089
8 1 1 2.35 3.6292 2.34724 0.747485
9 1 1 2.35 2.0758 0.0634652 3.52621
10 1 1 2.35 2.71547 3.14321 1.24409
11 1 1 2.35 0.79659 0.730347 1.70076
12 1 1 2.35 2.54402 0.709208 1.0511
13 1 1 2.35 0.367749 2.47099 0.76804
14 1 1 2.35 3.20705 2.93133 2.64375
15 1 1 2.35 2.55092 1.07974 2.06316
16 1 1 2.35 3.76304 2.73553 2.75479
17 1 1 2.35 0.67554 0.727204 1.76646
18 1 1 2.35 3.58995 3.39017 2.60488
19 1 1 2.35 3.5685 0.367963 0.340842
20 1 1 2.35 2.38119 3.49743 3.07281
21 1 1 2.35 0.598847 0.173164 2.28087
22 1 1 2.35 2.73424 1.80557 1.12
23 1 1 2.35 2.89108 2.6631 0.590861
24 1 1 2.35 3.08361 0.525149 3.39626
25 1 1 2.35 0.590151 1.47152 1.13459
26 1 1 2.35 3.52798 1.5963 0.885982
27 1 1 2.35 0.59815 3.30641 3.01432
28 1 1 2.35 1.14318 3.07354 3.48424
29 1 1 2.35 3.34873 3.37107 3.54598
30 1 1 2.35 1.08874 0.212396 0.716927
31 1 1 2.35 1.09715 0.128267 1.72235
32 1 1 2.35 1.5831 2.41122 0.742705
33 1 1 2.35 1.05825 1.37873 1.53479
34 1 1 2.35 0.177099 1.89315 2.94472
35 1 1 2.35 2.07446 0.0490291 0.654402
36 1 1 2.35 2.59397 2.33733 3.03296
37 1 1 2.35 0.631971 2.04255 2.36168
38 1 1 2.35 0.464275 2.03647 0.523345
39 1 1 2.35 0.0451009 2.96154 3.23259
40 1 1 2.35 0.0738253 3.16935 3.68008
41 1 1 2.35 1.67546 3.5621 0.583071
42 1 1 2.35 3.56395 2.59338 2.93709
43 1 1 2.35 1.70685 3.07635 2.6896
44 1 1 2.35 2.37187 3.19246 3.59988
45 1 1 2.35 2.88769 3.35834 3.40388
46 1 1 2.35 3.7499 3.75677 2.06747
47 1 1 2.35 1.43123 1.40993 2.72672
48 1 1 2.35 1.45619 3.70639 1.02327
49 1 1 2.35 0.162977 2.64963 1.39759
50 1 1 2.35 1.33463 1.18637 2.57271
