ITEM: TIMESTEP
370000
ITEM: NUMBER OF ATOMS
50
ITEM: BOX BOUNDS xy xz yz pp pp pp
0.0000000000000000e+00 3.9685030000000001e+00 0.0000000000000000e+00
0.0000000000000000e+00 3.9685030000000001e+00 0.0000000000000000e+00
0.0000000000000000e+00 3.9685030000000001e+00 0.0000000000000000e+00
ITEM: ATOMS id x y z radius
1 1.76523 2.72294 3.18572 0.5
2 0.404438 2.75561 2.08337 0.5
3 3.22619 0.0309363 1.10441 0.5
4 3.30236 1.90911 0.835593 0.5
5 1.16887 0.374117 3.20429 0.5
6 3.41074 3.88243 0.146394 0.5
7 3.36118 1.11093 1.50762 0.5
8 0.504795 1.7312 0.658598 0.5
9 1.13729 1.22597 2.31385 0.5
10 1.44723 2.06292 2.44736 0.5
11 1.60674 0.321752 1.38396 0.5
12 3.85727 3.24602 1.83149 0.5
13 1.17772 2.45905 1.70653 0.5
14 2.34614 0.623353 3.77047 0.5
15 0.533973 3.72598 3.78935 0.5
16 1.15519 1.24717 0.199015 0.5
17 2.34773 0.290313 0.906671 0.5
18 3.12364 2.88286 2.5054 0.5
19 0.296814 0.707457 2.18488 0.5
20 3.71866 2.73659 3.07257 0.5
21 2.19563 3.26357 0.558835 0.5
22 1.03884 0.383952 0.61677 0.5
23 3.93324 1.89721 3.87826 0.5
24 3.1763 1.093 3.67376 0.5
25 0.908949 0.562595 1.82321 0.5
26 1.76679 2.6957 3.93926 0.5
27 0.833939 1.48254 3.23332 0.5
28 0.41098 2.47997 1.18186 0.5
29 3.71009 0.790041 0.54297 0.5
30 2.02434 0.947111 2.44194 0.5
31 2.05452 1.46588 0.176652 0.5
32 0.179229 0.784546 3.41408 0.5
33 2.29344 1.67001 1.1316 0.5
34 3.30263 2.54181 1.47105 0.5
35 0.763639 1.80344 1.85933 0.5
36 2.67051 3.28474 1.22531 0.5
37 2.59262 0.713694 1.97173 0.5
38 1.87514 3.9017 0.0217826 0.5
39 2.41699 2.45607 0.618793 0.5
40 2.2791 0.222114 3.02364 0.5
41 2.52148 3.52267 2.26938 0.5
42 0.484758 3.5886 2.65568 0.5
43 1.64451 1.0193 1.08964 0.5
44 1.37905 2.84647 1.01293 0.5
45 1.385 2.07041 0.843953 0.5
46 2.06592 2.6478 2.09651 0.5
47 1.77705 3.39972 1.42349 0.5
48 0.881019 2.44965 0.163343 0.5
49 4.01951 3.96194 1.71878 0.5
50 1.00647 3.41941 1.7642 0.5
