ITEM: TIMESTEP
50000
ITEM: NUMBER OF ATOMS
50
ITEM: BOX BOUNDS xy xz yz pp pp pp
0.0000000000000000e+00 3.9685030000000001e+00 0.0000000000000000e+00
0.0000000000000000e+00 3.9685030000000001e+00 0.0000000000000000e+00
0.0000000000000000e+00 3.9685030000000001e+00 0.0000000000000000e+00
ITEM: ATOMS id x y z radius
1 -0.0543064 0.0312136 3.80305 0.5
2 0.234213 1.45007 3.56024 0.5
3 3.43401 1.35795 2.80312 0.5
4 0.739702 2.65285 0.905412 0.5
5 0.961401 2.52672 3.01813 0.5
6 3.33334 0.903754 3.76304 0.5
7 0.0129552 3.02041 1.5119 0.5
8 1.49701 1.74301 1.42925 0.5
9 0.275376 3.68112 2.46416 0.5
10 1.57816 1.12243 2.18271 0.5
11 1.28543 3.6412 2.84809 0.5
12 -0.0407535 1.389 0.244295 0.5
13 1.31314 1.99203 2.22903 0.5
14 1.97795 2.84489 3.2256 0.5
15 1.59594 3.24595 1.56291 0.5
16 0.654871 0.40204 0.793259 0.5
17 0.915657 3.7972 3.66423 0.5
18 3.1182 2.80855 3.52383 0.5
19 3.8692 0.739025 2.24918 0.5
20 2.8258 0.271263 0.321096 0.5
21 0.791329 0.70734 1.90431 0.5
22 1.4004 0.0244167 1.58195 0.5
23 1.81125 1.58129 0.208151 0.5
24 2.68553 1.11594 3.47568 0.5
25 3.81812 2.67386 0.491026 0.5
26 1.00085 3.24159 0.0581889 0.5
27 1.87592 2.86603 2.30298 0.5
28 2.96516 0.140701 3.26764 0.5
29 1.50491 2.54574 1.25484 0.5
30 1.79994 1.90224 2.86646 0.5
31 0.0611124 0.863674 3.14035 0.5
32 1.97554 0.770979 1.24889 0.5
33 2.79574 1.09574 1.65205 0.5
34 0.0335968 3.1549 3.3659 0.5
35 3.98768 1.80213 2.71516 0.5
36 0.246831 0.0161885 1.69521 0.5
37 2.37411 3.50747 3.74277 0.5
38 3.28628 3.76896 1.75103 0.5
39 3.82962 2.37705 3.92595 0.5
40 0.752615 1.20922 2.70187 0.5
41 0.138719 0.783827 1.03571 0.5
42 2.19718 3.88647 1.78276 0.5
43 0.754797 3.48579 1.13321 0.5
44 0.136652 1.99428 0.874002 0.5
45 3.16974 1.21983 0.73341 0.5
46 0.431779 1.58034 1.67813 0.5
47 2.64645 3.28417 2.7287 0.5
48 0.772426 2.45 2.22316 0.5
49 3.47669 3.14527 2.37044 0.5
50 3.3301 2.59631 2.54115 0.5
