ITEM: TIMESTEP
360000
ITEM: NUMBER OF ATOMS
50
ITEM: BOX BOUNDS xy xz yz pp pp pp
0.0000000000000000e+00 3.9685030000000001e+00 0.0000000000000000e+00
0.0000000000000000e+00 3.9685030000000001e+00 0.0000000000000000e+00
0.0000000000000000e+00 3.9685030000000001e+00 0.0000000000000000e+00
ITEM: ATOMS id x y z radius
1 2.29777 3.34518 0.975865 0.5
2 0.938093 2.14168 0.369603 0.5
3 1.51954 2.8723 0.553706 0.5
4 1.7604 3.62335 0.311823 0.5
5 2.81461 3.34486 3.14759 0.5
6 3.89959 1.36734 2.84495 0.5
7 1.89647 2.06745 2.35137 0.5
8 3.7239 3.34207 2.67921 0.5
9 3.50392 3.10039 1.24176 0.5
10 2.72361 0.200539 1.9822 0.5
11 0.127374 2.25033 3.00461 0.5
12 3.96663 2.55169 1.89268 0.5
13 0.416762 0.562574 1.39638 0.5
14 2.54192 1.2995 2.88176 0.5
15 3.24691 2.66601 2.96606 0.5
16 0.57124 2.48976 1.35244 0.5
17 1.35392 0.859867 0.367685 0.5
18 1.32769 3.44505 2.99243 0.5
19 0.679691 3.80474 1.12676 0.5
20 3.35705 0.998553 1.38728 0.5
21 1.58451 1.73042 1.02988 0.5
22 0.990321 2.28774 3.65102 0.5
23 3.49004 1.81733 1.87863 0.5
24 0.570903 0.806242 0.563546 0.5
25 3.11142 2.89267 1.99033 0.5
26 2.07028 0.806962 3.85635 0.5
27 0.964006 1.74268 2.73233 0.5
28 2.12682 2.87943 3.68735 0.5
29 0.27317 1.57782 1.18588 0.5
30 1.84782 2.05635 0.11654 0.5
31 0.920611 0.587874 2.92995 0.5
32 1.15816 1.44477 3.60649 0.5
33 3.39562 2.23339 0.0723695 0.5
34 2.73194 1.24112 0.662896 0.5
35 3.78518 0.389774 0.16216 0.5
36 1.92991 1.92864 3.27675 0.5
37 0.362889 1.57978 2.20903 0.5
38 3.17723 3.85538 0.250553 0.5
39 0.945763 2.78037 2.47213 0.5
40 3.93666 0.0455068 0.94018 0.5
41 0.103422 1.30797 3.7966 0.5
42 2.77295 1.84107 1.36459 0.5
43 3.19625 1.54892 3.65506 0.5
44 0.0906022 3.65873 1.86335 0.5
45 2.13845 1.22638 1.26191 0.5
46 0.571158 0.239041 2.32869 0.5
47 0.621009 3.07737 1.78302 0.5
48 3.27797 0.828246 3.36944 0.5
49 0.277452 0.402085 3.48853 0.5
50 2.39423 0.296585 2.60491 0.5
