ITEM: TIMESTEP
790000
ITEM: NUMBER OF ATOMS
50
ITEM: BOX BOUNDS xy xz yz pp pp pp
0.0000000000000000e+00 3.9685030000000001e+00 0.0000000000000000e+00
0.0000000000000000e+00 3.9685030000000001e+00 0.0000000000000000e+00
0.0000000000000000e+00 3.9685030000000001e+00 0.0000000000000000e+00
ITEM: ATOMS id x y z radius
1 1.49809 1.95618 3.93918 0.5
2 1.60922 3.32184 3.79235 0.5
3 3.16694 3.8837 0.808988 0.5
4 1.56736 3.85457 0.912865 0.5
5 0.154973 0.581813 0.897047 0.5
6 1.09868 0.0683475 2.11493 0.5
7 2.33291 2.38406 0.118789 0.5
8 1.63811 1.5678 3.08448 0.5
9 3.94585 1.05793 3.53891 0.5
10 0.551141 2.50391 0.428111 0.5
11 3.66521 3.44476 1.44323 0.5
12 3.08114 3.09517 3.13275 0.5
13 2.10615 2.41358 2.8707 0.5
14 1.66248 0.3953 3.45314 0.5
15 1.52317 2.41703 0.845092 0.5
16 0.47833 1.86285 3.80217 0.5
17 2.43768 1.71805 3.63549 0.5
18 0.0168259 3.22889 3.34015 0.5
19 0.854114 2.62298 1.51574 0.5
20 1.31736 0.747586 0.862281 0.5
21 3.4099 2.46071 3.72926 0.5
22 3.62017 0.633647 0.275361 0.5
23 2.39512 3.21431 2.15305 0.5
24 2.77823 1.32144 0.15851 0.5
25 1.86201 0.828094 2.27447 0.5
26 0.686911 1.53039 0.76307 0.5
27 1.12324 1.14542 3.1326 0.5
28 3.16064 1.53962 1.35426 0.5
29 2.3673 2.16255 1.59177 0.5
30 1.02533 0.848743 0.162564 0.5
31 0.57331 1.10019 1.50808 0.5
32 0.596762 3.08234 2.17834 0.5
33 1.11929 2.93939 3.07105 0.5
34 0.877027 3.72457 1.26318 0.5
35 3.77942 0.219885 2.91627 0.5
36 2.44679 3.88136 3.10252 0.5
37 3.66785 1.65297 2.93546 0.5
38 3.07338 2.77813 1.40952 0.5
39 3.32128 1.66699 0.407582 0.5
40 0.0608046 2.92311 0.926509 0.5
41 2.44387 1.23525 2.95082 0.5
42 0.361289 1.92721 1.44082 0.5
43 1.23293 2.09092 2.02904 0.5
44 0.909066 3.64995 0.223579 0.5
45 2.1359 3.88249 1.42894 0.5
46 1.55646 3.50492 2.58067 0.5
47 0.570745 2.05735 2.71047 0.5
48 3.7215 3.54895 0.187956 0.5
49 0.656727 0.130732 2.97941 0.5
50 3.27636 2.54143 2.23509 0.5
