ITEM: TIMESTEP
540000
ITEM: NUMBER OF ATOMS
50
ITEM: BOX BOUNDS xy xz yz pp pp pp
0.0000000000000000e+00 3.9685030000000001e+00 0.0000000000000000e+00
0.0000000000000000e+00 3.9685030000000001e+00 0.0000000000000000e+00
0.0000000000000000e+00 3.9685030000000001e+00 0.0000000000000000e+00
ITEM: ATOMS id x y z radius
1 3.38434 3.42548 1.1277 0.5
2 1.81689 3.84583 1.82342 0.5
3 2.39013 1.10595 3.70579 0.5
4 0.20531 3.94641 3.20885 0.5
5 0.95609 3.15149 0.74867 0.5
6 0.840263 2.89541 2.75845 0.5
7 0.0263512 2.37335 2.02402 0.5
8 1.04714 0.370559 -0.0136128 0.5
9 2.30055 1.93828 0.576258 0.5
10 2.51649 3.39125 2.21528 0.5
11 2.80263 2.30065 1.40741 0.5
12 2.62971 2.71568 0.521738 0.5
13 1.30923 1.07956 3.64264 0.5
14 3.61254 3.10205 2.25084 0.5
15 1.55871 0.775992 0.59144 0.5
16 1.59805 3.4723 0.350901 0.5
17 2.15398 1.16283 2.99838 0.5
18 1.35098 0.013683 0.981972 0.5
19 2.3587 3.65391 0.815474 0.5
20 3.33509 1.3305 0.369158 0.5
21 2.53631 0.513813 0.390898 0.5
22 0.532212 0.212527 1.4952 0.5
23 1.01215 2.2603 2.26632 0.5
24 0.197363 1.12483 1.19103 0.5
25 0.554374 3.28017 2.096 0.5
26 2.12954 3.44641 3.18929 0.5
27 3.57227 0.991408 1.71158 0.5
28 2.5598 1.79567 1.90618 0.5
29 2.36558 2.73709 3.77296 0.5
30 2.05812 0.343133 1.19212 0.5
31 3.37072 1.97824 2.72171 0.5
32 2.51889 2.33954 2.8177 0.5
33 1.84504 2.9929 1.12439 0.5
34 0.111307 1.8861 0.773579 0.5
35 1.42701 2.69894 3.68342 0.5
36 1.4917 1.99156 3.01712 0.5
37 0.28742 2.37015 3.65637 0.5
38 2.20766 0.0520901 3.81552 0.5
39 3.27719 0.445904 3.65801 0.5
40 3.63202 0.412798 0.753499 0.5
41 2.79042 0.192019 1.33402 0.5
42 1.68415 1.3785 2.04382 0.5
43 2.96612 2.01302 0.0257262 0.5
44 3.67409 2.61656 3.28713 0.5
45 1.32812 3.69411 3.41316 0.5
46 2.67427 1.17154 0.963533 0.5
47 0.575016 1.3622 0.205139 0.5
48 3.43563 0.0195552 2.71284 0.5
49 3.58628 3.44033 3.87557 0.5
50 2.85843 3.59985 3.41801 0.5
