ITEM: TIMESTEP
90000
ITEM: NUMBER OF ATOMS
50
ITEM: BOX BOUNDS xy xz yz pp pp pp
0.0000000000000000e+00 3.9685030000000001e+00 0.0000000000000000e+00
0.0000000000000000e+00 3.9685030000000001e+00 0.0000000000000000e+00
0.0000000000000000e+00 3.9685030000000001e+00 0.0000000000000000e+00
ITEM: ATOMS id x y z radius
1 1.59964 2.00084 1.49094 0.5
2 2.67961 2.81704 1.62473 0.5
3 2.39965 2.93022 2.68988 0.5
4 0.300116 0.647891 2.38874 0.5
5 1.05902 2.37226 3.57481 0.5
6 0.858664 1.3819 3.00568 0.5
7 1.77337 2.2234 2.58764 0.5
8 0.793907 0.342226 3.15644 0.5
9 3.44606 2.85088 2.55353 0.5
10 0.92303 2.67341 1.95419 0.5
11 3.88914 2.46659 2.97792 0.5
12 0.782909 2.81683 2.85494 0.5
13 1.71965 0.90544 1.06494 0.5
14 3.529 0.430915 3.09058 0.5
15 2.86822 2.4407 3.74573 0.5
16 1.02957 1.10847 3.90976 0.5
17 2.56805 1.61646 1.41527 0.5
18 1.97295 2.97967 3.68195 0.5
19 1.20261 1.87979 0.560655 0.5
20 2.79882 0.996754 3.54305 0.5
21 1.19881 2.82634 0.118902 0.5
22 2.21079 3.71915 3.00541 0.5
23 1.92907 0.604156 3.72652 0.5
24 0.789051 3.92589 3.78721 0.5
25 0.621149 3.76003 1.90428 0.5
26 2.74418 0.614513 1.49056 0.5
27 2.60294 2.71673 0.604393 0.5
28 0.610787 2.46943 0.975165 0.5
29 3.64201 3.88509 -0.0122056 0.5
30 0.248787 1.3506 0.604232 0.5
31 0.904514 1.5727 2.18923 0.5
32 0.395216 3.03817 3.74992 0.5
33 2.76743 3.74584 0.0822877 0.5
34 2.09273 0.952007 2.14881 0.5
35 3.78135 0.861745 1.57807 0.5
36 3.11741 1.46895 2.46848 0.5
37 3.32841 2.13929 1.17656 0.5
38 1.38284 3.46912 0.430124 0.5
39 0.254246 1.25551 3.82726 0.5
40 2.22483 1.24695 0.372027 0.5
41 2.24066 2.06764 0.0968985 0.5
42 1.29035 0.532913 2.04652 0.5
43 3.55384 2.46009 0.159592 0.5
44 0.113763 3.84649 3.32749 0.5
45 2.51897 0.414966 2.52715 0.5
46 3.08638 1.67827 0.42429 0.5
47 3.47393 1.71534 3.30519 0.5
48 1.49641 3.16562 2.87853 0.5
49 1.45447 0.364973 0.599285 0.5
50 3.21456 3.6307 1.12157 0.5
