ITEM: TIMESTEP
400000
ITEM: NUMBER OF ATOMS
50
ITEM: BOX BOUNDS xy xz yz pp pp pp
0.0000000000000000e+00 3.9685030000000001e+00 0.0000000000000000e+00
0.0000000000000000e+00 3.9685030000000001e+00 0.0000000000000000e+00
0.0000000000000000e+00 3.9685030000000001e+00 0.0000000000000000e+00
ITEM: ATOMS id x y z radius
1 3.38354 2.24942 2.03658 0.5
2 0.5645 1.34298 0.273351 0.5
3 3.18646 3.91537 3.04881 0.5
4 2.73794 3.59091 3.49564 0.5
5 3.24953 1.3573 2.92994 0.5
6 2.40294 1.68126 2.06232 0.5
7 0.100393 2.6271 2.4952 0.5
8 1.60245 1.6284 0.288123 0.5
9 2.12276 2.77765 3.20695 0.5
10 1.08765 2.54547 3.45804 0.5
11 1.31972 1.47871 1.60077 0.5
12 1.69286 0.0164609 0.988743 0.5
13 3.39094 3.23203 0.745776 0.5
14 0.682464 3.51755 3.90407 0.5
15 1.31478 2.705 0.40327 0.5
16 0.777952 2.76653 1.15472 0.5
17 2.18233 2.19789 3.83108 0.5
18 2.12815 1.88355 1.30774 0.5
19 1.17344 2.68879 2.47315 0.5
20 3.28896 0.899977 0.398648 0.5
21 0.406337 2.56603 3.0848 0.5
22 1.86021 3.431 3.80355 0.5
23 2.65934 3.14786 1.13833 0.5
24 3.83775 2.52119 0.715222 0.5
25 2.62296 0.00601077 2.10039 0.5
26 3.2584 2.79553 3.42158 0.5
27 3.01714 3.19699 2.61011 0.5
28 0.186755 3.05212 1.57385 0.5
29 3.84279 0.671415 2.65308 0.5
30 1.66577 0.205721 2.25462 0.5
31 0.596134 3.37414 2.35211 0.5
32 0.292262 0.168706 2.74593 0.5
33 0.0962798 3.45019 3.00216 0.5
34 1.22167 1.08381 0.971199 0.5
35 0.759267 3.70353 0.778533 0.5
36 3.90372 2.06205 3.88022 0.5
37 2.86756 2.16779 2.74965 0.5
38 3.16304 0.682828 2.18183 0.5
39 3.71209 0.384098 1.15577 0.5
40 0.081858 2.91408 3.79989 0.5
41 3.27381 2.7173 0.202861 0.5
42 0.455666 0.453912 0.423192 0.5
43 3.22523 0.0381994 0.362209 0.5
44 1.8865 1.98407 2.44612 0.5
45 3.30639 3.12454 1.7303 0.5
46 2.96532 1.84628 0.0104555 0.5
47 1.46217 2.18504 1.7215 0.5
48 1.30789 3.37042 1.94413 0.5
49 2.63759 2.42136 0.846775 0.5
50 2.4907 2.52085 1.85334 0.5
