ITEM: TIMESTEP
900000
ITEM: NUMBER OF ATOMS
50
ITEM: BOX BOUNDS xy xz yz pp pp pp
0.0000000000000000e+00 3.9685030000000001e+00 0.0000000000000000e+00
0.0000000000000000e+00 3.9685030000000001e+00 0.0000000000000000e+00
0.0000000000000000e+00 3.9685030000000001e+00 0.0000000000000000e+00
ITEM: ATOMS id x y z radius
1 0.290559 1.1462 2.72427 0.5
2 3.51757 2.6072 0.866547 0.5
3 1.00825 0.655137 2.99101 0.5
4 0.725804 2.09466 2.03105 0.5
5 3.18501 3.22474 2.97893 0.5
6 1.20296 3.83465 0.637248 0.5
7 0.730971 1.18395 1.30987 0.5
8 3.62716 0.83856 0.647694 0.5
9 0.810299 1.71248 3.52406 0.5
10 0.766793 0.581377 2.14575 0.5
11 3.14586 1.52564 3.55896 0.5
12 3.17752 1.23488 2.3245 0.5
13 2.56894 1.30058 2.86262 0.5
14 0.927789 3.8758 3.46486 0.5
15 1.08188 3.06063 3.14209 0.5
16 1.80517 1.00495 2.32189 0.5
17 2.80076 0.752185 0.105786 0.5
18 1.7566 2.17646 3.34804 0.5
19 3.27416 0.167103 1.51352 0.5
20 1.10903 1.49485 2.58539 0.5
21 2.09153 2.96313 3.63932 0.5
22 0.524935 3.38935 0.36386 0.5
23 1.66055 0.908899 0.806438 0.5
24 3.40323 2.78154 3.84262 0.5
25 3.34344 2.63789 2.10034 0.5
26 0.278678 2.6888 3.50587 0.5
27 2.40933 0.588863 2.30155 0.5
28 0.208709 3.46559 1.08141 0.5
29 2.13399 1.56262 1.60029 0.5
30 0.261004 2.30752 2.78771 0.5
31 3.90171 1.99927 3.62979 0.5
32 2.50683 0.337799 3.36228 0.5
33 3.18042 1.45408 1.25565 0.5
34 0.326548 0.320775 0.358056 0.5
35 1.47565 0.207359 2.73505 0.5
36 1.33169 0.305131 1.49579 0.5
37 3.9393 2.41229 1.40183 0.5
38 2.1783 1.57045 0.28531 0.5
39 2.05496 0.260412 0.11182 0.5
40 3.46951 0.823016 2.97805 0.5
41 1.59267 3.67741 1.84131 0.5
42 1.56977 1.26265 3.19244 0.5
43 3.09218 2.2255 2.97892 0.5
44 0.465669 3.09756 2.32563 0.5
45 3.55061 1.8789 0.536966 0.5
46 0.463111 2.69577 0.534644 0.5
47 3.71019 0.568126 2.2763 0.5
48 1.83144 2.41342 3.81247 0.5
49 0.903587 2.60291 1.20451 0.5
50 2.11121 3.59632 3.12334 0.5
