ITEM: TIMESTEP
650000
ITEM: NUMBER OF ATOMS
50
ITEM: BOX BOUNDS xy xz yz pp pp pp
0.0000000000000000e+00 3.9685030000000001e+00 0.0000000000000000e+00
0.0000000000000000e+00 3.9685030000000001e+00 0.0000000000000000e+00
0.0000000000000000e+00 3.9685030000000001e+00 0.0000000000000000e+00
ITEM: ATOMS id x y z radius
1 0.176467 0.474623 3.26512 0.5
2 3.6405 0.70037 3.92667 0.5
3 2.6706 2.47722 0.246791 0.5
4 0.19402 1.28129 0.467559 0.5
5 2.89536 2.79613 1.91407 0.5
6 2.68882 1.6496 0.634195 0.5
7 1.1436 1.31598 1.67832 0.5
8 2.50237 3.68495 2.04285 0.5
9 2.37845 2.1138 3.57658 0.5
10 3.3922 1.70333 3.89326 0.5
11 0.704528 0.655204 0.755635 0.5
12 3.73813 2.6887 0.410943 0.5
13 1.30939 2.11153 0.72066 0.5
14 2.29437 2.78674 2.61886 0.5
15 0.985178 0.653489 3.3483 0.5
16 1.35974 3.4886 2.3971 0.5
17 1.08882 2.44159 2.54143 0.5
18 3.78653 3.32638 3.66004 0.5
19 3.06071 0.949443 3.50017 0.5
20 2.35623 1.37452 3.22721 0.5
21 3.0585 2.1013 2.88129 0.5
22 1.32821 1.42902 2.68777 0.5
23 1.57486 2.64239 3.20112 0.5
24 3.68264 0.743509 2.32994 0.5
25 0.556899 0.0546361 0.182464 0.5
26 2.86636 0.85633 2.49976 0.5
27 3.74256 3.28396 2.30902 0.5
28 0.297989 1.5363 3.68564 0.5
29 1.95191 1.05644 1.5521 0.5
30 3.29799 0.189921 2.49318 0.5
31 3.8086 2.6887 3.08742 0.5
32 0.114235 2.02463 0.942161 0.5
33 1.27986 0.539216 1.98571 0.5
34 0.589673 3.44033 3.11191 0.5
35 0.364754 1.47 2.90211 0.5
36 3.05901 0.517189 0.461042 0.5
37 3.00889 3.22976 1.08271 0.5
38 3.45144 1.67149 1.94541 0.5
39 1.64216 3.93726 0.766048 0.5
40 3.39187 1.63691 3.06656 0.5
41 3.07696 3.46812 0.386471 0.5
42 2.03705 1.99111 2.70177 0.5
43 2.04014 2.9635 1.64315 0.5
44 3.9474 3.88203 0.531136 0.5
45 1.65293 3.10893 0.48886 0.5
46 0.972339 2.5901 1.33605 0.5
47 0.502979 0.393733 1.68081 0.5
48 2.37258 3.72765 3.97144 0.5
49 0.712586 2.18017 3.65814 0.5
50 2.67145 1.38428 2.15667 0.5
