ITEM: TIMESTEP
470000
ITEM: NUMBER OF ATOMS
50
ITEM: BOX BOUNDS xy xz yz pp pp pp
0.0000000000000000e+00 3.9685030000000001e+00 0.0000000000000000e+00
0.0000000000000000e+00 3.9685030000000001e+00 0.0000000000000000e+00
0.0000000000000000e+00 3.9685030000000001e+00 0.0000000000000000e+00
ITEM: ATOMS id x y z radius
1 3.73916 2.88533 1.72839 0.5
2 3.60611 0.210973 0.311986 0.5
3 2.45061 0.360561 0.233985 0.5
4 2.45824 1.38118 0.938735 0.5
5 0.646702 2.83374 1.92926 0.5
6 1.45887 1.43928 3.4942 0.5
7 2.08788 2.76673 3.71786 0.5
8 2.11689 3.07427 2.88652 0.5
9 2.98656 0.366343 1.06478 0.5
10 3.53423 2.99015 2.80033 0.5
11 3.1506 0.955894 2.41219 0.5
12 0.776054 2.01383 3.10206 0.5
13 1.45335 3.74892 0.607127 0.5
14 1.65275 2.27961 2.9011 0.5
15 2.91544 1.1192 0.201134 0.5
16 0.0968216 2.50878 0.4576 0.5
17 2.71116 2.46077 1.1209 0.5
18 1.99774 3.32572 1.0889 0.5
19 3.16666 3.6718 2.36804 0.5
20 0.697076 1.65206 2.0198 0.5
21 0.270565 3.70024 3.81093 0.5
22 2.93891 0.334691 3.15134 0.5
23 0.846683 1.129 1.15305 0.5
24 3.31145 2.5827 3.51928 0.5
25 3.13424 2.54113 1.81355 0.5
26 0.841949 0.09553 0.779712 0.5
27 1.46175 2.02523 1.137 0.5
28 0.667868 0.0285185 3.16397 0.5
29 2.82988 3.65759 0.208383 0.5
30 1.28753 0.281567 3.62403 0.5
31 2.50065 1.36395 3.18841 0.5
32 0.041615 1.86725 3.14607 0.5
33 1.53675 2.68877 1.89923 0.5
34 2.07199 0.581944 0.995114 0.5
35 0.534044 2.57909 3.78407 0.5
36 3.77271 1.42731 1.87876 0.5
37 0.223377 2.14965 2.26823 0.5
38 1.04614 3.66727 1.461 0.5
39 3.26726 1.60756 1.20134 0.5
40 3.84577 0.698015 1.1563 0.5
41 0.0572823 3.16183 0.468182 0.5
42 0.505156 0.147193 1.65567 0.5
43 2.59347 1.37489 1.81361 0.5
44 3.16605 1.98864 2.49188 0.5
45 1.63559 1.06829 1.57207 0.5
46 0.542104 2.91095 2.90793 0.5
47 1.2792 2.35259 3.66416 0.5
48 0.404124 0.953444 3.46516 0.5
49 1.88155 1.40914 2.41669 0.5
50 1.31678 3.02474 3.40508 0.5
