ITEM: TIMESTEP
890000
ITEM: NUMBER OF ATOMS
50
ITEM: BOX BOUNDS xy xz yz pp pp pp
0.0000000000000000e+00 3.9685030000000001e+00 0.0000000000000000e+00
0.0000000000000000e+00 3.9685030000000001e+00 0.0000000000000000e+00
0.0000000000000000e+00 3.9685030000000001e+00 0.0000000000000000e+00
ITEM: ATOMS id x y z radius
1 1.15229 3.03477 1.48723 0.5
2 1.69793 3.94973 0.280219 0.5
3 0.945978 3.04772 0.716105 0.5
4 0.785572 1.14525 1.98247 0.5
5 3.65768 1.89779 3.13196 0.5
6 1.3644 2.36223 0.423064 0.5
7 1.97174 0.544257 1.20263 0.5
8 2.65131 2.03064 2.87363 0.5
9 3.95422 3.76738 0.443474 0.5
10 0.51584 3.75387 2.08911 0.5
11 0.645948 1.79629 1.25104 0.5
12 2.52142 2.62223 3.43515 0.5
13 3.24976 0.457593 3.58974 0.5
14 3.33769 1.30059 3.72129 0.5
15 2.99016 1.12282 0.355728 0.5
16 3.25874 1.5128 2.1968 0.5
17 0.887538 0.589707 2.99744 0.5
18 1.9865 3.07619 2.94084 0.5
19 0.975477 0.349651 0.957436 0.5
20 0.574028 2.69353 3.71783 0.5
21 2.22946 1.65723 1.30277 0.5
22 1.16294 3.83822 1.50153 0.5
23 3.67659 2.50882 1.88652 0.5
24 3.08183 2.68759 1.25295 0.5
25 2.79802 0.236543 0.70201 0.5
26 0.446265 2.40566 2.69974 0.5
27 3.04016 1.98696 3.85393 0.5
28 1.2716 3.49322 2.64602 0.5
29 0.262657 0.5417 0.0887007 0.5
30 0.0476208 0.252913 3.10857 0.5
31 2.21409 1.31583 3.35481 0.5
32 0.0787351 2.72438 1.08406 0.5
33 0.642421 1.85705 0.294956 0.5
34 3.04106 3.14197 0.390033 0.5
35 2.04384 1.82855 2.12165 0.5
36 2.54986 0.396305 3.04571 0.5
37 3.60468 0.742209 0.834892 0.5
38 3.83143 2.1031 0.352245 0.5
39 2.01883 1.5683 0.13557 0.5
40 0.400027 1.41422 3.60373 0.5
41 3.9537 3.79323 1.20254 0.5
42 2.06956 2.69257 0.922322 0.5
43 3.0403 2.63563 2.59737 0.5
44 0.0616012 1.20136 2.73959 0.5
45 3.56123 2.62314 3.59661 0.5
46 0.132228 3.16221 1.54167 0.5
47 2.95252 3.79197 1.65754 0.5
48 1.41723 2.78942 3.42509 0.5
49 1.57037 2.01228 3.15306 0.5
50 1.15876 0.923296 3.72724 0.5
