ITEM: TIMESTEP
480000
ITEM: NUMBER OF ATOMS
50
ITEM: BOX BOUNDS xy xz yz pp pp pp
0.0000000000000000e+00 3.9685030000000001e+00 0.0000000000000000e+00
0.0000000000000000e+00 3.9685030000000001e+00 0.0000000000000000e+00
0.0000000000000000e+00 3.9685030000000001e+00 0.0000000000000000e+00
ITEM: ATOMS id x y z radius
1 2.43225 0.500445 0.240995 0.5
2 1.00572 2.4607 3.91926 0.5
3 1.13529 3.09057 1.93003 0.5
4 1.08976 2.54183 0.922026 0.5
5 1.91961 1.58882 2.00915 0.5
6 2.63709 0.974814 0.932218 0.5
7 0.797449 3.57718 2.81351 0.5
8 3.79899 1.48428 2.86212 0.5
9 2.21807 0.587445 1.67813 0.5
10 3.4427 0.868075 1.16788 0.5
11 3.44081 3.02156 3.17935 0.5
12 3.60379 3.82818 3.65882 0.5
13 1.56975 2.08171 3.09707 0.5
14 3.3161 0.653479 2.76595 0.5
15 3.71089 0.505 2.11665 0.5
16 1.99552 2.63798 1.42701 0.5
17 2.45669 2.38438 3.22888 0.5
18 2.71614 2.95404 2.48517 0.5
19 2.81771 1.9705 0.214631 0.5
20 0.841071 1.60128 0.303256 0.5
21 2.22988 2.42889 2.29584 0.5
22 1.84916 0.0251362 2.51173 0.5
23 1.15959 0.955637 3.39273 0.5
24 1.97984 1.72619 3.85809 0.5
25 1.6858 3.17375 0.269046 0.5
26 0.0532456 1.94453 3.67341 0.5
27 2.69243 3.64714 1.13453 0.5
28 0.271374 3.37518 0.176881 0.5
29 2.90579 1.88344 1.32431 0.5
30 0.803778 0.731419 0.915163 0.5
31 2.97577 2.92992 3.69753 0.5
32 1.78068 3.00892 2.67662 0.5
33 1.46162 0.83329 1.71277 0.5
34 0.250737 1.20067 0.31881 0.5
35 2.75427 1.16242 2.57849 0.5
36 1.3363 3.92164 1.76876 0.5
37 1.51091 1.56734 1.19002 0.5
38 3.3196 2.18924 2.32618 0.5
39 0.554182 2.01707 1.48647 0.5
40 0.608651 0.43551 1.99662 0.5
41 3.81724 1.78738 0.818131 0.5
42 0.502016 2.92482 3.16739 0.5
43 0.845051 1.46974 2.19763 0.5
44 0.65192 0.473984 3.85379 0.5
45 0.150622 3.71834 0.989972 0.5
46 2.28726 3.6263 1.97793 0.5
47 2.24984 1.87983 0.685088 0.5
48 3.03966 1.36891 3.57609 0.5
49 2.66378 2.65412 0.85636 0.5
50 2.14744 1.03937 0.238129 0.5
