ITEM: TIMESTEP
950000
ITEM: NUMBER OF ATOMS
50
ITEM: BOX BOUNDS xy xz yz pp pp pp
0.0000000000000000e+00 3.9685030000000001e+00 0.0000000000000000e+00
0.0000000000000000e+00 3.9685030000000001e+00 0.0000000000000000e+00
0.0000000000000000e+00 3.9685030000000001e+00 0.0000000000000000e+00
ITEM: ATOMS id x y z radius
1 0.0535115 3.12002 0.444171 0.5
2 3.16105 1.06273 2.0645 0.5
3 3.18794 2.35419 0.556812 0.5
4 0.0125175 2.31177 3.17098 0.5
5 1.02478 3.67791 1.60304 0.5
6 0.0607816 2.24979 0.954468 0.5
7 3.10391 3.22414 0.0134685 0.5
8 1.37005 0.782746 1.77016 0.5
9 2.43674 1.81657 0.12213 0.5
10 3.33904 0.237413 2.12631 0.5
11 1.78885 0.33484 3.17907 0.5
12 0.42715 0.703037 1.66091 0.5
13 2.37782 1.15942 2.72149 0.5
14 3.96042 2.24688 2.18398 0.5
15 0.277785 3.43665 3.25272 0.5
16 0.904942 2.32694 0.364634 0.5
17 2.36628 0.132369 0.575908 0.5
18 3.50493 1.2407 3.43579 0.5
19 1.91685 3.09961 3.39004 0.5
20 1.73781 3.17716 0.55738 0.5
21 0.754149 1.49866 0.88485 0.5
22 3.66673 2.80663 1.33966 0.5
23 2.58534 2.40004 1.26392 0.5
24 0.590268 2.69626 1.64744 0.5
25 2.58777 3.89174 3.56056 0.5
26 0.877983 1.08204 0.115286 0.5
27 1.31462 0.1146 0.721877 0.5
28 1.71386 0.606148 0.104935 0.5
29 1.86948 3.72719 1.41641 0.5
30 2.49902 2.64133 2.50964 0.5
31 2.39725 0.995432 3.55458 0.5
32 2.66803 0.257422 2.71988 0.5
33 2.38901 0.478237 1.81106 0.5
34 0.298164 0.632082 3.36799 0.5
35 2.00196 2.2067 3.13975 0.5
36 1.68589 1.35115 0.753325 0.5
37 2.9134 1.95758 3.47147 0.5
38 3.25539 3.61693 3.09687 0.5
39 2.1768 1.48129 1.85009 0.5
40 1.65631 3.43705 2.48995 0.5
41 0.13446 0.330586 0.367907 0.5
42 3.77246 2.1576 0.201687 0.5
43 3.42261 1.7047 1.31341 0.5
44 3.7029 1.54985 2.46326 0.5
45 1.12652 3.69733 3.85688 0.5
46 1.07417 2.14466 1.2772 0.5
47 2.43356 0.853756 1.11215 0.5
48 3.25183 3.11011 2.09171 0.5
49 1.95927 2.76744 1.32405 0.5
50 3.65997 0.554455 2.7039 0.5
