ITEM: TIMESTEP
40000
ITEM: NUMBER OF ATOMS
50
ITEM: BOX BOUNDS xy xz yz pp pp pp
0.0000000000000000e+00 3.9685030000000001e+00 0.0000000000000000e+00
0.0000000000000000e+00 3.9685030000000001e+00 0.0000000000000000e+00
0.0000000000000000e+00 3.9685030000000001e+00 0.0000000000000000e+00
ITEM: ATOMS id x y z radius
1 1.19345 1.67237 0.138177 0.5
2 1.66156 0.598076 2.51591 0.5
3 0.501298 1.81199 2.89467 0.5
4 2.39394 0.698547 0.403283 0.5
5 3.48533 1.64373 2.8406 0.5
6 2.54492 3.78594 1.4839 0.5
7 2.0571 3.9779 3.765 0.5
8 0.86021 0.122411 3.14114 0.5
9 2.44657 3.01644 3.55916 0.5
10 0.179595 2.14799 3.64693 0.5
11 3.29455 2.91314 2.78152 0.5
12 0.3833 0.920732 0.546729 0.5
13 2.08584 0.990819 3.05392 0.5
14 1.97982 0.578613 1.06763 0.5
15 1.71262 3.9234 1.5811 0.5
16 0.902294 0.497724 1.33278 0.5
17 3.3605 3.65165 0.791937 0.5
18 2.48483 0.394929 2.50172 0.5
19 0.200087 3.56247 2.38303 0.5
20 0.307061 3.33072 0.418863 0.5
21 0.679773 0.309769 2.12663 0.5
22 3.55061 0.403517 2.32896 0.5
23 0.763157 2.56859 1.69524 0.5
24 1.99057 2.18673 1.81347 0.5
25 0.407932 1.02517 3.37378 0.5
26 2.94991 3.71981 3.4272 0.5
27 3.78468 3.76246 3.72097 0.5
28 3.64067 1.15234 1.46883 0.5
29 2.45376 2.3653 2.77543 0.5
30 0.889086 3.37131 1.67229 0.5
31 3.71863 2.28784 1.31611 0.5
32 3.2869 2.73031 0.610302 0.5
33 2.99345 0.925972 2.90348 0.5
34 1.03943 1.51535 1.09708 0.5
35 2.56567 2.08301 0.371911 0.5
36 0.18003 2.53122 2.96348 0.5
37 1.69976 2.47839 2.56993 0.5
38 1.66295 2.22193 0.658038 0.5
39 0.517579 2.46524 0.68276 0.5
40 2.34559 0.753831 1.86003 0.5
41 1.88594 3.52656 2.48305 0.5
42 3.49188 1.61224 0.565645 0.5
43 3.38051 3.61691 1.96606 0.5
44 0.853463 3.29696 3.43167 0.5
45 1.15996 0.892003 3.39735 0.5
46 1.34261 1.60052 2.25675 0.5
47 2.9999 2.8688 1.87191 0.5
48 1.39911 3.8283 0.599416 0.5
49 0.0732739 3.91454 1.26279 0.5
50 1.77367 1.09487 0.498065 0.5
