ITEM: TIMESTEP
120000
ITEM: NUMBER OF ATOMS
50
ITEM: BOX BOUNDS xy xz yz pp pp pp
0.0000000000000000e+00 3.9685030000000001e+00 0.0000000000000000e+00
0.0000000000000000e+00 3.9685030000000001e+00 0.0000000000000000e+00
0.0000000000000000e+00 3.9685030000000001e+00 0.0000000000000000e+00
ITEM: ATOMS id x y z radius
1 3.68586 0.420934 0.810105 0.5
2 1.14569 2.16676 0.0493223 0.5
3 0.488648 2.6544 0.806154 0.5
4 3.04727 1.01481 1.22577 0.5
5 2.77131 3.16266 3.86248 0.5
6 1.31907 3.049 1.18376 0.5
7 2.21916 3.95163 3.36895 0.5
8 1.21764 2.35824 1.9246 0.5
9 2.74173 2.88386 1.94863 0.5
10 0.736816 0.226085 2.73976 0.5
11 2.1444 3.14055 0.780084 0.5
12 0.33157 2.09379 1.70561 0.5
13 2.09812 0.898818 3.49638 0.5
14 2.49967 1.67778 3.04837 0.5
15 1.85672 1.2433 0.907482 0.5
16 0.208367 3.76779 1.99265 0.5
17 2.95195 3.73755 3.1499 0.5
18 3.42843 2.78742 2.89751 0.5
19 1.47891 2.83092 3.19722 0.5
20 3.09419 0.835212 0.345018 0.5
21 0.155122 3.17599 2.46355 0.5
22 1.24863 0.672686 3.39198 0.5
23 1.3791 2.40187 1.10648 0.5
24 1.42963 3.66402 3.42285 0.5
25 2.47822 0.290019 0.714435 0.5
26 2.09182 2.96053 3.39285 0.5
27 3.66655 2.02563 1.09627 0.5
28 0.510944 0.721811 0.554689 0.5
29 0.658935 3.76658 1.1654 0.5
30 1.18975 0.71205 1.03141 0.5
31 1.9104 2.43183 2.21839 0.5
32 3.49787 1.72909 2.97903 0.5
33 3.56454 2.36774 2.21543 0.5
34 0.572887 3.85866 0.111309 0.5
35 2.75934 1.68972 0.198022 0.5
36 0.138324 1.09493 1.47275 0.5
37 1.32718 3.85308 0.608348 0.5
38 2.39522 1.6053 1.61125 0.5
39 0.0247232 2.59934 0.0117566 0.5
40 3.10157 2.13354 3.58299 0.5
41 3.82421 0.653605 2.19027 0.5
42 2.08683 1.33824 2.51565 0.5
43 3.25637 3.78398 0.263898 0.5
44 0.736103 0.4736 1.87537 0.5
45 2.51997 0.135172 1.3232 0.5
46 1.57604 0.360202 2.50631 0.5
47 1.189 3.08458 0.502571 0.5
48 2.01327 3.50081 2.54464 0.5
49 3.48132 1.42153 2.01168 0.5
50 3.23449 3.94177 2.1571 0.5
