ITEM: TIMESTEP
280000
ITEM: NUMBER OF ATOMS
50
ITEM: BOX BOUNDS xy xz yz pp pp pp
0.0000000000000000e+00 3.9685030000000001e+00 0.0000000000000000e+00
0.0000000000000000e+00 3.9685030000000001e+00 0.0000000000000000e+00
0.0000000000000000e+00 3.9685030000000001e+00 0.0000000000000000e+00
ITEM: ATOMS id x y z radius
1 2.26557 2.90343 2.97518 0.5
2 0.645718 2.50188 0.0238988 0.5
3 2.81019 3.15421 0.685714 0.5
4 2.611 1.76853 2.68311 0.5
5 3.14012 1.89218 3.85256 0.5
6 2.83248 3.03313 1.53824 0.5
7 2.27424 2.74296 3.89061 0.5
8 2.49384 0.785548 2.87195 0.5
9 0.956488 -0.00250547 0.159686 0.5
10 3.52594 2.85753 1.66638 0.5
11 0.685246 3.53655 0.985069 0.5
12 1.92243 2.55377 1.87125 0.5
13 3.66286 0.540541 1.49339 0.5
14 3.08849 2.40697 2.08403 0.5
15 1.44488 0.290675 2.97754 0.5
16 0.250272 0.479364 2.48045 0.5
17 2.51706 0.122434 0.904927 0.5
18 1.86555 1.66259 2.04242 0.5
19 2.49927 3.63139 3.37035 0.5
20 1.18629 2.83816 2.02727 0.5
21 0.708341 1.57479 0.661688 0.5
22 1.67696 1.02284 1.53966 0.5
23 3.62363 1.43587 3.0222 0.5
24 0.253707 2.31829 1.97484 0.5
25 3.38854 3.58848 2.63755 0.5
26 0.652927 1.01167 3.51884 0.5
27 1.00404 1.84357 3.5767 0.5
28 0.402074 3.33147 3.0182 0.5
29 1.1726 0.257191 2.02797 0.5
30 3.65524 1.67075 1.47771 0.5
31 2.72327 0.937927 1.23279 0.5
32 3.14074 1.23771 2.237 0.5
33 3.32097 2.18195 0.864292 0.5
34 2.18156 3.55498 1.92157 0.5
35 2.38071 1.46868 3.66458 0.5
36 3.00676 0.145021 1.73913 0.5
37 0.455281 2.58323 0.961681 0.5
38 3.58293 2.1824 2.56713 0.5
39 0.642562 0.728494 0.697424 0.5
40 2.42198 1.86041 0.465985 0.5
41 1.89802 2.07949 3.35847 0.5
42 1.67597 1.11717 3.2502 0.5
43 3.15543 0.460975 3.57028 0.5
44 0.467842 2.44959 2.89385 0.5
45 0.0175303 3.38672 3.68988 0.5
46 2.31036 0.763717 1.84877 0.5
47 1.78668 2.03801 0.200459 0.5
48 0.0806246 1.65933 3.55967 0.5
49 1.80014 0.922519 2.38585 0.5
50 1.21851 1.96281 1.40523 0.5
