ITEM: TIMESTEP
60000
ITEM: NUMBER OF ATOMS
50
ITEM: BOX BOUNDS xy xz yz pp pp pp
0.0000000000000000e+00 3.9685030000000001e+00 0.0000000000000000e+00
0.0000000000000000e+00 3.9685030000000001e+00 0.0000000000000000e+00
0.0000000000000000e+00 3.9685030000000001e+00 0.0000000000000000e+00
ITEM: ATOMS id x y z radius
1 3.82049 3.5325 2.22445 0.5
2 1.24334 3.79466 1.31799 0.5
3 1.48221 1.37795 1.99055 0.5
4 2.67618 0.97902 1.61699 0.5
5 3.79625 2.3214 2.95467 0.5
6 3.72209 2.64166 0.425704 0.5
7 2.26878 2.94689 1.3389 0.5
8 0.404444 1.15546 3.41053 0.5
9 2.01525 0.46474 2.17619 0.5
10 2.05625 1.2586 1.03105 0.5
11 2.13836 2.88135 2.51705 0.5
12 0.565315 0.606682 0.821366 0.5
13 0.0162108 1.95466 1.77469 0.5
14 3.59861 3.71315 0.608771 0.5
15 2.15444 0.727142 3.2781 0.5
16 2.53246 3.92877 2.85077 0.5
17 3.21413 0.553236 0.90378 0.5
18 3.6575 1.0159 1.5847 0.5
19 2.21936 3.55887 0.718116 0.5
20 0.29911 3.17733 0.283554 0.5
21 3.10266 0.121178 2.26995 0.5
22 2.27919 1.09301 0.332376 0.5
23 2.63016 2.11242 3.18215 0.5
24 2.03078 0.398023 1.10197 0.5
25 1.01079 0.468849 1.85331 0.5
26 1.30542 0.952675 2.6228 0.5
27 0.482963 0.174921 2.496 0.5
28 2.84162 0.253162 1.35663 0.5
29 2.94346 0.605446 3.80827 0.5
30 1.94212 1.38699 2.92425 0.5
31 3.81859 -0.00356215 3.48644 0.5
32 2.69305 3.3018 0.148644 0.5
33 0.85706 1.66914 3.80428 0.5
34 3.66697 0.764142 0.19203 0.5
35 1.24083 0.554673 3.81646 0.5
36 2.28062 3.7197 1.61336 0.5
37 0.201602 3.26429 1.32179 0.5
38 1.69968 1.68942 3.50086 0.5
39 2.22669 3.90776 3.80352 0.5
40 0.669971 3.92132 0.539758 0.5
41 2.82829 1.26305 3.36034 0.5
42 0.964646 3.47566 2.97145 0.5
43 0.604165 2.30219 2.39975 0.5
44 3.19315 2.96854 1.66587 0.5
45 3.3761 1.9871 0.0237553 0.5
46 0.90039 2.29642 0.26776 0.5
47 1.2871 1.94472 1.47551 0.5
48 1.22062 1.2606 0.573125 0.5
49 1.61153 2.58735 0.725751 0.5
50 1.66135 2.41295 3.18201 0.5
