ITEM: TIMESTEP
590000
ITEM: NUMBER OF ATOMS
50
ITEM: BOX BOUNDS xy xz yz pp pp pp
0.0000000000000000e+00 3.9685030000000001e+00 0.0000000000000000e+00
0.0000000000000000e+00 3.9685030000000001e+00 0.0000000000000000e+00
0.0000000000000000e+00 3.9685030000000001e+00 0.0000000000000000e+00
ITEM: ATOMS id x y z radius
1 0.647097 2.24484 1.85943 0.5
2 1.85906 0.934679 2.68596 0.5
3 2.41922 2.36698 1.18222 0.5
4 3.41491 2.80174 2.63438 0.5
5 3.31998 1.75969 1.392 0.5
6 2.59126 2.77156 0.0808515 0.5
7 3.13515 3.54033 2.41961 0.5
8 2.34037 2.1819 3.56065 0.5
9 3.67314 3.7389 3.27113 0.5
10 0.0641173 3.09842 1.88649 0.5
11 1.82079 3.95599 1.2765 0.5
12 0.71871 3.28079 2.39362 0.5
13 2.9935 0.501552 1.40596 0.5
14 3.29558 2.68539 1.55743 0.5
15 1.2836 3.40058 3.25959 0.5
16 1.53337 2.81272 3.62191 0.5
17 2.83296 0.32922 3.57169 0.5
18 0.692603 1.96028 0.42248 0.5
19 0.202148 1.03039 0.79045 0.5
20 3.6196 3.55423 0.170653 0.5
21 3.42289 2.23791 3.50504 0.5
22 0.553293 0.318692 0.95529 0.5
23 2.51519 3.31387 0.948905 0.5
24 1.37367 1.64339 1.93705 0.5
25 2.79694 2.39549 2.15965 0.5
26 0.404389 3.39825 3.32854 0.5
27 3.17193 2.1365 0.498938 0.5
28 0.485754 1.73927 1.42856 0.5
29 3.75252 1.41464 0.278672 0.5
30 3.72154 2.24055 2.09927 0.5
31 2.40153 3.36302 2.84926 0.5
32 1.26394 0.423118 3.20992 0.5
33 2.80184 0.942452 3.1302 0.5
34 3.57879 0.520243 2.80703 0.5
35 0.576543 1.31858 2.24648 0.5
36 0.289688 0.912189 3.30556 0.5
37 2.14602 1.75238 1.67387 0.5
38 1.20309 0.731276 1.44445 0.5
39 0.675334 1.57328 3.1249 0.5
40 2.63271 3.14617 1.98176 0.5
41 2.0452 2.77305 2.11811 0.5
42 1.02059 3.88241 2.05071 0.5
43 1.25438 2.12601 1.25077 0.5
44 0.00497578 2.72746 0.518046 0.5
45 0.726684 3.48862 0.19001 0.5
46 2.82847 0.936916 2.16074 0.5
47 3.66756 1.37727 2.52658 0.5
48 2.20823 -0.0174718 2.22984 0.5
49 0.508264 0.387775 2.7069 0.5
50 0.994743 1.22742 0.508558 0.5
