ITEM: TIMESTEP
750000
ITEM: NUMBER OF ATOMS
50
ITEM: BOX BOUNDS xy xz yz pp pp pp
0.0000000000000000e+00 3.9685030000000001e+00 0.0000000000000000e+00
0.0000000000000000e+00 3.9685030000000001e+00 0.0000000000000000e+00
0.0000000000000000e+00 3.9685030000000001e+00 0.0000000000000000e+00
ITEM: ATOMS id x y z radius
1 0.809247 3.917 1.88777 0.5
2 2.5247 2.08283 2.89061 0.5
3 2.33826 3.39793 3.93144 0.5
4 0.495738 1.90919 2.78619 0.5
5 2.6098 3.83237 1.79643 0.5
6 2.91398 0.992592 0.420168 0.5
7 3.23734 2.03852 1.38369 0.5
8 1.50756 3.87997 1.10314 0.5
9 2.76968 0.0788377 0.705104 0.5
10 3.64567 0.643876 3.50422 0.5
11 2.83024 0.188081 3.25404 0.5
12 2.79752 2.1123 2.08788 0.5
13 3.3541 0.403362 1.22659 0.5
14 0.306083 1.4488 3.88587 0.5
15 3.3326 0.73977 2.4043 0.5
16 0.361522 0.970167 1.88579 0.5
17 1.54689 1.8161 2.98374 0.5
18 3.43682 3.08969 0.671826 0.5
19 0.4244 3.74963 3.80948 0.5
20 3.75422 0.229573 0.562711 0.5
21 1.84405 1.11388 0.429222 0.5
22 0.829939 2.74852 0.163908 0.5
23 1.01433 3.09302 1.11438 0.5
24 0.912543 0.695894 0.922587 0.5
25 1.24894 2.68574 2.88835 0.5
26 1.18401 3.60616 3.45342 0.5
27 0.375028 3.76563 1.02912 0.5
28 1.34274 1.62039 1.61942 0.5
29 3.45113 3.22523 2.26685 0.5
30 2.92371 3.22581 1.57692 0.5
31 1.73559 2.35504 2.25201 0.5
32 0.0423786 2.45136 3.81436 0.5
33 2.08033 3.90861 3.13862 0.5
34 3.27452 1.38205 3.2575 0.5
35 1.41691 0.746088 1.85644 0.5
36 1.30793 0.574526 3.7754 0.5
37 2.84064 3.25942 3.11906 0.5
38 2.47845 3.56425 2.47435 0.5
39 1.07948 0.0412207 0.307171 0.5
40 3.11358 2.74115 3.84405 0.5
41 0.516601 2.19168 1.37306 0.5
42 0.3024 1.09361 2.99056 0.5
43 0.906217 0.683915 2.31046 0.5
44 3.89884 3.19287 3.20203 0.5
45 3.92187 0.230399 2.21419 0.5
46 1.97899 2.63579 3.92786 0.5
47 1.8691 3.16315 1.83048 0.5
48 3.39461 2.5871 2.7813 0.5
49 0.0560569 2.05014 0.565989 0.5
50 1.1466 1.22766 2.84205 0.5
