ITEM: TIMESTEP
810000
ITEM: NUMBER OF ATOMS
50
ITEM: BOX BOUNDS xy xz yz pp pp pp
0.0000000000000000e+00 3.9685030000000001e+00 0.0000000000000000e+00
0.0000000000000000e+00 3.9685030000000001e+00 0.0000000000000000e+00
0.0000000000000000e+00 3.9685030000000001e+00 0.0000000000000000e+00
ITEM: ATOMS id x y z radius
1 2.46079 1.19546 2.79252 0.5
2 2.62302 2.74926 3.60407 0.5
3 0.79263 3.21387 2.11932 0.5
4 0.122025 0.551276 3.53548 0.5
5 3.14494 1.38641 0.990714 0.5
6 1.30298 1.10151 0.282738 0.5
7 2.1219 0.298321 0.257804 0.5
8 1.79062 3.32639 2.6908 0.5
9 2.90489 0.341003 1.01765 0.5
10 1.1272 1.36104 3.4082 0.5
11 0.0930546 3.69684 0.29443 0.5
12 3.27459 0.360425 2.30113 0.5
13 1.1164 3.77755 3.85616 0.5
14 3.5495 3.31093 2.30622 0.5
15 3.07993 3.6402 1.22718 0.5
16 3.78159 1.25563 2.05571 0.5
17 0.606503 2.77206 0.766399 0.5
18 1.73157 2.7389 2.03926 0.5
19 2.77772 1.34199 2.01081 0.5
20 2.69466 2.7748 0.652877 0.5
21 2.72399 0.205552 3.37837 0.5
22 1.57625 1.67017 1.8883 0.5
23 3.45554 2.53923 1.92334 0.5
24 3.84648 0.782949 1.26113 0.5
25 1.99348 3.7781 3.51872 0.5
26 3.59141 1.89525 3.54111 0.5
27 2.07406 3.69199 2.22186 0.5
28 2.76588 1.0764 3.82475 0.5
29 3.9478 2.94507 1.442 0.5
30 0.400776 0.517553 0.577048 0.5
31 2.0461 1.01848 3.61569 0.5
32 2.34861 2.27683 2.7482 0.5
33 0.392882 0.465336 1.85562 0.5
34 0.773239 2.50119 1.66561 0.5
35 0.399266 2.2935 2.43714 0.5
36 2.4357 2.42853 1.44126 0.5
37 1.30495 1.2861 1.13213 0.5
38 0.696775 3.68249 1.06617 0.5
39 3.18963 3.43215 3.24814 0.5
40 0.957962 0.174314 2.68863 0.5
41 1.42796 4.00767 1.40953 0.5
42 3.38054 1.79669 2.71002 0.5
43 0.0203772 2.0227 0.705303 0.5
44 1.99853 1.38943 1.48281 0.5
45 0.525089 1.45645 1.63681 0.5
46 0.866143 1.57395 2.68762 0.5
47 1.53482 2.38775 1.04259 0.5
48 2.16887 3.77195 1.15409 0.5
49 2.2093 1.93934 0.682499 0.5
50 1.33495 3.17987 1.42065 0.5
