ITEM: TIMESTEP
680000
ITEM: NUMBER OF ATOMS
50
ITEM: BOX BOUNDS xy xz yz pp pp pp
0.0000000000000000e+00 3.9685030000000001e+00 0.0000000000000000e+00
0.0000000000000000e+00 3.9685030000000001e+00 0.0000000000000000e+00
0.0000000000000000e+00 3.9685030000000001e+00 0.0000000000000000e+00
ITEM: ATOMS id x y z radius
1 1.3398 1.04725 3.79071 0.5
2 3.85753 0.539094 3.57651 0.5
3 0.772272 3.7605 1.91161 0.5
4 2.07098 0.304963 1.93084 0.5
5 1.87167 1.75896 1.29864 0.5
6 0.603742 0.636427 1.07588 0.5
7 0.714418 1.56705 2.0854 0.5
8 1.88538 2.27712 2.79866 0.5
9 0.722376 0.285615 2.96521 0.5
10 0.922409 3.25424 0.00582922 0.5
11 2.1557 0.198762 3.36544 0.5
12 2.13106 2.97348 1.32082 0.5
13 0.857069 3.19533 2.92571 0.5
14 3.71997 2.87825 3.85565 0.5
15 3.66475 2.99088 2.86114 0.5
16 2.64973 3.04436 2.75917 0.5
17 2.02712 3.9064 0.602674 0.5
18 2.4352 1.3256 2.10593 0.5
19 1.2053 0.893729 1.66464 0.5
20 3.83371 3.55688 2.33826 0.5
21 2.57384 2.23154 1.47035 0.5
22 1.89434 3.06619 3.58752 0.5
23 1.46108 2.13686 1.82309 0.5
24 3.04836 3.27291 2.24069 0.5
25 0.622952 2.71249 2.03389 0.5
26 1.39218 3.9765 3.80915 0.5
27 3.75791 2.65459 0.911603 0.5
28 0.447356 1.20076 3.20146 0.5
29 3.77777 2.18252 3.11302 0.5
30 1.23474 2.74948 0.812623 0.5
31 3.49845 1.54678 1.7764 0.5
32 1.45225 1.42296 0.594328 0.5
33 3.03544 3.99601 0.278525 0.5
34 1.42872 0.754291 2.9248 0.5
35 2.84181 0.739889 0.28606 0.5
36 0.489045 2.54555 0.25174 0.5
37 1.97989 3.20318 2.36214 0.5
38 3.96623 1.26901 0.502347 0.5
39 2.82568 1.95274 3.22117 0.5
40 1.52618 3.76531 2.87664 0.5
41 3.11762 3.70899 1.38468 0.5
42 0.67462 1.65666 3.81936 0.5
43 3.11431 0.615209 3.20245 0.5
44 2.54646 0.0294899 2.49675 0.5
45 2.42256 2.24983 0.59902 0.5
46 0.0406005 1.70855 3.86777 0.5
47 2.74167 3.08189 0.716301 0.5
48 0.516133 1.70675 1.06841 0.5
49 0.562488 3.40098 1.00873 0.5
50 3.02148 1.41658 1.10538 0.5
