ITEM: TIMESTEP
230000
ITEM: NUMBER OF ATOMS
50
ITEM: BOX BOUNDS xy xz yz pp pp pp
0.0000000000000000e+00 3.9685030000000001e+00 0.0000000000000000e+00
0.0000000000000000e+00 3.9685030000000001e+00 0.0000000000000000e+00
0.0000000000000000e+00 3.9685030000000001e+00 0.0000000000000000e+00
ITEM: ATOMS id x y z radius
1 1.5257 2.05928 1.71864 0.5
2 0.609163 3.83317 0.909122 0.5
3 2.38356 3.92195 1.84417 0.5
4 1.10847 1.03304 3.4648 0.5
5 2.60103 0.336824 0.488358 0.5
6 2.65235 0.557404 2.57482 0.5
7 0.797664 3.009 1.45103 0.5
8 3.66893 0.0195009 0.163565 0.5
9 3.35678 2.27973 2.83843 0.5
10 3.35707 0.246506 3.28357 0.5
11 1.40069 3.31635 0.764491 0.5
12 1.07655 0.116539 1.72566 0.5
13 2.79704 2.88629 0.465465 0.5
14 1.03006 1.74791 1.10612 0.5
15 3.31715 0.174737 2.29674 0.5
16 1.68273 0.344579 3.06765 0.5
17 1.9518 0.389841 0.145419 0.5
18 0.207262 1.35158 1.62037 0.5
19 2.57426 3.70114 2.88132 0.5
20 0.586913 1.05652 0.180641 0.5
21 0.418922 0.640054 2.04221 0.5
22 3.37736 3.21615 2.62436 0.5
23 3.53924 1.15569 0.466348 0.5
24 3.46571 1.90985 2.03316 0.5
25 1.99365 1.21987 0.93681 0.5
26 3.8333 3.37966 0.546145 0.5
27 0.954287 3.23834 0.00694773 0.5
28 1.60173 3.21938 2.22275 0.5
29 0.75571 2.04505 2.97345 0.5
30 3.78028 1.45441 3.23087 0.5
31 1.55268 1.77622 3.44 0.5
32 0.193282 2.4377 1.11314 0.5
33 0.355303 3.93557 3.60606 0.5
34 0.204892 3.10468 2.84574 0.5
35 1.73132 1.66063 2.3251 0.5
36 3.32038 3.36182 3.41521 0.5
37 2.73175 1.19441 1.68805 0.5
38 2.47884 2.67593 2.51348 0.5
39 3.17873 2.5025 1.37333 0.5
40 2.98841 1.92148 0.75088 0.5
41 2.4555 3.83718 3.83039 0.5
42 2.46558 2.55649 1.60484 0.5
43 2.00531 1.12988 3.86002 0.5
44 0.78067 1.70703 2.1492 0.5
45 0.761564 3.75406 2.54039 0.5
46 1.60156 2.6506 3.96689 0.5
47 0.668326 2.07776 0.0796226 0.5
48 1.38807 2.86179 2.97743 0.5
49 1.24034 1.13213 2.6602 0.5
50 2.976 3.24266 1.80319 0.5
