ITEM: TIMESTEP
30000
ITEM: NUMBER OF ATOMS
50
ITEM: BOX BOUNDS xy xz yz pp pp pp
0.0000000000000000e+00 3.9685030000000001e+00 0.0000000000000000e+00
0.0000000000000000e+00 3.9685030000000001e+00 0.0000000000000000e+00
0.0000000000000000e+00 3.9685030000000001e+00 0.0000000000000000e+00
ITEM: ATOMS id x y z radius
1 1.95338 0.37691 3.2129 0.5
2 3.16404 1.76906 1.63539 0.5
3 1.08834 0.9564 3.80897 0.5
4 2.84897 0.969354 1.27628 0.5
5 1.27547 0.340548 2.23493 0.5
6 3.60085 2.59076 1.62447 0.5
7 1.49477 3.26748 2.55978 0.5
8 2.29479 3.49698 0.562517 0.5
9 1.88743 3.92847 0.00698711 0.5
10 0.344827 0.837357 2.55995 0.5
11 1.07763 2.12391 0.0741451 0.5
12 3.30214 0.766911 2.14478 0.5
13 1.74855 3.04432 1.40234 0.5
14 2.87098 2.13483 0.670553 0.5
15 2.52166 2.43399 2.0431 0.5
16 2.73177 0.423005 0.0847101 0.5
17 1.26007 3.33102 0.648812 0.5
18 1.89621 0.8638 0.667324 0.5
19 1.67101 2.48989 2.15286 0.5
20 3.42734 1.69332 2.62356 0.5
21 3.12938 3.75497 0.919805 0.5
22 0.388392 0.475976 0.257134 0.5
23 0.458327 2.27251 2.98116 0.5
24 0.909593 2.59797 0.997215 0.5
25 3.59305 3.89522 1.91902 0.5
26 0.0322537 3.246 0.70085 0.5
27 1.75532 2.85969 0.263723 0.5
28 2.32925 1.01263 1.80518 0.5
29 3.87321 0.646484 1.16213 0.5
30 2.88041 3.34115 1.4805 0.5
31 1.77604 2.06433 1.18434 0.5
32 1.34923 0.177613 0.67313 0.5
33 1.07155 3.79566 3.56519 0.5
34 2.02973 1.67223 2.69968 0.5
35 0.962482 2.67299 2.01839 0.5
36 3.22263 3.60497 2.82731 0.5
37 0.785018 1.49331 0.689375 0.5
38 2.66103 2.64469 3.67659 0.5
39 2.68179 2.72532 2.74878 0.5
40 2.64162 3.60256 3.66509 0.5
41 0.640133 1.73557 2.27036 0.5
42 3.51816 1.20401 3.68454 0.5
43 1.32452 2.71241 3.37133 0.5
44 2.08158 1.63675 1.58718 0.5
45 2.79393 0.19725 1.93719 0.5
46 0.819123 0.748154 0.869505 0.5
47 0.429902 -0.00179925 1.18341 0.5
48 3.72763 3.84565 3.40428 0.5
49 1.93322 1.49843 0.0711694 0.5
50 3.19363 3.40987 0.103215 0.5
