ITEM: TIMESTEP
700000
ITEM: NUMBER OF ATOMS
50
ITEM: BOX BOUNDS xy xz yz pp pp pp
0.0000000000000000e+00 3.9685030000000001e+00 0.0000000000000000e+00
0.0000000000000000e+00 3.9685030000000001e+00 0.0000000000000000e+00
0.0000000000000000e+00 3.9685030000000001e+00 0.0000000000000000e+00
ITEM: ATOMS id x y z radius
1 2.93851 2.10296 0.89916 0.5
2 1.93401 1.40088 2.96134 0.5
3 1.3226 2.47236 2.61528 0.5
4 3.11847 3.30601 1.90621 0.5
5 1.63948 0.674708 2.23794 0.5
6 0.585129 2.65759 3.42834 0.5
7 1.97184 3.51216 1.23449 0.5
8 3.6346 3.49947 3.6232 0.5
9 1.72358 1.9185 1.66806 0.5
10 0.921933 2.64383 1.14589 0.5
11 3.00042 2.36395 3.37075 0.5
12 3.27858 3.9386 2.47436 0.5
13 3.18148 0.620199 3.6371 0.5
14 2.25443 1.32384 1.72544 0.5
15 2.39842 1.98492 2.50195 0.5
16 0.979265 0.930366 3.66843 0.5
17 2.1848 0.756905 3.41409 0.5
18 2.93464 1.31236 2.39475 0.5
19 3.53808 2.19656 1.94228 0.5
20 2.73478 1.2907 3.90621 0.5
21 2.39863 0.763801 2.58579 0.5
22 3.0798 3.45527 0.382401 0.5
23 3.63023 2.00704 3.13167 0.5
24 0.456799 2.3478 2.33615 0.5
25 3.24904 2.63117 2.69295 0.5
26 1.25996 3.33359 0.48071 0.5
27 1.80967 1.06725 0.495011 0.5
28 2.06193 3.4771 2.24629 0.5
29 1.18414 1.46141 2.39204 0.5
30 1.52304 1.6887 3.7445 0.5
31 2.57357 2.50544 1.65887 0.5
32 1.49704 0.781157 1.52783 0.5
33 3.16846 1.32458 1.36311 0.5
34 2.50658 3.89823 0.756947 0.5
35 0.703371 0.810551 2.80213 0.5
36 1.04962 1.17574 0.703454 0.5
37 3.32827 0.429505 0.66206 0.5
38 0.425009 0.0437611 0.426193 0.5
39 2.41794 2.40226 0.168016 0.5
40 3.63723 2.19484 0.282802 0.5
41 1.88398 0.0420382 0.151869 0.5
42 3.86713 2.58925 1.39961 0.5
43 0.0986082 0.90597 3.67597 0.5
44 1.98181 2.32293 3.28206 0.5
45 0.403209 1.29125 1.30884 0.5
46 1.17391 0.266168 0.888985 0.5
47 1.22168 0.275346 2.95429 0.5
48 3.901 0.956577 0.42725 0.5
49 0.333667 3.29618 1.81514 0.5
50 2.32047 0.823599 1.1184 0.5
