ITEM: TIMESTEP
530000
ITEM: NUMBER OF ATOMS
50
ITEM: BOX BOUNDS xy xz yz pp pp pp
0.0000000000000000e+00 3.9685030000000001e+00 0.0000000000000000e+00
0.0000000000000000e+00 3.9685030000000001e+00 0.0000000000000000e+00
0.0000000000000000e+00 3.9685030000000001e+00 0.0000000000000000e+00
ITEM: ATOMS id x y z radius
1 2.89136 3.6471 1.41304 0.5
2 3.64557 0.0137939 0.529971 0.5
3 2.87796 1.23207 3.66759 0.5
4 3.17601 0.411691 2.05218 0.5
5 1.61059 1.10719 1.96268 0.5
6 1.34112 1.79006 2.54451 0.5
7 2.57964 1.28225 2.78905 0.5
8 3.04581 1.62088 1.5253 0.5
9 3.36225 2.15445 2.09836 0.5
10 0.628307 1.57489 1.35618 0.5
11 2.21324 1.97647 2.22116 0.5
12 0.697977 0.159894 2.98377 0.5
13 1.04184 0.847508 2.46741 0.5
14 0.628515 0.792559 3.49299 0.5
15 1.82497 2.41745 0.525386 0.5
16 3.67526 3.09309 1.32241 0.5
17 0.794859 2.53448 3.79537 0.5
18 0.836203 2.59254 1.07607 0.5
19 -0.0622296 2.45714 1.91543 0.5
20 0.00879662 1.75398 2.96126 0.5
21 1.02533 1.37497 3.2546 0.5
22 2.83177 1.42238 0.768954 0.5
23 2.46192 3.28232 0.823762 0.5
24 3.74607 1.33874 3.97887 0.5
25 2.21156 3.91445 2.14992 0.5
26 0.26044 2.08911 0.777146 0.5
27 0.726088 2.04276 2.38565 0.5
28 3.90368 0.714518 1.61906 0.5
29 1.91186 2.75063 3.16662 0.5
30 1.58548 0.438079 3.4803 0.5
31 0.887217 3.36816 3.17919 0.5
32 2.56058 0.239476 3.63604 0.5
33 0.302035 1.11686 2.41975 0.5
34 2.66134 2.52166 2.65209 0.5
35 0.309686 0.804098 0.719483 0.5
36 1.15744 1.71159 0.684545 0.5
37 0.520175 2.71823 2.76819 0.5
38 1.34744 0.263565 1.90695 0.5
39 3.31842 0.528496 3.64921 0.5
40 2.36127 2.74064 1.6 0.5
41 3.72472 1.36453 0.917879 0.5
42 3.15467 3.08301 2.13614 0.5
43 0.286563 3.88255 1.98404 0.5
44 2.29012 0.723286 1.41045 0.5
45 0.839498 2.86204 2.09356 0.5
46 3.09774 0.855993 1.09072 0.5
47 3.11461 2.45543 1.03929 0.5
48 1.19457 0.415862 0.329336 0.5
49 2.35253 3.61999 2.99305 0.5
50 0.552488 3.37249 0.270227 0.5
