ITEM: TIMESTEP
980000
ITEM: NUMBER OF ATOMS
50
ITEM: BOX BOUNDS xy xz yz pp pp pp
0.0000000000000000e+00 3.9685030000000001e+00 0.0000000000000000e+00
0.0000000000000000e+00 3.9685030000000001e+00 0.0000000000000000e+00
0.0000000000000000e+00 3.9685030000000001e+00 0.0000000000000000e+00
ITEM: ATOMS id x y z radius
1 0.193286 1.47741 2.77972 0.5
2 1.83731 0.501393 0.249526 0.5
3 0.187522 2.98756 3.57935 0.5
4 3.20156 1.40948 2.7981 0.5
5 1.89157 0.674529 3.42485 0.5
6 2.56985 3.38815 2.97002 0.5
7 1.13332 3.49821 3.02226 0.5
8 2.0715 3.2649 0.819099 0.5
9 1.18472 0.238643 1.0191 0.5
10 1.03613 1.81244 1.20256 0.5
11 1.72806 3.52221 0.0307589 0.5
12 0.203451 1.34917 1.44764 0.5
13 0.128152 0.180885 2.72376 0.5
14 2.50455 1.60536 3.75015 0.5
15 0.691426 2.29163 3.07531 0.5
16 0.665537 1.84299 0.332569 0.5
17 1.42496 1.09345 1.24181 0.5
18 0.774928 3.42471 1.50247 0.5
19 2.39077 2.52597 1.33719 0.5
20 0.113598 0.25492 0.681099 0.5
21 2.25732 2.83601 3.66609 0.5
22 0.27572 1.81061 0.85403 0.5
23 0.890906 1.24075 3.45454 0.5
24 3.85188 1.11931 0.486056 0.5
25 0.750067 1.0512 2.16022 0.5
26 3.68581 3.36346 2.21454 0.5
27 1.5832 2.41325 2.83616 0.5
28 1.65053 1.96439 3.75681 0.5
29 1.84347 2.38176 0.441357 0.5
30 1.96652 1.48119 2.88971 0.5
31 2.25403 1.49471 2.00599 0.5
32 1.24125 1.19229 0.300211 0.5
33 3.69137 0.467695 1.75542 0.5
34 2.09237 0.473309 2.41488 0.5
35 2.98993 3.0392 1.47131 0.5
36 0.668458 0.567223 3.87841 0.5
37 0.765927 2.5819 0.820267 0.5
38 3.71647 2.29805 0.212585 0.5
39 1.08039 2.67426 3.8029 0.5
40 3.56924 2.21386 2.86051 0.5
41 3.94836 2.37365 1.44787 0.5
42 3.71466 1.51151 3.64922 0.5
43 2.9836 2.87357 3.77983 0.5
44 3.39715 3.51807 3.67925 0.5
45 2.59771 2.52406 0.422144 0.5
46 2.03287 1.8124 1.10833 0.5
47 0.0392265 1.98765 2.21515 0.5
48 2.92479 2.34185 2.2755 0.5
49 0.700658 2.25795 1.95438 0.5
50 0.450758 0.234767 1.78411 0.5
