ITEM: TIMESTEP
970000
ITEM: NUMBER OF ATOMS
50
ITEM: BOX BOUNDS xy xz yz pp pp pp
0.0000000000000000e+00 3.9685030000000001e+00 0.0000000000000000e+00
0.0000000000000000e+00 3.9685030000000001e+00 0.0000000000000000e+00
0.0000000000000000e+00 3.9685030000000001e+00 0.0000000000000000e+00
ITEM: ATOMS id x y z radius
1 0.977542 0.44991 3.78109 0.5
2 2.78009 2.6114 3.09176 0.5
3 0.0854226 2.5776 2.93378 0.5
4 0.149431 0.0902437 3.82263 0.5
5 0.727372 1.47492 1.20674 0.5
6 1.44777 3.42649 0.571148 0.5
7 3.50601 2.64477 3.92502 0.5
8 3.0986 0.356943 0.170235 0.5
9 1.16152 0.37396 2.34246 0.5
10 2.19829 2.61896 3.69802 0.5
11 0.790975 3.45474 2.10831 0.5
12 0.876526 2.64829 0.778381 0.5
13 3.51045 2.45909 1.05876 0.5
14 0.037387 0.364176 0.699455 0.5
15 0.0404334 -0.0459304 2.86798 0.5
16 2.53129 2.01199 1.32911 0.5
17 0.330378 3.1891 0.565774 0.5
18 2.56653 0.597775 2.67891 0.5
19 0.950411 2.26275 2.6175 0.5
20 0.19129 2.07141 0.428271 0.5
21 2.8291 3.91566 0.944445 0.5
22 1.37884 2.89374 3.41905 0.5
23 2.17579 -0.00705308 0.297636 0.5
24 2.11871 3.28501 3.80208 0.5
25 0.880655 1.21788 3.99031 0.5
26 2.03287 3.66075 1.15941 0.5
27 3.84128 2.1204 2.03436 0.5
28 0.193125 3.1049 3.60286 0.5
29 2.98676 2.18192 0.489786 0.5
30 2.14045 2.85103 2.35017 0.5
31 3.27871 2.91577 2.2673 0.5
32 0.861047 3.81219 2.97065 0.5
33 2.58111 2.94305 0.618566 0.5
34 2.82767 3.68179 2.86138 0.5
35 2.16908 1.17469 0.126672 0.5
36 1.74664 1.76067 3.74479 0.5
37 0.458069 1.15701 2.73542 0.5
38 2.53452 3.68541 1.93858 0.5
39 0.514966 2.60769 1.59222 0.5
40 3.30925 1.53274 2.79033 0.5
41 0.710533 2.6574 3.89986 0.5
42 0.626102 0.258917 1.60623 0.5
43 1.54878 2.02472 1.06667 0.5
44 1.49338 2.77064 1.35173 0.5
45 1.28342 1.60091 2.17564 0.5
46 2.12517 3.58101 2.96517 0.5
47 0.499199 3.56629 1.1244 0.5
48 1.63506 2.50503 0.35673 0.5
49 3.69675 1.39115 1.48811 0.5
50 3.14357 0.859496 2.13924 0.5
