ITEM: TIMESTEP
1000000
ITEM: NUMBER OF ATOMS
50
ITEM: BOX BOUNDS xy xz yz pp pp pp
0.0000000000000000e+00 3.9685030000000001e+00 0.0000000000000000e+00
0.0000000000000000e+00 3.9685030000000001e+00 0.0000000000000000e+00
0.0000000000000000e+00 3.9685030000000001e+00 0.0000000000000000e+00
ITEM: ATOMS id x y z radius
1 0.907168 2.65029 0.987591 0.5
2 2.73119 3.27521 0.221117 0.5
3 3.11493 2.7892 1.92809 0.5
4 1.07586 1.50666 1.39807 0.5
5 2.12717 3.0999 0.99253 0.5
6 3.33494 3.38153 0.76641 0.5
7 3.8408 2.3928 0.309059 0.5
8 3.04798 2.30889 0.493069 0.5
9 0.998012 1.23372 2.72123 0.5
10 2.93694 0.634803 2.59748 0.5
11 1.06143 0.483161 0.587552 0.5
12 2.05184 1.80937 0.359035 0.5
13 1.26033 3.39925 2.12804 0.5
14 3.01316 1.97087 1.88565 0.5
15 2.51839 1.12323 1.62073 0.5
16 2.67041 2.2633 2.75195 0.5
17 1.34207 0.492799 1.74026 0.5
18 0.286862 2.92775 0.865837 0.5
19 2.67513 1.72693 3.68836 0.5
20 0.436804 0.0108726 2.00087 0.5
21 3.37411 1.90079 3.25068 0.5
22 0.715829 2.82657 2.60575 0.5
23 1.87417 0.203481 2.98707 0.5
24 3.2519 1.09209 0.4411 0.5
25 0.175715 1.97322 1.4115 0.5
26 2.11003 0.965031 3.88324 0.5
27 0.256141 0.604984 0.470913 0.5
28 1.06222 1.58629 0.439242 0.5
29 0.531064 0.510436 2.7844 0.5
30 0.473154 2.92681 1.86101 0.5
31 0.915282 0.179814 3.39364 0.5
32 0.123431 3.93958 0.990312 0.5
33 2.69769 3.83855 3.07901 0.5
34 2.31526 0.447288 1.1552 0.5
35 0.154141 3.55369 0.31549 0.5
36 0.898613 3.33041 3.44065 0.5
37 1.11544 2.93493 0.201154 0.5
38 1.33525 1.93875 2.26887 0.5
39 3.6764 0.134543 3.10383 0.5
40 2.41907 3.36384 2.35435 0.5
41 1.07513 2.60224 1.76853 0.5
42 1.81662 3.49387 3.37758 0.5
43 1.86621 1.96166 3.25564 0.5
44 3.44886 3.80451 3.88116 0.5
45 1.84402 1.19734 2.07655 0.5
46 2.42282 0.117801 3.77138 0.5
47 0.610253 2.08782 2.3445 0.5
48 0.339874 1.28254 3.70209 0.5
49 1.52796 0.402076 0.0341645 0.5
50 3.68878 0.762418 3.92465 0.5
