ITEM: TIMESTEP
940000
ITEM: NUMBER OF ATOMS
50
ITEM: BOX BOUNDS xy xz yz pp pp pp
0.0000000000000000e+00 3.9685030000000001e+00 0.0000000000000000e+00
0.0000000000000000e+00 3.9685030000000001e+00 0.0000000000000000e+00
0.0000000000000000e+00 3.9685030000000001e+00 0.0000000000000000e+00
ITEM: ATOMS id x y z radius
1 2.7138 0.277487 2.74659 0.5
2 3.60449 2.97867 3.26651 0.5
3 1.16232 2.02753 0.998919 0.5
4 3.17421 1.12553 0.674749 0.5
5 2.34597 1.26296 1.229 0.5
6 3.53016 1.95008 3.1929 0.5
7 1.05883 0.991283 0.408905 0.5
8 3.94948 3.84321 1.52225 0.5
9 3.10809 3.6107 3.26369 0.5
10 1.99455 1.43545 2.48451 0.5
11 1.92877 3.39446 3.42119 0.5
12 1.44022 2.79402 1.29293 0.5
13 0.719308 0.993109 1.3176 0.5
14 1.20546 2.02176 2.05641 0.5
15 2.4802 3.25875 2.6534 0.5
16 0.592365 2.18279 3.46844 0.5
17 0.735962 3.9597 1.56081 0.5
18 1.92065 0.457659 0.254435 0.5
19 3.80405 3.1048 0.850912 0.5
20 3.82479 1.04338 3.48877 0.5
21 2.66458 2.89917 0.0290133 0.5
22 2.60104 2.72161 1.46143 0.5
23 0.953297 0.091583 3.29192 0.5
24 3.09901 0.335955 0.369828 0.5
25 0.99515 3.05206 3.95609 0.5
26 2.4196 0.377043 0.878904 0.5
27 0.297227 1.66191 0.706945 0.5
28 2.04026 3.91523 2.14838 0.5
29 3.31322 1.47519 1.51855 0.5
30 3.57473 2.35041 1.75833 0.5
31 3.09115 1.03654 3.13454 0.5
32 2.7811 1.78134 0.306616 0.5
33 1.34359 3.4235 2.08008 0.5
34 1.66784 0.828158 1.29367 0.5
35 0.588208 0.325905 0.590054 0.5
36 1.9447 1.44961 0.421317 0.5
37 1.30851 3.59255 0.618582 0.5
38 0.595431 2.75424 0.744239 0.5
39 3.01489 2.7189 2.30832 0.5
40 0.736861 2.74544 2.21204 0.5
41 1.97573 0.765355 3.3058 0.5
42 3.28954 1.91897 0.999673 0.5
43 3.00779 1.68237 2.46673 0.5
44 3.14473 0.846384 2.10182 0.5
45 2.1496 3.30637 1.10413 0.5
46 1.28988 2.38746 3.11627 0.5
47 1.8532 2.77558 2.24479 0.5
48 2.39739 0.926055 2.05246 0.5
49 1.72141 2.53422 0.453952 0.5
50 0.267545 3.98844 2.85222 0.5
