ITEM: TIMESTEP
760000
ITEM: NUMBER OF ATOMS
50
ITEM: BOX BOUNDS xy xz yz pp pp pp
0.0000000000000000e+00 3.9685030000000001e+00 0.0000000000000000e+00
0.0000000000000000e+00 3.9685030000000001e+00 0.0000000000000000e+00
0.0000000000000000e+00 3.9685030000000001e+00 0.0000000000000000e+00
ITEM: ATOMS id x y z radius
1 2.27602 0.426271 1.24445 0.5
2 2.75343 1.65894 2.9355 0.5
3 2.88521 3.74493 1.59609 0.5
4 3.68381 0.951308 3.35334 0.5
5 1.72265 3.44949 0.836813 0.5
6 1.55035 3.13159 3.83388 0.5
7 0.753749 2.49471 3.81753 0.5
8 2.84423 0.792391 1.98024 0.5
9 2.5273 0.236443 3.00962 0.5
10 0.726749 0.754596 1.08935 0.5
11 1.2287 2.87162 3.13917 0.5
12 0.713199 1.66049 1.89584 0.5
13 0.00521505 0.998625 1.92224 0.5
14 3.89159 0.452626 1.68825 0.5
15 2.92071 0.999523 1.19522 0.5
16 3.72251 2.51367 1.99847 0.5
17 3.72589 0.47814 2.61316 0.5
18 2.10758 2.00504 0.269357 0.5
19 0.194355 2.82749 0.732362 0.5
20 0.0350075 1.91154 0.29488 0.5
21 2.9044 1.78073 0.629544 0.5
22 1.03626 0.329125 1.65788 0.5
23 0.969188 1.21352 3.04022 0.5
24 0.953205 1.58668 3.86951 0.5
25 0.519551 2.39393 2.38854 0.5
26 0.942063 0.186601 2.72775 0.5
27 2.85074 1.71335 3.81084 0.5
28 0.593372 0.648801 3.67977 0.5
29 3.1494 1.68754 1.74193 0.5
30 0.800141 3.62173 3.58123 0.5
31 3.7425 3.45986 3.49264 0.5
32 3.44479 2.15967 0.933119 0.5
33 3.3325 2.19229 2.5977 0.5
34 2.42886 3.097 0.342863 0.5
35 0.32259 3.33416 2.12964 0.5
36 1.44535 0.337209 0.19436 0.5
37 2.64309 2.5151 3.26649 0.5
38 1.97931 1.77813 2.92939 0.5
39 0.170309 3.51752 1.46571 0.5
40 2.82624 3.4532 3.53534 0.5
41 1.76207 2.54354 0.769239 0.5
42 1.79023 2.1052 1.67066 0.5
43 1.04836 2.65341 0.685124 0.5
44 0.679484 0.787378 2.30994 0.5
45 3.29764 2.35569 3.70098 0.5
46 0.809223 2.35077 1.57938 0.5
47 1.83304 1.15115 1.61338 0.5
48 3.94162 2.83497 2.97296 0.5
49 3.18077 3.39667 0.544324 0.5
50 1.81931 3.86805 3.24744 0.5
