ITEM: TIMESTEP
510000
ITEM: NUMBER OF ATOMS
50
ITEM: BOX BOUNDS xy xz yz pp pp pp
0.0000000000000000e+00 3.9685030000000001e+00 0.0000000000000000e+00
0.0000000000000000e+00 3.9685030000000001e+00 0.0000000000000000e+00
0.0000000000000000e+00 3.9685030000000001e+00 0.0000000000000000e+00
ITEM: ATOMS id x y z radius
1 0.129821 1.25496 2.12692 0.5
2 1.69924 1.46802 1.62227 0.5
3 0.996722 1.89952 2.01843 0.5
4 3.16109 1.81442 2.6978 0.5
5 3.8798 1.34592 3.70536 0.5
6 3.84834 2.86589 2.20549 0.5
7 3.17441 1.08699 3.67246 0.5
8 0.782649 2.58667 2.40668 0.5
9 1.85831 1.95986 0.773547 0.5
10 2.52478 3.86712 2.446 0.5
11 2.55374 3.01388 2.07149 0.5
12 0.874849 3.82378 1.82 0.5
13 1.51669 3.88003 3.83811 0.5
14 3.97673 3.77566 1.46909 0.5
15 2.56763 2.21771 3.09367 0.5
16 2.88356 1.81562 3.82274 0.5
17 2.46142 0.185093 1.50056 0.5
18 1.65508 0.235991 2.07085 0.5
19 2.93898 2.89133 2.91908 0.5
20 0.724054 0.134282 2.92299 0.5
21 1.19309 1.1542 0.482195 0.5
22 0.480296 2.834 1.48552 0.5
23 0.601632 1.15884 3.1474 0.5
24 3.32164 0.0770507 1.42904 0.5
25 2.97965 3.62043 0.737242 0.5
26 0.212519 3.08215 3.05879 0.5
27 3.02115 0.562398 0.473743 0.5
28 0.314826 0.367594 1.14257 0.5
29 3.41511 3.15357 0.533616 0.5
30 0.952264 3.02013 3.53084 0.5
31 3.59225 2.34324 1.02089 0.5
32 2.08377 2.49815 3.82504 0.5
33 1.7184 0.133748 3.05265 0.5
34 2.52803 1.13616 1.47243 0.5
35 1.5913 3.01684 0.34806 0.5
36 1.27197 0.69547 3.47559 0.5
37 2.33092 0.892491 3.44118 0.5
38 3.83006 0.897563 0.469669 0.5
39 1.11626 2.08447 3.02352 0.5
40 2.45003 2.05076 2.13747 0.5
41 1.57822 3.18395 2.16711 0.5
42 0.220224 1.92339 2.75513 0.5
43 0.0736317 3.89818 2.28977 0.5
44 1.73959 1.42066 2.38027 0.5
45 3.63399 3.07751 1.41051 0.5
46 1.90154 0.317674 0.7954 0.5
47 3.14125 0.818179 2.46077 0.5
48 2.43046 1.13111 0.510071 0.5
49 0.635985 0.205645 0.391265 0.5
50 2.88441 2.56561 3.90235 0.5
