ITEM: TIMESTEP
800000
ITEM: NUMBER OF ATOMS
50
ITEM: BOX BOUNDS xy xz yz pp pp pp
0.0000000000000000e+00 3.9685030000000001e+00 0.0000000000000000e+00
0.0000000000000000e+00 3.9685030000000001e+00 0.0000000000000000e+00
0.0000000000000000e+00 3.9685030000000001e+00 0.0000000000000000e+00
ITEM: ATOMS id x y z radius
1 1.71073 3.11528 2.92476 0.5
2 0.86221 0.356334 1.95076 0.5
3 1.71233 1.66067 3.23841 0.5
4 0.621316 3.92581 0.282888 0.5
5 0.370945 3.00644 0.53905 0.5
6 2.30408 3.85221 3.20318 0.5
7 0.660222 1.30482 2.73835 0.5
8 1.0597 2.38393 2.78206 0.5
9 1.30194 1.12879 3.52235 0.5
10 3.87442 1.39442 1.2202 0.5
11 1.69118 0.654383 3.1925 0.5
12 3.49217 0.351206 2.93747 0.5
13 2.89884 3.47888 2.89975 0.5
14 2.32577 2.89232 1.93514 0.5
15 3.47361 1.51164 1.87884 0.5
16 1.51092 1.98432 0.125718 0.5
17 0.378812 2.15891 2.85629 0.5
18 0.26614 3.76005 1.6622 0.5
19 2.01598 1.75394 0.807771 0.5
20 0.931475 3.55243 2.46894 0.5
21 2.99694 3.45257 1.45036 0.5
22 1.55423 0.644627 0.176194 0.5
23 3.28341 2.30118 0.826816 0.5
24 1.0758 3.34448 0.958891 0.5
25 3.50364 1.51275 3.08363 0.5
26 3.63001 1.27808 0.372986 0.5
27 1.01897 1.18582 1.55248 0.5
28 2.93595 1.16211 0.828791 0.5
29 2.73561 3.84785 3.82458 0.5
30 0.144653 2.04779 0.654894 0.5
31 1.40863 0.919776 2.32192 0.5
32 2.88099 0.377515 2.47454 0.5
33 1.81136 1.91308 1.71277 0.5
34 2.6911 1.97044 0.0424477 0.5
35 2.85771 1.50895 2.44044 0.5
36 0.36191 1.16261 1.91933 0.5
37 3.66298 2.44464 3.8226 0.5
38 2.16595 3.07294 3.8728 0.5
39 3.10567 0.601791 3.74152 0.5
40 2.95363 2.95698 0.413901 0.5
41 3.556 3.39236 3.36856 0.5
42 0.787736 0.056821 3.26505 0.5
43 2.44919 2.7126 2.60845 0.5
44 1.90031 3.56344 1.2067 0.5
45 2.25265 1.23129 1.6807 0.5
46 1.93126 0.0153816 2.24862 0.5
47 2.3595 0.983848 2.70245 0.5
48 0.20919 0.949488 3.39851 0.5
49 2.24402 0.167886 0.419266 0.5
50 3.52056 0.438025 2.02832 0.5
