ITEM: TIMESTEP
930000
ITEM: NUMBER OF ATOMS
50
ITEM: BOX BOUNDS xy xz yz pp pp pp
0.0000000000000000e+00 3.9685030000000001e+00 0.0000000000000000e+00
0.0000000000000000e+00 3.9685030000000001e+00 0.0000000000000000e+00
0.0000000000000000e+00 3.9685030000000001e+00 0.0000000000000000e+00
ITEM: ATOMS id x y z radius
1 1.81137 0.614418 0.653908 0.5
2 1.89167 0.21119 3.53362 0.5
3 2.62938 1.74027 3.85755 0.5
4 0.918596 3.3127 3.42577 0.5
5 2.89999 2.96768 1.10544 0.5
6 1.07426 2.69198 0.941388 0.5
7 2.96025 2.43991 0.510382 0.5
8 3.65313 2.43942 2.78639 0.5
9 0.333004 3.83898 2.91637 0.5
10 3.14734 1.69426 1.53823 0.5
11 0.0254925 0.520774 0.797402 0.5
12 1.92874 3.23639 3.71425 0.5
13 0.253138 3.6048 1.19889 0.5
14 2.91045 0.652964 2.92481 0.5
15 1.21291 1.87836 1.42496 0.5
16 2.22253 1.28954 3.17121 0.5
17 2.88026 3.10217 2.30873 0.5
18 3.20695 1.51016 3.27464 0.5
19 1.39465 0.875338 3.14646 0.5
20 0.314383 3.04897 2.0944 0.5
21 1.16363 2.36005 2.1375 0.5
22 1.83627 3.23192 1.49261 0.5
23 3.6694 3.21033 0.503928 0.5
24 2.63533 3.57632 3.24117 0.5
25 3.40126 1.67119 0.569406 0.5
26 1.05276 0.224641 2.61813 0.5
27 1.50814 2.01977 2.86883 0.5
28 3.67491 0.716852 3.45345 0.5
29 0.944866 0.215113 1.25016 0.5
30 2.73538 1.52461 2.29743 0.5
31 2.7478 0.523963 0.404327 0.5
32 0.898882 0.0322685 3.76461 0.5
33 3.85589 0.510492 2.43204 0.5
34 2.70279 3.26289 0.0403205 0.5
35 1.26535 3.63107 0.548251 0.5
36 2.90196 0.104753 2.06724 0.5
37 1.91264 0.96177 1.65056 0.5
38 0.811049 3.28256 2.57226 0.5
39 0.88538 1.73546 3.44063 0.5
40 2.84927 0.753273 1.16828 0.5
41 0.62781 0.994179 3.70457 0.5
42 3.82228 1.41014 2.55576 0.5
43 0.266646 2.79655 3.93677 0.5
44 2.32728 2.30104 1.50274 0.5
45 0.988184 1.32096 0.733428 0.5
46 2.06951 2.84371 3.00071 0.5
47 1.904 2.57303 0.562918 0.5
48 2.31642 2.30572 3.62411 0.5
49 1.60631 1.14959 3.95043 0.5
50 0.433943 2.5294 3.10477 0.5
