ITEM: TIMESTEP
690000
ITEM: NUMBER OF ATOMS
50
ITEM: BOX BOUNDS xy xz yz pp pp pp
0.0000000000000000e+00 3.9685030000000001e+00 0.0000000000000000e+00
0.0000000000000000e+00 3.9685030000000001e+00 0.0000000000000000e+00
0.0000000000000000e+00 3.9685030000000001e+00 0.0000000000000000e+00
ITEM: ATOMS id x y z radius
1 3.35974 0.667522 3.0239 0.5
2 2.08677 1.23931 0.347257 0.5
3 3.53969 3.69253 2.50507 0.5
4 1.17544 0.0740698 1.92502 0.5
5 1.21218 1.54201 0.890219 0.5
6 1.70047 2.60828 3.3369 0.5
7 0.668434 3.27812 2.36984 0.5
8 1.70347 2.11186 1.63689 0.5
9 2.50645 0.537133 1.0855 0.5
10 1.01926 1.58738 2.0415 0.5
11 3.51038 3.79367 1.23946 0.5
12 3.03512 0.710904 0.111243 0.5
13 3.87768 1.35856 0.224076 0.5
14 3.49885 2.14445 3.80331 0.5
15 1.92806 3.10646 1.64038 0.5
16 2.76618 3.80195 1.9406 0.5
17 3.95335 0.348234 2.22541 0.5
18 1.33175 3.51752 3.64041 0.5
19 2.77277 2.58669 1.40099 0.5
20 2.19041 1.81479 1.33645 0.5
21 1.52771 2.42104 2.40415 0.5
22 3.41848 1.70982 1.07289 0.5
23 0.671969 1.84465 0.488305 0.5
24 1.32491 1.09416 0.0924504 0.5
25 1.82469 2.7213 0.763956 0.5
26 1.37772 0.622158 1.0537 0.5
27 0.28069 1.89947 1.43908 0.5
28 3.83042 0.204311 0.157737 0.5
29 0.188163 1.471 3.07609 0.5
30 1.79446 3.21672 0.116237 0.5
31 3.58854 2.66027 2.70806 0.5
32 3.80187 2.75972 1.23276 0.5
33 3.64403 3.37048 3.35969 0.5
34 3.66362 0.72277 1.42083 0.5
35 0.912298 2.57767 0.947828 0.5
36 2.32189 2.05806 0.377877 0.5
37 0.398439 3.14095 3.38564 0.5
38 0.686113 0.814286 0.357734 0.5
39 1.42571 1.82315 0.0337361 0.5
40 0.496509 0.791858 2.28495 0.5
41 3.70592 1.33403 2.1531 0.5
42 1.78616 3.67697 3.15826 0.5
43 0.481121 3.98743 1.51525 0.5
44 2.89349 1.48796 0.638197 0.5
45 3.55134 2.3432 2.0024 0.5
46 1.31083 1.62401 3.03844 0.5
47 2.55396 2.35792 2.07086 0.5
48 2.62678 3.13317 0.126156 0.5
49 2.6652 3.45882 1.03375 0.5
50 2.79987 1.53211 3.50809 0.5
