ITEM: TIMESTEP
490000
ITEM: NUMBER OF ATOMS
50
ITEM: BOX BOUNDS xy xz yz pp pp pp
0.0000000000000000e+00 3.9685030000000001e+00 0.0000000000000000e+00
0.0000000000000000e+00 3.9685030000000001e+00 0.0000000000000000e+00
0.0000000000000000e+00 3.9685030000000001e+00 0.0000000000000000e+00
ITEM: ATOMS id x y z radius
1 3.48595 2.57934 1.82972 0.5
2 0.559979 2.49263 2.17139 0.5
3 0.687926 2.63844 3.25047 0.5
4 1.84142 3.2935 1.45037 0.5
5 3.03001 0.233715 3.85455 0.5
6 2.61182 1.25609 1.88926 0.5
7 0.342665 1.54012 2.16809 0.5
8 3.62586 3.95341 1.47456 0.5
9 1.00116 0.351136 1.4321 0.5
10 1.97764 2.15759 1.70968 0.5
11 2.48645 3.44984 2.3038 0.5
12 3.23312 3.5356 2.51782 0.5
13 1.48851 1.21508 0.0902685 0.5
14 3.74087 3.40142 0.421939 0.5
15 3.65758 0.807683 2.19906 0.5
16 1.39656 0.132204 1.09892 0.5
17 2.28739 0.522069 2.67638 0.5
18 3.92307 3.45463 3.62035 0.5
19 0.365617 0.0312905 2.52422 0.5
20 0.447298 1.37702 3.90918 0.5
21 1.35478 2.18972 2.45018 0.5
22 3.45566 0.916144 0.766888 0.5
23 1.5222 1.85824 0.987422 0.5
24 2.47943 1.1001 0.273663 0.5
25 0.0140027 2.01152 2.88196 0.5
26 3.91325 2.39355 0.025132 0.5
27 1.48909 3.12517 3.47449 0.5
28 3.20438 0.257163 3.02305 0.5
29 0.677415 3.42779 1.45469 0.5
30 0.784666 3.39284 2.81183 0.5
31 2.64831 3.39065 3.90489 0.5
32 0.0431925 3.28165 1.94301 0.5
33 1.63428 2.23035 3.15203 0.5
34 0.957994 2.56926 0.876526 0.5
35 2.63023 1.31947 3.33358 0.5
36 1.49707 2.21491 3.92525 0.5
37 2.09298 0.190455 1.72352 0.5
38 3.55661 2.40544 0.947116 0.5
39 2.1335 1.24261 1.05598 0.5
40 3.17677 1.70432 3.7866 0.5
41 0.759433 3.15635 0.0302782 0.5
42 3.05573 3.82635 0.860354 0.5
43 3.86569 1.80259 0.606092 0.5
44 1.00799 0.114006 3.86378 0.5
45 1.39783 3.4035 0.507378 0.5
46 2.97183 2.49012 0.308445 0.5
47 3.14618 2.72627 3.301 0.5
48 0.339795 2.01455 1.36938 0.5
49 1.3856 3.8919 2.42313 0.5
50 2.06555 0.311109 3.92537 0.5
