ITEM: TIMESTEP
20000
ITEM: NUMBER OF ATOMS
50
ITEM: BOX BOUNDS xy xz yz pp pp pp
0.0000000000000000e+00 3.9685030000000001e+00 0.0000000000000000e+00
0.0000000000000000e+00 3.9685030000000001e+00 0.0000000000000000e+00
0.0000000000000000e+00 3.9685030000000001e+00 0.0000000000000000e+00
ITEM: ATOMS id x y z radius
1 3.21066 1.93183 2.8203 0.5
2 3.56186 3.55949 0.488508 0.5
3 2.49669 2.72436 1.17982 0.5
4 1.85451 1.0838 3.05276 0.5
5 3.22339 1.24927 1.55999 0.5
6 0.327835 2.78992 1.03615 0.5
7 0.86669 2.02749 2.09025 0.5
8 3.37594 2.85757 2.9546 0.5
9 0.600554 1.82142 0.1974 0.5
10 0.717383 0.0503944 1.92004 0.5
11 1.22433 1.19715 1.75552 0.5
12 2.39253 1.74188 0.949271 0.5
13 2.1852 0.762466 3.88949 0.5
14 2.0366 3.71544 0.58661 0.5
15 3.72499 1.4675 0.556768 0.5
16 0.827677 3.02117 1.65131 0.5
17 1.44803 2.6256 1.22841 0.5
18 3.59076 1.20232 3.57933 0.5
19 3.34057 2.70625 0.953756 0.5
20 1.25927 1.15457 3.8059 0.5
21 1.03568 0.2808 0.364214 0.5
22 2.78498 2.04162 1.69789 0.5
23 0.471064 3.76777 0.0270533 0.5
24 0.447179 0.850637 0.341126 0.5
25 1.67017 2.63202 2.05114 0.5
26 1.29324 0.275981 3.37442 0.5
27 0.233807 1.80328 1.0459 0.5
28 1.83176 2.33896 3.63859 0.5
29 1.06358 1.29999 0.862312 0.5
30 1.48829 0.378485 1.31756 0.5
31 0.0762336 1.72086 2.85376 0.5
32 2.95371 0.174993 0.876279 0.5
33 2.26927 3.96762 1.54562 0.5
34 1.4588 3.59468 2.55144 0.5
35 2.30865 1.06354 1.73944 0.5
36 3.14898 3.02095 3.95804 0.5
37 2.81397 1.29001 2.64641 0.5
38 2.6498 2.69797 2.27036 0.5
39 1.70553 1.85203 1.712 0.5
40 0.101143 2.7108 2.08898 0.5
41 1.80743 0.684439 2.3652 0.5
42 3.60715 0.862938 2.48558 0.5
43 0.433304 0.826948 1.70644 0.5
44 2.02218 3.26151 1.78934 0.5
45 1.01354 1.1661 2.41968 0.5
46 0.22247 0.244661 1.09869 0.5
47 2.79588 3.54051 2.23745 0.5
48 1.80248 1.26277 0.407939 0.5
49 2.49766 0.0680299 2.66762 0.5
50 3.24193 2.10457 0.28295 0.5
