ITEM: TIMESTEP
830000
ITEM: NUMBER OF ATOMS
50
ITEM: BOX BOUNDS xy xz yz pp pp pp
0.0000000000000000e+00 3.9685030000000001e+00 0.0000000000000000e+00
0.0000000000000000e+00 3.9685030000000001e+00 0.0000000000000000e+00
0.0000000000000000e+00 3.9685030000000001e+00 0.0000000000000000e+00
ITEM: ATOMS id x y z radius
1 2.3835 2.70098 2.69359 0.5
2 0.836347 3.94162 0.148325 0.5
3 3.32674 3.02138 2.90531 0.5
4 1.59554 0.600711 0.441912 0.5
5 2.90146 2.0021 0.816215 0.5
6 3.50046 0.349912 0.120306 0.5
7 0.42195 2.85314 3.22702 0.5
8 1.97165 0.0510235 1.33551 0.5
9 2.63368 0.476828 0.00968241 0.5
10 1.11589 1.1249 2.46749 0.5
11 0.0125306 3.82645 1.89879 0.5
12 2.33947 2.49392 1.41017 0.5
13 1.23237 3.27041 2.74561 0.5
14 1.8641 1.47984 3.18262 0.5
15 0.292261 1.46462 3.67068 0.5
16 1.94145 0.623375 2.82805 0.5
17 2.69084 0.198336 2.538 0.5
18 3.1917 1.44732 1.54317 0.5
19 0.48522 0.132943 2.11001 0.5
20 0.0631675 0.803697 1.56299 0.5
21 1.9672 1.04033 1.69592 0.5
22 0.866522 1.09073 1.62795 0.5
23 3.4739 0.601558 2.51769 0.5
24 3.83837 1.81797 0.757392 0.5
25 1.69678 1.52901 2.2246 0.5
26 0.309838 2.92241 1.44631 0.5
27 1.96793 1.2574 0.132186 0.5
28 1.78701 3.69601 0.0378881 0.5
29 1.17858 2.44963 3.2747 0.5
30 1.19616 3.85349 1.68339 0.5
31 1.25824 0.480434 3.3645 0.5
32 2.00372 3.70025 3.0191 0.5
33 0.912222 2.38008 0.937707 0.5
34 2.46259 1.69476 1.76563 0.5
35 3.04253 2.38848 2.28814 0.5
36 3.69579 2.66474 0.628608 0.5
37 0.103778 0.0420067 3.1102 0.5
38 2.7259 3.36973 3.65085 0.5
39 3.50815 3.65624 0.651231 0.5
40 3.32051 1.34986 0.136388 0.5
41 2.62654 1.11833 2.32856 0.5
42 2.69464 0.756749 0.864776 0.5
43 0.455117 0.0282091 0.997574 0.5
44 0.461963 1.75259 2.65147 0.5
45 3.50176 2.72931 3.80508 0.5
46 0.834748 1.34589 0.489919 0.5
47 2.67014 1.99197 3.05188 0.5
48 1.04858 2.25482 2.30469 0.5
49 2.24876 1.50471 0.909823 0.5
50 0.857024 3.14418 0.67 0.5
