ITEM: TIMESTEP
550000
ITEM: NUMBER OF ATOMS
50
ITEM: BOX BOUNDS xy xz yz pp pp pp
0.0000000000000000e+00 3.9685030000000001e+00 0.0000000000000000e+00
0.0000000000000000e+00 3.9685030000000001e+00 0.0000000000000000e+00
0.0000000000000000e+00 3.9685030000000001e+00 0.0000000000000000e+00
ITEM: ATOMS id x y z radius
1 2.56082 0.684325 0.0857952 0.5
2 2.08899 1.31016 3.68151 0.5
3 2.07988 3.46381 0.580471 0.5
4 3.02598 3.79168 3.10549 0.5
5 0.975982 0.158483 3.316 0.5
6 0.0517668 1.77489 3.57188 0.5
7 1.82702 3.35332 1.36721 0.5
8 2.70578 2.06741 3.18201 0.5
9 1.51205 1.21214 1.14874 0.5
10 0.511076 0.16529 2.38411 0.5
11 1.23144 0.711132 2.03459 0.5
12 2.55476 1.04331 2.81177 0.5
13 1.72646 3.5337 3.45434 0.5
14 1.33345 1.62189 1.64999 0.5
15 3.86906 2.88539 3.53727 0.5
16 3.83423 3.7294 3.29249 0.5
17 3.12244 2.44179 1.62842 0.5
18 1.01101 3.76211 0.764658 0.5
19 3.76667 2.2122 2.61168 0.5
20 2.04038 1.7902 0.440156 0.5
21 1.79406 2.28981 2.88467 0.5
22 1.4726 2.15882 0.113168 0.5
23 0.398146 0.691047 0.086913 0.5
24 1.05492 1.46866 0.605447 0.5
25 2.70804 0.591688 1.61585 0.5
26 0.830578 0.486208 0.724675 0.5
27 0.824934 1.56426 3.03425 0.5
28 0.665052 2.60464 0.457861 0.5
29 0.15869 3.61286 0.235169 0.5
30 3.33797 1.24283 2.47203 0.5
31 1.34579 3.576 2.33074 0.5
32 0.466839 3.80385 1.72087 0.5
33 1.85822 2.20611 2.19395 0.5
34 3.32136 1.07683 3.82846 0.5
35 3.59696 3.20271 2.65211 0.5
36 1.24127 3.08386 0.216899 0.5
37 1.10624 2.51791 2.96722 0.5
38 3.89201 0.660382 1.02269 0.5
39 0.606325 3.20764 3.1736 0.5
40 1.34024 1.52248 2.49518 0.5
41 3.48808 2.18818 3.79054 0.5
42 2.21552 2.42532 1.24383 0.5
43 1.7703 0.647562 0.679984 0.5
44 1.6525 0.784934 2.83584 0.5
45 3.80275 3.73335 1.00593 0.5
46 2.14075 2.73341 3.55525 0.5
47 0.800415 2.06459 1.89409 0.5
48 2.21267 0.991194 1.92586 0.5
49 2.12708 0.209231 1.91126 0.5
50 3.42429 0.353428 0.293697 0.5
