ITEM: TIMESTEP
770000
ITEM: NUMBER OF ATOMS
50
ITEM: BOX BOUNDS xy xz yz pp pp pp
0.0000000000000000e+00 3.9685030000000001e+00 0.0000000000000000e+00
0.0000000000000000e+00 3.9685030000000001e+00 0.0000000000000000e+00
0.0000000000000000e+00 3.9685030000000001e+00 0.0000000000000000e+00
ITEM: ATOMS id x y z radius
1 3.77558 1.65794 1.28931 0.5
2 0.47593 2.24746 3.5199 0.5
3 0.220651 2.85322 2.09932 0.5
4 0.721267 1.95762 0.934792 0.5
5 0.324569 3.11753 3.73555 0.5
6 0.110835 3.47052 1.46768 0.5
7 2.2097 0.544619 0.0189325 0.5
8 1.93373 1.02655 2.32888 0.5
9 2.89207 3.21343 1.01682 0.5
10 1.60535 2.26772 0.230757 0.5
11 3.92373 0.818007 2.66593 0.5
12 2.74954 3.67901 2.582 0.5
13 2.80644 3.30688 -0.0526034 0.5
14 3.01046 2.4192 2.54801 0.5
15 2.6882 0.972167 1.11207 0.5
16 0.992512 0.974582 1.26061 0.5
17 1.43813 0.165406 0.146452 0.5
18 2.61988 1.89671 3.16432 0.5
19 2.24923 2.4252 1.63356 0.5
20 3.5655 0.324584 1.05609 0.5
21 1.64428 1.64492 0.937639 0.5
22 0.774406 3.55929 1.65477 0.5
23 1.82055 3.70439 1.55109 0.5
24 1.5529 3.31766 3.64274 0.5
25 3.01609 2.88567 1.9232 0.5
26 1.30185 3.80501 0.985803 0.5
27 0.135907 0.706291 1.70263 0.5
28 0.813501 1.68211 0.134473 0.5
29 0.162918 0.895007 0.716378 0.5
30 1.14048 2.43893 1.92184 0.5
31 0.489615 3.63907 2.72889 0.5
32 2.07209 3.39443 0.492203 0.5
33 0.163317 2.94385 0.771748 0.5
34 1.89074 0.213783 0.940322 0.5
35 2.10216 2.6253 2.57988 0.5
36 2.88229 2.35118 0.154896 0.5
37 3.89474 1.87639 2.86349 0.5
38 2.6933 1.47554 2.13387 0.5
39 2.96993 3.61012 1.56823 0.5
40 2.75529 0.0540281 0.553674 0.5
41 2.57513 0.494175 3.44847 0.5
42 1.52324 0.755635 3.32718 0.5
43 0.99819 2.97275 0.508454 0.5
44 1.16004 1.00601 0.083264 0.5
45 1.12911 1.51975 2.77751 0.5
46 2.89909 1.76611 0.711632 0.5
47 1.57956 3.68217 2.66026 0.5
48 3.00075 1.36024 3.84345 0.5
49 0.202375 3.80689 0.366988 0.5
50 3.85818 3.82434 2.29926 0.5
