ITEM: TIMESTEP
270000
ITEM: NUMBER OF ATOMS
50
ITEM: BOX BOUNDS xy xz yz pp pp pp
0.0000000000000000e+00 3.9685030000000001e+00 0.0000000000000000e+00
0.0000000000000000e+00 3.9685030000000001e+00 0.0000000000000000e+00
0.0000000000000000e+00 3.9685030000000001e+00 0.0000000000000000e+00
ITEM: ATOMS id x y z radius
1 3.07612 0.48474 0.438337 0.5
2 0.136778 0.210422 1.88047 0.5
3 2.1342 1.06174 0.855405 0.5
4 3.27058 1.54248 2.1188 0.5
5 0.20698 4.00438 3.1995 0.5
6 0.918443 2.54907 3.6446 0.5
7 2.503 3.03494 2.00833 0.5
8 2.08851 0.325131 3.12443 0.5
9 1.69032 1.95335 0.886651 0.5
10 1.24987 1.75784 1.75496 0.5
11 1.60224 2.89291 0.171691 0.5
12 2.72029 2.56814 3.35816 0.5
13 3.20884 3.43137 0.00889617 0.5
14 3.33902 1.33012 3.13633 0.5
15 3.36287 3.78338 2.29701 0.5
16 3.33058 3.21116 3.09392 0.5
17 1.75536 2.84672 1.63028 0.5
18 2.49554 0.179627 1.82293 0.5
19 0.659048 2.92319 2.65299 0.5
20 0.874956 0.433576 2.59579 0.5
21 0.604861 0.283158 1.27763 0.5
22 1.10417 3.66556 0.510903 0.5
23 3.4594 0.323508 1.52353 0.5
24 0.0467092 0.0493849 0.916533 0.5
25 3.92423 0.90938 0.289932 0.5
26 2.85377 0.728348 2.60674 0.5
27 3.63441 1.25309 1.05138 0.5
28 2.45565 3.40013 3.20968 0.5
29 2.37073 2.07167 1.88807 0.5
30 2.31208 2.11877 0.244321 0.5
31 2.89168 0.946202 1.55796 0.5
32 0.374345 2.51552 1.18096 0.5
33 1.27393 3.70076 3.23128 0.5
34 1.70517 1.46475 0.0810601 0.5
35 3.22056 2.16166 1.17334 0.5
36 2.27112 2.70405 1.15388 0.5
37 0.74033 2.87278 1.89005 0.5
38 0.786297 1.20344 1.22626 0.5
39 -0.00177411 0.677507 2.59644 0.5
40 0.685132 0.415323 0.279455 0.5
41 1.899 0.814853 2.30437 0.5
42 1.06539 2.90153 0.678936 0.5
43 1.39688 0.411963 3.66674 0.5
44 3.9629 2.29835 3.71068 0.5
45 2.34867 1.52544 2.73611 0.5
46 0.442912 1.41323 0.478053 0.5
47 1.85949 3.48828 2.46794 0.5
48 0.671389 0.936333 3.44124 0.5
49 0.219178 3.54196 2.3877 0.5
50 2.31318 0.154172 0.238991 0.5
