ITEM: TIMESTEP
70000
ITEM: NUMBER OF ATOMS
50
ITEM: BOX BOUNDS xy xz yz pp pp pp
0.0000000000000000e+00 3.9685030000000001e+00 0.0000000000000000e+00
0.0000000000000000e+00 3.9685030000000001e+00 0.0000000000000000e+00
0.0000000000000000e+00 3.9685030000000001e+00 0.0000000000000000e+00
ITEM: ATOMS id x y z radius
1 2.06085 2.3388 1.20371 0.5
2 2.57762 0.38291 3.0986 0.5
3 2.2171 3.44502 0.914974 0.5
4 3.94853 0.938541 3.21912 0.5
5 1.69745 3.73407 0.305837 0.5
6 3.56229 3.52249 1.8892 0.5
7 1.05038 0.697022 1.07327 0.5
8 1.21184 -0.00255625 0.968185 0.5
9 2.89404 3.44744 0.0611398 0.5
10 2.70375 1.40762 1.4758 0.5
11 0.346186 3.65967 1.16063 0.5
12 0.295045 1.12771 2.50199 0.5
13 2.94503 1.48055 3.46479 0.5
14 0.812399 1.23292 3.69088 0.5
15 3.64072 1.30978 0.17189 0.5
16 1.13563 1.8049 0.498249 0.5
17 1.69505 0.7681 2.52291 0.5
18 2.56492 1.57986 0.418461 0.5
19 2.4948 3.7961 2.47305 0.5
20 1.5384 2.27032 3.83153 0.5
21 3.04666 1.22616 0.860123 0.5
22 3.12733 2.3384 1.18318 0.5
23 0.502948 3.59968 3.88197 0.5
24 3.53845 3.49836 3.13167 0.5
25 0.288521 0.454878 0.51064 0.5
26 1.44417 3.20427 1.20582 0.5
27 3.09897 1.04891 2.19059 0.5
28 3.95477 2.23898 0.336205 0.5
29 2.48631 3.21563 1.75367 0.5
30 1.64617 3.24599 2.33189 0.5
31 2.56214 0.335162 1.25806 0.5
32 2.89344 2.7086 2.785 0.5
33 2.52917 2.32486 -0.0177456 0.5
34 1.21524 0.517795 3.69177 0.5
35 2.08022 1.85185 2.9781 0.5
36 0.913581 3.01623 2.9695 0.5
37 0.254579 0.612108 1.59876 0.5
38 3.62783 1.6733 1.40686 0.5
39 0.736942 1.41693 1.48807 0.5
40 1.2217 0.0794917 2.722 0.5
41 1.57365 2.32679 2.10915 0.5
42 3.7002 0.200493 2.21183 0.5
43 0.167017 1.28564 0.891436 0.5
44 3.54043 3.25919 1.09774 0.5
45 2.17058 3.57711 3.34909 0.5
46 0.245697 2.76036 1.9238 0.5
47 2.11035 0.980898 3.43207 0.5
48 3.14534 0.127663 0.473876 0.5
49 0.993232 2.68983 3.95565 0.5
50 1.24467 0.687087 1.99314 0.5
