ITEM: TIMESTEP
350000
ITEM: NUMBER OF ATOMS
50
ITEM: BOX BOUNDS xy xz yz pp pp pp
0.0000000000000000e+00 3.9685030000000001e+00 0.0000000000000000e+00
0.0000000000000000e+00 3.9685030000000001e+00 0.0000000000000000e+00
0.0000000000000000e+00 3.9685030000000001e+00 0.0000000000000000e+00
ITEM: ATOMS id x y z radius
1 2.72282 2.26604 3.68226 0.5
2 3.05693 3.63119 1.73442 0.5
3 1.66338 1.31934 2.9496 0.5
4 2.04782 2.39183 1.0175 0.5
5 0.769354 3.2645 0.430634 0.5
6 1.23767 0.251235 0.724995 0.5
7 1.82583 1.96382 1.73069 0.5
8 0.254543 1.57959 3.37175 0.5
9 0.438241 0.360264 2.77784 0.5
10 3.49231 1.14723 2.3943 0.5
11 1.50581 2.9934 0.908334 0.5
12 3.46962 0.936587 0.661174 0.5
13 0.560706 3.79585 3.46669 0.5
14 0.522624 2.01921 1.88902 0.5
15 1.85014 3.36781 3.94184 0.5
16 2.33009 3.58007 3.1246 0.5
17 2.18892 3.77458 2.26225 0.5
18 1.63729 3.14318 1.72362 0.5
19 2.66069 1.01109 0.965536 0.5
20 3.30096 1.74458 0.33054 0.5
21 3.02845 -0.018441 2.49081 0.5
22 2.17408 1.53506 0.501653 0.5
23 1.0787 3.35759 2.51625 0.5
24 2.61963 1.64277 1.6889 0.5
25 1.35427 0.515482 2.20276 0.5
26 0.765354 3.58627 1.90861 0.5
27 0.99099 0.993199 1.4116 0.5
28 2.55649 1.72316 2.80065 0.5
29 1.09401 1.87092 2.46338 0.5
30 1.19309 1.44476 3.76178 0.5
31 3.13714 2.58107 1.2028 0.5
32 0.0465061 2.80161 2.35958 0.5
33 1.67489 0.885145 0.558462 0.5
34 3.01452 2.62313 3.11362 0.5
35 2.45662 3.17338 1.35359 0.5
36 1.16422 0.741084 3.39848 0.5
37 3.42508 3.89246 3.35608 0.5
38 2.25445 3.07007 0.561191 0.5
39 2.97924 0.761777 2.94298 0.5
40 3.22129 2.18594 2.21605 0.5
41 0.686619 2.80705 3.77861 0.5
42 2.31159 1.21009 2.30356 0.5
43 2.08196 2.58362 2.70451 0.5
44 3.72502 3.166 0.956901 0.5
45 2.19024 3.99527 1.05582 0.5
46 3.93875 1.39087 1.06008 0.5
47 0.8419 2.31216 0.69488 0.5
48 2.31476 0.681626 2.96685 0.5
49 1.82986 2.24348 0.142255 0.5
50 3.76687 3.0514 0.056312 0.5
