ITEM: TIMESTEP
210000
ITEM: NUMBER OF ATOMS
50
ITEM: BOX BOUNDS xy xz yz pp pp pp
0.0000000000000000e+00 3.9685030000000001e+00 0.0000000000000000e+00
0.0000000000000000e+00 3.9685030000000001e+00 0.0000000000000000e+00
0.0000000000000000e+00 3.9685030000000001e+00 0.0000000000000000e+00
ITEM: ATOMS id x y z radius
1 1.10364 2.47172 3.95096 0.5
2 0.419903 1.87882 3.61194 0.5
3 2.17 1.64755 3.92091 0.5
4 1.53375 1.07356 0.310517 0.5
5 1.38383 3.96329 0.354572 0.5
6 3.34749 3.53286 1.75274 0.5
7 0.0228071 2.62205 3.229 0.5
8 2.29256 0.571033 3.96098 0.5
9 0.942272 2.40502 1.73391 0.5
10 3.14647 1.17575 0.572636 0.5
11 2.2815 2.84309 3.90771 0.5
12 1.6016 3.05448 0.428712 0.5
13 1.31168 0.270779 2.91607 0.5
14 3.36526 2.96315 3.48112 0.5
15 2.45321 2.90456 2.91179 0.5
16 3.4094 0.906261 3.60503 0.5
17 2.1259 3.27551 1.99446 0.5
18 2.83511 0.563888 2.79669 0.5
19 3.26444 0.40122 2.18388 0.5
20 2.96128 3.55797 2.60426 0.5
21 3.10694 0.635121 1.51564 0.5
22 2.68271 1.97109 2.35861 0.5
23 2.07267 0.355883 1.80903 0.5
24 3.89138 0.780877 0.297996 0.5
25 1.90218 3.64239 3.48965 0.5
26 0.53393 2.07748 0.72216 0.5
27 2.76524 2.6888 1.66014 0.5
28 3.59679 0.0152359 0.189076 0.5
29 0.942027 2.77591 2.97619 0.5
30 1.02464 3.13535 1.00617 0.5
31 3.8138 3.59809 2.22827 0.5
32 3.50108 2.45955 2.37022 0.5
33 2.73648 3.62486 1.47347 0.5
34 1.16542 1.69956 0.960112 0.5
35 0.649671 0.438953 3.73463 0.5
36 3.56789 1.74486 3.05102 0.5
37 2.17397 3.80944 2.60586 0.5
38 3.9196 2.14204 1.63693 0.5
39 2.00507 2.40313 2.21168 0.5
40 2.95038 3.68987 3.62395 0.5
41 2.471 1.60504 1.27354 0.5
42 0.318903 0.461362 2.20916 0.5
43 2.56248 0.107698 0.807166 0.5
44 3.77108 1.0636 1.34543 0.5
45 3.70286 0.227771 3.12432 0.5
46 1.21714 0.67866 2.08268 0.5
47 3.57009 1.79951 0.191623 0.5
48 1.81539 2.7674 1.45165 0.5
49 2.33803 0.989377 0.921534 0.5
50 0.616879 3.94092 2.99782 0.5
