ITEM: TIMESTEP
820000
ITEM: NUMBER OF ATOMS
50
ITEM: BOX BOUNDS xy xz yz pp pp pp
0.0000000000000000e+00 3.9685030000000001e+00 0.0000000000000000e+00
0.0000000000000000e+00 3.9685030000000001e+00 0.0000000000000000e+00
0.0000000000000000e+00 3.9685030000000001e+00 0.0000000000000000e+00
ITEM: ATOMS id x y z radius
1 1.3416 3.55541 3.38919 0.5
2 2.88078 2.40063 3.50987 0.5
3 0.408376 3.66546 3.62472 0.5
4 2.68834 0.355968 1.56407 0.5
5 2.25304 3.41371 0.308326 0.5
6 2.4393 2.88308 1.02084 0.5
7 1.60645 0.775046 2.99161 0.5
8 0.0234447 3.79078 1.61007 0.5
9 0.234354 1.26682 1.78847 0.5
10 3.12078 3.00308 1.76952 0.5
11 2.94476 0.581445 2.53103 0.5
12 0.62379 1.74163 3.09439 0.5
13 0.70126 2.32076 3.83187 0.5
14 0.888319 0.428488 1.46316 0.5
15 3.74919 1.1163 3.2364 0.5
16 2.37096 2.29383 0.00717385 0.5
17 0.442225 0.831269 3.76683 0.5
18 0.0850097 1.93932 1.09482 0.5
19 3.52711 0.0811581 3.90039 0.5
20 1.1478 3.83767 2.72648 0.5
21 0.788554 3.03546 1.25304 0.5
22 3.12849 3.79531 3.24852 0.5
23 1.16837 1.66359 0.72439 0.5
24 1.60004 1.88201 2.45649 0.5
25 0.36197 0.863353 0.709663 0.5
26 3.29422 1.67122 0.949487 0.5
27 0.0417005 2.11221 1.96058 0.5
28 0.809575 3.35595 0.238509 0.5
29 0.0392834 2.26381 3.04189 0.5
30 1.82422 0.286932 3.90325 0.5
31 2.52214 0.84969 3.74953 0.5
32 0.954673 0.492162 3.4248 0.5
33 3.91485 2.77687 1.06856 0.5
34 1.58439 2.57649 3.66478 0.5
35 2.54726 2.36021 2.24255 0.5
36 3.18662 1.77939 3.13503 0.5
37 0.646042 3.02981 2.30126 0.5
38 3.38794 2.62823 2.63269 0.5
39 2.53783 1.2666 2.51702 0.5
40 1.84971 3.17378 2.51353 0.5
41 2.4115 3.03612 3.23812 0.5
42 3.14916 1.62315 1.81371 0.5
43 1.43245 1.6404 3.63465 0.5
44 3.61216 3.09183 0.380822 0.5
45 2.05533 0.800197 1.89939 0.5
46 3.54908 0.970528 0.704474 0.5
47 0.495771 0.652094 2.74335 0.5
48 3.76932 2.88531 3.53985 0.5
49 2.16597 0.110107 3.04503 0.5
50 1.20986 2.45772 0.526464 0.5
