ITEM: TIMESTEP
730000
ITEM: NUMBER OF ATOMS
50
ITEM: BOX BOUNDS xy xz yz pp pp pp
0.0000000000000000e+00 3.9685030000000001e+00 0.0000000000000000e+00
0.0000000000000000e+00 3.9685030000000001e+00 0.0000000000000000e+00
0.0000000000000000e+00 3.9685030000000001e+00 0.0000000000000000e+00
ITEM: ATOMS id x y z radius
1 1.91811 2.8101 2.14147 0.5
2 1.02662 0.683636 0.511675 0.5
3 1.14766 1.8466 3.27549 0.5
4 2.46158 3.25081 2.52987 0.5
5 1.32902 3.93831 0.137389 0.5
6 1.88335 0.681171 3.83999 0.5
7 1.64586 0.175727 3.07705 0.5
8 1.58789 1.27568 2.59562 0.5
9 3.88185 3.5309 0.832494 0.5
10 0.324905 0.0782846 1.87317 0.5
11 0.196843 2.69111 2.46552 0.5
12 3.04523 1.67443 1.72699 0.5
13 3.72182 2.00288 0.980994 0.5
14 1.37707 2.19797 1.0962 0.5
15 1.25882 3.0772 2.49886 0.5
16 3.37738 3.83497 2.4678 0.5
17 2.40573 3.78898 0.153941 0.5
18 0.123878 0.884446 3.36246 0.5
19 2.5734 0.740661 2.8612 0.5
20 0.390436 3.14846 0.451692 0.5
21 3.51982 3.02768 1.83027 0.5
22 3.20889 2.18555 2.71557 0.5
23 2.13375 2.69506 0.822885 0.5
24 2.73286 2.83805 3.58536 0.5
25 2.9488 1.17938 3.82989 0.5
26 2.83421 0.44929 1.90519 0.5
27 1.16409 0.963883 3.47178 0.5
28 0.154202 1.67826 1.84527 0.5
29 2.83383 3.34829 0.726893 0.5
30 0.518702 2.91706 3.26227 0.5
31 1.26003 2.65424 0.0676633 0.5
32 2.87803 3.69693 3.1919 0.5
33 1.40651 1.62723 0.399218 0.5
34 1.46965 0.741649 1.7122 0.5
35 2.48613 1.04722 1.81787 0.5
36 0.856821 2.07991 0.425268 0.5
37 0.0399651 3.50281 3.71131 0.5
38 3.61724 0.713221 2.17734 0.5
39 3.98535 1.86603 0.0164734 0.5
40 2.29713 1.53704 3.69499 0.5
41 1.30319 3.53649 1.65016 0.5
42 2.53949 1.46311 0.866507 0.5
43 3.4857 0.904409 1.23936 0.5
44 1.93008 2.94641 3.30821 0.5
45 0.691591 3.55162 2.47836 0.5
46 0.400302 0.830743 1.98946 0.5
47 0.964389 1.84652 2.50678 0.5
48 2.20413 2.08926 0.0384207 0.5
49 1.08374 2.46875 1.82852 0.5
50 0.889302 0.682478 2.62134 0.5
