ITEM: TIMESTEP
320000
ITEM: NUMBER OF ATOMS
50
ITEM: BOX BOUNDS xy xz yz pp pp pp
0.0000000000000000e+00 3.9685030000000001e+00 0.0000000000000000e+00
0.0000000000000000e+00 3.9685030000000001e+00 0.0000000000000000e+00
0.0000000000000000e+00 3.9685030000000001e+00 0.0000000000000000e+00
ITEM: ATOMS id x y z radius
1 1.79931 1.9253 1.68592 0.5
2 2.69269 2.85801 0.824123 0.5
3 3.83813 3.90495 1.11248 0.5
4 2.77093 3.83086 2.01189 0.5
5 0.879537 1.2322 1.8543 0.5
6 2.60054 3.63837 0.169415 0.5
7 3.16621 2.86668 3.54416 0.5
8 1.16004 1.43685 1.0557 0.5
9 0.458154 1.97534 3.48031 0.5
10 0.830371 0.477947 1.39587 0.5
11 0.335666 0.0311357 2.11514 0.5
12 0.930342 0.737262 3.47975 0.5
13 3.78841 3.1658 1.54085 0.5
14 -0.0363007 1.6616 2.3185 0.5
15 3.21359 1.02038 1.83879 0.5
16 2.15525 1.76172 1.08532 0.5
17 2.49504 1.14181 3.14492 0.5
18 2.97857 0.838242 0.799381 0.5
19 0.52677 2.61522 1.02112 0.5
20 1.41629 0.797401 2.98416 0.5
21 2.11339 0.319622 1.3844 0.5
22 0.244302 2.85046 -0.012389 0.5
23 2.64383 3.87666 0.933528 0.5
24 0.752127 1.56408 2.76505 0.5
25 1.83985 0.963137 1.7069 0.5
26 2.29505 2.30258 3.19874 0.5
27 0.790745 3.66216 1.14347 0.5
28 1.5584 0.783914 0.31186 0.5
29 2.03229 2.785 1.22708 0.5
30 0.586791 0.717835 2.41906 0.5
31 2.53577 2.98202 2.39506 0.5
32 0.602824 2.29459 1.96241 0.5
33 0.0760577 1.10674 3.89132 0.5
34 2.1411 0.197666 3.77324 0.5
35 1.87564 3.63953 0.853598 0.5
36 0.0876777 0.451354 3.03813 0.5
37 3.29694 3.41085 0.417085 0.5
38 1.77148 1.41654 3.49686 0.5
39 1.26191 3.63082 0.055485 0.5
40 2.22197 1.72753 0.311363 0.5
41 3.91177 2.32796 3.05984 0.5
42 2.44868 1.70439 2.07727 0.5
43 4.00537 0.91644 1.81218 0.5
44 3.6743 2.38261 0.242361 0.5
45 1.13525 3.91406 2.31128 0.5
46 3.00185 1.93909 3.66512 0.5
47 3.2949 0.720902 3.42033 0.5
48 1.52497 2.82838 3.4697 0.5
49 1.61332 2.25259 0.605493 0.5
50 0.177262 1.8258 1.2502 0.5
