ITEM: TIMESTEP
340000
ITEM: NUMBER OF ATOMS
50
ITEM: BOX BOUNDS xy xz yz pp pp pp
0.0000000000000000e+00 3.9685030000000001e+00 0.0000000000000000e+00
0.0000000000000000e+00 3.9685030000000001e+00 0.0000000000000000e+00
0.0000000000000000e+00 3.9685030000000001e+00 0.0000000000000000e+00
ITEM: ATOMS id x y z radius
1 0.0573149 3.24435 3.90395 0.5
2 2.76609 1.63437 2.59534 0.5
3 2.29338 0.741424 2.7783 0.5
4 1.39505 0.573786 0.431262 0.5
5 3.15078 2.54304 1.07285 0.5
6 0.686676 1.41633 0.45802 0.5
7 3.85879 0.594763 3.36218 0.5
8 0.128269 0.0534282 3.90205 0.5
9 3.0743 2.5704 2.41908 0.5
10 0.693547 3.55063 0.996712 0.5
11 1.63575 3.5401 1.04598 0.5
12 0.633121 0.595875 2.58212 0.5
13 1.55253 1.37954 1.05631 0.5
14 3.58067 2.88762 1.76488 0.5
15 1.23398 1.0711 3.27886 0.5
16 1.67716 2.5491 1.42107 0.5
17 3.19233 3.392 1.16619 0.5
18 3.65772 1.30587 2.60073 0.5
19 3.77475 1.32362 0.42843 0.5
20 2.19041 2.01818 0.690045 0.5
21 2.01725 0.318367 1.14659 0.5
22 2.18166 3.00744 0.704355 0.5
23 0.442422 2.21118 0.167689 0.5
24 0.610952 2.62479 2.56098 0.5
25 1.85059 2.98469 3.79977 0.5
26 3.11964 1.6512 1.47709 0.5
27 3.24841 0.739513 0.370031 0.5
28 3.85844 2.50991 3.16659 0.5
29 0.907845 3.16964 1.62095 0.5
30 2.23562 3.0983 2.60381 0.5
31 0.725537 2.99487 3.25055 0.5
32 2.12014 0.329516 3.42519 0.5
33 1.24248 0.241227 1.69351 0.5
34 0.79895 0.491741 3.62197 0.5
35 0.931677 1.0238 1.82592 0.5
36 0.453245 3.90982 1.95168 0.5
37 0.412321 0.729834 0.965166 0.5
38 1.35051 3.69311 2.44353 0.5
39 2.48708 0.836354 1.80187 0.5
40 2.74845 1.83641 0.0482182 0.5
41 1.40572 2.27435 3.22771 0.5
42 2.10946 1.7707 1.5874 0.5
43 3.95994 3.81121 3.08043 0.5
44 3.51465 3.86354 0.347325 0.5
45 0.129398 2.8672 0.74917 0.5
46 2.7674 0.888501 3.41161 0.5
47 1.40857 3.78908 0.0808791 0.5
48 1.89204 1.49415 3.94016 0.5
49 1.1425 1.81671 2.05228 0.5
50 0.209849 1.44972 3.53985 0.5
