ITEM: TIMESTEP
630000
ITEM: NUMBER OF ATOMS
50
ITEM: BOX BOUNDS xy xz yz pp pp pp
0.0000000000000000e+00 3.9685030000000001e+00 0.0000000000000000e+00
0.0000000000000000e+00 3.9685030000000001e+00 0.0000000000000000e+00
0.0000000000000000e+00 3.9685030000000001e+00 0.0000000000000000e+00
ITEM: ATOMS id x y z radius
1 3.38421 2.77343 1.47209 0.5
2 0.386695 1.77361 0.673891 0.5
3 0.816312 0.940797 3.73299 0.5
4 1.50021 1.59368 2.13955 0.5
5 2.67892 0.373316 3.10108 0.5
6 3.54791 0.430616 0.512369 0.5
7 0.838454 1.22089 1.71814 0.5
8 2.58424 1.05363 3.58328 0.5
9 3.69567 1.71473 3.97266 0.5
10 0.921963 3.8604 2.25376 0.5
11 2.32233 3.13994 3.5563 0.5
12 1.77681 3.37172 2.63205 0.5
13 1.78792 0.132942 3.84342 0.5
14 3.91319 2.13144 2.86461 0.5
15 3.31125 3.85302 3.68482 0.5
16 2.97415 2.09262 2.25455 0.5
17 2.06286 2.39546 2.12519 0.5
18 0.857395 0.829322 2.71243 0.5
19 2.45693 0.0335806 2.44349 0.5
20 1.1652 0.469418 1.24908 0.5
21 3.59443 0.238274 1.36036 0.5
22 2.04138 0.332019 1.51641 0.5
23 0.765451 3.50575 0.506744 0.5
24 1.53758 3.64172 0.781247 0.5
25 2.78582 2.32755 1.34458 0.5
26 3.95473 1.08351 3.06993 0.5
27 0.0631365 3.13882 0.336438 0.5
28 2.71895 0.538585 0.314624 0.5
29 1.47504 2.02266 3.01243 0.5
30 0.399923 3.05123 3.41779 0.5
31 0.265443 3.51506 1.99606 0.5
32 0.799794 2.5694 0.939045 0.5
33 3.10799 1.18002 0.370349 0.5
34 2.5054 3.73124 0.547831 0.5
35 3.69245 1.85295 1.24371 0.5
36 0.396504 0.290529 3.45374 0.5
37 2.45245 1.54868 0.575409 0.5
38 1.20927 2.58932 2.28537 0.5
39 3.4278 2.77953 3.51804 0.5
40 0.104465 0.0460123 2.80711 0.5
41 0.424132 2.32941 0.242163 0.5
42 2.07691 2.86393 0.950108 0.5
43 2.64875 1.68489 2.93966 0.5
44 1.4512 2.88606 3.23917 0.5
45 0.464047 3.66979 1.37421 0.5
46 1.89765 0.915466 3.23382 0.5
47 3.66806 3.06738 2.73186 0.5
48 1.64795 3.31134 1.67644 0.5
49 2.48574 2.85532 2.82662 0.5
50 0.438762 1.66138 3.4166 0.5
