ITEM: TIMESTEP
247
ITEM: NUMBER OF ATOMS
50
ITEM: BOX BOUNDS xy xz yz pp pp pp
0.0000000000000000e+00 3.9685030000000001e+00 0.0000000000000000e+00
0.0000000000000000e+00 3.9685030000000001e+00 0.0000000000000000e+00
0.0000000000000000e+00 3.9685030000000001e+00 0.0000000000000000e+00
ITEM: ATOMS id x y z radius
1 2.50203 1.75329 2.77389 0.5
2 1.02937 3.54347 2.60672 0.5
3 3.43886 3.48481 1.86373 0.5
4 3.61444 0.527108 1.87404 0.5
5 1.11893 2.38193 0.342999 0.5
6 3.32379 3.86158 0.986635 0.5
7 1.33593 1.10795 3.07706 0.5
8 2.51515 3.30819 1.22208 0.5
9 2.49321 1.63227 3.84806 0.5
10 0.29244 3.83166 0.78056 0.5
11 2.18005 2.60768 0.12522 0.5
12 1.85211 1.57255 1.85112 0.5
13 0.254619 2.09165 3.7602 0.5
14 2.80711 2.86965 3.16273 0.5
15 3.66392 3.80085 3.93865 0.5
16 1.0187 3.11655 1.27586 0.5
17 0.771573 2.76943 3.33247 0.5
18 1.37708 0.14464 3.37768 0.5
19 0.479875 1.19071 1.64869 0.5
20 3.39259 2.79962 1.06294 0.5
21 2.74261 0.155848 1.87874 0.5
22 1.45818 1.52236 0.165413 0.5
23 1.75434 3.89062 0.889145 0.5
24 0.35576 3.95898 1.73707 0.5
25 1.95434 0.681063 1.44751 0.5
26 0.0941057 2.94333 0.198169 0.5
27 1.87529 2.55041 1.72641 0.5
28 0.158227 3.31143 2.65295 0.5
29 2.34071 1.43754 0.869934 0.5
30 0.262002 0.598133 0.012546 0.5
31 3.28094 1.81047 1.00115 0.5
32 3.06523 0.938174 0.339374 0.5
33 1.04707 0.433337 1.17572 0.5
34 3.90334 0.686102 0.941507 0.5
35 0.543011 1.57656 0.576519 0.5
36 1.60983 2.11083 3.32252 0.5
37 0.500924 0.0525811 3.2137 0.5
38 0.96802 2.11989 1.50261 0.5
39 2.81364 1.02465 3.22096 0.5
40 1.09347 2.6564 2.2984 0.5
41 2.9092 0.952716 1.22231 0.5
42 1.38724 1.27764 1.00896 0.5
43 2.25229 0.92716 2.56288 0.5
44 2.65873 0.121676 3.86213 0.5
45 3.59793 1.59554 2.00884 0.5
46 3.53125 1.76974 3.15335 0.5
47 3.14939 2.55525 2.10698 0.5
48 0.565819 1.7524 2.45841 0.5
49 3.25143 2.33393 0.0133541 0.5
50 2.89775 3.27204 0.200713 0.5
