ITEM: TIMESTEP
390000
ITEM: NUMBER OF ATOMS
50
ITEM: BOX BOUNDS xy xz yz pp pp pp
0.0000000000000000e+00 3.9685030000000001e+00 0.0000000000000000e+00
0.0000000000000000e+00 3.9685030000000001e+00 0.0000000000000000e+00
0.0000000000000000e+00 3.9685030000000001e+00 0.0000000000000000e+00
ITEM: ATOMS id x y z radius
1 2.91937 0.346432 2.76477 0.5
2 2.78797 0.138564 0.631774 0.5
3 2.88302 3.48518 2.0264 0.5
4 3.84375 2.14756 2.74315 0.5
5 3.38326 1.10969 2.2406 0.5
6 2.07364 0.916775 0.893318 0.5
7 0.579409 3.08056 3.69952 0.5
8 1.28941 3.37698 1.6861 0.5
9 1.92842 0.485211 2.64212 0.5
10 0.868648 1.33229 1.85657 0.5
11 2.94178 2.54643 2.50055 0.5
12 3.74972 1.19952 0.139291 0.5
13 0.539744 3.3444 1.29957 0.5
14 1.03337 1.75445 3.52076 0.5
15 2.95954 -0.0348958 3.75266 0.5
16 0.907823 3.87301 3.84811 0.5
17 1.06002 1.36129 2.75889 0.5
18 3.08578 0.216713 1.29727 0.5
19 2.68959 2.02367 0.334667 0.5
20 0.319752 3.78505 2.89784 0.5
21 3.66532 3.10959 1.39005 0.5
22 3.7419 3.75049 3.5836 0.5
23 1.15336 0.38141 2.48008 0.5
24 3.78851 2.27091 0.892396 0.5
25 3.72498 2.94418 3.05696 0.5
26 1.8341 0.111675 0.107408 0.5
27 3.62697 1.27665 3.26682 0.5
28 0.361201 1.8899 0.125472 0.5
29 0.724183 2.50838 0.484777 0.5
30 2.05744 1.43337 0.0190998 0.5
31 2.36118 1.09216 2.90707 0.5
32 2.21452 2.71235 3.09946 0.5
33 0.27638 0.873194 2.63602 0.5
34 1.62286 1.76085 3.19675 0.5
35 0.575428 0.982589 3.56325 0.5
36 0.6385 0.610798 1.32521 0.5
37 3.39458 1.40463 0.962742 0.5
38 0.878328 2.72069 1.92147 0.5
39 1.60722 0.804479 3.33423 0.5
40 1.93867 3.73156 2.61335 0.5
41 1.2562 2.47238 2.51674 0.5
42 1.84246 1.35211 2.03545 0.5
43 2.48506 1.95772 3.49985 0.5
44 2.94047 1.29335 0.174945 0.5
45 2.23564 2.75145 2.14093 0.5
46 3.93437 0.319001 0.561768 0.5
47 3.25738 2.34514 3.85453 0.5
48 2.51546 0.5944 3.65957 0.5
49 2.27161 3.19796 0.446055 0.5
50 0.65258 2.33316 3.16364 0.5
