LAMMPS Description

1000 atoms

1 atom types
0 13.572088 xlo xhi
0 13.572088 ylo yhi
0 13.572088 zlo zhi


Atoms # sphere

1 1 1 2.35 4.2715 4.07786 11.7619
2 1 1 2.35 4.59339 11.248 4.15718
3 1 1 2.35 7.49761 10.7229 1.81434
4 1 1 2.35 10.4405 6.43879 1.35524
5 1 1 2.35 7.22718 8.26097 11.6279
6 1 1 2.35 4.43508 10.8195 6.35863
7 1 1 2.35 4.18546 7.51369 0.0921261
8 1 1 2.35 1.09871 11.4327 1.30126
9 1 1 2.35 2.37307 7.24295 4.88268
10 1 1 2.35 2.97758 13.1559 10.9263
11 1 1 2.35 0.633868 10.2529 8.80047
12 1 1 2.35 11.1559 6.62788 1.24636
13 1 1 2.35 9.05911 10.7117 6.19624
14 1 1 2.35 11.1677 2.22494 3.86767
15 1 1 2.35 5.05537 1.40103 4.54116
16 1 1 2.35 6.20776 6.63486 9.13978
17 1 1 2.35 7.3907 11.543 10.5079
18 1 1 2.35 1.68021 8.44359 6.41808
19 1 1 2.35 8.19057 5.60267 1.51697
20 1 1 2.35 9.6206 11.8278 3.9896
21 1 1 2.35 0.519077 4.50956 0.415074
22 1 1 2.35 1.79911 6.72983 11.6963
23 1 1 2.35 13.4296 1.03906 9.52356
24 1 1 2.35 5.26781 6.73884 3.22908
25 1 1 2.35 1.26535 6.72153 1.13585
26 1 1 2.35 9.79243 8.66832 6.15049
27 1 1 2.35 12.2978 6.30732 13.2647
28 1 1 2.35 4.85555 10.1575 11.4521
29 1 1 2.35 0.895536 5.78769 0.789919
30 1 1 2.35 9.56002 9.41217 2.26213
31 1 1 2.35 1.33308 0.241665 7.19386
32 1 1 2.35 9.89446 2.41824 1.45656
33 1 1 2.35 13.5576 7.22455 10.125
34 1 1 2.35 2.34155 9.40882 6.95967
35 1 1 2.35 12.4879 6.13055 0.770995
36 1 1 2.35 12.7807 0.00653192 6.73383
37 1 1 2.35 12.6669 0.553847 2.6795
38 1 1 2.35 4.92696 3.36938 0.798192
39 1 1 2.35 8.85911 5.66695 1.64931
40 1 1 2.35 5.47194 5.39454 6.77618
41 1 1 2.35 9.44317 11.4911 6.93749
42 1 1 2.35 5.91762 4.93189 4.15752
43 1 1 2.35 4.85798 3.7629 9.51533
44 1 1 2.35 3.54686 9.91008 7.83912
45 1 1 2.35 5.29027 8.10956 2.6627
46 1 1 2.35 12.2095 11.8082 13.3901
47 1 1 2.35 1.49486 9.54324 5.73704
48 1 1 2.35 9.2993 9.76463 1.72159
49 1 1 2.35 4.89574 11.0681 11.5683
50 1 1 2.35 4.78876 2.80363 11.6325
51 1 1 2.35 12.9374 10.6399 7.40132
52 1 1 2.35 5.07064 9.71154 7.04444
53 1 1 2.35 7.66003 4.56014 2.63324
54 1 1 2.35 12.368 9.82719 1.80431
55 1 1 2.35 0.58464 0.886473 5.77719
56 1 1 2.35 11.3277 4.45886 3.50091
57 1 1 2.35 12.5501 10.3241 9.63697
58 1 1 2.35 5.38604 7.68237 10.7042
59 1 1 2.35 3.03765 10.8674 11.4175
60 1 1 2.35 5.81619 4.8715 9.70527
61 1 1 2.35 3.18671 12.3496 11.6593
62 1 1 2.35 0.848064 8.84733 0.373323
63 1 1 2.35 11.7536 8.43458 1.20483
64 1 1 2.35 11.1841 2.31465 10.44
65 1 1 2.35 13.2022 3.74431 5.41493
66 1 1 2.35 1.02881 2.67062 1.83385
67 1 1 2.35 8.99832 2.75311 7.34363
68 1 1 2.35 4.86242 1.33144 3.27913
69 1 1 2.35 12.4725 0.193414 11.28
70 1 1 2.35 10.9794 4.47796 12.1558
71 1 1 2.35 2.26764 5.82377 9.26846
72 1 1 2.35 8.06591 4.08 9.513
73 1 1 2.35 6.66596 7.14407 10.3667
74 1 1 2.35 5.47076 4.0901 8.34487
75 1 1 2.35 8.22555 1.95724 10.9932
76 1 1 2.35 12.4097 4.29905 1.78585
77 1 1 2.35 9.33036 1.58987 3.76264
78 1 1 2.35 9.68428 2.19585 6.27455
79 1 1 2.35 3.76956 11.1943 5.79522
80 1 1 2.35 4.85077 4.14059 7.58348
81 1 1 2.35 2.30947 3.4899 10.1017
82 1 1 2.35 1.46777 9.15641 13.2406
83 1 1 2.35 2.02864 1.80763 7.15867
84 1 1 2.35 11.9798 9.24618 7.47325
85 1 1 2.35 1.3415 3.69363 9.37379
86 1 1 2.35 3.18654 1.13345 11.8017
87 1 1 2.35 4.69598 6.37471 6.38054
88 1 1 2.35 5.4026 4.67558 4.39052
89 1 1 2.35 11.5857 0.630302 7.83637
90 1 1 2.35 3.57322 5.12839 4.60122
91 1 1 2.35 11.4896 8.18615 11.2383
92 1 1 2.35 1.16678 1.67269 1.90766
93 1 1 2.35 1.65825 1.93833 0.874928
94 1 1 2.35 4.30927 9.53305 12.3801
95 1 1 2.35 12.1003 3.49376 9.54469
96 1 1 2.35 10.3613 3.10841 3.55765
97 1 1 2.35 11.3105 3.63594 4.61706
98 1 1 2.35 12.9126 10.7036 12.2648
99 1 1 2.35 5.84345 7.49098 7.75529
100 1 1 2.35 1.82407 5.32925 5.31334
101 1 1 2.35 5.57197 10.9083 2.03978
102 1 1 2.35 7.94833 7.71178 12.6631
103 1 1 2.35 3.67625 4.62565 9.72569
104 1 1 2.35 6.13046 10.0948 6.03056
105 1 1 2.35 10.6139 1.685 7.39284
106 1 1 2.35 8.02136 1.93425 10.6244
107 1 1 2.35 0.274289 5.77635 8.88473
108 1 1 2.35 0.323197 10.9415 4.38314
109 1 1 2.35 1.20701 10.2451 10.0476
110 1 1 2.35 7.85248 8.62111 6.75966
111 1 1 2.35 7.4344 13.4619 3.81764
112 1 1 2.35 5.70672 1.28928 5.89104
113 1 1 2.35 0.733234 2.75942 5.33946
114 1 1 2.35 5.5765 5.82848 3.31881
115 1 1 2.35 5.75003 6.03386 13.0142
116 1 1 2.35 0.718571 5.74594 1.37257
117 1 1 2.35 1.08085 13.3622 4.9124
118 1 1 2.35 12.3734 7.55753 4.52742
119 1 1 2.35 12.0627 8.30923 2.4125
120 1 1 2.35 4.08027 10.7675 4.92094
121 1 1 2.35 13.4555 13.0284 12.3533
122 1 1 2.35 1.48689 4.92258 2.91497
123 1 1 2.35 11.246 1.18505 11.23
124 1 1 2.35 11.4307 13.0984 12.0048
125 1 1 2.35 3.92744 11.879 2.78596
126 1 1 2.35 12.1922 11.2259 12.2378
127 1 1 2.35 7.57759 9.887 12.1903
128 1 1 2.35 4.58988 3.49076 7.06823
129 1 1 2.35 2.52961 7.5093 12.9605
130 1 1 2.35 1.78739 10.5511 7.6986
131 1 1 2.35 7.74273 1.53258 0.336831
132 1 1 2.35 5.41802 11.946 2.43051
133 1 1 2.35 0.345098 11.1448 8.34179
134 1 1 2.35 12.0881 10.922 3.17762
135 1 1 2.35 12.6053 3.79526 5.5459
136 1 1 2.35 8.58862 1.75277 3.49583
137 1 1 2.35 2.39939 0.117222 5.93584
138 1 1 2.35 8.96177 13.2553 12.086
139 1 1 2.35 5.38062 12.3789 12.9935
140 1 1 2.35 4.85572 2.93655 3.33333
141 1 1 2.35 1.01295 3.66872 4.06
142 1 1 2.35 8.89093 2.18744 1.69524
143 1 1 2.35 0.841717 0.0493291 11.4669
144 1 1 2.35 8.56342 12.0466 7.16829
145 1 1 2.35 6.0274 7.60626 4.16919
146 1 1 2.35 10.3632 10.7065 8.65467
147 1 1 2.35 5.13556 6.23303 13.5556
148 1 1 2.35 12.5648 13.4535 11.0986
149 1 1 2.35 5.71011 6.79212 8.26022
150 1 1 2.35 0.351659 9.97197 1.21859
151 1 1 2.35 5.12363 10.9797 10.6966
152 1 1 2.35 3.50358 3.32475 10.1948
153 1 1 2.35 11.3378 6.5527 8.01161
154 1 1 2.35 3.51719 4.08724 1.55041
155 1 1 2.35 2.93673 8.04831 10.312
156 1 1 2.35 8.3626 12.5789 0.292718
157 1 1 2.35 3.22507 12.6537 2.96804
158 1 1 2.35 1.64863 8.59246 8.16018
159 1 1 2.35 3.49117 1.64354 10.0603
160 1 1 2.35 8.83197 2.33806 12.1295
161 1 1 2.35 0.0231146 2.88014 11.9277
162 1 1 2.35 7.50213 3.39523 7.68283
163 1 1 2.35 13.1647 8.39847 12.5735
164 1 1 2.35 8.25359 2.49804 1.50709
165 1 1 2.35 7.81905 11.2453 9.94837
166 1 1 2.35 12.7674 13.4702 5.89822
167 1 1 2.35 12.2245 7.09109 8.46765
168 1 1 2.35 2.29697 4.59309 7.89726
169 1 1 2.35 13.4551 12.2695 12.2263
170 1 1 2.35 4.79057 6.21883 0.552975
171 1 1 2.35 10.7936 5.45604 1.04537
172 1 1 2.35 9.69648 7.5726 8.82915
173 1 1 2.35 8.85318 10.454 3.71865
174 1 1 2.35 3.72745 0.220567 0.651253
175 1 1 2.35 3.25282 6.17724 1.96549
176 1 1 2.35 4.03817 5.01317 2.28271
177 1 1 2.35 9.49071 4.22294 7.59006
178 1 1 2.35 6.02672 2.78997 3.72699
179 1 1 2.35 12.6829 6.85452 2.55417
180 1 1 2.35 9.05576 2.25995 0.967545
181 1 1 2.35 9.89665 12.7616 9.43494
182 1 1 2.35 4.03694 10.483 0.194019
183 1 1 2.35 8.57944 7.79205 5.83086
184 1 1 2.35 9.95729 3.94304 10.5063
185 1 1 2.35 7.72697 3.20504 11.7138
186 1 1 2.35 4.22693 8.89989 2.38708
187 1 1 2.35 5.32005 12.2805 12.2379
188 1 1 2.35 5.6054 5.81078 7.10888
189 1 1 2.35 1.18549 10.1555 6.60937
190 1 1 2.35 8.92511 0.150846 3.00191
191 1 1 2.35 9.19267 5.91309 4.41952
192 1 1 2.35 10.9468 2.04333 0.916066
193 1 1 2.35 11.082 0.466011 10.1804
194 1 1 2.35 9.50212 2.79865 11.9636
195 1 1 2.35 12.3916 9.47032 10.803
196 1 1 2.35 8.97037 0.567521 4.69184
197 1 1 2.35 3.26986 7.08955 8.74304
198 1 1 2.35 7.32189 5.51741 13.0729
199 1 1 2.35 11.341 4.00405 9.30542
200 1 1 2.35 5.40379 6.91008 3.22561
201 1 1 2.35 0.374709 4.29968 9.30329
202 1 1 2.35 7.23089 0.453596 9.05943
203 1 1 2.35 2.157 3.45505 1.59543
204 1 1 2.35 1.026 8.01272 9.91421
205 1 1 2.35 0.0158248 11.5626 3.09968
206 1 1 2.35 13.464 2.16242 8.82379
207 1 1 2.35 6.41055 2.03772 10.7835
208 1 1 2.35 8.10458 5.27652 8.89314
209 1 1 2.35 3.70845 3.05694 4.39198
210 1 1 2.35 4.4407 7.11285 4.18975
211 1 1 2.35 4.77832 3.67767 9.96568
212 1 1 2.35 4.02572 5.80196 3.69035
213 1 1 2.35 2.16832 1.48692 4.85966
214 1 1 2.35 8.86364 4.11683 12.4863
215 1 1 2.35 6.43954 6.73959 2.44999
216 1 1 2.35 6.64297 8.81488 13.5294
217 1 1 2.35 3.86836 10.8105 5.03817
218 1 1 2.35 6.19613 8.09395 4.29412
219 1 1 2.35 7.69122 2.02402 2.89123
220 1 1 2.35 7.16555 0.0639682 9.42876
221 1 1 2.35 2.81097 3.49823 7.71359
222 1 1 2.35 7.83708 11.9757 5.0672
223 1 1 2.35 4.31934 10.0516 2.09688
224 1 1 2.35 11.5159 6.2244 2.89038
225 1 1 2.35 9.6582 11.2281 10.6751
226 1 1 2.35 11.2471 6.32078 0.449877
227 1 1 2.35 11.7621 8.69655 8.88239
228 1 1 2.35 3.53022 11.0718 5.44031
229 1 1 2.35 5.36969 5.14001 6.10725
230 1 1 2.35 5.70049 8.1493 9.16872
231 1 1 2.35 6.76727 5.66985 10.5385
232 1 1 2.35 6.85165 5.69379 0.362866
233 1 1 2.35 13.3762 0.666903 8.99319
234 1 1 2.35 12.1192 2.89691 4.64589
235 1 1 2.35 0.710274 9.96491 3.08061
236 1 1 2.35 10.5686 5.47235 0.68494
237 1 1 2.35 4.70048 9.68671 5.33225
238 1 1 2.35 0.155945 11.7526 6.11567
239 1 1 2.35 9.59188 7.22467 4.37711
240 1 1 2.35 3.17658 4.14147 10.5865
241 1 1 2.35 4.41505 5.49433 13.4439
242 1 1 2.35 4.09965 1.14584 2.15195
243 1 1 2.35 0.895272 9.44677 3.13511
244 1 1 2.35 2.93306 13.1989 5.60284
245 1 1 2.35 2.271 11.5047 11.4006
246 1 1 2.35 9.48466 11.1033 8.71497
247 1 1 2.35 3.35884 13.1925 9.72647
248 1 1 2.35 7.25065 2.10621 0.500702
249 1 1 2.35 10.2725 1.61349 1.75872
250 1 1 2.35 9.6703 1.53985 0.860128
251 1 1 2.35 3.74085 9.21608 9.9302
252 1 1 2.35 9.04326 7.83598 3.27091
253 1 1 2.35 1.28886 9.17918 0.49123
254 1 1 2.35 10.3821 4.67927 3.04321
255 1 1 2.35 8.39447 9.65052 1.33104
256 1 1 2.35 0.808925 11.9922 3.5713
257 1 1 2.35 1.34517 4.05746 8.1668
258 1 1 2.35 2.19162 6.48203 7.1451
259 1 1 2.35 3.70866 4.27871 9.52022
260 1 1 2.35 6.11683 11.2246 10.0341
261 1 1 2.35 11.3291 5.00713 6.20021
262 1 1 2.35 7.13573 11.2357 5.52237
263 1 1 2.35 4.28041 4.89975 7.15469
264 1 1 2.35 11.3001 11.023 8.19853
265 1 1 2.35 0.521495 5.20843 3.76723
266 1 1 2.35 3.2082 12.7716 7.97415
267 1 1 2.35 4.20485 7.04811 9.53076
268 1 1 2.35 6.94403 1.13448 0.592046
269 1 1 2.35 8.32711 0.845117 6.96088
270 1 1 2.35 5.86897 11.0602 8.17705
271 1 1 2.35 12.2744 12.8952 3.56113
272 1 1 2.35 5.61824 9.82131 13.5646
273 1 1 2.35 8.40433 3.28938 3.26898
274 1 1 2.35 10.124 3.45044 9.82359
275 1 1 2.35 2.50798 11.979 1.11667
276 1 1 2.35 5.41597 0.213672 12.2724
277 1 1 2.35 7.89463 4.919 0.807335
278 1 1 2.35 11.3795 10.5833 13.1709
279 1 1 2.35 9.97809 11.2578 6.51834
280 1 1 2.35 5.5065 10.862 1.03534
281 1 1 2.35 8.51155 2.42743 9.99576
282 1 1 2.35 1.29234 11.332 0.294805
283 1 1 2.35 4.2378 4.9529 2.06204
284 1 1 2.35 1.95589 10.5397 0.243931
285 1 1 2.35 1.85419 9.78685 6.63706
286 1 1 2.35 2.29922 1.74042 12.9236
287 1 1 2.35 7.82357 7.34798 7.20406
288 1 1 2.35 6.64789 0.224689 6.67487
289 1 1 2.35 1.45225 10.1989 2.46974
290 1 1 2.35 0.710757 12.4713 5.81482
291 1 1 2.35 4.17367 0.381014 4.94019
292 1 1 2.35 4.90691 3.98273 13.207
293 1 1 2.35 10.681 5.53997 4.60005
294 1 1 2.35 1.07842 10.2495 7.37535
295 1 1 2.35 2.79621 2.02784 6.86482
296 1 1 2.35 0.785349 3.45621 8.37968
297 1 1 2.35 12.4201 12.667 12.9736
298 1 1 2.35 10.1571 5.27178 0.534189
299 1 1 2.35 1.93117 1.30598 12.478
300 1 1 2.35 6.87462 5.62237 2.31226
301 1 1 2.35 6.38502 6.7654 12.9035
302 1 1 2.35 4.07676 7.46356 3.21714
303 1 1 2.35 11.2899 6.87027 2.85489
304 1 1 2.35 1.42461 5.50889 6.0546
305 1 1 2.35 7.40316 13.2761 6.31744
306 1 1 2.35 10.9755 9.50295 12.355
307 1 1 2.35 2.92169 6.90937 2.35535
308 1 1 2.35 1.50296 9.93089 11.0305
309 1 1 2.35 0.223977 0.286611 12.3304
310 1 1 2.35 8.19382 0.0169877 4.08925
311 1 1 2.35 0.241369 5.52758 7.27733
312 1 1 2.35 7.56439 11.1615 9.99979
313 1 1 2.35 12.1941 11.0116 4.73494
314 1 1 2.35 5.23754 9.88636 11.4123
315 1 1 2.35 13.2004 5.92843 3.44193
316 1 1 2.35 9.28404 4.214 8.38498
317 1 1 2.35 12.1023 7.54751 4.02031
318 1 1 2.35 13.2037 5.76625 7.52927
319 1 1 2.35 10.9078 10.5416 0.0387053
320 1 1 2.35 4.77591 3.71974 6.32665
321 1 1 2.35 1.98182 12.437 2.63776
322 1 1 2.35 10.6325 12.7075 1.64561
323 1 1 2.35 4.79456 1.94815 2.17406
324 1 1 2.35 9.72961 2.74576 3.42981
325 1 1 2.35 2.90883 3.6776 12.4831
326 1 1 2.35 12.0824 13.1064 1.01491
327 1 1 2.35 9.08491 1.61762 7.16552
328 1 1 2.35 13.2531 7.01732 0.173292
329 1 1 2.35 10.1449 2.59195 8.48985
330 1 1 2.35 9.59589 0.549495 6.00554
331 1 1 2.35 3.98979 3.76824 4.7511
332 1 1 2.35 11.883 2.90876 9.49826
333 1 1 2.35 12.2092 1.17556 5.28215
334 1 1 2.35 5.57638 5.45057 13.1699
335 1 1 2.35 8.84553 13.3242 4.59626
336 1 1 2.35 2.22659 1.13026 9.29434
337 1 1 2.35 11.5244 2.05484 9.4285
338 1 1 2.35 8.75451 3.35335 9.77869
339 1 1 2.35 7.98207 5.00814 1.2646
340 1 1 2.35 12.8458 2.04415 0.365087
341 1 1 2.35 9.69133 0.722602 10.0648
342 1 1 2.35 5.92548 0.0533435 4.81696
343 1 1 2.35 6.81262 4.09133 9.79714
344 1 1 2.35 4.26805 8.7013 5.21886
345 1 1 2.35 8.61377 8.26261 5.17517
346 1 1 2.35 2.10728 5.7966 4.78813
347 1 1 2.35 0.837567 11.8106 12.352
348 1 1 2.35 1.99679 3.75095 0.0890914
349 1 1 2.35 8.80051 6.86728 6.28365
350 1 1 2.35 7.67295 7.10446 12.912
351 1 1 2.35 1.67705 8.78305 11.4488
352 1 1 2.35 7.2813 12.4187 8.02205
353 1 1 2.35 6.86218 6.40326 2.44021
354 1 1 2.35 1.87589 2.94026 4.81451
355 1 1 2.35 0.826828 6.53913 2.41469
356 1 1 2.35 12.5751 12.3827 2.95449
357 1 1 2.35 4.80518 12.5369 3.6489
358 1 1 2.35 4.29408 12.938 10.6223
359 1 1 2.35 6.10141 10.1264 9.20324
360 1 1 2.35 0.494826 4.31675 7.1144
361 1 1 2.35 4.73063 2.35714 8.59559
362 1 1 2.35 0.358751 2.18028 9.95756
363 1 1 2.35 11.6002 12.9641 1.39682
364 1 1 2.35 4.57902 7.36712 1.41839
365 1 1 2.35 2.96998 9.25186 13.5254
366 1 1 2.35 5.09365 10.0085 8.42391
367 1 1 2.35 12.1652 12.0525 0.214837
368 1 1 2.35 4.74599 4.70908 8.27327
369 1 1 2.35 1.08762 3.63005 3.99676
370 1 1 2.35 12.2725 10.7222 6.1614
371 1 1 2.35 9.2633 1.07519 3.80742
372 1 1 2.35 0.598442 5.4608 4.51624
373 1 1 2.35 5.14842 2.84229 11.7034
374 1 1 2.35 0.136191 8.3192 12.1155
375 1 1 2.35 0.612366 9.34624 8.71907
376 1 1 2.35 2.1673 9.95759 2.245
377 1 1 2.35 6.80973 5.87995 4.60339
378 1 1 2.35 5.84742 8.93845 12.6973
379 1 1 2.35 6.02772 5.3282 0.41979
380 1 1 2.35 6.57489 4.41916 0.884606
381 1 1 2.35 10.6861 3.62037 8.34567
382 1 1 2.35 9.2759 0.411126 6.75685
383 1 1 2.35 0.885616 5.1134 1.23403
384 1 1 2.35 5.75392 10.508 12.0711
385 1 1 2.35 0.599518 10.5389 0.202171
386 1 1 2.35 0.515113 5.10355 4.25055
387 1 1 2.35 1.46983 5.27211 11.5997
388 1 1 2.35 13.5207 1.46941 10.585
389 1 1 2.35 2.55092 9.16742 9.8843
390 1 1 2.35 4.87931 3.98114 8.29071
391 1 1 2.35 7.51953 13.4472 1.91171
392 1 1 2.35 1.22809 6.64863 3.49989
393 1 1 2.35 4.49337 5.39492 7.70171
394 1 1 2.35 9.87083 9.88492 7.46282
395 1 1 2.35 1.31038 0.811855 7.20628
396 1 1 2.35 13.2184 1.73038 3.36845
397 1 1 2.35 6.84742 13.5497 1.43926
398 1 1 2.35 7.23762 10.6337 3.96462
399 1 1 2.35 13.3955 5.36438 3.79517
400 1 1 2.35 6.68549 8.25847 5.44256
401 1 1 2.35 10.1742 1.71362 1.78715
402 1 1 2.35 4.30576 7.52518 5.37981
403 1 1 2.35 5.44642 12.5587 6.08963
404 1 1 2.35 10.8877 11.2837 11.5761
405 1 1 2.35 13.2254 5.52864 1.49151
406 1 1 2.35 7.41359 0.467706 0.0317269
407 1 1 2.35 1.64151 10.9339 2.47402
408 1 1 2.35 1.31422 4.63599 3.81219
409 1 1 2.35 2.99584 4.29128 10.3729
410 1 1 2.35 9.97569 1.37597 3.81593
411 1 1 2.35 4.00021 5.61644 12.8632
412 1 1 2.35 4.38815 12.0299 12.7868
413 1 1 2.35 2.53045 6.73475 9.19936
414 1 1 2.35 2.70112 8.83859 10.5196
415 1 1 2.35 7.30289 9.89947 11.4386
416 1 1 2.35 9.09514 10.3659 6.09729
417 1 1 2.35 1.45527 13.4061 7.53881
418 1 1 2.35 8.02728 1.71049 10.6472
419 1 1 2.35 2.3982 13.1828 11.5541
420 1 1 2.35 3.98842 2.19485 7.79397
421 1 1 2.35 0.720636 6.42185 10.7494
422 1 1 2.35 8.55781 4.01879 7.00016
423 1 1 2.35 13.1408 12.5888 1.90414
424 1 1 2.35 1.98941 3.76665 4.8537
425 1 1 2.35 6.89732 7.4614 12.915
426 1 1 2.35 2.49725 11.1173 6.21616
427 1 1 2.35 6.95471 2.04047 0.0552186
428 1 1 2.35 0.0136247 8.57167 8.73253
429 1 1 2.35 8.29781 4.02648 9.07338
430 1 1 2.35 7.84999 2.5233 12.3612
431 1 1 2.35 3.73019 5.29871 7.89024
432 1 1 2.35 1.00917 2.16157 2.68058
433 1 1 2.35 8.75087 11.7694 12.8694
434 1 1 2.35 12.5676 2.54922 1.15417
435 1 1 2.35 10.7347 8.86366 13.4368
436 1 1 2.35 6.5731 3.88787 9.43303
437 1 1 2.35 3.67055 9.00176 7.31997
438 1 1 2.35 5.22873 3.42019 7.21498
439 1 1 2.35 11.0888 11.8072 10.6477
440 1 1 2.35 9.17624 10.9395 5.83403
441 1 1 2.35 5.87788 12.8933 3.87331
442 1 1 2.35 1.49957 6.58542 4.34363
443 1 1 2.35 1.51755 12.7574 0.545493
444 1 1 2.35 8.88226 7.47112 0.934657
445 1 1 2.35 4.54166 9.21107 3.32189
446 1 1 2.35 3.3536 6.16052 4.55606
447 1 1 2.35 0.767755 8.79355 6.40499
448 1 1 2.35 5.2768 10.8453 13.2605
449 1 1 2.35 3.53051 13.5588 11.4259
450 1 1 2.35 3.31564 3.42248 1.79191
451 1 1 2.35 7.57295 3.87859 1.08148
452 1 1 2.35 2.86474 9.05306 0.263463
453 1 1 2.35 4.88472 10.1068 4.80964
454 1 1 2.35 3.5893 0.529072 3.10614
455 1 1 2.35 1.87203 2.37454 10.593
456 1 1 2.35 8.09468 0.57035 6.22138
457 1 1 2.35 10.3685 12.1641 7.97107
458 1 1 2.35 4.00796 0.771854 10.2923
459 1 1 2.35 12.4857 4.87944 6.03111
460 1 1 2.35 2.16686 6.97637 0.133314
461 1 1 2.35 10.1109 8.19592 9.91639
462 1 1 2.35 10.6935 4.43132 7.79892
463 1 1 2.35 6.35701 3.69646 6.58056
464 1 1 2.35 10.002 8.33489 11.7738
465 1 1 2.35 4.78194 10.0381 11.645
466 1 1 2.35 3.16858 1.58339 6.65105
467 1 1 2.35 1.54545 8.62358 13.2718
468 1 1 2.35 11.579 10.1252 10.3617
469 1 1 2.35 2.68134 2.83923 10.8855
470 1 1 2.35 3.34489 4.90965 10.4304
471 1 1 2.35 3.93935 12.9349 9.20077
472 1 1 2.35 11.0787 5.77966 4.6375
473 1 1 2.35 10.4662 8.13559 7.42501
474 1 1 2.35 1.44998 8.02883 9.47318
475 1 1 2.35 5.58528 3.92796 5.01252
476 1 1 2.35 6.90468 2.32926 11.8566
477 1 1 2.35 4.95827 7.11688 8.4552
478 1 1 2.35 3.52078 10.3829 1.38153
479 1 1 2.35 7.54072 7.6527 3.20431
480 1 1 2.35 3.23249 11.5419 7.82569
481 1 1 2.35 1.87258 4.56872 1.70218
482 1 1 2.35 13.2261 0.455511 0.886058
483 1 1 2.35 7.23921 9.86881 3.86107
484 1 1 2.35 9.90952 5.90085 4.61268
485 1 1 2.35 3.43659 4.90112 1.01994
486 1 1 2.35 3.92685 10.7268 8.13791
487 1 1 2.35 4.80381 2.73011 10.0333
488 1 1 2.35 6.05779 4.77341 6.35423
489 1 1 2.35 4.06488 0.659336 2.92584
490 1 1 2.35 1.77272 11.3628 6.35461
491 1 1 2.35 3.22062 8.4728 12.5007
492 1 1 2.35 2.70789 4.19346 11.7363
493 1 1 2.35 9.97742 8.1208 9.85771
494 1 1 2.35 7.64969 4.12677 1.03983
495 1 1 2.35 6.60102 8.80895 0.261939
496 1 1 2.35 6.52462 12.1066 0.0531988
497 1 1 2.35 6.10685 6.98524 7.82013
498 1 1 2.35 3.81207 12.5438 4.46842
499 1 1 2.35 7.32538 3.04799 10.2604
500 1 1 2.35 12.5573 8.00989 5.55826
501 1 1 2.35 4.73615 2.38913 4.58553
502 1 1 2.35 9.04664 9.09166 8.77108
503 1 1 2.35 7.73093 5.9506 0.737347
504 1 1 2.35 2.88986 0.96638 12.505
505 1 1 2.35 4.55205 3.50071 11.8463
506 1 1 2.35 4.93388 11.0857 0.935638
507 1 1 2.35 7.53194 2.43943 3.14945
508 1 1 2.35 0.47973 1.82602 5.97595
509 1 1 2.35 5.1514 5.4899 6.57244
510 1 1 2.35 9.98195 10.002 10.0995
511 1 1 2.35 4.9499 0.0144962 5.25869
512 1 1 2.35 7.39655 10.0089 4.14107
513 1 1 2.35 7.19894 2.9648 2.82174
514 1 1 2.35 5.51883 9.26025 1.0122
515 1 1 2.35 0.201826 9.92095 3.03525
516 1 1 2.35 4.11323 9.57872 2.90439
517 1 1 2.35 12.8279 4.24086 4.11853
518 1 1 2.35 2.55846 7.97064 8.22332
519 1 1 2.35 3.50319 6.81292 9.13049
520 1 1 2.35 1.64977 1.46754 0.68891
521 1 1 2.35 10.789 5.59901 5.42675
522 1 1 2.35 3.39601 11.1204 11.6591
523 1 1 2.35 12.8897 8.91495 4.72782
524 1 1 2.35 13.4001 2.39835 5.76617
525 1 1 2.35 11.7866 9.28742 13.0665
526 1 1 2.35 8.66753 12.7873 8.50899
527 1 1 2.35 10.4783 11.2866 1.57867
528 1 1 2.35 1.17331 0.970843 13.3957
529 1 1 2.35 12.8229 0.398119 0.364502
530 1 1 2.35 11.4069 5.07004 11.1771
531 1 1 2.35 9.39697 9.04637 11.16
532 1 1 2.35 5.32586 8.71489 4.32469
533 1 1 2.35 5.8223 6.58681 11.3862
534 1 1 2.35 2.35606 11.2601 9.94687
535 1 1 2.35 9.89316 12.8639 12.4203
536 1 1 2.35 1.75718 12.2302 3.43001
537 1 1 2.35 2.14335 10.7241 7.49827
538 1 1 2.35 7.76321 9.19459 2.13479
539 1 1 2.35 2.57283 7.65382 2.67885
540 1 1 2.35 2.49285 5.6538 8.6428
541 1 1 2.35 3.54256 11.0186 12.04
542 1 1 2.35 10.5122 13.2177 11.768
543 1 1 2.35 0.402883 5.69776 8.22952
544 1 1 2.35 9.91292 1.71389 9.07981
545 1 1 2.35 1.99617 6.04923 1.83988
546 1 1 2.35 1.47586 0.558963 11.8643
547 1 1 2.35 9.25213 5.70025 7.08871
548 1 1 2.35 10.5694 1.07274 7.47675
549 1 1 2.35 12.3644 12.6029 7.93769
550 1 1 2.35 13.2188 11.1803 1.5385
551 1 1 2.35 6.35647 2.35713 1.1727
552 1 1 2.35 3.80516 5.48478 13.3475
553 1 1 2.35 10.5783 4.52274 11.4198
554 1 1 2.35 2.67838 13.3777 4.13624
555 1 1 2.35 12.8848 4.70675 4.68837
556 1 1 2.35 8.91127 13.1106 11.4369
557 1 1 2.35 9.60244 10.6607 0.663711
558 1 1 2.35 3.71237 2.24933 9.88518
559 1 1 2.35 3.57405 12.1832 7.80856
560 1 1 2.35 6.30383 2.94471 9.01256
561 1 1 2.35 8.3243 9.56857 12.0911
562 1 1 2.35 11.8787 3.61163 0.809115
563 1 1 2.35 9.19535 5.22293 8.34926
564 1 1 2.35 7.77585 4.39962 0.198835
565 1 1 2.35 8.96199 5.08222 7.13288
566 1 1 2.35 6.78281 1.61847 11.0479
567 1 1 2.35 11.0566 4.6601 4.80055
568 1 1 2.35 7.08453 2.79404 10.6073
569 1 1 2.35 10.697 6.77119 11.9408
570 1 1 2.35 11.5853 8.16963 3.06835
571 1 1 2.35 3.8831 1.07878 3.50263
572 1 1 2.35 4.21756 3.57738 1.163
573 1 1 2.35 0.488159 0.845488 5.23082
574 1 1 2.35 9.06299 8.37102 3.80871
575 1 1 2.35 8.89552 0.854655 1.78681
576 1 1 2.35 4.2084 10.8522 7.5146
577 1 1 2.35 3.96474 8.10417 2.35134
578 1 1 2.35 2.3745 12.0041 0.319022
579 1 1 2.35 1.03828 8.93891 11.8057
580 1 1 2.35 3.23229 6.22735 7.99284
581 1 1 2.35 2.25194 0.19748 7.26561
582 1 1 2.35 2.23689 12.1375 10.8669
583 1 1 2.35 3.29788 11.5485 1.938
584 1 1 2.35 10.6541 5.78103 5.39653
585 1 1 2.35 0.434213 4.71377 8.63704
586 1 1 2.35 13.3695 5.59498 10.7487
587 1 1 2.35 2.0519 2.94177 1.33691
588 1 1 2.35 0.287983 0.591596 12.0165
589 1 1 2.35 1.31255 9.70878 8.9569
590 1 1 2.35 3.28475 10.0421 8.65987
591 1 1 2.35 4.49491 3.09996 10.3105
592 1 1 2.35 11.401 11.8562 10.0787
593 1 1 2.35 6.87372 7.97403 6.62536
594 1 1 2.35 0.130098 10.2064 5.87804
595 1 1 2.35 10.3947 10.6287 4.64339
596 1 1 2.35 9.80253 10.4336 3.31269
597 1 1 2.35 4.48036 11.0784 7.24334
598 1 1 2.35 8.04002 12.3605 3.82517
599 1 1 2.35 10.823 12.7936 8.98436
600 1 1 2.35 13.3792 6.14148 13.4785
601 1 1 2.35 3.9308 5.91834 2.70765
602 1 1 2.35 13.2563 5.64227 9.59948
603 1 1 2.35 2.95313 8.29509 11.3201
604 1 1 2.35 4.38725 1.87248 11.6413
605 1 1 2.35 7.59047 3.24407 10.6665
606 1 1 2.35 13.4136 7.11903 4.23257
607 1 1 2.35 9.25214 9.14592 8.6376
608 1 1 2.35 7.06542 11.7654 11.6648
609 1 1 2.35 2.53726 12.3679 13.3762
610 1 1 2.35 1.58524 6.91099 9.43974
611 1 1 2.35 0.402471 9.00544 9.8963
612 1 1 2.35 6.96764 12.4323 2.45125
613 1 1 2.35 3.23636 6.06871 4.8156
614 1 1 2.35 3.55615 12.1265 10.0223
615 1 1 2.35 2.91431 10.8466 8.85327
616 1 1 2.35 1.42786 7.57625 1.25858
617 1 1 2.35 5.84991 4.26289 3.1231
618 1 1 2.35 11.581 7.51957 8.39612
619 1 1 2.35 10.8242 4.64278 3.06261
620 1 1 2.35 1.83249 10.2865 11.2097
621 1 1 2.35 1.48984 4.59662 3.35826
622 1 1 2.35 4.24709 9.33757 8.75707
623 1 1 2.35 13.2189 7.82847 4.31621
624 1 1 2.35 0.507732 6.93932 1.39883
625 1 1 2.35 2.46082 2.15733 10.1091
626 1 1 2.35 2.24892 4.38302 1.04748
627 1 1 2.35 11.3527 5.21111 0.964058
628 1 1 2.35 11.7177 4.56421 11.0377
629 1 1 2.35 6.7802 3.39343 3.19141
630 1 1 2.35 2.10702 3.3222 1.1254
631 1 1 2.35 10.3926 1.98693 13.5055
632 1 1 2.35 7.35891 12.2903 12.4324
633 1 1 2.35 10.7167 0.887027 1.19632
634 1 1 2.35 9.82685 11.8135 10.1565
635 1 1 2.35 9.42837 1.91804 0.371335
636 1 1 2.35 9.53644 2.641 1.43974
637 1 1 2.35 11.3978 11.9125 8.16561
638 1 1 2.35 6.52043 13.2509 5.22258
639 1 1 2.35 7.62363 7.3843 12.1752
640 1 1 2.35 3.59951 4.83794 6.68757
641 1 1 2.35 8.55413 8.90534 5.10629
642 1 1 2.35 11.8263 5.20089 0.931056
643 1 1 2.35 11.93 4.33611 9.23021
644 1 1 2.35 6.77925 3.71853 9.39215
645 1 1 2.35 0.337814 10.3907 5.98446
646 1 1 2.35 9.43547 9.68173 13.0441
647 1 1 2.35 7.89697 6.27888 12.6537
648 1 1 2.35 7.10603 8.71066 13.0078
649 1 1 2.35 6.02079 6.57138 12.0516
650 1 1 2.35 2.064 1.79541 8.93461
651 1 1 2.35 13.3515 6.5545 7.43768
652 1 1 2.35 4.77339 4.18461 6.8367
653 1 1 2.35 3.53828 5.46756 12.7939
654 1 1 2.35 2.54653 9.88354 9.53745
655 1 1 2.35 10.1424 13.0616 9.28759
656 1 1 2.35 1.94298 12.0043 13.3772
657 1 1 2.35 9.46645 1.52004 8.11339
658 1 1 2.35 9.73791 9.8135 7.00156
659 1 1 2.35 0.362749 10.4423 3.84561
660 1 1 2.35 0.590185 0.856509 7.69053
661 1 1 2.35 2.33364 5.86225 9.0907
662 1 1 2.35 3.71556 10.1708 4.42878
663 1 1 2.35 6.27927 12.9225 3.03163
664 1 1 2.35 5.356 5.43957 6.30538
665 1 1 2.35 9.5611 10.4928 3.16014
666 1 1 2.35 6.18458 11.275 10.2097
667 1 1 2.35 8.43419 4.95921 9.3755
668 1 1 2.35 6.23382 2.99728 3.52664
669 1 1 2.35 7.28234 10.5732 2.22691
670 1 1 2.35 6.48676 12.2444 8.09556
671 1 1 2.35 6.27319 9.51925 1.46709
672 1 1 2.35 2.15821 2.77092 4.64528
673 1 1 2.35 5.4907 8.93784 13.0844
674 1 1 2.35 3.95857 9.09279 12.844
675 1 1 2.35 3.03242 3.6026 11.4405
676 1 1 2.35 2.26299 0.687283 3.40469
677 1 1 2.35 3.06672 7.81858 3.58221
678 1 1 2.35 11.8774 8.49317 10.1196
679 1 1 2.35 13.2795 12.6576 3.95742
680 1 1 2.35 4.91595 12.6207 1.23643
681 1 1 2.35 3.40725 1.49076 9.93748
682 1 1 2.35 0.0965692 2.46529 11.1879
683 1 1 2.35 2.89046 7.01488 0.441196
684 1 1 2.35 13.2183 11.196 2.12774
685 1 1 2.35 13.1042 9.85838 2.13722
686 1 1 2.35 10.9365 7.87843 10.4324
687 1 1 2.35 4.84396 9.65128 12.1688
688 1 1 2.35 1.21776 6.08573 5.4171
689 1 1 2.35 3.56079 3.93603 0.635698
690 1 1 2.35 4.3177 8.5423 7.01859
691 1 1 2.35 0.409165 10.451 11.277
692 1 1 2.35 4.29243 12.423 0.265065
693 1 1 2.35 11.902 6.63354 13.1899
694 1 1 2.35 5.42865 8.39219 9.02035
695 1 1 2.35 11.0467 7.50626 1.53518
696 1 1 2.35 11.1418 4.05939 9.31547
697 1 1 2.35 0.237467 9.47078 7.71924
698 1 1 2.35 6.41094 9.2879 6.08133
699 1 1 2.35 3.50097 9.60898 0.529129
700 1 1 2.35 11.7592 8.15459 3.73529
701 1 1 2.35 9.53456 7.82086 2.00586
702 1 1 2.35 3.76631 1.79873 9.28922
703 1 1 2.35 3.74867 4.00452 12.9793
704 1 1 2.35 9.54503 2.50632 8.01757
705 1 1 2.35 11.2223 9.25033 7.48004
706 1 1 2.35 6.71442 10.8018 5.75779
707 1 1 2.35 4.65632 6.1404 7.03015
708 1 1 2.35 1.46736 2.04185 1.92285
709 1 1 2.35 10.4279 0.849351 0.395926
710 1 1 2.35 5.64028 5.71011 3.83773
711 1 1 2.35 0.635503 0.15753 12.6298
712 1 1 2.35 12.9145 2.20669 9.66715
713 1 1 2.35 8.23519 10.1974 8.19734
714 1 1 2.35 13.4517 3.66805 8.35344
715 1 1 2.35 10.295 8.56773 2.93856
716 1 1 2.35 1.2048 2.53062 10.7294
717 1 1 2.35 4.33303 8.91945 1.87703
718 1 1 2.35 12.4413 3.89457 8.81532
719 1 1 2.35 3.93661 9.92119 10.5907
720 1 1 2.35 0.168488 11.0225 0.728524
721 1 1 2.35 9.20039 4.79561 10.8586
722 1 1 2.35 5.55271 13.0249 12.1601
723 1 1 2.35 4.02922 9.11117 9.62705
724 1 1 2.35 8.79537 0.580423 9.76451
725 1 1 2.35 2.95854 2.85694 3.32095
726 1 1 2.35 7.17454 2.59187 7.24638
727 1 1 2.35 6.10257 3.29037 12.921
728 1 1 2.35 12.4557 3.27927 5.05223
729 1 1 2.35 9.88101 5.55637 1.8747
730 1 1 2.35 8.35864 4.54112 8.1103
731 1 1 2.35 12.1231 0.493469 13.3514
732 1 1 2.35 2.1234 4.34114 6.68218
733 1 1 2.35 9.38444 11.8623 0.425082
734 1 1 2.35 10.3198 10.8596 5.87256
735 1 1 2.35 1.86405 5.11353 9.09709
736 1 1 2.35 4.11336 4.19019 11.5443
737 1 1 2.35 6.38725 2.29901 2.51451
738 1 1 2.35 3.19706 6.68665 11.9451
739 1 1 2.35 5.80124 1.0159 8.17615
740 1 1 2.35 11.7881 2.94031 9.30516
741 1 1 2.35 9.63479 2.57711 3.4302
742 1 1 2.35 4.87916 8.71408 0.193463
743 1 1 2.35 8.62343 7.06651 4.71808
744 1 1 2.35 6.17075 3.86596 12.0243
745 1 1 2.35 8.71693 6.50312 13.3074
746 1 1 2.35 4.33992 8.66444 9.53264
747 1 1 2.35 0.399524 0.346264 10.5672
748 1 1 2.35 6.10018 11.2971 8.95262
749 1 1 2.35 3.83222 10.0443 4.11215
750 1 1 2.35 1.94236 1.34925 13.1431
751 1 1 2.35 0.939497 7.70186 12.3626
752 1 1 2.35 2.42696 1.26463 0.186512
753 1 1 2.35 6.54053 1.96098 12.6322
754 1 1 2.35 1.8556 0.725777 11.4234
755 1 1 2.35 7.21965 2.64194 13.1856
756 1 1 2.35 7.43146 7.87517 0.825699
757 1 1 2.35 13.4621 6.58936 13.2581
758 1 1 2.35 4.50275 12.3599 5.11355
759 1 1 2.35 11.0626 6.78996 1.37427
760 1 1 2.35 7.2014 4.61958 4.056
761 1 1 2.35 3.56504 11.5389 1.8661
762 1 1 2.35 12.7879 1.42567 1.11525
763 1 1 2.35 12.8961 13.0177 3.31239
764 1 1 2.35 9.95375 9.08704 3.17573
765 1 1 2.35 12.9418 2.09729 1.72115
766 1 1 2.35 9.58294 4.41846 6.16412
767 1 1 2.35 5.38428 7.12659 0.3386
768 1 1 2.35 13.206 13.4327 10.3024
769 1 1 2.35 10.2123 3.31154 4.91785
770 1 1 2.35 11.6606 8.81297 6.2865
771 1 1 2.35 7.91253 6.67291 6.64109
772 1 1 2.35 1.0137 2.7091 10.1422
773 1 1 2.35 10.5711 3.66007 8.45906
774 1 1 2.35 7.97269 1.5407 3.29667
775 1 1 2.35 10.318 1.50975 11.8375
776 1 1 2.35 1.52943 8.55544 6.64344
777 1 1 2.35 12.2226 10.6738 2.13593
778 1 1 2.35 12.9927 10.5842 1.41459
779 1 1 2.35 7.49909 8.23625 5.19228
780 1 1 2.35 3.43747 11.4313 8.60142
781 1 1 2.35 0.596394 2.36759 6.67618
782 1 1 2.35 9.8523 2.17008 3.61254
783 1 1 2.35 0.785218 9.61419 11.9844
784 1 1 2.35 2.02684 3.32197 3.72673
785 1 1 2.35 10.9076 10.0407 6.53339
786 1 1 2.35 8.0114 4.73768 6.16762
787 1 1 2.35 5.42308 11.9536 2.48847
788 1 1 2.35 10.3553 7.16746 10.7668
789 1 1 2.35 10.9163 2.26546 1.85778
790 1 1 2.35 7.87127 1.12314 2.33653
791 1 1 2.35 6.54245 6.19463 12.2895
792 1 1 2.35 6.8862 2.79338 6.28805
793 1 1 2.35 6.69771 8.72223 4.80952
794 1 1 2.35 13.2389 0.0714091 2.01977
795 1 1 2.35 10.1212 9.21471 5.36472
796 1 1 2.35 2.37894 9.39216 7.08359
797 1 1 2.35 3.69722 3.77358 11.0449
798 1 1 2.35 1.98609 5.33762 3.35692
799 1 1 2.35 13.4679 2.64112 6.58822
800 1 1 2.35 1.54676 8.45476 12.9657
801 1 1 2.35 6.235 5.36871 2.88241
802 1 1 2.35 4.09758 10.9158 11.8547
803 1 1 2.35 11.4746 12.298 10.9053
804 1 1 2.35 0.142266 7.75199 9.97662
805 1 1 2.35 8.5469 6.50649 3.30568
806 1 1 2.35 2.51746 7.15813 8.64901
807 1 1 2.35 3.97747 5.6352 7.32695
808 1 1 2.35 2.07685 8.24362 3.89976
809 1 1 2.35 9.66409 4.42232 13.414
810 1 1 2.35 2.26738 13.2765 10.8117
811 1 1 2.35 8.87745 6.15005 3.81365
812 1 1 2.35 2.30992 8.63155 11.3631