ITEM: TIMESTEP
40000
ITEM: NUMBER OF ATOMS
1000
ITEM: BOX BOUNDS xy xz yz pp pp pp
0.0000000000000000e+00 1.3572088000000001e+01 0.0000000000000000e+00
0.0000000000000000e+00 1.3572088000000001e+01 0.0000000000000000e+00
0.0000000000000000e+00 1.3572088000000001e+01 0.0000000000000000e+00
ITEM: ATOMS id x y z radius
1 4.23648 3.67335 12.8249 0.5
2 4.91858 10.4986 3.20973 0.5
3 9.03733 9.50765 2.37768 0.5
4 10.6748 6.58744 1.82842 0.5
5 7.72362 7.81765 10.1614 0.5
6 4.45554 12.9016 5.50454 0.5
7 3.28367 8.19249 0.455763 0.5
8 13.4238 12.2933 1.26794 0.5
9 1.71645 7.53447 6.24081 0.5
10 2.6537 12.2169 11.161 0.5
11 0.401785 9.81477 8.44585 0.5
12 11.6728 6.39829 1.31348 0.5
13 9.92448 11.7026 6.53923 0.5
14 11.5225 2.91566 4.10743 0.5
15 5.34106 1.61711 4.35044 0.5
16 8.08728 6.64621 8.86919 0.5
17 7.46787 11.9891 10.0676 0.5
18 2.49989 8.3207 6.35208 0.5
19 9.29096 5.4444 1.74071 0.5
20 10.5422 11.322 3.8032 0.5
21 1.85252 5.24155 0.364908 0.5
22 1.33519 6.84637 11.3447 0.5
23 1.62082 1.47995 9.91533 0.5
24 7.41072 6.48721 2.44797 0.5
25 1.45928 6.48051 2.08891 0.5
26 10.6659 9.70833 5.98567 0.5
27 11.5417 6.54626 12.7196 0.5
28 5.3243 10.9337 10.9141 0.5
29 1.00042 6.68893 1.17581 0.5
30 8.41484 10.7131 1.83961 0.5
31 0.282231 13.1864 8.79954 0.5
32 10.0617 2.8563 0.41748 0.5
33 12.6041 6.55259 10.0736 0.5
34 2.94352 9.30767 6.38878 0.5
35 12.3989 6.65653 13.3007 0.5
36 10.7629 13.5708 5.37218 0.5
37 12.7361 0.68106 2.82542 0.5
38 4.25403 1.36499 1.98045 0.5
39 10.2056 5.1069 1.9339 0.5
40 5.81815 6.21437 7.45553 0.5
41 8.86977 11.9273 6.5662 0.5
42 7.28848 5.98703 5.02762 0.5
43 5.39471 5.46656 10.248 0.5
44 2.98262 9.84814 8.05395 0.5
45 6.4391 6.30197 2.01037 0.5
46 11.1177 11.4576 13.1383 0.5
47 2.09817 9.09469 5.84075 0.5
48 7.83913 10.4464 1.03895 0.5
49 5.73307 11.8224 10.743 0.5
50 4.49068 2.69923 11.2463 0.5
51 12.996 10.3659 7.12606 0.5
52 6.25969 10.4767 7.36576 0.5
53 9.29876 4.45553 1.70896 0.5
54 11.557 10.9994 2.55792 0.5
55 0.788577 1.12146 7.01003 0.5
56 11.977 6.00606 3.63091 0.5
57 0.847396 11.7582 10.0145 0.5
58 4.53569 7.49208 9.81606 0.5
59 0.568582 10.5333 11.0107 0.5
60 8.63062 5.80141 9.13098 0.5
61 3.08738 12.5403 11.922 0.5
62 0.531212 9.29364 0.769203 0.5
63 12.4776 8.75412 1.69647 0.5
64 11.4311 1.6207 10.5852 0.5
65 12.878 2.17495 5.18876 0.5
66 0.382721 1.47438 1.81368 0.5
67 8.88855 2.38183 7.30013 0.5
68 4.23993 1.21248 2.95036 0.5
69 11.9777 1.3734 11.4912 0.5
70 10.8214 3.84165 11.4249 0.5
71 2.52096 6.66551 9.04738 0.5
72 8.03193 3.89603 9.7801 0.5
73 8.54237 7.21898 8.20907 0.5
74 5.54069 4.42895 9.98175 0.5
75 8.21937 1.01085 10.5306 0.5
76 12.8012 3.06299 1.0274 0.5
77 10.208 2.65566 3.28948 0.5
78 8.59791 2.1806 6.32296 0.5
79 4.23599 12.1569 6.05371 0.5
80 5.53438 2.26652 8.3701 0.5
81 1.9093 2.90595 10.8347 0.5
82 1.02707 8.54593 0.224782 0.5
83 3.30305 0.84549 7.26186 0.5
84 12.8113 9.32068 9.60261 0.5
85 0.671087 3.40178 8.13656 0.5
86 3.33795 0.433402 13.0732 0.5
87 5.47298 6.14072 5.79058 0.5
88 6.3645 5.90712 5.38685 0.5
89 11.6726 13.5352 6.78647 0.5
90 4.33682 5.10331 4.48554 0.5
91 11.2769 7.25066 11.9917 0.5
92 0.156459 0.611503 2.40354 0.5
93 1.19569 1.23563 1.11629 0.5
94 4.75181 9.88956 12.0043 0.5
95 12.4085 2.11255 8.86339 0.5
96 11.1513 2.89894 3.18258 0.5
97 12.0043 2.71403 4.96156 0.5
98 12.2489 10.6687 13.1246 0.5
99 5.98435 7.83328 8.35156 0.5
100 0.803631 6.00897 5.42701 0.5
101 4.9552 12.1543 1.18774 0.5
102 8.0361 7.71989 11.1729 0.5
103 3.66818 5.14705 10.7952 0.5
104 6.55806 10.2579 5.7051 0.5
105 11.5571 0.190965 5.82202 0.5
106 7.64923 1.13202 9.61505 0.5
107 0.185038 5.06726 9.24675 0.5
108 0.89712 11.6208 5.33073 0.5
109 0.936021 10.4687 9.04771 0.5
110 8.83518 9.19969 8.42042 0.5
111 7.80525 1.23482 3.22911 0.5
112 6.16692 1.4977 4.90477 0.5
113 0.722756 1.07277 6.0589 0.5
114 7.16277 6.47721 3.41792 0.5
115 5.14207 6.49186 12.3616 0.5
116 0.6713 5.88421 1.7816 0.5
117 0.923207 0.109193 5.90615 0.5
118 12.2797 9.22484 5.36599 0.5
119 11.6717 8.2848 1.94172 0.5
120 5.49898 8.92897 3.05741 0.5
121 12.1186 12.6037 12.0764 0.5
122 2.71195 3.08284 2.69858 0.5
123 10.8461 1.28532 11.4353 0.5
124 11.2615 11.3913 11.4963 0.5
125 4.82265 11.501 3.58424 0.5
126 11.5757 10.9171 12.4217 0.5
127 7.99622 10.6905 11.9644 0.5
128 5.51735 2.0186 7.42285 0.5
129 2.27904 7.08651 11.5492 0.5
130 1.2878 11.5082 8.6756 0.5
131 7.05428 2.20434 0.995559 0.5
132 5.20414 11.2698 1.54577 0.5
133 0.558075 10.9008 10.0339 0.5
134 11.1932 10.6002 3.51773 0.5
135 12.5139 2.8581 5.81099 0.5
136 8.12137 2.77321 3.80003 0.5
137 3.56497 12.8127 5.86045 0.5
138 7.90282 11.9341 13.3618 0.5
139 5.84601 13.4829 12.4935 0.5
140 5.61142 3.61806 3.69591 0.5
141 1.26471 3.96356 4.47093 0.5
142 9.16503 3.23959 0.436472 0.5
143 13.3766 0.659717 12.6138 0.5
144 8.28433 12.7498 6.82055 0.5
145 6.6667 7.16647 2.64201 0.5
146 10.5735 9.52349 8.70112 0.5
147 4.15658 6.50246 13.5373 0.5
148 12.4335 0.448049 11.4732 0.5
149 8.58091 6.56614 9.83333 0.5
150 12.5877 10.7863 2.30984 0.5
151 6.31916 12.171 10.0553 0.5
152 3.00093 3.64582 10.9757 0.5
153 11.8085 6.04109 8.21034 0.5
154 4.2039 3.45008 1.69105 0.5
155 2.15133 8.75487 10.7388 0.5
156 7.94982 12.2094 0.669827 0.5
157 2.22276 0.75346 4.18312 0.5
158 0.734622 8.91107 8.90929 0.5
159 3.98299 1.14476 9.78212 0.5
160 8.84711 1.25532 11.2595 0.5
161 12.7122 3.74061 10.968 0.5
162 6.87965 2.53138 7.18408 0.5
163 11.3541 9.63868 0.272442 0.5
164 8.93443 4.17721 13.2027 0.5
165 7.61924 11.4118 11.3271 0.5
166 10.6908 0.138904 6.34905 0.5
167 11.3893 6.97184 8.29052 0.5
168 2.14036 3.50392 7.40078 0.5
169 11.4716 11.947 12.259 0.5
170 3.64773 6.2041 0.790458 0.5
171 10.9753 5.66552 1.64164 0.5
172 10.3629 7.42702 10.5843 0.5
173 9.23602 10.1942 3.10756 0.5
174 4.24679 13.5766 13.143 0.5
175 2.99182 6.00116 3.33825 0.5
176 4.51323 5.29624 3.53032 0.5
177 8.98727 3.74132 5.96587 0.5
178 5.59975 2.53926 4.05116 0.5
179 0.0117789 5.86411 2.60962 0.5
180 9.35204 2.7078 13.1577 0.5
181 10.5019 12.2638 8.66793 0.5
182 2.86269 11.5553 0.467694 0.5
183 8.26855 8.66677 6.33608 0.5
184 10.0545 3.6593 10.0271 0.5
185 7.80904 1.94767 10.2697 0.5
186 3.84525 8.44805 2.16431 0.5
187 4.96334 13.0986 12.4049 0.5
188 5.53975 6.67215 6.60307 0.5
189 0.194819 11.1792 5.95184 0.5
190 7.57579 0.306562 2.61313 0.5
191 9.50833 7.70462 4.46523 0.5
192 10.3103 1.0367 0.261225 0.5
193 11.4988 0.642303 10.8916 0.5
194 8.63847 1.74311 12.0839 0.5
195 13.0834 9.14622 11.7134 0.5
196 8.73039 0.87824 3.68549 0.5
197 2.56993 6.7622 8.02377 0.5
198 6.78536 6.8003 12.3031 0.5
199 11.4989 2.32451 8.6031 0.5
200 7.10875 7.05758 1.76115 0.5
201 0.622119 4.44144 8.34497 0.5
202 6.49298 0.482081 8.16852 0.5
203 2.25843 3.10639 1.76858 0.5
204 1.12457 7.85895 8.94921 0.5
205 12.9688 12.7799 3.65449 0.5
206 1.13951 0.64534 10.2556 0.5
207 5.92348 12.7511 9.20125 0.5
208 7.97298 4.83976 7.19338 0.5
209 4.73816 3.26015 3.86967 0.5
210 4.36178 6.69858 5.04372 0.5
211 3.7814 4.13008 10.6123 0.5
212 3.5831 5.51249 3.95049 0.5
213 3.19215 1.28856 5.6132 0.5
214 9.51091 3.74585 12.4276 0.5
215 7.38346 6.15307 1.53584 0.5
216 6.3837 8.90857 0.151046 0.5
217 4.34088 11.384 4.5005 0.5
218 6.65633 8.12429 4.12093 0.5
219 7.83334 2.23481 2.99151 0.5
220 6.81025 0.999965 9.05537 0.5
221 2.34721 2.59044 6.94384 0.5
222 7.06099 11.2673 4.77277 0.5
223 3.77415 9.24337 2.73738 0.5
224 12.3459 9.53975 3.41167 0.5
225 8.38741 11.5376 10.5889 0.5
226 11.582 6.55558 0.307504 0.5
227 12.6459 8.93358 10.6574 0.5
228 4.12063 11.2992 5.51631 0.5
229 5.18523 4.52621 7.12544 0.5
230 6.23063 8.93215 8.63189 0.5
231 9.08467 6.74788 8.95473 0.5
232 7.12316 6.14699 13.0736 0.5
233 1.45107 0.598713 9.24371 0.5
234 11.0531 2.48743 4.84084 0.5
235 1.44417 11.1468 4.56187 0.5
236 10.8489 6.38019 0.938562 0.5
237 4.81823 8.63245 4.92129 0.5
238 0.902864 12.6295 5.53413 0.5
239 10.3367 7.67655 5.00517 0.5
240 2.29303 4.32127 11.4006 0.5
241 4.55016 5.69537 0.44407 0.5
242 3.58296 0.785531 2.30238 0.5
243 1.45576 9.69931 3.66538 0.5
244 3.38131 11.7974 5.85534 0.5
245 1.16652 11.2515 10.8813 0.5
246 9.65831 9.85623 8.42507 0.5
247 3.04505 13.0707 10.2375 0.5
248 6.3635 2.60388 1.70097 0.5
249 10.0989 1.90161 0.872363 0.5
250 9.45393 1.22548 0.467359 0.5
251 4.02195 10.0102 10.3583 0.5
252 9.46139 7.80167 1.3368 0.5
253 1.60174 9.17824 0.793588 0.5
254 10.5609 3.1166 2.36717 0.5
255 8.28847 9.75763 1.73963 0.5
256 2.18234 13.2733 4.06783 0.5
257 1.44713 4.11797 7.83848 0.5
258 0.213915 5.60928 6.20525 0.5
259 3.81753 4.76364 9.85115 0.5
260 6.82259 11.3359 9.61117 0.5
261 10.9486 3.90692 5.87559 0.5
262 7.43418 10.7451 5.6298 0.5
263 3.48514 4.6902 7.35741 0.5
264 10.9408 11.3246 8.34211 0.5
265 1.69037 4.62203 3.84003 0.5
266 4.16758 13.0783 6.58067 0.5
267 4.34896 8.06763 9.00273 0.5
268 6.10381 1.89712 1.09178 0.5
269 7.99319 0.0375685 7.23506 0.5
270 6.76933 10.3917 8.16747 0.5
271 11.7528 13.0652 4.93567 0.5
272 5.71817 9.20003 0.829714 0.5
273 7.4045 3.42631 4.0659 0.5
274 10.3786 3.15757 9.20104 0.5
275 2.45823 12.0619 1.30626 0.5
276 5.2371 0.731258 11.315 0.5
277 7.90962 5.57891 12.8442 0.5
278 11.2547 10.4845 13.3168 0.5
279 10.0556 11.29 5.70399 0.5
280 5.57333 11.5738 0.664982 0.5
281 7.15238 3.58179 9.62661 0.5
282 0.426363 11.5387 1.4159 0.5
283 5.35785 5.31574 1.83237 0.5
284 1.5393 11.8322 1.49432 0.5
285 2.22935 9.94158 6.24878 0.5
286 3.33184 1.43413 13.3283 0.5
287 7.62322 7.86055 6.16002 0.5
288 6.6153 0.575665 4.76727 0.5
289 1.94825 10.5142 3.97354 0.5
290 1.25425 12.8607 6.46821 0.5
291 5.99306 0.822148 5.58892 0.5
292 4.8968 2.93531 12.9927 0.5
293 11.1339 5.90899 4.26119 0.5
294 1.27177 9.51516 6.26418 0.5
295 2.85585 1.02253 6.58902 0.5
296 0.468819 4.12493 7.37847 0.5
297 11.568 12.318 11.2064 0.5
298 10.4865 3.84024 12.4965 0.5
299 2.83925 1.11393 12.623 0.5
300 8.57655 4.89356 2.21434 0.5
301 6.42376 7.29965 11.5435 0.5
302 2.90062 9.04584 3.3946 0.5
303 12.302 8.6306 2.69567 0.5
304 0.520145 6.62669 6.08787 0.5
305 6.97528 12.5112 7.76609 0.5
306 11.0668 8.61251 0.228878 0.5
307 2.46906 6.99281 3.16017 0.5
308 13.5363 10.0504 11.9133 0.5
309 12.5748 0.418634 13.1966 0.5
310 7.90408 0.232189 3.50464 0.5
311 13.4904 4.85941 6.69264 0.5
312 7.52738 10.9603 10.3124 0.5
313 0.542543 10.6347 5.18503 0.5
314 5.97995 11.1026 10.0928 0.5
315 12.795 6.16339 3.16315 0.5
316 8.45527 5.74788 7.1819 0.5
317 12.7658 9.10871 4.29777 0.5
318 12.5412 4.95695 7.00754 0.5
319 10.8438 11.2191 0.477228 0.5
320 5.39352 2.91399 6.92616 0.5
321 2.56391 13.0212 3.25565 0.5
322 9.77059 12.9416 1.34058 0.5
323 4.51597 0.357594 2.33534 0.5
324 10.4743 3.63936 3.25285 0.5
325 0.923224 4.98695 12.2636 0.5
326 10.6877 12.9391 1.03519 0.5
327 9.46005 1.40949 7.24949 0.5
328 12.2452 7.0955 12.3579 0.5
329 8.86147 2.64136 8.24243 0.5
330 9.13769 0.969144 4.65654 0.5
331 4.79147 4.11519 4.28758 0.5
332 12.2395 1.78855 9.77318 0.5
333 12.7625 1.28853 3.52162 0.5
334 4.66152 6.5564 0.804239 0.5
335 8.91212 0.0598983 3.36322 0.5
336 3.72993 0.664726 8.8283 0.5
337 11.6624 0.90859 9.88405 0.5
338 7.94021 5.02965 9.38715 0.5
339 9.48693 4.92416 2.61118 0.5
340 12.5129 3.59941 12.7846 0.5
341 9.24687 13.4231 9.85885 0.5
342 6.11569 13.3954 5.15683 0.5
343 6.87215 5.21721 9.40506 0.5
344 5.07532 8.09987 5.81677 0.5
345 7.79387 8.55897 5.44606 0.5
346 1.44089 6.44613 5.89715 0.5
347 0.184011 10.7759 0.670637 0.5
348 1.72449 4.62854 1.11467 0.5
349 8.35687 7.70267 6.78285 0.5
350 7.99329 6.94926 10.6442 0.5
351 2.34931 9.64164 11.2658 0.5
352 8.83288 13.1704 7.53637 0.5
353 8.3171 5.69712 1.68263 0.5
354 2.48078 2.89273 5.79509 0.5
355 1.4387 6.9183 2.94141 0.5
356 12.1208 13.2063 3.95275 0.5
357 5.73784 11.0717 3.31288 0.5
358 3.47366 0.173794 10.8726 0.5
359 7.18377 9.3955 8.20742 0.5
360 13.046 4.09453 7.22744 0.5
361 4.11718 1.02049 7.92399 0.5
362 0.62204 1.13219 9.54883 0.5
363 10.1375 12.0708 1.08317 0.5
364 3.98203 8.07807 1.11464 0.5
365 2.9283 8.31699 13.1071 0.5
366 6.34629 9.55069 7.79625 0.5
367 10.7233 12.1931 0.306895 0.5
368 4.84944 4.89999 9.48107 0.5
369 1.74508 3.02878 4.42437 0.5
370 12.1814 10.6662 6.7498 0.5
371 8.41005 0.627958 2.75538 0.5
372 13.3017 4.55197 3.73114 0.5
373 5.68584 3.02096 12.3398 0.5
374 0.343677 9.01764 13.2725 0.5
375 0.17164 8.9497 7.84757 0.5
376 2.44326 11.4247 4.44845 0.5
377 7.6162 6.68657 4.35286 0.5
378 6.0626 9.04617 12.8041 0.5
379 5.12457 6.20364 13.3975 0.5
380 7.19945 4.21201 12.894 0.5
381 10.57 2.75188 8.19801 0.5
382 8.72415 0.718349 7.68354 0.5
383 1.57942 5.77443 1.31364 0.5
384 5.82054 9.95631 12.4007 0.5
385 13.0874 11.4692 1.01611 0.5
386 0.751066 4.80663 4.35237 0.5
387 0.590862 6.30208 10.8992 0.5
388 0.599416 1.5083 10.4601 0.5
389 4.66749 9.22534 10.0108 0.5
390 4.63299 4.7619 10.46 0.5
391 7.0299 0.666722 1.72713 0.5
392 13.1324 5.17984 3.01411 0.5
393 3.62882 5.1203 8.23364 0.5
394 9.72541 9.10603 8.91512 0.5
395 0.754357 0.488563 8.69866 0.5
396 0.0456097 0.921634 3.29528 0.5
397 6.76232 1.22268 0.855796 0.5
398 8.79162 11.2511 4.32287 0.5
399 0.766054 4.16983 3.65288 0.5
400 7.45973 8.5556 4.60021 0.5
401 9.26643 2.24836 0.469307 0.5
402 4.364 7.65827 5.26087 0.5
403 6.48727 13.4212 7.3761 0.5
404 10.2551 11.3041 11.4271 0.5
405 13.0463 5.83214 13.3342 0.5
406 7.19581 2.62676 0.000908618 0.5
407 1.77775 11.4813 3.5845 0.5
408 2.29268 3.90153 4.26344 0.5
409 2.91981 4.52201 10.5084 0.5
410 10.8667 2.17802 3.88127 0.5
411 3.63551 5.5592 13.5272 0.5
412 5.15588 0.45779 12.3023 0.5
413 3.44398 6.86579 8.58692 0.5
414 3.01303 8.95326 11.1818 0.5
415 7.99817 9.78014 11.7323 0.5
416 9.21419 10.9237 6.43352 0.5
417 1.35377 13.3043 8.85584 0.5
418 9.24971 0.638438 10.4507 0.5
419 2.14473 12.7515 11.8871 0.5
420 4.14357 0.246211 7.27955 0.5
421 13.5876 6.7586 10.0967 0.5
422 8.47951 4.19977 6.60355 0.5
423 12.3525 13.3855 3.06086 0.5
424 2.66289 2.87641 4.76601 0.5
425 7.09339 7.54283 10.8626 0.5
426 0.664413 12.5209 7.20045 0.5
427 6.39972 2.83211 0.47561 0.5
428 13.087 8.40621 9.33456 0.5
429 9.08996 4.94549 9.50802 0.5
430 7.9255 1.63986 11.3291 0.5
431 2.73266 5.03656 7.93259 0.5
432 0.659856 1.41711 2.68859 0.5
433 7.62944 11.3201 0.513074 0.5
434 0.0611051 4.41508 0.897537 0.5
435 10.6943 9.29781 0.932457 0.5
436 6.36088 4.94619 10.1526 0.5
437 3.93364 9.16995 6.28009 0.5
438 6.04369 2.77383 7.67014 0.5
439 10.4186 12.0946 9.71273 0.5
440 10.2331 10.6417 6.43246 0.5
441 6.02393 12.8702 3.31891 0.5
442 2.08465 7.09118 5.36035 0.5
443 0.903794 12.2803 0.906235 0.5
444 8.96121 7.90924 12.9946 0.5
445 4.43608 8.71688 2.90925 0.5
446 4.38554 6.06576 4.21969 0.5
447 1.4768 8.52472 6.28756 0.5
448 5.65406 9.74733 13.4415 0.5
449 2.71657 13.21 11.2587 0.5
450 3.71582 2.92176 1.06153 0.5
451 6.73712 3.64404 13.5679 0.5
452 1.72451 8.24291 0.915203 0.5
453 4.89152 8.84752 3.79162 0.5
454 2.85822 0.403895 2.79174 0.5
455 1.29824 2.97217 10.0309 0.5
456 7.95863 12.6624 7.74567 0.5
457 11.7319 13.1349 8.63036 0.5
458 3.41742 0.312618 9.8454 0.5
459 0.0266896 2.74652 5.7402 0.5
460 13.2684 6.68602 12.8302 0.5
461 11.1133 7.91262 11.1872 0.5
462 11.5999 3.17319 7.97129 0.5
463 6.26426 3.33909 6.77691 0.5
464 11.9306 9.44518 11.1619 0.5
465 5.53304 10.035 11.3439 0.5
466 3.45551 0.1365 6.45948 0.5
467 0.828603 8.53862 1.26783 0.5
468 12.3438 8.46164 9.89551 0.5
469 0.976765 3.0853 11.0328 0.5
470 2.6934 5.28592 11.1306 0.5
471 4.08161 13.1778 10.2451 0.5
472 10.87 6.75741 4.64808 0.5
473 11.4632 6.52199 7.39752 0.5
474 1.92694 8.12101 8.42805 0.5
475 5.51466 3.87796 6.48274 0.5
476 7.32501 1.22671 10.5709 0.5
477 5.18661 7.5866 8.97219 0.5
478 2.83227 10.6055 0.522904 0.5
479 8.64894 7.36696 1.0224 0.5
480 2.63615 10.7562 7.80813 0.5
481 1.72952 3.64554 1.07301 0.5
482 10.5017 13.5728 1.79909 0.5
483 8.56785 10.9056 3.3728 0.5
484 9.86906 6.78206 4.80858 0.5
485 4.44953 5.74153 1.43429 0.5
486 3.01689 10.5332 8.70878 0.5
487 4.69313 2.46839 8.81595 0.5
488 6.24498 4.4485 7.01076 0.5
489 3.86235 0.242411 3.13846 0.5
490 1.88767 12.3687 8.70932 0.5
491 2.27347 7.94725 12.0787 0.5
492 1.66753 5.04951 11.5591 0.5
493 10.6353 8.46729 10.5173 0.5
494 8.04423 4.59813 13.291 0.5
495 6.98697 8.24589 0.527522 0.5
496 6.62964 12.9508 13.0765 0.5
497 6.31486 6.93084 7.95919 0.5
498 3.88181 12.1643 5.06189 0.5
499 7.76865 3.04578 10.2681 0.5
500 12.6331 8.70096 6.25196 0.5
501 4.71047 2.4292 4.49118 0.5
502 9.45753 10.6679 9.0015 0.5
503 8.59656 5.99218 12.3917 0.5
504 2.72156 0.798438 0.0988198 0.5
505 4.74526 3.26628 12.0052 0.5
506 3.71822 11.0583 0.631727 0.5
507 7.53278 3.33397 3.11098 0.5
508 0.421537 2.00414 6.359 0.5
509 5.25601 5.56736 6.74982 0.5
510 8.57396 11.3483 11.605 0.5
511 6.83948 0.155595 5.68821 0.5
512 7.85655 11.3347 4.02267 0.5
513 6.75861 3.24228 2.41718 0.5
514 5.95141 8.25219 0.799905 0.5
515 1.117 10.7189 3.64252 0.5
516 3.87516 9.12696 3.69972 0.5
517 0.816026 3.19802 4.05689 0.5
518 1.68915 7.15378 8.44297 0.5
519 4.42138 7.07085 8.92386 0.5
520 1.92227 1.42166 0.368122 0.5
521 11.4587 5.67432 5.17653 0.5
522 1.61998 10.464 11.266 0.5
523 12.9268 8.17481 4.12631 0.5
524 13.349 1.20375 6.53568 0.5
525 10.5504 10.2688 0.4406 0.5
526 8.83392 12.1746 7.43832 0.5
527 7.8118 11.0658 2.57032 0.5
528 1.02887 0.874252 0.0780354 0.5
529 12.7437 0.751341 0.56309 0.5
530 11.6989 3.91927 11.1918 0.5
531 11.02 8.95244 11.3424 0.5
532 6.48071 9.05836 4.15163 0.5
533 4.61924 7.00971 10.8604 0.5
534 2.20673 11.2943 11.0608 0.5
535 8.53361 12.7086 13.5594 0.5
536 2.48672 12.3108 3.9797 0.5
537 2.74144 12.1763 8.28952 0.5
538 7.47668 10.3646 1.98427 0.5
539 1.78478 7.68144 3.64467 0.5
540 2.31618 4.11625 8.21348 0.5
541 4.33466 11.0184 13.3024 0.5
542 8.13399 13.5511 13.1162 0.5
543 13.2897 5.63145 7.11218 0.5
544 8.86261 1.73694 8.01406 0.5
545 2.02153 6.1024 2.93074 0.5
546 0.600023 0.255774 12.9054 0.5
547 9.89429 5.17779 5.6726 0.5
548 11.2602 0.99677 6.42744 0.5
549 12.7174 11.351 7.34136 0.5
550 12.7309 12.5291 2.69294 0.5
551 6.04815 0.938493 1.50695 0.5
552 3.18516 6.57732 0.0266562 0.5
553 10.8659 4.07455 10.5055 0.5
554 3.46676 12.2576 6.69933 0.5
555 0.217289 3.82853 4.47228 0.5
556 7.98477 12.6218 12.6257 0.5
557 7.60926 11.3235 1.53503 0.5
558 4.66573 2.47021 10.3228 0.5
559 3.32679 11.3688 8.31824 0.5
560 7.40028 3.90771 10.6394 0.5
561 9.19929 9.46167 12.823 0.5
562 13.3312 3.64494 0.484368 0.5
563 8.87917 4.77586 7.41761 0.5
564 8.79532 5.20307 13.0479 0.5
565 9.46988 4.6548 6.51629 0.5
566 6.79364 0.541335 9.92781 0.5
567 11.8302 5.25172 4.33014 0.5
568 6.73683 1.58759 9.90743 0.5
569 10.8572 6.43001 11.9065 0.5
570 12.8149 7.90695 3.11407 0.5
571 3.37783 1.06544 3.26207 0.5
572 3.69988 3.5043 0.207188 0.5
573 0.24986 0.346684 6.54084 0.5
574 9.59907 7.99706 2.31132 0.5
575 8.05684 0.730934 1.82906 0.5
576 3.66579 10.5124 7.92942 0.5
577 2.88727 8.69103 2.49196 0.5
578 1.86206 11.9339 0.54785 0.5
579 0.453857 9.27916 12.1521 0.5
580 2.41731 5.96923 7.6512 0.5
581 0.955181 12.6031 8.22557 0.5
582 2.38797 11.7827 11.9646 0.5
583 2.26283 11.3452 1.98407 0.5
584 10.4483 5.85167 4.9616 0.5
585 13.324 4.90052 7.78541 0.5
586 13.2946 5.91752 10.5635 0.5
587 1.34814 1.69609 2.04001 0.5
588 12.9509 1.29426 13.1738 0.5
589 13.3198 9.01454 8.67885 0.5
590 3.8322 9.9483 8.7563 0.5
591 3.83781 3.09339 10.5092 0.5
592 11.3743 12.2463 10.2197 0.5
593 5.64607 9.88981 6.09139 0.5
594 13.4647 11.3969 5.03572 0.5
595 11.7264 11.0162 5.85516 0.5
596 9.9603 9.54787 2.81816 0.5
597 4.27455 11.2736 7.83941 0.5
598 7.99772 11.2561 5.06294 0.5
599 11.5583 12.1817 8.38685 0.5
600 12.4095 6.05207 12.4504 0.5
601 4.6139 5.56641 2.54314 0.5
602 12.3865 5.54797 10.0933 0.5
603 2.64152 7.97234 11.2183 0.5
604 4.87732 1.74723 11.0118 0.5
605 8.35876 3.74586 10.7115 0.5
606 12.8344 8.39575 5.18006 0.5
607 9.00429 9.78689 9.25123 0.5
608 7.87451 11.6036 12.3996 0.5
609 0.996842 12.1126 13.5436 0.5
610 1.58502 8.60798 9.33105 0.5
611 0.171576 8.16421 8.564 0.5
612 5.97879 12.4987 2.33863 0.5
613 3.73494 5.84659 4.99721 0.5
614 3.54937 12.7855 11.0549 0.5
615 2.29974 11.3625 8.54024 0.5
616 0.554039 6.67524 2.35945 0.5
617 6.65681 5.37407 4.63443 0.5
618 10.8827 6.20646 7.97269 0.5
619 11.5821 3.25223 2.23054 0.5
620 0.219351 11.5886 10.7948 0.5
621 1.6651 3.59553 3.55692 0.5
622 5.22897 8.5328 8.72862 0.5
623 12.0409 8.56761 4.66281 0.5
624 1.05317 5.96933 2.78631 0.5
625 1.58847 2.59167 11.6795 0.5
626 2.61527 4.01955 1.47169 0.5
627 11.4445 5.55596 0.652247 0.5
628 11.4761 3.65191 12.1755 0.5
629 6.66531 3.73976 3.33349 0.5
630 2.77709 3.3072 0.802405 0.5
631 9.74657 1.09467 12.997 0.5
632 7.12371 12.1526 12.8163 0.5
633 10.2553 0.968811 1.29607 0.5
634 10.2615 11.3506 9.12546 0.5
635 9.98134 1.95712 13.4474 0.5
636 9.80849 3.60442 13.3056 0.5
637 11.9867 11.2516 8.04026 0.5
638 5.70056 0.654436 4.51892 0.5
639 8.63349 7.56631 10.3581 0.5
640 2.82816 5.30939 6.95787 0.5
641 9.20146 8.42027 6.38532 0.5
642 12.3562 5.98709 0.522008 0.5
643 12.2718 2.4638 7.89212 0.5
644 7.24992 4.55007 9.93195 0.5
645 0.0440968 12.1751 5.6685 0.5
646 8.6977 8.79932 13.3394 0.5
647 7.48524 6.96895 11.5785 0.5
648 8.95832 9.43225 11.8764 0.5
649 5.39801 7.12098 11.5407 0.5
650 3.19467 1.38974 8.25497 0.5
651 12.7929 5.47421 6.20484 0.5
652 5.10351 2.86702 7.86333 0.5
653 2.72263 5.78799 0.436093 0.5
654 4.50114 10.0685 9.48181 0.5
655 10.69 13.2411 8.57502 0.5
656 1.10312 11.3083 0.69694 0.5
657 10.2917 1.02127 6.77626 0.5
658 9.66308 10.2636 5.63693 0.5
659 0.391112 11.0486 4.23926 0.5
660 0.609496 0.0396474 9.60507 0.5
661 1.97129 7.60066 9.32029 0.5
662 3.32867 11.2408 4.88766 0.5
663 5.4331 12.0069 3.15296 0.5
664 6.22163 5.94637 6.57936 0.5
665 10.1592 10.3413 3.39507 0.5
666 6.78639 11.6183 10.6222 0.5
667 9.82008 4.04703 9.20671 0.5
668 6.07258 2.84197 3.21904 0.5
669 8.35894 10.186 2.65563 0.5
670 7.27425 12.9149 6.99689 0.5
671 6.64249 8.90257 1.07811 0.5
672 3.29988 2.31843 5.52422 0.5
673 5.41441 8.73483 13.5421 0.5
674 3.20993 8.40421 12.0046 0.5
675 1.67415 3.54022 11.7776 0.5
676 2.01378 0.32901 3.31629 0.5
677 2.66819 8.07164 3.27687 0.5
678 11.6634 8.59928 10.6292 0.5
679 12.7878 13.221 4.63671 0.5
680 4.59156 11.3177 0.736552 0.5
681 3.22477 1.38758 9.29064 0.5
682 0.696256 2.1298 11.3584 0.5
683 2.10257 6.03342 11.5128 0.5
684 12.0296 12.3513 3.34914 0.5
685 12.2092 10.6599 3.28559 0.5
686 10.3834 7.3176 11.6256 0.5
687 5.08874 9.28821 12.7319 0.5
688 1.10019 7.32142 5.53195 0.5
689 3.57241 3.90214 1.12442 0.5
690 4.48699 8.44111 6.60174 0.5
691 13.2663 10.5051 12.8285 0.5
692 5.19898 0.16534 13.2273 0.5
693 11.5292 5.61269 12.3074 0.5
694 5.94439 8.07815 9.28999 0.5
695 12.5137 7.82967 2.12308 0.5
696 11.2222 3.27678 8.85958 0.5
697 13.0928 9.75261 7.88579 0.5
698 6.40551 9.73448 6.7173 0.5
699 2.48182 8.76107 0.410388 0.5
700 12.1558 8.49732 3.64608 0.5
701 9.04662 8.08698 0.358112 0.5
702 4.06284 1.62465 8.76359 0.5
703 1.78914 4.41775 12.2858 0.5
704 9.72134 2.18624 7.9415 0.5
705 10.3505 8.66012 8.12628 0.5
706 6.58513 11.2411 5.79433 0.5
707 4.37505 5.24211 7.40679 0.5
708 1.02204 0.738047 2.02747 0.5
709 10.0771 0.0873828 0.800297 0.5
710 6.66885 6.35708 4.38244 0.5
711 0.0447639 0.701507 0.0541797 0.5
712 12.2765 1.141 10.5676 0.5
713 8.73136 10.2892 8.50059 0.5
714 13.3376 3.85363 8.09938 0.5
715 13.0232 8.87053 3.34456 0.5
716 0.419831 2.49073 10.3986 0.5
717 3.14042 8.47031 1.46956 0.5
718 12.0156 1.53331 8.09145 0.5
719 4.48502 10.4264 11.1639 0.5
720 12.9795 11.6819 1.98728 0.5
721 10.0463 4.59131 9.97664 0.5
722 5.38308 13.327 11.6502 0.5
723 4.46544 9.11054 9.08008 0.5
724 8.60702 0.604572 9.75528 0.5
725 2.71319 1.96821 6.23609 0.5
726 7.8991 2.33082 6.97693 0.5
727 5.72802 3.29499 13.2977 0.5
728 12.9358 3.20538 4.88798 0.5
729 10.0247 5.97989 1.45432 0.5
730 8.64659 5.17992 6.48608 0.5
731 10.9788 0.428488 0.86064 0.5
732 2.42207 3.61766 6.5027 0.5
733 8.40894 11.3215 1.06456 0.5
734 10.8732 11.4475 6.16379 0.5
735 2.88755 5.89466 8.51352 0.5
736 3.27313 4.44108 11.4465 0.5
737 6.83094 4.23986 2.40348 0.5
738 1.65483 7.99594 11.4185 0.5
739 7.09061 0.140128 8.92508 0.5
740 11.6273 1.42945 9.03534 0.5
741 8.25731 3.74177 3.78197 0.5
742 4.91304 8.58186 0.88943 0.5
743 9.48572 8.20346 5.46079 0.5
744 5.27164 3.79198 12.7752 0.5
745 8.37847 6.85171 11.7597 0.5
746 5.04418 8.3633 9.67012 0.5
747 0.00814668 13.2781 12.2069 0.5
748 7.76426 10.1943 8.1882 0.5
749 4.70348 9.54268 3.25077 0.5
750 1.91 0.988445 13.0051 0.5
751 0.391044 7.93299 13.3394 0.5
752 2.42447 1.79474 13.2468 0.5
753 6.47249 1.90843 0.143698 0.5
754 1.56292 12.1686 12.3734 0.5
755 7.24161 3.23276 12.7968 0.5
756 6.71883 7.98217 1.50782 0.5
757 11.7786 6.46835 11.787 0.5
758 4.80822 11.9985 5.2163 0.5
759 11.5658 7.23208 1.79544 0.5
760 8.16365 5.90785 4.74356 0.5
761 3.06483 11.2281 1.33019 0.5
762 0.751828 3.65356 0.72972 0.5
763 12.8532 0.337229 3.81172 0.5
764 9.35709 8.6773 2.93263 0.5
765 0.235481 2.78083 0.736787 0.5
766 8.42654 2.90366 5.61894 0.5
767 3.79411 7.2251 0.53629 0.5
768 12.8448 13.1568 11.4453 0.5
769 11.3548 2.94209 5.73274 0.5
770 11.6017 7.56463 7.5593 0.5
771 8.54414 7.95541 5.71926 0.5
772 0.962287 2.08047 9.60775 0.5
773 9.72228 3.19226 8.40729 0.5
774 8.44424 1.58154 2.43709 0.5
775 9.27869 0.905589 12.0456 0.5
776 2.08767 9.18979 6.80886 0.5
777 11.5091 11.401 3.48707 0.5
778 12.3186 11.5651 2.73614 0.5
779 8.74802 8.91712 5.56632 0.5
780 4.07978 10.9158 8.82976 0.5
781 12.9972 2.06293 6.26577 0.5
782 10.5454 3.16519 4.11169 0.5
783 13.2428 9.46571 12.6846 0.5
784 2.40104 1.98521 5.26669 0.5
785 11.1087 10.4899 6.50822 0.5
786 8.02449 3.71525 5.76557 0.5
787 5.88107 11.4841 2.39741 0.5
788 11.1224 6.94222 11.0149 0.5
789 9.63351 2.73988 1.21437 0.5
790 7.44841 1.30182 2.39096 0.5
791 5.94917 6.43276 11.9481 0.5
792 6.13602 2.34166 6.65433 0.5
793 7.30361 8.64424 3.71361 0.5
794 11.9925 0.631401 3.51792 0.5
795 9.72843 9.18338 5.76065 0.5
796 2.65943 9.9775 7.13683 0.5
797 3.93042 3.62545 11.5217 0.5
798 2.5337 3.15508 3.7076 0.5
799 0.0975501 1.69095 5.56759 0.5
800 0.811527 7.69884 0.710745 0.5
801 7.40815 5.7915 4.09897 0.5
802 5.27305 10.6918 11.9368 0.5
803 10.5846 11.8998 10.763 0.5
804 12.7879 7.49437 9.74912 0.5
805 8.96892 7.22466 1.94483 0.5
806 2.78916 7.59512 8.63931 0.5
807 3.40622 5.76359 7.61775 0.5
808 1.91382 8.71225 3.64929 0.5
809 9.92192 4.30571 11.7851 0.5
810 1.58346 12.0846 11.256 0.5
811 10.2845 7.23958 4.07145 0.5
812 2.27474 8.81246 11.7313 0.5
813 7.78209 6.49906 12.4215 0.5
814 9.24301 12.9978 4.1199 0.5
815 11.2487 13.1994 7.72252 0.5
816 8.94945 6.33816 1.2886 0.5
817 10.6415 11.1472 2.86017 0.5
818 3.11024 11.9046 2.07287 0.5
819 5.63796 13.4067 8.12722 0.5
820 0.883176 12.421 9.11145 0.5
821 11.1484 3.39862 4.90125 0.5
822 9.60022 0.358467 4.07699 0.5
823 9.19391 0.237177 11.3925 0.5
824 1.90228 8.12282 5.47303 0.5
825 7.5842 1.42482 1.30686 0.5
826 6.48005 13.0788 8.48448 0.5
827 11.0693 0.929017 1.75788 0.5
828 5.9067 3.77468 2.71265 0.5
829 4.56704 2.00322 7.96946 0.5
830 4.96663 11.4344 8.92517 0.5
831 10.944 0.516696 7.2172 0.5
832 13.2719 5.11206 10.1167 0.5
833 1.57301 11.2872 11.8089 0.5
834 8.97183 1.74187 13.1402 0.5
835 1.80567 5.51542 12.4024 0.5
836 8.78236 10.2346 12.3355 0.5
837 6.33389 3.72057 12.6259 0.5
838 12.583 13.507 12.3299 0.5
839 5.34426 5.82223 0.89734 0.5
840 7.52835 12.8711 13.4937 0.5
841 6.02107 10.7256 6.47103 0.5
842 12.3807 4.22761 11.9181 0.5
843 12.32 3.53413 0.247112 0.5
844 4.80998 3.67501 0.147409 0.5
845 10.6046 4.63147 6.3739 0.5
846 5.88216 11.7119 9.30526 0.5
847 4.27794 7.65035 6.25311 0.5
848 4.47921 6.968 11.7936 0.5
849 0.287475 12.8841 6.35569 0.5
850 10.6193 12.1348 11.7699 0.5
851 6.9278 10.6342 6.53181 0.5
852 7.1301 9.99498 7.39057 0.5
853 3.56624 7.48194 9.47342 0.5
854 10.1793 6.27435 3.99613 0.5
855 9.57349 11.1759 3.60993 0.5
856 3.0075 0.256434 3.76359 0.5
857 9.19103 4.08755 10.002 0.5
858 8.05434 9.63658 8.94233 0.5
859 10.7993 4.86707 5.41627 0.5
860 9.96128 4.03734 5.78593 0.5
861 10.5539 0.884993 5.77469 0.5
862 10.2454 6.51771 11.0356 0.5
863 8.57188 8.27238 4.79599 0.5
864 7.40849 7.27172 6.91783 0.5
865 11.8542 3.36053 1.16999 0.5
866 5.95653 11.9476 1.57613 0.5
867 12.6048 3.3866 1.8742 0.5
868 10.0171 9.97894 9.42936 0.5
869 4.59618 0.409861 0.5806 0.5
870 3.48461 8.31003 6.4297 0.5
871 11.9734 8.2504 5.66421 0.5
872 1.06743 5.91547 11.7987 0.5
873 13.2752 1.51657 2.57606 0.5
874 8.52893 6.92502 12.8558 0.5
875 7.34251 11.7596 5.57831 0.5
876 1.85817 6.21884 8.47788 0.5
877 10.9342 7.88987 8.2964 0.5
878 2.12454 11.1252 0.975894 0.5
879 3.1566 4.46263 6.35507 0.5
880 11.8288 0.863267 1.07849 0.5
881 10.7163 11.2709 12.2724 0.5
882 1.00713 10.3222 4.49467 0.5
883 10.3045 12.5785 2.07487 0.5
884 -0.014373 3.54579 1.45907 0.5
885 8.18716 10.6396 10.9703 0.5
886 1.67601 3.37895 8.26054 0.5
887 0.421178 1.24394 12.9144 0.5
888 5.98688 4.73066 2.34578 0.5
889 10.778 4.13994 9.35703 0.5
890 12.0402 8.07645 6.64832 0.5
891 3.57103 5.35477 2.91209 0.5
892 8.59151 13.5314 10.5832 0.5
893 10.4562 3.82287 8.45684 0.5
894 8.1131 6.78036 1.71196 0.5
895 11.6208 8.87539 1.05705 0.5
896 6.99629 12.1366 0.228989 0.5
897 6.38211 11.8448 3.16937 0.5
898 5.08783 12.0831 2.14862 0.5
899 9.89145 4.13395 10.8873 0.5
900 11.1372 12.7139 9.27428 0.5
901 13.183 5.92352 9.57513 0.5
902 11.236 6.13004 8.87552 0.5
903 9.55736 7.78214 3.43589 0.5
904 8.27106 3.38131 4.72635 0.5
905 13.3968 6.15854 5.51301 0.5
906 12.6625 5.32169 3.86253 0.5
907 6.43987 3.91669 10.3445 0.5
908 8.60064 0.0919691 4.28639 0.5
909 9.65267 3.37535 2.71076 0.5
910 8.41334 1.50842 7.10264 0.5
911 6.065 6.2679 12.9276 0.5
912 7.3938 8.52923 10.837 0.5
913 11.897 5.83636 13.248 0.5
914 4.0455 0.479216 1.43005 0.5
915 8.44058 3.15557 6.65426 0.5
916 10.8161 8.16097 7.36196 0.5
917 11.4849 0.619298 11.9182 0.5
918 8.58664 6.17268 8.19387 0.5
919 13.024 11.1028 0.0448734 0.5
920 0.499874 11.3929 9.19307 0.5
921 6.45687 6.96528 6.96695 0.5
922 13.222 3.68167 11.982 0.5
923 1.13356 2.95356 9.02055 0.5
924 10.1406 13.0645 9.35819 0.5
925 10.0614 4.18057 2.3895 0.5
926 4.98764 10.3529 12.8572 0.5
927 1.57544 7.6266 4.70838 0.5
928 13.1526 6.401 6.44224 0.5
929 1.34158 2.20035 10.604 0.5
930 10.3214 10.5219 8.67368 0.5
931 5.5612 9.14607 11.8699 0.5