ITEM: TIMESTEP
450000
ITEM: NUMBER OF ATOMS
1000
ITEM: BOX BOUNDS xy xz yz pp pp pp
0.0000000000000000e+00 1.3572088000000001e+01 0.0000000000000000e+00
0.0000000000000000e+00 1.3572088000000001e+01 0.0000000000000000e+00
0.0000000000000000e+00 1.3572088000000001e+01 0.0000000000000000e+00
ITEM: ATOMS id x y z radius
1 4.38401 3.91359 12.458 0.5
2 4.92325 10.9014 3.83893 0.5
3 8.7027 10.4561 2.83017 0.5
4 10.0339 5.96849 1.12476 0.5
5 9.26636 7.67081 10.379 0.5
6 4.12808 13.176 5.16972 0.5
7 2.7152 8.41149 1.12499 0.5
8 12.8955 11.2509 1.86901 0.5
9 1.80031 8.31149 6.09864 0.5
10 3.36629 13.2826 10.5444 0.5
11 0.83254 9.48312 9.03835 0.5
12 10.2986 5.75388 0.264028 0.5
13 8.68085 11.8997 5.87188 0.5
14 11.0778 2.20912 3.80219 0.5
15 6.26772 1.8849 4.5707 0.5
16 7.53735 6.81207 9.63835 0.5
17 6.99734 12.2734 10.6811 0.5
18 2.80907 8.54597 5.80852 0.5
19 10.1786 5.21278 1.81734 0.5
20 9.88698 12.0604 3.3164 0.5
21 2.1455 4.3944 1.3774 0.5
22 2.00783 5.24153 12.3551 0.5
23 1.81725 1.18336 10.6021 0.5
24 7.42832 7.47413 2.14743 0.5
25 0.965722 6.6244 2.73287 0.5
26 10.73 10.3912 5.86819 0.5
27 11.1738 6.69572 12.4238 0.5
28 4.74299 11.4709 11.7635 0.5
29 13.1271 6.03505 0.789488 0.5
30 8.11332 11.1636 1.47918 0.5
31 0.87978 13.4948 8.52618 0.5
32 8.91602 2.55505 12.8627 0.5
33 13.1133 6.33651 9.85432 0.5
34 3.7436 9.09215 5.55254 0.5
35 11.7818 6.24635 13.1598 0.5
36 9.4539 2.07399 5.23555 0.5
37 0.630783 1.02989 2.73642 0.5
38 3.40037 1.18531 1.95386 0.5
39 10.2537 4.31643 1.23898 0.5
40 5.58762 6.32772 6.44464 0.5
41 8.53197 11.4208 4.96576 0.5
42 6.75599 5.37155 3.52269 0.5
43 4.94812 5.46466 10.0076 0.5
44 4.70791 11.2009 8.38502 0.5
45 7.32147 6.36032 2.1765 0.5
46 9.98608 11.0201 0.263762 0.5
47 2.76872 9.49039 5.42819 0.5
48 7.49044 10.7993 0.771832 0.5
49 6.00275 12.6777 9.34155 0.5
50 6.93947 0.876545 10.4146 0.5
51 0.391625 10.1225 7.36034 0.5
52 6.34173 10.4447 7.35006 0.5
53 9.62316 3.58533 1.51862 0.5
54 11.5564 11.4627 4.14873 0.5
55 0.163487 1.12363 6.573 0.5
56 13.1371 4.24666 2.90306 0.5
57 0.406447 11.3826 11.279 0.5
58 5.65882 8.53063 10.4665 0.5
59 1.81735 10.638 11.1922 0.5
60 7.35779 5.08055 9.39605 0.5
61 4.76444 0.72688 10.7688 0.5
62 0.657342 8.55583 0.776424 0.5
63 11.7467 8.34683 1.94494 0.5
64 12.7232 2.34781 9.96723 0.5
65 13.0899 1.20121 4.99813 0.5
66 12.8676 1.25678 1.86712 0.5
67 8.55565 3.33213 7.98323 0.5
68 3.09464 1.40519 2.92921 0.5
69 11.8974 2.62741 10.4748 0.5
70 12.6633 4.05614 10.0983 0.5
71 2.66235 6.79826 8.81325 0.5
72 7.32492 2.88619 11.3291 0.5
73 8.19409 6.89445 8.90424 0.5
74 5.80101 4.74054 10.0841 0.5
75 8.92472 0.0878608 10.3528 0.5
76 12.3162 2.6533 13.2811 0.5
77 10.4574 2.75885 3.20918 0.5
78 9.09467 2.97215 4.77378 0.5
79 4.4745 12.6128 5.86423 0.5
80 5.52852 2.78791 8.36907 0.5
81 1.15103 3.34045 11.6256 0.5
82 1.20802 8.71254 13.4514 0.5
83 3.5235 0.890522 6.35673 0.5
84 13.518 8.92338 9.11545 0.5
85 13.5272 3.43649 6.95096 0.5
86 2.70825 0.273124 0.384226 0.5
87 4.02344 5.72185 6.03986 0.5
88 6.64638 5.56693 4.55109 0.5
89 12.0827 12.8368 7.92939 0.5
90 3.95595 6.11247 4.47282 0.5
91 11.5918 7.44172 11.7832 0.5
92 0.253717 1.36961 1.90221 0.5
93 12.9291 0.511136 12.7645 0.5
94 4.73024 9.93657 12.2672 0.5
95 12.1794 1.52242 7.87095 0.5
96 11.9779 2.63953 4.02082 0.5
97 12.1813 2.65908 5.05566 0.5
98 11.2853 9.73472 13.5216 0.5
99 6.05506 8.37476 8.68831 0.5
100 0.733372 6.82129 6.3587 0.5
101 4.71886 11.4785 2.90134 0.5
102 8.3915 7.37954 9.85724 0.5
103 4.15162 5.06383 10.6495 0.5
104 7.06929 11.0025 5.94433 0.5
105 12.3333 12.5261 6.96578 0.5
106 6.26745 1.62882 10.3913 0.5
107 12.961 4.53063 8.11511 0.5
108 0.362442 10.5382 5.44408 0.5
109 0.837465 12.3683 9.83375 0.5
110 8.39048 9.54218 8.61304 0.5
111 8.96412 0.201814 3.29339 0.5
112 6.80606 1.1857 5.12842 0.5
113 0.438482 0.126206 6.34511 0.5
114 7.2288 6.91681 3.029 0.5
115 6.04556 6.57051 11.9429 0.5
116 13.5379 5.51905 1.75783 0.5
117 0.898525 0.191544 5.25559 0.5
118 11.2537 9.5048 6.15753 0.5
119 12.6238 8.2103 1.46666 0.5
120 5.40323 9.06951 4.06036 0.5
121 11.5738 0.045248 10.7389 0.5
122 2.38708 2.91966 2.50595 0.5
123 12.5024 2.60024 9.03003 0.5
124 10.3665 11.4838 11.6741 0.5
125 4.8848 11.975 3.87635 0.5
126 10.8785 11.4001 13.4341 0.5
127 7.43424 10.5812 11.5472 0.5
128 5.11977 3.2734 7.64733 0.5
129 2.14822 6.28082 12.0741 0.5
130 1.11833 12.0972 10.8114 0.5
131 7.71971 1.98011 2.14544 0.5
132 5.54809 11.7083 2.38287 0.5
133 1.03083 11.0724 10.5717 0.5
134 10.7752 11.8798 3.70728 0.5
135 12.2667 1.65411 5.40676 0.5
136 8.25541 4.81071 4.33811 0.5
137 3.44355 12.815 5.77794 0.5
138 6.87797 12.3136 13.1129 0.5
139 5.56733 0.0367918 0.186476 0.5
140 5.30175 3.42279 4.50448 0.5
141 0.824361 3.75973 4.56466 0.5
142 9.8691 2.51085 12.5752 0.5
143 0.538319 13.0189 13.2438 0.5
144 8.95525 12.9926 8.76527 0.5
145 6.48436 6.99396 2.322 0.5
146 10.1123 9.16432 8.61711 0.5
147 4.63074 6.6168 0.557091 0.5
148 12.1159 0.718556 11.2123 0.5
149 7.93077 6.76653 10.4955 0.5
150 12.4165 11.4217 3.52687 0.5
151 6.94155 12.3378 9.57554 0.5
152 3.53516 4.41598 12.0544 0.5
153 11.9834 7.25583 7.38846 0.5
154 2.80939 1.96457 2.2107 0.5
155 2.1102 7.97802 10.9523 0.5
156 7.62096 12.3341 0.180632 0.5
157 1.64326 0.172614 3.24961 0.5
158 1.76719 9.88833 8.88371 0.5
159 3.95641 2.35538 9.03726 0.5
160 9.49033 0.197793 11.1743 0.5
161 12.7227 3.24071 10.5917 0.5
162 6.64346 2.8244 8.17631 0.5
163 11.1372 9.61668 0.97263 0.5
164 9.45439 3.13698 11.0362 0.5
165 7.31238 11.5101 11.2408 0.5
166 11.2632 12.7498 7.31124 0.5
167 11.2528 7.67288 7.98739 0.5
168 1.53548 3.28995 7.26617 0.5
169 10.179 11.3879 12.82 0.5
170 3.89007 6.43339 13.4909 0.5
171 10.6837 5.19611 0.964235 0.5
172 11.0221 8.01056 10.2726 0.5
173 8.72134 10.3505 1.84492 0.5
174 4.037 0.587095 13.3075 0.5
175 2.40814 6.24046 3.90484 0.5
176 3.90315 5.7258 3.3697 0.5
177 9.18414 4.0846 5.88091 0.5
178 5.71305 2.52477 5.09174 0.5
179 12.613 5.45921 1.37784 0.5
180 9.14178 2.62005 11.8393 0.5
181 11.0587 11.3592 9.72067 0.5
182 3.15173 11.3645 1.36064 0.5
183 8.45989 6.98903 6.35448 0.5
184 10.9398 4.90035 8.81234 0.5
185 8.48206 0.236377 11.2913 0.5
186 4.76752 8.38051 2.73698 0.5
187 4.90739 0.278283 13.0488 0.5
188 4.71193 5.97898 6.71808 0.5
189 0.421613 11.1038 6.85192 0.5
190 9.61492 12.9962 3.01579 0.5
191 9.32457 7.45709 3.62126 0.5
192 10.0205 1.05735 13.4324 0.5
193 11.755 2.16458 9.58509 0.5
194 9.71793 13.027 10.4466 0.5
195 0.337855 9.80171 12.0675 0.5
196 9.21128 0.614561 4.16064 0.5
197 2.86131 6.56694 7.90394 0.5
198 6.50737 6.21844 12.7697 0.5
199 11.385 1.11244 8.36039 0.5
200 6.81544 6.93771 1.45682 0.5
201 13.4256 3.68805 7.89886 0.5
202 6.53011 0.356575 8.11851 0.5
203 1.79697 3.44215 1.84206 0.5
204 2.2705 8.16416 8.31154 0.5
205 12.9734 13.0456 3.95304 0.5
206 0.86935 0.998638 10.3201 0.5
207 4.31304 12.0983 8.90071 0.5
208 9.48801 3.80458 5.00277 0.5
209 5.65214 2.64763 4.08713 0.5
210 3.88002 6.46497 5.3125 0.5
211 4.35034 4.13363 10.6377 0.5
212 3.17111 5.58483 3.97983 0.5
213 3.14695 1.57973 5.61466 0.5
214 9.86189 4.01723 11.1651 0.5
215 7.88182 6.89228 1.4313 0.5
216 6.3451 8.4493 0.214278 0.5
217 4.45671 11.4894 4.65839 0.5
218 6.59633 8.01872 4.73532 0.5
219 9.32892 1.02216 3.13739 0.5
220 7.03657 1.91581 9.74299 0.5
221 3.09083 3.33406 5.28587 0.5
222 7.62337 11.0169 4.98859 0.5
223 4.64279 9.18206 3.35451 0.5
224 12.0874 9.33901 3.701 0.5
225 7.77349 11.6709 10.4444 0.5
226 10.93 6.64182 13.5199 0.5
227 13.0124 7.35892 9.98218 0.5
228 4.66145 11.6493 5.62973 0.5
229 5.77774 4.44674 6.58073 0.5
230 6.46353 9.43508 8.83213 0.5
231 7.8705 5.94388 9.07794 0.5
232 7.04001 4.13358 12.9577 0.5
233 1.61329 0.37486 10.0401 0.5
234 11.6794 1.98824 4.64127 0.5
235 1.35152 11.0075 3.13276 0.5
236 10.8419 6.28164 0.82302 0.5
237 5.14642 7.98372 6.52426 0.5
238 1.24693 12.2941 5.88578 0.5
239 10.035 8.19689 3.73432 0.5
240 1.20232 4.45891 13.6114 0.5
241 4.01608 5.74092 0.616965 0.5
242 3.17218 0.513973 2.62191 0.5
243 2.32436 9.68777 3.53405 0.5
244 3.82557 11.8829 6.1428 0.5
245 1.37157 11.3884 11.5184 0.5
246 9.89764 10.1387 8.4126 0.5
247 3.76208 0.790892 10.4734 0.5
248 7.43019 2.13367 3.03723 0.5
249 10.3799 2.03658 13.3845 0.5
250 9.64736 1.73932 0.484366 0.5
251 5.54032 10.0535 11.7666 0.5
252 8.25677 8.5437 12.9091 0.5
253 1.62281 8.34673 1.12735 0.5
254 10.7298 2.57013 2.30372 0.5
255 8.25737 9.63468 2.32826 0.5
256 1.71585 12.7281 3.18137 0.5
257 0.690382 3.84264 7.39402 0.5
258 12.8889 6.73805 5.38469 0.5
259 4.7207 4.54605 9.7559 0.5
260 6.03804 12.2185 10.2128 0.5
261 11.5212 3.23482 5.61657 0.5
262 7.67001 11.7922 5.54521 0.5
263 2.7136 4.1924 8.7133 0.5
264 10.5081 10.8536 8.89574 0.5
265 1.4456 4.53116 4.99338 0.5
266 4.01125 13.5711 6.09727 0.5
267 4.79264 7.5822 9.38587 0.5
268 6.77384 2.17156 2.23151 0.5
269 9.18267 0.465262 8.74368 0.5
270 6.87036 9.96854 8.1615 0.5
271 11.8334 11.8757 7.58304 0.5
272 6.20816 9.2122 0.721466 0.5
273 7.70223 4.94904 3.42383 0.5
274 10.5319 3.62305 8.03508 0.5
275 2.69039 10.566 0.917757 0.5
276 4.7904 1.28734 12.8767 0.5
277 7.73045 4.54229 13.5029 0.5
278 11.0282 10.5613 0.480544 0.5
279 9.59436 11.5922 6.26934 0.5
280 4.51005 12.0926 2.07926 0.5
281 6.86584 2.62796 10.4118 0.5
282 0.0437796 11.0492 1.26702 0.5
283 5.20261 5.49809 1.81962 0.5
284 1.7527 10.7807 0.570814 0.5
285 3.54005 10.0327 5.89566 0.5
286 2.89894 0.502197 12.9966 0.5
287 7.64471 7.022 6.90944 0.5
288 6.07907 0.253085 6.41096 0.5
289 2.28966 10.6855 3.36673 0.5
290 1.36792 13.3222 6.08457 0.5
291 6.12741 0.594745 5.53187 0.5
292 4.13252 3.11355 13.0749 0.5
293 10.2842 5.69975 3.85035 0.5
294 2.65653 10.1274 6.09176 0.5
295 2.94265 1.69496 6.65043 0.5
296 13.4414 4.47564 7.26754 0.5
297 10.243 10.6558 11.102 0.5
298 9.64777 4.37548 12.0369 0.5
299 1.93105 0.222674 13.2863 0.5
300 9.36111 4.58257 1.73076 0.5
301 6.33008 7.37449 11.5753 0.5
302 2.08997 8.71573 3.22871 0.5
303 11.8094 8.75165 2.78047 0.5
304 0.1431 7.35462 5.67735 0.5
305 8.34865 12.6328 8.07306 0.5
306 11.7556 8.08521 0.9272 0.5
307 2.53986 6.91729 3.1811 0.5
308 0.12198 9.74587 11.0681 0.5
309 12.7349 13.1115 12.3933 0.5
310 9.41734 13.2977 4.02131 0.5
311 12.9183 5.90676 6.92343 0.5
312 6.78341 11.55 10.1881 0.5
313 0.826576 11.1209 3.92483 0.5
314 6.14871 11.7477 9.30779 0.5
315 12.7585 4.73635 2.06531 0.5
316 8.30646 6.2089 8.19338 0.5
317 12.834 8.80036 4.10495 0.5
318 13.3332 5.08286 6.42782 0.5
319 10.6511 11.5469 0.806993 0.5
320 5.9759 3.52569 6.92748 0.5
321 2.72457 12.5002 3.39965 0.5
322 10.2258 13.4576 1.05946 0.5
323 4.07687 0.997123 2.61164 0.5
324 10.8779 3.5077 2.72077 0.5
325 1.46003 4.92017 0.835788 0.5
326 10.4109 12.9872 0.0794279 0.5
327 9.2799 2.6006 7.77553 0.5
328 12.1403 6.83492 12.3266 0.5
329 8.07097 3.00893 8.81054 0.5
330 8.56279 0.601036 5.01872 0.5
331 4.77237 3.0767 3.78934 0.5
332 12.226 1.51388 8.8474 0.5
333 13.3058 1.38421 2.71161 0.5
334 4.47895 6.12337 1.48296 0.5
335 10.1151 0.365883 4.62093 0.5
336 4.93152 2.06535 8.73739 0.5
337 11.6023 1.18478 11.8785 0.5
338 7.68363 5.83424 10.0786 0.5
339 10.1489 4.15383 2.22189 0.5
340 12.726 3.77318 12.0748 0.5
341 8.49692 0.063442 9.43237 0.5
342 6.8979 0.287455 5.82093 0.5
343 6.88629 5.93963 9.49154 0.5
344 4.93794 6.98822 6.73716 0.5
345 8.78721 7.93235 5.95759 0.5
346 1.00733 7.02786 5.37051 0.5
347 13.3731 11.4211 0.287147 0.5
348 1.36319 3.89012 0.871668 0.5
349 7.94653 6.15036 6.52427 0.5
350 8.40884 7.48396 10.9759 0.5
351 2.08095 8.7916 11.5395 0.5
352 8.76675 12.5334 7.23606 0.5
353 8.39023 7.48773 0.861385 0.5
354 2.30021 3.06827 5.70479 0.5
355 1.66694 6.83868 3.4629 0.5
356 12.1512 13.3705 4.5104 0.5
357 6.64067 12.2239 3.51297 0.5
358 3.72836 1.58255 9.8894 0.5
359 7.40154 9.42666 8.85497 0.5
360 12.7413 4.08648 6.50962 0.5
361 3.67685 1.34101 7.229 0.5
362 1.48495 1.26135 9.61224 0.5
363 10.3201 12.4927 0.929937 0.5
364 3.26164 7.45822 1.07134 0.5
365 2.31733 7.62002 0.726227 0.5
366 6.89208 8.85309 8.1971 0.5
367 10.0781 12.053 0.118031 0.5
368 5.36508 4.98459 9.27523 0.5
369 1.54232 3.49766 5.1658 0.5
370 0.378945 10.2869 6.35038 0.5
371 9.99744 0.312549 3.47108 0.5
372 13.3558 5.01315 3.6777 0.5
373 4.61322 2.31358 12.9553 0.5
374 0.582006 9.00225 12.7018 0.5
375 1.03723 9.56756 8.04658 0.5
376 1.81909 11.1928 4.08597 0.5
377 7.52993 5.64805 4.13798 0.5
378 5.94551 9.21212 13.2866 0.5
379 4.96992 5.6423 0.742545 0.5
380 7.14451 3.72399 0.385516 0.5
381 10.0398 3.025 7.38652 0.5
382 10.0928 2.79086 8.45322 0.5
383 2.18764 4.25065 0.36089 0.5
384 4.83838 10.3705 13.2208 0.5
385 12.6704 11.0302 0.975133 0.5
386 0.0712687 4.07984 3.95095 0.5
387 2.70836 6.4952 11.1979 0.5
388 1.29899 2.0058 10.2347 0.5
389 5.0845 9.31718 10.2658 0.5
390 5.0411 4.78329 10.7224 0.5
391 6.98434 0.480747 2.00497 0.5
392 13.4539 5.11044 2.65174 0.5
393 2.90705 5.01653 9.41641 0.5
394 9.24742 9.3331 8.15291 0.5
395 1.61621 0.443918 8.92182 0.5
396 0.531711 2.05299 2.4944 0.5
397 6.97905 1.4556 1.62336 0.5
398 9.00263 12.1805 2.8588 0.5
399 0.954739 4.64469 4.1333 0.5
400 7.11932 8.8153 5.07269 0.5
401 9.62891 2.66893 13.5726 0.5
402 4.70873 7.42897 5.8476 0.5
403 6.33565 13.0186 7.84821 0.5
404 11.0652 11.2238 12.4504 0.5
405 11.8382 5.31917 12.9648 0.5
406 6.53859 3.13172 1.70369 0.5
407 2.13504 11.7395 3.39191 0.5
408 2.33751 4.02886 5.181 0.5
409 3.47474 4.37205 11.0728 0.5
410 11.504 2.59955 2.983 0.5
411 4.75885 5.9352 13.38 0.5
412 4.88341 0.818427 0.279228 0.5
413 3.59739 6.5937 8.74823 0.5
414 2.93123 8.51829 11.0946 0.5
415 8.02266 10.0933 10.9481 0.5
416 9.1276 10.8848 5.6413 0.5
417 1.38346 13.26 9.32123 0.5
418 9.20024 0.985855 10.6888 0.5
419 3.90801 12.604 11.0593 0.5
420 3.8009 0.241749 6.99553 0.5
421 13.314 5.35508 9.72623 0.5
422 8.71177 4.55556 5.23976 0.5
423 12.785 13.4309 2.99292 0.5
424 2.34079 3.20618 4.72596 0.5
425 8.73853 8.41582 11.3796 0.5
426 1.09675 12.8643 7.71261 0.5
427 7.17448 2.41525 1.4278 0.5
428 0.816722 8.51306 9.28758 0.5
429 10.2749 5.33342 8.32367 0.5
430 8.96014 12.9295 11.0811 0.5
431 2.32157 5.1047 8.53667 0.5
432 13.2145 2.13258 2.05754 0.5
433 7.12932 11.4789 0.198265 0.5
434 0.201026 3.35247 0.0128828 0.5
435 11.0465 8.64329 1.20897 0.5
436 6.77558 5.20395 10.193 0.5
437 4.22014 9.3648 6.3514 0.5
438 6.02129 3.56433 8.00506 0.5
439 11.1226 10.661 10.4428 0.5
440 9.86954 10.6387 6.32427 0.5
441 6.55882 1.17129 6.24158 0.5
442 0.910274 7.7363 5.98065 0.5
443 1.07408 11.1826 1.31698 0.5
444 9.07267 9.06119 13.1803 0.5
445 4.95415 8.16098 3.64792 0.5
446 3.02676 6.29321 4.71854 0.5
447 2.15793 9.2728 6.19255 0.5
448 5.58292 9.89063 0.291171 0.5
449 4.19548 13.5271 10.9816 0.5
450 3.38291 2.13198 1.45854 0.5
451 7.42231 3.39559 1.21793 0.5
452 2.15906 8.5619 0.269576 0.5
453 5.46748 9.92859 3.46078 0.5
454 3.15778 13.3614 3.40314 0.5
455 1.57652 2.45376 11.7396 0.5
456 8.2556 0.0608855 8.36472 0.5
457 12.5993 11.2311 8.95302 0.5
458 4.54934 0.984077 9.81892 0.5
459 13.022 2.22995 5.44643 0.5
460 12.6762 6.06234 12.643 0.5
461 11.8517 7.94745 10.8283 0.5
462 10.1592 2.0873 7.71751 0.5
463 6.7944 3.25397 7.33297 0.5
464 12.6509 8.16571 10.3352 0.5
465 5.30106 10.8865 12.3994 0.5
466 3.07695 13.4839 6.43505 0.5
467 1.36072 7.82955 0.364679 0.5
468 13.5479 7.96471 9.64263 0.5
469 2.00506 3.15288 11.2479 0.5
470 1.75881 6.15773 11.1849 0.5
471 4.26407 1.52178 10.6963 0.5
472 10.8429 6.67737 3.86979 0.5
473 11.4478 8.12489 7.12441 0.5
474 2.32991 7.67844 9.14127 0.5
475 6.71904 3.94905 6.50094 0.5
476 6.71237 1.25666 11.3571 0.5
477 5.67809 7.89329 9.63146 0.5
478 3.21523 12.2049 0.797305 0.5
479 8.47911 7.62765 13.357 0.5
480 4.29768 10.406 8.86223 0.5
481 2.29459 3.47604 0.913038 0.5
482 11.1343 13.2797 0.863965 0.5
483 8.70662 11.3069 2.21393 0.5
484 10.1043 7.34548 4.23953 0.5
485 4.36938 5.56067 2.38154 0.5
486 3.7636 11.226 8.79254 0.5
487 4.35675 2.84164 8.33787 0.5
488 5.56863 5.43327 6.86127 0.5
489 3.61174 0.796779 3.52621 0.5
490 1.00835 12.4524 8.73071 0.5
491 2.97952 7.07176 11.958 0.5
492 1.14045 5.05733 12.766 0.5
493 11.7962 8.54553 9.99326 0.5
494 7.45383 4.45902 0.996358 0.5
495 6.49315 7.57529 0.765273 0.5
496 6.49738 0.296759 13.339 0.5
497 4.83909 4.818 6.62729 0.5
498 3.87316 12.1566 5.24815 0.5
499 6.51817 2.29889 11.2394 0.5
500 10.2517 9.59631 6.19079 0.5
501 5.34545 1.76893 4.5681 0.5
502 9.56835 10.6736 9.11214 0.5
503 7.99291 5.41217 13.2512 0.5
504 2.22399 1.15891 13.5087 0.5
505 4.32031 2.84516 12.1085 0.5
506 3.73551 10.5751 0.999333 0.5
507 7.96583 4.00191 3.83447 0.5
508 0.302601 1.6044 5.66274 0.5
509 5.066 5.56109 5.97369 0.5
510 8.20704 11.0876 11.1738 0.5
511 6.46507 0.76986 7.20772 0.5
512 8.3568 11.4179 3.12209 0.5
513 4.37531 4.79118 3.15428 0.5
514 5.88561 8.37257 1.10521 0.5
515 1.6411 10.0903 2.84533 0.5
516 5.56504 8.91504 3.16311 0.5
517 1.00117 3.73556 3.56362 0.5
518 1.95535 7.16277 8.21735 0.5
519 5.1123 7.73809 10.4194 0.5
520 1.84391 0.586414 0.661123 0.5
521 11.1412 5.94767 4.51652 0.5
522 3.03831 8.81838 12.0812 0.5
523 13.2087 8.12604 3.52465 0.5
524 0.945064 0.840716 5.90134 0.5
525 11.4328 8.79911 0.366616 0.5
526 9.34535 12.454 8.01446 0.5
527 7.17687 11.0286 1.60939 0.5
528 1.06168 0.087633 0.249874 0.5
529 13.496 12.3873 0.197463 0.5
530 12.1072 3.2198 9.77443 0.5
531 11.2633 8.8387 10.7392 0.5
532 6.2429 9.07622 4.62986 0.5
533 6.21663 7.85858 10.6381 0.5
534 2.0395 12.1912 11.482 0.5
535 7.77572 12.9155 12.9179 0.5
536 2.00892 12.3465 4.10679 0.5
537 2.79505 11.2356 8.9839 0.5
538 7.76209 10.2181 1.49351 0.5
539 1.9602 7.76364 3.0266 0.5
540 1.19274 3.61258 8.24326 0.5
541 3.77555 10.9113 1.99568 0.5
542 7.43497 0.248428 12.8886 0.5
543 13.0118 5.9308 5.99763 0.5
544 8.5013 2.2981 8.31782 0.5
545 1.83705 7.03402 2.50086 0.5
546 1.06209 0.189246 12.7361 0.5
547 10.3424 5.38256 4.83736 0.5
548 11.995 13.5265 7.21107 0.5
549 12.9538 9.86086 7.6256 0.5
550 12.7078 12.3494 3.2498 0.5
551 6.1819 1.29238 2.1387 0.5
552 3.98708 7.43467 0.411831 0.5
553 10.641 5.70207 9.26416 0.5
554 3.87473 12.713 6.68812 0.5
555 0.50815 4.51118 3.18297 0.5
556 6.86901 13.1156 12.5988 0.5
557 7.44165 11.7973 1.0219 0.5
558 4.61022 1.93649 9.6687 0.5
559 3.32737 10.4208 8.6227 0.5
560 6.3583 3.25538 11.216 0.5
561 8.00417 8.65769 12.0134 0.5
562 13.2891 2.53664 13.2677 0.5
563 8.43583 6.61153 7.26398 0.5
564 7.34949 5.33795 0.292511 0.5
565 9.63706 4.85745 5.29387 0.5
566 7.24931 1.78173 10.7672 0.5
567 12.652 4.22834 3.74948 0.5
568 7.3318 1.96508 11.7489 0.5
569 10.6744 7.02284 11.5875 0.5
570 13.229 8.68355 2.15422 0.5
571 2.5668 0.618479 3.3735 0.5
572 3.8881 3.35775 0.514002 0.5
573 0.529954 12.9421 5.68764 0.5
574 9.07065 8.50975 3.60747 0.5
575 8.73076 13.2298 2.5068 0.5
576 3.96879 10.7756 7.95222 0.5
577 3.9238 8.95715 2.51931 0.5
578 2.03274 11.2204 1.48546 0.5
579 13.0027 9.60683 11.711 0.5
580 2.74829 5.53834 7.76419 0.5
581 1.74381 12.9987 8.41496 0.5
582 2.93824 12.0348 10.996 0.5
583 2.58219 10.7835 13.5992 0.5
584 10.1861 6.36333 4.5985 0.5
585 12.5494 4.86409 7.08953 0.5
586 0.437598 6.09456 10.0217 0.5
587 13.0106 2.61256 1.35281 0.5
588 13.1881 13.1771 13.2533 0.5
589 0.0744716 9.65315 8.36062 0.5
590 3.94785 11.7746 7.99518 0.5
591 3.49988 3.49921 12.3479 0.5
592 10.8289 11.5707 10.8132 0.5
593 6.80246 9.49686 7.37478 0.5
594 13.4831 11.1689 6.03531 0.5
595 13.0905 10.2843 5.91101 0.5
596 9.27865 9.66868 2.44943 0.5
597 2.64315 10.217 9.24023 0.5
598 8.14919 10.9469 5.81213 0.5
599 11.5875 11.1065 8.78734 0.5
600 11.7226 5.78845 12.2067 0.5
601 2.93997 6.0048 3.00868 0.5
602 0.0376626 6.74823 10.5898 0.5
603 2.83384 7.45004 11.058 0.5
604 5.26505 1.60828 10.3082 0.5
605 6.65811 2.72793 12.1157 0.5
606 11.4348 8.98489 5.3469 0.5
607 8.88976 10.3338 8.39229 0.5
608 7.96191 13.4142 12.1863 0.5
609 1.52168 11.692 0.620111 0.5
610 1.62495 8.91294 8.56237 0.5
611 0.592377 8.78776 8.38327 0.5
612 5.52773 13.2943 2.83184 0.5
613 3.45092 5.54756 5.13396 0.5
614 4.27798 0.084624 10.021 0.5
615 3.59005 10.6253 9.55194 0.5
616 12.9349 6.35616 1.78031 0.5
617 6.64089 6.16466 2.87979 0.5
618 11.3077 6.66284 7.89133 0.5
619 12.0509 4.17177 12.9325 0.5
620 0.824994 10.5205 11.436 0.5
621 1.78081 3.93952 4.27121 0.5
622 5.08032 8.37395 8.8879 0.5
623 12.7425 7.88473 4.36346 0.5
624 12.7152 5.75092 2.39609 0.5
625 1.32621 3.69007 10.7145 0.5
626 2.7626 3.64686 1.80194 0.5
627 9.98045 6.75332 0.414973 0.5
628 13.2317 4.72026 10.5817 0.5
629 5.36793 4.50173 3.06424 0.5
630 3.19199 3.01546 1.13065 0.5
631 9.05695 1.04641 0.0973265 0.5
632 6.10691 12.9011 13.4692 0.5
633 9.85668 0.830236 0.786169 0.5
634 10.1906 10.6908 9.95371 0.5
635 9.44318 1.76075 13.0748 0.5
636 9.81024 3.36878 11.894 0.5
637 13.0992 10.5567 6.88854 0.5
638 5.88411 0.962213 4.63477 0.5
639 8.90616 6.76818 10.4993 0.5
640 2.53015 4.51988 7.81924 0.5
641 7.44093 6.9084 5.94748 0.5
642 11.3623 5.62647 0.250778 0.5
643 11.2109 1.77926 7.61968 0.5
644 7.0769 3.65209 10.6582 0.5
645 0.95689 11.2084 5.98723 0.5
646 9.01856 8.81356 12.3186 0.5
647 8.72636 4.8805 11.8131 0.5
648 8.25629 10.3453 11.9351 0.5
649 5.50179 7.96651 11.317 0.5
650 2.94268 0.727074 7.10518 0.5
651 0.354722 5.89344 6.51091 0.5
652 5.34639 4.20249 7.38345 0.5
653 0.0789928 6.1208 2.52885 0.5
654 5.09587 10.1554 10.784 0.5
655 12.0013 11.823 9.55789 0.5
656 0.727867 11.1148 0.403933 0.5
657 11.0738 0.100402 6.8114 0.5
658 9.87629 10.2383 5.39409 0.5
659 0.739751 10.2154 3.18774 0.5
660 0.740502 0.444062 9.45227 0.5
661 1.34591 7.97842 8.59655 0.5
662 3.8486 11.0971 5.49765 0.5
663 5.69025 12.6532 3.62252 0.5
664 4.77447 6.41661 5.74791 0.5
665 10.3277 11.1779 3.04311 0.5
666 5.28001 11.8653 9.20328 0.5
667 10.057 4.38907 8.36165 0.5
668 5.49123 3.49054 3.49744 0.5
669 7.87306 10.7204 2.39846 0.5
670 9.07799 13.3891 7.85761 0.5
671 6.82938 8.47441 1.07456 0.5
672 2.79054 2.42735 5.09633 0.5
673 5.4233 8.83469 0.352567 0.5
674 3.43224 7.94275 11.7931 0.5
675 2.91284 3.59114 11.5091 0.5
676 2.43636 13.2815 2.79611 0.5
677 3.07322 9.06641 3.11063 0.5
678 11.8811 7.49825 9.99811 0.5
679 11.4338 12.0562 6.64477 0.5
680 4.71183 11.2136 1.87249 0.5
681 4.16073 1.38526 8.94961 0.5
682 1.84483 2.95742 10.2848 0.5
683 1.20815 5.85147 12.0683 0.5
684 11.9901 13.0348 3.60201 0.5
685 12.3593 12.196 4.16469 0.5
686 10.8765 8.0254 11.2634 0.5
687 4.97228 9.41082 13.2105 0.5
688 1.62379 7.84787 5.28633 0.5
689 3.36743 2.83706 2.03432 0.5
690 4.55696 8.63874 6.92629 0.5
691 13.4315 10.5117 11.5845 0.5
692 4.56319 13.4463 0.201579 0.5
693 10.7902 5.98611 11.8599 0.5
694 5.72584 8.92448 9.53505 0.5
695 12.5173 8.18699 2.60502 0.5
696 10.9636 2.64499 7.99254 0.5
697 0.0652895 9.12094 7.51036 0.5
698 6.19908 10.983 6.52029 0.5
699 3.04466 8.03135 0.279817 0.5
700 12.1445 8.28913 3.60922 0.5
701 9.25861 8.12461 13.0298 0.5
702 3.97646 1.88346 8.12566 0.5
703 1.87523 5.11426 13.3909 0.5
704 9.11186 2.99437 8.74659 0.5
705 10.4371 7.07281 7.83617 0.5
706 6.81735 11.4997 5.09391 0.5
707 3.64985 4.55494 10.0673 0.5
708 13.338 1.68948 1.09144 0.5
709 9.65798 0.126158 0.213057 0.5
710 6.84202 6.35581 3.8808 0.5
711 0.294605 0.490673 13.355 0.5
712 13.1257 3.18636 9.64874 0.5
713 8.41802 9.76516 7.64728 0.5
714 12.5461 3.93497 7.4098 0.5
715 12.8029 8.95667 3.04165 0.5
716 2.03072 2.21179 10.8955 0.5
717 3.03113 7.01822 0.313417 0.5
718 11.5752 0.828657 7.32259 0.5
719 4.64728 10.541 11.6344 0.5
720 12.3039 11.7307 2.60688 0.5
721 11.1678 5.62143 8.2858 0.5
722 5.84376 13.5729 12.7441 0.5
723 3.32096 12.1341 8.61012 0.5
724 9.47838 13.4492 9.50976 0.5
725 2.32784 2.06525 5.84975 0.5
726 7.61334 2.80309 7.93656 0.5
727 4.82333 2.94174 0.251294 0.5
728 12.6757 1.96481 4.51961 0.5
729 9.67742 5.10695 0.981959 0.5
730 8.32898 5.59542 7.38725 0.5
731 10.6631 0.328326 0.304527 0.5
732 2.19153 3.61978 8.09997 0.5
733 8.15591 11.5048 0.426962 0.5
734 10.6989 11.3788 6.38848 0.5
735 2.92028 5.83215 8.74756 0.5
736 4.41077 4.59541 11.5428 0.5
737 4.81644 4.11156 3.8614 0.5
738 2.06183 7.07284 11.538 0.5
739 7.38874 13.2683 7.9958 0.5
740 12.1728 0.593388 8.10963 0.5
741 7.85884 3.99933 4.85273 0.5
742 5.40403 9.40298 1.28729 0.5
743 7.21879 7.80671 5.5171 0.5
744 4.95902 3.20136 12.8237 0.5
745 6.96346 6.78032 12.045 0.5
746 4.86704 8.46093 9.76908 0.5
747 12.9759 0.248208 11.7067 0.5
748 7.63704 9.39638 7.89728 0.5
749 6.30246 9.37732 3.6945 0.5
750 1.26193 0.934264 13.4357 0.5
751 13.3012 8.47344 12.8213 0.5
752 1.86899 1.00283 12.6538 0.5
753 6.25407 2.16952 1.48273 0.5
754 2.43217 11.2907 11.6655 0.5
755 6.50363 3.94636 1.0637 0.5
756 6.5832 7.81688 1.71311 0.5
757 11.5351 6.49134 11.5473 0.5
758 4.7179 12.4303 4.9086 0.5
759 12.3698 9.06617 2.02925 0.5
760 7.23991 4.71006 4.23444 0.5
761 3.34342 11.2609 0.421912 0.5
762 0.119112 2.43796 0.495777 0.5
763 12.505 0.365365 3.74214 0.5
764 8.78985 9.46934 3.29998 0.5
765 12.7632 2.07491 0.474248 0.5
766 8.05161 3.10589 4.48788 0.5
767 3.72754 6.62773 0.940102 0.5
768 12.6916 0.0490957 10.7694 0.5
769 11.3983 2.29419 5.51686 0.5
770 10.7407 7.85728 6.39481 0.5
771 7.91328 7.83021 6.26166 0.5
772 1.10958 1.63548 11.1248 0.5
773 9.59997 3.58573 8.10903 0.5
774 9.53627 0.352211 2.4432 0.5
775 10.5025 -0.00230203 11.0311 0.5
776 3.18157 9.36826 6.41092 0.5
777 11.3592 12.5042 4.1724 0.5
778 11.7016 12.0845 3.35087 0.5
779 8.14231 7.43625 5.39619 0.5
780 3.0883 11.3596 8.04902 0.5
781 12.9531 1.29948 5.99713 0.5
782 11.222 3.22487 3.64289 0.5
783 0.0512083 8.8876 11.896 0.5
784 1.73904 2.46633 5.10007 0.5
785 10.6364 9.62426 5.26216 0.5
786 8.70127 3.86 4.46218 0.5
787 6.01286 12.4499 2.72099 0.5
788 11.142 7.22141 10.7996 0.5
789 9.13074 3.86011 2.27257 0.5
790 8.58711 0.702549 2.53615 0.5
791 5.31866 7.19158 12.0234 0.5
792 5.91952 2.67567 7.49299 0.5
793 6.97768 8.7378 4.10807 0.5
794 13.3109 0.606432 3.26664 0.5
795 7.51817 7.9186 4.61566 0.5
796 4.47315 11.2167 9.4472 0.5
797 3.93471 3.66889 11.5347 0.5
798 1.50408 2.99806 4.20438 0.5
799 0.0483168 0.636666 5.60435 0.5
800 0.486968 8.03855 13.3865 0.5
801 7.56409 5.93992 3.18326 0.5
802 4.19609 10.7296 12.4428 0.5
803 11.1345 10.8109 11.5205 0.5
804 0.127167 6.08392 9.12067 0.5
805 8.79257 8.71081 2.67457 0.5
806 2.98411 7.49624 8.3323 0.5
807 3.31979 4.93328 8.41363 0.5
808 1.32023 9.37801 3.42718 0.5
809 9.23546 4.70247 11.0408 0.5
810 2.92298 12.9446 11.424 0.5
811 10.3025 7.32047 3.25024 0.5
812 2.45957 8.02471 11.8827 0.5
813 7.93556 4.6993 12.5124 0.5
814 10.1143 0.596199 5.6232 0.5
815 12.0739 11.9821 8.57871 0.5
816 9.28469 7.63446 0.373291 0.5
817 11.4305 11.1495 3.15192 0.5
818 3.41181 10.2566 0.0936715 0.5
819 5.69598 0.193035 7.40487 0.5
820 0.35881 13.1145 9.22988 0.5
821 11.3239 2.86834 4.64942 0.5
822 9.50922 0.986418 5.03424 0.5
823 9.89058 0.404303 10.2758 0.5
824 1.96997 8.7836 5.2468 0.5
825 7.86958 1.00127 1.84916 0.5
826 6.67706 13.1738 8.80864 0.5
827 10.8761 0.679964 1.17808 0.5
828 4.61639 3.75962 3.03969 0.5
829 4.92864 2.2294 7.67419 0.5
830 5.21072 12.6182 8.67811 0.5
831 11.3234 0.0468451 7.94961 0.5
832 0.740924 6.04549 11.0227 0.5
833 2.03735 11.5489 10.7904 0.5
834 8.79502 2.04408 0.120568 0.5
835 1.59655 5.93196 12.9315 0.5
836 7.57497 9.63476 11.8905 0.5
837 6.60804 2.89859 0.778771 0.5
838 12.1793 13.2498 11.507 0.5
839 4.30598 5.16228 1.40251 0.5
840 7.10903 13.1593 0.0124696 0.5
841 7.0294 11.1334 6.98032 0.5
842 12.6785 4.05339 11.1265 0.5
843 12.8097 2.86051 12.3248 0.5
844 4.57188 3.95264 13.4293 0.5
845 9.86398 5.84301 5.60823 0.5
846 6.06156 12.2883 8.51967 0.5
847 4.19817 7.69345 6.69147 0.5
848 5.42656 6.50395 12.747 0.5
849 0.742605 12.7737 6.68119 0.5
850 10.3968 10.6383 12.1688 0.5
851 6.90847 10.1464 6.61627 0.5
852 7.488 10.2632 7.46768 0.5
853 4.06553 8.32126 9.18417 0.5
854 9.81048 6.52782 3.67977 0.5
855 9.28653 11.2922 3.05991 0.5
856 2.24995 13.3078 3.82399 0.5
857 9.95095 4.59987 10.2611 0.5
858 7.81069 10.2301 8.37937 0.5
859 11.3389 5.11088 5.08701 0.5
860 10.5466 5.03403 5.68561 0.5
861 11.6674 12.9671 6.38323 0.5
862 10.1903 7.55039 10.8137 0.5
863 8.00664 8.37033 5.50313 0.5
864 7.77765 7.08513 7.93745 0.5
865 11.9848 3.25054 12.5389 0.5
866 5.32915 12.6681 2.04503 0.5
867 12.005 3.44992 0.0401265 0.5
868 9.28628 9.74398 9.03368 0.5
869 4.2151 13.1936 12.9389 0.5
870 3.56629 8.50531 6.43998 0.5
871 12.0141 8.58849 4.57131 0.5
872 1.01419 5.48458 0.119541 0.5
873 13.4447 0.50242 2.3403 0.5
874 7.12682 5.06657 12.892 0.5
875 7.58487 11.9093 4.55455 0.5
876 2.05773 6.07771 8.30976 0.5
877 10.4132 7.96031 7.43252 0.5
878 2.43572 11.5345 0.658318 0.5
879 1.54386 4.23837 7.50083 0.5
880 12.4661 0.752814 2.68203 0.5
881 10.5809 10.5348 13.1481 0.5
882 1.44847 10.3381 3.86321 0.5
883 11.1172 12.3072 0.407952 0.5
884 12.8955 3.01923 0.473259 0.5
885 7.42234 10.7483 10.4912 0.5
886 0.591426 2.98849 7.6686 0.5
887 0.140129 13.4928 12.3786 0.5
888 4.6397 4.57526 2.22069 0.5
889 10.6747 4.7213 7.76025 0.5
890 11.4458 8.49571 6.24375 0.5
891 1.95429 6.12424 2.9014 0.5
892 9.2168 0.875933 9.6401 0.5
893 10.0149 4.10741 7.38285 0.5
894 7.48907 7.78246 1.20441 0.5
895 11.9817 8.96594 1.1604 0.5
896 6.80272 12.2922 0.537308 0.5
897 6.52811 13.1498 3.23654 0.5
898 4.98352 12.3391 2.89783 0.5
899 10.1077 4.87038 9.26691 0.5
900 11.9578 10.8113 9.74141 0.5
901 13.2626 5.76698 10.6834 0.5
902 10.5225 6.28592 8.49891 0.5
903 9.68179 8.95759 3.03519 0.5
904 8.4938 3.45384 5.35959 0.5
905 13.2931 6.73008 6.32848 0.5
906 12.5077 4.94455 3.08694 0.5
907 6.73627 4.29119 9.93896 0.5
908 9.34113 -0.040609 5.0791 0.5
909 9.91687 3.15259 2.40216 0.5
910 8.31694 2.56084 7.28173 0.5
911 6.21981 7.2214 12.5388 0.5
912 8.54412 9.3652 11.6009 0.5
913 10.9057 5.78599 12.9637 0.5
914 5.16027 12.8484 13.1642 0.5
915 8.45917 2.42275 5.1672 0.5
916 10.7185 8.81258 6.74814 0.5
917 11.2928 0.243704 11.7094 0.5
918 7.2611 6.4883 8.57333 0.5
919 13.0691 11.9376 1.15093 0.5
920 0.300323 11.7648 10.3948 0.5
921 5.38305 6.36087 7.44385 0.5
922 12.2028 3.10608 11.4759 0.5
923 1.54242 2.70998 8.09157 0.5
924 11.7831 11.5129 10.4328 0.5
925 10.5773 3.36722 1.68983 0.5
926 3.96565 9.84037 13.038 0.5
927 1.69874 7.2386 6.21249 0.5
928 0.276757 6.3251 5.52432 0.5
929 1.12312 2.66689 10.9389 0.5
930 10.2527 9.94992 9.34474 0.5
931 5.6388 9.98272 12.8273 0.5
932 3.96708 8.38144 3.28222 0.5