ITEM: TIMESTEP
210000
ITEM: NUMBER OF ATOMS
1000
ITEM: BOX BOUNDS xy xz yz pp pp pp
0.0000000000000000e+00 1.3572088000000001e+01 0.0000000000000000e+00
0.0000000000000000e+00 1.3572088000000001e+01 0.0000000000000000e+00
0.0000000000000000e+00 1.3572088000000001e+01 0.0000000000000000e+00
ITEM: ATOMS id x y z radius
1 4.37897 4.24282 12.2826 0.5
2 5.92164 10.6522 3.21542 0.5
3 8.49459 10.323 3.09109 0.5
4 9.56602 5.12327 2.216 0.5
5 8.91103 7.11226 10.3382 0.5
6 3.67864 13.1151 5.14235 0.5
7 2.90764 8.76673 0.469507 0.5
8 13.1329 11.5604 1.98442 0.5
9 1.7142 7.85264 5.96375 0.5
10 3.76714 12.6186 10.2064 0.5
11 0.57902 9.23708 9.21964 0.5
12 10.1765 5.70219 1.79542 0.5
13 9.04522 11.3791 6.59607 0.5
14 11.5834 2.33658 4.04614 0.5
15 6.36043 1.58555 4.39719 0.5
16 8.02972 6.90487 8.5973 0.5
17 6.96945 12.0291 10.3689 0.5
18 2.58227 8.54454 5.98374 0.5
19 8.98676 4.2862 2.40955 0.5
20 9.96949 11.51 3.46447 0.5
21 2.52015 4.67588 1.43893 0.5
22 2.12532 6.86048 11.9797 0.5
23 1.40004 1.33224 9.76195 0.5
24 7.37204 7.58051 2.30384 0.5
25 1.30797 6.79143 2.20261 0.5
26 10.6361 10.1853 6.23866 0.5
27 11.1224 6.53868 13.1297 0.5
28 5.15194 11.2338 11.5995 0.5
29 0.74501 5.59692 1.26832 0.5
30 8.21419 11.0485 1.61451 0.5
31 0.641698 12.9584 8.52104 0.5
32 10.3538 2.43099 13.4965 0.5
33 0.495119 5.71682 10.0658 0.5
34 3.24059 9.31886 5.81975 0.5
35 11.4881 6.71012 0.453069 0.5
36 8.75 1.6125 6.45277 0.5
37 13.1306 0.396654 2.95118 0.5
38 3.66418 1.35421 1.91437 0.5
39 9.95038 4.11588 2.10279 0.5
40 5.916 6.03038 6.41179 0.5
41 8.57272 11.3356 5.61644 0.5
42 7.013 5.5744 3.64739 0.5
43 4.93217 5.45186 10.0021 0.5
44 1.96292 10.7765 8.30816 0.5
45 7.56675 6.58495 2.30871 0.5
46 10.4029 11.2101 13.0248 0.5
47 2.36717 9.30952 5.29543 0.5
48 8.00735 10.625 0.587703 0.5
49 6.48105 12.9146 9.71037 0.5
50 5.8884 1.0957 10.5332 0.5
51 13.0478 10.3285 7.07643 0.5
52 5.32945 10.7839 6.91478 0.5
53 10.0224 2.98384 1.925 0.5
54 11.6059 11.0946 3.80162 0.5
55 0.552388 0.859679 6.29198 0.5
56 12.7182 5.43615 2.50971 0.5
57 0.249999 11.5348 11.5504 0.5
58 5.06868 8.33568 10.2701 0.5
59 1.58538 10.2358 11.4618 0.5
60 7.49406 6.01611 8.66665 0.5
61 3.58062 12.446 11.163 0.5
62 0.979019 9.07457 0.92072 0.5
63 11.7566 9.1782 1.84702 0.5
64 12.5956 2.43237 10.5454 0.5
65 13.2607 1.84135 5.21899 0.5
66 13.1861 1.86398 2.111 0.5
67 8.26536 3.33243 7.38074 0.5
68 3.29809 1.61308 2.94476 0.5
69 12.4638 2.65733 11.5155 0.5
70 12.1974 4.26027 10.8949 0.5
71 2.22247 6.88872 8.87116 0.5
72 7.29588 2.47143 10.2542 0.5
73 9.04259 6.7755 8.58929 0.5
74 5.77824 4.8216 10.2951 0.5
75 8.66309 0.389545 10.1605 0.5
76 12.7208 2.69814 0.448111 0.5
77 11.018 2.74016 3.3219 0.5
78 9.2118 3.23538 4.75463 0.5
79 4.17477 12.6145 5.78224 0.5
80 5.0351 2.72449 7.9614 0.5
81 2.19066 2.8852 11.5336 0.5
82 1.48706 8.99482 0.0265072 0.5
83 3.38793 0.905024 6.66922 0.5
84 12.6859 9.1204 9.77798 0.5
85 0.298718 3.54995 7.35154 0.5
86 2.66583 0.902662 0.107348 0.5
87 4.27636 6.01244 6.27384 0.5
88 6.76096 5.76207 4.53639 0.5
89 11.3706 12.634 7.8462 0.5
90 4.67583 5.69359 4.31346 0.5
91 11.4173 7.15028 12.3726 0.5
92 0.0573019 1.00704 2.34342 0.5
93 0.227898 0.407394 0.407399 0.5
94 4.52473 9.85285 12.3254 0.5
95 12.1713 1.88407 8.58568 0.5
96 12.1636 3.07905 4.48179 0.5
97 12.0209 2.96151 5.561 0.5
98 11.5135 10.3861 0.368521 0.5
99 6.55282 8.58459 9.32331 0.5
100 0.480501 6.81003 5.38412 0.5
101 4.64533 11.5988 2.1338 0.5
102 8.38794 6.61854 11.0212 0.5
103 4.11453 5.49467 10.543 0.5
104 6.54319 10.8488 5.63845 0.5
105 11.4381 12.7924 6.7552 0.5
106 6.10116 1.87508 11.136 0.5
107 0.0788387 4.4879 8.66139 0.5
108 0.864727 10.5049 5.90875 0.5
109 0.708818 11.9797 9.95489 0.5
110 8.12461 9.12004 8.86282 0.5
111 8.37402 0.219454 3.33736 0.5
112 6.3993 0.597165 4.76254 0.5
113 1.30514 0.130611 6.27079 0.5
114 7.38247 7.077 3.15084 0.5
115 5.08019 6.33739 12.1394 0.5
116 0.9496 5.83955 2.146 0.5
117 1.21551 13.2717 5.44291 0.5
118 10.9787 9.13428 6.34675 0.5
119 11.3715 8.26256 1.65333 0.5
120 5.12492 9.24272 3.98839 0.5
121 11.6683 0.262853 11.1113 0.5
122 2.37244 3.09357 2.35753 0.5
123 11.6716 2.25454 11.0209 0.5
124 10.9464 10.947 11.5959 0.5
125 5.49072 11.3503 3.76847 0.5
126 11.393 10.9631 13.1358 0.5
127 7.29756 10.1401 11.0538 0.5
128 5.30953 2.2216 7.02401 0.5
129 2.04617 6.94716 11.0143 0.5
130 0.893051 12.0239 10.9363 0.5
131 7.63763 1.63833 1.35205 0.5
132 5.36133 12.0114 1.73549 0.5
133 0.589106 11.1037 10.6661 0.5
134 10.6875 10.8185 3.81592 0.5
135 12.6443 2.21017 5.85732 0.5
136 8.17453 5.04616 4.59238 0.5
137 3.23738 12.7561 6.06556 0.5
138 7.49942 11.9892 12.8232 0.5
139 5.17792 0.504599 13.2995 0.5
140 6.58878 2.9103 3.0079 0.5
141 1.32578 4.23238 4.72879 0.5
142 9.37822 2.87449 13.2559 0.5
143 0.192948 0.129469 12.3583 0.5
144 9.57447 12.9612 8.60853 0.5
145 6.57076 7.10249 2.41327 0.5
146 10.1237 9.02067 8.97738 0.5
147 4.65707 6.79629 0.556702 0.5
148 12.4937 0.745916 11.4375 0.5
149 7.69129 6.51668 9.53819 0.5
150 12.5219 11.6836 3.90768 0.5
151 6.72447 11.9942 9.35664 0.5
152 3.51348 4.52972 11.7745 0.5
153 11.3382 6.41381 7.89899 0.5
154 2.97927 2.14745 2.15219 0.5
155 1.76134 8.60343 10.7828 0.5
156 8.01304 12.333 0.0144584 0.5
157 1.80172 0.801004 3.15184 0.5
158 1.19747 9.16434 8.4286 0.5
159 3.74309 1.61097 9.14599 0.5
160 9.16086 0.323969 11.0217 0.5
161 12.8738 3.38512 11.0125 0.5
162 6.77752 2.67758 7.90351 0.5
163 11.2351 9.40433 0.262091 0.5
164 9.7691 2.75034 11.6479 0.5
165 7.09904 11.0865 10.8023 0.5
166 11.1668 0.0660012 7.41006 0.5
167 11.4224 7.33247 8.37712 0.5
168 1.99456 3.32006 7.30969 0.5
169 11.1659 11.4873 12.3657 0.5
170 3.70332 6.23922 0.744062 0.5
171 10.141 4.81852 1.35292 0.5
172 11.1915 7.19416 10.7136 0.5
173 8.84122 10.4855 2.1263 0.5
174 3.79544 0.880147 12.5199 0.5
175 3.14138 6.37596 4.06453 0.5
176 4.52851 5.74903 3.2611 0.5
177 9.3699 4.10935 5.47745 0.5
178 6.34895 2.52216 4.02046 0.5
179 13.525 5.83635 1.97403 0.5
180 9.67433 2.18535 12.5832 0.5
181 10.8513 11.5324 9.1946 0.5
182 2.84302 11.7 1.16982 0.5
183 8.55507 8.114 5.85237 0.5
184 10.0918 4.62162 9.3229 0.5
185 8.57779 1.15884 10.9352 0.5
186 4.12696 8.81792 2.68539 0.5
187 4.37842 0.0104221 12.8016 0.5
188 5.07692 6.18798 6.97709 0.5
189 0.222543 11.0166 6.52743 0.5
190 8.96636 12.9748 3.05717 0.5
191 9.64441 7.40124 3.68334 0.5
192 10.7235 0.883735 0.224024 0.5
193 12.5724 1.69223 11.1667 0.5
194 8.98702 13.0106 10.3892 0.5
195 13.0062 9.84425 12.309 0.5
196 8.96213 0.85818 4.09642 0.5
197 2.76086 6.91418 7.96584 0.5
198 6.9805 5.92365 12.2746 0.5
199 11.1376 2.04031 8.57856 0.5
200 7.01229 7.11714 1.56878 0.5
201 0.585786 3.69248 8.21987 0.5
202 6.90097 0.0717791 6.86366 0.5
203 2.03406 3.68487 1.64003 0.5
204 0.791473 8.50622 7.79561 0.5
205 12.2835 12.7553 4.58644 0.5
206 0.452848 0.835575 9.68083 0.5
207 5.71686 12.9575 8.19499 0.5
208 9.05341 5.60739 6.60297 0.5
209 5.57519 2.60469 3.30457 0.5
210 4.19039 6.76924 5.59377 0.5
211 3.73456 4.59444 10.7569 0.5
212 3.77231 5.56656 3.85683 0.5
213 3.41738 1.97754 5.10394 0.5
214 10.0124 3.75393 11.8823 0.5
215 8.10024 7.25392 1.65708 0.5
216 6.26847 8.50815 0.186014 0.5
217 4.0388 11.3369 4.76441 0.5
218 6.39492 8.16403 4.40429 0.5
219 8.15696 1.14415 3.76121 0.5
220 5.58143 1.96612 10.1874 0.5
221 3.57715 4.07044 4.96204 0.5
222 7.026 11.3993 4.9376 0.5
223 4.46415 9.4633 3.28071 0.5
224 12.6341 9.63319 3.30641 0.5
225 7.99915 11.6294 10.7652 0.5
226 10.4041 6.5459 0.325976 0.5
227 12.4522 8.67059 10.7462 0.5
228 4.33435 11.6502 5.64615 0.5
229 5.22706 3.67498 6.10255 0.5
230 6.04431 9.32002 8.81848 0.5
231 8.40542 6.05192 9.11183 0.5
232 6.82294 5.02035 12.8057 0.5
233 1.37018 0.334824 9.59442 0.5
234 12.2469 2.14973 4.97451 0.5
235 1.52562 10.915 2.93871 0.5
236 9.33495 5.47736 1.33512 0.5
237 4.95483 7.88682 6.76388 0.5
238 1.48999 12.2137 5.85737 0.5
239 10.3686 7.56803 4.28349 0.5
240 1.24111 4.32104 12.3304 0.5
241 4.66029 5.75955 0.564894 0.5
242 3.37746 0.665437 2.5748 0.5
243 2.65433 9.66088 3.25239 0.5
244 3.68515 11.9064 6.30795 0.5
245 1.27594 11.2654 11.3926 0.5
246 9.57035 9.72798 8.34496 0.5
247 3.99149 0.0961392 10.0134 0.5
248 7.12215 2.3277 1.87492 0.5
249 10.2492 1.616 0.605519 0.5
250 9.67438 0.969315 0.190394 0.5
251 5.0147 9.50057 11.4345 0.5
252 8.58617 7.83228 13.445 0.5
253 1.98385 8.89172 0.848357 0.5
254 11.2461 3.69968 3.17393 0.5
255 8.40585 9.67633 2.39672 0.5
256 1.49637 13.4521 3.09089 0.5
257 1.25951 4.02589 7.44494 0.5
258 13.4822 6.08887 6.73201 0.5
259 4.22365 4.83463 9.77725 0.5
260 6.51666 11.2284 9.96713 0.5
261 11.0842 2.96179 5.92063 0.5
262 7.69516 10.9343 5.66431 0.5
263 3.11989 4.47843 8.1854 0.5
264 10.4458 10.9094 8.4507 0.5
265 1.74642 4.86429 4.15002 0.5
266 3.71715 0.0394901 6.07806 0.5
267 5.10084 7.41844 8.85356 0.5
268 6.63044 1.63294 1.33969 0.5
269 9.08058 0.300037 8.60187 0.5
270 6.78816 9.83828 8.16303 0.5
271 10.7106 13.4422 6.50997 0.5
272 6.16538 9.30544 0.660384 0.5
273 7.9092 5.17178 3.63713 0.5
274 9.88098 3.65756 8.75033 0.5
275 2.64739 10.9513 0.566381 0.5
276 4.57451 0.0398849 11.8135 0.5
277 7.68581 4.73068 13.2004 0.5
278 10.6932 10.2589 13.318 0.5
279 9.55991 11.2823 5.7742 0.5
280 4.42083 12.4077 1.69786 0.5
281 6.27833 2.67854 10.5517 0.5
282 13.0828 11.4085 0.964651 0.5
283 4.7857 4.77291 2.93969 0.5
284 1.73764 11.0455 0.147147 0.5
285 2.67873 10.2557 5.62099 0.5
286 2.78633 0.780346 12.7235 0.5
287 8.52977 7.66124 6.80898 0.5
288 6.71087 0.468979 5.77467 0.5
289 2.47262 10.7097 3.24085 0.5
290 1.01753 12.8725 6.42638 0.5
291 6.29179 1.40862 5.25859 0.5
292 4.21878 3.45564 12.9205 0.5
293 11.5465 5.97342 4.15059 0.5
294 1.74606 9.88685 5.78204 0.5
295 3.39029 1.67179 6.10802 0.5
296 0.269465 4.52879 7.66343 0.5
297 10.7115 12.0205 11.6281 0.5
298 9.62899 3.81305 12.8468 0.5
299 1.77881 0.785414 13.2047 0.5
300 9.18256 3.4704 1.7684 0.5
301 6.60458 6.93056 12.0394 0.5
302 2.59006 8.70605 2.93253 0.5
303 12.6652 9.12106 2.42508 0.5
304 0.226418 6.92621 6.39583 0.5
305 8.24208 12.7632 7.58975 0.5
306 10.9226 9.11965 1.22235 0.5
307 3.41014 7.16141 3.50333 0.5
308 13.4344 9.9618 11.4664 0.5
309 13.053 13.0202 12.4452 0.5
310 8.86895 13.3761 4.09413 0.5
311 13.232 5.16768 7.05806 0.5
312 7.4692 11.47 9.87902 0.5
313 0.906884 10.6283 3.54837 0.5
314 5.85355 12.4646 9.14659 0.5
315 13.211 6.14661 2.95563 0.5
316 8.25046 5.9347 7.19225 0.5
317 13.0351 9.05584 4.10158 0.5
318 12.9476 4.59939 6.21497 0.5
319 10.7327 11.0274 0.438264 0.5
320 5.84112 2.94592 6.45529 0.5
321 2.29568 12.8174 3.21558 0.5
322 9.6473 12.7824 0.432621 0.5
323 4.3036 1.25582 2.68548 0.5
324 10.2907 3.39308 3.48441 0.5
325 0.491765 5.84678 12.4489 0.5
326 10.5362 12.6305 0.470366 0.5
327 8.81839 2.63489 7.92926 0.5
328 12.0569 7.00311 13.1698 0.5
329 7.33328 3.48518 7.77905 0.5
330 8.58298 1.46957 4.75876 0.5
331 5.91998 3.46025 3.60057 0.5
332 11.7101 2.58558 9.0442 0.5
333 12.9231 1.37718 3.02952 0.5
334 4.55961 6.29414 1.39329 0.5
335 9.68112 0.298744 4.38329 0.5
336 4.40747 1.24822 8.44708 0.5
337 12.035 1.59282 10.2593 0.5
338 7.51378 5.5651 9.56684 0.5
339 9.56033 3.48424 2.70621 0.5
340 12.4652 3.94691 12.817 0.5
341 9.15408 13.3922 9.41563 0.5
342 5.72444 0.521603 5.53451 0.5
343 6.66682 5.50901 8.96985 0.5
344 5.50634 7.04829 6.71518 0.5
345 8.0053 8.48728 6.59434 0.5
346 0.609786 7.67718 5.84108 0.5
347 12.6926 12.2543 0.590853 0.5
348 1.73591 4.2003 0.860816 0.5
349 8.50148 7.08112 5.9556 0.5
350 7.87284 7.06516 10.3327 0.5
351 2.29237 9.31651 11.2069 0.5
352 8.94845 12.3331 7.05837 0.5
353 8.25973 8.06019 2.32636 0.5
354 2.90276 3.59591 5.53756 0.5
355 2.53775 6.76379 3.36078 0.5
356 11.4009 12.5479 5.09858 0.5
357 6.2978 11.8149 3.23213 0.5
358 3.88905 1.13568 10.0139 0.5
359 7.10893 9.38369 8.99555 0.5
360 12.9914 4.10485 7.15383 0.5
361 3.8656 1.08139 7.5316 0.5
362 0.999105 0.961567 8.92679 0.5
363 10.1285 11.8373 0.265412 0.5
364 3.41956 8.03642 0.92575 0.5
365 2.41023 8.04622 0.868802 0.5
366 6.61027 8.76333 8.30723 0.5
367 11.0571 11.8019 13.2935 0.5
368 5.16879 4.55205 9.68039 0.5
369 1.97514 3.48058 5.10739 0.5
370 13.5318 10.0971 6.24454 0.5
371 9.35589 0.219421 3.3823 0.5
372 0.281853 4.58211 3.43473 0.5
373 5.26712 2.98951 12.833 0.5
374 0.732877 9.1534 12.8582 0.5
375 0.500303 9.9562 8.51604 0.5
376 1.68783 11.0624 3.92923 0.5
377 7.66658 5.85343 4.28768 0.5
378 5.81169 9.33109 13.2728 0.5
379 5.43854 6.39562 0.810114 0.5
380 6.92868 4.14274 13.4764 0.5
381 9.84574 2.84911 8.11568 0.5
382 9.10252 3.02527 8.83645 0.5
383 1.75424 5.20173 1.10025 0.5
384 5.17007 10.1058 12.968 0.5
385 12.3495 11.9314 1.44342 0.5
386 0.793688 5.00299 4.21574 0.5
387 1.86833 6.03256 11.5627 0.5
388 0.860768 2.2159 10.0982 0.5
389 5.23912 9.42669 10.4141 0.5
390 4.8423 4.64817 10.6666 0.5
391 7.13636 0.245463 2.13169 0.5
392 0.232496 5.39985 2.74984 0.5
393 2.91629 5.08361 8.89726 0.5
394 9.1488 9.02565 8.83289 0.5
395 1.35776 13.5968 8.71208 0.5
396 0.216538 1.01127 3.30196 0.5
397 7.23546 0.725278 1.24972 0.5
398 9.04993 11.902 3.12964 0.5
399 1.15384 4.21824 3.68384 0.5
400 6.69473 8.71704 5.15658 0.5
401 9.45139 1.96051 0.00995436 0.5
402 4.99424 7.40552 5.8793 0.5
403 7.93418 13.4328 6.94584 0.5
404 10.2281 10.2469 11.5694 0.5
405 11.9347 5.94605 0.82207 0.5
406 7.32175 2.06669 13.4335 0.5
407 2.0934 11.768 3.18788 0.5
408 2.42497 4.26246 4.87753 0.5
409 3.40089 5.44261 11.1866 0.5
410 11.9905 3.02184 3.51348 0.5
411 4.23951 6.29111 13.4355 0.5
412 4.80654 0.891821 12.3484 0.5
413 3.26019 6.98144 8.90718 0.5
414 2.61702 8.73305 10.4036 0.5
415 8.38668 9.90853 10.8192 0.5
416 8.98821 10.5261 6.04543 0.5
417 1.1274 12.8624 9.47087 0.5
418 9.47741 1.0446 10.3943 0.5
419 2.63257 12.7664 11.2256 0.5
420 3.90384 0.173577 7.13272 0.5
421 13.3788 5.52067 10.7845 0.5
422 8.46594 4.58739 5.53798 0.5
423 12.0287 13.5391 3.88325 0.5
424 2.90778 3.47285 4.49868 0.5
425 8.45709 7.67896 10.9234 0.5
426 0.000369635 12.7329 6.56073 0.5
427 7.23493 2.33414 0.820849 0.5
428 13.4179 8.6848 9.23646 0.5
429 10.4617 5.51306 9.57373 0.5
430 8.2487 0.0200991 10.9469 0.5
431 2.48182 5.32244 8.16584 0.5
432 0.269512 1.88882 2.80399 0.5
433 7.82845 11.3154 13.5007 0.5
434 12.8372 4.1597 1.31744 0.5
435 11.691 9.7772 1.12245 0.5
436 6.65332 5.06559 9.83181 0.5
437 4.10026 9.29875 6.30764 0.5
438 5.86868 3.02504 7.47491 0.5
439 11.2573 10.9807 9.93766 0.5
440 9.82161 10.7053 6.54443 0.5
441 6.23579 13.3398 5.22918 0.5
442 1.27294 6.90244 6.00365 0.5
443 0.39029 11.496 1.34901 0.5
444 8.5622 8.78953 13.2267 0.5
445 4.99787 8.67579 3.11455 0.5
446 3.87311 6.20888 4.74306 0.5
447 1.72829 8.87498 5.85027 0.5
448 5.25466 9.81484 0.381747 0.5
449 3.41261 13.3503 10.7973 0.5
450 3.70358 2.34295 1.50388 0.5
451 6.83698 2.9862 13.5926 0.5
452 2.05557 8.25865 13.4804 0.5
453 5.09726 10.2555 3.73219 0.5
454 3.09701 13.4678 3.26604 0.5
455 2.42825 2.21394 10.7824 0.5
456 8.53763 12.9487 8.63604 0.5
457 12.3171 11.8067 8.48284 0.5
458 4.02073 0.600122 9.13998 0.5
459 0.0626634 2.52579 5.79177 0.5
460 12.5418 6.67164 0.422912 0.5
461 11.5751 7.72673 11.4702 0.5
462 10.7501 2.54532 7.87952 0.5
463 6.62765 3.36918 7.07401 0.5
464 11.487 8.58466 10.9381 0.5
465 5.36509 10.2939 11.9891 0.5
466 3.14127 13.5495 6.80199 0.5
467 1.39067 8.17117 0.504517 0.5
468 12.7973 8.15247 9.97535 0.5
469 2.30839 3.09383 10.4668 0.5
470 1.79039 4.89894 12.8839 0.5
471 4.14212 0.602957 10.9392 0.5
472 10.9321 6.74325 4.30604 0.5
473 12.0398 7.11705 7.59701 0.5
474 1.62813 8.22645 8.41363 0.5
475 6.28777 3.88989 6.18642 0.5
476 6.85585 1.1732 11.0496 0.5
477 5.76762 7.83836 9.58814 0.5
478 2.79278 12.5517 0.747166 0.5
479 9.36936 7.49003 0.40823 0.5
480 2.80559 11.2703 7.86197 0.5
481 2.65009 3.71271 0.900497 0.5
482 10.2733 13.2262 1.23317 0.5
483 8.4171 11.2868 2.60846 0.5
484 10.0355 6.61034 4.06622 0.5
485 4.58606 5.4637 2.14974 0.5
486 2.82851 10.7479 8.83956 0.5
487 4.47256 2.21024 8.68217 0.5
488 5.5755 4.65772 6.41698 0.5
489 3.76334 0.717995 3.33922 0.5
490 0.78875 12.051 8.96928 0.5
491 2.81345 7.39473 11.4786 0.5
492 1.33671 5.36641 12.1629 0.5
493 11.0885 8.03679 10.2064 0.5
494 7.57425 4.47591 0.665469 0.5
495 6.70188 7.70113 0.791934 0.5
496 6.14661 13.0304 12.9379 0.5
497 5.80455 5.35919 7.10783 0.5
498 3.46101 12.0735 5.29988 0.5
499 6.98928 2.30496 11.1338 0.5
500 11.1711 8.99453 5.31028 0.5
501 5.47994 1.93063 3.95368 0.5
502 9.5535 10.5897 8.8966 0.5
503 8.42013 5.32367 12.9226 0.5
504 2.39143 1.63398 13.0656 0.5
505 4.71137 3.35612 11.9943 0.5
506 3.64618 11.0908 0.898207 0.5
507 8.02426 4.25579 3.98629 0.5
508 0.602423 1.63148 5.58449 0.5
509 5.12291 5.50193 6.21166 0.5
510 7.93432 10.8383 11.3008 0.5
511 6.14623 13.3417 6.21729 0.5
512 8.47865 11.2299 3.65983 0.5
513 6.22793 4.1786 2.01293 0.5
514 5.94496 8.43531 1.06639 0.5
515 2.11586 10.2275 2.53604 0.5
516 5.51068 9.63031 3.10481 0.5
517 1.17288 3.37854 4.44413 0.5
518 1.93972 7.28314 8.05903 0.5
519 4.8479 7.43741 9.79175 0.5
520 1.85196 1.45464 0.32775 0.5
521 11.2503 5.51779 5.08632 0.5
522 2.62267 10.1948 11.5906 0.5
523 13.3798 8.13696 3.72003 0.5
524 0.887558 0.618792 5.46269 0.5
525 10.7562 10.0633 0.775799 0.5
526 8.98478 12.288 8.07189 0.5
527 7.33298 10.7901 1.40489 0.5
528 0.86368 1.01956 0.0527174 0.5
529 13.3991 13.006 0.580882 0.5
530 11.9363 3.21523 10.8442 0.5
531 10.7279 7.99244 11.0791 0.5
532 5.95537 9.08719 4.63503 0.5
533 5.42369 7.62817 10.8832 0.5
534 2.15644 11.1409 11.6436 0.5
535 7.91014 12.9338 12.8083 0.5
536 1.43301 12.4315 2.87757 0.5
537 3.9603 10.7747 9.15758 0.5
538 8.13639 10.0879 1.50915 0.5
539 2.66587 7.81681 3.25206 0.5
540 1.60426 3.50718 8.27399 0.5
541 3.66862 11.703 1.74615 0.5
542 7.13656 0.00185019 12.6336 0.5
543 12.6288 5.64719 6.43486 0.5
544 7.82419 2.59308 7.98758 0.5
545 1.70934 7.27452 3.05456 0.5
546 0.881481 0.775788 12.6308 0.5
547 10.16 5.26039 5.35139 0.5
548 12.1337 13.2339 7.47883 0.5
549 13.4718 10.7001 8.53476 0.5
550 12.3524 12.6763 3.62384 0.5
551 6.3022 0.823691 1.85708 0.5
552 3.80778 7.18423 0.239225 0.5
553 10.9821 4.64771 9.74173 0.5
554 3.9672 12.7965 6.69964 0.5
555 0.427639 3.99361 4.23035 0.5
556 7.00354 12.666 12.3211 0.5
557 6.94785 11.0046 0.440199 0.5
558 4.64693 1.81456 9.63477 0.5
559 3.69662 10.7722 8.18593 0.5
560 6.99623 3.23847 10.8975 0.5
561 8.49583 8.41911 11.6276 0.5
562 13.3499 3.52001 0.671671 0.5
563 8.8796 6.67318 6.76491 0.5
564 8.01369 5.32298 0.297538 0.5
565 9.29605 5.13037 5.73529 0.5
566 6.6567 1.82368 10.323 0.5
567 12.2926 5.94756 3.44158 0.5
568 7.69936 1.74673 10.8851 0.5
569 10.8838 6.35654 12.178 0.5
570 13.0329 8.18424 2.73852 0.5
571 2.76212 0.845849 3.38832 0.5
572 4.14529 3.48824 0.35671 0.5
573 0.3399 13.5051 5.89803 0.5
574 9.25235 8.26214 3.22498 0.5
575 8.20165 13.454 2.42087 0.5
576 2.80865 10.3018 7.98019 0.5
577 3.51417 9.03427 3.28535 0.5
578 1.87694 11.2869 1.1754 0.5
579 0.064134 9.13688 12.0767 0.5
580 2.87085 6.05039 7.53385 0.5
581 1.56443 12.414 8.61054 0.5
582 3.02458 11.9851 10.6479 0.5
583 2.55932 11.2358 13.199 0.5
584 10.5477 5.89771 4.47911 0.5
585 12.3607 4.83151 6.99065 0.5
586 13.1376 5.77876 9.80143 0.5
587 0.264081 2.62557 2.18702 0.5
588 13.2632 13.5088 13.2582 0.5
589 13.2176 9.65646 9.00023 0.5
590 2.52614 9.83624 8.75825 0.5
591 3.7011 3.49294 12.0301 0.5
592 11.0828 11.6156 10.8015 0.5
593 5.4332 9.80712 7.09144 0.5
594 13.5663 10.7456 5.53261 0.5
595 12.7858 10.165 5.39407 0.5
596 9.33483 9.87185 2.70936 0.5
597 4.47798 11.3252 8.6813 0.5
598 8.02743 11.0805 4.66385 0.5
599 11.438 11.3157 8.39811 0.5
600 12.0128 6.00774 13.4146 0.5
601 3.81107 5.22578 2.87634 0.5
602 0.208175 5.38882 9.14664 0.5
603 2.35872 7.73419 10.6949 0.5
604 4.7754 1.29513 10.4925 0.5
605 7.93278 2.77274 11.0396 0.5
606 11.9838 9.0093 5.96392 0.5
607 8.72321 9.97071 8.98108 0.5
608 7.73276 13.2928 11.7944 0.5
609 1.0577 11.6689 0.710251 0.5
610 0.686794 8.35755 8.74658 0.5
611 0.138848 9.10219 8.2958 0.5
612 5.49692 13.2296 2.96889 0.5
613 3.90909 5.16333 4.83399 0.5
614 4.32202 13.1828 10.9739 0.5
615 3.39486 11.5839 8.73626 0.5
616 0.521662 6.51734 1.58372 0.5
617 6.84221 6.31987 2.98694 0.5
618 10.5601 6.94482 8.42008 0.5
619 11.6847 3.89937 13.4668 0.5
620 0.602834 10.6464 11.5409 0.5
621 1.98917 3.87367 4.16559 0.5
622 5.73041 8.33012 8.6901 0.5
623 12.601 8.22797 4.37176 0.5
624 0.419746 6.50073 2.52976 0.5
625 1.67099 3.61888 11.0343 0.5
626 2.95337 3.84279 1.83169 0.5
627 10.1623 5.60114 0.720795 0.5
628 13.1527 4.44067 10.8023 0.5
629 6.6276 3.29554 2.07167 0.5
630 3.62351 3.406 1.26405 0.5
631 10.1967 0.537944 12.9421 0.5
632 6.49768 12.039 12.9319 0.5
633 10.1616 0.636147 1.06961 0.5
634 10.4313 10.588 9.4958 0.5
635 10.2402 1.48879 13.1576 0.5
636 10.1514 3.00006 12.5784 0.5
637 12.8033 10.9033 6.18306 0.5
638 5.50955 1.16818 4.71388 0.5
639 8.4303 6.21496 10.1671 0.5
640 2.83186 4.955 7.34374 0.5
641 8.04041 7.70904 5.11342 0.5
642 10.9309 6.09459 1.16235 0.5
643 11.5586 1.77675 7.72245 0.5
644 6.69354 3.26592 9.97031 0.5
645 0.723966 11.5368 5.60598 0.5
646 9.03095 8.92487 12.3626 0.5
647 8.70405 5.28547 11.9533 0.5
648 8.00425 9.88702 11.7336 0.5
649 5.98407 7.6721 11.7604 0.5
650 4.13923 0.326484 8.15534 0.5
651 13.5826 5.325 6.12192 0.5
652 5.01639 3.1034 7.01123 0.5
653 1.5096 6.17299 1.39298 0.5
654 4.36923 9.86826 10.7716 0.5
655 11.5212 12.267 8.86225 0.5
656 0.318847 11.0448 0.455034 0.5
657 11.8044 0.802736 7.51364 0.5
658 9.78389 10.3494 5.61787 0.5
659 1.14785 10.0243 2.7391 0.5
660 0.456007 0.0758022 9.20187 0.5
661 0.889056 7.52593 8.05721 0.5
662 3.46492 11.0803 5.77194 0.5
663 5.51268 12.345 3.46756 0.5
664 5.13924 6.42737 5.99051 0.5
665 10.2285 10.5664 3.01668 0.5
666 5.9964 12.1186 10.0914 0.5
667 10.1411 4.50511 8.33623 0.5
668 5.81252 3.37757 2.61545 0.5
669 7.76514 10.4544 2.30428 0.5
670 9.15641 13.1923 7.82896 0.5
671 6.93505 8.6625 1.03624 0.5
672 3.5177 3.01585 5.11717 0.5
673 5.35896 8.76421 0.472655 0.5
674 3.23852 8.01239 10.7877 0.5
675 1.56488 3.39895 12.0742 0.5
676 2.44809 0.16921 2.72386 0.5
677 3.65517 8.04843 3.11856 0.5
678 12.0067 7.81722 10.5362 0.5
679 11.4117 13.197 5.84925 0.5
680 4.55957 11.7011 1.1319 0.5
681 3.41912 0.923448 8.49685 0.5
682 1.26529 3.22874 10.1483 0.5
683 2.1249 5.92634 12.4734 0.5
684 11.4224 12.7349 4.09107 0.5
685 11.8208 11.9645 4.39166 0.5
686 10.7473 7.06948 11.5807 0.5
687 4.74194 9.30795 13.2026 0.5
688 0.948677 8.3388 5.33779 0.5
689 3.44983 3.03064 2.13124 0.5
690 4.17975 8.59132 6.89576 0.5
691 13.3514 10.8414 12.0571 0.5
692 4.30277 0.89804 13.2856 0.5
693 11.2406 5.65159 12.852 0.5
694 5.54156 8.8645 9.53731 0.5
695 11.9416 8.36503 2.53504 0.5
696 10.8285 3.005 8.79768 0.5
697 13.1561 9.9068 7.9571 0.5
698 5.95322 10.2209 6.33352 0.5
699 2.92683 7.78277 0.0951934 0.5
700 12.6006 8.63363 3.4203 0.5
701 9.3824 8.10467 12.9994 0.5
702 3.60127 1.8791 8.18309 0.5
703 0.739659 5.05358 12.8275 0.5
704 8.2424 3.39559 8.43704 0.5
705 10.5816 7.89094 7.98159 0.5
706 6.99472 11.6679 5.94415 0.5
707 3.84308 4.68641 8.77534 0.5
708 0.702647 1.71743 1.94889 0.5
709 10.1459 0.0426255 0.271778 0.5
710 7.06995 6.54839 3.98066 0.5
711 0.673426 0.0119037 13.2802 0.5
712 12.4205 2.11408 9.55653 0.5
713 8.57289 9.62789 8.07654 0.5
714 13.1876 3.73012 8.03592 0.5
715 13.4266 9.01732 3.20513 0.5
716 1.8362 2.36204 9.95452 0.5
717 2.93117 7.12105 0.80249 0.5
718 11.465 1.10874 8.48219 0.5
719 4.44963 10.4461 11.5628 0.5
720 12.7764 11.9541 2.98253 0.5
721 10.8828 5.06985 8.81951 0.5
722 5.12547 13.0133 13.2336 0.5
723 3.2237 10.1143 9.59306 0.5
724 9.94511 0.248753 9.20428 0.5
725 2.5291 1.76677 5.55139 0.5
726 7.38372 2.73299 7.11426 0.5
727 5.04443 3.56603 0.0462822 0.5
728 12.9491 2.95745 5.19768 0.5
729 9.21134 4.50523 1.48062 0.5
730 8.35692 6.15521 6.10565 0.5
731 11.0642 0.134069 0.817521 0.5
732 2.62215 3.42489 8.21305 0.5
733 7.75801 11.5542 0.822661 0.5
734 9.96238 11.7452 6.70136 0.5
735 2.92176 6.1518 8.59448 0.5
736 4.28258 5.05347 11.392 0.5
737 6.56407 3.92377 3.03187 0.5
738 1.82079 7.69072 11.5356 0.5
739 7.40509 0.502035 7.54025 0.5
740 11.5878 1.61131 9.36013 0.5
741 7.82825 4.07564 4.9358 0.5
742 5.44189 9.24049 1.33771 0.5
743 7.0689 7.86929 5.29152 0.5
744 5.11911 3.93379 12.748 0.5
745 8.0449 6.07742 12.2954 0.5
746 4.86297 8.23675 9.24439 0.5
747 13.2545 13.5642 11.5399 0.5
748 7.53224 9.12362 8.10382 0.5
749 6.08971 9.76565 3.81842 0.5
750 1.37517 1.6349 13.0314 0.5
751 0.125962 8.44187 12.8258 0.5
752 1.86582 1.17406 12.2771 0.5
753 7.07936 1.37684 0.526933 0.5
754 2.78663 11.9164 11.6487 0.5
755 5.75985 2.84186 0.0787652 0.5
756 6.5872 7.98614 1.80807 0.5
757 11.8916 6.31115 12.4627 0.5
758 4.31153 12.3524 4.87245 0.5
759 12.4728 8.60067 1.64313 0.5
760 7.2504 4.87475 4.35005 0.5
761 3.19288 11.7368 0.263877 0.5
762 13.4616 3.50672 1.71864 0.5
763 11.5335 13.4462 4.76978 0.5
764 8.75263 9.29866 3.33166 0.5
765 13.2463 2.54179 1.2454 0.5
766 8.17446 3.31946 4.44091 0.5
767 3.90174 7.08337 1.20896 0.5
768 12.6459 13.4477 10.8348 0.5
769 11.5997 2.12318 5.81452 0.5
770 11.7715 7.70054 6.85368 0.5
771 7.72796 7.68329 6.12201 0.5
772 1.5955 1.67102 10.7028 0.5
773 9.11742 3.63098 8.03796 0.5
774 8.83277 0.935182 3.03289 0.5
775 9.79133 13.1076 10.9798 0.5
776 2.4662 9.51291 6.29991 0.5
777 10.9029 11.8176 3.95492 0.5
778 11.7242 11.8963 3.40122 0.5
779 7.7103 8.56927 5.50879 0.5
780 3.51184 9.98485 8.67481 0.5
781 13.4009 1.66821 6.20522 0.5
782 11.1956 3.31713 4.0887 0.5
783 0.326986 9.96371 12.3383 0.5
784 2.61696 2.68369 5.06221 0.5
785 10.3355 9.53803 5.62797 0.5
786 8.80426 4.12714 4.70017 0.5
787 5.95858 12.4537 2.49008 0.5
788 11.7142 6.74409 11.4621 0.5
789 9.1537 2.61235 2.39857 0.5
790 7.77771 0.81934 2.7581 0.5
791 5.697 7.0514 12.3555 0.5
792 6.41347 2.36053 7.03842 0.5
793 6.76501 9.09741 4.20662 0.5
794 12.17 0.658135 3.10089 0.5
795 7.44605 8.29656 4.5453 0.5
796 2.31139 11.6981 8.66847 0.5
797 4.31564 4.03793 11.3045 0.5
798 2.00905 2.91259 4.25585 0.5
799 13.4419 0.885524 5.57448 0.5
800 1.07363 8.21324 13.1447 0.5
801 7.76564 6.16749 3.23944 0.5
802 4.70608 10.8257 12.4277 0.5
803 10.2023 11.2237 10.9728 0.5
804 -0.0130255 6.51196 10.2913 0.5
805 9.02106 8.85082 2.35432 0.5
806 2.64265 7.80964 8.61864 0.5
807 3.45363 5.4088 8.09101 0.5
808 1.77975 9.26522 2.82793 0.5
809 9.17946 4.19798 12.0458 0.5
810 2.01009 11.9325 11.128 0.5
811 10.5902 7.10808 3.36426 0.5
812 2.60166 8.38609 11.422 0.5
813 7.72588 5.11479 12.2595 0.5
814 9.58635 0.316074 5.47305 0.5
815 12.213 12.8348 8.42144 0.5
816 8.49652 7.79257 0.889614 0.5
817 10.974 11.3428 3.0225 0.5
818 3.41392 10.9202 13.5108 0.5
819 6.22756 13.1022 7.31539 0.5
820 0.104583 12.6502 9.36634 0.5
821 11.3787 2.74921 4.94213 0.5
822 9.53488 1.16641 4.9561 0.5
823 9.65153 0.10871 10.1689 0.5
824 1.96262 8.32626 5.13642 0.5
825 7.96376 0.599876 1.80051 0.5
826 7.22851 13.1114 7.66467 0.5
827 10.6998 0.350302 1.8973 0.5
828 5.66446 4.29456 2.8629 0.5
829 4.43194 1.88166 7.68156 0.5
830 6.02538 13.4279 8.96054 0.5
831 11.6882 0.0947027 8.20019 0.5
832 12.94 5.03715 9.35185 0.5
833 2.75371 11.1001 10.9551 0.5
834 9.29529 1.17739 12.7912 0.5
835 1.32478 5.7622 13.1262 0.5
836 7.86946 9.15074 11.255 0.5
837 6.00233 3.58038 13.2509 0.5
838 12.2489 13.3112 11.8312 0.5
839 5.26524 5.66278 1.42579 0.5
840 7.08242 12.8027 13.2395 0.5
841 6.13551 11.2591 6.55852 0.5
842 12.8858 4.19003 11.7257 0.5
843 13.1372 3.28731 13.2221 0.5
844 4.54014 4.33806 13.38 0.5
845 9.99279 5.71407 6.27518 0.5
846 6.69032 12.8194 8.60908 0.5
847 4.04646 7.68456 6.26602 0.5
848 4.93694 7.3383 11.7424 0.5
849 0.534586 12.4921 5.63643 0.5
850 10.1788 11.3134 12.0624 0.5
851 7.00475 10.8054 6.54443 0.5
852 6.24924 10.5677 7.26131 0.5
853 4.09587 7.59222 9.14825 0.5
854 10.7417 6.19075 3.5137 0.5
855 9.31648 10.9205 3.00749 0.5
856 2.20912 0.133918 3.77737 0.5
857 9.76541 4.48348 11.2311 0.5
858 7.79459 10.0461 8.49777 0.5
859 10.8791 5.27462 6.02373 0.5
860 10.0407 4.62971 6.10679 0.5
861 11.7223 0.263218 6.60937 0.5
862 10.9451 6.19462 11.1278 0.5
863 7.14319 8.33326 6.21077 0.5
864 8.42452 6.93846 7.63847 0.5
865 12.1502 2.99845 13.21 0.5
866 5.30285 13.0617 1.95717 0.5
867 11.8356 3.0767 0.512392 0.5
868 9.69637 9.80451 9.33787 0.5
869 3.53607 0.347031 13.3822 0.5
870 3.51493 8.47584 6.09068 0.5
871 11.8321 8.34093 5.10228 0.5
872 1.267 6.41301 12.3865 0.5
873 12.5902 1.0243 2.28324 0.5
874 7.53683 5.74636 13.1258 0.5
875 7.78133 11.8744 5.33049 0.5
876 2.06621 6.24 8.12313 0.5
877 11.5685 8.04748 7.79575 0.5
878 2.20733 11.8575 0.433569 0.5
879 2.92958 3.92445 7.39036 0.5
880 11.6467 0.808929 2.13369 0.5
881 10.7503 10.4448 12.4019 0.5
882 1.75735 10.0873 3.46642 0.5
883 9.98253 12.1855 1.20325 0.5
884 12.5028 3.22997 1.23399 0.5
885 7.86387 10.6551 10.4033 0.5
886 1.12164 3.00759 7.58314 0.5
887 -0.0138279 0.819318 13.0374 0.5
888 5.49783 4.93848 2.21622 0.5
889 10.7881 4.00888 8.92358 0.5
890 11.7535 8.71302 6.80852 0.5
891 3.48448 6.19418 3.12956 0.5
892 9.25391 0.842075 9.48624 0.5
893 10.5802 3.59599 8.02071 0.5
894 7.56726 7.95207 1.42063 0.5
895 11.8943 8.83171 0.873681 0.5
896 7.07611 11.9279 0.208579 0.5
897 6.39796 12.791 3.28431 0.5
898 5.02579 12.4163 2.593 0.5
899 10.1459 4.8391 10.3031 0.5
900 11.855 11.4185 9.33687 0.5
901 13.5194 4.91103 10.0533 0.5
902 10.9276 6.09186 8.84501 0.5
903 9.60454 8.23477 4.17471 0.5
904 8.55654 3.54601 5.40815 0.5
905 0.719761 6.05482 6.00791 0.5
906 13.0213 5.1779 3.40389 0.5
907 6.71027 4.20048 10.4241 0.5
908 8.82934 0.354375 4.90609 0.5
909 10.1002 2.65819 2.82455 0.5
910 8.37478 2.34143 7.09294 0.5
911 6.05508 6.09961 11.8909 0.5
912 8.7645 9.3493 11.4946 0.5
913 11.1012 5.79304 0.235848 0.5
914 4.47674 0.0710588 0.249119 0.5
915 8.51375 2.50927 4.94165 0.5
916 10.9447 8.1465 7.01599 0.5
917 11.8817 0.53999 12.029 0.5
918 8.33567 6.04934 8.17682 0.5
919 13.2638 12.3189 1.41549 0.5
920 13.4858 11.7611 10.5523 0.5
921 5.89091 6.38388 7.34586 0.5
922 12.9692 3.21869 12.2191 0.5
923 1.95374 2.64332 8.00106 0.5
924 11.3371 11.9536 9.92981 0.5
925 10.6081 3.49489 2.51487 0.5
926 4.25163 10.2561 13.2538 0.5
927 1.33455 7.41839 5.11535 0.5
928 13.2683 6.30095 5.82732 0.5
929 1.52992 2.61705 10.9511 0.5
930 10.3804 9.91799 8.65009 0.5
931 5.39583 9.33264 12.3386 0.5
932 4.29813 8.63555 3.7297 0.5