ITEM: TIMESTEP
640000
ITEM: NUMBER OF ATOMS
1000
ITEM: BOX BOUNDS xy xz yz pp pp pp
0.0000000000000000e+00 1.3572088000000001e+01 0.0000000000000000e+00
0.0000000000000000e+00 1.3572088000000001e+01 0.0000000000000000e+00
0.0000000000000000e+00 1.3572088000000001e+01 0.0000000000000000e+00
ITEM: ATOMS id x y z radius
1 4.419 4.10761 11.9515 0.5
2 4.50472 11.1924 4.00939 0.5
3 8.67339 10.1906 3.26169 0.5
4 10.0122 5.94894 1.16604 0.5
5 8.77253 8.01404 10.4395 0.5
6 3.53166 12.9043 4.88058 0.5
7 2.83012 8.46138 1.16548 0.5
8 13.2643 11.3741 2.16167 0.5
9 1.68303 8.09218 6.65284 0.5
10 3.29037 0.242506 11.0711 0.5
11 0.334214 9.37413 9.17773 0.5
12 10.0744 5.44576 0.192426 0.5
13 8.21437 11.5195 5.42328 0.5
14 10.9356 2.32974 4.33741 0.5
15 5.85503 1.68528 5.32902 0.5
16 7.72055 6.90362 9.4679 0.5
17 6.88551 12.2226 11.0669 0.5
18 2.6402 8.30214 6.21919 0.5
19 9.97317 5.15118 1.79272 0.5
20 10.5569 10.9384 3.08327 0.5
21 2.23988 4.6963 1.16541 0.5
22 1.15402 6.15079 12.583 0.5
23 1.85984 1.43021 10.434 0.5
24 7.45563 7.31284 1.96547 0.5
25 0.687514 5.96663 1.9673 0.5
26 10.2879 10.2334 6.40948 0.5
27 11.261 6.4801 12.4523 0.5
28 4.85593 10.9528 11.3287 0.5
29 13.5148 6.10662 1.34115 0.5
30 8.45591 10.9883 1.71659 0.5
31 0.661673 0.445797 8.35429 0.5
32 9.1128 2.44467 12.712 0.5
33 13.0025 5.87091 9.31122 0.5
34 3.5378 8.67288 5.73514 0.5
35 11.6487 6.15504 13.3634 0.5
36 8.81492 1.95754 4.66344 0.5
37 0.870538 1.46717 2.72133 0.5
38 3.4195 1.47302 1.80081 0.5
39 10.2987 4.22114 1.36755 0.5
40 5.92168 6.14314 6.4081 0.5
41 7.54847 11.2803 4.69986 0.5
42 6.84032 5.47783 3.49877 0.5
43 5.89845 5.19884 10.466 0.5
44 4.66224 11.4331 8.25259 0.5
45 7.47387 6.375 2.06353 0.5
46 10.3485 10.8262 0.165989 0.5
47 2.60122 9.03772 5.47433 0.5
48 7.74738 10.6171 1.05715 0.5
49 6.13261 11.7144 9.5506 0.5
50 5.55238 1.65598 9.95571 0.5
51 13.1389 10.1386 7.32713 0.5
52 6.28704 10.6491 7.28737 0.5
53 9.85934 3.41671 1.82036 0.5
54 11.6953 11.5455 4.19646 0.5
55 13.5119 0.212343 5.67682 0.5
56 0.0732452 3.88984 3.35494 0.5
57 0.277106 11.4297 11.3367 0.5
58 5.48695 8.56656 10.4493 0.5
59 1.60976 10.6484 11.0214 0.5
60 7.80742 5.2225 9.66463 0.5
61 4.03457 0.924198 11.0362 0.5
62 0.858231 8.16127 0.946022 0.5
63 11.5943 8.43949 2.127 0.5
64 12.0806 1.89069 9.7043 0.5
65 0.0391509 1.62296 4.87753 0.5
66 12.8709 1.16028 2.06056 0.5
67 8.23266 2.83312 8.51084 0.5
68 3.14365 1.74313 2.73232 0.5
69 11.4421 2.53808 10.3479 0.5
70 12.7963 3.36079 9.74664 0.5
71 3.27481 6.18658 8.75263 0.5
72 7.34895 1.96875 11.1526 0.5
73 8.51915 6.96103 8.78476 0.5
74 6.30802 4.65464 9.85232 0.5
75 8.95747 0.306508 10.2804 0.5
76 12.2177 2.94322 13.2332 0.5
77 10.4931 2.76539 3.4894 0.5
78 8.77147 3.00146 5.048 0.5
79 4.13738 12.5117 5.6252 0.5
80 5.37574 3.11731 8.4596 0.5
81 1.32336 3.59247 11.6827 0.5
82 1.43801 8.84988 0.440253 0.5
83 3.19648 0.708988 6.08489 0.5
84 -0.00508675 8.60207 8.67511 0.5
85 13.1177 3.74261 6.82292 0.5
86 2.75317 0.631764 0.246545 0.5
87 4.44039 5.62549 5.82859 0.5
88 6.68607 5.77275 4.44069 0.5
89 11.8704 12.5729 7.73626 0.5
90 4.25381 6.1745 4.26391 0.5
91 11.4439 7.57429 12.259 0.5
92 0.213798 1.6944 1.96563 0.5
93 0.357245 0.925911 12.04 0.5
94 4.49062 10.1901 12.7232 0.5
95 12.0127 1.5709 7.96631 0.5
96 11.9233 2.43988 4.36562 0.5
97 12.2342 2.49427 5.33017 0.5
98 10.4695 9.89458 0.343105 0.5
99 6.68155 8.81129 9.24634 0.5
100 0.399887 6.93367 6.45357 0.5
101 4.8718 11.6917 2.62193 0.5
102 8.61979 7.50723 9.54818 0.5
103 4.84137 5.11802 10.5369 0.5
104 6.51279 11.5692 5.80265 0.5
105 11.7474 12.474 6.75175 0.5
106 5.8025 2.10682 10.8159 0.5
107 12.7827 5.36884 7.06871 0.5
108 12.7125 10.2702 5.74396 0.5
109 1.33135 12.5688 8.5065 0.5
110 8.156 9.43738 8.62224 0.5
111 8.51924 13.3794 3.4379 0.5
112 6.44528 0.809416 5.39881 0.5
113 0.511005 13.2575 4.9613 0.5
114 7.46723 6.9008 2.92179 0.5
115 5.66129 6.49129 11.8589 0.5
116 13.4469 5.31816 1.94141 0.5
117 0.958769 1.35166 5.13865 0.5
118 10.7134 9.22961 6.40493 0.5
119 12.4042 8.27837 1.56994 0.5
120 5.42093 9.30992 3.99197 0.5
121 11.9106 13.3126 11.177 0.5
122 2.26931 3.24305 2.26391 0.5
123 11.8924 2.35125 8.75655 0.5
124 10.4517 11.1945 11.8893 0.5
125 4.65737 12.1127 3.53581 0.5
126 11.1667 11.3495 13.4774 0.5
127 7.90289 9.9714 11.1954 0.5
128 4.96989 3.20762 7.48714 0.5
129 2.11758 6.26031 12.4113 0.5
130 0.874885 12.0389 10.7596 0.5
131 7.84152 1.93936 1.85487 0.5
132 5.63867 12.1315 2.16502 0.5
133 0.819183 11.0896 10.7077 0.5
134 10.7341 11.7545 3.78854 0.5
135 12.1398 1.58531 5.73349 0.5
136 8.18394 4.88177 4.19115 0.5
137 3.10002 12.5392 5.81465 0.5
138 7.2948 12.1354 13.1715 0.5
139 5.47191 13.0283 13.3664 0.5
140 5.34006 3.47957 4.49852 0.5
141 1.83831 4.1434 4.25482 0.5
142 9.6776 3.36687 12.892 0.5
143 0.497206 12.9162 0.320531 0.5
144 8.74941 12.8432 8.79777 0.5
145 6.62578 6.98801 2.3038 0.5
146 9.85235 9.24485 8.6113 0.5
147 4.67091 6.44652 1.20359 0.5
148 12.3138 0.584606 11.3072 0.5
149 8.24263 7.097 10.4068 0.5
150 12.6706 11.6489 3.7321 0.5
151 6.90123 12.0254 10.0171 0.5
152 4.26736 4.90754 11.455 0.5
153 11.9068 8.26263 7.57784 0.5
154 2.7505 2.34845 1.98441 0.5
155 2.31118 7.74907 10.3116 0.5
156 8.15347 12.1902 0.241098 0.5
157 1.67888 0.735696 2.73979 0.5
158 1.66064 9.96467 8.13038 0.5
159 3.78487 1.87159 9.34285 0.5
160 9.41504 0.447993 11.0642 0.5
161 12.4292 2.66147 10.3806 0.5
162 7.48253 2.25216 8.14107 0.5
163 11.0961 9.78467 1.127 0.5
164 9.9591 3.41836 11.2001 0.5
165 7.18341 11.4005 11.4108 0.5
166 10.8992 12.8591 7.25483 0.5
167 10.8685 8.19588 7.98437 0.5
168 1.02228 2.78261 7.28794 0.5
169 10.4248 11.2997 12.8489 0.5
170 3.97321 6.23741 0.711487 0.5
171 10.6489 5.2136 1.06887 0.5
172 11.9218 8.02661 10.3943 0.5
173 8.94799 10.2166 2.26252 0.5
174 4.59339 0.843391 0.0604362 0.5
175 2.54309 6.26867 4.0613 0.5
176 3.99615 5.94116 3.33346 0.5
177 9.05525 4.45235 6.05983 0.5
178 5.87036 2.37899 4.62519 0.5
179 12.5969 5.73314 1.62011 0.5
180 9.51904 3.06163 11.957 0.5
181 10.8003 11.339 9.91061 0.5
182 2.80387 11.8147 1.25518 0.5
183 8.30351 6.9304 6.19495 0.5
184 10.5587 5.84273 8.94923 0.5
185 8.70026 13.2868 11.0798 0.5
186 4.71628 8.36147 2.7954 0.5
187 5.35 0.450389 13.2354 0.5
188 4.97395 5.79666 6.61613 0.5
189 0.353229 11.3162 6.34762 0.5
190 9.4414 13.0401 3.26856 0.5
191 9.27638 7.00544 3.55471 0.5
192 10.1152 1.00078 13.5172 0.5
193 11.0918 2.16671 9.42128 0.5
194 9.54587 13.0974 10.592 0.5
195 0.460391 10.0354 12.5259 0.5
196 8.84187 0.965733 4.35585 0.5
197 3.15717 6.95046 8.06265 0.5
198 6.03174 6.10055 12.728 0.5
199 12.0846 0.664965 8.43551 0.5
200 6.88604 6.94597 1.29655 0.5
201 13.2443 3.74825 7.74299 0.5
202 6.3963 13.2028 8.30812 0.5
203 1.79612 3.78891 1.45609 0.5
204 3.54044 8.15537 9.12193 0.5
205 12.6328 13.3646 3.57586 0.5
206 0.893989 1.42478 10.2279 0.5
207 4.30618 11.8019 9.10871 0.5
208 9.30305 3.89552 5.30689 0.5
209 5.62326 1.87683 3.82001 0.5
210 4.24846 6.5271 5.23125 0.5
211 4.46976 4.50324 9.90633 0.5
212 3.39969 5.59909 4.03459 0.5
213 3.52067 1.68121 6.09067 0.5
214 10.12 4.45082 11.1564 0.5
215 7.83647 6.77121 1.15053 0.5
216 6.30304 8.48648 0.119088 0.5
217 3.77759 11.0428 4.73551 0.5
218 6.36508 8.19092 4.78657 0.5
219 8.65435 0.953693 3.23927 0.5
220 7.26698 2.33485 10.2634 0.5
221 3.24352 3.33682 6.35661 0.5
222 6.60888 11.3436 4.90267 0.5
223 4.66474 9.24023 3.28448 0.5
224 12.1198 9.01787 4.04605 0.5
225 8.03294 10.9682 11.2029 0.5
226 10.5668 6.08575 13.1715 0.5
227 13.5054 7.52787 9.93316 0.5
228 4.26594 11.5407 5.57355 0.5
229 5.7128 4.30731 6.23271 0.5
230 6.13584 9.64125 8.87393 0.5
231 8.25308 5.98943 9.06357 0.5
232 8.00275 4.64525 12.798 0.5
233 1.44358 0.528145 9.8449 0.5
234 11.5051 1.87563 5.04918 0.5
235 1.43963 10.4603 3.10691 0.5
236 10.761 6.12407 0.599358 0.5
237 5.19815 7.95821 6.57727 0.5
238 0.781216 12.2621 4.9453 0.5
239 9.83383 7.86968 3.91116 0.5
240 1.29097 4.73746 13.3585 0.5
241 4.27339 5.69303 1.538 0.5
242 3.20442 0.783168 2.51741 0.5
243 2.33122 9.38081 4.04405 0.5
244 3.63241 11.797 6.22324 0.5
245 1.41729 11.4658 11.5028 0.5
246 9.65584 10.2826 8.5175 0.5
247 3.61875 0.529062 10.2009 0.5
248 7.47486 2.46518 2.55525 0.5
249 10.5023 1.91026 13.433 0.5
250 9.86036 1.77537 0.622228 0.5
251 3.76595 9.96415 12.0361 0.5
252 8.53076 8.38276 12.9927 0.5
253 1.8208 8.30879 1.19878 0.5
254 10.8128 2.52975 2.53267 0.5
255 8.38787 9.46638 2.54662 0.5
256 1.57915 13.2493 3.11722 0.5
257 0.588497 3.67901 7.18143 0.5
258 13.1902 6.30359 5.29988 0.5
259 5.37084 5.13856 9.68356 0.5
260 6.55888 11.3686 10.5365 0.5
261 11.7531 3.1795 6.03836 0.5
262 7.21922 12.0718 5.33636 0.5
263 1.69425 4.25373 8.42472 0.5
264 10.2181 10.9012 9.13709 0.5
265 1.53235 4.40236 5.15554 0.5
266 3.5771 13.4147 5.76242 0.5
267 5.41443 7.63371 9.08322 0.5
268 6.93204 2.40359 1.80487 0.5
269 9.25455 0.105392 8.65811 0.5
270 6.6828 10.1375 8.10086 0.5
271 11.1118 11.8389 7.41048 0.5
272 6.2114 9.27291 0.656923 0.5
273 7.67097 4.88018 3.30261 0.5
274 10.5296 5.11719 9.72514 0.5
275 2.50591 10.8678 1.16069 0.5
276 4.09983 3.20649 0.106018 0.5
277 7.52838 5.3596 13.1771 0.5
278 11.3169 10.486 0.526562 0.5
279 9.9253 11.8017 6.03073 0.5
280 4.71973 12.359 1.8317 0.5
281 6.69778 2.60392 10.9754 0.5
282 0.185987 11.6705 1.25307 0.5
283 5.59529 4.59233 1.76001 0.5
284 1.79231 10.8228 0.379856 0.5
285 3.39937 9.73519 5.72647 0.5
286 2.72361 0.748695 12.7837 0.5
287 7.72738 7.09269 6.97737 0.5
288 5.81087 13.4879 6.67179 0.5
289 2.07878 10.4526 3.84662 0.5
290 1.37062 12.9603 5.47947 0.5
291 5.9225 0.0169139 5.73236 0.5
292 4.35215 3.61052 12.8412 0.5
293 10.6188 5.54476 3.98411 0.5
294 2.42657 9.88135 5.95854 0.5
295 2.68846 1.36452 6.49767 0.5
296 13.5278 4.51471 7.09575 0.5
297 10.441 10.5059 11.1336 0.5
298 9.65994 4.86602 12.0003 0.5
299 1.93829 0.409487 13.3281 0.5
300 9.35338 4.3658 1.74048 0.5
301 5.8925 7.49549 11.7702 0.5
302 3.04956 9.15605 3.27429 0.5
303 11.8533 8.91313 2.94963 0.5
304 0.301796 7.12314 5.54156 0.5
305 8.07159 12.8155 7.96349 0.5
306 11.4971 8.17189 1.16372 0.5
307 2.52283 7.0487 3.42278 0.5
308 0.0562516 9.81893 11.6809 0.5
309 12.8265 13.3309 12.6941 0.5
310 8.6316 13.5382 4.43391 0.5
311 13.3901 6.2234 6.89184 0.5
312 7.59962 11.6166 10.5858 0.5
313 0.551811 9.98214 3.39344 0.5
314 6.09803 12.6938 9.69694 0.5
315 12.5604 4.86605 1.94923 0.5
316 8.47291 6.12362 8.06895 0.5
317 13.0781 8.74592 4.10363 0.5
318 0.153877 5.27446 6.55185 0.5
319 10.8568 11.4293 0.832244 0.5
320 5.77937 3.46584 6.84888 0.5
321 2.46798 12.9762 3.41614 0.5
322 10.1989 13.3787 1.18124 0.5
323 4.05074 1.41789 2.53273 0.5
324 11.1193 3.26339 3.02929 0.5
325 1.74088 5.31507 0.463627 0.5
326 10.2975 12.8619 0.333819 0.5
327 8.58726 3.59245 7.87717 0.5
328 12.1217 6.92455 12.786 0.5
329 9.04214 2.38106 8.88227 0.5
330 8.28333 1.29416 5.1816 0.5
331 5.08773 2.43325 3.19526 0.5
332 11.5752 1.38394 8.88171 0.5
333 13.4172 1.5115 2.87517 0.5
334 5.1602 5.61691 1.66951 0.5
335 9.50612 0.360056 4.75433 0.5
336 4.64445 2.45971 9.02014 0.5
337 11.9163 1.12757 12.1018 0.5
338 7.84833 6.09318 10.0637 0.5
339 10.0729 4.29457 2.36356 0.5
340 12.0394 3.86381 11.4156 0.5
341 8.46246 0.103382 9.38326 0.5
342 6.63604 0.285105 6.33864 0.5
343 7.17621 6.05836 9.3035 0.5
344 5.29633 6.87581 6.64891 0.5
345 8.62416 7.80176 5.88561 0.5
346 1.14745 6.71978 5.86824 0.5
347 13.0443 11.7069 0.455391 0.5
348 1.43851 4.31226 0.701187 0.5
349 7.74067 6.18551 6.59715 0.5
350 8.85873 7.34478 11.2262 0.5
351 2.12323 8.61307 10.4647 0.5
352 8.36533 12.6665 7.11243 0.5
353 8.44563 7.48311 0.788602 0.5
354 2.3861 2.89287 5.77402 0.5
355 1.71456 7.0495 3.97872 0.5
356 11.8462 13.5247 4.1985 0.5
357 6.26384 12.5331 3.79446 0.5
358 3.94398 0.864892 9.30846 0.5
359 7.12541 9.61153 8.81677 0.5
360 12.3524 3.98676 6.26371 0.5
361 3.61536 1.16691 6.93551 0.5
362 1.54048 1.51667 9.45238 0.5
363 10.519 12.3188 1.11741 0.5
364 3.31942 7.59679 1.38212 0.5
365 2.4234 7.58867 0.896017 0.5
366 6.48123 9.08289 8.17833 0.5
367 10.2523 11.8884 0.142642 0.5
368 6.25441 5.73877 9.70158 0.5
369 1.97119 3.36356 5.04356 0.5
370 0.118468 10.445 5.84579 0.5
371 9.25533 0.342789 3.75588 0.5
372 0.397389 4.85263 3.55288 0.5
373 3.6845 2.84654 12.8464 0.5
374 0.766102 9.08161 13.0945 0.5
375 0.68492 10.1589 8.67447 0.5
376 1.16622 10.5969 3.9949 0.5
377 7.60002 5.64065 3.96721 0.5
378 5.83483 9.39552 13.2918 0.5
379 4.74404 4.73966 1.27218 0.5
380 7.86643 4.71117 0.213619 0.5
381 10.1237 3.75156 8.47913 0.5
382 9.56549 3.56551 7.66498 0.5
383 2.22613 4.55349 0.0244983 0.5
384 5.36636 9.64715 12.4563 0.5
385 12.9979 10.9226 1.1598 0.5
386 0.290843 4.15005 4.27537 0.5
387 2.33096 6.38089 11.4172 0.5
388 1.40678 2.26377 10.1956 0.5
389 3.02699 9.85261 11.4196 0.5
390 5.41706 4.32176 10.2867 0.5
391 6.7883 0.744534 1.80332 0.5
392 13.2124 4.68447 2.79377 0.5
393 2.19401 4.92239 9.09726 0.5
394 8.99799 9.56028 8.17804 0.5
395 1.53375 0.65324 8.82394 0.5
396 0.315092 2.32644 2.67226 0.5
397 7.10167 1.50411 1.31326 0.5
398 9.00016 12.1197 2.9543 0.5
399 1.03078 4.69075 4.37779 0.5
400 7.05809 8.92181 5.16087 0.5
401 9.64158 2.56374 13.535 0.5
402 4.72427 7.34917 5.81035 0.5
403 6.5549 0.568049 7.99812 0.5
404 11.2678 11.2104 12.4729 0.5
405 12.1175 5.34772 13.2677 0.5
406 6.97564 3.1559 1.09167 0.5
407 1.6658 11.3177 3.62287 0.5
408 2.33407 3.89511 5.91806 0.5
409 3.81015 4.83379 10.552 0.5
410 11.389 2.32127 3.37385 0.5
411 4.90237 5.70399 0.737823 0.5
412 5.20986 0.109014 0.571783 0.5
413 2.81806 5.75057 7.73434 0.5
414 2.9307 8.32384 10.8879 0.5
415 8.26289 10.2593 12.0332 0.5
416 9.1678 11.1725 5.55005 0.5
417 1.07056 13.4281 9.0579 0.5
418 9.4052 1.12134 10.4056 0.5
419 3.37127 13.1303 10.2789 0.5
420 3.78885 0.171868 6.76763 0.5
421 13.4823 5.00884 9.23448 0.5
422 8.73853 4.6584 5.01407 0.5
423 12.2562 13.3875 2.69007 0.5
424 2.97768 3.47838 5.28692 0.5
425 8.80494 8.35073 11.3752 0.5
426 0.53421 13.0486 8.22318 0.5
427 7.54252 2.31852 1.00783 0.5
428 0.900843 8.54854 9.01987 0.5
429 11.5326 5.7964 8.44578 0.5
430 9.55025 13.2057 11.5396 0.5
431 2.18319 5.03633 8.14482 0.5
432 12.956 2.17375 2.11637 0.5
433 7.43777 11.3508 0.304587 0.5
434 0.329389 3.3148 13.4804 0.5
435 10.8666 8.85138 1.50563 0.5
436 7.01099 5.31117 10.1503 0.5
437 4.07675 9.14447 6.40913 0.5
438 5.79872 3.68722 7.78424 0.5
439 11.0755 10.6141 10.393 0.5
440 9.57702 10.9071 6.44223 0.5
441 5.79008 0.903022 6.10658 0.5
442 1.31708 7.11142 6.83256 0.5
443 0.94296 12.223 0.97696 0.5
444 9.23279 9.00467 13.2688 0.5
445 4.93969 8.39084 3.76901 0.5
446 3.37238 6.35804 4.61079 0.5
447 2.00523 9.05457 6.22466 0.5
448 5.36518 9.81735 0.511537 0.5
449 3.64552 12.7275 11.1091 0.5
450 3.40274 2.40364 1.25629 0.5
451 7.95157 3.26716 0.892094 0.5
452 2.35235 8.42224 0.363987 0.5
453 5.02809 9.21305 2.30472 0.5
454 2.99929 0.277349 3.4512 0.5
455 1.75739 2.61915 11.8304 0.5
456 8.28804 0.0841191 8.42317 0.5
457 12.2015 11.1804 8.96862 0.5
458 4.63146 0.68852 10.1905 0.5
459 13.1447 1.95144 5.68736 0.5
460 12.6884 6.21992 13.2972 0.5
461 11.713 8.4982 11.9165 0.5
462 10.1534 4.47483 7.72159 0.5
463 6.68185 3.33395 7.32444 0.5
464 0.0695846 8.55178 9.72206 0.5
465 4.68225 10.0228 11.7477 0.5
466 2.87041 13.3726 6.47924 0.5
467 1.54383 7.81196 0.43647 0.5
468 0.233983 7.73964 9.00904 0.5
469 2.12345 3.33964 11.228 0.5
470 1.37128 6.59798 11.7336 0.5
471 4.03476 1.45427 10.1807 0.5
472 10.7518 6.51557 3.9562 0.5
473 11.0552 8.43188 6.98369 0.5
474 3.53326 7.18768 9.00485 0.5
475 6.6224 3.77454 6.48547 0.5
476 5.82419 1.17262 10.8447 0.5
477 6.04085 8.10913 9.69832 0.5
478 3.24106 12.1261 0.401274 0.5
479 8.53918 7.45601 13.3302 0.5
480 4.23487 10.4714 8.10601 0.5
481 2.42601 3.86879 0.705594 0.5
482 11.0546 13.1069 0.91925 0.5
483 8.88261 11.0938 2.70864 0.5
484 9.95925 6.92651 4.26475 0.5
485 5.52824 4.36949 2.69091 0.5
486 3.70167 11.1873 8.582 0.5
487 4.35213 3.07083 8.24922 0.5
488 5.66487 5.18694 6.77337 0.5
489 3.54983 1.11855 3.41859 0.5
490 0.609699 12.4877 9.17503 0.5
491 2.20399 7.24674 11.9457 0.5
492 0.964309 5.17485 12.5704 0.5
493 12.3478 8.5448 11.1381 0.5
494 6.9459 5.02406 0.38838 0.5
495 6.5459 7.70418 0.678176 0.5
496 6.95721 0.200626 13.3742 0.5
497 4.84507 4.79071 6.35128 0.5
498 3.34438 11.8179 5.16728 0.5
499 6.43995 1.83061 11.5503 0.5
500 9.75476 9.35535 6.15412 0.5
501 5.21941 1.581 4.60936 0.5
502 9.26432 10.6228 9.41423 0.5
503 7.03154 5.92801 12.5881 0.5
504 2.25614 1.38573 13.3698 0.5
505 3.54239 3.66371 12.2006 0.5
506 3.33336 11.104 1.66672 0.5
507 7.73342 4.01155 3.9293 0.5
508 0.279834 1.14752 5.79824 0.5
509 5.43214 5.38196 5.80834 0.5
510 7.32577 10.4539 11.8021 0.5
511 6.20394 0.849959 7.08004 0.5
512 9.84205 11.5979 3.21853 0.5
513 4.57997 4.15033 2.96583 0.5
514 5.9655 8.41485 1.12623 0.5
515 2.2376 9.7893 3.06458 0.5
516 5.57078 8.92407 3.1064 0.5
517 1.01405 3.67987 4.72736 0.5
518 2.60453 6.83758 8.86834 0.5
519 5.23037 7.60244 10.0883 0.5
520 1.78704 0.820148 0.588218 0.5
521 11.2538 5.83703 4.60412 0.5
522 2.457 9.02103 11.4497 0.5
523 13.3557 8.27594 3.28335 0.5
524 0.893765 0.317702 5.63223 0.5
525 11.0806 8.97777 0.53047 0.5
526 8.8938 12.2423 7.84981 0.5
527 7.4824 11.0959 1.92968 0.5
528 0.934876 0.308721 0.0986818 0.5
529 13.4751 12.528 0.963806 0.5
530 11.8346 2.94102 9.57932 0.5
531 11.3426 8.60002 11.0246 0.5
532 6.20982 9.09058 4.5948 0.5
533 5.99224 7.81621 10.7183 0.5
534 2.65401 13.0398 11.1589 0.5
535 8.21581 12.6251 12.896 0.5
536 1.85198 12.2261 3.5435 0.5
537 2.73721 10.8919 8.84393 0.5
538 8.17266 9.93146 1.66987 0.5
539 1.99169 7.89397 3.60572 0.5
540 0.588624 3.06403 8.00887 0.5
541 4.12465 11.5837 2.00256 0.5
542 8.04536 0.0585776 12.9794 0.5
543 12.9376 5.67438 6.09316 0.5
544 8.98689 2.78043 7.97624 0.5
545 1.62791 7.21779 2.93645 0.5
546 0.960401 0.403826 12.7071 0.5
547 10.4671 5.22088 4.97855 0.5
548 11.7652 13.4025 6.99363 0.5
549 11.8224 10.1927 9.04622 0.5
550 12.6136 12.5238 3.08899 0.5
551 6.15177 1.71658 1.78218 0.5
552 4.08 7.25903 0.737588 0.5
553 10.7032 6.26772 8.02038 0.5
554 3.72061 12.7274 6.51499 0.5
555 1.03108 4.04864 3.70134 0.5
556 7.15824 13.1004 12.7303 0.5
557 6.9165 11.3464 1.1017 0.5
558 4.69551 1.55063 9.55952 0.5
559 3.25335 10.5523 7.99909 0.5
560 7.03091 2.52976 11.8838 0.5
561 8.17271 8.59459 12.0618 0.5
562 13.2452 2.60193 13.2697 0.5
563 8.4424 6.48601 7.12276 0.5
564 6.54056 5.28449 13.1305 0.5
565 9.65017 4.88309 5.39237 0.5
566 6.67698 1.62946 10.5985 0.5
567 13.0303 4.47831 3.77921 0.5
568 6.76022 0.966524 11.3783 0.5
569 11.0687 7.03991 11.5962 0.5
570 13.2117 8.66405 2.2734 0.5
571 2.53104 1.07185 3.1447 0.5
572 5.16588 3.36123 13.3624 0.5
573 0.479632 12.9041 5.8645 0.5
574 8.87203 7.96322 3.56171 0.5
575 8.80342 13.074 2.46986 0.5
576 3.86275 11.2957 7.63619 0.5
577 3.9428 9.24337 2.73749 0.5
578 1.80271 11.6139 1.04297 0.5
579 13.0307 9.90208 12.4133 0.5
580 3.06603 4.81699 7.60312 0.5
581 1.48788 13.505 8.07734 0.5
582 3.01933 12.0696 11.2518 0.5
583 2.77479 10.5725 0.238261 0.5
584 10.3272 6.14944 4.82869 0.5
585 12.9979 4.70935 6.33025 0.5
586 0.323636 5.89509 9.71603 0.5
587 12.8122 2.8581 1.26164 0.5
588 13.1995 12.6522 13.5071 0.5
589 13.4505 9.61477 8.28852 0.5
590 3.8481 12.1399 8.32184 0.5
591 3.65362 4.73036 12.3045 0.5
592 10.5986 11.375 10.8711 0.5
593 6.59474 9.61688 7.26045 0.5
594 13.0709 10.8783 6.53616 0.5
595 13.204 9.85681 6.4957 0.5
596 9.30561 9.57623 2.9564 0.5
597 2.56813 9.95276 8.58845 0.5
598 7.36426 11.0741 5.62445 0.5
599 11.2381 11.1151 8.91751 0.5
600 12.2185 5.98063 12.4476 0.5
601 2.88033 6.04497 3.19463 0.5
602 13.3418 6.44751 10.1614 0.5
603 2.75799 7.38464 11.1585 0.5
604 4.9414 1.53816 10.6949 0.5
605 7.2149 1.53153 12.1032 0.5
606 11.3233 9.28424 5.63777 0.5
607 8.64311 10.335 8.66171 0.5
608 8.62598 13.2297 12.1177 0.5
609 1.45367 11.8219 0.062481 0.5
610 1.35665 9.42592 9.03358 0.5
611 0.763004 9.25605 8.16882 0.5
612 5.34275 13.587 3.01548 0.5
613 3.88625 5.58569 4.94213 0.5
614 4.18023 13.5378 10.8375 0.5
615 3.56384 10.2424 8.84254 0.5
616 13.297 6.35014 2.19259 0.5
617 6.76278 6.13859 2.6933 0.5
618 11.6743 7.60274 8.21457 0.5
619 12.961 3.34406 11.78 0.5
620 0.801922 10.5407 11.6422 0.5
621 2.50865 4.38092 5.02815 0.5
622 5.8093 8.67664 8.83373 0.5
623 13.1664 7.76745 4.08846 0.5
624 12.7658 5.56978 2.57223 0.5
625 1.49254 3.91331 10.7205 0.5
626 2.77254 3.93475 1.66516 0.5
627 9.7838 6.38144 0.19158 0.5
628 13.0862 4.37075 10.0332 0.5
629 5.49812 3.88742 3.56125 0.5
630 3.30583 3.30967 0.920572 0.5
631 9.19626 1.00123 0.254961 0.5
632 6.54945 12.8082 13.4621 0.5
633 10.0551 0.808586 0.950753 0.5
634 10.0799 10.6906 10.14 0.5
635 10.1198 2.40587 12.6085 0.5
636 10.1315 3.96283 12.0304 0.5
637 0.357179 10.4029 6.8585 0.5
638 6.09973 1.28967 4.49947 0.5
639 9.24967 7.15032 10.3608 0.5
640 2.36084 4.13307 7.62227 0.5
641 7.31868 7.02744 5.98519 0.5
642 11.0911 5.36895 0.0687032 0.5
643 11.2115 1.01063 7.94007 0.5
644 7.70784 2.82655 11.0935 0.5
645 13.1391 11.1971 5.66005 0.5
646 9.14935 8.61329 12.3006 0.5
647 8.64161 4.66236 11.8947 0.5
648 7.67104 9.46144 11.9749 0.5
649 5.16802 7.90442 11.1141 0.5
650 2.96794 0.55344 7.12733 0.5
651 0.920304 6.12875 6.73446 0.5
652 5.32454 4.29836 7.16553 0.5
653 0.13437 5.61603 2.83555 0.5
654 3.18342 10.8114 11.8129 0.5
655 11.7098 11.803 9.55104 0.5
656 0.907337 11.2259 0.648858 0.5
657 10.9471 0.403008 7.084 0.5
658 9.42248 10.2572 5.79561 0.5
659 1.23093 9.45405 2.78831 0.5
660 0.752615 0.874973 9.30929 0.5
661 2.77664 7.69708 9.43215 0.5
662 3.48142 10.8254 5.6364 0.5
663 5.32739 12.8672 3.69632 0.5
664 5.17017 6.35932 5.74485 0.5
665 10.1402 10.9494 3.98607 0.5
666 5.23349 12.1685 9.88288 0.5
667 11.052 4.33959 8.33118 0.5
668 5.71808 2.95415 3.75238 0.5
669 8.05745 10.4827 2.52523 0.5
670 8.9242 13.1945 7.75845 0.5
671 6.90838 8.6131 0.908462 0.5
672 3.34158 2.61976 5.68054 0.5
673 5.38988 8.79689 0.363178 0.5
674 2.87776 8.05378 11.958 0.5
675 3.34072 5.26142 11.4154 0.5
676 2.47577 0.117157 2.64945 0.5
677 3.82555 9.44269 3.76906 0.5
678 12.8816 8.21082 10.3587 0.5
679 10.8003 12.2128 6.45087 0.5
680 5.12585 11.4117 1.66942 0.5
681 4.41921 1.44979 8.58018 0.5
682 1.91582 3.22436 10.2339 0.5
683 1.67387 5.60538 11.911 0.5
684 11.6464 13.0152 3.39548 0.5
685 12.2151 12.4603 4.02734 0.5
686 10.7535 8.07506 11.659 0.5
687 4.87057 9.39442 13.2787 0.5
688 0.98755 7.65196 6.06911 0.5
689 3.29353 3.21574 2.06476 0.5
690 4.53002 8.43908 7.08931 0.5
691 13.5287 10.6843 11.9699 0.5
692 4.61129 13.393 13.4042 0.5
693 11.5396 5.87357 11.6985 0.5
694 5.87006 9.19309 9.73459 0.5
695 12.4529 8.20909 2.57258 0.5
696 10.5639 3.60617 7.53337 0.5
697 0.234801 9.4411 7.25516 0.5
698 5.93646 11.1848 6.44397 0.5
699 3.27776 7.84134 0.471695 0.5
700 12.3396 8.13846 3.5786 0.5
701 9.43692 8.09864 13.178 0.5
702 3.86023 2.27815 8.43563 0.5
703 1.84764 5.43243 13.0311 0.5
704 9.12668 3.39936 8.64893 0.5
705 10.7108 7.22068 8.06991 0.5
706 6.4664 10.6829 5.66898 0.5
707 4.31763 5.46541 9.79669 0.5
708 13.0759 1.90494 1.24008 0.5
709 9.66363 0.0946291 0.297927 0.5
710 6.88111 6.45725 3.65394 0.5
711 0.145384 13.4508 13.1332 0.5
712 12.7323 2.50891 9.39017 0.5
713 8.3138 10.0547 7.73823 0.5
714 12.4915 4.40919 7.23973 0.5
715 12.7924 9.05645 3.14764 0.5
716 2.1201 2.4066 10.8671 0.5
717 3.141 6.90818 0.707153 0.5
718 11.8825 0.716967 7.39379 0.5
719 4.15252 10.8679 12.0112 0.5
720 12.4527 11.4727 2.71692 0.5
721 11.2758 6.65208 8.7882 0.5
722 6.21067 13.4482 12.8688 0.5
723 3.10763 11.928 8.96025 0.5
724 9.3743 13.3326 9.57488 0.5
725 2.54987 1.97228 5.6501 0.5
726 8.49623 1.99528 8.12363 0.5
727 4.68877 2.76077 12.8922 0.5
728 12.544 1.74922 4.81632 0.5
729 9.62816 5.00383 0.934586 0.5
730 8.13329 5.5438 7.22601 0.5
731 10.6328 0.241082 0.352246 0.5
732 1.41817 2.49242 8.13441 0.5
733 7.8449 11.6578 1.14062 0.5
734 10.6004 11.2874 6.50549 0.5
735 3.08713 5.24253 8.54627 0.5
736 4.4734 4.14232 10.8711 0.5
737 4.76238 3.2442 3.6502 0.5
738 1.71708 7.14606 10.9631 0.5
739 5.71086 0.130339 7.67184 0.5
740 12.4373 13.4971 7.83862 0.5
741 7.75513 4.30791 4.91204 0.5
742 5.45021 9.22686 1.37161 0.5
743 6.98886 8.04716 5.73929 0.5
744 4.23393 2.98283 11.9735 0.5
745 6.70913 6.77422 12.161 0.5
746 5.07796 8.49213 9.51127 0.5
747 13.4242 0.554914 11.2556 0.5
748 7.41616 9.51139 7.90461 0.5
749 6.28857 9.49968 3.52955 0.5
750 1.26347 1.21515 13.3412 0.5
751 13.4165 8.67039 13.1966 0.5
752 1.81486 0.979334 12.5199 0.5
753 6.59518 2.30847 0.83711 0.5
754 2.02541 12.2172 11.2877 0.5
755 7.27576 3.95619 0.530871 0.5
756 6.69038 7.89759 1.62981 0.5
757 11.982 6.74492 11.7744 0.5
758 4.17084 11.9425 4.60262 0.5
759 12.3364 9.15636 2.17031 0.5
760 7.12301 4.8499 4.32944 0.5
761 3.37746 11.2714 0.71882 0.5
762 0.0337164 2.61185 0.61395 0.5
763 11.9195 0.455248 3.41368 0.5
764 8.57114 9.12547 3.47777 0.5
765 12.5902 2.34065 0.370879 0.5
766 7.80624 3.28011 4.81703 0.5
767 3.79406 6.67024 1.57705 0.5
768 12.7202 0.0330034 10.6408 0.5
769 11.309 2.29011 5.94824 0.5
770 10.7742 7.5736 6.45148 0.5
771 7.81671 7.81655 6.32183 0.5
772 1.27846 1.91177 11.1952 0.5
773 9.29126 4.2908 8.2463 0.5
774 9.22693 0.278194 2.76329 0.5
775 10.3049 0.0713793 11.2294 0.5
776 3.05868 9.17975 6.44067 0.5
777 11.2457 12.5585 4.11741 0.5
778 11.7702 11.9681 3.37037 0.5
779 7.88844 7.47676 5.3444 0.5
780 2.90993 11.5601 8.1431 0.5
781 12.9231 1.00687 5.28691 0.5
782 11.2497 3.21323 4.02501 0.5
783 0.0263727 9.11428 12.3993 0.5
784 2.68291 2.62386 4.8335 0.5
785 10.4039 9.88929 5.58302 0.5
786 8.53435 3.86307 4.49655 0.5
787 5.92996 12.794 2.8979 0.5
788 11.7403 7.75411 11.3437 0.5
789 9.19749 3.75506 2.44566 0.5
790 8.14559 0.181251 2.5556 0.5
791 5.01687 7.29049 11.9382 0.5
792 5.89916 2.7774 7.59368 0.5
793 6.90747 8.67837 4.04077 0.5
794 12.831 0.544555 2.94374 0.5
795 7.3946 8.06441 4.81381 0.5
796 4.52725 10.7968 9.04046 0.5
797 3.6254 4.30719 11.4018 0.5
798 2.67494 3.52526 4.36071 0.5
799 0.331794 0.664134 4.90751 0.5
800 0.769117 8.22549 13.4538 0.5
801 7.70383 5.90558 2.99746 0.5
802 5.26385 10.6838 12.2677 0.5
803 11.2981 10.9969 11.4594 0.5
804 0.327184 5.80749 8.73273 0.5
805 8.96951 8.61316 2.72639 0.5
806 2.8156 7.76963 8.46033 0.5
807 2.71076 4.29052 8.48367 0.5
808 1.96533 8.92522 3.19501 0.5
809 9.16306 4.93911 11.1381 0.5
810 2.3889 11.2906 11.3498 0.5
811 10.2058 6.99763 3.22708 0.5
812 2.13373 8.0176 11.2627 0.5
813 7.91734 5.49941 12.2191 0.5
814 9.58506 0.564993 5.85538 0.5
815 11.608 11.8724 8.45049 0.5
816 9.42368 7.40946 0.412361 0.5
817 11.9292 10.9841 3.3105 0.5
818 3.22679 10.2728 1.05979 0.5
819 6.56773 13.4847 7.28108 0.5
820 0.527992 11.9939 8.26933 0.5
821 11.3301 2.9125 5.04191 0.5
822 9.28538 1.28487 5.27938 0.5
823 9.97127 0.32151 10.2682 0.5
824 1.76408 8.29994 5.64315 0.5
825 7.74314 0.894872 1.95942 0.5
826 7.32595 13.5488 7.98576 0.5
827 10.9406 0.49087 1.26349 0.5
828 5.2315 3.36219 2.7613 0.5
829 4.93878 2.35198 8.04114 0.5
830 5.22775 11.5645 9.08837 0.5
831 11.396 13.5547 7.92918 0.5
832 0.323413 5.81521 10.6994 0.5
833 1.79257 11.5912 10.6884 0.5
834 9.63883 1.76916 13.1307 0.5
835 0.637974 5.74243 11.7072 0.5
836 7.82963 8.86758 11.1544 0.5
837 7.23007 2.88388 0.290993 0.5
838 12.9261 13.3676 11.5788 0.5
839 4.75211 5.02788 2.28482 0.5
840 7.47781 12.9361 0.00489527 0.5
841 6.84024 10.9541 6.53642 0.5
842 12.7264 3.69699 10.74 0.5
843 12.6473 2.48715 12.4466 0.5
844 5.26221 3.49488 12.3299 0.5
845 10.0197 5.65823 5.83142 0.5
846 6.04822 12.1445 10.4847 0.5
847 4.35099 7.5142 6.68686 0.5
848 5.00935 6.39323 12.5084 0.5
849 1.04072 12.0333 5.87453 0.5
850 10.9769 10.3285 12.1243 0.5
851 6.02393 10.2181 6.48091 0.5
852 7.33988 10.3038 7.33528 0.5
853 4.50211 7.63503 9.29634 0.5
854 9.89424 6.13812 3.72169 0.5
855 9.58313 10.5137 3.16462 0.5
856 2.06247 0.327678 3.56231 0.5
857 9.80166 5.0183 10.3984 0.5
858 7.68566 10.3213 8.38399 0.5
859 11.3716 5.07565 5.20975 0.5
860 10.583 4.89072 5.87044 0.5
861 11.1598 13.1965 6.35361 0.5
862 10.983 7.60267 10.8 0.5
863 7.97854 8.50297 5.5438 0.5
864 8.13602 7.09087 7.8693 0.5
865 12.1012 3.3462 12.2391 0.5
866 5.43975 13.1179 2.04717 0.5
867 12.1593 3.90022 13.1886 0.5
868 9.07588 9.66833 9.15014 0.5
869 4.45087 0.586408 12.6885 0.5
870 3.5588 8.34027 6.63246 0.5
871 12.3873 8.24084 4.56259 0.5
872 1.0428 5.70549 13.4474 0.5
873 0.240091 0.710062 2.33782 0.5
874 7.08662 4.99751 12.3285 0.5
875 7.02243 12.2051 4.42162 0.5
876 2.32461 5.88966 8.65202 0.5
877 10.2901 7.88358 7.21675 0.5
878 2.423 11.4851 0.318437 0.5
879 1.39305 3.5395 7.81075 0.5
880 11.9671 0.939568 2.55395 0.5
881 10.8828 10.392 13.0751 0.5
882 1.3879 9.62601 3.75915 0.5
883 11.2232 12.2103 0.318447 0.5
884 12.829 3.38276 0.282053 0.5
885 7.22374 10.6065 10.7726 0.5
886 13.5153 2.88046 7.33535 0.5
887 0.144292 0.0641482 12.1943 0.5
888 4.86806 3.95989 1.99011 0.5
889 11.1495 4.99182 8.94074 0.5
890 11.123 8.40053 5.99466 0.5
891 1.87464 6.31942 3.26988 0.5
892 9.35424 0.706017 9.4423 0.5
893 10.2006 4.81417 8.71224 0.5
894 7.54031 7.78468 1.08003 0.5
895 11.807 9.03353 1.27403 0.5
896 7.16566 12.2783 0.628716 0.5
897 6.236 13.4493 3.47097 0.5
898 4.99402 12.6241 2.71251 0.5
899 10.7067 5.2999 8.06652 0.5
900 11.7646 10.8787 9.72012 0.5
901 13.0494 5.45634 10.1772 0.5
902 11.5728 6.65242 7.8592 0.5
903 9.66396 8.73596 3.50668 0.5
904 8.35193 3.84032 5.57651 0.5
905 13.0358 6.7208 6.08755 0.5
906 12.9148 5.39549 3.44905 0.5
907 7.15901 3.3207 10.3262 0.5
908 8.76943 0.462549 5.29029 0.5
909 10.0898 3.29798 2.79246 0.5
910 8.23405 2.62987 7.51126 0.5
911 5.78295 7.08665 12.674 0.5
912 8.61456 9.3082 11.6246 0.5
913 11.337 5.50357 12.6178 0.5
914 5.19708 13.3049 12.5154 0.5
915 7.96141 2.31962 5.17721 0.5
916 10.2106 8.41019 6.36604 0.5
917 12.1085 0.0512899 12.0563 0.5
918 7.61721 6.60323 8.59091 0.5
919 12.7785 11.8455 1.41003 0.5
920 13.5545 11.5934 10.457 0.5
921 5.69539 6.12173 7.33299 0.5
922 12.1936 2.98467 11.301 0.5
923 0.484829 2.13756 7.85288 0.5
924 11.5787 11.4374 10.5605 0.5
925 10.7602 3.57346 2.11636 0.5
926 5.39364 10.3 13.1928 0.5
927 1.98388 7.38404 6.04332 0.5
928 0.257495 6.10633 5.97802 0.5
929 1.30399 2.93639 10.9236 0.5
930 10.0437 9.94896 9.40132 0.5
931 4.38152 9.22431 12.4961 0.5
932 4.00464 8.54054 3.42194 0.5