ITEM: TIMESTEP
50000
ITEM: NUMBER OF ATOMS
1000
ITEM: BOX BOUNDS xy xz yz pp pp pp
0.0000000000000000e+00 1.3572088000000001e+01 0.0000000000000000e+00
0.0000000000000000e+00 1.3572088000000001e+01 0.0000000000000000e+00
0.0000000000000000e+00 1.3572088000000001e+01 0.0000000000000000e+00
ITEM: ATOMS id x y z radius
1 4.34368 3.48387 12.6769 0.5
2 4.80984 10.3534 3.37515 0.5
3 8.90803 9.48701 2.63254 0.5
4 10.6477 6.72562 2.00427 0.5
5 8.08303 7.91147 9.97239 0.5
6 4.67273 12.8203 5.60737 0.5
7 3.16496 8.10436 0.506422 0.5
8 13.0349 12.3458 1.73009 0.5
9 1.83297 7.34712 6.00851 0.5
10 3.10479 12.4598 10.5416 0.5
11 0.401062 9.33889 9.12031 0.5
12 11.5076 6.47332 1.56886 0.5
13 10.3959 11.6117 6.45161 0.5
14 11.8051 2.81309 4.11069 0.5
15 5.59162 1.27493 4.5337 0.5
16 8.07478 6.20901 8.74465 0.5
17 7.04412 12.1418 10.374 0.5
18 2.4118 8.22436 6.17857 0.5
19 9.13699 5.44353 1.87092 0.5
20 10.0073 11.5624 3.25488 0.5
21 1.96735 5.02393 0.704275 0.5
22 1.41446 6.97682 11.524 0.5
23 1.54372 1.40608 9.9915 0.5
24 7.42344 6.46654 2.43299 0.5
25 1.33117 6.36059 2.19395 0.5
26 10.3592 9.62351 6.1979 0.5
27 11.5036 6.56209 12.9512 0.5
28 5.33242 11.3031 11.0726 0.5
29 1.25697 6.62364 1.34476 0.5
30 8.08893 10.8528 2.06425 0.5
31 0.504578 13.1931 8.75018 0.5
32 10.5196 2.84185 0.086954 0.5
33 12.9059 6.74398 9.95403 0.5
34 2.80976 9.26212 6.26572 0.5
35 12.373 6.59306 13.5604 0.5
36 9.7037 0.5289 5.59207 0.5
37 13.1063 0.314754 3.13108 0.5
38 4.52062 1.55185 2.16877 0.5
39 10.0205 5.3483 2.30108 0.5
40 6.28094 5.91109 7.16747 0.5
41 9.4787 12.1407 6.53379 0.5
42 7.38176 5.47194 4.7213 0.5
43 5.53207 5.34964 9.77386 0.5
44 3.04173 9.48214 8.49075 0.5
45 6.50935 6.20763 2.38399 0.5
46 10.4396 11.5188 13.2702 0.5
47 1.87719 9.08704 5.93336 0.5
48 8.00143 10.4982 1.05118 0.5
49 5.57047 12.1725 10.741 0.5
50 4.32844 2.43081 11.3253 0.5
51 13.4801 9.37761 7.17926 0.5
52 6.33858 10.8718 7.21817 0.5
53 9.65335 4.53365 1.68018 0.5
54 11.4776 10.7993 3.44454 0.5
55 0.923503 1.13213 7.05984 0.5
56 11.7996 5.69585 3.62334 0.5
57 0.500624 11.8313 10.8337 0.5
58 4.72053 7.30537 9.30657 0.5
59 1.18169 10.6604 11.7035 0.5
60 8.89946 5.67962 9.04387 0.5
61 3.44336 12.8877 11.3889 0.5
62 0.468078 9.32463 0.738881 0.5
63 12.2777 8.76318 1.50634 0.5
64 11.4377 1.96946 10.4311 0.5
65 13.0123 2.01699 5.23496 0.5
66 0.386406 0.975229 1.93787 0.5
67 8.81174 2.53176 7.28747 0.5
68 4.3055 1.21058 3.11726 0.5
69 12.5031 0.851543 10.9176 0.5
70 10.989 4.15 11.4271 0.5
71 2.60523 6.57307 9.10887 0.5
72 8.14571 3.7651 9.7418 0.5
73 8.40194 6.97041 8.19538 0.5
74 5.7505 4.47247 9.89802 0.5
75 8.31728 0.992544 10.8602 0.5
76 12.821 2.95199 1.03899 0.5
77 10.3755 2.83094 3.2935 0.5
78 8.73958 2.17556 6.38317 0.5
79 4.20674 12.2299 6.26179 0.5
80 5.60509 2.49771 8.34215 0.5
81 2.15201 3.26482 10.7939 0.5
82 0.908546 8.8634 13.5357 0.5
83 3.37773 0.889561 7.10665 0.5
84 12.4205 9.06605 9.74424 0.5
85 1.12043 3.64382 8.36909 0.5
86 3.49528 0.169922 13.3166 0.5
87 5.5776 6.02907 5.57996 0.5
88 6.60761 6.03858 5.07719 0.5
89 11.7046 13.1311 6.80519 0.5
90 4.42697 4.88593 4.34256 0.5
91 11.3454 7.37728 12.2455 0.5
92 0.532753 0.404527 2.74337 0.5
93 1.29579 0.920317 1.42503 0.5
94 4.71258 10.0117 11.9242 0.5
95 12.3313 1.6136 8.63401 0.5
96 11.2912 3.03854 3.30288 0.5
97 12.2588 2.62864 4.97766 0.5
98 11.2103 11.503 0.199827 0.5
99 6.35916 8.06017 8.1992 0.5
100 0.656463 5.8619 5.81703 0.5
101 4.57455 12.0288 1.19234 0.5
102 8.23147 7.4041 10.8235 0.5
103 3.88307 4.86085 10.388 0.5
104 6.45133 10.2817 5.65163 0.5
105 11.2247 13.2827 5.95791 0.5
106 7.50488 1.44015 9.88336 0.5
107 0.288366 4.9981 9.50011 0.5
108 0.674101 11.7434 5.12175 0.5
109 1.2109 10.7622 9.8899 0.5
110 8.48134 9.37505 8.42716 0.5
111 7.69584 0.962769 2.61173 0.5
112 6.00351 1.30504 5.42201 0.5
113 0.93154 0.800119 6.11556 0.5
114 6.91617 6.23205 3.34072 0.5
115 4.61477 6.29436 12.5626 0.5
116 0.543836 5.86669 1.79424 0.5
117 0.218006 0.210445 5.79363 0.5
118 12.4213 9.18962 5.10875 0.5
119 11.2928 8.49483 1.53821 0.5
120 5.59719 8.59323 3.02059 0.5
121 11.8135 12.3235 12.2308 0.5
122 3.05244 3.20195 2.69573 0.5
123 10.6549 1.33259 10.582 0.5
124 10.4441 11.3283 11.4793 0.5
125 4.77188 11.2612 3.90963 0.5
126 10.6594 10.8499 12.4056 0.5
127 7.89667 10.7629 11.846 0.5
128 5.52485 2.11648 7.36301 0.5
129 2.41071 7.03159 11.8519 0.5
130 1.59882 11.4117 9.24585 0.5
131 7.4452 2.59911 0.864417 0.5
132 4.59154 11.1922 1.87724 0.5
133 1.12291 11.1105 10.7865 0.5
134 10.5706 10.8833 3.91539 0.5
135 12.7109 2.6915 6.00313 0.5
136 8.19801 2.88243 3.63401 0.5
137 3.66395 13.0539 5.91819 0.5
138 7.88458 11.9783 13.1973 0.5
139 5.87461 13.4695 12.6534 0.5
140 5.54201 3.87004 3.69614 0.5
141 1.05093 3.7244 4.366 0.5
142 9.59596 3.32122 0.360999 0.5
143 0.0791834 0.643685 12.3762 0.5
144 8.59154 12.5621 6.69601 0.5
145 6.61456 7.1193 2.80278 0.5
146 10.2193 9.24693 8.42965 0.5
147 4.01355 6.47156 13.5499 0.5
148 12.5714 13.398 11.2929 0.5
149 8.27289 6.17293 9.71588 0.5
150 12.4254 11.1076 3.20963 0.5
151 6.13921 12.3018 9.88106 0.5
152 3.19893 3.51086 10.8072 0.5
153 11.9871 6.75543 8.4976 0.5
154 3.59915 2.79077 2.02048 0.5
155 2.38443 8.44069 10.8039 0.5
156 7.8508 12.3372 0.540942 0.5
157 2.7905 0.901982 4.2814 0.5
158 1.26026 8.8737 9.0802 0.5
159 3.67106 1.42707 9.56754 0.5
160 8.85247 1.41964 11.5173 0.5
161 12.9852 3.56131 11.3721 0.5
162 6.9994 2.91429 7.04081 0.5
163 10.9275 9.60099 0.221011 0.5
164 9.21472 3.82944 13.1136 0.5
165 7.29757 11.5427 11.1879 0.5
166 10.9162 0.157106 6.84019 0.5
167 11.5486 7.7144 8.59054 0.5
168 2.29496 3.06608 7.3767 0.5
169 10.7981 11.9156 12.3574 0.5
170 3.61283 6.17224 0.823616 0.5
171 10.7916 5.79055 1.80926 0.5
172 10.4683 7.5818 10.8349 0.5
173 8.94782 10.0893 3.39776 0.5
174 4.33514 0.560112 13.27 0.5
175 2.74854 6.29373 3.59614 0.5
176 4.05944 5.27785 3.49322 0.5
177 9.14147 3.88708 5.60184 0.5
178 6.01295 2.92089 3.81998 0.5
179 13.4048 6.1605 2.53374 0.5
180 9.72474 2.77323 13.0167 0.5
181 10.8085 11.7649 8.7615 0.5
182 2.0968 11.5501 0.330677 0.5
183 8.09645 8.54921 6.5243 0.5
184 10.2818 3.86389 10.0587 0.5
185 7.16696 2.24593 10.5576 0.5
186 3.9479 8.62015 1.93459 0.5
187 4.56941 13.4092 12.5966 0.5
188 5.81796 6.50952 6.42158 0.5
189 0.705099 11.3014 6.16467 0.5
190 7.64413 0.0639384 2.16269 0.5
191 9.39439 7.97887 4.44532 0.5
192 10.7435 1.01179 0.236445 0.5
193 11.5074 0.976085 10.8401 0.5
194 8.62066 0.773252 12.2964 0.5
195 12.8801 9.63194 11.9156 0.5
196 8.40209 0.840041 3.42578 0.5
197 2.63622 6.71807 8.02586 0.5
198 6.54896 6.26238 12.6497 0.5
199 11.5067 2.11435 8.4344 0.5
200 6.83195 6.91245 1.71279 0.5
201 0.67026 4.50526 8.67964 0.5
202 6.6717 0.835524 8.30244 0.5
203 1.95944 3.36373 1.38946 0.5
204 1.15463 7.80656 8.9129 0.5
205 12.1641 12.7292 4.26877 0.5
206 1.03296 0.680113 10.3996 0.5
207 6.35536 12.8153 9.00802 0.5
208 9.49574 4.91075 7.21924 0.5
209 5.01271 3.01276 3.65564 0.5
210 4.67766 6.31314 5.17658 0.5
211 3.99708 3.89214 10.4749 0.5
212 3.36874 5.63261 4.14483 0.5
213 2.95955 1.45438 5.15547 0.5
214 9.78567 3.5164 12.3349 0.5
215 7.07692 5.99521 1.46785 0.5
216 6.33216 8.99937 0.0154597 0.5
217 4.1613 11.3422 4.74171 0.5
218 6.34517 7.97177 3.30294 0.5
219 8.09039 1.86988 3.15033 0.5
220 6.59165 1.26754 9.20902 0.5
221 2.58922 2.57802 6.40409 0.5
222 7.0369 11.71 4.80417 0.5
223 3.98778 9.26266 2.77502 0.5
224 12.9976 9.43526 3.23525 0.5
225 7.94683 11.7528 10.4349 0.5
226 11.4313 6.55519 0.505257 0.5
227 11.9143 9.55908 11.3601 0.5
228 3.77166 11.4769 5.78581 0.5
229 5.15062 4.65987 6.81339 0.5
230 6.41937 9.05419 8.26909 0.5
231 8.8307 6.65798 9.09962 0.5
232 7.36361 5.93307 13.1979 0.5
233 1.5338 0.408279 9.58909 0.5
234 11.2218 2.50508 4.89196 0.5
235 1.35117 11.2408 4.4387 0.5
236 10.599 6.40823 1.03713 0.5
237 5.00495 8.63587 4.9108 0.5
238 0.409086 12.7025 5.30638 0.5
239 10.1192 7.69007 5.20994 0.5
240 2.4734 4.20397 11.2308 0.5
241 4.34219 5.5443 0.449523 0.5
242 3.71838 0.918561 2.40871 0.5
243 1.61655 9.67079 3.72518 0.5
244 3.1519 12.2837 5.85832 0.5
245 1.10213 11.6669 11.6258 0.5
246 9.46301 9.90349 8.28063 0.5
247 3.40229 13.1237 9.68593 0.5
248 6.68323 3.04814 1.43809 0.5
249 10.6084 1.98512 0.570606 0.5
250 9.82864 1.26552 0.264707 0.5
251 4.78487 9.66584 10.8088 0.5
252 8.66286 8.05487 0.996368 0.5
253 1.47107 9.05993 0.857891 0.5
254 10.7775 3.36691 2.60122 0.5
255 8.28604 9.85229 1.83195 0.5
256 2.35295 13.5074 4.16638 0.5
257 1.49758 3.56327 7.28619 0.5
258 0.280652 5.81161 6.67536 0.5
259 4.07808 4.39089 9.47623 0.5
260 6.57067 11.5178 9.70954 0.5
261 11.1164 3.63781 5.74654 0.5
262 7.26847 10.8546 5.36953 0.5
263 3.25907 4.68218 7.06072 0.5
264 11.1722 10.8012 9.04803 0.5
265 1.40556 4.59715 4.19326 0.5
266 4.39893 13.2615 6.53911 0.5
267 4.59074 8.15605 8.80327 0.5
268 6.38709 2.23851 0.898146 0.5
269 8.68525 13.483 7.2461 0.5
270 7.07346 10.7602 7.98756 0.5
271 10.6538 0.220788 5.22598 0.5
272 5.53958 9.22674 0.711007 0.5
273 7.27624 3.16157 4.04197 0.5
274 10.4782 3.16868 9.25753 0.5
275 2.00911 12.0123 1.2574 0.5
276 5.13157 0.760937 11.5887 0.5
277 7.90626 5.27682 12.5969 0.5
278 10.7491 10.6003 13.5064 0.5
279 10.3095 11.1041 5.58048 0.5
280 4.51414 11.1037 0.809507 0.5
281 7.23473 3.58875 9.67222 0.5
282 13.4237 11.5031 1.57865 0.5
283 5.07954 5.02413 1.57889 0.5
284 0.944561 11.6696 1.57585 0.5
285 1.96553 9.82973 6.38695 0.5
286 3.48951 1.19865 13.2161 0.5
287 7.64705 7.63779 6.32572 0.5
288 6.2936 0.376298 5.71172 0.5
289 1.95748 10.54 3.96722 0.5
290 0.999898 13.2707 5.88522 0.5
291 5.33642 0.513169 5.23514 0.5
292 4.94334 2.9288 13.135 0.5
293 11.1953 6.0592 4.3092 0.5
294 1.10139 9.29537 6.46772 0.5
295 3.12183 1.16578 6.16906 0.5
296 0.684571 4.13469 7.68784 0.5
297 11.1649 12.1052 11.389 0.5
298 10.6184 4.15561 12.3706 0.5
299 2.77551 0.584736 12.7864 0.5
300 8.70511 4.45367 1.73704 0.5
301 6.09696 6.3635 11.7331 0.5
302 3.18475 9.00262 3.34008 0.5
303 12.8655 8.80317 2.43203 0.5
304 0.404327 6.80479 6.2537 0.5
305 7.21281 12.84 7.76557 0.5
306 10.8874 8.57601 0.568867 0.5
307 2.22688 7.21497 3.29311 0.5
308 0.4153 10.1256 11.7646 0.5
309 12.7603 0.309812 12.9317 0.5
310 7.77797 0.156336 3.2338 0.5
311 0.128347 4.8717 7.0119 0.5
312 7.20843 11.0877 10.3477 0.5
313 0.972963 10.8013 5.37648 0.5
314 5.53456 11.4633 10.0304 0.5
315 12.5921 6.01655 3.12483 0.5
316 9.19577 5.87335 7.27136 0.5
317 12.9068 8.98617 4.15677 0.5
318 12.6866 4.82476 7.29902 0.5
319 10.3675 11.2623 0.569897 0.5
320 5.32235 2.90996 6.75031 0.5
321 2.60833 13.0181 3.39456 0.5
322 9.68389 13.0874 1.30979 0.5
323 4.7009 0.629525 2.39169 0.5
324 10.6135 3.82206 3.37829 0.5
325 0.884133 5.22314 12.3779 0.5
326 10.6732 13.0048 0.947369 0.5
327 9.35496 1.65101 7.06484 0.5
328 12.3151 6.99895 12.591 0.5
329 8.83448 2.66667 8.27394 0.5
330 8.58828 1.16762 4.39907 0.5
331 4.62176 3.88553 4.19572 0.5
332 11.7997 2.09053 9.42551 0.5
333 12.871 1.14149 3.55015 0.5
334 4.53397 6.48506 0.7485 0.5
335 8.68827 13.3933 3.41883 0.5
336 4.25936 1.26498 8.65257 0.5
337 11.321 1.21165 9.84923 0.5
338 7.88662 5.30155 9.20117 0.5
339 9.33072 4.619 2.50701 0.5
340 12.3044 3.66322 12.9942 0.5
341 9.27909 0.339883 9.58868 0.5
342 5.99129 13.3283 4.9814 0.5
343 6.963 4.95666 8.90989 0.5
344 5.07488 8.08216 5.86812 0.5
345 7.69281 8.31321 5.47587 0.5
346 1.26901 6.67566 5.67442 0.5
347 13.0369 11.0425 0.770516 0.5
348 1.47454 4.14635 0.90846 0.5
349 8.60572 7.69978 6.85853 0.5
350 7.63949 6.96256 10.144 0.5
351 2.68161 9.67744 11.9225 0.5
352 9.27028 12.7019 7.39439 0.5
353 8.06134 5.81333 1.83195 0.5
354 2.87881 3.06718 5.55255 0.5
355 1.21403 7.12298 2.83583 0.5
356 11.6148 13.5009 3.7789 0.5
357 5.57916 11.0515 3.34214 0.5
358 3.66262 0.395524 10.1761 0.5
359 6.92539 9.91299 8.61003 0.5
360 13.3175 3.97886 7.36528 0.5
361 3.80372 1.58262 7.81071 0.5
362 0.715545 1.08872 9.56816 0.5
363 10.1092 12.1072 1.25919 0.5
364 3.42329 7.79992 1.4434 0.5
365 2.91812 8.5673 13.2166 0.5
366 6.6776 9.81716 7.64108 0.5
367 10.4094 12.1931 0.383747 0.5
368 5.00318 4.74206 9.23953 0.5
369 1.56563 3.06419 4.00338 0.5
370 12.9 10.2584 6.97773 0.5
371 8.46117 0.256572 2.51687 0.5
372 13.333 4.68814 3.84229 0.5
373 5.70285 2.79956 12.5396 0.5
374 0.125298 9.44015 13.3487 0.5
375 0.493271 8.45444 8.52583 0.5
376 2.3802 11.306 4.41295 0.5
377 8.17094 5.99413 4.49567 0.5
378 5.94458 9.23973 12.5372 0.5
379 4.98708 6.09967 13.5065 0.5
380 7.32562 4.45744 12.8977 0.5
381 10.6077 2.6588 8.37843 0.5
382 8.94314 0.853806 7.54594 0.5
383 1.35045 5.63363 1.27523 0.5
384 5.58771 10.1208 12.3102 0.5
385 12.4565 11.6508 1.34678 0.5
386 0.522136 4.60885 4.58491 0.5
387 1.08237 6.16763 10.9877 0.5
388 0.638774 1.66273 10.3699 0.5
389 5.25763 9.19963 9.93379 0.5
390 4.81244 4.75775 10.2475 0.5
391 7.17913 0.965918 1.68013 0.5
392 13.4864 5.54881 3.30412 0.5
393 3.61757 5.03996 8.00512 0.5
394 9.39548 9.05534 8.86548 0.5
395 1.05592 0.439009 8.73326 0.5
396 0.248986 0.831759 3.62878 0.5
397 6.98194 1.41951 0.835328 0.5
398 8.59891 11.4725 4.33308 0.5
399 0.672191 4.30823 3.62459 0.5
400 6.69057 8.17877 4.30437 0.5
401 9.69783 2.28547 0.301419 0.5
402 4.50941 7.7644 5.09892 0.5
403 7.03804 0.216154 7.4742 0.5
404 9.47767 11.458 11.2878 0.5
405 12.8079 5.67396 0.0571025 0.5
406 7.56153 2.87276 13.5077 0.5
407 1.78897 11.3716 3.5156 0.5
408 2.10095 3.85068 4.29083 0.5
409 3.05029 4.46586 10.425 0.5
410 10.9087 2.27565 3.92564 0.5
411 3.53884 5.66366 13.4728 0.5
412 5.12799 0.618908 12.5511 0.5
413 3.51354 6.58429 8.74316 0.5
414 3.02869 9.09487 11.19 0.5
415 7.65785 9.86481 11.4334 0.5
416 9.49701 11.1003 6.18576 0.5
417 1.41654 13.0888 9.09939 0.5
418 9.20392 0.822193 10.3965 0.5
419 2.41311 12.8329 11.3 0.5
420 3.88574 13.5263 7.31417 0.5
421 0.391317 6.66612 10.3688 0.5
422 8.60807 4.24864 6.36821 0.5
423 12.3553 13.1665 3.23081 0.5
424 2.38194 2.90735 4.55987 0.5
425 7.33359 7.72122 10.6941 0.5
426 1.1677 12.7538 6.80237 0.5
427 6.61483 2.98338 0.423475 0.5
428 13.1368 8.41422 10.0545 0.5
429 9.83803 5.15949 9.15605 0.5
430 7.84979 1.82173 11.1562 0.5
431 2.63203 4.99234 7.87527 0.5
432 0.720968 1.3142 2.86341 0.5
433 7.56598 11.3528 0.457008 0.5
434 0.475787 4.06265 1.08004 0.5
435 10.7807 9.43813 1.21075 0.5
436 6.49597 4.99241 9.82217 0.5
437 3.92616 9.29851 6.12586 0.5
438 6.02339 2.97555 7.50884 0.5
439 10.3361 12.1094 9.61756 0.5
440 10.3918 10.5645 6.51522 0.5
441 6.20701 12.7167 2.95539 0.5
442 2.13537 6.4376 5.4684 0.5
443 0.408775 12.4374 1.1707 0.5
444 8.96923 7.90443 0.0706334 0.5
445 4.61565 8.46195 2.77769 0.5
446 4.34792 5.90166 4.19369 0.5
447 1.44939 8.2693 6.33463 0.5
448 5.50471 9.74302 13.4076 0.5
449 2.96775 13.4374 10.6536 0.5
450 3.65834 2.96036 1.03011 0.5
451 6.81628 3.72986 13.3907 0.5
452 1.52246 8.18252 0.278418 0.5
453 5.14464 8.75867 3.9953 0.5
454 3.12311 0.103551 2.81228 0.5
455 1.55678 3.07522 10.0245 0.5
456 8.24426 12.6479 7.60356 0.5
457 12.3651 12.5038 8.92398 0.5
458 3.72006 0.444221 9.06498 0.5
459 0.166953 2.44143 5.66757 0.5
460 13.1234 6.51883 12.9275 0.5
461 11.0428 8.02887 11.5355 0.5
462 11.6047 3.02029 7.95814 0.5
463 6.27668 3.48333 6.67019 0.5
464 10.9426 9.57218 10.9089 0.5
465 5.37907 10.3324 11.3006 0.5
466 3.68396 0.31219 6.3947 0.5
467 0.702297 8.31122 0.899251 0.5
468 12.5269 8.98807 10.681 0.5
469 1.14551 3.21448 10.9893 0.5
470 2.2866 5.22151 11.3477 0.5
471 4.33192 13.4347 9.66594 0.5
472 10.6725 6.86837 4.92831 0.5
473 11.4281 7.07524 7.78437 0.5
474 2.08052 8.21704 8.87785 0.5
475 5.3706 3.87945 6.27465 0.5
476 6.91128 1.30327 10.859 0.5
477 5.4879 7.73517 8.60799 0.5
478 2.26804 10.5826 0.474033 0.5
479 9.09687 7.06926 0.693948 0.5
480 2.77141 10.2815 7.94347 0.5
481 1.74783 3.23675 0.415161 0.5
482 10.4345 0.161273 1.65303 0.5
483 8.2605 10.7082 3.66329 0.5
484 9.69479 6.98646 4.70999 0.5
485 4.32679 5.77017 1.44435 0.5
486 3.02537 10.3723 8.96975 0.5
487 4.74794 2.75748 8.79413 0.5
488 6.08491 4.47644 6.62424 0.5
489 4.04941 0.268034 3.10607 0.5
490 1.92098 12.1854 8.73232 0.5
491 2.51517 7.96646 12.4037 0.5
492 1.27832 5.48154 11.4984 0.5
493 10.5043 8.65878 10.8655 0.5
494 8.40445 4.56634 13.0336 0.5
495 6.95345 8.29731 0.386061 0.5
496 6.44629 12.9128 13.2054 0.5
497 6.09237 6.88279 7.40872 0.5
498 3.88233 12.2873 5.24991 0.5
499 7.77753 3.02541 10.2251 0.5
500 12.8423 8.6444 5.83337 0.5
501 5.53046 2.20265 4.09017 0.5
502 9.39031 10.5714 9.01817 0.5
503 8.36497 5.71102 11.8064 0.5
504 2.87969 0.612952 0.276035 0.5
505 4.74608 2.8659 12.043 0.5
506 2.94069 12.0794 0.749127 0.5
507 7.51349 3.3616 3.09292 0.5
508 0.639286 1.83459 6.40386 0.5
509 5.64752 5.45799 6.52613 0.5
510 8.41742 11.5173 11.382 0.5
511 5.56071 13.3054 5.95898 0.5
512 7.61814 11.1343 4.32277 0.5
513 6.60548 3.28807 2.41841 0.5
514 5.89005 8.2232 0.468289 0.5
515 1.03667 10.7321 3.64753 0.5
516 4.13109 8.75326 3.58382 0.5
517 0.798615 3.28595 3.36278 0.5
518 1.85334 7.20772 8.40109 0.5
519 4.6628 7.20708 8.38257 0.5
520 1.96853 1.1772 0.513002 0.5
521 11.2328 5.57988 5.29128 0.5
522 2.02801 10.4633 12.1369 0.5
523 12.6666 7.97041 4.03922 0.5
524 0.0563307 1.02941 6.51622 0.5
525 10.3585 10.1819 0.743272 0.5
526 8.80047 11.7949 7.35396 0.5
527 7.12674 11.2212 2.43208 0.5
528 1.22811 0.513658 0.482518 0.5
529 12.7575 0.824555 0.27844 0.5
530 11.9724 3.70261 11.4699 0.5
531 11.058 9.03685 11.6627 0.5
532 6.15524 8.93159 3.76441 0.5
533 4.6006 6.27426 10.7974 0.5
534 2.07155 11.1224 11.3081 0.5
535 8.34407 12.8797 13.4352 0.5
536 2.42272 12.0633 3.70937 0.5
537 2.92862 11.9374 8.34404 0.5
538 7.35909 10.2748 1.91495 0.5
539 1.709 8.03952 3.02856 0.5
540 2.10893 3.82022 8.07523 0.5
541 3.90055 11.9165 0.395039 0.5
542 8.10147 0.0684971 12.7776 0.5
543 13.202 5.67429 7.45953 0.5
544 8.88754 1.74845 8.04876 0.5
545 1.81971 6.28904 3.08486 0.5
546 1.00064 0.755937 13.0644 0.5
547 10.294 5.13041 5.65047 0.5
548 11.6506 0.55562 6.31929 0.5
549 13.4815 10.2247 7.74218 0.5
550 12.5492 12.1516 3.25916 0.5
551 6.16681 1.42707 1.51983 0.5
552 3.13262 6.50694 0.0187818 0.5
553 11.1389 4.23657 10.3607 0.5
554 3.39543 12.8688 6.71102 0.5
555 13.5526 3.7685 4.41784 0.5
556 7.93844 12.708 12.4902 0.5
557 7.23104 11.1651 1.4471 0.5
558 3.84295 1.8498 10.6323 0.5
559 3.36867 11.0443 8.09959 0.5
560 7.59458 3.90679 10.5602 0.5
561 8.70016 9.56863 12.8098 0.5
562 13.5273 3.38207 0.694271 0.5
563 9.83698 5.59123 6.53371 0.5
564 8.939 5.31737 12.5859 0.5
565 9.50351 4.68081 6.21859 0.5
566 6.68487 0.656241 10.0027 0.5
567 11.7848 5.22974 4.46084 0.5
568 6.49087 1.6916 10.067 0.5
569 10.7789 6.51879 12.1542 0.5
570 12.7343 7.85803 2.93121 0.5
571 3.31174 0.93477 3.33833 0.5
572 4.1204 3.22327 0.111185 0.5
573 0.688066 0.185804 6.69206 0.5
574 8.89589 8.376 1.89779 0.5
575 8.16191 0.802173 1.69921 0.5
576 3.79748 10.2119 8.17977 0.5
577 3.01716 8.83759 2.33446 0.5
578 1.23306 11.9707 0.591494 0.5
579 0.173429 9.32878 12.3293 0.5
580 2.3741 5.86953 7.48073 0.5
581 1.07269 12.6555 8.1833 0.5
582 2.88475 11.8884 11.3133 0.5
583 1.99652 11.3446 1.95904 0.5
584 10.3416 6.04718 5.00872 0.5
585 13.5278 4.77744 8.02917 0.5
586 13.1697 6.01097 10.6615 0.5
587 1.15928 1.65656 2.05516 0.5
588 12.9123 1.25443 12.8733 0.5
589 13.1757 8.8254 9.09924 0.5
590 3.81552 9.68631 9.07869 0.5
591 3.94823 2.85956 10.5386 0.5
592 11.1006 12.3722 10.3011 0.5
593 5.5108 9.99222 5.96105 0.5
594 13.5765 11.0813 5.39601 0.5
595 12.0362 10.7608 6.80334 0.5
596 9.8296 9.58655 3.19714 0.5
597 4.43218 11.0913 8.13093 0.5
598 7.95074 11.3786 5.12484 0.5
599 11.794 11.5368 8.91578 0.5
600 12.3275 5.9827 12.7061 0.5
601 4.05809 5.53823 2.4802 0.5
602 12.478 5.85866 9.91149 0.5
603 2.96272 8.00862 11.529 0.5
604 4.73333 1.63958 11.1587 0.5
605 8.58353 3.53045 10.6201 0.5
606 12.8542 8.38754 4.91051 0.5
607 8.76853 9.78062 9.21716 0.5
608 7.75452 11.7462 12.0986 0.5
609 0.345731 12.1208 0.186061 0.5
610 1.47371 8.20215 9.74687 0.5
611 0.458008 8.40173 9.52879 0.5
612 5.83619 12.1775 2.16328 0.5
613 3.93011 5.65049 4.95374 0.5
614 3.91778 13.1326 10.569 0.5
615 2.41805 11.1642 8.56329 0.5
616 0.481128 6.86412 2.18511 0.5
617 6.5903 5.5652 4.11141 0.5
618 10.959 6.78842 8.65147 0.5
619 11.7652 3.33921 2.28663 0.5
620 0.332665 11.0089 11.3988 0.5
621 1.54106 3.88565 3.49642 0.5
622 5.46021 8.68568 8.60836 0.5
623 12.0317 8.67717 4.32594 0.5
624 0.675471 6.21731 2.88778 0.5
625 1.79357 2.62441 11.5312 0.5
626 2.45881 3.98931 0.765285 0.5
627 11.3141 5.6694 0.989031 0.5
628 11.5362 3.73611 12.3166 0.5
629 6.54075 3.59087 3.27137 0.5
630 2.69001 3.03765 0.753655 0.5
631 10.0547 0.86013 12.9433 0.5
632 7.08812 12.1792 12.6763 0.5
633 10.3927 1.10118 1.21895 0.5
634 10.112 11.1673 9.20101 0.5
635 10.3785 1.90212 13.2296 0.5
636 10.1849 3.67887 13.1215 0.5
637 12.4498 10.833 7.68243 0.5
638 6.26757 0.617465 4.81039 0.5
639 8.59315 7.04571 9.99832 0.5
640 2.4341 5.10841 6.87866 0.5
641 9.13908 8.42471 6.44797 0.5
642 12.235 6.04085 0.90389 0.5
643 12.2652 2.27351 7.77433 0.5
644 7.42129 4.5029 9.76439 0.5
645 0.0525829 12.0324 5.96583 0.5
646 8.51406 8.54423 12.7742 0.5
647 7.44555 6.73726 11.2149 0.5
648 8.59378 9.90334 11.8261 0.5
649 5.39906 6.84827 11.1477 0.5
650 3.74667 0.564015 8.09637 0.5
651 12.8529 5.52616 6.65366 0.5
652 5.08954 2.96453 7.70157 0.5
653 2.78877 5.63041 0.402134 0.5
654 4.51707 9.89423 9.82467 0.5
655 11.5854 12.3792 8.34635 0.5
656 0.355694 11.3787 0.787257 0.5
657 11.1685 1.15666 6.93089 0.5
658 9.79635 10.2989 5.70715 0.5
659 0.453405 10.8805 4.49504 0.5
660 0.625969 0.0495828 9.68138 0.5
661 2.00619 7.33179 9.32532 0.5
662 3.15612 11.5989 5.00819 0.5
663 5.38857 12.0435 3.09439 0.5
664 6.42526 5.86967 6.15283 0.5
665 9.88919 10.5691 3.1959 0.5
666 6.35107 11.5301 10.6472 0.5
667 10.1174 4.10443 9.10093 0.5
668 5.64088 3.20443 2.84018 0.5
669 8.06572 10.0584 2.73505 0.5
670 7.70579 13.1915 6.96717 0.5
671 6.36314 8.81046 1.07264 0.5
672 3.24056 2.35018 4.79831 0.5
673 5.41127 8.77874 13.305 0.5
674 3.11013 8.85118 12.2142 0.5
675 1.76558 3.64907 11.6932 0.5
676 2.35956 0.539399 3.4486 0.5
677 2.71683 8.10059 3.00754 0.5
678 11.5686 8.73495 10.8508 0.5
679 11.3569 13.3612 4.79729 0.5
680 3.64837 11.4201 1.29539 0.5
681 3.28713 1.26705 8.62816 0.5
682 0.77998 2.35286 11.3428 0.5
683 2.00936 6.21736 11.5823 0.5
684 11.6087 12.4973 3.43524 0.5
685 11.9276 11.672 3.89384 0.5
686 10.3814 7.43449 11.88 0.5
687 4.99195 9.38273 12.5769 0.5
688 0.928547 7.6273 5.7039 0.5
689 3.38446 3.75092 0.673391 0.5
690 4.3626 8.43377 6.45821 0.5
691 13.1363 10.679 11.9915 0.5
692 5.16103 0.0508228 13.3641 0.5
693 11.3644 5.70808 12.6124 0.5
694 6.1771 8.37615 9.08336 0.5
695 12.0145 8.26839 2.33686 0.5
696 11.3891 2.97041 8.94078 0.5
697 13.4438 9.35521 8.32278 0.5
698 6.36271 10.0423 6.62891 0.5
699 2.39133 8.69215 0.575027 0.5
700 12.3211 8.6704 3.30789 0.5
701 8.28222 8.58966 0.190556 0.5
702 3.98035 2.14492 8.83212 0.5
703 1.74289 4.65282 11.9931 0.5
704 9.72012 2.30698 7.83233 0.5
705 10.1138 8.34348 8.70319 0.5
706 6.31844 11.2279 5.42207 0.5
707 4.1267 5.03803 6.99985 0.5
708 1.32237 0.671001 2.36182 0.5
709 10.1001 0.297794 0.636716 0.5
710 7.2856 6.37903 4.34755 0.5
711 0.0190185 0.813475 13.3232 0.5
712 12.2484 1.58777 10.3152 0.5
713 8.51268 10.3726 8.51734 0.5
714 0.0989028 3.64588 8.31775 0.5
715 13.3149 8.50121 3.30473 0.5
716 0.557297 2.69065 10.3429 0.5
717 3.12582 8.73222 1.28613 0.5
718 11.6944 1.40026 7.763 0.5
719 4.50405 10.6881 11.2082 0.5
720 12.666 11.6786 2.36648 0.5
721 10.5847 4.74052 9.72997 0.5
722 5.35412 13.4477 11.8285 0.5
723 4.62006 9.01929 9.14882 0.5
724 8.37036 0.796377 9.92401 0.5
725 3.2976 2.15345 5.79981 0.5
726 7.97901 2.54999 6.74205 0.5
727 5.83845 3.23462 13.3146 0.5
728 13.1891 2.94974 5.11798 0.5
729 9.88431 6.12445 1.73765 0.5
730 8.7924 5.26611 6.53992 0.5
731 11.1337 0.351324 0.814164 0.5
732 2.22673 3.4615 6.42244 0.5
733 8.07648 11.4994 1.30506 0.5
734 11.2 11.0116 6.13528 0.5
735 2.93378 5.89688 8.34748 0.5
736 3.62454 4.35523 11.2634 0.5
737 6.04604 4.09957 2.79306 0.5
738 1.93282 7.82703 11.5029 0.5
739 7.3568 0.750131 9.2713 0.5
740 11.5477 1.2052 8.86625 0.5
741 8.01152 3.81073 3.80801 0.5
742 4.83986 8.43316 0.443891 0.5
743 9.3799 8.41074 5.42738 0.5
744 5.27002 3.64399 12.5916 0.5
745 8.34417 6.69453 11.8948 0.5
746 5.23572 8.23487 9.49877 0.5
747 13.2393 13.3945 12.0557 0.5
748 7.69788 9.89462 8.03491 0.5
749 4.89117 9.33536 3.29059 0.5
750 1.95898 0.543039 13.3332 0.5
751 0.217146 8.57406 12.8545 0.5
752 2.52332 1.43431 13.278 0.5
753 6.9986 2.06421 0.136776 0.5
754 2.99433 12.3369 12.0735 0.5
755 7.44797 3.43474 12.6101 0.5
756 6.4492 7.7647 1.17561 0.5
757 11.7699 6.47771 11.9956 0.5
758 4.67265 11.7486 5.52632 0.5
759 11.4156 7.48017 1.78882 0.5
760 8.2203 5.03196 4.45207 0.5
761 2.5612 11.1572 1.24716 0.5
762 0.969853 3.24997 0.956781 0.5
763 12.5562 0.168196 4.01874 0.5
764 9.52832 8.72446 2.64602 0.5
765 0.129388 2.47037 0.912891 0.5
766 8.62149 2.69598 5.42814 0.5
767 3.61915 7.11842 0.660104 0.5
768 12.6277 12.5784 11.7237 0.5
769 11.7152 2.84527 5.79487 0.5
770 11.3688 8.07572 7.67207 0.5
771 8.5296 7.98497 5.85412 0.5
772 1.0507 2.22166 9.65924 0.5
773 9.78332 3.1553 8.50288 0.5
774 8.66066 1.26028 2.55163 0.5
775 9.56502 1.03162 12.0831 0.5
776 2.01443 8.92447 6.82305 0.5
777 10.9298 11.7017 3.57895 0.5
778 11.6923 11.5797 2.87784 0.5
779 8.51893 8.92043 5.67193 0.5
780 3.87708 10.7939 8.94326 0.5
781 13.1721 1.89292 6.26589 0.5
782 10.8652 3.17657 4.21304 0.5
783 13.2073 10.0442 12.6775 0.5
784 2.3934 2.17854 5.35026 0.5
785 11.3346 10.1155 6.56817 0.5
786 8.20989 3.49703 5.66775 0.5
787 5.50086 11.2349 2.35163 0.5
788 11.1418 6.96968 11.3435 0.5
789 10.1509 2.74237 1.06459 0.5
790 7.85107 1.6739 2.05544 0.5
791 5.3937 6.86908 12.1485 0.5
792 6.20224 2.43502 6.60043 0.5
793 7.02115 8.59102 3.46389 0.5
794 12.0406 0.573383 3.25656 0.5
795 9.41949 9.29681 5.92646 0.5
796 2.62781 9.81427 7.05627 0.5
797 4.02641 3.4306 11.3525 0.5
798 2.41018 3.31428 3.55833 0.5
799 0.171359 1.31908 5.665 0.5
800 0.61644 7.88502 13.46 0.5
801 7.64698 5.61291 3.78977 0.5
802 5.10113 10.902 12.0543 0.5
803 10.1387 12.0286 10.6515 0.5
804 0.00985782 7.54535 9.85223 0.5
805 8.603 7.42648 1.6853 0.5
806 2.76803 7.42339 8.64931 0.5
807 3.27579 5.66398 7.34718 0.5
808 2.20178 9.09619 3.18753 0.5
809 9.88506 4.17503 11.6031 0.5
810 2.09467 12.0593 11.8213 0.5
811 10.3006 7.58755 4.20037 0.5
812 2.27218 8.7669 11.7507 0.5
813 7.47007 6.2356 12.1734 0.5
814 8.95004 13.2448 4.39783 0.5
815 12.377 11.7614 8.18784 0.5
816 8.89945 6.44035 1.42168 0.5
817 10.8027 11.0746 2.88349 0.5
818 2.79099 11.8865 1.8584 0.5
819 6.43274 13.3954 8.06713 0.5
820 0.951166 12.2299 9.02298 0.5
821 11.611 3.34156 4.91808 0.5
822 9.23591 0.552876 4.00242 0.5
823 9.01615 0.447347 11.3548 0.5
824 1.85065 8.16061 5.3797 0.5
825 7.85425 1.5015 1.08734 0.5
826 7.1636 13.5408 8.55395 0.5
827 11.2044 0.801837 1.74766 0.5
828 5.99214 3.71369 1.89161 0.5
829 4.70337 2.09715 8.05627 0.5
830 4.91597 11.9471 8.45141 0.5
831 11.8229 0.455598 7.25417 0.5
832 13.0755 5.14257 10.0293 0.5
833 2.6542 11.3368 12.1021 0.5
834 9.46961 1.71619 12.9257 0.5
835 1.8289 5.54439 12.3172 0.5
836 7.86692 10.0957 12.5534 0.5
837 6.4288 3.61119 12.4878 0.5
838 12.1928 13.3694 12.2102 0.5
839 5.22163 5.80007 0.826318 0.5
840 7.41587 12.9596 13.2859 0.5
841 5.90003 10.852 6.2604 0.5
842 12.5132 4.10088 12.132 0.5
843 12.5684 3.74352 0.390643 0.5
844 4.86958 3.7724 13.5311 0.5
845 10.3975 4.84158 6.58887 0.5
846 5.82719 11.8852 9.05196 0.5
847 4.12724 7.63792 5.9682 0.5
848 4.43973 6.86628 11.6284 0.5
849 0.302119 12.9645 6.38258 0.5
850 10.226 12.2638 11.6406 0.5
851 6.88239 10.9794 6.28286 0.5
852 7.2554 10.4452 7.0844 0.5
853 3.78161 7.51323 9.01888 0.5
854 10.3058 6.59401 4.0534 0.5
855 9.05948 11.1256 3.4218 0.5
856 3.27038 0.0887861 3.87648 0.5
857 9.65708 4.65659 9.92041 0.5
858 7.83582 9.76604 9.08974 0.5
859 11.1148 4.73938 5.97222 0.5
860 10.2633 4.07667 5.82694 0.5
861 10.6439 0.678292 6.10234 0.5
862 10.1577 6.75524 11.2714 0.5
863 8.53173 8.29554 4.83416 0.5
864 7.79321 7.17243 7.27956 0.5
865 12.128 3.66959 1.36747 0.5
866 5.43162 11.5307 1.42584 0.5
867 12.716 3.28658 2.06002 0.5
868 9.84468 9.72708 9.27401 0.5
869 4.73129 0.561338 0.628203 0.5
870 3.4443 8.4491 6.09975 0.5
871 11.9907 8.33817 5.34116 0.5
872 1.08941 6.16865 12.0445 0.5
873 13.4439 1.22294 2.74641 0.5
874 8.32271 6.17839 12.6632 0.5
875 7.20318 11.8016 5.76872 0.5
876 1.95912 6.16407 8.34696 0.5
877 11.0011 8.55599 8.49367 0.5
878 1.4512 11.0967 0.999435 0.5
879 2.68761 4.354 6.24855 0.5
880 12.0662 0.758913 1.12679 0.5
881 9.90421 11.4224 12.2616 0.5
882 1.12674 10.1536 4.5248 0.5
883 10.3529 12.8003 1.93947 0.5
884 0.0518319 3.25679 1.59765 0.5
885 8.0595 10.7785 10.8618 0.5
886 1.68072 2.90117 8.09176 0.5
887 0.433707 1.51277 12.8179 0.5
888 5.91968 4.72545 1.9817 0.5
889 11.1202 3.92653 9.37059 0.5
890 12.0716 8.02493 6.32695 0.5
891 3.15973 5.4984 3.07263 0.5
892 8.74457 13.556 10.4134 0.5
893 10.767 3.61482 8.43904 0.5
894 7.81341 6.7052 1.59014 0.5
895 11.624 9.15423 0.755749 0.5
896 6.94245 12.1474 0.0507058 0.5
897 6.29449 11.6128 2.86413 0.5
898 4.91309 12.107 2.20462 0.5
899 10.3679 4.71056 10.7739 0.5
900 11.3945 12.351 9.38687 0.5
901 13.4676 5.98246 9.71611 0.5
902 11.6379 6.18884 9.27515 0.5
903 9.83148 8.15855 3.47242 0.5
904 8.17767 3.19247 4.58926 0.5
905 13.195 6.13787 5.93695 0.5
906 12.7403 5.55593 3.9278 0.5
907 6.62778 4.13653 10.2704 0.5
908 8.20937 0.233033 4.1972 0.5
909 9.77905 3.60583 2.83731 0.5
910 8.42247 1.6983 7.17958 0.5
911 5.54298 5.96022 12.6182 0.5
912 7.92613 8.34686 10.8816 0.5
913 11.6974 5.70207 0.0478117 0.5
914 4.22451 0.908797 1.43876 0.5
915 8.81031 3.17095 6.38188 0.5
916 10.3831 8.4634 7.75313 0.5
917 11.8572 0.342244 11.4941 0.5
918 8.90641 6.14654 8.21568 0.5
919 12.1336 11.459 0.39672 0.5
920 0.698391 11.6282 9.83557 0.5
921 6.75431 6.53914 6.74512 0.5
922 13.2243 3.48483 12.4008 0.5
923 1.28193 2.9154 9.02014 0.5
924 10.7074 12.826 8.82416 0.5
925 10.3626 4.3822 2.59575 0.5
926 4.85188 10.3846 12.879 0.5
927 1.54687 7.29533 5.04164 0.5
928 13.0897 6.46521 6.86847 0.5
929 1.50529 2.29789 10.5727 0.5
930 10.2637 10.3454 8.62612 0.5
931 5.36164 9.37265 11.6261 0.5
932 3.68849 8.3275 2.81413 0.5