ITEM: TIMESTEP
580000
ITEM: NUMBER OF ATOMS
1000
ITEM: BOX BOUNDS xy xz yz pp pp pp
0.0000000000000000e+00 1.3572088000000001e+01 0.0000000000000000e+00
0.0000000000000000e+00 1.3572088000000001e+01 0.0000000000000000e+00
0.0000000000000000e+00 1.3572088000000001e+01 0.0000000000000000e+00
ITEM: ATOMS id x y z radius
1 4.48662 3.95207 12.1499 0.5
2 5.00519 11.0656 3.54839 0.5
3 8.72054 10.1145 2.90376 0.5
4 10.0117 5.83634 1.1791 0.5
5 8.55481 7.92911 10.5545 0.5
6 3.67382 12.8271 5.12981 0.5
7 2.39899 8.47629 1.24113 0.5
8 13.428 11.1528 2.08401 0.5
9 1.73545 8.34731 6.70275 0.5
10 3.80336 13.3837 11.2691 0.5
11 0.964864 9.5073 9.03893 0.5
12 10.2626 5.52203 0.284847 0.5
13 8.4108 11.9243 5.55872 0.5
14 11.0304 2.24281 4.18222 0.5
15 5.98915 2.31983 4.53012 0.5
16 7.90085 6.80198 9.48263 0.5
17 6.53082 12.4257 11.0434 0.5
18 2.60004 8.4814 6.18632 0.5
19 10.1231 5.10225 1.95904 0.5
20 9.49253 11.6214 2.3736 0.5
21 2.40324 4.6041 0.748085 0.5
22 1.26845 6.28998 12.3372 0.5
23 1.75852 1.31977 10.1352 0.5
24 7.76498 7.04421 2.12236 0.5
25 0.833955 5.64367 2.22324 0.5
26 10.3634 10.5621 5.62405 0.5
27 11.52 6.69949 12.2613 0.5
28 5.60982 11.2226 12.3029 0.5
29 0.227693 5.99369 1.35252 0.5
30 8.26147 11.0547 1.56625 0.5
31 1.00965 13.5059 8.33631 0.5
32 9.02949 2.6155 13.1624 0.5
33 12.9838 6.14976 9.39176 0.5
34 3.49244 8.84673 5.74307 0.5
35 11.5438 6.51496 13.3808 0.5
36 8.65887 1.88569 4.68113 0.5
37 0.379787 0.964196 2.64554 0.5
38 2.45077 1.65552 2.33792 0.5
39 10.4773 4.33305 1.45082 0.5
40 5.65985 6.0654 6.44581 0.5
41 7.84003 11.466 4.88935 0.5
42 6.86295 5.30811 3.61798 0.5
43 5.13705 5.342 9.89396 0.5
44 4.76731 11.3628 8.2668 0.5
45 7.55126 6.03364 2.1868 0.5
46 10.3045 10.7289 0.188487 0.5
47 2.63082 9.33578 5.57428 0.5
48 7.79214 10.7547 0.671749 0.5
49 5.83766 11.338 9.71641 0.5
50 6.18209 0.821804 10.5812 0.5
51 12.8062 9.92138 7.22703 0.5
52 6.36394 10.3739 7.41352 0.5
53 9.99263 3.53727 1.69579 0.5
54 11.6723 11.6127 3.96307 0.5
55 13.3025 0.37043 6.31379 0.5
56 0.0922436 3.80792 3.18969 0.5
57 0.743874 11.5956 11.4472 0.5
58 5.37698 8.51296 10.644 0.5
59 1.84696 10.2871 11.2956 0.5
60 7.63236 5.15168 9.59148 0.5
61 4.44639 0.388955 10.8432 0.5
62 0.871074 8.83809 0.858139 0.5
63 11.5442 8.69109 1.97659 0.5
64 12.4425 1.864 9.71764 0.5
65 13.5626 1.68345 5.24733 0.5
66 12.5965 1.27679 1.74067 0.5
67 8.19697 3.3782 8.65805 0.5
68 3.12799 1.48262 3.05844 0.5
69 11.8701 2.21277 10.5028 0.5
70 12.4681 3.52456 9.75019 0.5
71 2.99566 5.94871 8.87261 0.5
72 7.46854 2.40839 10.8083 0.5
73 8.53417 6.71711 8.86171 0.5
74 5.95316 4.75168 9.96823 0.5
75 8.894 0.306546 10.6862 0.5
76 12.2733 3.03202 13.2047 0.5
77 10.6112 2.67206 3.4644 0.5
78 8.64032 2.86523 5.17522 0.5
79 4.25064 12.3547 5.74983 0.5
80 5.21828 2.87876 8.42921 0.5
81 1.46298 3.44205 11.4636 0.5
82 1.00912 8.81827 13.4424 0.5
83 3.41255 0.588908 6.22607 0.5
84 0.118466 9.19266 9.39205 0.5
85 13.068 3.80257 6.35179 0.5
86 3.15651 0.518217 13.3532 0.5
87 4.22404 5.66243 5.96243 0.5
88 6.83963 5.7059 4.51149 0.5
89 11.3047 12.3576 7.77686 0.5
90 3.97929 6.12115 4.34199 0.5
91 11.7475 7.69339 11.915 0.5
92 0.0406746 1.29128 1.65363 0.5
93 0.0831783 0.499727 12.9409 0.5
94 4.67382 10.0249 12.9401 0.5
95 11.99 1.12368 8.24226 0.5
96 11.8376 2.63225 4.60063 0.5
97 11.8903 2.66254 5.57625 0.5
98 10.7109 9.83817 0.507222 0.5
99 6.49407 8.55493 9.3287 0.5
100 0.474968 7.30307 6.37255 0.5
101 4.88726 11.6925 2.7465 0.5
102 8.68985 7.41746 9.6569 0.5
103 4.27251 4.82427 10.2727 0.5
104 6.64848 11.473 6.0915 0.5
105 11.4964 12.1853 6.76197 0.5
106 5.86161 1.77746 10.869 0.5
107 13.478 5.33824 6.85069 0.5
108 12.8514 10.7479 5.59151 0.5
109 0.954959 12.3939 9.49945 0.5
110 8.10757 9.4386 8.8851 0.5
111 8.81347 0.192846 3.71504 0.5
112 6.15088 1.37664 4.82545 0.5
113 0.294395 13.3378 5.61279 0.5
114 7.71251 6.43713 3.03642 0.5
115 5.48837 6.29933 11.8542 0.5
116 13.5262 5.21233 1.97962 0.5
117 0.966826 1.31186 5.67576 0.5
118 10.8813 9.69177 5.83453 0.5
119 12.1111 7.91889 1.62853 0.5
120 5.40914 9.41741 3.99398 0.5
121 11.5527 13.1881 11.6772 0.5
122 2.61007 3.79295 2.15607 0.5
123 11.903 1.98711 8.88415 0.5
124 10.2825 11.2576 11.7221 0.5
125 4.78738 12.0722 3.71469 0.5
126 11.0993 11.2464 13.2865 0.5
127 7.89569 10.2538 11.1506 0.5
128 4.93845 3.06847 7.4702 0.5
129 2.29382 6.21473 12.1104 0.5
130 1.64174 11.997 11.0663 0.5
131 7.97458 2.27394 2.1661 0.5
132 5.63858 11.9912 2.16409 0.5
133 1.35136 11.0366 10.8478 0.5
134 10.9662 11.7646 3.37869 0.5
135 11.9479 1.73276 6.00388 0.5
136 8.08178 4.51619 4.31894 0.5
137 3.26361 12.4184 5.93381 0.5
138 7.37203 12.5533 13.1976 0.5
139 5.8067 0.187148 0.105341 0.5
140 4.83477 4.04168 3.87874 0.5
141 1.65767 3.48121 4.15147 0.5
142 9.91654 3.13016 12.9232 0.5
143 1.15377 12.7098 0.284607 0.5
144 8.69709 12.9561 9.17232 0.5
145 6.92543 6.76463 2.47665 0.5
146 9.90542 8.97709 8.81414 0.5
147 4.37749 6.73806 0.593727 0.5
148 12.3593 0.18969 11.4407 0.5
149 8.23644 6.90043 10.5102 0.5
150 12.5896 11.4373 3.60801 0.5
151 6.80464 12.6088 10.1512 0.5
152 3.62519 4.3016 11.7462 0.5
153 12.1947 7.91013 7.31027 0.5
154 2.56578 2.75165 2.32946 0.5
155 2.43152 8.18973 10.6363 0.5
156 8.17935 12.5743 0.176527 0.5
157 2.04759 0.56099 4.21964 0.5
158 1.88212 9.74529 8.68963 0.5
159 4.04505 1.76492 8.94123 0.5
160 9.62198 0.459355 11.4592 0.5
161 12.7035 2.69567 10.2032 0.5
162 6.75194 2.66668 8.07609 0.5
163 11.6844 9.6179 0.695482 0.5
164 9.70416 3.55021 10.8687 0.5
165 6.9924 11.6349 11.3595 0.5
166 10.645 12.7661 7.05887 0.5
167 11.3675 8.10837 7.85423 0.5
168 0.385343 2.73332 7.55988 0.5
169 10.1765 11.0419 12.7796 0.5
170 3.60263 6.60757 0.079416 0.5
171 10.7863 5.27609 1.03994 0.5
172 11.8993 8.06925 9.92614 0.5
173 8.74141 10.2887 1.98416 0.5
174 4.1849 0.418302 13.2843 0.5
175 2.30966 6.50145 4.11568 0.5
176 3.62592 5.58123 3.46042 0.5
177 8.92032 4.23602 6.22152 0.5
178 5.5396 3.24336 4.23109 0.5
179 12.8369 5.84062 1.58077 0.5
180 9.23554 2.69567 12.1398 0.5
181 10.8531 11.2397 9.74492 0.5
182 3.20234 11.608 1.39325 0.5
183 8.25711 7.05141 6.08869 0.5
184 10.923 5.62451 8.82118 0.5
185 8.82451 13.4117 11.5749 0.5
186 4.8531 8.4242 2.79011 0.5
187 5.06742 0.19859 12.9662 0.5
188 4.76793 5.80218 6.75398 0.5
189 0.511652 10.7608 6.61596 0.5
190 9.19332 12.9324 3.65605 0.5
191 9.31718 7.34327 3.59251 0.5
192 9.95641 0.93767 0.192809 0.5
193 11.3272 1.76674 9.70969 0.5
194 9.52098 13.1259 10.8699 0.5
195 0.233978 10.3278 12.402 0.5
196 9.05579 0.72739 4.51038 0.5
197 2.44649 6.54084 8.33788 0.5
198 6.02059 5.83487 12.5145 0.5
199 11.6018 0.305374 8.63712 0.5
200 6.97659 6.58374 1.50427 0.5
201 13.3846 4.31787 7.10487 0.5
202 6.16638 13.0726 7.24723 0.5
203 1.90427 4.18293 1.45349 0.5
204 3.5647 7.69399 8.78945 0.5
205 12.8392 13.1669 3.88713 0.5
206 0.857156 1.43861 9.79062 0.5
207 4.34664 12.0383 8.90269 0.5
208 9.21266 3.77831 5.3516 0.5
209 5.41936 2.39445 3.603 0.5
210 4.06953 6.46146 5.30814 0.5
211 4.5915 3.94835 10.4955 0.5
212 3.04359 5.66628 4.27539 0.5
213 3.57577 1.62596 6.08196 0.5
214 10.1179 4.33965 11.4343 0.5
215 7.9123 6.45483 1.21055 0.5
216 6.31663 8.0999 0.276662 0.5
217 4.3916 11.3256 4.48915 0.5
218 6.47921 8.21742 4.62238 0.5
219 9.42996 1.00245 3.60588 0.5
220 7.10761 2.24929 9.81177 0.5
221 3.28785 3.40552 5.95705 0.5
222 6.96254 11.355 5.17224 0.5
223 4.61903 9.31145 3.25643 0.5
224 12.7492 9.3377 3.64296 0.5
225 7.92903 11.2982 11.4715 0.5
226 10.6204 6.18433 13.2674 0.5
227 13.2821 7.56545 9.54982 0.5
228 4.70832 11.5203 5.41578 0.5
229 5.41897 4.36643 6.34063 0.5
230 6.02362 9.32315 9.08808 0.5
231 8.12931 5.87113 9.17154 0.5
232 8.04815 4.57249 13.0334 0.5
233 1.16868 0.510598 9.88761 0.5
234 11.4662 1.87395 5.0782 0.5
235 1.28005 10.8359 3.50397 0.5
236 10.934 6.21812 0.652045 0.5
237 5.04098 7.805 6.67655 0.5
238 0.206339 12.3021 6.12334 0.5
239 9.99519 8.08176 3.62129 0.5
240 1.1948 4.821 13.1242 0.5
241 3.89949 5.96429 0.903492 0.5
242 2.74009 0.670267 2.6933 0.5
243 2.5021 9.81882 3.29165 0.5
244 3.93438 11.585 6.14158 0.5
245 1.74598 11.186 11.7359 0.5
246 9.78494 9.95071 8.50365 0.5
247 3.54651 0.604255 10.483 0.5
248 7.38521 2.78513 2.76523 0.5
249 10.4141 1.75065 13.4483 0.5
250 9.92379 1.71247 0.753798 0.5
251 4.61756 9.89895 11.9832 0.5
252 8.34227 8.51102 12.9465 0.5
253 1.41732 8.1867 1.34632 0.5
254 11.2624 2.84249 2.63296 0.5
255 8.28655 9.42385 2.24987 0.5
256 1.36015 13.3379 3.74994 0.5
257 0.270097 3.41941 6.87919 0.5
258 13.2214 7.07126 4.87646 0.5
259 4.94346 4.39407 9.68284 0.5
260 6.70425 11.6737 10.2935 0.5
261 11.1711 3.11422 6.09949 0.5
262 7.39626 12.1172 5.48666 0.5
263 1.91777 3.58953 7.97555 0.5
264 10.4008 10.7467 8.95086 0.5
265 1.54069 4.03187 5.01914 0.5
266 3.85257 13.3291 5.93003 0.5
267 5.08533 7.55191 9.22538 0.5
268 6.95941 2.46383 1.96591 0.5
269 9.01358 0.248589 8.97312 0.5
270 6.58561 9.94451 8.33488 0.5
271 10.7448 11.6808 7.07289 0.5
272 6.36972 9.02465 0.803981 0.5
273 7.59275 4.58279 3.50341 0.5
274 10.8064 4.72286 9.12634 0.5
275 2.91899 10.7957 1.13924 0.5
276 4.04461 2.71811 0.0926423 0.5
277 7.30299 5.10835 13.2018 0.5
278 11.4402 10.5294 0.402075 0.5
279 9.29074 11.6867 6.07287 0.5
280 4.70635 12.4149 2.03674 0.5
281 6.55337 2.54222 10.5942 0.5
282 0.403796 11.4845 1.23453 0.5
283 5.04146 6.30018 1.9865 0.5
284 2.10297 10.889 0.399664 0.5
285 3.49797 9.87382 5.84374 0.5
286 2.81405 1.13315 12.6266 0.5
287 7.68114 7.33596 6.90715 0.5
288 5.62198 0.658299 6.08387 0.5
289 2.27547 10.7583 3.24172 0.5
290 1.0606 12.6567 5.92643 0.5
291 5.42255 0.868478 5.10488 0.5
292 4.2072 3.23074 12.8471 0.5
293 10.39 5.64571 3.85412 0.5
294 2.54721 10.0807 6.21892 0.5
295 2.8797 1.48888 6.77728 0.5
296 13.5258 4.69821 6.11527 0.5
297 10.352 10.5017 11.057 0.5
298 9.65063 4.3911 12.3293 0.5
299 2.13449 0.556418 13.0057 0.5
300 9.46409 4.43784 1.78115 0.5
301 5.85121 7.25138 11.6708 0.5
302 2.55852 8.79254 3.35194 0.5
303 12.1677 9.2322 2.68681 0.5
304 0.255964 7.71951 5.44035 0.5
305 8.13835 12.7239 8.36431 0.5
306 11.1053 8.20012 1.21699 0.5
307 2.4619 6.97159 3.28415 0.5
308 13.5119 10.1691 11.4271 0.5
309 13.4364 13.1957 12.6108 0.5
310 9.00811 13.2751 4.56888 0.5
311 13.546 6.33821 6.45313 0.5
312 7.4859 12.1725 10.7276 0.5
313 1.07491 10.5682 4.44353 0.5
314 6.22654 12.2505 9.38053 0.5
315 12.5831 4.90126 1.85477 0.5
316 8.26282 6.12149 8.07049 0.5
317 13.398 8.55448 3.72499 0.5
318 0.218575 5.70667 5.85883 0.5
319 10.8961 11.3159 0.656959 0.5
320 5.68261 3.51488 6.88516 0.5
321 2.05867 12.7311 3.27051 0.5
322 10.2038 13.2059 1.11449 0.5
323 3.62111 1.03711 2.30129 0.5
324 10.9648 3.6242 3.16891 0.5
325 1.7258 5.29902 0.197878 0.5
326 10.3662 12.8819 0.185099 0.5
327 8.65733 3.11205 7.82622 0.5
328 12.0819 7.22556 12.7997 0.5
329 8.38218 2.58453 9.33499 0.5
330 8.16457 1.13104 5.24315 0.5
331 5.10013 2.82572 2.78858 0.5
332 11.9764 1.06925 9.20829 0.5
333 13.1493 1.47081 2.60652 0.5
334 4.20889 6.50791 1.6116 0.5
335 9.67804 0.369986 5.1944 0.5
336 5.0289 1.8463 8.71838 0.5
337 12.2355 1.05086 11.7598 0.5
338 7.74278 5.96732 10.1239 0.5
339 10.1263 4.11597 2.5177 0.5
340 12.1117 3.57782 11.4675 0.5
341 8.32789 0.257107 9.65158 0.5
342 6.29327 0.508575 5.48103 0.5
343 7.03202 5.93471 9.35748 0.5
344 4.85303 6.81659 6.78787 0.5
345 8.75238 7.89164 5.8535 0.5
346 1.21422 7.15404 5.65793 0.5
347 13.2284 11.9124 0.59852 0.5
348 1.44189 4.36892 0.519996 0.5
349 7.67888 6.38058 6.47659 0.5
350 8.75873 7.402 11.3517 0.5
351 2.23044 9.07643 11.0851 0.5
352 8.68346 12.3952 7.61794 0.5
353 8.50753 7.18481 0.601647 0.5
354 2.48063 2.89995 5.80128 0.5
355 1.55757 7.12262 3.75608 0.5
356 11.9089 13.2312 4.36251 0.5
357 6.59772 12.2508 3.60977 0.5
358 3.68872 1.08777 9.5528 0.5
359 7.02119 9.44862 9.09591 0.5
360 12.5966 4.6021 5.69906 0.5
361 3.77087 1.04766 7.08309 0.5
362 1.63138 1.27689 9.21768 0.5
363 10.377 12.1743 0.887111 0.5
364 3.0703 7.76741 1.23057 0.5
365 2.07244 7.71484 0.801448 0.5
366 6.50688 8.86249 8.42568 0.5
367 10.2377 11.7745 13.4851 0.5
368 5.52498 5.06722 9.04995 0.5
369 1.9637 3.11153 4.95418 0.5
370 0.167793 10.1846 5.78329 0.5
371 9.78967 0.217486 4.13824 0.5
372 0.275137 4.71104 3.59749 0.5
373 4.65272 2.34147 12.8724 0.5
374 0.743962 9.57544 12.8794 0.5
375 0.995907 9.62383 8.09354 0.5
376 2.04854 11.053 4.1942 0.5
377 7.71681 5.31842 4.06978 0.5
378 5.92639 8.94374 13.4451 0.5
379 4.80603 5.89662 0.99818 0.5
380 7.558 4.51338 0.303377 0.5
381 9.95654 3.49895 8.65172 0.5
382 9.60351 3.14649 7.73563 0.5
383 2.07613 4.48006 13.3322 0.5
384 5.57938 9.84064 13.3443 0.5
385 13.1087 11.0543 1.10206 0.5
386 0.127556 3.89616 4.14944 0.5
387 2.63134 6.69086 11.2062 0.5
388 1.48574 2.23757 9.68767 0.5
389 4.69199 9.90814 10.9436 0.5
390 5.20573 4.7143 10.6205 0.5
391 7.07458 0.80413 2.3826 0.5
392 13.1473 4.60599 2.71111 0.5
393 2.56965 4.04867 8.76104 0.5
394 8.98569 9.34474 8.30077 0.5
395 1.67245 0.289863 9.00609 0.5
396 0.432532 2.00508 2.33739 0.5
397 7.39538 1.55147 1.6361 0.5
398 8.87904 12.1785 2.87356 0.5
399 1.01557 4.28022 4.17929 0.5
400 7.16793 8.87791 4.95338 0.5
401 9.85813 2.52876 0.165917 0.5
402 4.57802 7.28433 5.9007 0.5
403 6.89429 0.333339 7.09495 0.5
404 11.1231 11.0256 12.3027 0.5
405 12.1877 5.68375 13.3973 0.5
406 6.85642 3.15017 1.22249 0.5
407 1.87439 11.7073 3.37601 0.5
408 2.44501 3.88887 5.57834 0.5
409 3.60354 4.25398 10.7268 0.5
410 11.6035 2.85782 3.56212 0.5
411 4.42379 5.9408 0.00807608 0.5
412 5.03728 0.855624 0.159669 0.5
413 2.97231 5.8465 7.84922 0.5
414 3.04407 8.52971 11.3746 0.5
415 8.14807 10.5008 12.11 0.5
416 8.7851 11.0392 5.32658 0.5
417 0.795198 13.3671 9.33976 0.5
418 9.46728 1.23479 10.7695 0.5
419 2.97251 13.2857 10.7174 0.5
420 3.8038 0.0574284 6.96727 0.5
421 13.2027 5.10536 9.45492 0.5
422 8.52456 4.4993 5.30098 0.5
423 12.7129 13.4719 2.92302 0.5
424 2.9636 3.24495 4.99383 0.5
425 8.59679 8.51856 11.3449 0.5
426 1.15535 12.4645 7.98979 0.5
427 7.71921 2.49735 1.32339 0.5
428 0.953044 8.6704 9.3579 0.5
429 11.2639 5.589 7.81911 0.5
430 9.81897 13.132 11.8247 0.5
431 1.94813 4.62976 8.24223 0.5
432 13.093 2.14575 1.88188 0.5
433 7.61482 11.668 0.0230924 0.5
434 0.312183 3.11255 13.3214 0.5
435 10.996 9.21497 1.29604 0.5
436 6.87956 5.27735 10.0995 0.5
437 4.12814 9.30235 6.41883 0.5
438 5.68984 3.61551 7.86992 0.5
439 11.0945 10.5684 10.4238 0.5
440 9.48376 10.7783 6.04453 0.5
441 6.03327 1.48866 5.75006 0.5
442 1.43137 7.27486 6.65955 0.5
443 1.15839 12.0978 1.10571 0.5
444 9.15128 9.00713 13.2389 0.5
445 4.97051 8.51008 3.7346 0.5
446 3.12004 6.45123 4.84274 0.5
447 2.12453 9.31107 6.43694 0.5
448 5.56474 9.50234 0.652353 0.5
449 3.58004 12.5504 10.8487 0.5
450 2.4325 2.30427 1.55501 0.5
451 7.73289 3.53132 0.785314 0.5
452 1.82868 8.6555 0.507829 0.5
453 4.94519 9.31494 2.29055 0.5
454 2.95687 13.4 3.13759 0.5
455 1.58459 2.37833 11.3962 0.5
456 8.22265 0.114443 8.52595 0.5
457 12.3903 11.3813 9.10186 0.5
458 4.41849 0.543126 9.94324 0.5
459 12.9829 2.21511 5.97844 0.5
460 12.6013 6.57772 13.4287 0.5
461 11.323 8.48681 11.5036 0.5
462 10.0441 4.06349 7.84715 0.5
463 6.63633 3.47872 7.38105 0.5
464 0.109354 8.37975 9.89095 0.5
465 5.47987 10.22 12.3301 0.5
466 2.93819 13.3286 6.48638 0.5
467 1.15334 7.93049 0.414774 0.5
468 0.0446866 8.20568 8.87488 0.5
469 2.1869 3.06271 10.9763 0.5
470 1.71558 6.42732 11.3353 0.5
471 4.17128 1.41385 10.4857 0.5
472 10.8024 6.48142 3.87625 0.5
473 11.5482 8.48196 6.87999 0.5
474 3.23285 6.88496 9.42945 0.5
475 6.40888 3.94839 6.52039 0.5
476 6.53194 1.22028 11.4142 0.5
477 5.82874 7.96928 9.82377 0.5
478 3.50377 12.2526 0.641687 0.5
479 8.44929 7.46128 13.0931 0.5
480 4.4299 10.4185 8.71043 0.5
481 2.18255 3.67931 0.552345 0.5
482 11.0491 12.9373 0.934595 0.5
483 8.6326 11.1678 2.5042 0.5
484 10.1369 7.2888 4.17324 0.5
485 5.02373 5.46118 2.48677 0.5
486 3.89369 11.2012 8.86874 0.5
487 4.32055 2.51821 8.12635 0.5
488 5.50597 5.20789 6.97542 0.5
489 3.64552 0.641363 3.18168 0.5
490 0.517239 12.6924 8.70862 0.5
491 2.27512 7.2148 11.9515 0.5
492 0.832228 5.39311 12.3663 0.5
493 12.0696 8.78512 10.7196 0.5
494 6.56602 4.68417 0.260931 0.5
495 6.615 7.29676 0.854468 0.5
496 6.64096 0.48914 13.3763 0.5
497 4.585 4.85234 6.50875 0.5
498 3.70008 11.7547 5.15077 0.5
499 6.68812 2.16709 11.43 0.5
500 9.76601 9.73081 5.98421 0.5
501 5.00771 2.4402 4.5293 0.5
502 9.4251 10.5721 9.2107 0.5
503 6.96662 5.66251 12.322 0.5
504 2.49494 1.43963 13.4907 0.5
505 4.3721 2.82456 11.9548 0.5
506 3.96014 10.9723 1.48349 0.5
507 7.47533 3.80102 4.2427 0.5
508 0.0703026 1.3813 6.14672 0.5
509 5.23816 5.35939 5.95044 0.5
510 7.15791 10.6859 11.772 0.5
511 6.53039 0.903601 6.36501 0.5
512 9.19408 11.129 3.2161 0.5
513 4.90762 4.64919 2.02022 0.5
514 6.13606 8.10892 1.29697 0.5
515 1.51348 10.0434 2.94994 0.5
516 5.579 9.01176 3.1009 0.5
517 0.883691 3.35043 4.74776 0.5
518 2.33372 6.50247 9.35091 0.5
519 4.97429 7.61536 10.3474 0.5
520 2.34625 0.600127 0.43489 0.5
521 11.1543 5.82857 4.51351 0.5
522 2.41468 9.07856 12.053 0.5
523 13.0669 7.74885 3.22534 0.5
524 0.645646 0.509361 6.2666 0.5
525 11.1027 8.78793 0.372945 0.5
526 9.01566 12.2005 8.61532 0.5
527 7.30623 10.7282 1.55518 0.5
528 1.57294 0.0574466 0.022544 0.5
529 0.34643 12.5395 0.926155 0.5
530 11.8725 2.67717 9.64308 0.5
531 11.1822 8.24608 10.4529 0.5
532 6.32691 9.32137 4.5768 0.5
533 5.86883 7.56069 10.709 0.5
534 3.0769 12.714 11.5371 0.5
535 8.04936 13.2211 12.929 0.5
536 1.69853 12.4483 4.19209 0.5
537 2.98913 11.0211 9.04098 0.5
538 7.95496 10.0321 1.42662 0.5
539 2.14887 7.8828 3.34772 0.5
540 0.214832 3.65847 7.85678 0.5
541 4.00267 11.6347 2.2078 0.5
542 7.70751 0.640313 13.0997 0.5
543 13.0456 6.3316 5.52265 0.5
544 8.32612 2.38585 8.35448 0.5
545 1.63172 7.05252 2.76829 0.5
546 1.1318 0.679227 12.8511 0.5
547 10.2337 5.32235 4.81094 0.5
548 11.7185 13.0319 7.20001 0.5
549 12.0549 10.3853 8.94885 0.5
550 12.878 12.3735 3.21295 0.5
551 6.46088 1.59468 1.91093 0.5
552 3.6989 7.54608 0.377905 0.5
553 10.3723 5.98697 8.06145 0.5
554 3.87198 12.6036 6.71038 0.5
555 0.798173 3.33217 3.74143 0.5
556 7.07474 13.4215 12.8399 0.5
557 7.52234 11.6457 1.11393 0.5
558 4.63959 1.47965 9.65923 0.5
559 3.45838 10.2947 8.47447 0.5
560 7.01307 3.15429 11.1603 0.5
561 7.99645 8.86846 12.0348 0.5
562 13.0411 2.58302 13.0907 0.5
563 8.46394 6.6337 7.03805 0.5
564 6.41521 4.85053 12.8225 0.5
565 9.46195 4.89393 5.44543 0.5
566 6.82725 1.623 10.5988 0.5
567 12.9166 4.27829 3.61427 0.5
568 7.53174 1.58456 11.3474 0.5
569 11.7964 6.87339 11.2492 0.5
570 12.9695 7.82982 2.16885 0.5
571 2.87541 0.583904 3.76117 0.5
572 4.28353 3.71431 0.131468 0.5
573 0.378908 13.1732 6.55458 0.5
574 8.94868 8.2469 3.3195 0.5
575 8.79586 13.2447 2.83179 0.5
576 4.14469 10.8514 7.92611 0.5
577 4.09055 9.00756 2.43554 0.5
578 2.03789 11.5336 1.22338 0.5
579 12.8301 10.2166 12.255 0.5
580 2.52118 5.0927 7.49236 0.5
581 1.55173 12.9061 8.89808 0.5
582 2.57597 12.3117 10.7219 0.5
583 3.01936 10.5997 0.150375 0.5
584 10.1708 6.28719 4.61408 0.5
585 12.8707 5.49921 6.10069 0.5
586 0.356509 5.79011 9.46257 0.5
587 12.8531 2.76246 1.09283 0.5
588 0.233597 12.6333 13.5338 0.5
589 0.166592 9.86396 8.66349 0.5
590 3.97196 11.8231 7.91146 0.5
591 3.55299 3.36722 12.0222 0.5
592 10.5243 11.3847 10.6315 0.5
593 6.64559 9.40654 7.47894 0.5
594 13.1147 10.7235 6.47096 0.5
595 12.874 9.79649 6.1577 0.5
596 9.28465 9.51405 2.27962 0.5
597 2.7741 10.0488 9.14202 0.5
598 7.62329 11.346 5.94925 0.5
599 11.4035 11.0699 8.94377 0.5
600 12.333 6.30981 12.6559 0.5
601 2.62917 5.83103 3.29126 0.5
602 0.213699 6.54047 9.96126 0.5
603 2.92698 7.59244 11.315 0.5
604 5.14418 1.12018 10.4878 0.5
605 7.62114 2.52588 11.681 0.5
606 10.9755 9.12927 4.91618 0.5
607 8.74604 10.2064 8.57692 0.5
608 8.38364 0.408424 12.3277 0.5
609 1.67199 11.7373 0.386944 0.5
610 1.38705 8.77014 8.47019 0.5
611 0.470904 8.9356 8.5091 0.5
612 5.52935 13.5206 3.08321 0.5
613 3.68169 5.55486 5.02001 0.5
614 3.8124 13.313 10.2011 0.5
615 3.72937 10.4549 9.40472 0.5
616 13.5437 6.17217 2.31613 0.5
617 6.81847 5.85618 2.84493 0.5
618 11.6929 7.1192 7.76588 0.5
619 12.4595 3.97347 12.3901 0.5
620 0.816721 10.6491 11.5529 0.5
621 2.36414 3.99432 4.56807 0.5
622 5.49389 8.57278 8.94125 0.5
623 12.9116 7.9361 4.35006 0.5
624 12.7856 5.5623 2.59146 0.5
625 1.70374 3.85539 10.6287 0.5
626 2.84218 3.81289 1.18389 0.5
627 9.97215 6.50056 0.358576 0.5
628 13.0573 4.2642 9.96576 0.5
629 5.16321 4.39722 2.93599 0.5
630 2.71424 2.83549 0.784239 0.5
631 9.2309 1.01007 0.785724 0.5
632 6.51536 12.9764 13.5199 0.5
633 10.1364 0.699091 1.13126 0.5
634 10.1146 10.668 10.0281 0.5
635 9.83088 2.14852 12.743 0.5
636 9.7832 3.46093 11.9256 0.5
637 0.0745161 9.90703 6.80383 0.5
638 5.31856 1.57741 4.25862 0.5
639 9.25034 7.19539 10.4037 0.5
640 1.78713 4.32133 7.30603 0.5
641 7.33484 7.12657 5.89148 0.5
642 11.2491 5.52249 0.0815865 0.5
643 11.1051 0.756053 7.80761 0.5
644 7.16709 3.22782 10.1522 0.5
645 0.14284 11.2673 5.89416 0.5
646 8.94247 8.90577 12.2702 0.5
647 8.79034 4.85926 12.3049 0.5
648 7.55504 9.74011 11.9084 0.5
649 5.17582 7.89299 11.3828 0.5
650 2.88729 0.537331 7.13539 0.5
651 0.985972 6.349 6.28284 0.5
652 5.06738 4.2342 7.2192 0.5
653 0.133879 5.4616 2.91532 0.5
654 4.20874 10.6218 11.3743 0.5
655 11.6843 11.8844 9.57803 0.5
656 1.27413 11.0659 0.941232 0.5
657 11.1141 0.216289 6.94655 0.5
658 9.44448 10.3272 5.23842 0.5
659 0.895933 9.97718 3.74202 0.5
660 0.812311 0.740508 9.01772 0.5
661 2.559 7.29735 8.83726 0.5
662 3.97708 10.7539 5.47982 0.5
663 5.64594 12.6459 3.64329 0.5
664 4.87091 6.40748 5.89571 0.5
665 10.1953 11.1594 3.0643 0.5
666 5.26805 12.1311 9.50977 0.5
667 10.7793 4.01745 8.40758 0.5
668 5.48011 3.58765 3.30239 0.5
669 7.93071 10.4165 2.34978 0.5
670 9.02756 13.1285 8.20917 0.5
671 7.14529 8.26017 0.892382 0.5
672 3.34307 2.53249 5.50736 0.5
673 5.41354 8.53714 0.588891 0.5
674 2.72143 8.07577 12.2737 0.5
675 3.04351 3.64295 11.3268 0.5
676 2.01542 0.198823 3.30212 0.5
677 3.52281 9.3868 3.27096 0.5
678 12.851 8.09747 10.4333 0.5
679 10.7393 12.3209 6.11096 0.5
680 4.89181 11.5697 1.59869 0.5
681 4.66817 0.887467 8.90559 0.5
682 2.07075 3.07734 9.96345 0.5
683 1.72494 5.50313 11.7597 0.5
684 12.0316 13.0415 3.40705 0.5
685 12.2835 12.3039 4.01922 0.5
686 11.0352 7.64261 11.2094 0.5
687 4.89567 9.15201 13.5272 0.5
688 1.10964 8.04614 6.00896 0.5
689 3.18664 3.03059 1.6673 0.5
690 4.52869 8.49153 7.10926 0.5
691 13.5012 11.0318 11.7679 0.5
692 4.83819 13.4983 0.378665 0.5
693 12.0566 5.99852 11.7718 0.5
694 5.69168 8.94924 9.83424 0.5
695 12.1789 8.21525 2.68406 0.5
696 10.5573 3.26105 7.83742 0.5
697 0.0136497 9.48102 7.73447 0.5
698 6.22381 10.6489 6.4564 0.5
699 2.86854 8.23726 0.429932 0.5
700 12.4066 8.42901 3.61588 0.5
701 9.27811 8.14415 12.9818 0.5
702 4.37433 1.51243 7.98747 0.5
703 1.83692 5.40567 12.742 0.5
704 9.15163 2.91423 8.65766 0.5
705 10.7383 7.3008 7.88556 0.5
706 6.95734 10.6137 5.80709 0.5
707 3.88226 4.04969 9.65288 0.5
708 13.0466 1.79774 0.929012 0.5
709 9.62271 0.049612 0.455359 0.5
710 7.26391 6.18969 3.80845 0.5
711 0.81143 13.345 12.9395 0.5
712 12.7101 2.674 9.17341 0.5
713 8.20085 9.81908 7.90052 0.5
714 12.597 4.7204 6.64124 0.5
715 13.0233 8.68851 2.78111 0.5
716 2.02319 2.18937 10.5404 0.5
717 2.80731 7.2669 0.449064 0.5
718 11.9246 0.281257 7.65033 0.5
719 4.63036 10.8715 12.3037 0.5
720 12.6394 11.5868 2.54035 0.5
721 11.1581 6.4907 8.3166 0.5
722 6.00168 0.0662905 12.7396 0.5
723 3.35434 12.056 8.69839 0.5
724 9.20975 13.4132 9.93363 0.5
725 2.64218 1.84151 5.8303 0.5
726 7.50447 2.50541 8.88458 0.5
727 5.03354 3.00469 13.4706 0.5
728 12.4701 1.96058 5.13387 0.5
729 9.71171 4.94284 0.984705 0.5
730 8.05993 5.7293 7.13958 0.5
731 10.6485 0.190001 0.479451 0.5
732 0.914903 3.11482 8.26284 0.5
733 8.33279 11.5994 0.71644 0.5
734 10.275 11.431 6.20285 0.5
735 2.88264 4.96072 8.44556 0.5
736 4.45907 4.61861 11.2463 0.5
737 4.58837 3.67798 2.9547 0.5
738 1.8945 7.42255 11.0646 0.5
739 5.89195 0.507422 7.06685 0.5
740 11.965 13.0021 8.25499 0.5
741 7.59877 4.16267 5.22403 0.5
742 5.59854 8.96561 1.49928 0.5
743 7.12812 7.94895 5.37621 0.5
744 5.07112 3.1489 12.4127 0.5
745 6.47115 6.40886 11.8439 0.5
746 4.93758 8.40168 9.71065 0.5
747 13.2711 13.3724 11.608 0.5
748 7.37334 9.42519 8.21978 0.5
749 6.28343 9.55788 3.54815 0.5
750 1.54101 1.04876 13.5865 0.5
751 0.232695 8.72501 12.8922 0.5
752 1.79757 1.49097 12.6888 0.5
753 6.66935 2.07634 1.09783 0.5
754 2.34817 12.0225 11.6881 0.5
755 6.86604 3.74647 0.400885 0.5
756 6.93116 7.57127 1.80711 0.5
757 12.545 6.89131 11.9353 0.5
758 4.37873 12.2812 4.75075 0.5
759 12.5906 8.78185 1.90493 0.5
760 7.12701 4.77331 4.4916 0.5
761 3.64898 11.2802 0.639876 0.5
762 13.4781 2.55719 0.420185 0.5
763 12.3689 0.476048 3.74264 0.5
764 8.65084 9.14169 3.05672 0.5
765 12.4753 2.33228 0.269892 0.5
766 7.71852 3.15434 5.0537 0.5
767 3.46902 6.82323 1.06991 0.5
768 12.4526 12.9126 11.3204 0.5
769 11.0581 2.17469 5.91511 0.5
770 10.7422 8.04587 6.32683 0.5
771 7.7283 7.99702 6.21422 0.5
772 1.06563 1.91769 10.6016 0.5
773 9.1183 3.84279 8.35291 0.5
774 9.6098 0.109405 3.17851 0.5
775 10.5956 0.0185565 11.2744 0.5
776 3.06473 9.387 6.53108 0.5
777 11.3457 12.5968 3.94142 0.5
778 11.9469 12.0733 3.15255 0.5
779 7.98785 7.48928 5.26982 0.5
780 3.17569 11.192 8.08836 0.5
781 12.7893 1.17622 5.82999 0.5
782 11.0186 3.21298 4.22294 0.5
783 13.541 9.39567 12.096 0.5
784 2.57886 2.34001 4.90418 0.5
785 10.2057 9.82915 5.08871 0.5
786 8.42383 3.64164 4.67426 0.5
787 6.07592 12.6683 2.77036 0.5
788 11.9336 7.84843 10.9519 0.5
789 9.29265 3.56533 2.31412 0.5
790 8.88052 0.657485 2.82789 0.5
791 5.03444 7.2449 12.1589 0.5
792 5.9053 2.78135 7.53111 0.5
793 6.85007 8.8414 4.02592 0.5
794 13.3223 0.536838 3.28551 0.5
795 7.54077 8.11203 4.51429 0.5
796 4.9137 11.2149 9.24869 0.5
797 4.04037 3.61952 11.2717 0.5
798 2.58838 3.03995 4.05602 0.5
799 0.04411 0.744111 5.4358 0.5
800 0.198175 8.21618 0.23839 0.5
801 7.68213 5.53508 3.10034 0.5
802 5.30557 10.7993 13.1454 0.5
803 11.1813 10.9016 11.3265 0.5
804 13.3364 5.80409 8.63841 0.5
805 9.02831 8.58627 2.28389 0.5
806 3.41032 6.7381 8.45182 0.5
807 2.72748 4.16886 7.82554 0.5
808 1.6022 9.23083 3.41481 0.5
809 9.4742 5.11272 11.5961 0.5
810 3.21028 11.7117 11.3 0.5
811 10.3063 7.22744 3.16486 0.5
812 2.14595 8.1639 11.6334 0.5
813 7.90324 5.40958 12.421 0.5
814 9.49928 0.705371 6.08478 0.5
815 11.818 11.9134 8.52398 0.5
816 9.3936 7.34998 0.159223 0.5
817 11.8122 11.1299 3.11538 0.5
818 3.70061 10.2327 0.828446 0.5
819 6.33223 13.4689 6.38915 0.5
820 -0.00656381 12.6769 9.46699 0.5
821 11.0277 2.80607 5.17105 0.5
822 9.13432 1.24686 5.32505 0.5
823 9.92954 0.385153 10.4555 0.5
824 1.84827 8.64916 5.72669 0.5
825 8.02366 1.2702 2.41097 0.5
826 7.36414 13.5232 7.97474 0.5
827 10.9875 0.271877 1.40748 0.5
828 5.32028 3.73152 2.21108 0.5
829 5.12419 2.16047 7.69362 0.5
830 5.71785 11.5662 8.70468 0.5
831 11.0738 13.3215 7.85809 0.5
832 0.712032 5.78594 10.363 0.5
833 2.33744 11.2669 10.9399 0.5
834 9.42384 1.71146 13.5405 0.5
835 0.871261 5.89358 11.4074 0.5
836 7.82409 9.15099 11.0881 0.5
837 7.24732 2.79679 0.422132 0.5
838 12.5573 13.0347 12.1943 0.5
839 4.36307 5.52449 1.7416 0.5
840 7.46455 13.4222 0.1819 0.5
841 7.07114 10.9174 6.8684 0.5
842 12.7541 3.62313 10.7113 0.5
843 12.4798 3.00279 12.1474 0.5
844 4.95545 3.90792 13.0581 0.5
845 9.82252 5.89955 5.51938 0.5
846 5.86602 12.2517 10.3033 0.5
847 4.12702 7.5557 6.69973 0.5
848 5.05384 6.28912 12.7478 0.5
849 0.933995 12.3556 6.92463 0.5
850 10.4413 10.2725 12.0263 0.5
851 6.92631 9.99621 6.66206 0.5
852 7.3314 10.1766 7.55883 0.5
853 4.15857 7.59293 9.61987 0.5
854 9.87759 6.46723 3.64899 0.5
855 9.52291 10.5506 2.53011 0.5
856 2.38903 13.2024 4.06742 0.5
857 10.2337 5.33469 11.096 0.5
858 7.57859 10.3121 8.56679 0.5
859 11.1984 5.07001 5.15934 0.5
860 10.3799 5.10826 5.82569 0.5
861 11.3413 13.0918 6.24457 0.5
862 11.3603 7.30307 10.329 0.5
863 7.95177 8.50904 5.40615 0.5
864 8.16547 7.08363 7.98331 0.5
865 11.6685 3.51683 12.5119 0.5
866 5.50668 13.1602 2.15425 0.5
867 12.2505 3.96409 13.3407 0.5
868 9.15092 9.56394 9.25057 0.5
869 4.38636 13.0046 13.1002 0.5
870 3.61933 8.53991 6.70662 0.5
871 12.8113 8.91402 4.48882 0.5
872 0.981145 5.86334 13.2235 0.5
873 13.2029 0.557254 2.25839 0.5
874 7.20667 4.75023 12.2686 0.5
875 7.19884 12.1463 4.48027 0.5
876 2.16444 5.61061 8.33789 0.5
877 10.5778 8.1272 7.2681 0.5
878 2.72661 11.547 0.451936 0.5
879 1.11493 3.53848 7.36537 0.5
880 12.3693 0.76376 2.71125 0.5
881 10.8989 10.3049 13.0873 0.5
882 1.84736 10.137 3.95937 0.5
883 11.1011 12.149 0.177323 0.5
884 12.9599 3.34459 0.259717 0.5
885 7.55204 11.2025 10.5755 0.5
886 13.0596 3.38254 7.31996 0.5
887 0.432871 0.324643 12.0022 0.5
888 5.38788 5.38456 1.59994 0.5
889 11.3827 4.76577 8.36132 0.5
890 11.2904 8.78871 5.92972 0.5
891 1.6759 6.27036 3.32405 0.5
892 9.27715 0.749353 9.80332 0.5
893 9.85531 4.49344 8.70487 0.5
894 7.58995 7.31189 1.11741 0.5
895 11.8915 8.78741 1.07642 0.5
896 7.26069 12.5184 0.580957 0.5
897 6.53906 13.3362 3.44179 0.5
898 5.07822 12.6497 2.86867 0.5
899 10.4691 5.00996 8.14736 0.5
900 11.8311 10.8788 9.78891 0.5
901 13.2748 5.68836 10.2005 0.5
902 11.068 6.47371 7.38181 0.5
903 9.67149 8.78889 2.92388 0.5
904 8.27971 3.66596 5.72809 0.5
905 13.1553 7.26829 5.97343 0.5
906 12.8932 5.17517 3.53397 0.5
907 6.89864 4.32223 9.76509 0.5
908 8.73193 0.310336 5.45357 0.5
909 10.103 3.12882 2.75307 0.5
910 7.68956 2.9294 7.88909 0.5
911 5.88058 6.89874 12.5871 0.5
912 8.48735 9.58252 11.7003 0.5
913 11.4835 5.79062 12.6669 0.5
914 5.44194 12.869 13.2398 0.5
915 7.79905 2.23698 5.21344 0.5
916 10.655 8.9351 6.67561 0.5
917 11.9899 0.276375 12.3021 0.5
918 7.51221 6.5337 8.59988 0.5
919 13.2418 11.9336 1.63945 0.5
920 0.797611 11.7459 10.3382 0.5
921 5.39096 6.07771 7.4813 0.5
922 12.4181 2.66601 11.1614 0.5
923 13.2278 2.9469 8.32375 0.5
924 11.4714 11.5073 10.5081 0.5
925 10.9574 3.60371 2.14831 0.5
926 4.78306 10.1113 0.365489 0.5
927 2.03131 7.67593 5.92203 0.5
928 0.324 6.67072 5.53741 0.5
929 1.31714 2.96604 10.5975 0.5
930 10.1504 9.82388 9.36442 0.5
931 5.26216 9.26264 12.5506 0.5
932 4.02427 8.50605 3.25812 0.5