ITEM: TIMESTEP
950000
ITEM: NUMBER OF ATOMS
1000
ITEM: BOX BOUNDS xy xz yz pp pp pp
0.0000000000000000e+00 1.3572088000000001e+01 0.0000000000000000e+00
0.0000000000000000e+00 1.3572088000000001e+01 0.0000000000000000e+00
0.0000000000000000e+00 1.3572088000000001e+01 0.0000000000000000e+00
ITEM: ATOMS id x y z radius
1 4.32513 3.03923 12.2092 0.5
2 4.26739 11.8017 4.43739 0.5
3 9.6754 10.1655 3.27749 0.5
4 10.1985 5.85164 1.03076 0.5
5 8.49911 7.56687 10.0106 0.5
6 3.20442 12.862 5.97362 0.5
7 3.47176 7.33767 0.561152 0.5
8 12.525 11.955 2.47376 0.5
9 2.16603 8.37002 6.77225 0.5
10 3.06476 13.5274 11.5929 0.5
11 0.231047 9.0752 9.36179 0.5
12 10.364 6.07715 0.0625157 0.5
13 7.34669 11.2687 4.40158 0.5
14 10.4007 2.73192 3.96384 0.5
15 5.73163 0.294557 5.55905 0.5
16 7.33775 6.65588 8.9873 0.5
17 6.47437 11.6393 10.5949 0.5
18 3.01898 8.47456 6.31949 0.5
19 10.6411 4.91212 1.19682 0.5
20 10.8713 11.8843 3.6506 0.5
21 2.07956 4.86571 1.00029 0.5
22 1.27051 6.39768 11.9821 0.5
23 1.63211 2.4012 9.67301 0.5
24 7.33561 7.46354 2.10661 0.5
25 0.395649 6.25686 2.70373 0.5
26 10.7001 10.1422 6.10925 0.5
27 11.389 5.90753 11.2158 0.5
28 4.3786 11.4188 12.1145 0.5
29 12.9871 6.34735 1.05723 0.5
30 8.97003 10.9788 1.90108 0.5
31 0.845468 13.5352 8.60409 0.5
32 9.31678 2.73852 12.6193 0.5
33 13.3298 6.11852 9.23998 0.5
34 3.91805 8.8735 5.76686 0.5
35 12.3229 6.61579 13.2349 0.5
36 8.70476 1.88882 5.00856 0.5
37 0.0329744 1.04397 2.05408 0.5
38 2.23827 1.61489 1.9499 0.5
39 10.0705 4.18791 0.773105 0.5
40 5.69882 5.60814 5.34962 0.5
41 6.76179 11.039 5.15773 0.5
42 7.97229 5.94051 3.36056 0.5
43 6.00451 5.03945 10.5816 0.5
44 4.35241 11.0191 8.54553 0.5
45 7.31389 6.50691 1.92615 0.5
46 10.2136 11.2744 0.0076776 0.5
47 3.04954 9.22214 5.64979 0.5
48 8.12759 10.5694 1.29713 0.5
49 6.52325 12.1038 9.74778 0.5
50 4.60449 13.5404 10.895 0.5
51 13.3785 10.2306 7.58905 0.5
52 6.53684 10.7588 7.70704 0.5
53 9.38234 3.95862 1.32348 0.5
54 11.8215 11.7573 3.88709 0.5
55 13.3547 0.479108 5.18076 0.5
56 13.4339 2.92691 4.02703 0.5
57 0.125288 10.418 12.0123 0.5
58 5.94422 8.48215 10.9138 0.5
59 1.5325 10.762 11.3467 0.5
60 6.71963 5.17638 9.01124 0.5
61 3.69897 0.507785 11.1601 0.5
62 2.22871 8.24032 1.34754 0.5
63 12.047 8.56318 1.85665 0.5
64 11.9285 1.9382 9.68775 0.5
65 0.556312 1.79764 5.53294 0.5
66 12.1346 1.63604 1.56158 0.5
67 7.96341 1.87181 9.04251 0.5
68 2.75277 1.30099 2.8077 0.5
69 11.376 2.47744 10.4527 0.5
70 12.5235 3.49735 9.92908 0.5
71 3.64024 6.06127 8.18613 0.5
72 7.25708 2.53993 11.3765 0.5
73 7.88656 6.52387 8.16105 0.5
74 6.00458 4.82231 9.68793 0.5
75 8.92548 0.282614 10.5542 0.5
76 12.1672 3.65015 12.979 0.5
77 9.86979 3.18924 3.14796 0.5
78 8.61123 2.6909 5.66637 0.5
79 4.06779 12.4701 6.12127 0.5
80 4.59215 2.38776 9.18417 0.5
81 1.4112 3.47105 11.9485 0.5
82 1.56644 8.20299 0.577189 0.5
83 3.17231 0.373424 6.23685 0.5
84 0.282269 8.41677 8.44529 0.5
85 13.1603 4.15701 6.01863 0.5
86 2.70269 1.31991 12.9253 0.5
87 3.99894 6.54662 5.24682 0.5
88 7.14508 6.37561 3.62082 0.5
89 11.9107 12.2961 7.55355 0.5
90 3.4247 6.13543 4.49321 0.5
91 11.7193 6.89185 11.0197 0.5
92 13.144 1.63712 1.40297 0.5
93 13.243 0.734381 11.8535 0.5
94 4.67818 10.6982 12.8065 0.5
95 11.9063 1.60292 8.00973 0.5
96 11.3473 2.93351 3.78619 0.5
97 11.6083 3.46164 5.20377 0.5
98 10.691 9.40615 0.56378 0.5
99 6.77108 8.51647 9.4349 0.5
100 0.661907 7.49595 6.40981 0.5
101 4.19768 11.9482 2.47035 0.5
102 8.23354 7.16955 8.99726 0.5
103 4.5468 4.57792 11.1839 0.5
104 7.19454 10.9837 6.08301 0.5
105 11.8606 12.4186 6.50887 0.5
106 6.81245 1.01483 10.7658 0.5
107 12.9843 5.86947 6.28604 0.5
108 13.1797 10.3914 5.74357 0.5
109 0.723321 12.0564 9.27059 0.5
110 8.24851 9.06234 8.51015 0.5
111 8.04779 0.11054 3.34356 0.5
112 5.09398 1.04296 5.41809 0.5
113 0.786672 0.183481 6.23046 0.5
114 6.78888 6.73851 2.70014 0.5
115 5.72647 6.62097 12.4309 0.5
116 12.5943 5.1069 2.56149 0.5
117 0.357704 1.16151 6.44281 0.5
118 11.5084 9.80993 5.56556 0.5
119 12.8322 8.27436 1.40901 0.5
120 5.59729 9.44861 3.81375 0.5
121 12.0659 13.3435 10.7041 0.5
122 1.59784 3.52259 2.05793 0.5
123 11.6875 2.36692 8.75992 0.5
124 10.0498 11.3818 11.6355 0.5
125 4.51489 12.2475 3.45489 0.5
126 11.1583 11.068 13.3138 0.5
127 8.01258 10.3272 11.1206 0.5
128 6.65455 3.15052 7.91947 0.5
129 2.18481 6.55286 12.4816 0.5
130 13.5009 11.3619 11.4381 0.5
131 7.81634 2.51311 2.18064 0.5
132 5.16037 11.7212 2.95499 0.5
133 0.532312 10.6417 11.1071 0.5
134 11.5907 11.9453 2.9895 0.5
135 11.3864 3.5346 6.15125 0.5
136 7.67918 4.72352 4.42633 0.5
137 3.32061 12.2714 6.84367 0.5
138 7.27568 11.9778 0.0760643 0.5
139 5.18986 13.133 0.381498 0.5
140 4.98491 3.45784 3.75605 0.5
141 1.85282 3.1543 4.20377 0.5
142 10.1104 3.23209 12.1671 0.5
143 13.2835 11.8835 0.0573483 0.5
144 9.12011 12.5733 8.98999 0.5
145 6.50455 7.08905 1.66445 0.5
146 9.99714 8.91242 8.45626 0.5
147 4.83384 6.07256 0.0402913 0.5
148 12.6189 0.27613 11.191 0.5
149 7.93779 6.71353 9.78769 0.5
150 12.8602 11.6421 4.01604 0.5
151 6.86791 12.5283 10.549 0.5
152 3.97994 3.77146 11.4845 0.5
153 11.2415 7.53114 7.94993 0.5
154 1.9154 2.58748 2.01735 0.5
155 2.48062 8.03028 10.4035 0.5
156 8.27783 11.9788 0.461492 0.5
157 1.16489 0.606263 2.99815 0.5
158 1.50576 9.92417 8.63962 0.5
159 3.38418 1.69181 9.58378 0.5
160 9.76581 0.359141 11.221 0.5
161 12.3993 2.59244 10.3047 0.5
162 7.40951 2.51092 9.64103 0.5
163 11.1662 9.97028 13.4211 0.5
164 9.15583 3.39961 10.7578 0.5
165 7.16609 10.8804 10.7158 0.5
166 11.1886 12.7596 7.14463 0.5
167 10.2143 7.88713 8.08135 0.5
168 0.520097 3.15564 6.70921 0.5
169 10.6131 11.2568 12.5619 0.5
170 3.96207 6.09192 0.555648 0.5
171 11.1112 5.59699 0.496997 0.5
172 12.775 8.17402 11.0712 0.5
173 9.45678 10.0797 2.21841 0.5
174 4.88259 1.23924 0.14419 0.5
175 2.61524 6.94749 3.09081 0.5
176 2.51235 6.27246 4.68342 0.5
177 8.23517 4.62684 6.2719 0.5
178 4.94592 1.48174 4.40999 0.5
179 13.0415 5.88626 3.08798 0.5
180 9.6464 2.75695 11.5004 0.5
181 10.9022 11.0718 9.76205 0.5
182 3.07882 11.5608 1.20763 0.5
183 8.89101 7.47257 5.9684 0.5
184 10.2763 5.26409 8.23785 0.5
185 8.84786 13.4881 11.6331 0.5
186 4.48076 8.496 2.85004 0.5
187 5.562 0.494807 13.5484 0.5
188 5.4321 6.02465 6.25944 0.5
189 0.757103 11.1426 6.59421 0.5
190 9.43733 12.8181 3.38318 0.5
191 10.4887 8.04464 2.72903 0.5
192 9.95171 0.836863 13.5356 0.5
193 10.967 2.17138 9.59019 0.5
194 9.415 13.0426 10.8097 0.5
195 13.3061 8.74931 12.5328 0.5
196 7.9623 1.13789 5.14785 0.5
197 2.82163 6.76103 8.38635 0.5
198 6.42244 5.85516 12.5577 0.5
199 11.331 0.734813 8.29628 0.5
200 7.37625 7.17987 1.15803 0.5
201 12.6732 4.14062 6.79079 0.5
202 6.18568 0.161563 9.11408 0.5
203 1.49588 4.08577 1.22084 0.5
204 3.88402 8.02845 8.74616 0.5
205 11.6789 1.41093 4.46937 0.5
206 0.814256 1.93472 9.37822 0.5
207 3.69183 11.7043 8.6403 0.5
208 8.4418 3.6505 6.04552 0.5
209 5.88721 1.76391 4.01502 0.5
210 4.89868 6.91989 4.96837 0.5
211 4.28545 5.01918 10.2125 0.5
212 2.97709 6.91496 3.99359 0.5
213 3.39386 1.37798 5.75616 0.5
214 9.99784 3.68527 11.1416 0.5
215 8.22172 6.92563 1.84364 0.5
216 6.49517 8.88097 0.125081 0.5
217 3.42221 11.5487 4.8806 0.5
218 6.76589 8.37168 4.69074 0.5
219 9.10168 0.161921 3.50085 0.5
220 7.92705 2.32536 10.5889 0.5
221 3.36948 3.05101 6.26051 0.5
222 6.70546 11.8083 5.77268 0.5
223 4.66735 9.38268 3.27132 0.5
224 12.6004 9.44375 3.64011 0.5
225 7.49586 10.9566 11.7032 0.5
226 10.5663 7.13236 13.5541 0.5
227 13.444 7.16779 9.40868 0.5
228 4.22966 11.7521 5.47382 0.5
229 6.11608 4.06695 6.372 0.5
230 6.28897 9.40637 9.17424 0.5
231 7.28796 5.86423 8.51251 0.5
232 7.82061 4.39656 12.3742 0.5
233 0.715534 1.08962 9.79218 0.5
234 11.0768 2.64858 4.76386 0.5
235 1.87653 10.8191 3.28309 0.5
236 10.9342 6.57736 0.746396 0.5
237 5.68447 8.08617 6.4467 0.5
238 0.836273 12.7413 6.2495 0.5
239 9.74552 7.37698 2.87488 0.5
240 1.55857 5.13758 13.0588 0.5
241 4.15439 5.78023 1.58093 0.5
242 2.89806 0.815791 1.94808 0.5
243 2.83893 9.60058 3.87161 0.5
244 3.95303 11.5032 6.47103 0.5
245 0.803877 11.1464 11.9478 0.5
246 9.73272 9.82941 8.46562 0.5
247 2.87556 0.259266 10.6103 0.5
248 7.00521 2.78401 2.5466 0.5
249 10.4523 1.60473 12.9711 0.5
250 10.0382 1.83057 0.223498 0.5
251 4.20361 10.0037 11.3482 0.5
252 8.39806 8.2969 12.8799 0.5
253 2.13203 8.98396 0.723717 0.5
254 10.0031 2.77325 2.25818 0.5
255 8.93721 9.65806 2.90448 0.5
256 1.47786 0.0413348 3.81117 0.5
257 0.124787 4.09418 6.92934 0.5
258 13.4668 7.39137 4.96655 0.5
259 5.03413 5.41857 10.8159 0.5
260 7.43608 11.7491 10.3527 0.5
261 10.728 3.20588 5.53618 0.5
262 7.52091 11.6368 5.32385 0.5
263 1.98306 4.34781 8.44448 0.5
264 10.4143 10.4219 9.02448 0.5
265 1.98047 4.13927 4.42912 0.5
266 3.78753 13.2421 6.72211 0.5
267 4.73667 8.10512 9.31442 0.5
268 6.94299 2.39215 1.65756 0.5
269 9.66979 13.3203 9.20339 0.5
270 6.74242 9.86343 8.31884 0.5
271 11.2789 11.6674 6.99132 0.5
272 6.28206 9.56346 0.793547 0.5
273 8.26424 4.98346 3.69025 0.5
274 11.2378 4.86959 8.59769 0.5
275 2.18322 11.2284 0.693418 0.5
276 5.27478 2.10938 0.173216 0.5
277 7.75045 5.03962 13.1571 0.5
278 10.7802 10.5043 0.568345 0.5
279 9.52367 11.3144 6.14033 0.5
280 4.81858 12.7115 2.70307 0.5
281 6.89994 2.16978 10.5164 0.5
282 0.336668 12.2743 1.547 0.5
283 4.68758 4.80581 1.69679 0.5
284 1.13791 11.0438 0.553966 0.5
285 3.87697 9.90388 5.86294 0.5
286 1.78849 1.8405 12.6799 0.5
287 8.27733 7.38081 6.73255 0.5
288 6.01547 13.5639 6.60433 0.5
289 2.76034 10.597 3.47272 0.5
290 13.401 12.903 6.16955 0.5
291 6.03825 1.29467 5.64713 0.5
292 4.87464 2.68632 12.9198 0.5
293 11.2323 5.8486 3.96912 0.5
294 2.99831 10.2355 6.12832 0.5
295 2.50038 1.19523 6.15617 0.5
296 13.361 4.95157 6.64943 0.5
297 10.1286 10.5526 11.1557 0.5
298 9.81931 4.29 11.9103 0.5
299 1.78816 0.831328 12.9374 0.5
300 9.62742 4.98056 1.24988 0.5
301 6.17794 7.49773 12.232 0.5
302 2.60446 9.06677 3.12966 0.5
303 12.3167 9.11977 2.71524 0.5
304 0.613367 7.92597 5.48052 0.5
305 8.47626 12.6881 8.3156 0.5
306 11.4286 8.87921 1.12369 0.5
307 2.04994 6.10388 2.99024 0.5
308 0.401677 9.42005 12.2225 0.5
309 12.9357 0.775235 12.7654 0.5
310 9.07341 0.112702 4.52055 0.5
311 0.107187 6.68767 6.44052 0.5
312 7.18451 11.8259 11.3532 0.5
313 1.18447 10.8838 4.02225 0.5
314 6.40398 13.2205 9.9751 0.5
315 12.2309 5.5295 3.43874 0.5
316 7.46551 5.9325 7.41231 0.5
317 13.5534 8.87307 3.8098 0.5
318 0.422777 5.94901 5.90656 0.5
319 10.9644 11.5383 0.64022 0.5
320 5.8613 3.88814 7.48679 0.5
321 2.57862 13.5294 3.72044 0.5
322 10.0423 0.200733 1.42382 0.5
323 3.26366 1.61727 2.02585 0.5
324 10.6154 3.5418 2.44533 0.5
325 1.62349 5.52855 0.391923 0.5
326 9.92035 13.0642 0.787875 0.5
327 7.99788 2.94107 8.99252 0.5
328 12.9474 6.07549 0.0762646 0.5
329 8.55428 1.70509 8.19766 0.5
330 8.56737 1.58683 5.90856 0.5
331 5.07803 1.7654 3.40386 0.5
332 12.4428 1.6953 8.85023 0.5
333 12.7868 1.67227 2.36474 0.5
334 5.19279 5.6332 1.67107 0.5
335 8.28615 0.0755609 5.18144 0.5
336 3.68758 2.59071 9.44693 0.5
337 12.2289 0.817301 11.9022 0.5
338 7.25541 5.88289 9.53388 0.5
339 10.0824 4.31894 1.81629 0.5
340 11.9715 3.80242 11.452 0.5
341 8.64545 13.3894 8.95434 0.5
342 5.8471 0.673122 7.19812 0.5
343 6.46307 6.16662 8.81781 0.5
344 5.66523 6.58901 5.46807 0.5
345 9.13 8.38082 5.56676 0.5
346 1.47016 7.29163 5.77482 0.5
347 12.8663 12.3571 1.62327 0.5
348 1.43444 4.59139 0.340259 0.5
349 8.58715 6.52624 6.18957 0.5
350 8.46788 6.7613 10.6511 0.5
351 2.4156 8.96049 10.9286 0.5
352 8.5059 11.9789 7.55156 0.5
353 9.71174 6.71868 13.2509 0.5
354 2.54893 2.76815 5.81108 0.5
355 1.73174 7.00282 2.82137 0.5
356 11.5412 0.476953 4.36738 0.5
357 6.20168 11.4017 4.30242 0.5
358 4.11098 0.916854 9.5033 0.5
359 7.31699 9.17541 8.93064 0.5
360 12.1744 4.17092 5.76513 0.5
361 3.29981 1.23732 6.74407 0.5
362 1.6095 1.42033 9.33207 0.5
363 10.945 12.5749 0.55609 0.5
364 4.15355 7.75274 1.02281 0.5
365 3.63984 8.30695 0.438561 0.5
366 6.54922 8.78496 8.49291 0.5
367 10.816 11.977 13.2972 0.5
368 5.2529 5.3603 9.78522 0.5
369 2.17143 3.51624 5.09237 0.5
370 0.606671 10.3262 6.04605 0.5
371 8.59138 13.002 3.86247 0.5
372 0.327157 3.52956 3.21426 0.5
373 4.80477 3.00171 0.306107 0.5
374 0.625596 8.7464 13.0713 0.5
375 0.531449 10.0152 8.9701 0.5
376 2.14535 11.1162 4.12085 0.5
377 7.26709 5.30026 3.57319 0.5
378 6.02836 9.79246 13.3632 0.5
379 4.54886 5.46347 2.43911 0.5
380 7.84582 4.02251 13.3571 0.5
381 9.649 2.99328 8.4058 0.5
382 8.93021 2.65596 7.73065 0.5
383 2.38947 4.84461 0.0878552 0.5
384 5.57105 10.2282 12.4421 0.5
385 13.4568 11.6759 2.1196 0.5
386 0.291699 3.74081 4.15292 0.5
387 1.81697 7.21423 11.7989 0.5
388 0.889757 2.41325 10.3599 0.5
389 3.29687 9.52833 11.1428 0.5
390 5.16446 4.50202 10.3229 0.5
391 8.31576 1.59756 2.43299 0.5
392 13.0744 4.96566 3.51944 0.5
393 2.8498 4.7071 8.71972 0.5
394 9.12811 9.21609 8.03601 0.5
395 1.26744 0.406208 9.36804 0.5
396 0.112581 2.10148 2.00723 0.5
397 7.67968 1.72098 1.54188 0.5
398 9.82069 11.9306 3.12753 0.5
399 1.17432 4.0021 3.82376 0.5
400 7.42575 9.16076 4.75712 0.5
401 10.2113 2.61277 13.1216 0.5
402 5.34121 7.53433 5.65783 0.5
403 5.92983 0.467224 8.14952 0.5
404 11.0902 10.3772 12.514 0.5
405 11.9937 6.20673 0.603221 0.5
406 6.96406 3.05983 0.871205 0.5
407 2.41935 11.7434 3.38972 0.5
408 2.743 3.79861 6.01283 0.5
409 3.59841 4.57598 10.9133 0.5
410 10.6915 2.58246 2.9944 0.5
411 4.61037 5.3569 0.837614 0.5
412 5.18622 0.562551 0.908826 0.5
413 2.67 6.06819 7.69147 0.5
414 3.30031 8.5083 11.0027 0.5
415 7.9006 10.1248 12.1368 0.5
416 9.1687 10.4643 5.63801 0.5
417 0.298872 0.267948 9.29294 0.5
418 9.7092 1.05315 10.3792 0.5
419 2.20819 13.012 11.8964 0.5
420 3.35444 0.363458 7.31995 0.5
421 13.3763 5.16535 9.13414 0.5
422 7.99531 4.22302 5.2441 0.5
423 11.142 1.97126 3.85688 0.5
424 3.19789 3.2679 5.2381 0.5
425 8.51987 7.80456 11.0398 0.5
426 0.951882 12.6084 8.4909 0.5
427 7.81945 2.67458 1.16502 0.5
428 1.01495 8.42761 9.21248 0.5
429 11.1677 5.57168 7.90915 0.5
430 9.7862 13.145 11.7516 0.5
431 2.19387 5.3055 8.13312 0.5
432 12.6836 2.51027 1.85977 0.5
433 7.70042 11.1979 0.681641 0.5
434 0.148982 3.59774 13.3557 0.5
435 11.4878 9.86077 0.872509 0.5
436 6.18143 5.74608 9.65404 0.5
437 4.47227 9.3537 6.46301 0.5
438 5.70927 2.91005 7.49172 0.5
439 11.0937 10.5789 10.526 0.5
440 9.85339 10.4255 6.47198 0.5
441 5.459 0.831434 6.30656 0.5
442 1.66327 7.40795 6.78412 0.5
443 0.595256 11.9462 0.559913 0.5
444 9.0515 9.04658 13.2117 0.5
445 4.84918 8.53196 3.80425 0.5
446 3.82623 6.30047 3.64447 0.5
447 2.44535 9.36527 6.51648 0.5
448 5.46744 10.1111 0.552128 0.5
449 2.49714 13.0095 10.9679 0.5
450 2.78485 2.47225 1.47103 0.5
451 6.85551 4.08734 1.18474 0.5
452 2.69196 8.16251 0.522048 0.5
453 4.95534 9.15081 2.31526 0.5
454 2.73925 0.342147 2.77931 0.5
455 1.9233 2.55938 11.8389 0.5
456 9.24334 13.2952 8.25353 0.5
457 12.3175 10.9507 9.04999 0.5
458 3.90352 0.190585 10.1783 0.5
459 10.7603 2.90883 6.45571 0.5
460 12.6707 7.00579 0.433652 0.5
461 12.1318 7.61956 11.6625 0.5
462 9.4555 4.00661 8.46083 0.5
463 4.88153 3.33745 7.36453 0.5
464 13.5526 8.09079 9.39532 0.5
465 4.97056 10.5624 11.7432 0.5
466 2.80832 13.2417 6.82784 0.5
467 3.03495 8.96614 1.09426 0.5
468 0.537586 7.57055 8.81752 0.5
469 2.1985 3.30007 11.2631 0.5
470 2.15916 6.32689 11.4193 0.5
471 3.56691 1.11494 10.3917 0.5
472 10.9288 6.79852 3.78298 0.5
473 10.9597 8.4825 8.13672 0.5
474 3.80302 7.0671 8.35964 0.5
475 5.17913 4.32421 6.90984 0.5
476 7.1355 0.909908 11.6976 0.5
477 6.19509 8.04027 10.1353 0.5
478 3.30071 12.4053 0.807711 0.5
479 8.90631 7.38514 13.0467 0.5
480 4.69031 10.7678 9.43945 0.5
481 2.33557 3.94583 0.613262 0.5
482 10.8153 13.2604 1.36469 0.5
483 9.71385 11.0558 2.65058 0.5
484 9.84383 6.72246 3.60443 0.5
485 4.96671 3.83879 2.15546 0.5
486 3.73585 10.9891 9.31677 0.5
487 4.27768 3.29412 8.94254 0.5
488 6.07864 4.6516 5.42833 0.5
489 3.67186 0.975791 2.59614 0.5
490 0.0964884 12.8751 8.95656 0.5
491 2.85405 7.05835 11.7085 0.5
492 0.924107 5.54004 12.2955 0.5
493 12.5505 8.67053 11.897 0.5
494 7.3461 4.61152 0.456134 0.5
495 6.76769 7.95815 0.677241 0.5
496 6.97995 13.5738 0.223157 0.5
497 5.18952 4.13167 5.94003 0.5
498 3.28026 11.8772 5.87435 0.5
499 6.59136 1.73383 11.4127 0.5
500 10.7482 9.18278 5.78764 0.5
501 5.5174 0.90534 3.66529 0.5
502 9.45948 10.3916 9.26459 0.5
503 7.40338 5.93789 12.8233 0.5
504 2.0112 1.51255 0.0467372 0.5
505 4.64601 3.65595 13.0058 0.5
506 3.12702 10.9192 0.459645 0.5
507 8.60822 4.3749 4.46782 0.5
508 13.3122 1.29361 5.78637 0.5
509 5.08265 4.90098 5.33503 0.5
510 7.20894 9.99813 11.3826 0.5
511 5.45353 13.3527 7.55449 0.5
512 10.6579 11.6043 2.70336 0.5
513 5.21731 4.06171 3.03726 0.5
514 6.06829 8.70803 1.05214 0.5
515 2.23074 9.88416 3.1084 0.5
516 5.47403 8.81881 3.08862 0.5
517 1.18107 3.6466 4.73194 0.5
518 3.50334 6.44284 9.09372 0.5
519 5.40664 7.68586 10.8062 0.5
520 2.43652 0.677866 13.5678 0.5
521 11.2214 6.43642 4.75994 0.5
522 2.88494 8.8072 11.8043 0.5
523 0.104423 8.17785 2.97996 0.5
524 13.3812 0.329637 6.12772 0.5
525 11.5508 9.17918 0.155094 0.5
526 8.8187 11.7219 8.54448 0.5
527 8.03293 10.8583 2.19304 0.5
528 2.56992 0.285835 12.5069 0.5
529 13.4702 12.6237 0.736587 0.5
530 11.6876 2.91675 9.63701 0.5
531 11.6974 8.52442 11.3934 0.5
532 6.5658 9.24145 4.32488 0.5
533 6.39779 7.60249 11.1764 0.5
534 2.4747 12.1282 11.4954 0.5
535 7.94974 12.4289 13.0872 0.5
536 1.94011 12.7199 3.46908 0.5
537 2.15202 9.80418 9.29566 0.5
538 8.47844 9.97278 2.0436 0.5
539 2.28748 6.56982 2.16012 0.5
540 0.161457 3.37833 7.72022 0.5
541 4.06914 11.9413 1.41175 0.5
542 7.76308 13.4523 13.1343 0.5
543 13.2478 6.55103 5.53941 0.5
544 7.99788 2.497 8.10056 0.5
545 1.3826 6.15337 2.38005 0.5
546 0.868108 0.454298 12.9828 0.5
547 10.8471 5.54028 4.91485 0.5
548 11.9575 13.32 6.92014 0.5
549 12.0508 10.0441 9.0934 0.5
550 11.5887 1.17359 3.46971 0.5
551 7.79295 0.801969 1.92444 0.5
552 4.39249 6.96886 0.298934 0.5
553 10.3875 6.20978 7.87786 0.5
554 3.22421 12.9724 7.63602 0.5
555 0.885539 2.97081 3.91491 0.5
556 7.04246 12.7934 13.2297 0.5
557 7.28195 11.1934 1.57622 0.5
558 4.2402 1.79197 9.93105 0.5
559 2.54311 9.64814 8.36949 0.5
560 6.37353 2.96523 11.0757 0.5
561 8.2559 8.4495 11.8283 0.5
562 12.9628 2.99011 12.9271 0.5
563 8.3365 6.47839 7.18066 0.5
564 6.82646 5.34638 13.3642 0.5
565 8.87814 4.34449 5.51503 0.5
566 7.56184 1.56048 11.1551 0.5
567 13.0188 3.91037 3.63732 0.5
568 7.31704 1.83789 12.0683 0.5
569 10.9518 7.30322 10.44 0.5
570 0.1187 8.66625 2.07062 0.5
571 1.9754 0.786683 2.3701 0.5
572 4.98535 1.69448 12.8533 0.5
573 0.462163 13.3196 5.48509 0.5
574 9.64516 8.27995 2.30247 0.5
575 8.52507 0.630799 2.70094 0.5
576 4.04516 10.1189 8.90461 0.5
577 3.98906 9.3197 2.54798 0.5
578 1.40902 11.7474 1.3366 0.5
579 13.4407 8.79784 11.5728 0.5
580 2.51047 5.21761 7.16016 0.5
581 0.979385 13.0001 9.4412 0.5
582 1.93649 11.637 10.7982 0.5
583 1.68677 11.9304 0.332995 0.5
584 10.3682 6.18661 4.34172 0.5
585 13.5057 5.14539 5.72291 0.5
586 0.586424 5.666 9.61198 0.5
587 12.5789 3.21557 1.08899 0.5
588 12.5061 12.2345 0.715039 0.5
589 13.5529 9.37867 8.43143 0.5
590 3.39839 10.8156 8.4097 0.5
591 4.60866 4.10049 12.0997 0.5
592 10.5363 11.3151 10.779 0.5
593 6.34577 9.91807 7.43143 0.5
594 13.4454 10.8418 6.61803 0.5
595 13.4226 9.83818 6.63718 0.5
596 9.21548 9.15726 1.97818 0.5
597 1.8573 8.97655 8.80766 0.5
598 9.26469 11.3776 5.18579 0.5
599 11.3388 10.7987 8.76945 0.5
600 10.5691 5.57922 10.6876 0.5
601 2.0195 6.60942 3.81367 0.5
602 0.14983 6.50572 10.1012 0.5
603 3.27427 7.50176 10.9449 0.5
604 4.5452 0.949984 10.4941 0.5
605 6.54555 2.47399 11.9906 0.5
606 12.287 9.23233 5.10697 0.5
607 8.75148 9.98914 8.6676 0.5
608 8.34436 13.0315 12.4412 0.5
609 0.125866 11.0917 0.341434 0.5
610 1.26893 9.41246 9.53506 0.5
611 0.903098 9.15216 8.61477 0.5
612 6.39748 12.7214 3.18354 0.5
613 3.96533 7.02842 4.3952 0.5
614 3.60455 13.0985 10.8553 0.5
615 4.18265 11.2625 10.2065 0.5
616 13.0801 6.00974 2.10248 0.5
617 8.05915 5.99195 2.31688 0.5
618 10.4977 6.94902 8.4823 0.5
619 12.8798 4.01043 11.6687 0.5
620 0.998588 10.0695 11.8312 0.5
621 2.89299 4.19021 5.10006 0.5
622 5.77002 8.44463 9.29518 0.5
623 13.3551 7.91219 3.9795 0.5
624 0.0637889 5.22399 2.6555 0.5
625 1.45254 3.92039 11.0028 0.5
626 2.4096 4.10238 1.60393 0.5
627 9.87198 6.73035 0.586102 0.5
628 13.0052 4.54344 9.878 0.5
629 5.21898 3.04038 2.79259 0.5
630 3.06543 3.50899 1.1092 0.5
631 9.07612 1.14201 0.17881 0.5
632 6.72455 12.6448 0.613288 0.5
633 9.95675 1.01576 0.92963 0.5
634 10.2511 10.3899 10.0835 0.5
635 10.0515 2.11079 12.2345 0.5
636 9.15469 3.58212 11.8688 0.5
637 0.637483 10.3046 7.04741 0.5
638 5.80943 0.993852 4.71476 0.5
639 8.88936 6.64677 9.63112 0.5
640 1.69244 4.57499 7.5177 0.5
641 7.91337 7.27849 5.87224 0.5
642 11.3151 6.38598 13.4234 0.5
643 11.2689 1.21533 7.32918 0.5
644 7.25147 3.15375 10.6033 0.5
645 0.113305 11.2892 5.83893 0.5
646 9.16102 8.76199 12.2423 0.5
647 8.79067 4.56123 11.8609 0.5
648 7.54212 9.19087 11.869 0.5
649 5.67066 8.06605 11.741 0.5
650 2.54994 0.698971 6.92254 0.5
651 1.14927 6.50753 6.28164 0.5
652 6.43387 3.29609 6.88658 0.5
653 13.2673 4.28996 2.75233 0.5
654 3.65704 9.42487 12.0787 0.5
655 11.564 11.7501 9.32317 0.5
656 0.479219 11.2434 1.35178 0.5
657 11.5779 0.604098 6.55852 0.5
658 9.94245 9.81329 5.6984 0.5
659 1.24831 9.91668 3.36387 0.5
660 0.750027 1.02834 8.84668 0.5
661 4.11618 7.26875 9.28956 0.5
662 3.63105 10.8911 5.66304 0.5
663 6.06388 12.4559 4.14057 0.5
664 4.81886 5.92006 5.42153 0.5
665 9.40089 11.1682 3.62232 0.5
666 5.87601 12.7632 9.28472 0.5
667 10.3824 3.68324 7.96465 0.5
668 5.59089 2.581 3.48962 0.5
669 8.79191 10.6172 2.89497 0.5
670 9.37659 12.3164 8.02847 0.5
671 6.97668 8.87714 1.06766 0.5
672 3.4161 2.4339 5.49827 0.5
673 5.49097 9.08278 0.309354 0.5
674 3.40324 7.93537 11.8413 0.5
675 3.84461 4.74104 11.8432 0.5
676 1.85103 13.4971 2.89084 0.5
677 3.22268 9.80405 2.95577 0.5
678 13.1331 7.6841 8.64785 0.5
679 10.8265 12.2155 6.29895 0.5
680 5.00607 12.0705 1.88624 0.5
681 3.97749 1.71132 8.85737 0.5
682 1.63384 3.1646 10.3205 0.5
683 1.98767 5.60902 12.268 0.5
684 10.8351 1.13105 4.15712 0.5
685 12.271 12.5496 4.32468 0.5
686 11.1343 7.60727 11.3869 0.5
687 5.06423 9.90933 13.2799 0.5
688 1.38255 8.19407 6.23577 0.5
689 2.63154 3.26477 2.07912 0.5
690 5.09521 8.74228 6.8956 0.5
691 12.9569 9.64855 11.9537 0.5
692 4.61215 0.245071 0.124413 0.5
693 10.816 6.65072 11.1081 0.5
694 6.00072 9.01476 10.0489 0.5
695 12.9138 8.39225 2.35897 0.5
696 9.49358 3.48408 7.56284 0.5
697 0.638677 9.87365 7.97869 0.5
698 6.79944 10.4949 6.72851 0.5
699 3.287 8.04791 1.34446 0.5
700 12.7663 8.47398 3.37641 0.5
701 9.48609 8.13968 12.9359 0.5
702 3.02296 2.15773 8.71229 0.5
703 2.3487 5.76097 13.2072 0.5
704 8.86917 2.41193 8.70561 0.5
705 10.5201 7.09305 7.44019 0.5
706 6.19632 10.9941 6.04734 0.5
707 4.04728 5.47748 11.122 0.5
708 12.5897 2.28698 0.852784 0.5
709 9.43965 0.277249 0.531975 0.5
710 7.18922 5.85779 2.75531 0.5
711 0.238068 1.14591 12.5903 0.5
712 12.561 2.64793 9.23126 0.5
713 8.26336 9.65391 7.68987 0.5
714 12.5985 4.98314 6.12291 0.5
715 13.3084 9.17494 2.89246 0.5
716 1.90247 2.40838 10.7192 0.5
717 3.97058 6.79107 1.2072 0.5
718 11.9902 0.643866 7.55892 0.5
719 3.96769 10.5347 12.135 0.5
720 13.2533 11.8401 3.15452 0.5
721 10.9447 5.98502 8.68745 0.5
722 6.14221 13.1458 13.3853 0.5
723 2.77519 11.2668 9.07172 0.5
724 9.06493 13.1681 9.84101 0.5
725 2.56783 1.83473 5.45357 0.5
726 7.40866 1.67371 8.16943 0.5
727 4.33963 2.1271 13.5013 0.5
728 0.306873 2.15986 6.44965 0.5
729 10.091 5.20446 0.440691 0.5
730 8.14313 5.71669 6.5411 0.5
731 10.5306 0.22498 0.508022 0.5
732 1.17821 2.89865 7.41353 0.5
733 8.23317 11.5425 1.42767 0.5
734 10.6406 11.217 6.36228 0.5
735 3.21266 5.19442 7.88658 0.5
736 4.3028 3.96673 10.4309 0.5
737 4.5687 2.65751 3.48805 0.5
738 2.24832 7.19356 10.9048 0.5
739 6.12727 13.0457 8.34148 0.5
740 11.705 13.2902 7.90294 0.5
741 7.73511 3.64488 4.38352 0.5
742 5.42376 9.32868 1.38511 0.5
743 7.48239 8.24406 5.32017 0.5
744 3.93024 3.09953 13.1279 0.5
745 7.29535 5.98528 11.8666 0.5
746 5.26962 8.36023 10.1223 0.5
747 13.3833 13.4013 11.5368 0.5
748 7.35143 9.22094 7.91062 0.5
749 6.39674 9.25238 3.32638 0.5
750 1.45613 0.648461 0.256336 0.5
751 0.0681858 7.80795 12.9087 0.5
752 1.05898 1.43889 13.2569 0.5
753 7.17592 2.11415 0.78751 0.5
754 1.51006 12.4081 11.1973 0.5
755 6.92181 3.77796 0.150592 0.5
756 6.68918 7.9832 1.53848 0.5
757 11.2204 6.27041 10.3302 0.5
758 3.66918 12.497 5.17237 0.5
759 12.8251 9.23693 1.82421 0.5
760 7.60538 4.28572 3.47859 0.5
761 2.73436 11.8717 0.280482 0.5
762 13.2008 2.92634 0.360633 0.5
763 10.5538 1.48483 3.13933 0.5
764 9.79722 9.15779 2.79068 0.5
765 12.3076 2.90821 0.0771685 0.5
766 8.15711 2.63402 4.6966 0.5
767 4.85274 6.31539 0.988237 0.5
768 13.105 13.1475 10.5906 0.5
769 11.436 2.59562 5.82165 0.5
770 11.795 8.15598 7.49861 0.5
771 8.28058 8.21026 6.02432 0.5
772 1.43136 1.6446 10.2976 0.5
773 8.673 3.36211 8.27711 0.5
774 8.68159 13.1251 2.76811 0.5
775 10.4187 13.2709 10.9402 0.5
776 3.47954 9.34276 6.53419 0.5
777 11.5765 12.7403 3.58589 0.5
778 12.4317 12.2721 3.34942 0.5
779 8.38541 7.8293 5.15564 0.5
780 3.04093 10.2783 9.08389 0.5
781 0.106887 1.35968 4.84745 0.5
782 10.5928 3.59835 3.51804 0.5
783 0.526415 8.37435 12.179 0.5
784 2.61047 2.63521 4.83088 0.5
785 10.7239 10.0227 5.13522 0.5
786 8.56681 3.53396 4.97942 0.5
787 6.0257 11.7614 3.28861 0.5
788 11.8523 7.79714 10.7489 0.5
789 7.80099 5.07152 2.78997 0.5
790 7.66208 0.940379 2.876 0.5
791 5.10765 7.47737 12.3131 0.5
792 4.91531 2.79709 8.2611 0.5
793 7.0209 8.64068 3.82804 0.5
794 12.9796 0.904101 2.84826 0.5
795 7.79537 8.28652 4.42037 0.5
796 4.45966 11.7444 9.31986 0.5
797 3.73108 3.83264 12.4373 0.5
798 2.82707 3.47951 4.31275 0.5
799 0.613729 0.831334 5.4937 0.5
800 1.25591 9.08919 0.232733 0.5
801 7.74223 6.71825 2.7796 0.5
802 5.40473 11.2146 12.4021 0.5
803 10.9058 10.7967 11.5802 0.5
804 0.389226 5.82795 8.61022 0.5
805 8.87426 8.55133 2.82637 0.5
806 3.22692 7.37095 9.04906 0.5
807 2.66859 4.48989 7.81637 0.5
808 1.83397 9.09701 3.72157 0.5
809 9.49248 5.20851 11.5343 0.5
810 1.59463 11.6643 11.8015 0.5
811 10.5607 6.88702 2.91696 0.5
812 2.49424 7.97053 11.4128 0.5
813 8.04724 5.36278 12.2411 0.5
814 9.09992 13.557 5.89869 0.5
815 11.9166 11.5855 8.3509 0.5
816 9.74766 7.63708 0.158263 0.5
817 12.4012 11.2286 3.19366 0.5
818 2.94049 9.05109 0.141603 0.5
819 6.499 13.5461 7.50215 0.5
820 0.149764 12.0234 8.47922 0.5
821 10.8843 3.5579 4.55155 0.5
822 8.89336 0.794588 5.25192 0.5
823 9.85658 0.141952 10.2006 0.5
824 2.04771 8.78258 5.79719 0.5
825 7.78902 0.0168288 2.42263 0.5
826 6.87725 0.0821317 8.37256 0.5
827 10.9248 0.637984 1.25842 0.5
828 4.39642 3.57891 2.96305 0.5
829 3.92097 2.53755 8.43058 0.5
830 6.81975 12.8403 9.12047 0.5
831 11.1271 0.201586 7.30219 0.5
832 0.553801 5.59105 10.6303 0.5
833 0.991972 11.5202 11.1325 0.5
834 9.44646 1.66262 12.9313 0.5
835 1.43931 5.63249 11.3593 0.5
836 9.06277 8.5696 11.2878 0.5
837 7.69145 3.73199 0.778689 0.5
838 12.5499 12.8241 11.3098 0.5
839 5.39154 4.7633 2.47188 0.5
840 7.72035 12.8154 0.410199 0.5
841 5.90528 10.73 6.96038 0.5
842 12.6388 4.16945 10.7004 0.5
843 12.4419 3.29586 12.1021 0.5
844 4.07381 2.09034 12.5715 0.5
845 9.96199 5.49388 5.01598 0.5
846 5.9275 12.452 10.4638 0.5
847 4.8685 7.67564 6.53901 0.5
848 5.08013 6.91967 13.1337 0.5
849 0.199851 11.9783 6.6086 0.5
850 10.1602 10.4689 12.1738 0.5
851 6.60941 11.3916 6.87725 0.5
852 7.3372 10.1191 7.53859 0.5
853 4.74245 7.48667 8.53705 0.5
854 10.5105 6.01625 3.37487 0.5
855 10.3417 10.977 3.36574 0.5
856 2.12818 0.851021 3.38149 0.5
857 10.1262 4.66264 11.0279 0.5
858 7.78666 9.94335 8.46765 0.5
859 11.2745 5.97436 5.6536 0.5
860 10.4868 5.44919 5.88235 0.5
861 11.2837 13.2176 6.26534 0.5
862 10.9939 8.3363 10.7875 0.5
863 8.30441 8.78868 5.12826 0.5
864 7.51006 7.04756 7.29435 0.5
865 12.1316 4.2798 12.3412 0.5
866 5.73281 12.4021 2.5112 0.5
867 12.5204 4.59903 13.1664 0.5
868 9.16999 9.25388 9.05182 0.5
869 4.80984 0.68275 12.8538 0.5
870 4.14124 8.42829 6.64332 0.5
871 12.7413 8.73591 4.31645 0.5
872 1.41201 6.11265 13.0089 0.5
873 12.6921 0.793367 1.81769 0.5
874 7.06477 5.08339 12.3542 0.5
875 6.90961 12.0295 4.7773 0.5
876 2.85852 5.75652 8.62186 0.5
877 10.8135 8.06572 7.27986 0.5
878 2.31437 12.1927 1.03818 0.5
879 0.949282 3.82092 7.31668 0.5
880 12.0048 1.06611 2.49437 0.5
881 10.299 10.4429 13.1788 0.5
882 1.95794 10.1277 3.97508 0.5
883 11.7146 11.8647 0.128613 0.5
884 12.8077 3.80388 0.101814 0.5
885 8.04549 11.3243 10.8932 0.5
886 13.111 3.18813 6.89063 0.5
887 0.0809698 0.184014 12.4073 0.5
888 4.3798 4.46947 2.65255 0.5
889 10.886 4.56731 7.72091 0.5
890 11.7299 8.86363 5.84944 0.5
891 1.10642 6.26061 3.3131 0.5
892 9.18849 0.537836 9.62512 0.5
893 10.3984 4.33794 8.60579 0.5
894 7.5733 8.08035 1.30531 0.5
895 12.3234 9.12847 0.943135 0.5
896 7.41361 12.0794 1.11674 0.5
897 6.8833 12.0004 3.75819 0.5
898 5.45141 12.6724 3.4797 0.5
899 9.90485 4.47028 7.69296 0.5
900 11.8038 10.8228 9.79118 0.5
901 13.2464 5.60452 9.99726 0.5
902 11.3076 6.52436 7.82354 0.5
903 9.68538 8.27453 3.26706 0.5
904 7.75497 3.21013 5.3633 0.5
905 13.3346 7.51735 5.89043 0.5
906 0.439211 4.4558 3.43513 0.5
907 6.53377 3.01315 9.95148 0.5
908 8.3206 0.669841 6.05317 0.5
909 9.63602 3.61401 2.23306 0.5
910 7.15205 2.52879 8.58635 0.5
911 6.52126 6.64249 11.9298 0.5
912 8.44667 9.39263 11.6072 0.5
913 12.0667 5.64526 13.3646 0.5
914 5.15723 13.2356 12.9814 0.5
915 7.79267 2.13341 5.41071 0.5
916 11.4452 8.11708 6.47479 0.5
917 11.7968 13.4354 11.6814 0.5
918 6.90525 6.6354 8.00905 0.5
919 13.3978 12.5701 2.45877 0.5
920 13.0858 10.5028 11.2886 0.5
921 5.67542 6.99839 6.48935 0.5
922 12.668 3.24265 11.0367 0.5
923 0.261915 2.49306 7.39746 0.5
924 11.4242 11.5642 10.3686 0.5
925 10.2297 3.45859 1.47535 0.5
926 5.6525 10.7693 13.3495 0.5
927 2.22575 7.73296 6.03664 0.5
928 0.577653 6.91586 5.60595 0.5
929 1.18046 2.92767 11.1778 0.5
930 10.0958 9.56204 9.37931 0.5
931 4.63114 9.85888 12.2887 0.5
932 3.64874 9.00881 3.45553 0.5