ITEM: TIMESTEP
690000
ITEM: NUMBER OF ATOMS
1000
ITEM: BOX BOUNDS xy xz yz pp pp pp
0.0000000000000000e+00 1.3572088000000001e+01 0.0000000000000000e+00
0.0000000000000000e+00 1.3572088000000001e+01 0.0000000000000000e+00
0.0000000000000000e+00 1.3572088000000001e+01 0.0000000000000000e+00
ITEM: ATOMS id x y z radius
1 4.4391 3.72116 11.9201 0.5
2 4.39654 11.3074 4.54415 0.5
3 9.11455 10.2477 2.89406 0.5
4 9.82905 5.80308 1.33527 0.5
5 8.71075 8.21444 10.1487 0.5
6 3.02384 12.6893 5.32723 0.5
7 2.78427 8.30101 1.40732 0.5
8 0.0997119 11.5987 2.63091 0.5
9 1.94028 8.3124 6.73204 0.5
10 3.27924 0.299497 11.6522 0.5
11 0.359455 8.90648 9.25749 0.5
12 10.2566 5.63012 0.42987 0.5
13 7.30507 11.5721 4.35955 0.5
14 10.8394 2.31204 4.35123 0.5
15 5.11258 1.09101 5.24075 0.5
16 7.65467 6.60188 9.40584 0.5
17 6.49084 11.8197 10.6902 0.5
18 2.88913 8.37221 6.28275 0.5
19 9.91578 4.95626 1.91867 0.5
20 10.6712 10.7063 3.2269 0.5
21 1.85203 4.88029 0.855434 0.5
22 1.13463 6.23817 12.1094 0.5
23 1.34003 1.13949 10.5863 0.5
24 7.79775 7.28881 1.59917 0.5
25 0.661009 6.15202 2.56194 0.5
26 10.2319 10.7303 5.92776 0.5
27 11.4601 6.69374 12.6745 0.5
28 5.07876 11.6926 11.8274 0.5
29 0.0530601 6.34514 1.58913 0.5
30 8.65823 10.9389 1.41882 0.5
31 0.69965 13.5417 8.432 0.5
32 9.35948 2.99117 12.6793 0.5
33 13.401 6.40258 9.9324 0.5
34 3.75748 8.76222 5.68344 0.5
35 11.9302 6.3915 0.0382334 0.5
36 8.34452 2.44289 4.67942 0.5
37 0.101884 1.36427 2.44031 0.5
38 2.09471 1.77231 2.4835 0.5
39 10.5214 4.22242 1.51047 0.5
40 5.91255 5.78838 6.01695 0.5
41 6.72325 11.0851 5.04771 0.5
42 7.22026 5.42946 3.09387 0.5
43 5.52162 5.40384 10.4004 0.5
44 4.50565 10.8926 8.77313 0.5
45 7.73919 6.26993 1.44926 0.5
46 10.5452 10.8193 0.00982158 0.5
47 2.81642 9.31088 5.68359 0.5
48 8.26108 10.5495 0.611007 0.5
49 5.85359 11.626 9.91984 0.5
50 6.22705 0.862014 9.90296 0.5
51 13.1818 9.46593 7.42588 0.5
52 6.48184 10.7655 7.55573 0.5
53 9.99206 3.25676 1.70421 0.5
54 11.7033 11.8429 4.0666 0.5
55 0.421592 0.298688 4.73224 0.5
56 0.330292 3.82529 3.30197 0.5
57 0.308625 11.4168 11.5479 0.5
58 5.48979 8.59289 10.44 0.5
59 1.89269 10.8249 11.6555 0.5
60 7.61253 5.01501 9.47644 0.5
61 4.03271 0.762838 11.2013 0.5
62 0.832549 8.25818 1.01455 0.5
63 11.672 8.75818 1.86897 0.5
64 12.3365 2.01042 9.3408 0.5
65 0.514805 1.68534 5.5721 0.5
66 12.1865 1.73385 1.80767 0.5
67 8.18383 2.95473 8.88829 0.5
68 3.00702 1.51415 2.80812 0.5
69 11.8245 2.16067 10.2828 0.5
70 12.1731 3.61717 9.63873 0.5
71 3.49322 6.24069 8.02969 0.5
72 7.14861 2.12103 11.0753 0.5
73 8.40597 6.79965 8.76104 0.5
74 6.23331 4.69046 10.2725 0.5
75 8.84641 13.5696 10.2915 0.5
76 12.0088 3.41377 13.0765 0.5
77 10.1659 2.6429 3.59292 0.5
78 8.6038 3.29741 5.29595 0.5
79 3.79774 12.3177 5.84369 0.5
80 5.20343 2.63395 8.57137 0.5
81 1.13102 3.56386 11.2812 0.5
82 1.49927 8.84889 0.634789 0.5
83 3.17375 0.5354 6.52754 0.5
84 0.478984 8.26916 8.44895 0.5
85 0.273284 4.01291 6.70297 0.5
86 2.71799 0.968761 13.0033 0.5
87 4.23247 5.70457 5.83795 0.5
88 6.71438 5.82268 3.87948 0.5
89 11.1874 12.5989 7.20425 0.5
90 3.81583 5.78418 4.20162 0.5
91 11.8549 7.51286 12.1191 0.5
92 13.2071 1.68153 1.71445 0.5
93 13.2629 0.514279 12.8539 0.5
94 4.62518 10.4766 12.8443 0.5
95 11.5934 1.54831 7.87771 0.5
96 11.6052 2.73834 4.49781 0.5
97 11.9048 3.01699 5.3682 0.5
98 11.0456 9.92191 0.224664 0.5
99 6.67767 8.84005 9.22457 0.5
100 0.435888 7.36814 6.43789 0.5
101 4.7841 11.2704 2.86454 0.5
102 8.41026 7.41407 9.55023 0.5
103 4.6911 4.99411 10.6793 0.5
104 7.23097 11.2362 6.01894 0.5
105 11.3832 12.7367 6.05942 0.5
106 5.81659 1.2406 10.8135 0.5
107 13.0565 5.50207 6.81423 0.5
108 12.9897 10.3149 5.62192 0.5
109 0.373852 12.3083 9.34256 0.5
110 8.3814 9.37452 8.35953 0.5
111 8.06067 0.0820468 3.25009 0.5
112 6.03059 0.741097 5.47313 0.5
113 0.46335 0.0348973 6.37656 0.5
114 7.70873 6.83559 2.43935 0.5
115 5.61838 6.42164 11.8898 0.5
116 0.0533538 5.39039 2.23201 0.5
117 13.566 0.944063 6.11863 0.5
118 11.2006 9.57599 5.83759 0.5
119 12.2713 8.06182 1.4811 0.5
120 5.70028 9.15186 3.80042 0.5
121 11.9349 13.0876 10.903 0.5
122 1.77317 3.44982 2.06488 0.5
123 11.6173 2.15115 8.65699 0.5
124 10.4822 11.1212 11.5584 0.5
125 4.92143 11.6753 3.77304 0.5
126 11.1671 11.3539 13.2189 0.5
127 7.99661 9.91226 10.9461 0.5
128 5.18544 3.58336 8.13992 0.5
129 2.11786 6.63769 12.3358 0.5
130 0.989689 11.9985 10.9633 0.5
131 7.96886 2.42043 2.07954 0.5
132 5.69102 11.1633 2.36136 0.5
133 1.10452 11.0256 11.0921 0.5
134 11.1437 11.607 3.27228 0.5
135 12.1288 2.27193 5.88937 0.5
136 7.93664 5.09026 4.54782 0.5
137 2.92145 12.2965 6.31358 0.5
138 7.90623 12.1746 12.8566 0.5
139 4.94441 13.4824 0.0416527 0.5
140 5.1993 3.50866 4.38672 0.5
141 1.75867 3.6006 4.14559 0.5
142 9.81489 2.83512 11.654 0.5
143 0.759373 12.942 0.463522 0.5
144 8.69358 12.7532 8.70522 0.5
145 6.94369 6.93299 1.7777 0.5
146 10.063 9.2126 8.21531 0.5
147 4.65157 6.48234 1.24461 0.5
148 12.0698 0.367905 11.5016 0.5
149 8.06016 6.97647 10.3718 0.5
150 12.7478 12.2084 3.88984 0.5
151 6.8132 12.0957 9.84902 0.5
152 4.31779 4.68775 11.6664 0.5
153 11.8328 8.30017 8.26931 0.5
154 2.11911 2.55566 1.93879 0.5
155 2.79995 8.34078 10.5726 0.5
156 8.21658 12.447 0.286765 0.5
157 1.5663 0.549923 3.67163 0.5
158 1.27655 10.1139 8.5771 0.5
159 3.58595 1.9875 9.70612 0.5
160 9.48524 0.0846473 11.1762 0.5
161 12.5435 2.75039 10.0287 0.5
162 7.33313 2.37496 8.98302 0.5
163 11.8924 9.87115 0.722418 0.5
164 9.49275 3.64968 11.0693 0.5
165 6.79756 10.8715 10.9886 0.5
166 10.6276 13.114 6.60253 0.5
167 10.8944 8.17144 8.09078 0.5
168 1.30392 3.27441 7.63526 0.5
169 10.4148 10.8837 12.5762 0.5
170 4.23931 6.4756 0.415346 0.5
171 10.7172 5.1894 1.2437 0.5
172 12.4305 7.93392 10.5266 0.5
173 9.14928 10.2494 1.8643 0.5
174 5.32415 0.639779 1.41593 0.5
175 2.28157 6.5178 4.11967 0.5
176 3.32986 5.36785 3.36927 0.5
177 8.52107 5.11847 6.21521 0.5
178 5.17242 1.79418 4.72617 0.5
179 12.8346 5.79295 1.74534 0.5
180 8.84933 3.24217 11.7927 0.5
181 11.0348 11.2358 9.49236 0.5
182 3.09871 11.7584 1.53693 0.5
183 8.53518 7.29166 6.18654 0.5
184 10.5502 5.75928 8.79264 0.5
185 8.59274 13.1956 11.2813 0.5
186 4.90935 8.04788 2.80252 0.5
187 5.33132 0.744182 0.39402 0.5
188 5.03881 5.93604 6.43248 0.5
189 0.695848 10.9522 6.51307 0.5
190 8.74352 12.9459 2.96257 0.5
191 9.70523 7.22042 3.57883 0.5
192 9.65796 1.0985 13.4808 0.5
193 11.5171 1.67092 9.51798 0.5
194 9.22014 12.7703 10.632 0.5
195 13.3103 9.41869 12.6684 0.5
196 8.30306 1.40607 4.33239 0.5
197 2.63037 6.5694 8.10816 0.5
198 6.06567 6.19714 12.8087 0.5
199 11.3943 0.580511 8.17381 0.5
200 7.32269 6.93397 0.833549 0.5
201 13.4061 4.00072 7.59155 0.5
202 6.31292 13.3128 8.2164 0.5
203 1.51276 3.94925 1.12094 0.5
204 3.37293 8.12882 8.6975 0.5
205 12.1533 0.183065 3.89686 0.5
206 0.529556 1.42386 9.91518 0.5
207 4.31464 11.7517 9.36895 0.5
208 8.59522 4.15838 5.82757 0.5
209 5.48645 1.72145 3.74326 0.5
210 4.11078 6.37079 5.09527 0.5
211 4.25601 4.51494 9.98317 0.5
212 2.84532 5.63031 4.25409 0.5
213 3.51914 1.45337 6.34635 0.5
214 9.87754 4.53932 11.4513 0.5
215 8.31865 6.85377 0.773013 0.5
216 6.39247 8.67928 13.4977 0.5
217 3.39745 11.1857 4.776 0.5
218 6.90855 8.26182 4.64456 0.5
219 8.66967 0.865816 3.56617 0.5
220 6.55104 2.6141 10.3968 0.5
221 3.35842 3.25573 6.06339 0.5
222 6.39491 11.8264 5.69349 0.5
223 4.8266 8.91781 3.26329 0.5
224 12.9206 9.4371 3.53584 0.5
225 7.76941 10.8079 11.1958 0.5
226 10.9037 6.47167 0.117767 0.5
227 0.593673 7.1846 9.84576 0.5
228 4.08308 11.4603 5.49133 0.5
229 6.14675 4.22383 6.87966 0.5
230 6.18073 9.68076 8.89961 0.5
231 8.06428 5.84768 9.00033 0.5
232 7.71484 4.52656 12.642 0.5
233 0.817473 0.372956 10.0158 0.5
234 11.4522 2.09163 5.19999 0.5
235 1.62247 10.2555 3.42203 0.5
236 10.7536 6.1667 1.13394 0.5
237 5.58559 7.85567 6.44915 0.5
238 0.89401 12.6409 6.25225 0.5
239 10.31 7.97851 3.64739 0.5
240 1.51846 4.7946 12.825 0.5
241 4.26583 5.67207 0.888535 0.5
242 2.47855 0.888069 2.31739 0.5
243 2.9004 9.27239 3.8976 0.5
244 3.6081 11.5622 6.42368 0.5
245 1.28525 11.6114 11.8597 0.5
246 9.78422 10.1545 8.27082 0.5
247 3.30442 0.455955 10.6065 0.5
248 7.24335 2.52886 2.72603 0.5
249 9.71734 1.44695 12.461 0.5
250 10.2765 1.89553 13.2892 0.5
251 3.98676 10.4493 12.0959 0.5
252 8.74228 8.30916 12.7702 0.5
253 1.84708 8.14908 1.26348 0.5
254 10.6869 2.46835 2.71798 0.5
255 8.74587 9.50083 2.25249 0.5
256 1.76339 13.2019 3.5225 0.5
257 0.804734 4.04271 7.67691 0.5
258 0.017043 6.4282 5.02248 0.5
259 4.83217 5.38089 9.72447 0.5
260 6.75004 11.1221 10.0235 0.5
261 11.2559 3.63094 5.81161 0.5
262 7.21782 11.9705 5.2501 0.5
263 2.13884 4.41841 8.58 0.5
264 10.4287 10.7948 8.82542 0.5
265 1.82977 4.12538 5.02939 0.5
266 3.32417 13.1149 6.22906 0.5
267 5.3828 7.57301 9.1654 0.5
268 7.10035 2.16537 1.70093 0.5
269 9.14871 13.5593 8.58459 0.5
270 6.84797 10.0842 8.26013 0.5
271 10.7758 12.0618 6.5 0.5
272 6.22055 9.29999 0.71621 0.5
273 8.06878 5.15637 3.53237 0.5
274 10.4041 5.14263 9.79998 0.5
275 2.69311 11.0056 1.17977 0.5
276 4.3189 3.21369 0.401797 0.5
277 7.39715 5.16467 13.3628 0.5
278 11.6005 10.7342 0.323163 0.5
279 9.2691 11.8926 5.4251 0.5
280 4.95871 11.8368 2.01356 0.5
281 6.10735 2.19491 11.1351 0.5
282 0.362016 11.7673 1.69471 0.5
283 5.58356 4.83628 1.60945 0.5
284 1.9026 11.1358 0.625818 0.5
285 3.83627 9.75948 5.9313 0.5
286 2.20426 1.82186 12.7859 0.5
287 7.86253 7.2874 6.90846 0.5
288 5.42886 0.017395 6.69655 0.5
289 2.58157 10.5736 3.53342 0.5
290 13.5559 12.8174 6.02513 0.5
291 5.34029 0.0837152 5.64566 0.5
292 4.28835 3.64726 12.9444 0.5
293 10.842 5.58688 4.01301 0.5
294 3.02156 9.99001 6.40256 0.5
295 2.79264 1.39529 7.07293 0.5
296 0.224459 4.86671 7.20189 0.5
297 10.6928 10.2682 10.9603 0.5
298 9.51684 4.87282 12.2688 0.5
299 1.70906 0.894463 13.0393 0.5
300 9.5521 4.15928 1.5629 0.5
301 6.06812 7.42306 11.6033 0.5
302 2.99605 8.70641 3.10014 0.5
303 12.2254 9.23927 2.73634 0.5
304 0.469591 7.24885 5.37109 0.5
305 7.93396 12.7638 8.0523 0.5
306 11.3771 8.31844 0.968814 0.5
307 2.26781 6.73201 3.12729 0.5
308 0.466555 10.2144 12.7825 0.5
309 12.8769 13.1812 13.1488 0.5
310 8.02058 0.430375 4.19679 0.5
311 13.4304 6.56368 6.75278 0.5
312 7.39222 11.5566 10.7023 0.5
313 1.0001 9.93978 4.07224 0.5
314 6.06696 12.2334 9.15485 0.5
315 12.9124 4.80949 1.84139 0.5
316 8.19759 6.09174 7.98305 0.5
317 13.4513 8.49372 3.60701 0.5
318 0.448334 5.7447 6.67967 0.5
319 11.0323 11.5984 0.617895 0.5
320 5.48978 3.47635 7.21043 0.5
321 2.84174 13.1251 3.24634 0.5
322 10.6748 0.614727 1.162 0.5
323 2.82041 1.78229 1.78277 0.5
324 10.6457 3.48785 3.1375 0.5
325 1.38038 5.41017 0.106804 0.5
326 9.99403 13.3626 0.954551 0.5
327 8.60721 3.00057 8.03802 0.5
328 12.3391 7.03968 12.9221 0.5
329 8.77925 2.82569 9.61162 0.5
330 7.82925 1.86327 5.19521 0.5
331 5.22625 2.52485 3.17673 0.5
332 11.9118 1.14277 8.79724 0.5
333 12.8862 1.95161 2.57393 0.5
334 4.27942 5.89627 1.92787 0.5
335 8.93016 0.656183 4.54053 0.5
336 4.44283 2.24311 9.09901 0.5
337 11.4036 0.16607 12.2255 0.5
338 7.83578 5.90511 10.06 0.5
339 10.0396 3.97482 2.39019 0.5
340 11.7655 3.6122 11.2883 0.5
341 8.51215 0.12722 9.28024 0.5
342 6.23578 0.2353 6.28769 0.5
343 7.06134 5.82627 9.28267 0.5
344 5.49181 6.80487 6.34537 0.5
345 9.04225 8.13517 5.80493 0.5
346 1.31532 6.97174 5.91601 0.5
347 13.0448 12.0464 1.19251 0.5
348 1.40768 4.43274 0.129194 0.5
349 7.92649 6.55293 6.46597 0.5
350 8.57728 7.67565 11.0076 0.5
351 2.85721 9.45343 11.2806 0.5
352 8.21429 12.4974 7.12485 0.5
353 8.44338 7.70925 0.0339489 0.5
354 2.49178 2.84042 5.97625 0.5
355 1.38195 6.46889 3.54206 0.5
356 11.1994 13.5239 4.05857 0.5
357 6.48296 11.147 3.95047 0.5
358 3.50112 0.886322 9.68828 0.5
359 7.30096 9.42168 8.787 0.5
360 12.943 3.4545 6.8752 0.5
361 3.69244 1.09234 7.25345 0.5
362 1.46815 0.969017 9.59394 0.5
363 10.3812 12.4573 0.82003 0.5
364 3.1953 7.28481 1.37348 0.5
365 2.485 7.57677 0.715191 0.5
366 6.53113 9.16995 8.16816 0.5
367 10.3249 11.807 13.522 0.5
368 5.89699 5.26876 9.596 0.5
369 2.06757 3.21793 5.09922 0.5
370 0.314721 10.2283 6.04114 0.5
371 8.90785 0.00405924 3.79691 0.5
372 0.152899 4.64209 3.72269 0.5
373 3.82471 2.70054 13.1196 0.5
374 0.355984 9.48314 13.4675 0.5
375 0.470724 9.8582 8.92766 0.5
376 1.7143 10.7569 4.18489 0.5
377 7.66302 5.92147 3.92102 0.5
378 5.95307 9.61892 13.27 0.5
379 4.5969 4.89748 1.48339 0.5
380 7.67419 4.26332 0.2358 0.5
381 9.92119 3.7944 8.54051 0.5
382 9.59514 2.85793 8.04089 0.5
383 2.25861 4.93434 13.453 0.5
384 5.48634 10.1497 12.5561 0.5
385 13.0304 11.368 1.94439 0.5
386 0.156551 3.77431 4.2403 0.5
387 2.70893 6.65926 11.4666 0.5
388 1.41565 2.00459 9.9657 0.5
389 3.70581 9.53252 11.9108 0.5
390 5.24503 4.54874 9.87079 0.5
391 7.82412 0.7027 1.75655 0.5
392 13.2693 4.56727 2.8083 0.5
393 3.1075 4.8083 8.59289 0.5
394 9.21101 9.52619 7.8139 0.5
395 1.31281 0.0175615 9.26914 0.5
396 0.0966501 2.37807 2.33135 0.5
397 7.86198 1.71219 1.3722 0.5
398 9.26948 11.9842 3.03046 0.5
399 0.974113 4.23831 4.2167 0.5
400 7.43907 9.02664 4.95056 0.5
401 10.1192 2.34949 12.4865 0.5
402 5.19606 7.33736 5.62378 0.5
403 6.43924 0.603255 7.81399 0.5
404 11.3541 11.1228 12.1746 0.5
405 12.2604 5.43146 13.5353 0.5
406 6.80336 2.90503 1.09958 0.5
407 1.77988 11.232 3.34802 0.5
408 2.7049 3.79938 5.65549 0.5
409 3.68664 4.84279 10.8457 0.5
410 11.2829 2.63195 3.4923 0.5
411 5.16583 5.70656 1.57031 0.5
412 5.60289 13.4674 0.765931 0.5
413 2.71032 5.89826 7.40768 0.5
414 3.29614 8.66496 11.3996 0.5
415 8.11552 10.1702 11.8489 0.5
416 8.81222 10.9557 5.2568 0.5
417 0.331965 13.2775 9.33436 0.5
418 9.46856 0.755736 10.4782 0.5
419 2.86261 13.2495 10.9051 0.5
420 3.72119 0.029954 7.21579 0.5
421 12.8696 5.57513 9.88598 0.5
422 7.85035 4.81915 5.5496 0.5
423 12.3006 0.425846 2.95344 0.5
424 2.98673 3.06167 5.09335 0.5
425 9.12165 8.61741 10.974 0.5
426 0.00887501 12.8265 8.51628 0.5
427 7.84768 2.66847 1.1232 0.5
428 1.1574 8.36496 9.00925 0.5
429 11.5114 5.88696 8.42375 0.5
430 9.33383 12.682 11.5938 0.5
431 2.40416 5.10322 7.98081 0.5
432 12.7228 2.65124 1.85183 0.5
433 8.1348 11.4447 0.0763916 0.5
434 13.5104 3.24792 13.0598 0.5
435 11.24 9.34722 1.05775 0.5
436 6.88467 5.40684 10.1677 0.5
437 4.5096 9.15031 6.4098 0.5
438 5.90053 2.9636 7.87913 0.5
439 11.3815 10.4974 10.2716 0.5
440 9.29258 11.1702 6.1126 0.5
441 5.45139 0.912423 6.23597 0.5
442 1.34177 7.51601 6.76665 0.5
443 1.10694 12.3681 1.36183 0.5
444 9.25418 9.07063 12.9227 0.5
445 5.30134 8.16338 3.64905 0.5
446 3.21227 6.41805 4.65818 0.5
447 2.35977 9.26017 6.64031 0.5
448 5.35176 9.72442 0.550388 0.5
449 3.43787 12.7923 11.6284 0.5
450 3.00033 2.72055 1.53378 0.5
451 7.53986 3.59559 0.992116 0.5
452 2.3869 8.52209 0.440096 0.5
453 4.9485 8.85837 2.22688 0.5
454 3.06465 0.485104 2.97712 0.5
455 1.06631 2.5873 11.4733 0.5
456 8.20061 0.0521427 8.30971 0.5
457 12.1752 11.8765 8.40868 0.5
458 4.24741 0.423833 10.219 0.5
459 12.0054 3.29492 6.40082 0.5
460 12.9094 6.29016 0.029148 0.5
461 11.9902 8.22284 11.4169 0.5
462 9.8993 4.60904 7.86757 0.5
463 5.85265 2.5455 7.01379 0.5
464 0.21737 8.01601 9.41416 0.5
465 4.91792 10.6611 11.9307 0.5
466 2.83738 13.2129 7.01767 0.5
467 1.60289 7.95249 0.308596 0.5
468 0.782685 7.33633 8.88329 0.5
469 1.97313 2.94983 11.263 0.5
470 1.70894 6.77544 11.4503 0.5
471 3.76582 1.36013 10.4912 0.5
472 11.1595 6.72688 4.06278 0.5
473 11.3905 8.68224 7.20627 0.5
474 3.43547 7.26632 8.15136 0.5
475 5.82786 3.40724 6.273 0.5
476 6.5646 0.638252 10.825 0.5
477 5.95007 8.27116 9.6223 0.5
478 3.60103 12.2836 0.858453 0.5
479 9.14462 7.3245 12.848 0.5
480 3.85139 10.117 8.93514 0.5
481 2.30422 4.12478 0.534457 0.5
482 10.9585 13.2509 0.574708 0.5
483 9.22271 11.1284 2.36952 0.5
484 10.2928 7.16874 4.33342 0.5
485 5.80363 4.26333 2.45799 0.5
486 3.55647 11.0444 8.99798 0.5
487 4.31821 2.98367 8.3906 0.5
488 5.67143 5.06618 6.61553 0.5
489 3.44987 1.00319 2.08356 0.5
490 13.0517 12.7237 9.42409 0.5
491 2.25011 7.52823 11.943 0.5
492 1.30623 5.28111 11.9605 0.5
493 11.9925 8.83428 10.5325 0.5
494 6.81954 4.66188 0.482065 0.5
495 6.99746 7.85343 0.300623 0.5
496 6.61614 13.2214 12.9934 0.5
497 5.16442 4.15237 6.50635 0.5
498 3.06614 11.7261 5.57242 0.5
499 6.52408 1.33873 11.4612 0.5
500 10.1954 9.65086 5.99766 0.5
501 4.98867 0.997734 4.17718 0.5
502 9.60283 10.4678 9.2608 0.5
503 6.96383 5.90534 12.8313 0.5
504 2.12262 1.50309 0.129873 0.5
505 3.55745 3.36987 12.2938 0.5
506 3.61222 10.8244 1.57227 0.5
507 7.87347 4.27657 3.86259 0.5
508 13.3539 1.05367 5.16918 0.5
509 5.22062 5.28985 5.64794 0.5
510 7.21807 10.1023 11.6128 0.5
511 6.07602 0.75752 7.00521 0.5
512 10.1511 11.453 2.6961 0.5
513 4.76504 4.17414 2.87957 0.5
514 6.18558 8.35873 0.790743 0.5
515 2.32497 9.54262 3.25372 0.5
516 5.78872 8.66737 2.93408 0.5
517 1.047 3.48094 4.84491 0.5
518 3.24259 6.57333 8.94817 0.5
519 5.23315 7.72906 10.2572 0.5
520 2.01596 0.594328 0.292385 0.5
521 11.4664 5.96688 4.64562 0.5
522 2.8024 9.14868 12.1806 0.5
523 13.0915 7.8516 3.02748 0.5
524 13.4411 0.183498 5.61233 0.5
525 11.6397 8.95618 0.1647 0.5
526 8.65469 12.0795 7.91831 0.5
527 7.78685 10.8513 1.41649 0.5
528 1.14874 0.121285 13.5538 0.5
529 0.150981 12.7135 1.35047 0.5
530 11.6383 2.74138 9.58044 0.5
531 11.4865 7.99457 10.5777 0.5
532 6.53119 9.17411 4.45515 0.5
533 6.10117 7.8034 10.6809 0.5
534 2.52544 13.1262 11.803 0.5
535 8.38865 13.0804 13.0882 0.5
536 2.13654 12.3303 3.27618 0.5
537 2.57168 11.1512 9.20782 0.5
538 8.32552 9.97041 1.41356 0.5
539 1.72534 7.42741 3.48914 0.5
540 0.45508 3.35715 8.32603 0.5
541 3.9158 11.5198 2.36071 0.5
542 7.56204 0.200017 12.8775 0.5
543 13.2455 5.87908 5.86821 0.5
544 8.89103 2.37426 8.7232 0.5
545 1.29715 7.01482 2.75823 0.5
546 0.707194 0.807148 12.9964 0.5
547 10.7728 5.4191 5.01793 0.5
548 11.5316 13.4627 6.65777 0.5
549 12.0078 11.1616 7.73157 0.5
550 12.556 12.955 3.23395 0.5
551 7.05207 1.21262 1.31921 0.5
552 4.0953 7.33694 0.973153 0.5
553 10.7365 6.15905 7.84778 0.5
554 3.71969 12.5295 6.8706 0.5
555 0.886748 3.26149 3.91173 0.5
556 7.56728 12.9911 12.374 0.5
557 7.29132 10.9854 0.53138 0.5
558 4.44709 1.31008 9.74083 0.5
559 2.92536 10.4051 8.69005 0.5
560 6.59655 2.26939 11.9986 0.5
561 8.50324 8.44046 11.6929 0.5
562 12.7167 2.75947 12.9598 0.5
563 8.54618 6.66465 7.21158 0.5
564 6.38342 5.25937 13.3444 0.5
565 8.77922 4.99985 5.1437 0.5
566 6.6435 1.59723 10.4921 0.5
567 12.977 4.10187 3.5583 0.5
568 7.42125 1.13411 11.037 0.5
569 11.1745 6.74613 11.6655 0.5
570 13.0138 7.92874 2.05276 0.5
571 2.32799 1.13155 3.34905 0.5
572 5.15691 3.70575 13.4753 0.5
573 0.631478 13.1539 5.38339 0.5
574 9.28523 8.20449 3.40721 0.5
575 8.23802 13.4987 2.24807 0.5
576 3.75616 10.7714 8.11324 0.5
577 4.06951 8.65784 2.71733 0.5
578 1.99618 11.7107 1.31199 0.5
579 0.184393 9.86664 11.9463 0.5
580 2.52203 4.86431 7.09734 0.5
581 1.0319 12.6971 8.72585 0.5
582 2.64837 12.4002 11.2273 0.5
583 2.87503 10.8783 0.218253 0.5
584 10.5391 6.3328 4.74395 0.5
585 0.0538999 4.94172 6.25089 0.5
586 0.378256 5.49261 9.6682 0.5
587 12.6972 3.17382 0.918772 0.5
588 13.3656 12.753 0.328838 0.5
589 13.4473 9.19015 8.4031 0.5
590 3.92659 11.7192 8.39322 0.5
591 3.76692 4.28487 12.4025 0.5
592 10.8093 11.2485 10.5135 0.5
593 6.66516 9.80599 7.3526 0.5
594 13.2968 10.9239 6.36155 0.5
595 13.043 9.92703 6.56731 0.5
596 9.68542 9.44723 2.48891 0.5
597 2.15363 10.1074 9.31431 0.5
598 7.72919 11.1049 5.13249 0.5
599 11.5005 11.1019 8.61022 0.5
600 12.2753 6.09731 12.7733 0.5
601 2.31524 5.7854 3.40864 0.5
602 0.798736 6.18554 10.1652 0.5
603 2.96767 7.66905 11.2645 0.5
604 4.73939 1.18338 10.6293 0.5
605 7.45717 1.64545 11.862 0.5
606 11.9001 9.16196 5.28033 0.5
607 8.85996 10.2276 8.46766 0.5
608 8.43398 12.6858 12.08 0.5
609 1.50249 12.1303 0.483112 0.5
610 1.2709 9.35171 9.34263 0.5
611 0.968342 9.13046 8.44003 0.5
612 6.13281 12.702 3.01014 0.5
613 3.49091 5.6146 5.13711 0.5
614 3.87076 13.338 10.92 0.5
615 3.12212 10.3684 9.6535 0.5
616 13.1781 6.27097 2.57434 0.5
617 7.25936 6.0018 2.20916 0.5
618 11.456 7.45055 8.4493 0.5
619 12.6714 3.60544 11.5946 0.5
620 0.863198 10.6568 12.0132 0.5
621 2.71079 3.81575 4.55578 0.5
622 5.89454 8.57765 8.73104 0.5
623 12.9516 7.76435 4.09211 0.5
624 12.7461 5.44684 2.69728 0.5
625 1.79541 3.69181 10.5286 0.5
626 2.34593 4.21163 1.56505 0.5
627 9.91716 6.49777 0.618463 0.5
628 12.6679 4.50066 9.93751 0.5
629 5.55533 3.98606 3.4779 0.5
630 3.15847 3.70445 1.20406 0.5
631 9.58545 1.80777 0.555044 0.5
632 6.86923 12.2698 12.8654 0.5
633 10.5812 1.33712 0.495822 0.5
634 10.4302 10.5126 9.90521 0.5
635 9.22107 2.21659 12.0504 0.5
636 9.65866 3.80795 12.1236 0.5
637 0.111179 10.4045 7.18307 0.5
638 5.91732 1.14848 4.46699 0.5
639 9.06095 7.24876 10.1937 0.5
640 1.84503 4.26057 7.62667 0.5
641 7.58021 7.34625 6.02307 0.5
642 11.2847 5.66654 0.420955 0.5
643 10.6759 1.03828 7.58809 0.5
644 6.63599 3.05265 11.3723 0.5
645 0.370363 11.1686 5.59747 0.5
646 9.35633 8.85108 11.9905 0.5
647 8.51245 4.88772 12.1363 0.5
648 7.72468 9.25436 11.665 0.5
649 5.22226 7.93623 11.2229 0.5
650 2.90021 0.576038 7.56055 0.5
651 0.995838 6.60157 6.79211 0.5
652 6.18344 3.97746 7.80132 0.5
653 0.0396234 5.50199 3.17831 0.5
654 2.90259 10.1949 11.8508 0.5
655 11.9797 11.7353 9.30494 0.5
656 1.06097 11.3805 1.1002 0.5
657 10.888 0.551601 6.54756 0.5
658 9.39146 10.2861 5.61379 0.5
659 1.4126 9.23461 3.45148 0.5
660 0.586712 0.692379 9.07656 0.5
661 3.60467 7.369 9.24289 0.5
662 3.29946 10.7624 5.72239 0.5
663 5.8884 12.0077 3.84508 0.5
664 5.08451 6.2868 5.47463 0.5
665 9.59986 11.0026 3.29937 0.5
666 5.15686 12.3454 9.62972 0.5
667 10.8441 4.18628 8.13072 0.5
668 5.74822 3.10205 3.79283 0.5
669 8.34513 10.5541 2.26624 0.5
670 8.79925 13.0694 7.72673 0.5
671 7.1333 8.72428 0.760704 0.5
672 3.36866 2.33771 5.66356 0.5
673 5.45892 8.8641 0.267613 0.5
674 2.92706 8.13899 12.1743 0.5
675 3.48424 5.01499 11.8701 0.5
676 2.0926 0.238766 2.88512 0.5
677 3.84394 8.90115 3.66319 0.5
678 13.2895 7.48675 10.1206 0.5
679 10.5093 12.6424 5.72427 0.5
680 4.74113 10.8807 1.92699 0.5
681 3.8243 1.44773 8.88998 0.5
682 2.11193 2.76165 10.3065 0.5
683 2.02185 5.91876 11.7308 0.5
684 11.6498 13.2252 3.17515 0.5
685 11.9293 12.7861 4.11828 0.5
686 11.0615 7.77165 11.4721 0.5
687 5.03364 9.5335 13.1402 0.5
688 1.1935 8.00213 5.94795 0.5
689 2.69529 3.44987 2.14148 0.5
690 4.84275 8.44639 7.00789 0.5
691 13.4961 10.8134 12.1942 0.5
692 4.61926 0.297099 0.869642 0.5
693 11.5777 5.83896 12.0299 0.5
694 5.74386 9.22465 9.67685 0.5
695 12.2853 8.2342 2.52423 0.5
696 10.1169 3.65057 7.65066 0.5
697 0.450094 9.7872 7.90404 0.5
698 6.88658 10.4543 6.60891 0.5
699 3.34655 7.98908 0.708527 0.5
700 12.4848 8.52125 3.49969 0.5
701 9.72087 8.15732 12.6004 0.5
702 3.60301 2.40977 8.74455 0.5
703 1.85578 5.65252 12.6744 0.5
704 9.07104 3.33737 8.78151 0.5
705 10.717 7.28177 7.7281 0.5
706 6.24277 10.7728 5.93806 0.5
707 3.8962 5.47775 10.135 0.5
708 12.6599 2.15622 0.960295 0.5
709 9.76903 0.86366 0.930449 0.5
710 7.15252 6.40468 3.11292 0.5
711 0.278517 13.4378 13.218 0.5
712 12.3662 2.94775 8.99475 0.5
713 8.36719 10.0332 7.66388 0.5
714 12.961 4.44152 6.74737 0.5
715 13.1335 8.77971 2.76191 0.5
716 1.7777 2.06087 10.902 0.5
717 3.29662 6.93817 0.477925 0.5
718 11.6117 0.7312 7.25586 0.5
719 4.36612 11.3726 12.4223 0.5
720 12.8771 11.954 2.92149 0.5
721 10.8925 6.6661 8.62568 0.5
722 5.15145 0.589206 12.8891 0.5
723 3.20469 11.9308 9.03411 0.5
724 9.21053 12.9739 9.55164 0.5
725 2.6005 1.79749 6.14204 0.5
726 8.23692 2.03374 9.31698 0.5
727 4.75341 2.82609 13.3053 0.5
728 13.174 1.84962 5.77612 0.5
729 9.81348 4.76995 0.844531 0.5
730 8.2391 5.77101 6.95182 0.5
731 10.3016 0.415232 0.318356 0.5
732 1.36307 2.87618 8.50421 0.5
733 8.03004 11.6846 0.936236 0.5
734 10.0662 11.7759 5.87448 0.5
735 3.25289 5.22091 7.70374 0.5
736 4.44786 4.14563 10.9316 0.5
737 4.82462 3.30514 3.50301 0.5
738 2.03506 7.74086 10.9394 0.5
739 5.51098 0.244916 7.84122 0.5
740 11.7778 13.3499 7.68331 0.5
741 7.34364 4.30932 4.75731 0.5
742 5.37049 8.99684 1.22247 0.5
743 7.45887 8.16005 5.39959 0.5
744 4.42567 2.73945 12.3477 0.5
745 6.63768 6.62777 12.0773 0.5
746 5.10145 8.50473 9.41746 0.5
747 12.9632 0.609755 11.8067 0.5
748 7.51019 9.50007 7.79133 0.5
749 6.58854 9.25652 3.51205 0.5
750 1.19718 1.06312 0.344191 0.5
751 0.136747 8.54085 12.8933 0.5
752 1.22265 1.78909 13.1873 0.5
753 7.1431 1.98428 0.730679 0.5
754 1.67502 12.5622 11.6314 0.5
755 6.75776 3.67663 0.260606 0.5
756 6.9776 7.78541 1.31341 0.5
757 12.2337 6.62801 11.8575 0.5
758 3.6657 12.1504 4.86398 0.5
759 12.6719 8.86192 1.84865 0.5
760 7.20207 4.97391 4.00281 0.5
761 3.5361 11.2823 0.819475 0.5
762 13.2529 2.54632 0.254165 0.5
763 11.4032 0.619412 3.3211 0.5
764 9.10667 9.26223 3.24784 0.5
765 12.1895 2.6211 0.150581 0.5
766 7.85835 3.3947 4.60395 0.5
767 3.7535 6.49597 1.22783 0.5
768 12.6961 0.49782 10.857 0.5
769 11.2469 2.67264 6.02651 0.5
770 11.326 8.03217 6.40048 0.5
771 8.08726 8.08787 6.20945 0.5
772 0.775291 2.02937 10.6868 0.5
773 9.1733 3.78818 7.80528 0.5
774 9.0587 0.403476 2.78611 0.5
775 10.1887 13.0324 11.0442 0.5
776 3.42458 9.10449 6.54055 0.5
777 11.0283 12.5907 3.60873 0.5
778 11.9465 12.1924 3.26654 0.5
779 8.34081 7.62385 5.2963 0.5
780 2.94396 11.3217 8.2986 0.5
781 0.762142 1.20656 4.72883 0.5
782 10.8225 3.29355 4.15989 0.5
783 0.742887 9.22971 12.6765 0.5
784 2.45912 2.20538 5.12371 0.5
785 10.2722 10.1719 5.15861 0.5
786 8.42504 4.19677 4.84662 0.5
787 6.39088 11.6599 3.01538 0.5
788 11.9052 7.30338 11.1417 0.5
789 9.14855 3.57663 2.2913 0.5
790 8.18136 0.858008 2.67683 0.5
791 5.05656 7.26479 11.9119 0.5
792 4.97421 2.70267 7.58239 0.5
793 7.3557 8.73846 3.89281 0.5
794 12.9916 1.1886 3.17645 0.5
795 7.84405 8.21882 4.48858 0.5
796 4.0601 10.7252 9.68596 0.5
797 3.4901 4.0219 11.4953 0.5
798 2.50513 2.8722 4.25363 0.5
799 0.703915 0.668825 5.53334 0.5
800 0.858372 8.60216 13.5656 0.5
801 8.04015 5.95642 2.848 0.5
802 5.30347 11.146 12.6711 0.5
803 11.4061 10.9231 11.1691 0.5
804 13.1426 6.07485 9.09012 0.5
805 9.35026 8.5594 2.46279 0.5
806 2.63085 7.33664 8.79129 0.5
807 2.79196 4.22314 7.78499 0.5
808 2.11937 8.46565 3.48282 0.5
809 9.16348 5.1722 11.4272 0.5
810 2.28372 11.8184 11.9537 0.5
811 10.5842 7.18706 3.33431 0.5
812 2.34766 8.52555 11.4855 0.5
813 7.75686 5.53537 12.4175 0.5
814 8.96143 0.63605 5.62933 0.5
815 11.2972 11.8797 7.98077 0.5
816 9.25326 7.32781 0.390862 0.5
817 12.4245 11.3401 3.48841 0.5
818 3.26791 10.2576 0.831963 0.5
819 6.33339 13.3721 7.26332 0.5
820 13.1804 11.8957 8.7096 0.5
821 10.9343 2.93004 5.12367 0.5
822 8.87461 1.59009 5.205 0.5
823 9.78227 13.4226 10.1824 0.5
824 1.97742 8.62893 5.76238 0.5
825 7.30552 0.418257 2.59261 0.5
826 7.23018 13.4635 7.85724 0.5
827 11.2404 0.642299 0.29066 0.5
828 5.2911 3.38979 2.65329 0.5
829 4.45422 1.9262 8.2419 0.5
830 5.2287 11.6514 9.02553 0.5
831 10.8925 0.0377149 7.44172 0.5
832 0.959622 5.14957 10.4374 0.5
833 1.93163 11.6939 11.0409 0.5
834 9.33887 2.11072 13.132 0.5
835 1.07282 5.9324 11.1396 0.5
836 8.12452 8.89609 10.7257 0.5
837 7.3532 2.75427 0.350606 0.5
838 12.7894 13.2425 11.5149 0.5
839 5.09082 4.95602 2.4431 0.5
840 7.47736 12.8664 13.368 0.5
841 5.9076 10.5237 6.8617 0.5
842 12.5396 3.62874 10.5968 0.5
843 12.0461 3.04547 12.1065 0.5
844 5.16888 3.3206 12.5024 0.5
845 10.2712 5.9143 5.61701 0.5
846 5.93038 12.4987 10.2765 0.5
847 4.65408 7.5258 6.49241 0.5
848 5.10904 6.56911 12.6703 0.5
849 0.2706 11.8556 6.33079 0.5
850 10.9708 10.285 12.0031 0.5
851 6.36163 11.3869 6.65471 0.5
852 7.4761 10.4426 7.48752 0.5
853 4.40984 7.87302 8.80101 0.5
854 10.2222 6.28397 3.76599 0.5
855 9.98764 10.4871 2.51445 0.5
856 2.57023 0.277101 3.8891 0.5
857 9.93259 5.34774 10.7507 0.5
858 7.83384 10.2178 8.45526 0.5
859 11.6727 5.17619 5.26299 0.5
860 10.9704 5.23427 5.899 0.5
861 10.9526 0.0479276 5.71094 0.5
862 10.9307 7.19095 10.6639 0.5
863 8.42286 8.59736 5.27457 0.5
864 8.04123 7.14565 7.9594 0.5
865 11.8777 4.04047 12.2138 0.5
866 5.93583 12.0228 2.09774 0.5
867 12.3413 4.33698 13.0934 0.5
868 9.36057 9.49791 8.85864 0.5
869 4.69038 1.30815 0.908301 0.5
870 3.96925 8.28847 6.44493 0.5
871 12.7977 8.80921 4.37028 0.5
872 0.871581 5.71175 12.8326 0.5
873 12.7127 1.02742 2.21115 0.5
874 6.88687 5.02133 12.4655 0.5
875 6.38999 11.8702 4.67063 0.5
876 2.80196 5.75866 8.49952 0.5
877 10.6005 8.05582 7.06145 0.5
878 2.64762 11.8064 0.555809 0.5
879 1.33681 3.87051 8.5077 0.5
880 12.0567 1.36652 2.87211 0.5
881 11.2409 10.3955 12.9154 0.5
882 2.04885 9.74682 4.14019 0.5
883 11.1967 12.3392 0.103462 0.5
884 12.7978 3.50092 13.5679 0.5
885 7.56327 10.6001 10.2857 0.5
886 0.291109 3.24817 7.30722 0.5
887 13.4177 13.3727 12.2851 0.5
888 4.9577 4.09772 1.88737 0.5
889 11.3265 4.98399 8.73555 0.5
890 11.7789 8.98316 6.30098 0.5
891 1.63569 6.06534 2.66841 0.5
892 9.39134 0.440242 9.53115 0.5
893 10.3189 4.79707 8.79952 0.5
894 7.79668 7.8614 0.774308 0.5
895 12.1322 8.9545 0.994265 0.5
896 7.32093 11.9906 0.18734 0.5
897 6.81183 12.2259 3.71254 0.5
898 5.35393 12.0087 2.95769 0.5
899 10.7501 5.25163 7.99078 0.5
900 11.9266 10.709 9.54654 0.5
901 0.108215 5.71752 10.6072 0.5
902 11.5578 6.69198 7.83141 0.5
903 10.0728 8.75173 3.09862 0.5
904 7.68424 3.80164 5.53585 0.5
905 13.2343 6.9661 5.93282 0.5
906 12.7578 5.05654 3.57112 0.5
907 6.52891 3.67192 10.6135 0.5
908 8.17814 0.879306 5.13712 0.5
909 9.91729 2.97617 2.65656 0.5
910 7.99436 2.13779 8.37969 0.5
911 5.84614 7.15371 12.5119 0.5
912 8.65421 9.4174 11.3747 0.5
913 11.3826 5.73942 13.065 0.5
914 4.41203 0.829226 0.0266041 0.5
915 7.76486 2.83349 5.39005 0.5
916 10.762 8.86099 6.35899 0.5
917 11.8702 12.9241 11.7832 0.5
918 7.47515 6.46045 8.39487 0.5
919 13.2044 12.309 2.10378 0.5
920 0.229646 11.2709 10.5175 0.5
921 5.85054 6.04034 6.93052 0.5
922 12.2493 2.74386 11.1112 0.5
923 0.618696 2.52545 7.80846 0.5
924 11.7802 11.4032 10.2293 0.5
925 10.8064 3.40952 2.16754 0.5
926 5.45733 10.4934 13.4208 0.5
927 2.14993 7.64791 6.10136 0.5
928 0.516773 6.40741 5.99523 0.5
929 1.23594 2.90567 10.5083 0.5
930 10.2482 9.80199 9.14896 0.5
931 4.63475 9.75724 12.2186 0.5
932 4.2694 8.02681 3.50405 0.5