ITEM: TIMESTEP
570000
ITEM: NUMBER OF ATOMS
1000
ITEM: BOX BOUNDS xy xz yz pp pp pp
0.0000000000000000e+00 1.3572088000000001e+01 0.0000000000000000e+00
0.0000000000000000e+00 1.3572088000000001e+01 0.0000000000000000e+00
0.0000000000000000e+00 1.3572088000000001e+01 0.0000000000000000e+00
ITEM: ATOMS id x y z radius
1 4.36754 3.84944 12.2145 0.5
2 4.81599 11.2075 3.57167 0.5
3 8.84469 10.3719 3.10958 0.5
4 9.84986 5.87637 1.07657 0.5
5 8.39678 7.48448 11.0228 0.5
6 3.7606 13.0164 5.05793 0.5
7 2.30342 8.38748 1.61984 0.5
8 13.0988 11.2434 1.97015 0.5
9 1.88189 8.30631 6.9781 0.5
10 3.82159 13.5189 11.2741 0.5
11 0.812519 9.59341 9.27903 0.5
12 10.3694 5.55847 0.186941 0.5
13 8.37742 11.8264 5.32367 0.5
14 10.8364 2.3752 4.51435 0.5
15 5.79685 1.88551 4.23844 0.5
16 7.68722 6.44274 9.79395 0.5
17 6.78237 12.2389 10.5923 0.5
18 2.79912 8.43895 6.54254 0.5
19 10.0248 5.06628 1.74697 0.5
20 9.83269 11.6738 2.5363 0.5
21 2.0165 4.7493 0.925177 0.5
22 1.82097 6.01079 12.2643 0.5
23 1.792 1.11979 10.4799 0.5
24 7.53282 7.23987 2.11739 0.5
25 0.697043 5.54399 1.97252 0.5
26 10.3757 10.457 5.65867 0.5
27 11.3934 6.93195 12.629 0.5
28 5.28746 11.3598 12.0374 0.5
29 0.137974 5.90888 1.31523 0.5
30 8.2876 11.0532 1.67676 0.5
31 0.553917 0.209903 8.44961 0.5
32 8.91357 2.43665 12.3804 0.5
33 13.2877 6.4451 9.50378 0.5
34 3.68677 8.68519 5.88468 0.5
35 11.7531 6.68298 13.5603 0.5
36 8.89431 1.92989 4.56666 0.5
37 13.5234 1.31936 2.57281 0.5
38 2.31083 1.44096 2.0806 0.5
39 10.6001 4.32879 1.45701 0.5
40 5.91057 5.96138 6.43645 0.5
41 7.8643 11.1269 4.79915 0.5
42 6.84762 5.13253 3.39162 0.5
43 5.28066 4.97392 9.92623 0.5
44 4.72615 11.1675 8.11589 0.5
45 7.59106 6.26306 2.05899 0.5
46 10.4658 10.7148 0.195448 0.5
47 2.76405 9.21631 5.87412 0.5
48 7.70685 10.6851 0.915075 0.5
49 5.57112 11.5396 9.62165 0.5
50 6.36256 0.855067 9.95701 0.5
51 12.9537 10.087 7.25866 0.5
52 6.71623 10.362 7.40208 0.5
53 10.2809 3.44264 1.80714 0.5
54 12.0457 11.8229 4.27456 0.5
55 0.436416 0.659336 6.07564 0.5
56 0.0496349 3.97984 3.19756 0.5
57 0.646515 11.5753 11.5778 0.5
58 5.39224 8.33768 10.4589 0.5
59 1.92381 10.5305 11.3915 0.5
60 7.76238 4.77476 9.74377 0.5
61 4.62939 0.501851 10.8371 0.5
62 0.760788 8.61751 0.923396 0.5
63 11.7197 8.69954 2.30362 0.5
64 12.2987 1.79983 9.31252 0.5
65 13.0094 1.48 5.01846 0.5
66 12.1433 1.65018 1.63209 0.5
67 8.25385 3.24608 8.42275 0.5
68 2.66489 1.34825 3.04262 0.5
69 11.5842 2.36618 9.96552 0.5
70 12.7086 3.41949 9.17797 0.5
71 3.18236 6.51639 9.22517 0.5
72 7.44579 2.16322 11.0825 0.5
73 8.37226 6.73119 9.1226 0.5
74 6.11588 4.48545 10.1549 0.5
75 8.97939 0.38222 10.2694 0.5
76 11.9548 3.30349 12.7904 0.5
77 10.3743 2.69963 3.57618 0.5
78 8.72711 2.89667 5.09152 0.5
79 4.19237 12.3966 5.81339 0.5
80 5.60584 2.56767 8.14186 0.5
81 1.33275 3.11208 11.9111 0.5
82 1.12216 8.51378 13.5353 0.5
83 3.11108 0.429565 6.3834 0.5
84 0.000799549 9.01802 9.65608 0.5
85 12.9114 3.83829 6.78911 0.5
86 2.68314 0.993031 13.0369 0.5
87 4.33779 5.59682 5.99558 0.5
88 6.72043 5.54419 4.42165 0.5
89 11.3162 12.2751 7.498 0.5
90 4.13765 5.97328 4.40274 0.5
91 11.3579 7.84945 12.1672 0.5
92 13.1311 1.6772 1.5853 0.5
93 13.1746 0.630256 13.1527 0.5
94 4.62772 9.97175 12.7083 0.5
95 12.043 1.12761 7.75907 0.5
96 11.707 2.84833 4.57566 0.5
97 12.1391 2.77417 5.56452 0.5
98 10.9131 9.83609 0.343944 0.5
99 6.71544 8.53183 9.38356 0.5
100 0.714587 7.07371 6.66654 0.5
101 4.57972 11.8376 2.83318 0.5
102 8.36944 7.17538 10.0203 0.5
103 4.41356 4.72782 10.2784 0.5
104 6.83902 11.4364 5.98362 0.5
105 11.7555 12.0099 6.46979 0.5
106 5.9715 1.63024 10.5148 0.5
107 0.291859 5.13393 6.95505 0.5
108 12.9482 10.5866 5.72197 0.5
109 1.22628 12.3077 9.01554 0.5
110 8.42579 9.30774 8.89822 0.5
111 8.85516 0.306524 3.48611 0.5
112 6.2258 1.18403 4.85481 0.5
113 0.14637 13.3229 5.55271 0.5
114 7.28424 6.66729 2.8753 0.5
115 5.48478 6.10614 11.753 0.5
116 13.3782 5.33737 2.038 0.5
117 0.231162 1.13393 4.4488 0.5
118 10.9642 9.666 5.98876 0.5
119 12.2384 7.97944 1.88708 0.5
120 5.62747 9.14064 4.01816 0.5
121 11.5442 13.4393 11.2352 0.5
122 1.70556 3.38937 2.18631 0.5
123 11.9875 1.91939 8.3261 0.5
124 10.428 11.3401 11.7362 0.5
125 4.85931 12.1253 3.80232 0.5
126 11.1137 11.2531 13.4005 0.5
127 7.91176 10.1318 10.9154 0.5
128 5.07193 3.14732 7.45565 0.5
129 2.57482 6.05635 11.5641 0.5
130 1.36095 12.1301 11.0577 0.5
131 7.92222 2.15316 2.17348 0.5
132 5.42131 11.9841 2.19355 0.5
133 1.22929 11.0756 10.9223 0.5
134 11.37 11.3728 3.69525 0.5
135 12.284 1.8779 5.86948 0.5
136 8.12843 4.72936 4.43023 0.5
137 3.23991 12.4548 5.73224 0.5
138 7.17523 12.1154 13.0454 0.5
139 5.75697 0.0268153 0.0876045 0.5
140 4.70096 3.723 4.07445 0.5
141 1.78016 3.67761 4.14468 0.5
142 9.91078 2.54985 12.4792 0.5
143 0.804103 12.8453 0.314374 0.5
144 8.65309 12.9964 8.83457 0.5
145 6.72389 6.65762 2.06557 0.5
146 10.1837 9.25961 8.99635 0.5
147 4.40302 6.82467 0.89543 0.5
148 12.3056 0.510801 11.3163 0.5
149 8.05036 6.56343 10.6813 0.5
150 12.9082 11.9845 3.7285 0.5
151 7.01025 12.3284 9.66763 0.5
152 3.62036 4.40237 11.7877 0.5
153 12.1588 7.78953 7.22933 0.5
154 1.93565 2.39857 2.17722 0.5
155 2.21198 8.59529 10.8797 0.5
156 8.00776 12.3177 0.0846994 0.5
157 1.35329 0.165459 3.67735 0.5
158 1.70996 9.90681 8.85607 0.5
159 3.98952 2.10065 8.85436 0.5
160 9.62213 0.59087 11.0475 0.5
161 12.5076 2.57996 9.81489 0.5
162 6.66014 2.83722 7.90518 0.5
163 11.6597 9.86556 1.19393 0.5
164 9.74769 3.57829 10.9834 0.5
165 6.99475 11.3578 10.9055 0.5
166 10.8234 12.728 6.74256 0.5
167 11.4742 8.05317 7.97629 0.5
168 0.791552 2.90308 7.94579 0.5
169 10.3081 11.0053 12.7946 0.5
170 3.66456 6.61323 0.286498 0.5
171 10.7317 5.35781 1.08282 0.5
172 11.8437 7.83904 10.1223 0.5
173 8.93305 10.3077 2.08118 0.5
174 4.35362 0.949237 0.103415 0.5
175 2.48023 6.2272 4.22905 0.5
176 3.75005 5.69167 3.39763 0.5
177 8.46637 4.19968 6.31494 0.5
178 5.18038 2.78152 4.32953 0.5
179 12.7602 5.92804 1.65865 0.5
180 9.38935 2.72807 11.594 0.5
181 11.0553 11.4248 9.75967 0.5
182 3.1014 11.7814 1.43215 0.5
183 8.48639 6.88892 6.36668 0.5
184 10.6634 5.8613 8.9339 0.5
185 8.9028 13.4 11.0625 0.5
186 4.90975 8.35507 2.77692 0.5
187 4.95769 0.303834 13.0448 0.5
188 5.00594 5.86978 6.72074 0.5
189 0.72098 10.914 6.55522 0.5
190 9.34482 13.0209 3.536 0.5
191 9.46028 7.23986 3.33884 0.5
192 9.97543 1.06541 13.3081 0.5
193 11.2568 1.78723 9.16394 0.5
194 9.73795 13.215 10.5882 0.5
195 0.352921 10.2525 12.4711 0.5
196 8.95104 0.836074 4.36958 0.5
197 2.96534 6.82329 8.28519 0.5
198 6.00647 5.93506 12.5968 0.5
199 11.452 0.359362 8.19651 0.5
200 7.25882 6.77066 1.24416 0.5
201 0.205506 4.22338 7.15629 0.5
202 5.78988 13.1965 7.11925 0.5
203 1.4997 3.95405 1.32463 0.5
204 3.77293 8.15401 8.90015 0.5
205 12.6196 13.4622 3.46042 0.5
206 0.911129 1.2368 10.2247 0.5
207 4.47609 12.0317 8.66099 0.5
208 9.19741 3.82242 5.45165 0.5
209 5.14797 2.15586 3.5236 0.5
210 4.33207 6.42231 5.33483 0.5
211 4.44015 3.72386 10.4758 0.5
212 3.20663 5.51443 4.32007 0.5
213 3.14885 1.42325 6.49306 0.5
214 10.2696 4.25577 11.4258 0.5
215 8.19873 6.90541 1.30038 0.5
216 6.28823 8.34341 0.204607 0.5
217 4.37799 11.5485 4.41539 0.5
218 6.73969 7.97178 4.84845 0.5
219 9.40759 1.11265 3.35592 0.5
220 7.36265 2.40367 10.1006 0.5
221 3.19582 3.27081 6.16105 0.5
222 6.8738 11.1515 4.9871 0.5
223 4.93214 9.195 3.37173 0.5
224 13.0444 9.41937 3.91506 0.5
225 7.73539 12.1166 11.0218 0.5
226 10.8001 6.53738 13.4251 0.5
227 13.218 7.35472 9.90212 0.5
228 4.70403 11.6173 5.36576 0.5
229 5.61704 4.36926 6.37856 0.5
230 6.28993 9.34685 8.94988 0.5
231 8.12417 5.71694 9.27242 0.5
232 8.09922 4.5088 12.9403 0.5
233 1.33257 0.39336 9.89098 0.5
234 11.5298 2.01247 5.20328 0.5
235 1.68781 10.5647 3.35725 0.5
236 10.6248 6.29019 0.846643 0.5
237 5.40459 7.82105 6.54308 0.5
238 0.0445905 12.3947 5.97459 0.5
239 10.0065 8.03832 3.90587 0.5
240 1.33585 4.74159 13.1432 0.5
241 3.94064 5.76346 0.878448 0.5
242 2.55101 0.517784 2.59273 0.5
243 2.86289 9.64241 3.73951 0.5
244 3.73349 11.5459 5.95252 0.5
245 1.6134 11.4518 11.7873 0.5
246 9.89077 10.119 8.635 0.5
247 3.67157 0.650896 10.4555 0.5
248 7.25877 2.46835 2.83605 0.5
249 10.2337 2.07055 13.3617 0.5
250 9.47693 1.77796 0.305028 0.5
251 4.80144 9.79317 11.6059 0.5
252 8.42911 8.59569 12.7941 0.5
253 1.37362 8.073 1.56161 0.5
254 10.7702 2.88031 2.58393 0.5
255 8.52192 9.61364 2.47652 0.5
256 1.29103 12.7633 3.31129 0.5
257 0.933631 3.47098 7.13177 0.5
258 13.3492 7.05214 5.21586 0.5
259 4.91798 4.06678 9.67487 0.5
260 6.5948 11.5477 9.79808 0.5
261 11.4563 3.32502 6.1121 0.5
262 7.41592 11.991 5.24046 0.5
263 2.43091 3.89329 8.50754 0.5
264 10.3928 10.9011 9.15533 0.5
265 1.85004 4.19024 4.95112 0.5
266 3.79012 13.2377 6.01267 0.5
267 5.30061 7.47853 9.09795 0.5
268 6.87496 2.3663 1.96777 0.5
269 9.18575 0.244331 8.57247 0.5
270 6.89929 9.77838 8.20806 0.5
271 10.8323 11.6966 6.84767 0.5
272 6.26856 9.10335 0.79397 0.5
273 7.76988 4.74475 3.52101 0.5
274 10.0928 5.05089 9.13315 0.5
275 2.78523 10.8779 1.03534 0.5
276 4.12249 2.55594 0.271913 0.5
277 7.4046 5.23522 13.2005 0.5
278 11.473 10.5571 0.422436 0.5
279 9.09933 11.5848 6.01785 0.5
280 4.51842 12.3939 2.01617 0.5
281 6.54393 2.46229 10.5989 0.5
282 13.5334 11.4424 1.126 0.5
283 5.09589 5.67906 1.95332 0.5
284 1.90986 11.0553 0.464836 0.5
285 3.6195 9.71552 5.8824 0.5
286 2.1081 1.44414 12.3772 0.5
287 7.88039 7.26052 7.1603 0.5
288 5.86425 0.526596 6.5176 0.5
289 2.5411 10.5427 3.79831 0.5
290 1.03461 12.8394 5.87009 0.5
291 5.47835 0.702958 5.45233 0.5
292 4.14604 3.26333 13.0501 0.5
293 10.7011 5.77726 3.85784 0.5
294 2.82719 10.1089 6.34953 0.5
295 2.40094 0.986524 6.85763 0.5
296 13.3619 4.55462 6.31937 0.5
297 10.5043 10.5157 11.0442 0.5
298 9.78542 4.4962 12.2339 0.5
299 1.63589 0.857896 13.1008 0.5
300 9.59683 4.15377 1.34818 0.5
301 5.78867 7.21274 11.6632 0.5
302 3.14067 8.66907 3.79808 0.5
303 12.2612 9.1701 3.16858 0.5
304 0.512616 7.53239 5.72684 0.5
305 8.05358 12.7194 8.08053 0.5
306 11.3316 8.32519 1.43462 0.5
307 2.5302 6.85429 3.40454 0.5
308 0.0549292 10.0343 11.5407 0.5
309 13.1462 13.3064 12.566 0.5
310 8.97671 13.4781 4.36684 0.5
311 0.14107 6.20256 6.77198 0.5
312 7.5446 11.6165 10.1151 0.5
313 0.941338 10.179 3.87383 0.5
314 6.33496 12.0494 8.95631 0.5
315 12.3413 5.15748 2.07995 0.5
316 8.36886 6.10057 8.30415 0.5
317 0.0265476 8.5675 3.81987 0.5
318 0.290305 5.53222 6.02901 0.5
319 10.8281 11.4652 0.719021 0.5
320 5.73606 3.4183 6.75054 0.5
321 2.2261 12.4604 3.1995 0.5
322 9.87858 13.379 0.832915 0.5
323 3.35267 1.12057 2.37919 0.5
324 10.8366 3.56506 3.39612 0.5
325 1.67028 5.4006 0.285035 0.5
326 10.3257 12.9175 0.0517575 0.5
327 8.71593 3.0244 7.5003 0.5
328 12.1137 7.43374 13.0606 0.5
329 8.35442 2.39024 9.02914 0.5
330 8.31556 1.22288 4.92745 0.5
331 4.61214 2.7191 2.77654 0.5
332 11.9363 1.0486 8.77045 0.5
333 12.6743 1.75544 2.4513 0.5
334 4.3179 6.22467 1.80796 0.5
335 9.68679 0.439955 4.93808 0.5
336 4.89979 1.81239 8.54247 0.5
337 12.0643 1.32718 11.909 0.5
338 7.70729 5.64011 10.2031 0.5
339 9.9837 4.21276 2.32076 0.5
340 12.5589 3.7461 11.3214 0.5
341 8.45237 0.33195 9.21942 0.5
342 6.42327 0.469211 5.57829 0.5
343 7.16782 5.55045 9.37172 0.5
344 5.30138 6.72828 6.64934 0.5
345 9.03882 7.69575 5.92087 0.5
346 1.39361 6.96607 5.91766 0.5
347 12.9998 11.856 0.475282 0.5
348 1.30421 4.42715 0.433853 0.5
349 7.79144 6.32362 6.76726 0.5
350 8.59389 6.60166 11.5575 0.5
351 2.26237 9.5437 11.357 0.5
352 8.46245 12.4356 7.21816 0.5
353 8.52645 7.44887 0.445728 0.5
354 2.38332 2.78106 5.91638 0.5
355 1.85435 7.06572 4.03134 0.5
356 11.6542 13.4075 3.99927 0.5
357 6.61492 12.1489 3.69666 0.5
358 3.71203 1.41006 9.604 0.5
359 7.38017 9.33891 9.03407 0.5
360 12.469 4.77708 6.33887 0.5
361 3.43112 0.814961 7.2343 0.5
362 1.49516 1.25976 9.45275 0.5
363 10.3151 12.3454 0.875653 0.5
364 2.89026 7.51094 1.55335 0.5
365 2.0662 7.57323 1.03074 0.5
366 6.76775 8.73101 8.38888 0.5
367 10.2113 11.8165 13.5413 0.5
368 5.74042 4.49378 9.22672 0.5
369 1.92505 3.26204 5.0247 0.5
370 0.387807 10.2804 5.9229 0.5
371 9.77042 0.328846 3.93103 0.5
372 0.270993 4.81439 3.61802 0.5
373 4.55156 2.30389 12.873 0.5
374 0.754536 9.27625 12.9136 0.5
375 0.852271 9.74052 8.358 0.5
376 1.72964 10.7115 4.32342 0.5
377 7.5095 5.5457 4.03588 0.5
378 5.92906 9.18884 13.3935 0.5
379 4.86499 5.87123 1.04947 0.5
380 7.72141 4.48409 0.328521 0.5
381 9.87496 3.46306 8.47925 0.5
382 9.7174 3.1197 7.61287 0.5
383 2.24781 4.64368 13.5241 0.5
384 5.41087 10.0798 13.1707 0.5
385 12.7287 11.0655 1.084 0.5
386 0.154968 3.96423 4.22279 0.5
387 2.59115 6.94175 11.2828 0.5
388 1.40627 2.02234 10.1423 0.5
389 4.78625 9.89767 10.624 0.5
390 5.27338 4.10137 10.5491 0.5
391 6.96398 0.656788 1.88043 0.5
392 13.0309 4.7729 2.8615 0.5
393 3.23859 4.26187 8.92616 0.5
394 9.35284 9.30993 8.3674 0.5
395 1.40722 0.415824 8.92052 0.5
396 13.4011 2.36803 2.13092 0.5
397 7.36617 1.68307 1.56115 0.5
398 9.15307 12.2646 2.9659 0.5
399 1.08367 4.52815 4.20368 0.5
400 7.42524 8.68033 4.93545 0.5
401 9.3013 2.64601 13.2197 0.5
402 4.96955 7.208 5.82296 0.5
403 6.66341 12.7085 7.18169 0.5
404 11.2205 11.0638 12.3899 0.5
405 12.3356 5.88362 0.119885 0.5
406 6.80523 3.26447 1.39224 0.5
407 2.08029 11.3886 3.58647 0.5
408 2.49819 3.77812 5.60179 0.5
409 3.51036 4.27225 10.6495 0.5
410 11.32 2.75164 3.63852 0.5
411 4.51006 6.07494 0.044289 0.5
412 5.37763 0.89542 0.274806 0.5
413 3.65435 6.16208 8.40222 0.5
414 3.05886 8.90108 11.5431 0.5
415 8.23179 10.4017 11.8576 0.5
416 8.59992 10.8537 5.56233 0.5
417 0.783499 13.2122 9.23222 0.5
418 9.50686 1.26429 10.2901 0.5
419 3.15479 13.2846 10.6414 0.5
420 3.61884 13.3966 6.96542 0.5
421 13.2129 5.50365 9.46717 0.5
422 8.51662 4.67121 5.37296 0.5
423 12.3418 0.134054 2.56064 0.5
424 2.90223 2.97795 5.08383 0.5
425 8.48947 8.55351 11.1989 0.5
426 0.661188 13.1991 7.57582 0.5
427 7.58949 2.53862 1.24694 0.5
428 0.856961 8.56068 9.63607 0.5
429 11.1222 5.68935 8.12559 0.5
430 9.80894 13.1998 11.5033 0.5
431 2.44811 4.8544 8.4792 0.5
432 12.5254 2.50311 1.73125 0.5
433 7.57058 11.3167 0.0803219 0.5
434 13.5384 3.33011 13.0671 0.5
435 11.1798 9.28622 1.63063 0.5
436 6.87082 5.04107 10.2417 0.5
437 4.35312 9.17264 6.31749 0.5
438 5.97598 3.53187 7.71312 0.5
439 11.3618 10.7134 10.5055 0.5
440 9.47297 10.6074 6.22782 0.5
441 6.14375 1.33045 5.87845 0.5
442 1.69683 7.25008 6.94008 0.5
443 0.751799 12.1391 1.23238 0.5
444 9.15768 9.09093 13.1199 0.5
445 5.00327 8.2874 3.78095 0.5
446 3.31962 6.30184 4.89639 0.5
447 2.32123 9.24462 6.79861 0.5
448 5.39452 9.70697 0.658667 0.5
449 3.77396 12.6101 11.0799 0.5
450 2.56097 2.23446 1.50316 0.5
451 7.69552 3.60574 0.988783 0.5
452 1.78764 8.43932 0.666231 0.5
453 5.25875 9.23772 2.49211 0.5
454 2.84132 13.3149 3.1275 0.5
455 1.61356 2.09644 11.9016 0.5
456 8.21507 0.159735 8.29808 0.5
457 12.3049 11.4333 8.80116 0.5
458 4.39249 0.586277 9.82188 0.5
459 13.1008 2.22905 5.65289 0.5
460 12.8475 6.83939 13.4949 0.5
461 11.462 8.76693 11.4982 0.5
462 9.89166 4.08285 7.55387 0.5
463 6.75633 3.3403 7.08567 0.5
464 0.169296 8.1138 10.2947 0.5
465 5.44363 10.3454 12.2381 0.5
466 2.92258 12.9843 6.56005 0.5
467 1.12915 7.79048 0.58379 0.5
468 0.110448 8.00548 9.34494 0.5
469 2.13897 3.02757 11.3458 0.5
470 1.68721 6.73091 11.5128 0.5
471 4.41108 1.42356 10.4649 0.5
472 10.8648 6.73997 3.93806 0.5
473 11.4108 8.38279 6.97966 0.5
474 3.2852 7.61165 9.39794 0.5
475 6.4046 3.82231 6.17579 0.5
476 6.52403 0.84519 11.1163 0.5
477 5.96348 7.89106 9.79129 0.5
478 3.32107 12.3524 0.586956 0.5
479 8.43543 7.59922 12.9131 0.5
480 4.29767 10.3215 8.65917 0.5
481 2.13061 3.78203 0.542778 0.5
482 10.8612 13.1468 0.82929 0.5
483 8.85598 11.2803 2.55179 0.5
484 9.98834 7.11894 4.25564 0.5
485 4.2848 5.45808 2.58247 0.5
486 3.88153 11.2338 8.71749 0.5
487 4.58219 2.64967 8.23459 0.5
488 5.62554 5.12942 7.00223 0.5
489 3.3184 0.603777 3.21614 0.5
490 0.533408 12.6804 8.45073 0.5
491 2.2434 7.52383 12.0536 0.5
492 1.25112 5.16005 12.0839 0.5
493 12.0285 8.72791 10.509 0.5
494 6.81776 4.91058 0.415022 0.5
495 6.66096 7.5252 0.657442 0.5
496 6.63224 0.0758973 13.2249 0.5
497 4.76188 4.90361 6.7241 0.5
498 3.76486 11.9286 5.04375 0.5
499 6.53274 1.73135 11.3885 0.5
500 10.0515 9.73872 6.26221 0.5
501 4.77802 1.87181 4.46157 0.5
502 9.42721 10.577 9.38086 0.5
503 7.10623 5.70835 12.4191 0.5
504 2.09426 1.73982 13.3461 0.5
505 4.25263 2.91995 12.1007 0.5
506 3.80387 11.0276 1.35142 0.5
507 7.7688 3.83851 4.00973 0.5
508 0.304834 1.33337 5.39513 0.5
509 5.31053 5.22284 5.98594 0.5
510 7.24668 10.6743 11.4662 0.5
511 6.77488 0.814047 6.40655 0.5
512 9.42664 11.2539 3.36062 0.5
513 4.13892 4.49251 2.5466 0.5
514 5.98176 8.17002 1.12189 0.5
515 2.30087 9.89811 2.98169 0.5
516 5.74451 8.75544 3.15891 0.5
517 0.988781 3.60388 4.63199 0.5
518 2.44756 7.20759 8.93933 0.5
519 5.0562 7.45966 10.1558 0.5
520 2.16799 0.852236 0.294291 0.5
521 11.2271 6.08975 4.66695 0.5
522 2.69108 9.22631 12.2812 0.5
523 13.1313 7.7649 3.52269 0.5
524 0.758188 0.532016 5.13147 0.5
525 11.4037 9.00695 0.695171 0.5
526 8.80741 12.0868 8.24096 0.5
527 7.32609 10.8394 1.85654 0.5
528 1.29518 0.243405 0.0999368 0.5
529 13.5391 12.5648 0.837127 0.5
530 11.8673 2.63202 9.03092 0.5
531 11.1089 8.33907 10.6346 0.5
532 6.50037 8.94795 4.56781 0.5
533 5.96547 7.63642 10.7615 0.5
534 2.99088 12.9217 11.602 0.5
535 8.01124 12.7314 12.7374 0.5
536 1.51758 12.1899 3.98485 0.5
537 2.93221 11.2892 9.06074 0.5
538 8.038 10.0411 1.61744 0.5
539 2.21564 7.85183 3.51909 0.5
540 0.632638 3.85866 7.9702 0.5
541 3.67666 11.7552 2.21274 0.5
542 7.55083 0.173376 12.8137 0.5
543 13.0556 6.21021 5.83689 0.5
544 8.32875 2.30076 8.01192 0.5
545 1.58775 7.18633 3.09545 0.5
546 0.660234 0.885736 13.2249 0.5
547 10.5013 5.21999 4.68549 0.5
548 11.8471 12.926 6.95947 0.5
549 12.1231 10.5146 8.99608 0.5
550 12.6514 12.5535 2.91199 0.5
551 6.46035 1.47805 1.78209 0.5
552 3.66155 7.54057 0.982379 0.5
553 10.4621 6.35227 8.00285 0.5
554 3.72586 12.3899 6.63985 0.5
555 0.917352 3.66987 3.65438 0.5
556 6.85285 12.9694 12.5638 0.5
557 6.97112 11.3081 0.973362 0.5
558 4.66484 1.5268 9.46641 0.5
559 3.25438 10.4491 8.60631 0.5
560 6.6601 2.75059 11.4319 0.5
561 7.91448 8.80188 12.0099 0.5
562 12.794 2.72536 12.8063 0.5
563 8.60411 6.62404 7.42803 0.5
564 6.53025 5.09131 13.0154 0.5
565 9.384 4.79841 5.89565 0.5
566 7.01444 1.54624 10.4323 0.5
567 12.9126 4.4383 3.87525 0.5
568 7.34875 1.23535 11.4393 0.5
569 11.3521 7.08587 11.5456 0.5
570 13.1131 7.94048 2.52201 0.5
571 2.28131 0.497263 3.57999 0.5
572 4.20954 3.48462 0.352423 0.5
573 0.368373 13.3485 6.50285 0.5
574 9.06648 8.30799 3.56889 0.5
575 9.01204 13.2342 2.56431 0.5
576 3.8325 10.7436 7.84443 0.5
577 4.28623 9.13355 2.58327 0.5
578 1.97869 11.6105 1.2495 0.5
579 12.9762 10.0784 12.4042 0.5
580 2.73537 5.3181 7.77036 0.5
581 1.38108 13.1033 8.36045 0.5
582 2.66955 12.4636 10.7321 0.5
583 2.74921 10.9154 0.0417497 0.5
584 10.2721 6.20064 4.62094 0.5
585 13.0128 5.52408 6.65959 0.5
586 0.523894 5.93602 9.8399 0.5
587 12.5088 3.09282 0.895743 0.5
588 13.4167 12.5919 13.4421 0.5
589 13.5194 9.7428 8.84157 0.5
590 3.86924 11.767 7.84153 0.5
591 3.50518 3.48747 12.2269 0.5
592 10.723 11.4544 10.7804 0.5
593 6.89302 9.30717 7.43946 0.5
594 13.3588 10.7286 6.62005 0.5
595 13.1805 9.73125 6.32198 0.5
596 9.53854 9.70177 2.6619 0.5
597 2.56209 10.3798 9.28121 0.5
598 7.62264 11.0412 5.71271 0.5
599 11.4215 11.2149 8.92364 0.5
600 12.3566 6.45375 12.7403 0.5
601 2.71295 5.79288 3.39677 0.5
602 0.387883 6.78343 10.3745 0.5
603 2.80365 7.9015 11.2765 0.5
604 5.31062 1.05135 10.1596 0.5
605 7.25098 2.03247 11.9599 0.5
606 11.1454 9.09634 5.1717 0.5
607 8.90102 10.2231 8.55283 0.5
608 8.26429 12.7226 11.7431 0.5
609 1.46376 12.0676 0.524926 0.5
610 1.38056 8.92635 8.73878 0.5
611 0.416402 8.87803 8.69954 0.5
612 5.73336 13.4493 2.99914 0.5
613 3.74381 5.52271 5.25824 0.5
614 4.14196 13.2874 10.3505 0.5
615 3.60993 10.5763 9.50352 0.5
616 0.0140301 6.26528 2.20127 0.5
617 6.78766 5.7592 2.55139 0.5
618 11.8785 7.2287 8.02691 0.5
619 12.6611 4.53771 11.9829 0.5
620 0.904225 10.6342 11.6778 0.5
621 2.60861 3.812 4.6139 0.5
622 5.77942 8.4323 8.93824 0.5
623 13.184 7.88895 4.58269 0.5
624 12.7757 5.86281 2.65049 0.5
625 1.30354 3.64299 11.0952 0.5
626 2.40115 3.9478 1.53242 0.5
627 9.88382 6.49368 0.268781 0.5
628 12.6564 5.10541 10.2288 0.5
629 4.99605 4.17759 3.21347 0.5
630 2.83179 3.17565 1.03183 0.5
631 9.00031 0.953259 13.4963 0.5
632 6.37997 12.6882 13.3809 0.5
633 9.70898 0.825195 0.626296 0.5
634 10.3045 10.7982 10.0793 0.5
635 9.46701 1.73624 12.7924 0.5
636 9.76936 3.53551 12.0288 0.5
637 0.420591 10.022 6.91994 0.5
638 5.2595 1.06019 4.55036 0.5
639 9.05758 6.74664 10.624 0.5
640 2.20517 4.36635 7.63648 0.5
641 7.47427 7.14427 6.29691 0.5
642 11.3309 5.78076 0.23979 0.5
643 11.0918 0.823449 7.37258 0.5
644 7.18848 3.2563 10.7527 0.5
645 0.0501191 11.2806 5.75766 0.5
646 9.02266 8.84154 12.0044 0.5
647 8.88835 4.86535 12.2145 0.5
648 7.6222 9.75153 11.8606 0.5
649 5.01168 7.66669 11.1682 0.5
650 2.6876 0.0963788 7.16944 0.5
651 1.09586 6.10629 6.32898 0.5
652 5.33952 4.25189 7.30735 0.5
653 0.0819976 5.56393 2.97531 0.5
654 4.08465 10.4204 11.2405 0.5
655 11.906 11.9828 9.62359 0.5
656 1.01911 11.2922 1.04059 0.5
657 11.1878 0.114457 6.61745 0.5
658 9.43771 10.1402 5.43504 0.5
659 1.39859 9.59531 3.10889 0.5
660 0.581928 0.733031 9.3318 0.5
661 3.07659 7.80093 8.44759 0.5
662 3.99334 10.9722 5.25345 0.5
663 5.74979 12.6801 3.63008 0.5
664 5.27682 6.16115 5.75132 0.5
665 10.4379 11.1264 3.18929 0.5
666 5.3185 12.4454 9.19977 0.5
667 10.4239 4.33114 8.47474 0.5
668 5.13523 3.25059 3.32395 0.5
669 8.02012 10.6098 2.54847 0.5
670 8.99704 13.0207 7.93448 0.5
671 6.87382 8.37631 0.967974 0.5
672 3.20571 2.23672 5.79667 0.5
673 5.34723 8.73829 0.536526 0.5
674 3.06849 8.18411 12.2388 0.5
675 2.91623 3.78178 11.389 0.5
676 1.88007 13.3879 2.94487 0.5
677 3.90302 9.43288 3.6078 0.5
678 12.7001 7.97955 10.7096 0.5
679 10.8361 12.0895 5.94957 0.5
680 4.50246 11.439 1.89415 0.5
681 4.15485 1.0522 8.79822 0.5
682 1.86097 2.92784 10.4108 0.5
683 1.70486 5.83144 11.2114 0.5
684 11.7648 13.0185 3.10497 0.5
685 12.3541 12.7107 3.97375 0.5
686 10.7787 7.94766 11.4071 0.5
687 4.86322 9.25533 13.4483 0.5
688 1.22684 7.90688 6.33153 0.5
689 2.62907 3.02299 1.98077 0.5
690 4.79758 8.51322 6.96845 0.5
691 13.3697 10.9095 11.8837 0.5
692 4.79309 0.204844 0.447384 0.5
693 11.7736 6.26523 11.9443 0.5
694 5.91313 8.91915 9.78428 0.5
695 12.2713 8.21425 2.97687 0.5
696 10.6983 3.52242 7.98551 0.5
697 13.534 9.50696 7.82018 0.5
698 6.34443 10.7652 6.53089 0.5
699 2.82681 8.19239 0.758218 0.5
700 12.6633 8.46132 3.85257 0.5
701 9.31292 8.14511 12.7054 0.5
702 4.09868 1.72135 7.94003 0.5
703 2.06221 5.25565 12.8029 0.5
704 9.13761 2.81382 8.34156 0.5
705 10.8098 7.32261 7.96475 0.5
706 6.888 10.4395 5.77639 0.5
707 3.92567 4.12215 9.67084 0.5
708 12.6525 2.13957 0.735008 0.5
709 9.53388 0.0882666 13.4886 0.5
710 6.78238 6.10277 3.49415 0.5
711 0.325177 13.4643 13.253 0.5
712 12.7676 2.46811 8.69772 0.5
713 8.48492 9.62142 7.79784 0.5
714 12.9441 4.75916 7.22305 0.5
715 13.115 8.78137 3.07677 0.5
716 2.11732 2.10896 10.9506 0.5
717 2.9025 7.15195 0.571587 0.5
718 11.9958 0.242723 7.29864 0.5
719 4.51647 10.7139 12.0405 0.5
720 12.6845 11.5737 2.83559 0.5
721 11.132 6.69047 8.52492 0.5
722 5.84658 13.2858 12.7359 0.5
723 3.32992 12.0996 8.69038 0.5
724 9.30984 13.4476 9.55419 0.5
725 2.30671 1.70526 6.0895 0.5
726 7.45013 2.64416 8.52668 0.5
727 4.99152 2.9881 0.0256935 0.5
728 12.4709 2.2526 4.88851 0.5
729 9.92992 4.86817 0.780866 0.5
730 8.13976 5.63769 7.36644 0.5
731 10.4867 0.345838 0.188994 0.5
732 1.00844 3.42787 8.72888 0.5
733 7.92315 11.6385 0.888446 0.5
734 10.1366 11.3212 6.08507 0.5
735 3.41194 5.11102 8.44372 0.5
736 4.43779 4.22147 11.2307 0.5
737 4.2254 3.59721 3.20494 0.5
738 1.84723 7.70359 11.2294 0.5
739 6.54654 0.172068 7.27332 0.5
740 11.8222 13.0166 7.96851 0.5
741 7.63942 4.21746 5.01405 0.5
742 5.53788 9.02807 1.52128 0.5
743 7.37491 8.0112 5.66318 0.5
744 5.03656 3.19873 12.5938 0.5
745 6.47358 6.51616 11.945 0.5
746 5.07978 8.33231 9.54228 0.5
747 13.2258 0.147349 11.5637 0.5
748 7.72122 9.12524 8.10413 0.5
749 6.55257 9.14374 3.63629 0.5
750 1.29089 1.35115 0.305883 0.5
751 0.157205 8.57318 12.8849 0.5
752 1.22898 1.71153 12.8668 0.5
753 6.56535 2.29972 1.02495 0.5
754 2.21561 12.3607 11.6209 0.5
755 6.84855 3.95414 0.601577 0.5
756 6.70251 7.58053 1.60463 0.5
757 12.1524 7.29801 12.0532 0.5
758 4.50208 12.4819 4.86718 0.5
759 12.6424 8.86829 2.28227 0.5
760 7.0767 4.58669 4.28341 0.5
761 3.48832 11.4366 0.526581 0.5
762 13.1389 2.90466 0.262568 0.5
763 11.8053 0.473815 3.33767 0.5
764 8.84628 9.35618 3.32378 0.5
765 12.1391 2.74573 0.0290941 0.5
766 7.79845 3.1625 4.75002 0.5
767 3.49515 6.65066 1.27548 0.5
768 12.6408 13.3245 10.848 0.5
769 11.4707 2.37394 6.24712 0.5
770 10.7128 8.051 6.5032 0.5
771 8.09981 7.88008 6.35166 0.5
772 1.12705 1.65963 11.0821 0.5
773 8.97874 3.79 8.00659 0.5
774 9.7402 0.242233 2.91234 0.5
775 10.5415 0.179686 11.035 0.5
776 3.34114 9.19298 6.69717 0.5
777 11.2561 12.4277 3.93412 0.5
778 11.9933 12.0768 3.392 0.5
779 8.10681 7.31786 5.54395 0.5
780 3.04386 11.2664 8.14459 0.5
781 13.1615 1.24708 6.00652 0.5
782 10.8119 3.31486 4.38432 0.5
783 13.5488 9.30141 12.1773 0.5
784 2.25668 2.17732 5.21375 0.5
785 10.2648 9.62436 5.2426 0.5
786 8.58113 3.79804 4.69481 0.5
787 6.08901 12.5003 2.69851 0.5
788 11.7433 7.86847 11.1594 0.5
789 9.34848 3.53023 2.08339 0.5
790 8.95881 0.670121 2.55443 0.5
791 4.87758 6.99114 11.8594 0.5
792 5.9136 2.58656 7.2472 0.5
793 7.12952 8.34232 3.98012 0.5
794 12.6967 0.843837 3.07899 0.5
795 7.65205 7.69255 4.75965 0.5
796 4.85834 11.1467 9.06938 0.5
797 3.84627 3.52908 11.3695 0.5
798 2.31929 2.83134 4.24486 0.5
799 13.2901 0.636634 5.27475 0.5
800 0.107109 8.12905 0.193157 0.5
801 7.63594 5.69505 2.99899 0.5
802 4.89984 10.8703 12.947 0.5
803 11.2855 10.9917 11.4175 0.5
804 0.258524 6.08984 8.89528 0.5
805 9.11697 8.80355 2.64009 0.5
806 3.86419 7.13734 8.72647 0.5
807 3.13879 4.37512 7.9189 0.5
808 2.08608 8.97609 3.65059 0.5
809 9.60788 5.10991 11.5156 0.5
810 3.08494 11.939 11.4092 0.5
811 10.3864 7.32321 3.26808 0.5
812 2.15463 8.567 11.7851 0.5
813 7.9834 5.23179 12.3517 0.5
814 9.4433 0.609341 5.93757 0.5
815 11.5704 12.1346 8.52065 0.5
816 9.33284 7.27604 13.3692 0.5
817 12.3768 11.1397 3.66214 0.5
818 3.59414 10.4743 0.478049 0.5
819 6.53581 13.2762 6.37135 0.5
820 0.20983 12.4078 9.36949 0.5
821 11.1525 2.86011 5.33063 0.5
822 9.2186 1.27393 5.29257 0.5
823 10.0267 0.466782 10.1308 0.5
824 1.95035 8.64505 6.08459 0.5
825 8.0316 1.13282 2.11747 0.5
826 7.3902 13.3912 7.67012 0.5
827 10.5575 0.511615 1.18854 0.5
828 4.80878 3.72916 2.41976 0.5
829 5.0485 2.0428 7.55914 0.5
830 5.4755 11.7187 8.56929 0.5
831 11.0193 13.3119 7.49985 0.5
832 0.84983 5.7841 10.7165 0.5
833 2.15444 11.5236 11.1004 0.5
834 8.67457 1.82144 13.1706 0.5
835 0.895621 6.06645 11.7102 0.5
836 7.73071 9.08921 10.9958 0.5
837 7.11616 3.03555 0.405072 0.5
838 12.399 13.266 11.8683 0.5
839 4.41601 5.15626 1.69061 0.5
840 7.33641 12.9503 13.4277 0.5
841 7.30042 10.6869 6.66393 0.5
842 12.8666 3.55553 10.2243 0.5
843 12.3591 2.93417 11.8776 0.5
844 4.74411 3.96544 13.196 0.5
845 9.65799 5.55707 5.21116 0.5
846 5.94756 12.368 9.94057 0.5
847 4.56576 7.51348 6.78404 0.5
848 4.93398 6.17949 12.6207 0.5
849 0.763097 12.4315 6.76348 0.5
850 10.686 10.4212 12.0193 0.5
851 6.80448 9.86291 6.59053 0.5
852 7.61066 10.0222 7.49088 0.5
853 4.40282 7.51074 9.42616 0.5
854 10.0305 6.3837 3.57584 0.5
855 9.70434 10.6319 2.68252 0.5
856 2.09699 13.057 3.86835 0.5
857 10.5343 5.18864 10.928 0.5
858 7.89697 9.99409 8.47039 0.5
859 11.3028 5.21199 5.18123 0.5
860 10.3743 4.87806 5.61861 0.5
861 11.4367 12.8959 6.05439 0.5
862 11.0688 7.30647 10.6415 0.5
863 8.28921 8.2558 5.36055 0.5
864 8.14195 7.07674 8.23449 0.5
865 11.8378 3.86915 11.9346 0.5
866 5.48459 12.9487 2.05577 0.5
867 12.1386 4.20691 12.8324 0.5
868 9.24204 9.61328 9.36342 0.5
869 4.07984 0.0788754 13.3538 0.5
870 3.80662 8.25469 6.69255 0.5
871 13.0339 8.87222 4.73854 0.5
872 1.10957 5.70787 12.9618 0.5
873 12.7939 0.823777 2.09828 0.5
874 7.24885 4.58162 12.3284 0.5
875 7.32788 11.7452 4.23503 0.5
876 2.7169 5.8991 8.60494 0.5
877 10.606 8.20344 7.49374 0.5
878 2.58735 11.7501 0.544133 0.5
879 1.64936 3.49578 7.96326 0.5
880 11.8966 1.16121 2.56081 0.5
881 11.0173 10.2884 13.1042 0.5
882 1.89576 9.85742 3.94146 0.5
883 11.1113 12.2618 0.167175 0.5
884 12.6563 3.63139 13.4425 0.5
885 8.04312 11.1038 10.9443 0.5
886 13.5629 3.28969 7.45496 0.5
887 0.205052 0.434283 12.4094 0.5
888 5.10429 4.8032 2.38018 0.5
889 11.0489 4.97391 8.79445 0.5
890 11.4207 8.77859 6.15245 0.5
891 1.81226 6.23087 3.48055 0.5
892 9.35421 0.83684 9.39981 0.5
893 9.44818 4.55528 8.38537 0.5
894 7.56722 7.70311 1.14093 0.5
895 12.1401 8.90111 1.38378 0.5
896 7.13735 12.2397 0.489225 0.5
897 6.68512 13.1052 3.23363 0.5
898 5.09679 12.6821 2.90068 0.5
899 10.205 5.2841 8.26574 0.5
900 11.9616 11.0727 9.74769 0.5
901 13.3256 5.95689 10.4286 0.5
902 11.3721 6.53944 7.58406 0.5
903 9.86218 8.90111 3.27641 0.5
904 8.12699 3.62232 5.51434 0.5
905 13.2858 7.06585 6.25097 0.5
906 12.9046 5.31221 3.58093 0.5
907 7.06001 4.08793 10.2237 0.5
908 8.7993 0.376843 5.21002 0.5
909 10.0405 3.30461 2.84751 0.5
910 7.65633 3.02729 7.65554 0.5
911 5.69217 6.81943 12.5076 0.5
912 8.49533 9.46315 11.4047 0.5
913 11.5157 5.94391 12.8489 0.5
914 4.98045 13.0022 13.4141 0.5
915 7.9775 2.2644 4.90109 0.5
916 10.5842 9.03761 6.84957 0.5
917 11.7332 0.361193 12.0935 0.5
918 7.51226 6.33497 8.76781 0.5
919 12.8095 12.0365 1.45105 0.5
920 0.536938 11.8263 10.57 0.5
921 5.70823 6.11885 7.45685 0.5
922 12.115 2.89692 10.8285 0.5
923 13.5025 3.10635 8.52057 0.5
924 11.7453 11.6535 10.5636 0.5
925 10.9239 3.87641 2.37658 0.5
926 4.58701 10.1695 0.178834 0.5
927 2.19808 7.61087 6.1904 0.5
928 0.456387 6.48213 5.80853 0.5
929 1.20941 2.59988 11.0695 0.5
930 10.192 9.96599 9.57567 0.5
931 5.26201 9.33892 12.4814 0.5
932 4.09794 8.54383 3.33395 0.5