ITEM: TIMESTEP
870000
ITEM: NUMBER OF ATOMS
1000
ITEM: BOX BOUNDS xy xz yz pp pp pp
0.0000000000000000e+00 1.3572088000000001e+01 0.0000000000000000e+00
0.0000000000000000e+00 1.3572088000000001e+01 0.0000000000000000e+00
0.0000000000000000e+00 1.3572088000000001e+01 0.0000000000000000e+00
ITEM: ATOMS id x y z radius
1 4.24686 3.3714 12.2307 0.5
2 4.4182 11.7382 4.46387 0.5
3 9.43509 10.3011 2.97907 0.5
4 10.2337 5.58106 1.166 0.5
5 9.14065 7.75471 9.88568 0.5
6 3.86744 13.0798 6.03432 0.5
7 3.13452 8.44445 0.538955 0.5
8 12.2602 11.699 2.18107 0.5
9 2.24625 8.3498 6.75366 0.5
10 3.47215 0.209018 11.4847 0.5
11 0.143205 8.98407 9.30097 0.5
12 10.1297 5.68027 0.227501 0.5
13 7.32385 11.1522 4.02157 0.5
14 10.7199 2.55666 4.11603 0.5
15 6.29077 0.614813 4.93302 0.5
16 7.46758 6.77861 9.17658 0.5
17 6.56376 11.6531 10.7937 0.5
18 3.11973 8.60244 6.40557 0.5
19 10.7352 4.61442 1.35559 0.5
20 10.8671 12.2943 3.6033 0.5
21 2.05693 5.01522 1.02167 0.5
22 1.19641 6.37878 11.9365 0.5
23 1.53785 1.83084 9.75242 0.5
24 7.28896 7.60817 2.20616 0.5
25 0.489464 6.16321 2.4839 0.5
26 10.8179 10.622 5.98241 0.5
27 11.5971 6.01823 10.9235 0.5
28 4.8723 11.4311 12.4239 0.5
29 12.7973 5.76415 1.29132 0.5
30 8.63306 10.7948 1.65073 0.5
31 0.984387 0.148088 7.98467 0.5
32 9.09932 2.95645 12.2777 0.5
33 13.3074 5.85242 9.23191 0.5
34 3.95045 9.08888 6.0591 0.5
35 12.11 6.3209 13.3985 0.5
36 8.76581 2.22343 4.91609 0.5
37 0.259967 0.864581 2.33348 0.5
38 2.36764 1.27573 2.28778 0.5
39 9.99313 3.9385 1.13451 0.5
40 5.87172 5.73023 5.71107 0.5
41 7.00451 11.2146 4.94216 0.5
42 7.26516 5.2178 2.97207 0.5
43 5.81955 5.10182 10.4424 0.5
44 4.56159 11.0715 8.7517 0.5
45 7.38041 6.65994 2.11148 0.5
46 10.2208 10.8073 13.4966 0.5
47 3.08237 9.5645 5.7825 0.5
48 8.01024 10.3947 1.01995 0.5
49 6.38721 11.9656 9.84841 0.5
50 5.12913 0.496383 10.9068 0.5
51 13.3439 9.76141 7.53747 0.5
52 6.4158 10.4735 7.42514 0.5
53 9.28067 3.87954 1.82744 0.5
54 11.7406 11.7008 3.68668 0.5
55 0.409367 0.410012 4.56709 0.5
56 13.3275 3.06515 3.64459 0.5
57 0.136577 10.4587 11.9634 0.5
58 5.81696 8.63493 10.8556 0.5
59 1.3685 10.9567 10.9797 0.5
60 6.96036 5.16507 9.05315 0.5
61 4.22547 0.741162 11.2216 0.5
62 1.26835 7.78425 0.701827 0.5
63 11.5579 8.47794 1.74916 0.5
64 11.7558 2.01091 9.66778 0.5
65 0.605755 1.67694 5.72793 0.5
66 12.3196 1.27806 1.70563 0.5
67 8.12439 2.40301 8.7774 0.5
68 2.59691 1.03381 3.18418 0.5
69 11.0778 2.67437 10.1646 0.5
70 12.557 3.41391 10.0802 0.5
71 3.66103 6.05285 8.2879 0.5
72 7.23946 2.29526 11.2506 0.5
73 8.29821 6.73604 8.70324 0.5
74 6.18136 4.66996 9.52774 0.5
75 8.90173 0.234349 10.6329 0.5
76 12.2025 3.49579 13.1331 0.5
77 10.1387 3.06798 3.53087 0.5
78 8.85337 3.12723 5.46311 0.5
79 4.47062 12.3309 6.07795 0.5
80 4.72528 2.02422 8.70595 0.5
81 1.66826 3.48548 11.6517 0.5
82 1.39442 8.7867 0.159254 0.5
83 3.68622 0.578367 6.34572 0.5
84 13.5889 8.39149 8.41968 0.5
85 13.5224 4.30034 6.42367 0.5
86 2.45898 1.64911 13.1701 0.5
87 4.27854 6.06851 5.85113 0.5
88 7.06539 6.14516 3.71056 0.5
89 12.0411 12.7505 7.5145 0.5
90 3.31752 5.34203 4.48871 0.5
91 11.8831 6.83604 11.5221 0.5
92 13.3754 1.41169 1.57671 0.5
93 12.8937 0.726732 12.0868 0.5
94 4.74393 10.6967 13.1064 0.5
95 11.9639 1.60869 8.08618 0.5
96 11.6331 2.56667 4.25798 0.5
97 11.9383 2.95811 5.22208 0.5
98 10.5486 9.79534 0.00466292 0.5
99 6.75354 8.60875 9.40879 0.5
100 0.79239 7.51444 6.37873 0.5
101 4.13464 11.725 2.64627 0.5
102 9.06429 6.84202 9.35752 0.5
103 4.43598 4.69848 11.0295 0.5
104 7.58805 11.1858 5.6536 0.5
105 11.874 12.5441 6.54232 0.5
106 5.85608 1.18103 11.0199 0.5
107 13.1868 5.86066 6.04886 0.5
108 13.2754 10.6187 5.75457 0.5
109 1.20563 12.3855 8.94637 0.5
110 8.36823 9.27423 8.65795 0.5
111 8.30677 0.162969 3.26205 0.5
112 5.63673 0.662793 5.78198 0.5
113 0.730295 0.101902 6.18384 0.5
114 7.41501 6.88804 3.06186 0.5
115 5.7271 6.34031 11.8347 0.5
116 12.6128 5.30972 2.22284 0.5
117 0.059371 0.898306 6.19039 0.5
118 11.6282 10.0041 5.53159 0.5
119 12.426 8.14024 1.36851 0.5
120 5.28185 9.33953 4.10189 0.5
121 11.8715 13.5551 10.3603 0.5
122 1.79303 3.68693 2.12708 0.5
123 11.8702 2.29459 8.75981 0.5
124 10.4914 11.2782 11.5073 0.5
125 4.5269 12.1568 3.61456 0.5
126 11.0337 11.3463 13.3047 0.5
127 8.61466 10.283 11.2812 0.5
128 6.67643 3.32578 7.6265 0.5
129 2.19734 6.41464 12.2159 0.5
130 13.467 11.4061 11.5535 0.5
131 7.90051 2.43762 1.91982 0.5
132 5.15227 11.5493 2.98071 0.5
133 0.437683 10.7292 11.0201 0.5
134 11.4351 12.0302 2.76022 0.5
135 12.3037 2.14296 5.75131 0.5
136 7.46486 4.9004 4.58081 0.5
137 3.84377 12.5071 6.85595 0.5
138 7.5378 12.0308 13.3264 0.5
139 5.1883 13.3532 0.621956 0.5
140 5.40337 3.60975 3.77188 0.5
141 1.68201 3.29335 3.88273 0.5
142 9.72751 3.56113 12.0984 0.5
143 13.2589 11.9329 13.4853 0.5
144 9.27219 12.8081 8.95717 0.5
145 6.5621 7.01372 2.39692 0.5
146 10.0599 8.82726 8.51057 0.5
147 3.86928 5.9387 0.582464 0.5
148 12.3767 0.45593 11.194 0.5
149 8.26866 7.28338 9.62495 0.5
150 12.6643 11.5237 3.7641 0.5
151 7.05635 12.3676 10.4044 0.5
152 3.84921 4.02299 11.4967 0.5
153 11.5971 7.67468 7.49393 0.5
154 1.7748 2.77098 1.99956 0.5
155 2.67128 8.25643 10.4424 0.5
156 8.2863 12.2091 0.477621 0.5
157 1.50911 13.2355 2.37296 0.5
158 1.44771 9.80356 8.59136 0.5
159 3.44137 1.90508 9.70372 0.5
160 9.64524 0.132296 11.3098 0.5
161 12.1052 2.64783 10.3383 0.5
162 7.39041 2.78962 9.27868 0.5
163 11.5145 9.71095 0.15915 0.5
164 8.82431 3.84803 10.823 0.5
165 7.19547 10.8816 11.0597 0.5
166 11.1839 13.0025 7.03383 0.5
167 10.8466 8.13243 7.94549 0.5
168 0.569148 3.56748 6.81524 0.5
169 10.3062 11.1502 12.5625 0.5
170 3.79125 6.68963 1.1747 0.5
171 11.0239 5.20697 0.481071 0.5
172 12.8729 8.19212 11.2519 0.5
173 9.15409 10.0272 2.04949 0.5
174 4.97832 1.39411 0.212919 0.5
175 2.65864 6.62531 3.66423 0.5
176 2.34424 5.10656 4.38358 0.5
177 8.51452 4.86584 6.24891 0.5
178 5.16295 1.70743 4.68005 0.5
179 12.9763 6.19071 2.25146 0.5
180 9.34702 3.10445 11.3231 0.5
181 11.0564 11.1585 9.60918 0.5
182 2.554 11.9215 1.00718 0.5
183 8.59885 7.27566 6.07003 0.5
184 10.5424 5.48913 7.8906 0.5
185 8.76592 13.396 11.5751 0.5
186 4.70392 8.23247 2.9874 0.5
187 5.41377 0.555516 13.4707 0.5
188 5.08754 6.07519 6.24088 0.5
189 0.994197 11.2467 6.66992 0.5
190 9.04582 13.0992 2.84836 0.5
191 9.62094 7.25794 2.74143 0.5
192 9.91313 1.19639 13.2274 0.5
193 10.9486 2.27609 9.20382 0.5
194 9.24282 12.8818 10.7753 0.5
195 13.281 8.93562 12.707 0.5
196 8.33096 1.20242 4.63948 0.5
197 2.8604 6.62678 8.05453 0.5
198 5.95475 5.67808 12.7118 0.5
199 12.0007 0.657042 8.42012 0.5
200 6.94427 7.2098 1.34668 0.5
201 12.8176 4.50232 7.17871 0.5
202 5.86734 13.305 9.00813 0.5
203 1.45706 4.14632 1.25621 0.5
204 3.71096 8.02497 8.70258 0.5
205 11.1715 13.1909 5.08987 0.5
206 0.65952 1.51272 9.41899 0.5
207 4.25131 11.9918 8.79629 0.5
208 8.73549 3.93856 5.86263 0.5
209 6.02251 2.16369 4.50486 0.5
210 4.05636 6.77369 5.11358 0.5
211 3.98894 4.83974 10.04 0.5
212 2.66085 6.07814 4.50217 0.5
213 3.64882 1.534 5.80849 0.5
214 9.69875 4.08043 11.2838 0.5
215 7.85951 7.21953 1.36663 0.5
216 6.15186 8.80335 0.552084 0.5
217 3.50518 11.5726 5.04511 0.5
218 6.64658 8.51795 4.8541 0.5
219 8.80813 0.93853 3.75279 0.5
220 7.05355 2.43298 10.2047 0.5
221 3.1884 3.12382 6.12544 0.5
222 7.25226 12.0265 5.48684 0.5
223 4.45833 9.15744 3.48215 0.5
224 12.3868 9.40485 3.52437 0.5
225 8.04638 10.9849 11.6382 0.5
226 10.4139 6.62601 13.4414 0.5
227 13.4204 6.83479 9.29449 0.5
228 4.31842 11.5386 5.48448 0.5
229 5.9314 4.16688 6.45327 0.5
230 6.48273 9.59786 9.22763 0.5
231 7.6836 5.88684 8.70509 0.5
232 7.59 4.49955 12.526 0.5
233 1.27628 0.757255 9.50866 0.5
234 11.0083 2.48738 5.05853 0.5
235 1.79336 10.6336 3.23316 0.5
236 10.878 6.24357 0.707009 0.5
237 5.77186 8.38506 6.87421 0.5
238 1.05772 12.7492 6.10901 0.5
239 9.21989 7.71291 3.50368 0.5
240 1.49024 4.97985 12.8729 0.5
241 4.44587 6.59621 1.99853 0.5
242 3.20951 0.623349 2.38275 0.5
243 2.468 9.21487 3.81277 0.5
244 4.12019 11.5771 6.62453 0.5
245 0.856081 11.0728 11.8315 0.5
246 9.94831 9.91029 8.39611 0.5
247 3.49783 0.344924 10.5144 0.5
248 7.3211 2.62893 2.73628 0.5
249 10.3505 2.03939 12.7149 0.5
250 10.0026 2.19457 0.0168345 0.5
251 3.92475 10.2691 11.7561 0.5
252 8.33473 8.21814 13.0651 0.5
253 1.43679 8.67327 1.09006 0.5
254 9.97236 2.56275 2.6773 0.5
255 8.64606 9.57197 2.74312 0.5
256 1.47378 12.9125 3.51253 0.5
257 0.213257 4.33044 7.38364 0.5
258 13.6037 7.5168 4.85609 0.5
259 4.7093 5.39317 10.4054 0.5
260 7.29592 11.3945 10.145 0.5
261 11.0124 3.33128 5.67516 0.5
262 7.91241 11.5169 4.82376 0.5
263 1.78552 4.26246 8.34578 0.5
264 10.5983 10.5684 8.85478 0.5
265 1.8177 4.19742 4.23558 0.5
266 4.2127 13.5089 6.87052 0.5
267 5.13575 7.99669 9.59954 0.5
268 6.93549 2.31064 1.78612 0.5
269 9.74922 0.0414919 9.27066 0.5
270 6.73774 10.0127 8.27875 0.5
271 11.3975 12.0333 7.21815 0.5
272 5.92723 9.61017 1.06648 0.5
273 7.75588 5.55003 3.82879 0.5
274 11.0487 5.53988 8.74442 0.5
275 2.11013 11.039 0.83882 0.5
276 4.87455 2.43884 0.41923 0.5
277 7.3976 5.0881 13.3686 0.5
278 11.095 10.5497 0.374981 0.5
279 9.41241 11.5258 5.86861 0.5
280 4.75062 12.4576 2.62557 0.5
281 6.29399 2.24118 10.9066 0.5
282 0.243883 12.056 1.41112 0.5
283 4.5158 4.88336 1.82597 0.5
284 1.26342 11.1478 0.276164 0.5
285 3.9954 10.1003 6.11146 0.5
286 1.6199 1.70363 0.125034 0.5
287 7.79418 7.32216 6.71931 0.5
288 6.53252 13.051 7.19518 0.5
289 2.49419 10.186 3.79523 0.5
290 0.14964 12.7944 5.81367 0.5
291 6.57878 0.909435 5.86642 0.5
292 4.62564 2.82603 13.0798 0.5
293 11.1729 5.86915 4.0513 0.5
294 2.93336 10.2974 6.46359 0.5
295 2.84087 1.05104 5.91113 0.5
296 13.4148 5.15404 6.802 0.5
297 10.5936 10.3904 10.9714 0.5
298 9.55043 4.58766 12.112 0.5
299 1.74415 1.03363 12.9195 0.5
300 9.68803 4.80845 1.57195 0.5
301 6.39424 7.05942 11.6775 0.5
302 2.83934 8.95115 2.95462 0.5
303 11.8418 8.9445 2.65957 0.5
304 0.785489 7.97676 5.36688 0.5
305 8.58724 13.0024 8.20489 0.5
306 11.56 8.1493 0.716771 0.5
307 2.22971 6.1264 2.93389 0.5
308 0.401853 9.42923 12.2542 0.5
309 12.5937 0.128878 12.8488 0.5
310 8.34515 0.225437 4.23743 0.5
311 0.131805 6.67277 6.30154 0.5
312 7.53069 11.7535 11.082 0.5
313 0.917677 10.4666 3.60874 0.5
314 6.43116 12.9657 9.74232 0.5
315 12.2843 5.91631 3.06438 0.5
316 8.32555 6.13252 7.84206 0.5
317 13.3492 8.91011 3.62567 0.5
318 0.533881 6.02306 5.75296 0.5
319 10.4858 11.459 0.604167 0.5
320 5.88143 3.84392 7.46178 0.5
321 2.47401 13.1136 3.93151 0.5
322 10.1608 0.518757 1.03181 0.5
323 3.2916 1.51394 2.64261 0.5
324 10.656 3.31252 2.71569 0.5
325 1.68257 5.56966 0.195412 0.5
326 9.7167 13.3054 0.427699 0.5
327 8.05336 3.3822 8.73034 0.5
328 12.7009 5.60574 0.261518 0.5
329 8.83078 1.94299 8.1256 0.5
330 8.23527 1.6451 5.58229 0.5
331 5.41431 1.95244 3.72928 0.5
332 12.3586 1.55841 8.95486 0.5
333 13.0761 1.47763 2.49029 0.5
334 5.06122 5.83296 1.76972 0.5
335 9.1736 0.560495 4.62441 0.5
336 3.93119 2.43698 9.11019 0.5
337 11.9288 0.390448 12.0482 0.5
338 7.34208 5.85202 9.61383 0.5
339 10.2267 4.0994 2.06986 0.5
340 11.7794 3.69553 11.5499 0.5
341 8.87339 0.1091 8.95249 0.5
342 6.84473 0.536014 6.83278 0.5
343 6.69684 6.08312 8.82928 0.5
344 5.69929 6.7638 5.93024 0.5
345 9.10776 8.13033 5.68301 0.5
346 1.4795 7.33531 5.73946 0.5
347 12.7191 12.1297 1.36993 0.5
348 1.45217 4.6174 0.249794 0.5
349 8.01693 6.46088 6.22839 0.5
350 8.30808 7.71596 10.572 0.5
351 2.46944 9.00987 11.1202 0.5
352 8.54781 12.1808 7.59198 0.5
353 9.31228 6.4411 13.3718 0.5
354 2.45817 2.70921 5.57342 0.5
355 1.774 6.88773 3.45885 0.5
356 11.4085 12.4442 4.44092 0.5
357 6.31477 11.5402 4.13698 0.5
358 3.6584 0.919901 9.66513 0.5
359 7.3856 9.42986 9.00217 0.5
360 12.5899 3.91733 6.44097 0.5
361 3.32524 1.44998 6.81074 0.5
362 1.50961 1.481 8.79934 0.5
363 10.0059 12.4253 0.706884 0.5
364 3.67632 7.64686 0.795256 0.5
365 2.44982 8.73251 1.30463 0.5
366 6.62123 8.9613 8.50241 0.5
367 10.178 11.8753 13.3481 0.5
368 5.41682 5.24374 9.60336 0.5
369 1.9728 3.40181 4.91074 0.5
370 0.582325 10.2905 6.21533 0.5
371 9.20664 0.10008 3.70669 0.5
372 0.261501 3.77701 3.00562 0.5
373 4.56937 3.45139 0.306505 0.5
374 0.499313 8.96551 13.3333 0.5
375 0.641343 9.81865 9.04402 0.5
376 1.69406 10.5874 4.26267 0.5
377 6.86719 5.1812 3.7857 0.5
378 5.87721 9.61461 0.106938 0.5
379 4.51799 5.67715 2.61505 0.5
380 7.53361 3.99049 13.5388 0.5
381 9.89448 3.18136 8.28342 0.5
382 9.30523 2.74408 7.62077 0.5
383 2.31162 4.79856 13.5023 0.5
384 5.37431 9.94923 12.8326 0.5
385 13.2286 11.3207 1.76949 0.5
386 0.145759 3.79033 4.07117 0.5
387 1.73015 7.21245 11.6696 0.5
388 0.740807 2.18602 10.2032 0.5
389 3.34971 9.48121 11.3853 0.5
390 4.94296 4.49447 10.1244 0.5
391 7.88807 0.971544 1.81497 0.5
392 12.5249 4.81873 3.08247 0.5
393 2.65712 4.70638 8.92215 0.5
394 9.19548 9.21066 8.03377 0.5
395 1.66511 0.466344 8.62904 0.5
396 0.282374 1.98183 2.20627 0.5
397 7.48432 1.69341 1.29851 0.5
398 9.3093 12.0568 2.89096 0.5
399 0.986369 4.04945 3.64604 0.5
400 7.33931 9.20738 4.93375 0.5
401 9.92485 2.91427 12.9329 0.5
402 5.3835 7.82985 6.11383 0.5
403 6.17838 0.460555 8.35455 0.5
404 11.2376 11.3901 12.2385 0.5
405 11.8764 5.94199 0.747283 0.5
406 6.60067 2.98219 1.09608 0.5
407 2.45934 11.1374 3.82421 0.5
408 2.405 3.76832 6.00352 0.5
409 3.38458 4.47271 10.8395 0.5
410 10.9261 2.38937 3.13602 0.5
411 4.10398 5.79806 1.65186 0.5
412 5.25096 0.661435 0.92619 0.5
413 3.05428 5.70692 7.56424 0.5
414 3.35751 8.45142 11.1044 0.5
415 8.06504 10.1663 12.1144 0.5
416 9.11269 10.5243 5.80475 0.5
417 0.960634 13.3943 8.94188 0.5
418 9.52532 1.00971 10.7039 0.5
419 2.55023 13.3439 11.6752 0.5
420 3.6384 0.539083 7.26412 0.5
421 13.389 4.88323 9.16867 0.5
422 8.05881 4.57533 5.32825 0.5
423 11.4021 0.595769 4.55338 0.5
424 2.96812 3.46453 5.15074 0.5
425 9.2449 7.69184 10.8723 0.5
426 0.616194 12.862 8.17659 0.5
427 7.58327 2.68882 1.08792 0.5
428 0.907186 8.17458 9.13387 0.5
429 11.5573 5.69145 7.94343 0.5
430 9.58358 12.8085 11.7186 0.5
431 2.42244 4.98956 7.99088 0.5
432 12.8672 2.20166 1.78984 0.5
433 7.82894 11.2472 0.291769 0.5
434 0.235584 3.36002 13.2083 0.5
435 10.9608 9.7249 0.927053 0.5
436 6.22622 5.64563 9.62173 0.5
437 4.49627 9.56018 6.76165 0.5
438 5.6801 2.84934 7.34784 0.5
439 11.4049 10.6248 10.2671 0.5
440 9.90763 10.8361 6.40693 0.5
441 6.22156 13.6023 6.34958 0.5
442 1.69429 7.51695 6.69248 0.5
443 0.625886 11.9224 0.49236 0.5
444 8.92 9.00266 13.2981 0.5
445 4.99886 8.33048 3.97008 0.5
446 3.50672 6.28278 4.19049 0.5
447 2.46985 9.37066 6.7097 0.5
448 5.14593 10.1124 0.816125 0.5
449 3.26836 12.9479 11.0253 0.5
450 2.60528 2.51334 1.34758 0.5
451 7.39338 3.68638 0.955665 0.5
452 2.13809 8.26485 0.558332 0.5
453 4.68401 9.18101 2.52517 0.5
454 2.93362 0.0531264 3.12363 0.5
455 1.52305 2.38155 11.6482 0.5
456 9.47106 13.4441 8.2584 0.5
457 12.5002 11.2223 8.68497 0.5
458 4.42634 0.64665 10.1587 0.5
459 11.956 3.10832 6.24535 0.5
460 12.7323 6.58291 0.61826 0.5
461 12.1917 7.73565 11.88 0.5
462 9.63151 4.17763 8.30041 0.5
463 5.0466 3.43357 7.72153 0.5
464 13.5452 7.91592 9.30823 0.5
465 4.8504 10.4836 12.0696 0.5
466 3.20885 13.3641 6.77606 0.5
467 1.86272 7.85966 1.58688 0.5
468 0.641728 7.20993 8.67311 0.5
469 2.10931 2.86137 10.9555 0.5
470 1.99537 6.32314 11.2634 0.5
471 3.82742 1.36678 10.5095 0.5
472 10.8133 6.82817 3.86816 0.5
473 11.5145 8.66873 7.31191 0.5
474 3.83913 6.97416 8.3672 0.5
475 5.11313 4.30499 7.03525 0.5
476 6.79245 0.717668 11.2281 0.5
477 5.94705 8.1726 10.0097 0.5
478 3.03477 12.31 0.251737 0.5
479 8.73753 7.31944 13.2268 0.5
480 4.77542 10.7309 9.64481 0.5
481 2.22574 4.08353 0.626959 0.5
482 10.7021 13.2774 0.646681 0.5
483 9.32245 11.0594 2.30562 0.5
484 9.79018 6.8957 3.70685 0.5
485 4.98399 4.00382 2.20476 0.5
486 3.93959 11.3315 9.54447 0.5
487 4.59332 2.9932 8.49273 0.5
488 5.84759 4.76552 5.62158 0.5
489 3.5663 0.791814 3.31315 0.5
490 0.267581 12.7452 9.2759 0.5
491 2.76441 7.00685 11.5708 0.5
492 0.860948 5.41277 12.2117 0.5
493 12.5528 8.71965 12.0769 0.5
494 6.97042 4.63336 0.550217 0.5
495 6.39005 7.92016 0.926756 0.5
496 6.64072 13.4923 13.3963 0.5
497 4.9881 4.28316 5.97237 0.5
498 3.52771 12.0731 5.98732 0.5
499 6.57944 1.65922 11.6757 0.5
500 10.9809 9.65558 6.13434 0.5
501 5.89118 1.14407 4.26148 0.5
502 9.67212 10.4007 9.23638 0.5
503 6.88295 5.98696 12.9855 0.5
504 2.06258 0.908414 0.156676 0.5
505 4.76295 3.86666 12.979 0.5
506 3.02521 11.0594 1.43509 0.5
507 8.45106 4.90408 4.45147 0.5
508 13.4868 1.13479 5.21718 0.5
509 5.01253 5.31081 5.53339 0.5
510 7.72308 10.0196 11.224 0.5
511 6.00173 0.270586 7.41259 0.5
512 10.4136 12.0422 2.75574 0.5
513 5.41712 4.27614 3.08637 0.5
514 5.72764 8.58842 1.40253 0.5
515 2.20033 9.73572 2.98788 0.5
516 5.45061 8.93952 3.21307 0.5
517 0.982229 3.59258 4.53992 0.5
518 3.2417 6.47859 9.02197 0.5
519 5.13917 7.93802 10.6552 0.5
520 2.55267 0.538338 12.9014 0.5
521 11.0553 6.51745 4.8201 0.5
522 2.94097 8.79134 11.9571 0.5
523 13.3296 8.26932 2.94965 0.5
524 0.006568 0.116015 5.417 0.5
525 10.9365 8.95277 0.426631 0.5
526 8.54851 12.1909 8.60248 0.5
527 7.7162 10.7462 1.93764 0.5
528 1.82854 0.187703 12.2463 0.5
529 13.3749 12.5122 0.656458 0.5
530 11.699 3.02086 9.47518 0.5
531 11.8317 8.52109 11.1908 0.5
532 6.27601 9.4456 4.64278 0.5
533 6.19752 7.68819 10.7911 0.5
534 2.62135 12.2504 11.5142 0.5
535 8.17429 12.8975 13.342 0.5
536 2.14958 12.1252 3.59163 0.5
537 2.15584 10.4324 9.15843 0.5
538 8.16057 9.80696 1.8308 0.5
539 2.39986 7.04101 2.6996 0.5
540 0.415671 3.3863 7.85306 0.5
541 3.89534 11.3773 1.82146 0.5
542 7.62434 0.147297 13.3289 0.5
543 13.2963 6.61607 5.40352 0.5
544 8.28282 2.81471 7.85679 0.5
545 1.53003 6.63159 2.42206 0.5
546 0.854013 0.437486 12.6573 0.5
547 10.7809 5.44947 4.84842 0.5
548 12.0274 13.5535 6.8488 0.5
549 12.1376 10.3278 8.71832 0.5
550 12.0393 13.3809 4.3474 0.5
551 6.87268 1.12615 1.94065 0.5
552 4.24292 6.91041 0.378896 0.5
553 10.918 6.22572 7.33198 0.5
554 3.75831 13.1318 7.61477 0.5
555 0.687202 3.09591 3.7237 0.5
556 7.30398 12.9116 12.9142 0.5
557 7.2045 10.9465 1.00888 0.5
558 4.41653 1.56761 9.66463 0.5
559 2.90398 10.0132 9.65186 0.5
560 6.48727 2.73036 11.7702 0.5
561 8.03785 8.52936 12.1803 0.5
562 13.0578 2.8717 13.0275 0.5
563 8.57823 6.69035 6.98295 0.5
564 6.42148 5.26861 13.4731 0.5
565 9.02607 4.80422 5.36427 0.5
566 7.00407 1.48942 10.7175 0.5
567 12.8938 3.88249 3.32899 0.5
568 7.53002 1.44096 11.6233 0.5
569 11.481 6.95258 10.6081 0.5
570 13.2463 8.45775 1.95767 0.5
571 2.20281 0.308721 2.46912 0.5
572 4.27543 1.87148 13.372 0.5
573 0.941006 13.2663 5.21383 0.5
574 9.70258 8.25933 2.66273 0.5
575 8.46374 0.185308 2.27443 0.5
576 3.79152 10.4227 9.13887 0.5
577 3.8274 8.74236 2.81873 0.5
578 1.4827 11.696 0.956739 0.5
579 13.4999 8.7927 11.7088 0.5
580 3.01771 4.74757 7.28903 0.5
581 1.73569 13.0142 8.40659 0.5
582 2.27379 12.8548 10.8146 0.5
583 2.1839 10.8155 13.4521 0.5
584 10.2305 6.20855 4.38042 0.5
585 -0.00385426 5.09512 5.68938 0.5
586 0.592587 5.41109 9.51994 0.5
587 12.9391 2.98661 1.02834 0.5
588 12.4501 12.101 0.414597 0.5
589 13.514 9.39988 8.44531 0.5
590 3.58607 11.2063 8.60484 0.5
591 4.71754 4.25318 11.9525 0.5
592 10.6405 11.2457 10.5705 0.5
593 6.14106 10.6362 6.48766 0.5
594 0.0364728 11.0622 6.51796 0.5
595 13.2445 10.0738 6.51967 0.5
596 9.63133 9.2126 2.69879 0.5
597 2.17587 9.46404 9.20664 0.5
598 8.28341 11.8745 5.74515 0.5
599 11.5028 11.0817 8.6648 0.5
600 10.0382 5.96566 11.4221 0.5
601 1.93995 5.92239 3.78233 0.5
602 0.267176 6.38393 10.0673 0.5
603 3.22938 7.51912 10.8566 0.5
604 4.90132 1.41352 10.5926 0.5
605 7.17222 2.14462 12.2896 0.5
606 12.0057 9.37676 4.90803 0.5
607 8.89417 10.0949 8.58925 0.5
608 7.983 13.335 12.43 0.5
609 0.205728 11.0083 0.137304 0.5
610 1.21337 9.12182 9.39899 0.5
611 0.876909 9.01538 8.4771 0.5
612 6.35892 12.5913 2.8466 0.5
613 3.35481 6.07013 5.17271 0.5
614 4.24342 13.4248 10.8738 0.5
615 4.468 11.226 10.497 0.5
616 0.0805015 5.37963 1.90745 0.5
617 7.49756 5.77745 2.11289 0.5
618 11.271 7.30348 8.38318 0.5
619 12.8744 4.09563 11.6589 0.5
620 0.932043 10.0965 11.4855 0.5
621 2.41865 4.27589 5.04834 0.5
622 5.81953 8.89146 9.25414 0.5
623 13.203 8.00084 3.96855 0.5
624 13.2541 5.48531 2.89362 0.5
625 1.6491 3.62319 10.6471 0.5
626 2.45102 4.22372 1.5421 0.5
627 9.86676 6.43057 0.708934 0.5
628 12.7823 4.53016 9.91716 0.5
629 5.55307 3.32051 2.76003 0.5
630 2.98104 3.45583 1.06574 0.5
631 9.25884 1.65632 0.180449 0.5
632 6.63 12.5051 13.4104 0.5
633 10.1235 1.38252 0.632568 0.5
634 10.4683 10.4274 9.84586 0.5
635 9.86878 2.48948 11.941 0.5
636 8.79779 3.82808 11.8119 0.5
637 0.393186 10.4167 7.16685 0.5
638 5.25184 0.701539 4.87252 0.5
639 8.80979 6.85233 10.2916 0.5
640 2.09425 4.28971 7.26353 0.5
641 7.65091 7.3319 5.78202 0.5
642 11.1319 6.00333 13.384 0.5
643 11.0806 0.847723 7.93363 0.5
644 6.65308 3.0979 10.7876 0.5
645 0.689602 11.2246 5.70355 0.5
646 8.9487 8.76751 12.2999 0.5
647 8.5351 4.80524 12.1474 0.5
648 7.3694 9.35511 11.9836 0.5
649 5.68161 7.91165 11.635 0.5
650 2.78791 0.620159 6.82036 0.5
651 1.21869 6.56351 6.31857 0.5
652 6.23663 3.2789 6.67249 0.5
653 13.2771 4.56705 2.4372 0.5
654 3.53866 9.49729 12.3732 0.5
655 11.6883 11.865 9.19211 0.5
656 0.552818 11.171 1.10002 0.5
657 11.0741 0.476198 6.89521 0.5
658 10.0093 9.95339 5.88726 0.5
659 1.18247 9.78752 2.88555 0.5
660 0.762189 0.846252 8.63638 0.5
661 3.70105 7.2885 9.31872 0.5
662 3.49852 11.0154 5.87929 0.5
663 6.23606 12.5601 3.86874 0.5
664 5.02121 6.28229 5.24595 0.5
665 9.00679 11.1724 3.25177 0.5
666 5.55748 12.4614 9.62257 0.5
667 10.6896 3.94443 8.28968 0.5
668 5.87556 2.83293 3.54864 0.5
669 8.49026 10.5682 2.61297 0.5
670 9.37538 12.4133 8.05663 0.5
671 6.6796 8.80031 1.35814 0.5
672 3.39942 2.51717 5.33285 0.5
673 5.19648 9.04912 0.692161 0.5
674 3.34361 7.83912 11.8879 0.5
675 3.81817 4.94165 11.6624 0.5
676 2.35167 12.8865 2.96413 0.5
677 3.45217 9.05282 3.76566 0.5
678 13.3799 7.43118 8.45264 0.5
679 10.9409 12.3711 6.31108 0.5
680 4.86869 11.6498 1.95103 0.5
681 3.8684 1.51391 8.85714 0.5
682 1.58354 2.76892 10.0953 0.5
683 1.83731 5.47025 12.0083 0.5
684 10.9772 13.262 4.0507 0.5
685 12.4921 12.4075 4.10456 0.5
686 11.3662 7.63723 11.3707 0.5
687 4.83378 9.77756 13.5761 0.5
688 1.52342 8.30746 6.00486 0.5
689 2.68857 3.28414 2.02926 0.5
690 4.98617 8.83912 7.37756 0.5
691 13.0579 9.64266 11.9731 0.5
692 4.5337 0.501868 0.387267 0.5
693 10.9679 6.61535 11.4251 0.5
694 6.14671 9.13819 10.0413 0.5
695 12.3328 8.08218 2.35713 0.5
696 9.85725 3.62433 7.53 0.5
697 0.671449 9.96645 8.06538 0.5
698 7.17029 10.7735 6.66207 0.5
699 2.78925 7.83173 1.21883 0.5
700 12.4376 8.41295 3.35584 0.5
701 9.31317 8.10152 12.9353 0.5
702 3.08382 2.11318 8.78129 0.5
703 2.34855 5.52896 12.8118 0.5
704 9.00586 2.89337 8.59445 0.5
705 10.7117 7.16289 7.54387 0.5
706 6.64993 11.3187 5.96028 0.5
707 3.76809 5.46094 10.7504 0.5
708 12.7983 1.98529 0.872926 0.5
709 9.49296 0.692554 0.429801 0.5
710 6.8126 6.13295 2.76011 0.5
711 13.4891 0.854696 12.9392 0.5
712 12.5817 2.53824 9.42751 0.5
713 8.46886 9.75903 7.7112 0.5
714 12.7294 4.89484 6.15956 0.5
715 12.8059 8.99311 2.66483 0.5
716 1.57207 1.99326 10.7558 0.5
717 4.4653 7.31782 1.23142 0.5
718 11.9304 0.901535 7.37835 0.5
719 4.00792 10.9121 12.4024 0.5
720 12.9528 11.3131 2.74276 0.5
721 10.9337 6.4503 8.32264 0.5
722 5.73078 13.0303 13.5101 0.5
723 3.2027 11.9333 9.11085 0.5
724 8.98975 13.267 9.86443 0.5
725 2.76653 1.7714 5.26456 0.5
726 7.75124 1.98028 7.95035 0.5
727 3.87586 2.67296 0.273609 0.5
728 13.1883 1.78551 5.95893 0.5
729 10.0339 4.71046 0.579616 0.5
730 8.28533 5.71161 6.9059 0.5
731 10.392 0.479503 0.109044 0.5
732 1.14896 2.93405 7.45192 0.5
733 8.04003 11.5014 1.24496 0.5
734 10.3918 11.5668 5.98773 0.5
735 3.37735 5.01035 8.19572 0.5
736 4.20266 3.90839 10.5088 0.5
737 4.87066 2.86737 3.3785 0.5
738 2.26251 7.23938 10.7435 0.5
739 6.19895 13.104 8.13474 0.5
740 12.5367 0.131712 7.66855 0.5
741 7.83784 4.02983 4.4486 0.5
742 5.06581 9.47709 1.62284 0.5
743 7.38757 8.31954 5.46811 0.5
744 3.85854 3.51008 13.1536 0.5
745 6.68666 6.00246 12.0314 0.5
746 5.16093 8.83326 10.1128 0.5
747 13.313 0.197086 11.3611 0.5
748 7.49307 9.27456 8.07707 0.5
749 6.20456 9.45534 3.60997 0.5
750 1.70534 0.0879001 13.2689 0.5
751 13.518 8.08783 13.1883 0.5
752 1.0742 0.800041 0.0163168 0.5
753 6.8406 2.191 0.674505 0.5
754 1.79373 12.8171 11.7421 0.5
755 6.60163 3.80273 0.314177 0.5
756 6.38144 7.90431 1.91317 0.5
757 10.7162 6.15674 10.5472 0.5
758 4.00903 12.4457 5.20545 0.5
759 12.4457 9.01581 1.80131 0.5
760 7.72357 4.61926 3.68688 0.5
761 2.93615 11.2398 0.322938 0.5
762 13.4741 2.6436 0.310078 0.5
763 11.6941 0.305387 3.54042 0.5
764 9.37477 9.50723 3.47398 0.5
765 12.4298 2.71401 0.193075 0.5
766 8.20847 3.01648 4.63126 0.5
767 4.6405 6.35083 1.00216 0.5
768 12.7812 0.496625 10.2854 0.5
769 11.3641 2.37319 6.01302 0.5
770 11.9419 8.02856 6.70772 0.5
771 8.20491 8.10959 6.20385 0.5
772 1.03122 1.25798 10.3533 0.5
773 8.93183 3.55564 8.02412 0.5
774 9.17621 0.55881 2.87575 0.5
775 10.2767 13.1332 10.9737 0.5
776 3.49269 9.47251 6.82161 0.5
777 11.7127 12.7721 3.43453 0.5
778 12.3941 12.1526 3.0755 0.5
779 8.24209 7.85864 5.26342 0.5
780 2.95595 10.9853 9.41325 0.5
781 0.716627 1.46417 4.70502 0.5
782 11.0491 3.29158 3.63813 0.5
783 0.566896 8.44404 12.4533 0.5
784 2.68807 2.65822 4.59845 0.5
785 10.6857 10.078 5.13361 0.5
786 8.69678 3.98075 4.83216 0.5
787 6.11807 11.6913 3.25079 0.5
788 12.1462 7.59418 10.8323 0.5
789 9.47825 4.48559 2.62664 0.5
790 8.29042 1.0459 2.84535 0.5
791 5.53358 7.17591 12.2055 0.5
792 4.92719 2.40755 7.76628 0.5
793 6.94742 8.85981 4.03983 0.5
794 13.1132 0.581715 2.90758 0.5
795 7.77136 8.41239 4.54303 0.5
796 4.83115 11.7444 9.60011 0.5
797 3.94253 4.32347 12.4991 0.5
798 2.68918 3.63547 4.19568 0.5
799 0.740741 0.765943 5.45926 0.5
800 0.879216 8.0057 13.3703 0.5
801 7.82411 6.07896 2.96874 0.5
802 5.62369 10.8276 12.6573 0.5
803 11.4121 11.053 11.2192 0.5
804 0.279267 5.49219 8.52312 0.5
805 8.82049 8.6319 3.13339 0.5
806 2.93788 7.39624 8.62453 0.5
807 2.70964 4.09099 8.08918 0.5
808 1.78672 8.93925 3.14229 0.5
809 9.16454 5.48863 11.7287 0.5
810 1.72327 11.9861 11.0559 0.5
811 10.4479 6.84323 2.91633 0.5
812 2.49299 8.00948 11.4335 0.5
813 7.81893 5.49696 12.5702 0.5
814 9.50151 0.568459 5.61873 0.5
815 11.8868 11.9094 8.18728 0.5
816 9.76396 7.45366 0.0830543 0.5
817 11.9515 11.1453 2.942 0.5
818 2.75241 10.3031 0.682807 0.5
819 6.8963 0.154151 7.83684 0.5
820 0.252613 11.9859 8.60917 0.5
821 11.15 3.3557 4.66854 0.5
822 9.16084 1.36861 5.19052 0.5
823 9.81388 0.113057 10.3386 0.5
824 2.38405 8.85698 5.87198 0.5
825 7.51614 0.483036 2.60887 0.5
826 6.81254 13.4529 8.84459 0.5
827 11.0776 0.776557 0.702986 0.5
828 4.57598 3.64038 3.078 0.5
829 3.96994 2.25365 8.17458 0.5
830 6.37873 12.4231 8.87489 0.5
831 11.5161 0.0660469 7.72152 0.5
832 0.651945 5.55797 10.5042 0.5
833 0.737582 11.7109 11.0135 0.5
834 9.4264 2.07841 12.8185 0.5
835 1.24858 5.59861 11.2495 0.5
836 8.58846 8.28577 11.4026 0.5
837 7.16293 3.07797 0.281492 0.5
838 12.6952 13.1633 10.8138 0.5
839 5.37242 5.01199 2.40991 0.5
840 7.35858 12.8704 0.298236 0.5
841 6.49468 11.4135 6.98602 0.5
842 12.2993 4.14886 10.7572 0.5
843 12.6103 3.2677 12.0687 0.5
844 3.81772 2.54656 12.792 0.5
845 9.90142 5.3515 4.95725 0.5
846 6.08616 12.5681 10.5505 0.5
847 4.91992 7.91858 6.99746 0.5
848 5.21408 6.41328 12.7659 0.5
849 0.450422 11.9937 6.35399 0.5
850 10.8842 10.4846 11.9177 0.5
851 7.29519 11.8189 6.41044 0.5
852 7.32877 10.507 7.63679 0.5
853 4.62329 7.6389 8.84441 0.5
854 10.333 5.99885 3.48281 0.5
855 9.91926 11.1675 3.27704 0.5
856 1.99797 0.195399 3.37976 0.5
857 9.8689 5.10672 11.1766 0.5
858 7.87554 10.11 8.48399 0.5
859 11.1719 5.92629 5.62667 0.5
860 10.4728 5.23441 5.85051 0.5
861 11.3114 13.3219 6.056 0.5
862 11.2117 7.96282 10.5363 0.5
863 8.24214 8.70182 5.39894 0.5
864 8.07267 7.1957 7.7724 0.5
865 12.0716 4.13363 12.3726 0.5
866 5.65789 12.0503 2.29573 0.5
867 12.5361 4.58316 13.3417 0.5
868 9.3811 9.3708 9.0467 0.5
869 4.59162 0.917087 12.9658 0.5
870 4.15495 8.61779 6.88731 0.5
871 12.5639 8.72283 4.27173 0.5
872 1.38348 5.92396 12.8343 0.5
873 12.8912 0.584217 1.98276 0.5
874 6.90236 5.15912 12.5689 0.5
875 7.06435 12.0737 4.50451 0.5
876 2.77673 5.75028 8.58771 0.5
877 10.9102 7.98072 6.91724 0.5
878 2.13989 11.7563 0.134316 0.5
879 1.1793 3.91694 7.59003 0.5
880 12.1592 0.81213 2.62498 0.5
881 11.079 10.4757 13.0191 0.5
882 1.65744 9.73964 3.7211 0.5
883 10.9596 12.2838 0.214539 0.5
884 12.9841 3.57613 0.148503 0.5
885 8.02529 10.848 10.6264 0.5
886 13.2185 3.59463 7.23337 0.5
887 13.4357 -0.0248058 12.4113 0.5
888 4.59161 4.6824 2.75942 0.5
889 11.1621 4.75381 8.05907 0.5
890 11.9587 9.13602 5.97411 0.5
891 1.23929 6.14192 3.14646 0.5
892 9.15943 0.747809 9.80919 0.5
893 10.3528 4.81695 8.61885 0.5
894 7.33195 8.17929 1.26362 0.5
895 11.8136 9.032 1.02495 0.5
896 7.32244 11.9491 0.721062 0.5
897 6.99385 11.9614 3.53642 0.5
898 5.45974 12.5801 3.28936 0.5
899 10.2479 4.54654 7.65017 0.5
900 12.0058 10.9527 9.46992 0.5
901 13.3053 5.49776 10.1038 0.5
902 11.6238 6.6704 7.6576 0.5
903 9.76953 8.52217 3.57148 0.5
904 7.88352 3.63227 5.39101 0.5
905 13.459 7.57056 5.88384 0.5
906 0.0169928 4.61907 3.40955 0.5
907 5.78463 3.20782 11.2072 0.5
908 8.59322 0.603297 5.46441 0.5
909 9.65281 3.53701 2.67221 0.5
910 7.26735 2.82709 8.25393 0.5
911 6.23452 6.62904 12.6116 0.5
912 8.41883 9.30695 11.6748 0.5
913 11.8083 5.32628 13.4576 0.5
914 4.83658 13.4061 13.1998 0.5
915 7.96618 2.57121 5.54705 0.5
916 11.2066 8.61188 6.28704 0.5
917 11.8771 13.224 11.3404 0.5
918 7.41694 6.5719 8.16612 0.5
919 13.1651 12.2072 2.2866 0.5
920 13.0355 10.4869 11.3097 0.5
921 5.28304 6.98298 6.77204 0.5
922 12.5593 3.22025 11.1292 0.5
923 0.0961252 2.6368 7.255 0.5
924 11.641 11.5431 10.2643 0.5
925 10.0618 3.16617 1.8536 0.5
926 5.53423 10.574 0.0318942 0.5
927 2.45711 7.75221 6.04715 0.5
928 0.640371 6.98038 5.4808 0.5
929 1.08219 2.88502 10.9171 0.5
930 10.4013 9.59759 9.14427 0.5
931 4.37565 9.86248 12.6334 0.5
932 4.06094 8.15975 3.68124 0.5