ITEM: TIMESTEP
550000
ITEM: NUMBER OF ATOMS
1000
ITEM: BOX BOUNDS xy xz yz pp pp pp
0.0000000000000000e+00 1.3572088000000001e+01 0.0000000000000000e+00
0.0000000000000000e+00 1.3572088000000001e+01 0.0000000000000000e+00
0.0000000000000000e+00 1.3572088000000001e+01 0.0000000000000000e+00
ITEM: ATOMS id x y z radius
1 4.51414 3.8409 12.1126 0.5
2 4.15521 11.6136 3.37885 0.5
3 9.07272 10.2805 2.8357 0.5
4 9.85398 5.41354 0.93397 0.5
5 8.44526 7.92411 10.2886 0.5
6 3.89402 13.291 5.10789 0.5
7 2.82003 8.69881 1.25544 0.5
8 13.3723 11.1488 2.0586 0.5
9 1.67328 8.53121 6.70422 0.5
10 3.75141 13.519 11.1304 0.5
11 0.795369 9.17164 9.30894 0.5
12 10.6113 5.35908 0.151477 0.5
13 8.6665 11.4447 5.1257 0.5
14 11.0362 2.20004 4.51736 0.5
15 5.79242 2.02631 4.15394 0.5
16 7.95298 6.58872 9.52485 0.5
17 6.56954 12.0427 10.7522 0.5
18 2.57262 8.49577 6.32414 0.5
19 10.1324 4.76528 1.62019 0.5
20 10.0625 11.953 3.34671 0.5
21 2.1836 4.41392 0.975835 0.5
22 1.91778 5.7727 12.2603 0.5
23 1.59944 1.14013 10.5386 0.5
24 7.51808 7.19285 2.09217 0.5
25 1.05314 5.74982 1.62283 0.5
26 10.3926 10.5054 5.87319 0.5
27 11.3698 6.75053 12.6103 0.5
28 5.3711 11.4321 12.0091 0.5
29 0.664832 6.18208 0.752371 0.5
30 8.17367 10.9019 1.5332 0.5
31 0.723695 0.0490948 8.47551 0.5
32 8.88373 2.37655 12.7356 0.5
33 13.0158 6.11588 9.80237 0.5
34 3.40524 8.89724 5.80489 0.5
35 11.6089 6.78518 0.105677 0.5
36 8.7409 1.73534 4.78455 0.5
37 0.349808 1.04963 2.6368 0.5
38 3.0548 1.25561 1.98903 0.5
39 10.8085 3.99207 1.71264 0.5
40 5.66294 6.01884 6.33093 0.5
41 7.72299 11.3605 4.76569 0.5
42 6.89633 5.20973 3.6073 0.5
43 5.37116 5.23425 9.87967 0.5
44 4.36802 11.3924 8.1663 0.5
45 7.44799 6.17638 2.08589 0.5
46 10.33 10.8738 0.303749 0.5
47 2.58301 9.34284 5.76721 0.5
48 7.42369 10.5718 0.944391 0.5
49 5.47708 11.5463 9.51754 0.5
50 6.39842 0.96975 10.0672 0.5
51 12.8298 10.2188 7.36991 0.5
52 6.20769 10.6262 7.59815 0.5
53 10.3813 3.24483 2.12021 0.5
54 11.9743 11.5145 4.0388 0.5
55 0.355335 0.625494 6.59014 0.5
56 13.1063 4.14913 2.75335 0.5
57 0.857344 11.6642 11.3816 0.5
58 5.22964 8.20412 10.3625 0.5
59 1.88391 10.5016 11.5978 0.5
60 7.83411 4.88515 9.81288 0.5
61 4.45606 0.531684 10.6284 0.5
62 1.13412 9.2127 0.828628 0.5
63 11.5113 8.62359 2.29857 0.5
64 12.3484 1.77753 9.64251 0.5
65 13.1303 1.48219 5.43728 0.5
66 12.4806 1.4359 1.78983 0.5
67 8.20991 3.18785 8.47578 0.5
68 2.68489 1.44488 2.97426 0.5
69 11.7177 2.22294 10.3559 0.5
70 12.6118 3.35613 9.44674 0.5
71 2.9537 6.55655 9.14587 0.5
72 7.46858 2.48054 11.078 0.5
73 8.67376 6.48265 8.8862 0.5
74 6.19102 4.79796 10.1585 0.5
75 8.93948 0.288195 10.3568 0.5
76 12.0528 3.06914 13.0733 0.5
77 10.4387 2.77929 3.79792 0.5
78 8.83258 3.11152 5.40008 0.5
79 4.37165 12.7069 5.77312 0.5
80 5.33638 2.77184 8.17696 0.5
81 1.4676 3.52449 11.2907 0.5
82 1.12626 8.75428 13.4877 0.5
83 3.18808 0.842609 6.36247 0.5
84 13.449 8.79162 9.51796 0.5
85 13.4155 3.65228 6.73897 0.5
86 2.9249 0.617107 13.5744 0.5
87 4.12596 5.62391 5.86741 0.5
88 6.80873 5.74453 4.55729 0.5
89 11.2591 12.003 7.78979 0.5
90 4.00607 6.29116 4.25412 0.5
91 11.3033 7.71596 12.0175 0.5
92 13.4665 1.38814 1.69345 0.5
93 13.554 0.574279 12.7047 0.5
94 4.84239 9.94505 12.6934 0.5
95 11.963 0.934421 8.08384 0.5
96 11.678 2.88429 4.92016 0.5
97 11.8926 2.54941 5.94658 0.5
98 10.5928 9.88202 0.584052 0.5
99 6.50741 8.46956 9.21826 0.5
100 0.709837 6.7715 6.52635 0.5
101 4.90346 11.9322 2.71305 0.5
102 8.65574 7.24535 9.52769 0.5
103 4.58984 4.94782 10.3579 0.5
104 6.97048 11.3025 6.21306 0.5
105 11.4138 12.032 6.67926 0.5
106 6.03138 1.64042 10.5988 0.5
107 13.2702 5.3164 7.26923 0.5
108 12.8392 10.7694 5.64225 0.5
109 0.626723 12.3556 9.61726 0.5
110 8.13032 9.18288 8.63707 0.5
111 8.86253 0.125572 3.46898 0.5
112 5.9988 1.18123 4.80335 0.5
113 0.657722 13.4692 5.81004 0.5
114 7.31773 6.72097 2.98784 0.5
115 5.63545 6.26934 11.8241 0.5
116 0.13134 5.53268 1.46429 0.5
117 0.566302 1.4 5.13942 0.5
118 11.0771 9.61787 6.13325 0.5
119 11.807 7.81053 1.8763 0.5
120 5.55066 9.31255 4.08565 0.5
121 11.9506 13.0019 11.2464 0.5
122 2.00685 3.02639 2.18396 0.5
123 11.9458 1.91442 8.69529 0.5
124 10.3544 11.1615 11.8168 0.5
125 4.87442 12.3329 3.74308 0.5
126 11.1139 11.3774 13.4983 0.5
127 7.416 10.2863 10.9823 0.5
128 4.83822 3.27378 7.4809 0.5
129 2.34913 6.31303 11.5228 0.5
130 1.73685 11.955 11.0588 0.5
131 7.89371 2.21143 2.06165 0.5
132 5.61708 12.1975 2.14266 0.5
133 1.35496 10.9322 10.9257 0.5
134 11.0499 11.7492 3.67705 0.5
135 12.1692 1.51928 6.00654 0.5
136 8.29386 4.72378 4.38217 0.5
137 3.34043 12.6398 5.92679 0.5
138 7.17052 12.229 13.2021 0.5
139 5.50832 13.3558 13.445 0.5
140 5.03119 3.95053 4.06082 0.5
141 1.30517 3.68155 3.63491 0.5
142 9.92861 2.32803 12.381 0.5
143 1.06179 12.6686 0.480219 0.5
144 8.67357 12.7607 8.8863 0.5
145 6.67201 6.8018 2.23561 0.5
146 10.0252 8.93752 8.63039 0.5
147 4.34937 6.57426 0.564437 0.5
148 12.4145 0.350614 11.4162 0.5
149 8.30598 6.74577 10.4874 0.5
150 12.811 11.7864 3.45908 0.5
151 6.78704 12.4661 9.84932 0.5
152 3.66565 4.34684 11.6674 0.5
153 12.0652 8.00599 7.7989 0.5
154 2.45652 2.07932 2.10692 0.5
155 2.12675 8.88778 11.4642 0.5
156 7.95207 11.9099 0.166717 0.5
157 1.17964 0.369419 3.14678 0.5
158 1.54226 9.76477 9.03213 0.5
159 3.93138 2.03715 9.02549 0.5
160 9.59391 0.384186 11.1373 0.5
161 12.6022 2.66962 10.1021 0.5
162 6.39088 2.92572 7.9209 0.5
163 11.4759 9.75187 1.13728 0.5
164 9.72701 3.21097 11.3866 0.5
165 6.98578 11.0867 10.7547 0.5
166 10.7775 12.6506 7.01691 0.5
167 11.1501 8.01831 8.20337 0.5
168 1.23448 2.97504 7.64548 0.5
169 10.2748 11.1165 12.8771 0.5
170 3.46297 6.52216 0.0695988 0.5
171 10.856 5.19214 1.08185 0.5
172 12.1063 7.43587 10.131 0.5
173 8.74313 10.1568 1.85199 0.5
174 4.83159 1.41615 13.2554 0.5
175 2.34665 6.50498 4.20132 0.5
176 3.73412 5.94621 3.25438 0.5
177 9.18526 4.53083 6.13181 0.5
178 5.53482 3.12098 4.15556 0.5
179 13.242 6.21563 0.950408 0.5
180 9.34984 3.17716 12.3701 0.5
181 10.8074 11.1648 9.74852 0.5
182 3.13531 11.7298 1.35837 0.5
183 8.2339 6.99978 6.38883 0.5
184 10.7676 5.60636 8.92127 0.5
185 8.77127 13.4071 11.4034 0.5
186 4.89308 8.32703 3.04322 0.5
187 5.52826 0.656273 12.9242 0.5
188 4.68397 5.89343 6.67323 0.5
189 0.66117 10.7334 6.56437 0.5
190 9.52925 12.8428 3.36248 0.5
191 9.34407 7.47828 3.84957 0.5
192 10.159 1.0559 13.4095 0.5
193 11.3908 1.71688 9.5021 0.5
194 9.51485 13.0373 10.6738 0.5
195 0.215807 10.0855 12.3853 0.5
196 9.03247 0.730792 4.35502 0.5
197 2.86902 6.51776 8.16973 0.5
198 5.93647 6.0244 12.6655 0.5
199 11.6323 0.106524 8.60304 0.5
200 7.05281 6.71102 1.29912 0.5
201 13.5464 4.27555 7.5898 0.5
202 6.03721 0.579399 7.17799 0.5
203 1.69957 3.44423 1.32805 0.5
204 2.43879 7.99838 8.57445 0.5
205 12.7345 13.4694 3.79179 0.5
206 0.813563 1.41713 9.97008 0.5
207 4.12126 12.0568 8.85862 0.5
208 9.36799 3.95539 5.31385 0.5
209 5.2977 2.57426 3.36751 0.5
210 4.06562 6.55905 5.25357 0.5
211 4.32828 3.93781 10.2216 0.5
212 3.17796 5.69189 4.11182 0.5
213 3.33042 1.88667 6.04659 0.5
214 10.242 4.18887 11.2189 0.5
215 8.09806 6.73097 1.44645 0.5
216 6.38226 8.28196 0.291735 0.5
217 4.38209 11.6892 4.40008 0.5
218 6.63143 8.29586 4.89116 0.5
219 9.2581 1.01737 3.2708 0.5
220 7.19606 2.68247 10.1132 0.5
221 2.83665 3.49607 5.63023 0.5
222 6.81895 11.1904 5.24397 0.5
223 4.69996 9.21676 3.36894 0.5
224 13.0738 9.25773 3.39553 0.5
225 7.38335 11.8133 11.2466 0.5
226 10.7556 6.25518 13.392 0.5
227 13.1104 7.19748 9.91252 0.5
228 4.57614 11.8768 5.347 0.5
229 5.27296 4.30794 6.18815 0.5
230 6.10012 9.37578 9.08235 0.5
231 8.2765 5.68396 9.19338 0.5
232 7.98247 4.55473 12.7017 0.5
233 1.04693 0.45852 9.96003 0.5
234 11.5692 1.88433 5.23141 0.5
235 1.46933 10.6703 3.48515 0.5
236 10.5277 6.14837 0.812425 0.5
237 5.14645 7.80943 6.33559 0.5
238 0.438153 12.3297 6.10199 0.5
239 9.97393 8.24803 3.86268 0.5
240 1.35931 4.34824 13.1137 0.5
241 3.81671 5.73284 0.749737 0.5
242 2.77617 0.514979 2.63145 0.5
243 2.78732 9.65594 3.09104 0.5
244 3.7721 11.8501 6.09593 0.5
245 1.64369 11.3864 11.963 0.5
246 9.74258 10.0131 8.34077 0.5
247 3.48781 0.517936 10.2747 0.5
248 7.66432 2.64413 2.8924 0.5
249 10.4331 1.93144 13.1754 0.5
250 9.91388 1.84268 0.420478 0.5
251 4.95798 9.93363 11.7014 0.5
252 8.47173 8.5169 12.9157 0.5
253 1.75952 8.72361 1.40147 0.5
254 11.0716 2.91947 2.9119 0.5
255 8.37467 9.64702 2.48392 0.5
256 1.05705 12.9409 3.1218 0.5
257 0.854093 3.80618 7.05319 0.5
258 12.8622 7.37029 5.82233 0.5
259 4.771 4.49361 9.51686 0.5
260 6.48911 11.5499 9.94667 0.5
261 10.9914 2.77429 6.4869 0.5
262 7.2348 11.9602 5.50393 0.5
263 2.5805 4.07576 8.32118 0.5
264 10.3018 10.6961 8.94137 0.5
265 1.208 3.98185 4.62054 0.5
266 3.78538 13.5392 6.08778 0.5
267 5.34138 7.41913 8.83697 0.5
268 6.87176 2.48337 2.17943 0.5
269 9.16642 0.0910645 8.6757 0.5
270 6.58613 9.94153 8.33051 0.5
271 10.4985 11.6683 7.17696 0.5
272 6.3519 9.06382 0.882601 0.5
273 7.75688 4.69265 3.62259 0.5
274 10.3771 4.60691 9.04007 0.5
275 3.01528 10.8093 1.00516 0.5
276 4.37624 2.31859 0.0223517 0.5
277 7.51719 5.33123 13.1903 0.5
278 11.249 10.6156 0.609998 0.5
279 8.85951 11.2967 6.05733 0.5
280 4.73811 12.6482 1.87146 0.5
281 6.39781 2.57189 10.7705 0.5
282 0.299124 11.4053 1.21465 0.5
283 5.15967 5.79885 1.75675 0.5
284 2.11964 10.8577 0.519883 0.5
285 3.56105 9.77345 5.75498 0.5
286 2.80483 1.30269 12.6787 0.5
287 7.65023 7.00513 7.1729 0.5
288 5.66089 0.755376 6.26507 0.5
289 2.40786 10.7002 3.23861 0.5
290 1.38772 12.7586 6.20037 0.5
291 5.22838 1.00989 5.42613 0.5
292 4.26819 3.09449 12.8705 0.5
293 10.5172 5.79138 3.87729 0.5
294 2.67609 10.2161 6.26718 0.5
295 2.97271 1.74829 6.91704 0.5
296 0.163331 4.56702 6.66038 0.5
297 10.3789 10.2711 11.3783 0.5
298 9.84873 4.6218 11.9576 0.5
299 2.12259 0.598883 13.0673 0.5
300 9.85781 3.83119 1.44311 0.5
301 5.70727 7.25428 11.6359 0.5
302 2.97709 8.56827 3.26667 0.5
303 12.2527 9.01017 2.87885 0.5
304 0.206172 7.61985 6.35054 0.5
305 7.95524 12.6438 8.15105 0.5
306 11.019 8.30945 1.48981 0.5
307 2.40113 7.10112 3.38596 0.5
308 0.0498906 9.91217 11.4096 0.5
309 13.3475 13.1434 12.6927 0.5
310 9.22823 13.2657 4.28975 0.5
311 0.199162 5.92629 6.63015 0.5
312 7.46736 11.8596 10.2071 0.5
313 1.34684 10.3576 4.27216 0.5
314 6.07885 12.114 9.11354 0.5
315 12.7536 5.30394 1.27649 0.5
316 8.37928 5.77053 8.15003 0.5
317 13.5412 8.3031 3.78605 0.5
318 0.333317 5.2489 5.73824 0.5
319 10.7653 11.5021 0.862989 0.5
320 5.46635 3.48417 6.71 0.5
321 2.02003 12.5616 3.2458 0.5
322 10.2827 13.4894 1.08492 0.5
323 3.61725 1.04543 2.8103 0.5
324 10.729 3.67524 3.6575 0.5
325 1.57649 4.93209 0.381163 0.5
326 10.2327 12.9805 0.201321 0.5
327 8.46174 2.82608 7.62615 0.5
328 11.7833 7.55023 12.9527 0.5
329 8.57478 2.49051 9.23944 0.5
330 8.19793 0.885862 5.02583 0.5
331 4.7121 3.03496 2.78706 0.5
332 11.9716 0.988484 9.12055 0.5
333 13.1084 1.6068 2.58978 0.5
334 4.24307 6.08722 1.51961 0.5
335 9.82623 0.359644 4.82249 0.5
336 4.83731 1.90769 8.52565 0.5
337 11.844 0.893071 11.953 0.5
338 7.97643 5.8527 10.1866 0.5
339 9.95973 4.16446 2.39089 0.5
340 12.5389 3.68337 11.5887 0.5
341 8.50259 0.093882 9.43699 0.5
342 6.1138 0.49867 5.55749 0.5
343 7.2965 5.72903 9.36357 0.5
344 5.07102 6.80414 6.59865 0.5
345 8.83151 7.79747 6.01852 0.5
346 1.13462 7.26078 5.71214 0.5
347 13.213 11.6769 0.493433 0.5
348 1.43585 3.90399 0.47204 0.5
349 7.65129 6.16359 6.54309 0.5
350 8.63575 7.43968 11.17 0.5
351 2.83787 9.25869 11.9435 0.5
352 8.38108 12.277 7.34967 0.5
353 8.50607 7.37079 0.636983 0.5
354 2.18773 2.9452 5.39893 0.5
355 1.64592 7.21247 3.90817 0.5
356 11.9592 13.3858 4.46871 0.5
357 6.531 12.5557 3.77808 0.5
358 3.53348 1.18156 9.5271 0.5
359 7.08492 9.31126 8.94536 0.5
360 13.0048 4.19769 6.0621 0.5
361 3.6798 1.00207 7.36174 0.5
362 1.5112 1.08537 9.42828 0.5
363 10.472 12.4834 0.967708 0.5
364 3.20168 7.74467 1.27723 0.5
365 2.18663 7.91068 1.01752 0.5
366 6.40181 8.86712 8.19095 0.5
367 10.2692 11.8861 0.0744756 0.5
368 5.80103 4.46031 9.3611 0.5
369 1.77477 3.18463 4.55867 0.5
370 0.0214944 10.2019 5.80582 0.5
371 9.77644 0.247764 3.80058 0.5
372 0.176899 4.93635 3.07307 0.5
373 4.82582 2.36921 12.7483 0.5
374 0.735337 9.35871 12.692 0.5
375 0.907253 9.50753 8.34576 0.5
376 2.28183 10.9119 4.2202 0.5
377 7.72962 5.54269 3.9748 0.5
378 6.13173 9.10628 13.3821 0.5
379 4.8051 5.6477 0.759685 0.5
380 7.74335 4.57903 0.505718 0.5
381 9.92365 3.36979 8.24042 0.5
382 9.58465 2.94148 7.43105 0.5
383 2.20475 4.22922 13.5367 0.5
384 5.67507 10.1138 13.1905 0.5
385 12.9894 10.8638 1.15447 0.5
386 13.3366 4.27012 3.79282 0.5
387 1.85053 7.06107 11.0907 0.5
388 1.58186 1.99263 9.98309 0.5
389 4.99415 9.9837 10.7249 0.5
390 5.27422 4.28354 10.2761 0.5
391 7.14395 0.808006 2.15946 0.5
392 13.0784 5.06826 2.30598 0.5
393 3.18984 4.6185 8.9215 0.5
394 9.00651 9.22981 8.13882 0.5
395 1.51179 0.130378 9.07713 0.5
396 0.372399 2.01391 2.30853 0.5
397 7.26628 1.69114 1.64475 0.5
398 9.1636 12.0322 2.79414 0.5
399 0.656209 4.50397 3.90192 0.5
400 7.21257 9.00416 5.23453 0.5
401 9.70773 2.65633 13.3828 0.5
402 4.62372 7.25214 5.83452 0.5
403 6.19581 13.2618 7.36944 0.5
404 11.2102 11.0815 12.4604 0.5
405 12.4587 6.20344 0.166524 0.5
406 6.79928 3.40853 1.50254 0.5
407 2.00441 11.5698 3.56169 0.5
408 2.10862 3.97257 5.07574 0.5
409 3.62893 4.47289 10.665 0.5
410 11.4366 2.98516 3.93096 0.5
411 4.38858 5.86041 13.4839 0.5
412 5.2806 0.739276 0.306974 0.5
413 3.78754 6.53716 8.63272 0.5
414 3.01843 8.78339 11.0516 0.5
415 8.35933 10.4336 11.2649 0.5
416 8.72119 10.5165 5.47575 0.5
417 0.538961 13.3436 9.38972 0.5
418 9.64732 1.04057 10.3351 0.5
419 2.98198 13.1914 10.6841 0.5
420 3.56505 0.124343 7.06288 0.5
421 13.3031 5.15295 9.56261 0.5
422 8.6918 4.73418 5.34379 0.5
423 12.4001 0.138145 2.85562 0.5
424 2.69902 3.23679 4.65659 0.5
425 8.4174 8.43253 11.2269 0.5
426 0.705306 12.8436 7.811 0.5
427 7.42394 2.74565 1.26309 0.5
428 0.772674 8.12625 9.38456 0.5
429 11.3385 5.62982 8.01273 0.5
430 9.64589 13.0858 11.6456 0.5
431 2.30474 5.06247 8.55287 0.5
432 12.9794 2.26957 1.92887 0.5
433 7.22272 11.3045 0.125257 0.5
434 0.123488 3.08588 13.0884 0.5
435 10.9902 9.2255 1.70879 0.5
436 7.07846 5.3662 10.1659 0.5
437 4.13997 9.18864 6.47742 0.5
438 5.72203 3.66002 7.72263 0.5
439 11.0483 10.3098 10.5387 0.5
440 9.46125 10.4118 6.14997 0.5
441 6.03433 1.45358 5.75841 0.5
442 1.12502 7.577 6.6937 0.5
443 1.12233 12.1242 1.3126 0.5
444 9.2925 8.90599 13.0798 0.5
445 5.06916 8.50736 3.93368 0.5
446 3.10985 6.45683 4.78006 0.5
447 2.05687 9.47988 6.62631 0.5
448 5.60997 9.74057 0.594519 0.5
449 3.72001 12.4963 10.7932 0.5
450 3.26525 2.16756 1.55586 0.5
451 7.67873 3.69284 1.10341 0.5
452 2.03289 8.70517 0.453696 0.5
453 5.07043 9.14042 2.33938 0.5
454 2.6972 13.3889 3.39048 0.5
455 1.39772 2.42327 11.5819 0.5
456 8.21467 13.5524 8.43406 0.5
457 12.3146 11.0686 8.98591 0.5
458 4.33171 0.649671 9.70456 0.5
459 12.9754 2.06459 6.19289 0.5
460 12.4871 7.15924 0.239443 0.5
461 11.182 8.36089 11.1918 0.5
462 9.82008 3.88357 7.47111 0.5
463 6.4879 3.411 6.99834 0.5
464 0.174661 7.94353 10.1174 0.5
465 5.58041 10.4241 12.1779 0.5
466 2.82549 13.3834 6.50084 0.5
467 1.27961 8.16209 0.787256 0.5
468 13.4935 7.8497 9.11926 0.5
469 2.20087 2.9405 11.2235 0.5
470 1.44474 6.67925 11.962 0.5
471 4.08342 1.46283 10.3447 0.5
472 10.8866 6.76245 3.87136 0.5
473 11.2932 8.49516 7.25223 0.5
474 2.74164 7.55059 9.43183 0.5
475 6.21597 3.86462 6.16043 0.5
476 6.7349 0.976322 10.997 0.5
477 5.87074 7.78971 9.60646 0.5
478 3.32559 12.4665 0.697437 0.5
479 8.3797 7.54951 13.1955 0.5
480 4.15042 10.3862 8.41973 0.5
481 2.44987 3.55917 0.658374 0.5
482 11.1217 13.1498 0.860773 0.5
483 8.87346 11.1217 2.23332 0.5
484 10.1491 7.28201 4.34083 0.5
485 4.44875 5.69961 2.4878 0.5
486 3.57156 11.1754 8.78462 0.5
487 4.33028 2.66099 8.31052 0.5
488 5.37425 5.20649 6.855 0.5
489 3.10004 0.769814 3.54479 0.5
490 0.135837 12.7524 8.75732 0.5
491 2.75567 7.27966 11.4974 0.5
492 1.30775 4.97079 12.2508 0.5
493 12.0506 8.40012 10.6108 0.5
494 6.84914 5.09663 0.396379 0.5
495 6.62759 7.46199 0.746123 0.5
496 7.22174 0.294972 0.0299202 0.5
497 4.50751 4.84128 6.48828 0.5
498 3.6792 12.1844 5.09875 0.5
499 6.71015 1.87128 11.3623 0.5
500 10.1053 9.62244 6.03603 0.5
501 4.90629 2.26319 4.3109 0.5
502 9.31998 10.4813 9.17666 0.5
503 6.9993 5.82367 12.4661 0.5
504 2.34663 1.42159 -0.00814409 0.5
505 4.37115 2.90131 11.9819 0.5
506 3.9099 11.1193 1.48594 0.5
507 7.71842 3.86809 4.19897 0.5
508 0.283692 1.56103 6.08904 0.5
509 5.11391 5.3721 5.84661 0.5
510 7.58945 10.9152 11.6574 0.5
511 6.61966 0.789135 6.42281 0.5
512 8.61541 11.1875 3.14105 0.5
513 4.23902 4.69166 2.51821 0.5
514 5.91707 8.08211 1.16234 0.5
515 1.81719 9.94145 2.93373 0.5
516 5.68627 8.93102 3.15313 0.5
517 0.437279 3.635 4.14545 0.5
518 2.22365 7.08473 8.67775 0.5
519 5.14429 7.31387 10.0126 0.5
520 2.14647 0.617227 0.603572 0.5
521 11.4319 5.99192 4.41574 0.5
522 3.71446 8.70797 11.7159 0.5
523 12.7747 7.55915 3.46293 0.5
524 1.04605 0.921117 5.82924 0.5
525 11.0547 8.933 0.762116 0.5
526 8.75586 11.982 8.20774 0.5
527 7.34481 10.9894 1.9497 0.5
528 1.42753 0.069507 0.241516 0.5
529 0.165786 12.4 1.04663 0.5
530 11.8718 2.60203 9.38027 0.5
531 11.2273 7.92824 10.3457 0.5
532 6.36507 9.31846 4.68189 0.5
533 5.86388 7.49052 10.6211 0.5
534 2.21283 12.8413 11.3736 0.5
535 8.16376 12.659 13.1294 0.5
536 1.38529 12.3599 3.97022 0.5
537 2.80726 10.9756 9.33667 0.5
538 7.677 10.0683 1.71708 0.5
539 1.99861 8.06379 3.41429 0.5
540 0.876836 3.8398 7.94477 0.5
541 4.11534 11.8953 2.15668 0.5
542 8.12259 0.0257525 13.4541 0.5
543 13.3595 6.03844 5.73411 0.5
544 8.21698 2.2397 8.37069 0.5
545 1.58889 7.30375 2.84559 0.5
546 1.08137 0.588434 12.9169 0.5
547 10.6933 5.42476 4.84197 0.5
548 11.8038 12.7227 7.21885 0.5
549 12.8956 10.2974 8.47929 0.5
550 12.6098 12.7607 3.17117 0.5
551 6.39173 1.54476 2.0931 0.5
552 3.64613 7.43776 0.465991 0.5
553 10.5033 6.14556 8.11042 0.5
554 3.76083 12.7994 6.70631 0.5
555 0.40771 3.83967 3.13377 0.5
556 7.3944 13.2042 12.8372 0.5
557 7.56776 11.4859 1.09321 0.5
558 4.64548 1.63068 9.56363 0.5
559 3.1214 10.3818 8.4209 0.5
560 6.84008 2.81679 11.8047 0.5
561 8.05333 8.92678 12.0216 0.5
562 12.8236 2.48496 12.9678 0.5
563 8.42013 6.20203 7.15779 0.5
564 6.45623 5.21019 13.053 0.5
565 9.96389 4.99634 5.45456 0.5
566 6.99411 1.76688 10.4566 0.5
567 12.6516 4.81005 3.28784 0.5
568 7.64887 1.43583 11.1505 0.5
569 11.3521 6.71075 11.5092 0.5
570 12.73 7.62351 2.36448 0.5
571 2.07301 0.680666 3.40272 0.5
572 4.22692 3.2168 0.337203 0.5
573 0.689216 13.1844 6.70416 0.5
574 8.95238 8.4019 3.69942 0.5
575 8.84349 13.1868 2.68361 0.5
576 3.56983 11.0183 7.76247 0.5
577 4.22708 8.74233 2.59993 0.5
578 2.27408 11.3695 1.31345 0.5
579 12.8475 9.96464 12.2295 0.5
580 2.48531 5.65749 7.76519 0.5
581 1.10923 12.7302 8.75451 0.5
582 2.81188 12.1358 10.8085 0.5
583 3.00318 10.7243 0.0257795 0.5
584 10.5029 6.36597 4.66818 0.5
585 13.0812 5.23643 6.279 0.5
586 0.484737 5.78821 9.60706 0.5
587 12.8787 2.97403 1.091 0.5
588 0.083093 12.5406 0.00677564 0.5
589 0.06587 9.63933 8.88766 0.5
590 3.48314 11.9746 8.07715 0.5
591 3.57599 3.50983 12.1391 0.5
592 10.448 11.1216 10.7747 0.5
593 6.43346 9.67442 7.37677 0.5
594 13.2402 10.8482 6.57294 0.5
595 12.7248 10.0427 6.25349 0.5
596 9.28192 9.38605 2.35144 0.5
597 2.61991 10.0206 9.28027 0.5
598 7.83549 11.0918 5.686 0.5
599 11.3558 10.9387 8.89113 0.5
600 12.2623 6.74392 12.8489 0.5
601 2.71358 6.0431 3.26474 0.5
602 0.240545 6.47795 10.2843 0.5
603 2.40371 7.97961 10.9753 0.5
604 5.31989 0.977706 10.1128 0.5
605 7.47276 1.90722 12.0303 0.5
606 11.5266 9.11624 5.32338 0.5
607 8.68129 10.0833 8.55242 0.5
608 8.27624 13.337 12.3495 0.5
609 1.70644 11.8452 0.502953 0.5
610 1.43337 8.69378 8.70081 0.5
611 0.369577 8.72465 8.57329 0.5
612 5.76026 0.11038 2.75433 0.5
613 3.68947 5.70959 4.94231 0.5
614 4.05206 13.3034 10.2244 0.5
615 3.65176 10.3654 9.27668 0.5
616 0.311406 6.47977 1.64783 0.5
617 6.6385 5.94261 2.84624 0.5
618 11.7695 7.15102 8.18129 0.5
619 12.653 4.40874 12.268 0.5
620 0.861574 10.6738 11.7764 0.5
621 2.15491 3.9293 4.09432 0.5
622 5.5849 8.42479 8.8193 0.5
623 12.9123 7.98078 4.48456 0.5
624 13.001 6.00865 1.88856 0.5
625 2.13597 3.59745 10.5033 0.5
626 2.63734 3.744 1.64452 0.5
627 9.74827 6.17456 0.175873 0.5
628 13.187 4.54264 10.4275 0.5
629 4.98037 4.54767 3.23899 0.5
630 3.36093 3.25621 0.991082 0.5
631 9.22122 1.06961 0.185793 0.5
632 6.60446 13.0377 13.5532 0.5
633 10.0774 0.913655 0.831651 0.5
634 10.0611 10.4613 9.97069 0.5
635 9.43222 1.6588 13.0251 0.5
636 10.2087 3.72096 12.1719 0.5
637 0.0974093 10.0061 6.92291 0.5
638 5.07331 1.28385 4.35785 0.5
639 9.18942 7.14936 10.3689 0.5
640 2.26144 4.62352 7.57362 0.5
641 7.29738 7.03823 6.21338 0.5
642 11.4909 5.78613 0.359456 0.5
643 11.0708 0.531733 7.82871 0.5
644 7.02414 3.39609 10.915 0.5
645 0.18906 11.2855 5.86803 0.5
646 9.06647 8.72642 12.1046 0.5
647 8.90673 4.79589 12.1538 0.5
648 7.85536 9.95782 11.9585 0.5
649 4.90017 7.55862 10.9596 0.5
650 2.72812 0.731018 7.17183 0.5
651 0.933083 6.0831 5.93285 0.5
652 5.08839 4.26807 7.2067 0.5
653 0.367685 5.69309 2.39479 0.5
654 4.25234 10.6156 11.0232 0.5
655 11.6462 11.6257 9.49173 0.5
656 1.28229 11.1296 1.07446 0.5
657 11.1921 13.5247 6.90474 0.5
658 9.62463 10.0509 5.21988 0.5
659 1.18832 9.60096 3.61046 0.5
660 0.619036 0.76203 9.19016 0.5
661 1.72959 7.81793 9.27526 0.5
662 3.7762 11.2397 5.21525 0.5
663 5.77464 13.0055 3.65639 0.5
664 4.84928 6.29189 5.77404 0.5
665 10.5021 11.1292 3.2686 0.5
666 5.07247 12.4275 9.34869 0.5
667 10.5938 4.05843 8.16412 0.5
668 5.40451 3.56464 3.27644 0.5
669 8.14669 10.6108 2.46572 0.5
670 8.82136 13.0308 7.85604 0.5
671 6.9764 8.32209 1.08718 0.5
672 3.09273 2.50744 5.2182 0.5
673 5.43724 8.7031 0.509859 0.5
674 3.40337 7.91358 11.097 0.5
675 2.95325 3.69254 11.159 0.5
676 1.85375 13.4956 2.80409 0.5
677 3.69674 9.26056 3.28853 0.5
678 12.8657 7.76264 10.7598 0.5
679 10.5403 12.1726 6.1877 0.5
680 4.87264 11.6716 1.59713 0.5
681 4.25859 1.01317 8.73558 0.5
682 2.31985 2.68187 10.2774 0.5
683 1.35409 5.68516 11.4291 0.5
684 11.8522 13.2023 3.52942 0.5
685 12.4099 12.5348 4.08538 0.5
686 10.7575 7.397 11.1559 0.5
687 5.10513 9.34257 13.4042 0.5
688 0.978995 8.26262 5.9636 0.5
689 3.1611 2.93691 1.98598 0.5
690 4.57809 8.37394 6.89287 0.5
691 13.3234 10.7957 11.7356 0.5
692 4.66902 0.399501 13.2587 0.5
693 11.9389 6.13285 12.0506 0.5
694 5.61477 8.74088 9.70499 0.5
695 12.077 8.02857 2.8558 0.5
696 10.6262 3.20372 7.47167 0.5
697 13.5454 9.57388 7.91238 0.5
698 6.23842 11.3268 6.90054 0.5
699 2.94888 8.22387 0.3986 0.5
700 12.5498 8.53953 3.70583 0.5
701 9.25681 7.94437 12.7874 0.5
702 4.10497 1.67865 8.08014 0.5
703 1.98395 4.97807 12.9266 0.5
704 9.12297 2.71154 8.42381 0.5
705 10.7153 7.1532 8.07908 0.5
706 6.10248 10.8693 5.99756 0.5
707 3.7924 4.60183 9.73706 0.5
708 12.8414 1.86207 0.930248 0.5
709 9.5978 0.197146 0.233422 0.5
710 7.05813 6.22844 3.74899 0.5
711 0.599657 13.3472 13.3232 0.5
712 12.8555 2.42286 9.08307 0.5
713 8.20206 9.73637 7.7302 0.5
714 12.7625 4.44828 6.96017 0.5
715 13.0999 8.35009 2.93007 0.5
716 2.04088 2.02389 10.9781 0.5
717 2.74988 7.20441 0.576822 0.5
718 11.8849 0.0610849 7.6182 0.5
719 4.60845 10.8028 12.0368 0.5
720 12.6026 11.7868 2.51094 0.5
721 11.1961 6.45543 8.61142 0.5
722 6.24944 13.4465 12.7227 0.5
723 3.06643 11.9585 9.09538 0.5
724 9.31821 13.2172 9.63832 0.5
725 2.37947 1.92062 5.63352 0.5
726 7.57214 2.68522 9.10268 0.5
727 5.13251 3.03285 13.4587 0.5
728 12.469 2.26757 5.17413 0.5
729 10.1894 4.53581 0.672761 0.5
730 7.74024 5.31848 7.07279 0.5
731 10.6698 0.336593 0.278844 0.5
732 1.68423 3.34041 8.42941 0.5
733 8.19948 10.9493 0.439176 0.5
734 9.97385 11.3145 6.22906 0.5
735 3.13891 5.71202 8.5405 0.5
736 4.54452 4.33355 11.1003 0.5
737 4.33151 3.80516 3.16663 0.5
738 1.86319 7.69133 11.7993 0.5
739 6.94207 0.235597 7.14661 0.5
740 11.9365 12.7661 8.25121 0.5
741 7.8617 4.25163 5.04314 0.5
742 5.50074 9.11171 1.42521 0.5
743 7.25221 8.13481 5.7651 0.5
744 5.2035 3.27365 12.4724 0.5
745 6.40183 6.80292 12.1728 0.5
746 4.88451 8.0862 9.38769 0.5
747 13.3712 0.103392 11.7292 0.5
748 7.27818 9.32692 8.01837 0.5
749 6.35742 9.46501 3.58052 0.5
750 1.43416 1.0878 0.10226 0.5
751 0.15306 8.76009 13.1446 0.5
752 1.79233 1.41081 12.7624 0.5
753 6.54203 2.21191 1.21688 0.5
754 2.49642 12.0216 11.8466 0.5
755 6.79704 4.07666 0.699212 0.5
756 6.67214 7.56602 1.60068 0.5
757 12.0884 7.15733 11.9557 0.5
758 4.56757 12.5948 4.69925 0.5
759 12.52 8.50073 2.02783 0.5
760 7.31816 4.86414 4.54498 0.5
761 3.65919 11.464 0.573761 0.5
762 13.3362 2.52204 0.282695 0.5
763 11.9606 0.589073 3.60285 0.5
764 8.81767 9.38947 3.3142 0.5
765 12.4077 2.53239 0.299438 0.5
766 7.90485 3.263 5.05515 0.5
767 3.47187 6.69625 1.12007 0.5
768 12.8892 13.2208 10.9799 0.5
769 11.1466 1.84451 6.18047 0.5
770 10.8175 8.1038 6.50054 0.5
771 7.83776 7.86073 6.49219 0.5
772 1.05345 1.95632 10.7794 0.5
773 8.98005 3.64147 8.00081 0.5
774 9.57128 0.248547 2.79924 0.5
775 10.4493 13.3842 11.1261 0.5
776 3.09312 9.34181 6.62042 0.5
777 11.4651 12.5223 4.16418 0.5
778 11.8888 12.1171 3.28822 0.5
779 7.96123 7.5387 5.57557 0.5
780 2.73064 11.3202 8.3505 0.5
781 13.0134 1.10994 6.48349 0.5
782 10.8275 3.22289 4.65039 0.5
783 13.5117 9.20824 12.118 0.5
784 2.30859 2.31956 4.62653 0.5
785 10.6382 9.7286 5.18572 0.5
786 8.63391 3.80366 4.75095 0.5
787 6.24175 12.8332 2.72223 0.5
788 11.8114 7.55681 11.1131 0.5
789 9.4116 3.34889 2.14095 0.5
790 8.63009 0.650685 2.62865 0.5
791 4.72362 6.88185 11.7721 0.5
792 5.75222 2.75246 7.25727 0.5
793 7.17805 8.88029 4.24908 0.5
794 12.9615 0.909694 3.21333 0.5
795 7.74596 8.19059 4.86069 0.5
796 4.58144 11.1346 9.05173 0.5
797 3.97121 3.53849 11.179 0.5
798 2.13328 2.98204 3.7879 0.5
799 13.5708 0.658586 5.64087 0.5
800 0.388904 8.56527 0.497548 0.5
801 7.61203 5.62823 3.00195 0.5
802 5.13527 10.9323 12.8645 0.5
803 11.1612 10.8166 11.4727 0.5
804 13.3042 5.87217 8.86078 0.5
805 8.78253 8.66497 2.78132 0.5
806 3.26495 7.41541 8.63035 0.5
807 3.09505 4.90113 8.01725 0.5
808 2.06081 9.01771 3.32187 0.5
809 9.30592 4.804 11.156 0.5
810 3.21451 12.7561 11.5564 0.5
811 10.157 7.28127 3.33424 0.5
812 2.75792 8.28508 11.8905 0.5
813 7.98912 5.45901 12.337 0.5
814 9.46658 0.272458 5.99221 0.5
815 11.8817 11.766 8.47197 0.5
816 9.29696 7.13095 13.5737 0.5
817 12.0808 11.2015 3.17552 0.5
818 3.84681 10.4319 0.550883 0.5
819 6.26624 13.4928 6.37282 0.5
820 13.3198 12.7248 9.70614 0.5
821 10.8365 2.53179 5.49406 0.5
822 9.17892 0.967011 5.39208 0.5
823 9.98657 0.167867 10.2516 0.5
824 1.6924 8.90756 5.86373 0.5
825 7.99726 1.24261 2.17418 0.5
826 7.19919 13.4045 7.99115 0.5
827 11.0122 0.610103 1.17309 0.5
828 4.97227 3.95745 2.42625 0.5
829 4.78087 2.18767 7.55063 0.5
830 5.17562 11.8989 8.58788 0.5
831 11.0973 13.0644 7.87073 0.5
832 0.903852 5.75453 10.4826 0.5
833 2.41672 11.2193 11.2233 0.5
834 8.94827 2.11819 0.125674 0.5
835 0.931707 5.86041 12.3007 0.5
836 7.88031 9.38662 11.1581 0.5
837 6.81383 3.00017 0.555407 0.5
838 12.6049 13.0093 12.0112 0.5
839 4.37265 5.16011 1.60312 0.5
840 7.55705 12.8809 0.37155 0.5
841 6.70673 10.4511 6.73451 0.5
842 12.6896 3.60688 10.4998 0.5
843 12.3689 2.80329 12.0924 0.5
844 4.81428 3.92656 13.1696 0.5
845 10.1864 5.88593 5.6016 0.5
846 5.83616 12.2818 10.082 0.5
847 4.29522 7.47178 6.83472 0.5
848 4.88133 6.15256 12.5526 0.5
849 0.981001 12.3633 7.01733 0.5
850 10.6681 10.3745 12.2717 0.5
851 5.80379 10.4031 6.77305 0.5
852 7.1886 10.2416 7.65173 0.5
853 4.33843 7.30989 8.97932 0.5
854 9.83738 6.50527 3.81516 0.5
855 9.55998 11.1297 3.01011 0.5
856 1.78917 13.3744 3.75182 0.5
857 10.0585 4.82935 10.4558 0.5
858 7.62411 10.1146 8.50103 0.5
859 11.5899 5.18428 5.10302 0.5
860 10.9303 5.18461 5.85677 0.5
861 11.3468 12.8106 6.20938 0.5
862 11.21 6.94388 10.4093 0.5
863 8.03707 8.54749 5.6687 0.5
864 8.26339 6.7498 7.9397 0.5
865 11.9138 3.71472 12.2846 0.5
866 5.67967 13.1654 1.89823 0.5
867 12.3609 4.04264 13.1824 0.5
868 9.13833 9.42593 9.05102 0.5
869 4.72034 0.93208 12.3983 0.5
870 3.58105 8.44645 6.81678 0.5
871 13.2174 9.0412 4.36677 0.5
872 1.20215 5.39291 13.1186 0.5
873 12.9683 0.614721 2.13751 0.5
874 7.15222 4.89205 12.3834 0.5
875 6.91244 11.8347 4.49421 0.5
876 2.17787 6.05199 8.62031 0.5
877 10.3475 8.02643 7.37709 0.5
878 2.74812 11.5722 0.40952 0.5
879 1.83466 3.83029 7.45677 0.5
880 12.1509 1.0688 2.65327 0.5
881 10.9087 10.4395 13.2552 0.5
882 2.15335 9.97917 3.8179 0.5
883 11.1251 12.3358 0.308692 0.5
884 12.8982 3.34026 0.123981 0.5
885 7.97615 11.089 10.7221 0.5
886 0.167183 3.19071 7.57029 0.5
887 0.669937 13.4774 12.2136 0.5
888 5.19639 4.94098 2.21618 0.5
889 11.3359 4.81085 8.56273 0.5
890 11.5198 8.77353 6.25293 0.5
891 1.73922 6.34853 3.31029 0.5
892 9.34435 0.674307 9.48108 0.5
893 9.65528 4.46551 8.19209 0.5
894 7.59609 7.53901 1.2026 0.5
895 11.8458 8.67354 1.3039 0.5
896 6.9945 12.2479 0.637162 0.5
897 6.6386 13.4726 3.46468 0.5
898 5.25077 12.8637 2.81364 0.5
899 10.4221 5.07129 8.12615 0.5
900 11.7601 10.6884 9.83077 0.5
901 13.5047 5.52795 10.4419 0.5
902 11.3152 6.56405 7.66854 0.5
903 9.67105 8.82712 3.18586 0.5
904 8.40759 3.87616 5.80866 0.5
905 13.2867 6.78303 6.54522 0.5
906 13.0743 5.70842 3.05762 0.5
907 7.17823 4.36319 10.4055 0.5
908 8.89427 0.118389 5.12914 0.5
909 10.0563 3.26282 3.0201 0.5
910 7.43877 2.76524 8.01987 0.5
911 5.44215 6.91074 12.5799 0.5
912 8.76596 9.50645 11.5962 0.5
913 11.7494 5.98337 13.0626 0.5
914 5.17087 13.4319 12.4086 0.5
915 8.21593 2.45339 5.48247 0.5
916 10.5961 9.01739 6.73922 0.5
917 11.7913 13.4353 12.038 0.5
918 7.68596 6.25834 8.60918 0.5
919 12.9918 11.837 1.50468 0.5
920 0.919489 11.6752 10.3431 0.5
921 5.4948 6.12216 7.31733 0.5
922 12.1754 2.84712 11.0422 0.5
923 0.744673 3.01465 8.44714 0.5
924 11.4132 11.2857 10.5752 0.5
925 10.9369 3.87241 2.65134 0.5
926 4.77159 10.2615 0.117758 0.5
927 1.91808 7.83623 6.06556 0.5
928 0.17335 6.86057 5.6174 0.5
929 1.47789 2.83007 10.6522 0.5
930 10.0526 9.76475 9.262 0.5
931 5.53648 9.37098 12.4467 0.5
932 4.10363 8.43156 3.63075 0.5