ITEM: TIMESTEP
510000
ITEM: NUMBER OF ATOMS
1000
ITEM: BOX BOUNDS xy xz yz pp pp pp
0.0000000000000000e+00 1.3572088000000001e+01 0.0000000000000000e+00
0.0000000000000000e+00 1.3572088000000001e+01 0.0000000000000000e+00
0.0000000000000000e+00 1.3572088000000001e+01 0.0000000000000000e+00
ITEM: ATOMS id x y z radius
1 4.59226 3.67906 12.4862 0.5
2 4.97459 11.4304 3.90606 0.5
3 9.1513 10.1873 3.0028 0.5
4 10.0662 6.19455 1.32906 0.5
5 8.39261 7.74051 10.1432 0.5
6 3.99138 12.8744 5.05877 0.5
7 2.89237 8.72174 0.857503 0.5
8 13.1941 11.9135 2.08158 0.5
9 1.83928 8.52469 6.38754 0.5
10 3.71951 13.4421 11.544 0.5
11 0.816109 9.7242 9.11685 0.5
12 10.1991 5.93653 0.426862 0.5
13 8.27309 11.4457 5.05363 0.5
14 10.759 2.15894 3.94652 0.5
15 5.90518 1.79476 4.07536 0.5
16 7.85521 6.35592 9.42888 0.5
17 6.73136 12.4439 10.854 0.5
18 2.76765 8.61383 6.00463 0.5
19 10.2471 5.24326 1.97292 0.5
20 10.248 11.9418 2.75025 0.5
21 2.10833 4.68499 1.12999 0.5
22 1.93841 6.09481 12.6672 0.5
23 1.67568 1.35349 10.3418 0.5
24 7.68174 7.0457 2.25215 0.5
25 0.699768 6.30947 2.28087 0.5
26 10.1205 10.2631 6.19646 0.5
27 11.3593 6.74602 12.4985 0.5
28 4.98756 11.3701 12.2335 0.5
29 0.472116 6.37676 1.42258 0.5
30 8.45832 10.7161 1.65278 0.5
31 0.972363 13.4975 8.29977 0.5
32 9.06522 2.58109 12.3889 0.5
33 13.1492 6.0397 9.69538 0.5
34 3.63333 8.95443 5.61596 0.5
35 11.8474 6.36091 13.2362 0.5
36 8.8675 2.01032 5.46332 0.5
37 0.561061 1.08648 2.60982 0.5
38 2.69666 1.57199 2.13654 0.5
39 10.3007 4.46555 1.37532 0.5
40 5.76554 6.08845 6.67196 0.5
41 7.4328 11.1202 4.59526 0.5
42 6.85593 5.29511 3.65438 0.5
43 5.34307 5.11549 10.2445 0.5
44 4.20248 11.7245 8.34752 0.5
45 7.40941 6.14945 2.34148 0.5
46 10.4922 10.4897 13.4279 0.5
47 2.8058 9.47526 5.36902 0.5
48 7.74073 10.3421 1.0324 0.5
49 5.29898 11.7497 9.5082 0.5
50 6.23092 0.646585 9.98844 0.5
51 13.5631 10.6693 7.58324 0.5
52 6.40424 10.762 7.61527 0.5
53 9.6917 3.77581 1.55579 0.5
54 11.6954 11.5815 4.09952 0.5
55 13.4803 0.842371 6.19449 0.5
56 12.6729 4.33301 3.24982 0.5
57 0.431076 11.6306 11.3004 0.5
58 5.16944 8.31446 10.4554 0.5
59 1.90803 10.9134 11.7309 0.5
60 7.69784 4.76916 9.68391 0.5
61 4.62546 0.204416 11.1258 0.5
62 0.889379 8.82783 1.16714 0.5
63 11.4862 8.58331 1.96227 0.5
64 12.3175 2.16013 9.88441 0.5
65 13.3591 1.81561 4.81652 0.5
66 12.7042 1.30121 1.86053 0.5
67 8.24868 3.21714 8.23359 0.5
68 2.73337 1.75024 3.10297 0.5
69 11.6279 2.63033 10.5012 0.5
70 12.5933 3.72074 9.7862 0.5
71 2.48238 6.17035 8.89827 0.5
72 7.33028 2.05872 11.0205 0.5
73 8.46184 6.37831 8.72585 0.5
74 6.24312 4.46444 10.5318 0.5
75 8.81232 0.113934 10.2985 0.5
76 12.0713 2.91607 13.1315 0.5
77 10.3199 2.50901 3.02912 0.5
78 8.86586 2.91683 5.04417 0.5
79 4.29392 12.2588 5.81318 0.5
80 5.53064 2.81847 8.44424 0.5
81 1.70467 3.1636 12.0407 0.5
82 1.17927 8.81334 0.242426 0.5
83 3.62766 0.593958 6.47458 0.5
84 0.493955 8.80226 9.32686 0.5
85 13.2007 3.74654 6.74604 0.5
86 3.05464 0.627378 0.0336475 0.5
87 4.2131 5.70575 5.99286 0.5
88 6.64744 5.64964 4.59422 0.5
89 11.7823 12.789 7.73629 0.5
90 4.10702 6.18904 4.41086 0.5
91 11.7438 7.70234 12.1731 0.5
92 0.129564 1.42895 1.76475 0.5
93 12.9946 0.29451 12.513 0.5
94 4.68906 9.87083 12.8656 0.5
95 12.5489 1.10457 8.28689 0.5
96 11.6301 2.6293 4.06884 0.5
97 11.6909 2.88797 5.1226 0.5
98 10.8594 9.62153 0.372028 0.5
99 6.20316 8.39882 8.98505 0.5
100 1.14003 6.71809 6.44915 0.5
101 4.62353 11.8813 3.03356 0.5
102 8.61669 7.09587 9.44036 0.5
103 4.47549 4.99824 10.7806 0.5
104 7.15053 11.4318 6.18936 0.5
105 11.8538 12.681 6.69753 0.5
106 5.88215 1.61048 10.2812 0.5
107 12.9695 5.1702 7.50707 0.5
108 13.304 10.923 5.18157 0.5
109 0.669263 12.3502 9.56213 0.5
110 8.10526 9.08955 8.67925 0.5
111 8.78415 13.55 3.37468 0.5
112 6.08235 1.25421 4.87153 0.5
113 0.320061 0.00554723 5.76021 0.5
114 7.27471 6.91184 3.15253 0.5
115 5.61691 6.23572 11.9648 0.5
116 0.167897 5.55796 1.9087 0.5
117 0.881656 1.52597 5.09951 0.5
118 10.7949 9.50266 6.12773 0.5
119 12.1471 7.85172 1.7025 0.5
120 5.4436 9.39949 4.03202 0.5
121 11.4364 13.3618 10.5676 0.5
122 2.16678 3.5642 2.36593 0.5
123 12.056 2.35812 8.89304 0.5
124 10.4183 11.2726 11.5442 0.5
125 4.90958 12.4453 3.89467 0.5
126 11.0771 11.2653 13.1882 0.5
127 7.38694 10.8325 11.4131 0.5
128 4.99728 3.31275 7.74062 0.5
129 2.70393 6.37111 11.9392 0.5
130 1.20338 12.262 10.893 0.5
131 7.98899 2.31501 2.22535 0.5
132 5.43978 11.984 2.42945 0.5
133 1.28052 11.237 10.8909 0.5
134 10.9221 11.8548 3.59008 0.5
135 11.9575 2.13164 5.64281 0.5
136 8.35176 4.82895 4.41581 0.5
137 3.23928 12.48 5.68752 0.5
138 7.47447 11.926 13.2976 0.5
139 6.16539 0.0416899 0.159822 0.5
140 4.74725 3.57099 4.4964 0.5
141 1.36221 4.1873 4.47212 0.5
142 10.0306 2.81732 12.6818 0.5
143 0.579154 13.083 13.5366 0.5
144 8.71893 12.7267 8.82425 0.5
145 6.59653 6.88124 2.2987 0.5
146 9.716 8.78846 8.5362 0.5
147 4.47962 6.62083 0.617284 0.5
148 12.1158 0.468844 11.1344 0.5
149 8.21088 6.73845 10.3044 0.5
150 12.5549 11.4944 3.59755 0.5
151 6.55836 12.6734 9.82543 0.5
152 3.9107 4.32232 12.1093 0.5
153 12.3238 7.82499 7.35077 0.5
154 2.36913 2.54607 2.49296 0.5
155 2.16817 8.50583 10.7592 0.5
156 8.21433 11.8672 0.332397 0.5
157 1.30825 0.454385 3.28652 0.5
158 1.36596 9.82343 8.30591 0.5
159 3.94424 2.20677 9.28781 0.5
160 9.44555 0.468526 11.0271 0.5
161 12.5375 2.98568 10.3688 0.5
162 6.55179 2.83096 8.06147 0.5
163 11.7116 9.58621 0.811599 0.5
164 9.47959 3.50462 10.9993 0.5
165 6.67497 11.4189 10.805 0.5
166 11.0358 12.9501 7.07965 0.5
167 11.5595 8.11138 8.01848 0.5
168 0.922915 2.95351 7.3816 0.5
169 10.2957 10.9255 12.527 0.5
170 3.72532 6.41719 0.0777908 0.5
171 10.6981 5.43319 1.06994 0.5
172 11.8672 7.95436 10.1949 0.5
173 8.99943 10.0873 2.02882 0.5
174 4.75985 0.729882 13.2775 0.5
175 2.46978 6.32932 4.05097 0.5
176 3.94927 5.603 3.47932 0.5
177 8.62247 4.19853 6.28278 0.5
178 5.30766 2.67289 4.40517 0.5
179 13.148 5.91964 1.2226 0.5
180 9.81476 2.58567 11.6951 0.5
181 10.8362 11.1948 9.38057 0.5
182 3.08552 11.8184 1.51601 0.5
183 8.26908 6.84521 6.22107 0.5
184 10.7737 5.95655 9.28755 0.5
185 8.71599 13.2781 11.2756 0.5
186 4.80296 8.45744 2.81947 0.5
187 5.64584 0.29763 13.0073 0.5
188 4.72333 5.94147 6.83754 0.5
189 0.470868 10.8928 6.64909 0.5
190 9.54857 12.9102 3.31909 0.5
191 9.42581 7.24185 3.62341 0.5
192 10.3351 1.26415 13.358 0.5
193 11.3126 2.18234 9.57996 0.5
194 9.51677 13.0877 10.6792 0.5
195 0.423447 10.1615 12.4263 0.5
196 8.91134 0.650379 4.19891 0.5
197 2.93016 6.09726 8.02098 0.5
198 6.17232 6.06905 12.7051 0.5
199 11.6321 0.774791 8.49742 0.5
200 7.23076 6.73346 1.51427 0.5
201 13.2726 4.08594 7.60692 0.5
202 5.9656 0.169175 7.21293 0.5
203 1.62124 3.76705 1.46281 0.5
204 2.83686 7.74748 8.51396 0.5
205 13.034 13.1647 3.56608 0.5
206 0.844263 1.47738 9.81709 0.5
207 3.80608 11.9213 9.20221 0.5
208 9.25819 3.71462 5.53271 0.5
209 5.63394 2.44699 3.41943 0.5
210 4.18286 6.52947 5.4324 0.5
211 4.30468 3.97484 10.6172 0.5
212 3.24741 5.6945 4.20068 0.5
213 3.15119 1.38095 5.96893 0.5
214 9.91472 4.24106 11.4421 0.5
215 8.09592 6.38474 1.60508 0.5
216 6.46778 8.36497 0.316161 0.5
217 4.26665 11.0778 4.58505 0.5
218 6.53952 8.20153 4.84253 0.5
219 8.96939 0.935858 3.22603 0.5
220 7.44669 2.14054 9.91482 0.5
221 3.29146 3.00275 5.1328 0.5
222 6.63485 11.2981 5.22413 0.5
223 4.60923 9.30474 3.34 0.5
224 12.7027 9.43195 3.593 0.5
225 7.55006 11.8604 10.9328 0.5
226 10.8179 6.49856 13.3432 0.5
227 13.3213 7.33175 10.1203 0.5
228 4.45054 11.3107 5.47918 0.5
229 5.38036 4.4169 6.46021 0.5
230 6.02734 9.36836 8.97593 0.5
231 8.19294 5.49188 9.03483 0.5
232 8.10797 4.687 13.0968 0.5
233 1.11138 0.440042 9.89853 0.5
234 11.3128 1.99951 4.84822 0.5
235 1.33108 10.9368 3.29289 0.5
236 10.8918 6.51329 0.868287 0.5
237 5.11805 7.97238 6.59995 0.5
238 0.966776 12.1898 5.78195 0.5
239 10.17 7.98988 3.70983 0.5
240 1.08649 4.8539 13.3199 0.5
241 3.94434 5.79037 0.879939 0.5
242 2.88238 0.767231 2.78353 0.5
243 2.45958 9.63952 3.23874 0.5
244 3.61585 11.5844 6.10461 0.5
245 1.4203 11.6944 11.765 0.5
246 9.47451 9.7691 8.40629 0.5
247 3.78358 0.740982 11.0124 0.5
248 7.28048 2.59892 2.81517 0.5
249 10.3061 2.31297 13.5256 0.5
250 9.52093 1.81525 0.281519 0.5
251 4.98861 9.7305 11.7835 0.5
252 8.31369 8.61473 12.7003 0.5
253 1.85021 8.69702 0.989816 0.5
254 10.8437 2.60849 2.1706 0.5
255 8.41722 9.55168 2.69785 0.5
256 1.38688 13.0461 3.06725 0.5
257 0.538912 3.83894 7.04448 0.5
258 13.216 7.25241 5.80137 0.5
259 4.61536 4.52406 9.84589 0.5
260 6.0107 11.9693 10.3033 0.5
261 10.848 3.42276 5.37175 0.5
262 7.36361 11.8845 5.27387 0.5
263 2.25458 3.63962 8.22486 0.5
264 10.073 10.609 8.91948 0.5
265 1.91686 4.53286 5.2156 0.5
266 3.96893 13.1802 6.05883 0.5
267 5.05385 7.06523 9.24537 0.5
268 7.07169 2.25713 1.95944 0.5
269 9.28341 13.4654 8.68587 0.5
270 6.5676 9.96305 8.38182 0.5
271 11.3427 11.9867 7.05448 0.5
272 6.33881 9.1464 0.844586 0.5
273 7.79472 4.9764 3.51955 0.5
274 10.3197 4.21799 9.0065 0.5
275 2.91592 10.9583 1.09394 0.5
276 4.83094 1.66165 0.320043 0.5
277 7.53431 5.40652 13.5462 0.5
278 11.4202 10.3987 0.132148 0.5
279 9.20152 11.4674 5.4027 0.5
280 4.54572 12.4669 2.18262 0.5
281 6.57101 2.39361 10.3771 0.5
282 0.169667 12.1125 1.24338 0.5
283 5.25996 5.64834 1.93481 0.5
284 2.17949 10.9267 0.380586 0.5
285 3.69467 9.96001 5.57294 0.5
286 2.76315 1.0073 12.7163 0.5
287 7.63352 6.94288 7.01379 0.5
288 5.6095 0.452387 6.32933 0.5
289 2.37493 10.669 3.5124 0.5
290 1.15687 13.2116 6.14715 0.5
291 5.28781 0.832002 5.32922 0.5
292 4.27952 3.07933 13.1605 0.5
293 10.6827 5.62645 4.01839 0.5
294 2.80618 10.4147 5.87379 0.5
295 3.01775 1.26919 6.96968 0.5
296 13.447 4.66036 6.80313 0.5
297 10.4109 10.4033 10.8808 0.5
298 9.37111 4.50589 12.2913 0.5
299 2.02207 0.623349 13.2419 0.5
300 9.48508 4.63963 1.77194 0.5
301 5.9289 7.25428 11.6659 0.5
302 2.20199 8.54693 3.32081 0.5
303 12.1332 9.17541 2.83332 0.5
304 0.567754 7.59787 6.10657 0.5
305 8.11862 12.5553 7.92677 0.5
306 11.2929 8.06288 1.03805 0.5
307 2.46903 6.7542 3.06541 0.5
308 0.292903 9.84771 11.5328 0.5
309 12.6145 12.9317 12.2359 0.5
310 9.29239 13.251 4.26218 0.5
311 13.4563 5.79309 6.78826 0.5
312 7.0966 11.8798 10.0232 0.5
313 0.772585 10.5149 3.93143 0.5
314 6.24487 11.9355 9.37767 0.5
315 13.0551 5.01991 1.44614 0.5
316 8.39378 5.687 7.99713 0.5
317 13.2012 8.63079 3.87211 0.5
318 13.3907 5.20445 5.92548 0.5
319 10.8749 11.1058 0.597034 0.5
320 5.50585 3.52932 6.91725 0.5
321 2.2874 12.6395 3.32363 0.5
322 10.326 0.0583848 0.960623 0.5
323 3.59249 1.36705 2.71712 0.5
324 10.7474 3.43373 2.74277 0.5
325 1.71889 5.26158 0.38446 0.5
326 10.8668 13.1322 0.316117 0.5
327 9.10447 3.1175 7.82253 0.5
328 12.381 7.08327 12.8338 0.5
329 8.13087 2.58377 9.06912 0.5
330 8.18263 0.586286 4.96238 0.5
331 5.28319 3.20394 2.8703 0.5
332 11.9989 1.42121 9.17535 0.5
333 13.2334 1.51048 2.67187 0.5
334 4.44316 6.1771 1.64374 0.5
335 9.78575 0.428722 4.74873 0.5
336 4.82337 2.07652 8.93871 0.5
337 11.6827 1.1438 11.6552 0.5
338 8.00176 5.65346 10.1091 0.5
339 10.1372 4.23542 2.36533 0.5
340 12.7362 3.8675 11.8609 0.5
341 8.50595 13.484 9.22507 0.5
342 6.23702 0.624646 5.64282 0.5
343 7.25917 5.4851 9.43826 0.5
344 4.91356 6.93051 6.87446 0.5
345 8.68851 7.6698 5.79243 0.5
346 1.42392 7.1303 5.57661 0.5
347 13.4988 11.5012 0.509363 0.5
348 1.32233 4.31539 0.660086 0.5
349 7.63754 6.09134 6.47049 0.5
350 8.60406 7.3099 11.1421 0.5
351 2.39638 9.4547 11.1058 0.5
352 8.75008 12.3268 7.16 0.5
353 8.52606 7.7675 0.570518 0.5
354 2.42494 2.89115 5.72607 0.5
355 1.69246 6.80284 3.70317 0.5
356 12.2861 13.2467 4.30385 0.5
357 6.60327 12.3986 3.49044 0.5
358 3.86386 1.50575 10.1551 0.5
359 7.01672 9.08119 8.84055 0.5
360 12.8253 4.34721 6.03788 0.5
361 3.64963 0.710445 7.51781 0.5
362 1.672 1.07302 9.39813 0.5
363 10.5563 12.6787 1.11171 0.5
364 3.19109 7.69753 1.09054 0.5
365 2.3388 7.80374 0.697656 0.5
366 6.34437 9.06719 8.04684 0.5
367 10.1626 11.3629 13.377 0.5
368 5.68606 4.35713 9.71472 0.5
369 1.73929 3.57872 5.26748 0.5
370 0.130302 10.3623 5.83229 0.5
371 9.74116 0.377644 3.6207 0.5
372 13.4738 5.0276 3.47128 0.5
373 4.84134 2.23508 12.9975 0.5
374 0.911482 9.45726 12.9853 0.5
375 0.429093 10.2787 8.40292 0.5
376 1.7151 10.9446 4.17703 0.5
377 7.64126 5.66009 4.27394 0.5
378 5.95566 9.28895 13.5105 0.5
379 4.9622 5.74056 0.9499 0.5
380 7.60843 4.5267 0.566452 0.5
381 10.7245 3.57559 8.29879 0.5
382 10.0325 2.77323 8.19784 0.5
383 2.06734 4.43346 0.0396243 0.5
384 5.53104 10.1355 13.3754 0.5
385 13.514 11.2222 1.39473 0.5
386 13.2622 4.13822 3.96475 0.5
387 2.21992 6.83772 11.1431 0.5
388 1.2547 2.38328 10.2511 0.5
389 5.07439 9.95869 10.7579 0.5
390 5.30067 4.24612 10.6923 0.5
391 7.61643 0.805502 2.07635 0.5
392 13.2586 4.85031 2.51392 0.5
393 2.40441 4.36221 8.99991 0.5
394 8.83745 8.97961 8.08212 0.5
395 1.62187 0.112763 8.9731 0.5
396 0.468882 2.07102 2.41686 0.5
397 7.66461 1.58531 1.55922 0.5
398 9.20678 12.016 2.84137 0.5
399 0.526909 4.53371 3.98899 0.5
400 7.08568 8.8578 5.17043 0.5
401 9.35143 2.71545 13.3753 0.5
402 4.6823 7.3444 5.96549 0.5
403 6.632 13.027 7.18064 0.5
404 11.2396 11.1341 12.1276 0.5
405 12.1149 5.43014 13.1312 0.5
406 6.73771 3.05157 1.31088 0.5
407 2.03365 11.6936 3.4839 0.5
408 2.66822 3.80333 5.32057 0.5
409 3.75404 4.52689 11.2393 0.5
410 11.2508 2.60833 3.0996 0.5
411 4.63245 5.78171 -0.0219283 0.5
412 5.64644 0.89148 0.174707 0.5
413 3.40007 5.79557 8.92519 0.5
414 3.11141 8.78915 10.811 0.5
415 7.88872 10.2148 10.8949 0.5
416 8.59116 10.7145 5.58897 0.5
417 0.731702 13.3231 9.24427 0.5
418 9.22374 1.03116 10.2493 0.5
419 2.85589 13.1922 10.9259 0.5
420 3.71941 13.4649 7.09943 0.5
421 13.5376 5.21061 9.38576 0.5
422 8.69843 4.62215 5.33939 0.5
423 12.6949 13.3656 2.67485 0.5
424 2.4092 2.97748 4.73725 0.5
425 8.54454 8.3476 10.9706 0.5
426 1.04525 12.5933 7.83988 0.5
427 7.70446 2.6886 1.32709 0.5
428 0.83295 8.10447 8.69077 0.5
429 11.1365 5.6081 8.40006 0.5
430 9.7758 13.4063 11.6871 0.5
431 1.99385 4.59604 8.1617 0.5
432 13.0871 2.17635 2.03018 0.5
433 7.49116 11.0511 0.333441 0.5
434 0.101664 3.2713 13.2905 0.5
435 11.0652 9.09256 1.2509 0.5
436 7.092 5.06717 10.4812 0.5
437 4.18963 9.42518 6.31542 0.5
438 5.95725 3.59803 7.82153 0.5
439 11.1728 10.5589 10.1816 0.5
440 9.32937 10.9662 6.1389 0.5
441 5.77644 1.44261 5.83494 0.5
442 1.54212 7.54008 6.45717 0.5
443 1.19643 12.1807 1.36842 0.5
444 9.1628 9.09321 12.7885 0.5
445 5.00699 8.5757 3.78539 0.5
446 3.30812 6.63806 4.67182 0.5
447 2.12641 9.44735 6.16002 0.5
448 5.39605 9.56653 0.683036 0.5
449 3.79356 12.5648 11.1002 0.5
450 3.11691 2.42847 1.65799 0.5
451 7.55916 3.65399 1.11123 0.5
452 2.18175 8.57464 0.0766592 0.5
453 4.99698 9.29629 2.40745 0.5
454 2.86972 0.0342432 3.66038 0.5
455 1.8121 2.12252 11.8311 0.5
456 8.36682 13.4646 8.22008 0.5
457 12.1609 10.9696 8.44671 0.5
458 4.45122 0.694173 10.1421 0.5
459 13.0277 2.41834 5.55653 0.5
460 12.8569 6.16845 13.1475 0.5
461 11.5813 8.64779 11.6413 0.5
462 10.0398 3.52364 7.57731 0.5
463 6.46637 3.23034 7.04521 0.5
464 0.122728 8.29482 10.2239 0.5
465 5.41214 10.4185 12.3927 0.5
466 3.08927 13.2514 6.40827 0.5
467 1.35797 7.97066 0.67311 0.5
468 0.0412978 7.87579 9.26903 0.5
469 2.38488 2.89387 11.4299 0.5
470 1.89497 6.98278 12.0587 0.5
471 4.6041 1.30822 10.857 0.5
472 10.8927 6.59978 4.02744 0.5
473 11.5831 8.32504 7.06602 0.5
474 2.51304 7.23027 9.14247 0.5
475 6.24075 3.77021 6.18099 0.5
476 6.324 0.867892 10.9112 0.5
477 5.71397 7.79714 9.6675 0.5
478 3.4074 12.4785 0.849826 0.5
479 8.49452 7.67449 13.0919 0.5
480 4.21826 10.6226 8.3485 0.5
481 2.27211 3.72718 0.747197 0.5
482 11.2695 13.5651 1.12797 0.5
483 9.02477 10.9887 2.42324 0.5
484 10.1012 7.124 4.31111 0.5
485 4.44799 5.49384 2.53383 0.5
486 3.58925 11.0927 8.81978 0.5
487 4.41335 2.84022 8.55884 0.5
488 5.46754 5.20129 7.14379 0.5
489 3.27985 0.978065 3.6092 0.5
490 0.33496 12.7365 8.52345 0.5
491 2.7125 7.4429 11.8383 0.5
492 1.28999 5.39698 12.3592 0.5
493 12.1376 8.67895 10.6649 0.5
494 6.73698 5.00167 0.38087 0.5
495 6.79123 7.49868 0.824975 0.5
496 7.18627 0.102672 13.4776 0.5
497 4.58404 4.92164 6.73071 0.5
498 3.76501 11.9179 5.00842 0.5
499 6.33574 1.84548 11.1596 0.5
500 9.89032 9.30643 6.48505 0.5
501 4.95552 1.8418 3.97279 0.5
502 9.28974 10.2396 9.37246 0.5
503 7.24259 5.97126 12.7526 0.5
504 2.49134 1.45023 13.5428 0.5
505 4.46655 2.79553 12.2333 0.5
506 3.93445 11.1334 1.42993 0.5
507 7.89455 4.03212 4.02065 0.5
508 0.205122 1.71291 5.82831 0.5
509 5.27146 5.46187 6.13607 0.5
510 8.29367 11.1542 10.9709 0.5
511 6.43725 0.942217 6.58184 0.5
512 8.71357 11.1502 3.34804 0.5
513 4.69477 4.89556 3.25111 0.5
514 6.15639 8.12699 1.31104 0.5
515 1.81832 10.1633 2.73015 0.5
516 5.60488 9.03989 3.14933 0.5
517 0.615966 3.65996 3.84848 0.5
518 2.34836 6.92277 8.21066 0.5
519 5.02716 7.32164 10.2366 0.5
520 2.17669 0.617768 0.576164 0.5
521 11.2635 5.89793 4.78891 0.5
522 3.08018 9.2756 11.7398 0.5
523 12.824 7.74524 3.45873 0.5
524 0.868194 0.890531 5.81319 0.5
525 11.2639 8.75205 0.30863 0.5
526 8.8496 11.9528 8.08542 0.5
527 7.51194 10.6344 1.86793 0.5
528 1.18254 0.343885 0.151985 0.5
529 13.3139 12.5156 0.350369 0.5
530 11.8288 2.99253 9.62389 0.5
531 11.1339 8.45607 10.7302 0.5
532 6.22061 9.14057 4.71252 0.5
533 5.84066 7.58742 10.6654 0.5
534 2.03425 12.565 11.4029 0.5
535 8.31659 12.4752 12.9223 0.5
536 1.53305 12.4752 3.97854 0.5
537 2.81348 10.329 9.07682 0.5
538 8.04442 9.87526 1.87448 0.5
539 1.95107 7.58791 3.09659 0.5
540 0.572653 3.5924 8.07003 0.5
541 3.84825 11.8152 2.30902 0.5
542 8.19592 13.4922 12.858 0.5
543 13.248 6.21501 5.81402 0.5
544 8.57956 2.3027 8.21453 0.5
545 1.51604 6.81677 2.70377 0.5
546 1.13557 0.964519 12.9183 0.5
547 10.4052 5.22382 4.97089 0.5
548 11.8367 0.0309518 7.01047 0.5
549 13.0503 10.3459 8.36532 0.5
550 12.7351 12.3782 2.94649 0.5
551 6.76817 1.33484 1.74521 0.5
552 3.75584 7.31101 0.310497 0.5
553 10.4679 6.29977 8.35497 0.5
554 3.66616 12.3962 6.66325 0.5
555 0.15088 4.11609 3.11534 0.5
556 7.42559 12.8631 12.795 0.5
557 7.78271 11.3814 1.20637 0.5
558 4.83747 1.67096 9.9251 0.5
559 3.29957 10.3008 8.22779 0.5
560 6.78004 2.72562 11.3661 0.5
561 7.91531 8.72909 11.7664 0.5
562 12.9835 2.54939 12.9495 0.5
563 8.44663 6.25484 7.02694 0.5
564 6.62334 5.23955 13.0362 0.5
565 9.73673 4.72242 5.60868 0.5
566 6.95432 1.48856 10.3563 0.5
567 12.7156 4.96247 4.08739 0.5
568 7.11252 1.1463 11.3369 0.5
569 11.189 7.08642 11.5642 0.5
570 12.9306 7.78649 2.45036 0.5
571 2.25505 0.769054 3.49031 0.5
572 4.00241 3.049 0.573118 0.5
573 0.284192 12.7472 6.44246 0.5
574 9.21345 8.20162 3.8055 0.5
575 8.8819 12.9693 2.55239 0.5
576 3.55542 11.1924 7.78606 0.5
577 4.05023 9.12979 2.55118 0.5
578 1.97504 11.4362 1.27044 0.5
579 13.1104 9.96409 12.1418 0.5
580 2.64025 5.22707 7.58232 0.5
581 1.37398 12.6878 8.75161 0.5
582 2.8677 12.1339 10.9774 0.5
583 3.04774 10.9938 13.5473 0.5
584 10.2899 6.16347 4.81658 0.5
585 12.634 5.2664 6.47111 0.5
586 0.560602 5.83371 9.76223 0.5
587 12.9061 2.84941 1.12355 0.5
588 13.2599 13.159 13.0872 0.5
589 13.3954 9.51587 8.82403 0.5
590 3.13411 11.9696 8.35313 0.5
591 3.65335 3.40598 12.4108 0.5
592 10.5504 11.2534 10.4601 0.5
593 6.52668 9.8011 7.35781 0.5
594 13.2014 11.1515 6.16741 0.5
595 12.7855 10.3246 5.93964 0.5
596 9.31939 9.29372 2.4962 0.5
597 3.07396 9.47625 8.74577 0.5
598 7.53129 10.9472 5.46545 0.5
599 11.1536 10.8839 8.42227 0.5
600 12.1648 6.0623 12.407 0.5
601 2.89979 5.80243 3.28343 0.5
602 0.0620874 6.27238 10.4814 0.5
603 2.80244 7.75794 10.9299 0.5
604 5.34187 0.786532 10.4784 0.5
605 6.9509 2.01624 11.989 0.5
606 10.9973 9.16979 5.21521 0.5
607 8.53473 10.0388 8.65422 0.5
608 8.26214 12.8497 12.0228 0.5
609 1.66149 11.863 0.53883 0.5
610 1.47267 8.91352 8.76401 0.5
611 0.588572 9.14286 8.36198 0.5
612 5.67279 0.109035 2.69384 0.5
613 3.64246 5.76543 5.16299 0.5
614 3.7582 13.4553 10.5293 0.5
615 3.84826 10.1823 9.13325 0.5
616 13.224 6.45894 2.06735 0.5
617 6.63956 6.09575 3.0459 0.5
618 11.893 7.16409 8.10581 0.5
619 12.3757 4.52394 12.6524 0.5
620 0.902408 10.7505 11.6433 0.5
621 2.23442 3.90136 4.42554 0.5
622 5.32231 7.77284 8.72173 0.5
623 12.5403 7.88141 4.37829 0.5
624 12.6993 5.59264 2.12373 0.5
625 1.80152 3.73234 11.232 0.5
626 2.62641 3.94245 1.60606 0.5
627 10.0054 6.83524 0.453261 0.5
628 13.309 4.38725 10.079 0.5
629 5.13738 4.47037 4.09049 0.5
630 3.13457 3.27048 1.05025 0.5
631 9.33781 1.02912 13.3684 0.5
632 6.72968 12.6558 0.0783144 0.5
633 9.92307 0.95277 0.710099 0.5
634 10.2303 10.4886 9.86767 0.5
635 9.7078 1.88635 12.8449 0.5
636 9.5014 3.48768 11.9859 0.5
637 13.2884 10.1007 6.73247 0.5
638 5.31322 0.998242 4.28185 0.5
639 9.11713 6.95155 10.3241 0.5
640 2.44745 4.21161 7.37338 0.5
641 7.22031 6.98212 6.08501 0.5
642 11.2518 5.73206 0.199402 0.5
643 10.8186 0.957257 7.87465 0.5
644 7.3904 2.9657 10.5041 0.5
645 0.493011 11.2398 5.7287 0.5
646 8.90784 8.77077 11.881 0.5
647 8.47345 4.75691 12.1475 0.5
648 8.37247 10.376 11.7073 0.5
649 5.00525 7.61255 11.2191 0.5
650 2.80675 0.351221 7.10983 0.5
651 0.57909 5.88338 6.21977 0.5
652 5.24434 4.296 7.43474 0.5
653 -0.044531 5.7397 2.82326 0.5
654 4.2421 10.0731 11.1383 0.5
655 11.7262 11.6851 9.00686 0.5
656 0.858591 11.3675 0.971481 0.5
657 11.0414 0.502404 6.98305 0.5
658 9.17609 9.97607 6.11023 0.5
659 0.887536 9.93631 3.05657 0.5
660 0.781539 0.729968 8.9999 0.5
661 1.82717 7.85797 8.67436 0.5
662 3.5319 10.932 5.34972 0.5
663 5.79386 13.0077 3.59822 0.5
664 5.00437 6.33277 6.00756 0.5
665 10.702 11.0723 3.00882 0.5
666 5.56558 12.2737 8.67145 0.5
667 10.9638 4.59659 8.36257 0.5
668 5.51238 3.47091 3.8149 0.5
669 8.24443 10.5046 2.62093 0.5
670 9.08523 12.8402 7.89113 0.5
671 7.10028 8.44216 1.08349 0.5
672 2.72274 2.07821 5.25901 0.5
673 5.54162 8.60899 0.566428 0.5
674 3.38561 8.17961 11.6351 0.5
675 3.1546 3.72976 11.6313 0.5
676 2.20075 13.5479 2.93265 0.5
677 3.29075 9.19602 3.11447 0.5
678 12.8167 7.96647 10.8368 0.5
679 11.1031 12.4086 6.07472 0.5
680 4.63843 11.4754 1.99776 0.5
681 4.18692 1.18484 9.22602 0.5
682 2.0517 3.06299 10.4361 0.5
683 1.75627 6.07539 11.7474 0.5
684 12.0677 13.0625 3.36026 0.5
685 12.3603 12.341 3.92949 0.5
686 10.9405 7.97375 11.5606 0.5
687 4.95882 9.22431 13.4571 0.5
688 1.24085 8.26457 5.7877 0.5
689 3.03788 3.19548 2.14559 0.5
690 4.46013 8.67168 7.02898 0.5
691 13.5491 10.7799 11.7003 0.5
692 5.20755 0.0855426 0.339036 0.5
693 11.4567 6.06562 11.6654 0.5
694 5.38832 8.66642 9.40865 0.5
695 12.0452 8.11299 2.78665 0.5
696 10.8631 2.94187 7.57696 0.5
697 13.4991 9.65998 7.7718 0.5
698 6.29378 11.3848 6.79809 0.5
699 3.01501 8.07028 0.0859543 0.5
700 12.2406 8.57002 3.67493 0.5
701 9.23455 8.13615 12.6657 0.5
702 4.05498 1.84734 8.38975 0.5
703 2.00874 5.0797 13.044 0.5
704 9.12285 2.89027 8.82929 0.5
705 10.9016 7.31197 8.25471 0.5
706 6.35501 10.8042 5.96359 0.5
707 3.67719 4.69229 10.2668 0.5
708 13.0225 1.8338 1.04239 0.5
709 10.074 0.27615 13.5571 0.5
710 6.94519 6.32906 3.94147 0.5
711 0.396867 0.241157 12.9007 0.5
712 12.7872 2.87739 9.35246 0.5
713 8.15537 9.68677 7.80873 0.5
714 12.498 4.39306 7.03618 0.5
715 12.8454 8.57856 2.98223 0.5
716 2.03741 2.10372 10.8425 0.5
717 2.94226 6.95707 0.508538 0.5
718 11.7933 0.866201 7.51449 0.5
719 4.45213 10.5667 12.0613 0.5
720 12.3154 11.4737 2.59242 0.5
721 11.3279 6.63841 8.79475 0.5
722 6.48015 13.3084 12.8635 0.5
723 2.82635 11.5312 9.17016 0.5
724 9.38744 13.0903 9.6226 0.5
725 2.57669 2.04776 6.32899 0.5
726 7.53489 2.44162 8.10562 0.5
727 4.92458 2.67351 0.275998 0.5
728 12.3722 2.22889 4.75378 0.5
729 9.78359 5.29674 1.11514 0.5
730 8.07558 5.28956 7.05647 0.5
731 10.9351 0.56387 0.337727 0.5
732 1.47107 3.03219 8.14245 0.5
733 8.45158 10.9462 0.653903 0.5
734 10.1891 11.3161 5.76379 0.5
735 2.56898 5.2835 8.54951 0.5
736 4.78343 4.30027 11.5472 0.5
737 4.64249 3.90065 3.53765 0.5
738 1.91597 7.72088 11.2838 0.5
739 6.90922 0.432609 7.17016 0.5
740 12.2581 0.121809 7.96714 0.5
741 7.81874 4.16724 4.96081 0.5
742 5.5319 8.95765 1.53642 0.5
743 7.08842 7.98162 5.68667 0.5
744 5.22054 3.14122 12.9078 0.5
745 6.64168 6.63668 12.1324 0.5
746 4.74722 8.0009 9.52726 0.5
747 12.8741 0.0395937 11.4877 0.5
748 7.34703 9.29814 7.96029 0.5
749 6.35217 9.4529 3.65623 0.5
750 1.50583 1.34971 0.177621 0.5
751 0.369263 8.71571 13.2036 0.5
752 1.89687 1.64399 12.7969 0.5
753 6.86895 2.10835 1.01249 0.5
754 2.45788 11.7265 11.8612 0.5
755 6.82006 3.9301 0.52242 0.5
756 6.90773 7.67247 1.8276 0.5
757 12.1263 6.82863 11.8294 0.5
758 4.68036 12.0522 4.80047 0.5
759 12.5102 8.68833 2.06067 0.5
760 7.21531 4.86135 4.40523 0.5
761 3.62133 11.5681 0.550657 0.5
762 13.3771 2.48305 0.35266 0.5
763 12.4403 0.368615 3.5789 0.5
764 9.09971 9.25415 3.48373 0.5
765 12.4743 2.29363 0.329717 0.5
766 8.0137 3.21003 4.60533 0.5
767 3.6918 6.73241 1.13378 0.5
768 12.484 13.3618 10.4952 0.5
769 10.9388 2.39092 5.647 0.5
770 10.8444 7.87319 6.52817 0.5
771 7.87297 7.77761 6.40757 0.5
772 1.08866 1.88857 11.1371 0.5
773 9.6629 3.57482 8.51687 0.5
774 9.42362 0.185186 2.73936 0.5
775 10.3809 0.165 10.9267 0.5
776 3.15641 9.55158 6.31909 0.5
777 11.4551 12.6 4.01648 0.5
778 11.8194 12.0113 3.14874 0.5
779 7.84158 7.38132 5.45954 0.5
780 2.71594 11.0289 8.29929 0.5
781 12.7212 1.47115 5.63003 0.5
782 10.8286 3.17668 3.7107 0.5
783 0.180696 9.20487 12.2344 0.5
784 1.69699 2.48639 5.2522 0.5
785 9.95657 9.54157 5.54826 0.5
786 8.71833 3.91575 4.6729 0.5
787 6.12069 12.7163 2.65888 0.5
788 11.8677 7.74865 11.1934 0.5
789 9.19869 3.81469 2.43135 0.5
790 8.45893 0.375036 2.42701 0.5
791 5.01092 6.95145 12.0268 0.5
792 5.67503 2.61167 7.43219 0.5
793 6.95655 8.71839 4.18115 0.5
794 13.3399 0.517271 3.17313 0.5
795 7.5579 8.12545 4.82429 0.5
796 4.57263 11.2791 9.12751 0.5
797 4.14822 3.59407 11.6133 0.5
798 1.46019 3.15624 4.49701 0.5
799 0.0407415 0.929062 5.24551 0.5
800 0.382528 8.30964 0.524966 0.5
801 7.61464 5.92772 3.29311 0.5
802 4.80004 10.8299 13.0015 0.5
803 11.2996 11.0464 11.0724 0.5
804 0.180205 6.11306 8.86232 0.5
805 8.82673 8.54155 2.92444 0.5
806 3.25617 6.73313 8.69068 0.5
807 3.00595 4.42544 8.11904 0.5
808 1.54758 9.26966 3.12968 0.5
809 9.34147 5.05443 11.5219 0.5
810 3.0111 12.6101 11.8082 0.5
811 10.3133 7.08164 3.31991 0.5
812 2.47833 8.53857 11.6871 0.5
813 8.19409 5.59289 12.8582 0.5
814 9.5765 0.331175 5.79048 0.5
815 11.543 11.8924 8.04575 0.5
816 9.20803 7.37115 13.5699 0.5
817 11.7001 11.1182 3.23469 0.5
818 3.75872 10.6342 0.561397 0.5
819 6.47863 13.535 6.36271 0.5
820 13.4255 12.6773 9.32763 0.5
821 10.7754 2.78024 4.63844 0.5
822 9.03296 0.984393 5.25326 0.5
823 9.94456 0.243053 10.1322 0.5
824 1.87173 8.84857 5.44734 0.5
825 8.43924 1.3079 2.32218 0.5
826 7.40604 13.271 7.76534 0.5
827 10.8973 0.785761 1.29609 0.5
828 5.45112 4.1707 3.02451 0.5
829 4.86877 2.26133 7.94712 0.5
830 4.69423 12.3949 9.15778 0.5
831 11.2687 0.0942595 7.87192 0.5
832 0.712265 5.58627 10.7982 0.5
833 2.07996 11.6032 11.0359 0.5
834 8.76069 1.95498 13.2219 0.5
835 0.9924 6.35964 12.4822 0.5
836 7.56396 9.80968 11.8171 0.5
837 7.23968 2.95963 0.516756 0.5
838 12.0566 13.0969 11.3557 0.5
839 4.39359 5.17139 1.53042 0.5
840 7.78879 12.867 0.165255 0.5
841 6.99366 10.6183 6.74043 0.5
842 12.6728 3.88186 10.754 0.5
843 12.4391 2.88296 12.1716 0.5
844 4.85849 3.69254 0.0278139 0.5
845 9.79285 5.72284 5.66406 0.5
846 5.62762 12.7157 9.55907 0.5
847 4.10487 7.78262 6.75599 0.5
848 5.10869 6.3486 12.8962 0.5
849 1.22584 12.3997 6.78058 0.5
850 10.7977 10.3903 11.7653 0.5
851 5.94867 10.4352 6.78476 0.5
852 7.26704 10.3115 7.68828 0.5
853 4.18529 6.3446 8.96018 0.5
854 9.90832 6.32146 3.90277 0.5
855 9.60863 11.1227 3.24085 0.5
856 1.8642 13.403 3.80567 0.5
857 10.2582 5.1295 11.0261 0.5
858 7.54715 9.94483 8.61905 0.5
859 11.3279 5.01053 5.33405 0.5
860 10.5379 5.09835 5.96663 0.5
861 11.1674 13.3483 6.31134 0.5
862 11.0596 7.39716 10.6721 0.5
863 7.95565 8.49006 5.60156 0.5
864 8.06402 6.67656 7.92079 0.5
865 11.8487 3.74693 12.3704 0.5
866 5.42337 13.0232 2.02997 0.5
867 12.1175 3.89704 13.3577 0.5
868 9.07878 9.284 9.12889 0.5
869 4.62873 13.2992 13.1161 0.5
870 3.52273 8.60873 6.59037 0.5
871 12.502 8.96349 4.49979 0.5
872 1.27727 5.85969 13.3452 0.5
873 13.3227 0.600589 2.25637 0.5
874 7.50088 5.11582 12.4159 0.5
875 6.81029 11.9482 4.45048 0.5
876 1.97268 5.91852 8.036 0.5
877 10.7237 8.05937 7.55461 0.5
878 2.63678 11.822 0.590002 0.5
879 1.48529 3.79845 7.58182 0.5
880 12.5079 0.783733 2.75541 0.5
881 11.2399 10.405 12.6991 0.5
882 1.63296 10.0136 3.74035 0.5
883 10.5938 12.1203 0.287606 0.5
884 12.7961 3.21777 0.181051 0.5
885 7.46247 11.0637 10.42 0.5
886 13.4822 3.08881 7.38291 0.5
887 0.0458139 13.2779 12.1862 0.5
888 5.05533 4.78599 2.33422 0.5
889 11.0021 5.0089 9.32186 0.5
890 11.33 8.68133 6.11896 0.5
891 1.87499 5.95042 3.29558 0.5
892 9.19052 0.48977 9.41131 0.5
893 10.0315 4.45677 8.08003 0.5
894 7.6857 7.64441 1.2218 0.5
895 12.0291 8.76538 1.11677 0.5
896 7.25826 12.0955 0.693496 0.5
897 6.6461 13.4062 3.02614 0.5
898 5.11768 12.8282 2.95442 0.5
899 10.2532 5.26174 8.66867 0.5
900 11.7343 10.7761 9.33986 0.5
901 13.429 5.31735 10.4222 0.5
902 11.2736 6.47644 7.83975 0.5
903 9.82401 8.74976 3.12926 0.5
904 8.34605 3.48897 5.55696 0.5
905 0.121317 6.71189 6.56385 0.5
906 12.5986 5.35068 3.05263 0.5
907 7.18838 4.02399 10.3084 0.5
908 8.8792 13.5488 5.07418 0.5
909 9.95635 3.18854 2.33968 0.5
910 8.29507 2.61085 7.37718 0.5
911 5.77663 7.08494 12.6612 0.5
912 8.46476 9.43344 11.2986 0.5
913 11.2197 5.77834 12.7414 0.5
914 5.64164 12.8964 13.2131 0.5
915 7.9671 2.5552 5.44083 0.5
916 10.6981 8.84592 6.85727 0.5
917 11.247 0.156801 11.5896 0.5
918 7.48577 5.99785 8.53817 0.5
919 12.8213 11.9507 1.16093 0.5
920 0.593188 11.6434 10.3292 0.5
921 5.31264 6.2475 7.54362 0.5
922 12.1679 3.22331 11.3207 0.5
923 0.498213 2.57544 8.13353 0.5
924 11.4131 11.5235 10.0939 0.5
925 10.6382 3.62049 1.79704 0.5
926 4.64511 10.1954 0.193276 0.5
927 2.161 7.86518 5.70851 0.5
928 0.507476 6.69537 5.6476 0.5
929 1.46105 2.78949 11.1765 0.5
930 10.0071 9.62861 9.2672 0.5
931 5.55234 9.46453 12.6116 0.5
932 4.0269 8.53102 3.54425 0.5
933 0.683086 12.1715 0.385709 0.5