ITEM: TIMESTEP
520000
ITEM: NUMBER OF ATOMS
1000
ITEM: BOX BOUNDS xy xz yz pp pp pp
0.0000000000000000e+00 1.3572088000000001e+01 0.0000000000000000e+00
0.0000000000000000e+00 1.3572088000000001e+01 0.0000000000000000e+00
0.0000000000000000e+00 1.3572088000000001e+01 0.0000000000000000e+00
ITEM: ATOMS id x y z radius
1 4.25199 3.81432 12.2359 0.5
2 4.6805 11.6748 3.9992 0.5
3 9.24159 10.3412 2.89093 0.5
4 10.1597 5.8109 1.19561 0.5
5 8.70264 7.51442 10.5163 0.5
6 3.80344 12.8509 5.16572 0.5
7 2.92239 8.88772 0.829006 0.5
8 12.7108 11.9572 1.86262 0.5
9 1.89866 8.57435 6.3898 0.5
10 3.63673 0.353005 11.4084 0.5
11 0.67337 9.47272 9.02912 0.5
12 10.5692 5.53896 0.345244 0.5
13 8.3702 11.7475 5.38451 0.5
14 10.8353 2.30858 4.23191 0.5
15 6.04151 1.80176 4.32971 0.5
16 7.69523 6.54163 9.42074 0.5
17 6.57598 11.976 11.1163 0.5
18 2.8552 8.64423 5.91634 0.5
19 10.1974 5.0674 1.94501 0.5
20 10.3282 12.0129 3.5088 0.5
21 2.57326 4.34346 1.46455 0.5
22 2.32457 5.84444 12.8109 0.5
23 1.2949 1.27083 10.6139 0.5
24 7.75669 7.11297 2.09506 0.5
25 0.979552 6.14861 2.86183 0.5
26 10.1669 10.3175 6.39683 0.5
27 11.5895 6.79409 12.4952 0.5
28 4.96591 11.5651 12.3256 0.5
29 1.10755 6.3891 1.86012 0.5
30 8.39901 11.0081 1.60318 0.5
31 0.680233 0.141048 8.50211 0.5
32 9.50871 2.47084 12.3805 0.5
33 13.0366 6.31299 9.64759 0.5
34 3.81601 8.87649 5.61246 0.5
35 11.982 6.81485 13.4459 0.5
36 8.95005 2.06384 5.73007 0.5
37 0.148609 0.800212 2.3057 0.5
38 3.1862 1.03407 1.96806 0.5
39 10.5695 4.21811 1.48191 0.5
40 5.79338 5.73379 6.31967 0.5
41 7.84169 11.3248 4.57036 0.5
42 6.8644 5.28237 3.61094 0.5
43 5.06715 5.3804 9.94036 0.5
44 4.62217 11.4666 8.55196 0.5
45 7.52841 6.12317 2.06092 0.5
46 10.4004 10.4968 13.5285 0.5
47 2.93296 9.44048 5.43816 0.5
48 7.67933 10.6804 1.00055 0.5
49 5.19927 11.9007 10.1429 0.5
50 6.09383 1.00848 10.1903 0.5
51 13.5796 10.6345 7.5494 0.5
52 6.32417 10.8117 7.54541 0.5
53 9.95912 3.51157 1.78734 0.5
54 12.1925 11.6107 4.32386 0.5
55 13.5163 0.567186 6.11978 0.5
56 12.8201 4.3125 2.84511 0.5
57 0.468185 11.5127 11.2589 0.5
58 5.2673 8.4343 10.692 0.5
59 1.90445 10.8262 11.3776 0.5
60 7.54181 4.87646 9.44403 0.5
61 4.35219 0.677425 10.83 0.5
62 0.786106 8.6571 0.939697 0.5
63 11.6706 8.81564 2.05645 0.5
64 12.2462 2.13981 9.53433 0.5
65 13.3605 2.11918 5.31943 0.5
66 12.4193 1.64303 2.10055 0.5
67 7.95657 3.03826 8.40027 0.5
68 2.99848 1.20577 2.91078 0.5
69 11.4609 2.39395 10.1155 0.5
70 12.1756 3.89414 9.77904 0.5
71 2.66996 6.4256 9.11298 0.5
72 7.3352 2.37375 10.8765 0.5
73 8.37036 6.49265 8.7609 0.5
74 5.97077 4.84626 10.1673 0.5
75 8.82972 0.0985587 10.2836 0.5
76 12.2811 3.85019 13.4838 0.5
77 10.2822 2.70378 3.46834 0.5
78 8.69047 2.97765 5.21498 0.5
79 4.10087 12.2242 6.00939 0.5
80 5.29658 2.68704 8.26116 0.5
81 1.056 3.429 11.7716 0.5
82 1.16321 8.72141 13.5703 0.5
83 3.34801 0.656986 6.35255 0.5
84 0.0153299 8.69825 9.10752 0.5
85 13.2835 3.71108 6.87543 0.5
86 2.64353 1.03425 12.5625 0.5
87 4.17709 5.62964 5.93885 0.5
88 6.81403 5.63039 4.61766 0.5
89 11.384 12.6031 7.94284 0.5
90 4.18418 6.20338 4.30516 0.5
91 11.4399 7.71749 11.9027 0.5
92 13.2417 1.42571 1.61896 0.5
93 12.8412 0.396271 12.403 0.5
94 4.75729 10.0791 13.0545 0.5
95 12.3657 0.767972 8.17469 0.5
96 11.6866 2.79244 4.50456 0.5
97 11.7958 2.7867 5.51738 0.5
98 11.006 9.7679 0.284116 0.5
99 6.18904 8.57716 9.17248 0.5
100 1.42655 6.70874 6.15205 0.5
101 4.6881 11.8467 2.84472 0.5
102 8.59193 7.05494 9.64979 0.5
103 4.11821 4.91045 10.398 0.5
104 6.85339 11.2624 6.0215 0.5
105 11.5847 12.3938 6.81501 0.5
106 5.8133 1.6277 10.8351 0.5
107 12.8826 5.2498 7.04433 0.5
108 13.3774 11.0208 5.34429 0.5
109 0.837775 12.2866 9.33711 0.5
110 7.85743 8.97239 8.81775 0.5
111 9.04894 13.5487 3.35077 0.5
112 6.29351 1.05415 4.97776 0.5
113 0.833252 0.345414 5.63427 0.5
114 7.72202 6.53374 2.91577 0.5
115 5.91128 6.39454 11.8548 0.5
116 0.692099 5.57423 2.11714 0.5
117 0.718367 1.98967 5.69494 0.5
118 10.9167 9.64128 6.22345 0.5
119 12.2855 7.98354 1.76038 0.5
120 5.33055 9.30362 4.10392 0.5
121 11.383 0.00743281 10.4222 0.5
122 2.39527 2.84098 2.45588 0.5
123 12.104 2.56257 8.55833 0.5
124 10.2936 10.8276 11.5496 0.5
125 4.85555 12.5712 3.63032 0.5
126 10.9531 11.2029 13.1585 0.5
127 7.40897 10.2372 11.5643 0.5
128 4.82473 3.13871 7.3944 0.5
129 2.82612 6.2368 11.9527 0.5
130 1.15279 12.1471 10.8534 0.5
131 8.15658 2.33684 2.29425 0.5
132 5.46339 11.7177 2.31263 0.5
133 1.22915 11.1908 10.7309 0.5
134 11.245 11.7103 4.21167 0.5
135 11.8851 1.72741 5.75683 0.5
136 8.19261 4.61755 4.37563 0.5
137 3.11978 12.6173 5.87119 0.5
138 7.38734 12.0458 13.1499 0.5
139 6.32128 0.272295 0.0325988 0.5
140 4.88654 3.68868 4.39158 0.5
141 1.36495 3.48992 3.64957 0.5
142 10.2125 2.89479 12.9631 0.5
143 0.411747 13.1216 0.0303066 0.5
144 8.70366 12.5149 8.97388 0.5
145 6.87414 6.89982 2.42397 0.5
146 9.68143 8.76019 8.81692 0.5
147 4.59165 6.91452 0.765576 0.5
148 11.9803 0.585527 11.0391 0.5
149 8.04594 6.6855 10.4625 0.5
150 12.7224 11.5921 3.49408 0.5
151 6.71747 12.3633 10.1441 0.5
152 3.39528 4.23051 11.7927 0.5
153 12.2623 7.69963 7.09975 0.5
154 2.73059 1.83396 2.28751 0.5
155 1.85125 8.31849 11.1827 0.5
156 8.05455 12.0238 0.191245 0.5
157 1.37238 0.374053 3.53252 0.5
158 1.42975 9.62123 8.38965 0.5
159 3.7242 2.08787 8.86572 0.5
160 9.48088 0.326297 10.9338 0.5
161 12.2436 2.97779 10.1687 0.5
162 6.40269 2.59738 7.92088 0.5
163 11.8398 9.88049 0.763967 0.5
164 9.67851 3.69912 11.0049 0.5
165 6.60578 10.9235 11.0524 0.5
166 10.7659 12.9747 7.21737 0.5
167 11.5955 7.90974 7.80809 0.5
168 1.02942 3.17079 7.5748 0.5
169 10.3625 10.7312 12.5566 0.5
170 3.81989 6.67928 0.113004 0.5
171 11.0159 5.279 1.28638 0.5
172 11.9868 8.26492 9.6791 0.5
173 8.92935 10.145 1.99662 0.5
174 4.8844 1.01513 13.124 0.5
175 2.49167 6.20435 3.99511 0.5
176 4.11252 6.09305 3.27455 0.5
177 8.98626 4.46962 6.1835 0.5
178 5.63762 2.67187 4.52547 0.5
179 0.265833 6.15677 1.36778 0.5
180 9.58065 2.7712 11.3719 0.5
181 10.9141 10.9099 9.55914 0.5
182 3.1653 12.2296 1.30481 0.5
183 8.25844 6.98129 5.99014 0.5
184 10.8252 5.61413 8.92997 0.5
185 8.96096 13.0374 11.2408 0.5
186 4.9491 8.60346 2.63243 0.5
187 5.66821 0.472766 12.8567 0.5
188 4.81176 5.77993 6.738 0.5
189 0.582653 10.7288 6.74649 0.5
190 9.75786 12.8964 3.31854 0.5
191 9.46138 7.41663 3.84406 0.5
192 10.5932 1.21892 0.0292994 0.5
193 11.3095 2.11977 9.10159 0.5
194 9.59538 13.0401 10.5074 0.5
195 0.257501 10.175 12.322 0.5
196 9.01521 0.705523 4.18871 0.5
197 2.96975 6.35222 8.08341 0.5
198 6.18364 5.88425 12.6036 0.5
199 11.4315 0.710768 8.44278 0.5
200 7.12604 6.84788 1.52799 0.5
201 13.0879 4.37951 7.52986 0.5
202 5.96501 0.148402 7.26664 0.5
203 2.05156 3.45368 1.70833 0.5
204 2.84135 7.96893 8.43319 0.5
205 12.9226 13.2211 3.48848 0.5
206 0.49177 1.36048 10.0852 0.5
207 4.10785 12.2796 8.84846 0.5
208 9.14083 3.9002 5.48119 0.5
209 5.64862 2.46897 3.54173 0.5
210 4.25568 6.47986 5.28607 0.5
211 4.21244 3.952 10.3686 0.5
212 3.36819 5.69852 4.05738 0.5
213 3.53556 2.10971 5.89268 0.5
214 10.0741 4.26421 11.6289 0.5
215 8.0934 6.55796 1.3717 0.5
216 6.59721 8.38181 0.407577 0.5
217 4.0694 11.2978 4.71288 0.5
218 6.50992 8.19415 4.68341 0.5
219 9.06727 0.954862 3.14254 0.5
220 7.10236 2.48982 9.91148 0.5
221 2.64459 3.73587 5.83565 0.5
222 7.02189 10.961 4.96084 0.5
223 4.62732 9.1022 3.33877 0.5
224 13.0226 9.34489 3.67565 0.5
225 7.45476 11.3558 11.3367 0.5
226 11.0911 6.33044 13.4724 0.5
227 13.3628 7.29247 9.94999 0.5
228 4.35332 11.3976 5.65078 0.5
229 5.43331 4.24312 6.28185 0.5
230 5.99053 9.52849 9.18445 0.5
231 7.97006 5.61636 9.02719 0.5
232 8.19942 4.51278 13.2089 0.5
233 1.04042 0.478761 10.1159 0.5
234 11.3593 1.9566 5.0178 0.5
235 1.65812 10.9273 3.1674 0.5
236 11.064 6.15776 0.945516 0.5
237 5.31817 7.82239 6.46249 0.5
238 0.742343 12.2625 5.9779 0.5
239 10.1869 8.14961 3.76051 0.5
240 1.72704 4.49193 13.5462 0.5
241 4.12552 5.98313 0.793534 0.5
242 2.84853 0.315483 2.74252 0.5
243 2.57369 9.46597 3.20979 0.5
244 3.2776 11.6512 6.11125 0.5
245 1.41366 11.5995 11.6426 0.5
246 9.47225 9.70222 8.66804 0.5
247 3.4182 0.808331 10.4833 0.5
248 7.51836 2.56717 3.0742 0.5
249 10.4745 2.23551 0.202122 0.5
250 9.70253 1.62418 0.344434 0.5
251 4.55301 9.93165 12.1046 0.5
252 8.56801 8.412 13.0303 0.5
253 1.85151 8.7296 0.953681 0.5
254 10.8716 2.67166 2.69822 0.5
255 8.43849 9.67784 2.72608 0.5
256 1.17871 12.9413 3.43602 0.5
257 0.521825 3.98958 7.3483 0.5
258 13.2804 7.05982 5.56531 0.5
259 4.45204 4.51902 9.61931 0.5
260 6.01347 11.4792 10.4417 0.5
261 10.9473 3.06739 6.21057 0.5
262 7.32413 11.8236 5.35561 0.5
263 2.45657 3.94685 7.94445 0.5
264 10.219 10.3375 8.99054 0.5
265 0.941739 3.655 4.57311 0.5
266 3.86405 13.2748 6.14863 0.5
267 4.87398 7.47406 9.49642 0.5
268 7.12087 2.35307 2.21226 0.5
269 8.95905 13.5659 8.65281 0.5
270 6.55658 10.0386 8.42662 0.5
271 10.8899 11.9192 7.45316 0.5
272 6.62956 9.24085 0.934264 0.5
273 7.56404 4.56298 3.54575 0.5
274 9.97109 4.62744 8.95412 0.5
275 2.53352 11.4799 1.10696 0.5
276 5.02488 1.88755 13.5663 0.5
277 7.42096 5.09594 13.4958 0.5
278 11.4202 10.6264 0.262544 0.5
279 9.37886 11.6414 5.71979 0.5
280 4.74375 12.3014 1.85504 0.5
281 6.33638 2.56158 10.6317 0.5
282 0.0423617 12.0316 1.22207 0.5
283 5.41517 5.7707 1.88157 0.5
284 1.65941 11.795 0.48305 0.5
285 3.8847 9.87802 5.77028 0.5
286 2.05817 1.93543 12.6377 0.5
287 7.84895 7.21552 6.87192 0.5
288 5.58867 0.385066 6.3366 0.5
289 2.42692 10.5259 3.58321 0.5
290 1.29944 13.0714 5.9645 0.5
291 5.4775 0.591589 5.33433 0.5
292 4.06482 2.94515 12.9474 0.5
293 10.4752 5.58435 3.92546 0.5
294 3.01797 10.2208 6.03946 0.5
295 2.85657 1.54539 6.33608 0.5
296 13.5079 4.71617 6.68845 0.5
297 10.6025 10.1115 10.8913 0.5
298 9.55332 4.37313 12.5187 0.5
299 1.61897 1.06325 12.8684 0.5
300 9.52897 4.40147 1.73471 0.5
301 6.11265 7.38646 11.9035 0.5
302 2.36669 8.47047 3.08509 0.5
303 12.3646 9.20394 2.78906 0.5
304 0.663687 7.4369 5.71105 0.5
305 7.85881 12.3123 8.33619 0.5
306 11.3294 8.28939 1.26432 0.5
307 2.41631 6.80652 3.18993 0.5
308 0.0666251 10.0246 11.3713 0.5
309 12.5753 13.0015 12.2007 0.5
310 9.44646 13.2857 4.24237 0.5
311 13.5842 5.67605 6.47636 0.5
312 7.08653 11.4923 10.3758 0.5
313 0.84516 10.4982 3.64288 0.5
314 5.97965 11.9199 9.61723 0.5
315 0.0565931 5.05988 1.41454 0.5
316 8.32846 6.11896 7.86063 0.5
317 13.4682 8.36542 3.91083 0.5
318 0.0888957 5.00651 5.72155 0.5
319 10.8132 11.4402 0.573359 0.5
320 5.54278 3.39181 6.7321 0.5
321 2.13967 12.5843 3.67725 0.5
322 10.1888 13.2997 0.756266 0.5
323 3.77456 0.705116 2.76476 0.5
324 10.7948 3.53661 3.17706 0.5
325 1.98964 5.01921 0.761943 0.5
326 10.9846 13.0698 0.348297 0.5
327 8.49722 2.87485 7.64315 0.5
328 12.1515 7.56917 12.6869 0.5
329 7.95024 2.51969 9.1828 0.5
330 8.27382 0.599835 5.01331 0.5
331 5.03749 2.9874 2.89723 0.5
332 12.0231 1.56871 8.63414 0.5
333 13.1946 1.55768 2.63147 0.5
334 4.55427 6.35087 1.60871 0.5
335 9.81194 0.487265 4.75583 0.5
336 4.74239 1.86969 8.55813 0.5
337 11.4822 1.09652 11.6472 0.5
338 7.69042 5.7517 10.0965 0.5
339 10.2123 4.1371 2.43047 0.5
340 12.5251 4.00192 11.7392 0.5
341 8.29589 13.231 9.50295 0.5
342 6.31282 0.258179 5.6513 0.5
343 6.98329 5.82179 9.25003 0.5
344 5.16618 6.80539 6.68038 0.5
345 8.74125 7.86964 5.77798 0.5
346 1.54149 7.34058 5.32492 0.5
347 13.4147 11.4401 0.396613 0.5
348 1.7442 4.07767 0.837214 0.5
349 7.57216 6.38561 6.39438 0.5
350 8.52339 7.12915 11.3548 0.5
351 2.4837 9.02907 11.6056 0.5
352 8.23741 12.1224 7.41149 0.5
353 8.65978 7.219 0.768682 0.5
354 2.10348 2.93893 5.44127 0.5
355 1.55635 6.51923 3.57573 0.5
356 12.4316 13.3164 4.40993 0.5
357 6.58992 12.2885 3.65749 0.5
358 3.48724 1.32625 9.59485 0.5
359 6.94181 9.17426 9.00584 0.5
360 13.2582 4.08746 5.95135 0.5
361 3.32989 1.07809 7.21219 0.5
362 1.24012 1.28037 9.53144 0.5
363 10.5848 12.3539 1.00334 0.5
364 3.46198 8.00429 1.04727 0.5
365 2.39511 7.96567 0.7492 0.5
366 6.25077 9.17013 8.26606 0.5
367 10.0898 11.5277 13.267 0.5
368 5.47321 4.63549 9.43799 0.5
369 1.74811 3.17519 4.50715 0.5
370 0.224976 10.3398 5.92976 0.5
371 9.82547 0.533454 3.63106 0.5
372 13.4282 4.86041 3.39337 0.5
373 4.84658 2.40503 12.6783 0.5
374 0.878757 9.51341 12.8714 0.5
375 0.481741 10.1534 8.31161 0.5
376 1.72637 10.7097 4.20948 0.5
377 7.76855 5.4523 4.10488 0.5
378 6.17078 9.23892 13.4274 0.5
379 5.09645 6.00711 0.81906 0.5
380 7.57745 4.35483 0.548864 0.5
381 9.81629 3.68313 8.48613 0.5
382 9.53832 2.91236 7.83894 0.5
383 2.66919 4.31253 0.313939 0.5
384 5.73651 10.1961 13.2673 0.5
385 13.2972 11.167 1.35167 0.5
386 13.2251 3.96627 3.80569 0.5
387 2.17 6.5443 11.3031 0.5
388 1.18541 2.13862 10.0674 0.5
389 4.41484 10.0159 11.0547 0.5
390 5.04576 4.52112 10.4085 0.5
391 7.67254 0.679226 2.30137 0.5
392 13.4568 4.89903 2.40243 0.5
393 2.76657 4.41635 8.9249 0.5
394 8.78448 8.94598 8.42702 0.5
395 1.49113 0.298741 9.12803 0.5
396 0.440882 1.72897 2.01035 0.5
397 7.6132 1.5925 1.79293 0.5
398 9.58677 12.0127 2.82207 0.5
399 0.689458 4.32571 3.7649 0.5
400 7.1335 8.88259 5.00752 0.5
401 9.48063 2.5349 13.414 0.5
402 4.78581 7.21518 5.83065 0.5
403 6.34335 12.832 7.40083 0.5
404 11.2025 10.899 12.1435 0.5
405 12.8384 6.30493 0.0134826 0.5
406 6.73524 2.99635 1.33741 0.5
407 2.14001 11.4814 3.9177 0.5
408 1.68322 3.75907 5.32425 0.5
409 3.34665 4.22335 10.777 0.5
410 11.3526 2.7964 3.48758 0.5
411 4.70104 6.15914 13.5141 0.5
412 5.81955 1.20962 13.5557 0.5
413 3.5473 6.11783 8.91299 0.5
414 2.82098 8.37015 10.8184 0.5
415 8.08002 9.8102 11.0288 0.5
416 8.83392 10.794 5.6131 0.5
417 0.702543 13.3561 9.40325 0.5
418 9.04781 1.11019 10.3102 0.5
419 2.77913 13.2267 11.253 0.5
420 3.52629 0.0396224 7.11837 0.5
421 13.0405 5.25626 9.37802 0.5
422 8.5376 4.60404 5.3284 0.5
423 12.2653 13.5109 2.73235 0.5
424 2.58569 3.60204 4.88238 0.5
425 8.85141 8.11972 11.343 0.5
426 0.967347 13.2183 7.81777 0.5
427 7.65324 2.53435 1.3625 0.5
428 0.133611 8.30548 8.24196 0.5
429 11.0474 5.51988 7.87542 0.5
430 10.0279 13.2315 11.3479 0.5
431 2.02551 4.9039 8.18926 0.5
432 13.2616 2.46921 1.96831 0.5
433 7.48048 11.2672 0.219019 0.5
434 13.2289 2.63241 13.0504 0.5
435 11.2156 9.2931 1.26088 0.5
436 6.80629 5.34988 10.0199 0.5
437 4.40291 9.19471 6.44092 0.5
438 5.71953 3.47066 7.70841 0.5
439 11.3786 10.2667 10.2441 0.5
440 9.38325 10.9017 6.4885 0.5
441 6.0304 1.22727 5.92077 0.5
442 1.46707 7.65539 6.25468 0.5
443 0.410041 12.8441 1.07741 0.5
444 9.40984 8.88292 13.2066 0.5
445 5.19716 8.25354 3.5346 0.5
446 3.23276 6.38831 4.80366 0.5
447 2.331 9.47134 6.26215 0.5
448 5.83125 9.89414 0.691992 0.5
449 3.62015 12.7848 11.4352 0.5
450 3.39224 1.85169 1.55473 0.5
451 7.54956 3.45983 0.988779 0.5
452 2.18839 8.67395 0.114684 0.5
453 5.07661 9.63054 2.53144 0.5
454 2.78744 13.2808 3.54076 0.5
455 1.1012 2.45029 11.667 0.5
456 7.97802 13.2277 8.5988 0.5
457 12.0923 11.0333 8.496 0.5
458 4.31283 0.767916 9.7929 0.5
459 12.6892 2.25269 6.05101 0.5
460 12.7685 7.33414 13.453 0.5
461 11.1637 8.42633 11.2093 0.5
462 9.51812 3.90455 7.53184 0.5
463 6.48187 3.1755 7.11974 0.5
464 0.0989796 8.24599 9.99869 0.5
465 5.2823 10.4824 12.4014 0.5
466 2.86259 13.3832 6.45001 0.5
467 1.33846 7.92461 0.515897 0.5
468 0.276893 7.74223 9.15527 0.5
469 1.83888 3.07426 11.3084 0.5
470 1.95984 6.53074 12.2235 0.5
471 4.08366 1.5337 10.5177 0.5
472 10.8983 6.54827 3.85694 0.5
473 11.5284 8.32756 6.97195 0.5
474 2.6216 7.48299 9.33881 0.5
475 6.31186 3.76683 6.25099 0.5
476 6.54669 1.01008 11.1565 0.5
477 5.66499 8.05475 9.84384 0.5
478 3.61257 12.4281 0.3878 0.5
479 8.55044 7.4877 13.317 0.5
480 4.40303 10.6032 8.92761 0.5
481 2.65399 3.50063 0.973915 0.5
482 10.9994 13.2485 1.32034 0.5
483 9.18459 11.1691 2.30171 0.5
484 10.3282 7.23663 4.32395 0.5
485 4.60338 5.63468 2.49998 0.5
486 3.6884 11.3065 8.86703 0.5
487 4.26863 2.67126 8.15796 0.5
488 5.40174 4.99063 6.98738 0.5
489 3.33867 0.547081 3.60394 0.5
490 0.308251 12.749 8.53175 0.5
491 2.67341 7.16547 11.8547 0.5
492 1.76842 5.00175 12.6708 0.5
493 11.9548 8.52794 10.6707 0.5
494 6.52329 4.6668 0.223082 0.5
495 6.75498 7.5586 1.00829 0.5
496 7.28063 0.180675 13.1719 0.5
497 4.50614 4.79342 6.63935 0.5
498 3.52158 11.94 5.19947 0.5
499 6.59195 1.94607 11.361 0.5
500 9.89823 9.27064 6.31567 0.5
501 5.06727 1.90917 4.16876 0.5
502 9.38825 10.1364 9.50508 0.5
503 7.26582 5.8186 12.7265 0.5
504 2.25379 1.53779 13.4119 0.5
505 4.41309 2.92139 11.9455 0.5
506 3.4615 11.2759 1.61424 0.5
507 7.67582 3.84332 4.32043 0.5
508 13.5033 1.6157 6.18401 0.5
509 5.06125 5.17895 5.94825 0.5
510 8.208 10.7677 11.3112 0.5
511 6.57652 0.666408 6.49815 0.5
512 8.88316 11.2738 3.19685 0.5
513 4.60014 4.67351 3.06203 0.5
514 6.2921 8.42819 1.39925 0.5
515 2.23995 10.2287 2.62067 0.5
516 5.64624 9.08833 3.12893 0.5
517 0.406802 3.38015 3.62735 0.5
518 2.2738 7.06121 8.49088 0.5
519 5.02701 7.49849 10.5006 0.5
520 2.30345 0.552244 13.4494 0.5
521 11.3017 5.85013 4.54403 0.5
522 3.35435 8.7298 11.4864 0.5
523 12.9791 7.78815 3.27826 0.5
524 0.719559 1.15246 6.2109 0.5
525 11.4867 8.89141 0.418238 0.5
526 8.72935 11.8655 8.28082 0.5
527 7.51742 11.0089 2.01043 0.5
528 1.25398 0.217072 13.2905 0.5
529 13.3134 12.4432 0.234636 0.5
530 11.6466 3.02947 9.36372 0.5
531 11.1539 7.98225 10.2272 0.5
532 6.25726 9.28794 4.63487 0.5
533 6.00068 7.73346 10.835 0.5
534 1.98102 12.5267 11.3986 0.5
535 8.33227 12.6678 13.0803 0.5
536 1.55001 12.0147 3.166 0.5
537 2.72192 10.8883 9.07048 0.5
538 7.87391 10.1385 1.91831 0.5
539 1.81022 7.58142 3.26074 0.5
540 0.739629 3.76578 8.37045 0.5
541 3.84013 11.9995 2.1527 0.5
542 8.22237 13.5528 12.9102 0.5
543 13.5042 6.00333 5.67135 0.5
544 8.07525 2.11848 8.18444 0.5
545 1.70261 6.76184 2.54831 0.5
546 0.689655 1.00401 13.2926 0.5
547 10.3917 5.26163 4.83472 0.5
548 11.6975 13.32 7.19187 0.5
549 13.0669 10.5432 8.34892 0.5
550 12.5567 12.488 2.8702 0.5
551 6.8431 1.30656 2.23789 0.5
552 3.97361 7.66114 0.345285 0.5
553 10.3943 6.2309 8.16639 0.5
554 3.42927 12.5301 6.73624 0.5
555 0.250009 4.04831 2.93925 0.5
556 7.50853 12.9828 12.6719 0.5
557 7.7438 11.6415 1.13346 0.5
558 4.50664 1.64384 9.63835 0.5
559 3.44378 10.2499 8.60332 0.5
560 6.84623 2.93176 11.4282 0.5
561 8.16886 8.38401 12.0922 0.5
562 12.301 2.86353 13.3336 0.5
563 8.44021 6.49548 7.02818 0.5
564 6.6528 5.012 12.8139 0.5
565 9.59638 4.84262 5.52579 0.5
566 6.78401 1.68302 10.4584 0.5
567 12.5555 4.81455 3.81554 0.5
568 7.408 1.44489 11.2285 0.5
569 11.3506 6.76229 11.5392 0.5
570 13.1563 7.97184 2.29132 0.5
571 2.3991 0.680399 3.58281 0.5
572 4.15933 3.2964 0.515104 0.5
573 0.323815 13.1362 6.00434 0.5
574 9.24309 8.48575 3.83815 0.5
575 9.0898 12.8686 2.46333 0.5
576 4.01715 10.8291 7.98028 0.5
577 4.15103 9.06859 2.51912 0.5
578 2.03647 12.3404 1.22505 0.5
579 12.9351 9.95164 12.0542 0.5
580 2.54976 5.47614 7.59749 0.5
581 1.27962 12.9258 8.71619 0.5
582 2.88649 12.2468 10.9925 0.5
583 2.48415 11.0828 0.189961 0.5
584 10.4457 6.2915 4.7062 0.5
585 12.7622 5.11692 5.99023 0.5
586 0.174031 5.77394 9.71334 0.5
587 13.2686 3.14873 1.14522 0.5
588 13.1815 13.1073 13.0069 0.5
589 13.3137 9.60075 8.71523 0.5
590 3.7485 11.773 8.08007 0.5
591 3.38285 3.26214 12.1909 0.5
592 10.6123 11.077 10.5972 0.5
593 6.42933 9.79754 7.43539 0.5
594 13.3376 11.1493 6.46333 0.5
595 12.7705 10.359 5.88112 0.5
596 9.40652 9.48852 2.45089 0.5
597 2.89387 9.87806 9.30943 0.5
598 7.79736 10.87 5.52681 0.5
599 11.1779 10.7339 8.63619 0.5
600 12.6418 6.65938 12.6708 0.5
601 2.99486 5.98793 3.14904 0.5
602 0.0923198 6.51897 10.4953 0.5
603 2.46647 7.43512 10.9562 0.5
604 5.14654 1.19681 10.3214 0.5
605 7.48614 2.29581 11.8451 0.5
606 11.2113 9.39059 5.2815 0.5
607 8.53956 9.72327 9.01485 0.5
608 8.3432 12.8899 12.1161 0.5
609 1.3212 12.7706 0.554654 0.5
610 1.07068 8.54159 8.74469 0.5
611 0.415034 9.1609 8.17785 0.5
612 5.84813 13.4016 2.54637 0.5
613 3.7915 5.55949 5.0081 0.5
614 3.66693 13.3842 10.6158 0.5
615 3.65753 10.4103 9.47121 0.5
616 0.240204 6.55099 2.29056 0.5
617 6.90096 5.99927 2.85306 0.5
618 11.9124 7.01474 7.78215 0.5
619 13.3973 4.25669 12.2739 0.5
620 0.906224 10.7217 11.6786 0.5
621 1.87466 4.01872 4.2832 0.5
622 5.26432 8.33585 8.98936 0.5
623 12.71 7.77456 4.37077 0.5
624 13.2107 5.80616 2.09658 0.5
625 1.25216 3.81297 10.8285 0.5
626 2.96735 3.54711 1.96185 0.5
627 10.231 6.51125 0.498622 0.5
628 12.7205 4.70057 10.2394 0.5
629 5.32823 4.38164 3.74768 0.5
630 3.44244 2.91484 1.22595 0.5
631 9.63831 0.878494 13.2934 0.5
632 6.78925 12.9328 13.4683 0.5
633 9.87993 0.664485 0.668503 0.5
634 10.3513 10.2766 9.99451 0.5
635 9.93986 1.79791 12.9688 0.5
636 9.82997 3.45302 12.0695 0.5
637 13.2958 10.174 6.73926 0.5
638 5.53931 0.992688 4.42809 0.5
639 8.99877 6.57407 10.4854 0.5
640 2.29586 4.60485 7.26353 0.5
641 7.26541 7.22052 6.06281 0.5
642 11.6555 5.52457 0.390042 0.5
643 10.7194 0.956005 7.70579 0.5
644 7.09633 3.29267 10.4973 0.5
645 0.551001 11.2662 5.95028 0.5
646 9.20585 8.5857 12.1674 0.5
647 8.67399 4.94113 12.3299 0.5
648 8.43603 9.96637 11.9736 0.5
649 5.1923 7.8014 11.458 0.5
650 2.53817 0.659808 6.94258 0.5
651 0.858815 5.82052 6.06983 0.5
652 5.05731 4.12367 7.2492 0.5
653 0.0993601 5.79595 2.9511 0.5
654 3.7957 10.4478 11.7622 0.5
655 11.6071 11.5184 9.18234 0.5
656 1.07978 12.0911 1.28473 0.5
657 10.764 0.333401 6.95016 0.5
658 9.43252 9.98725 5.91844 0.5
659 1.19797 10.1829 2.66885 0.5
660 0.459045 0.710567 9.32631 0.5
661 1.87642 7.97675 8.91543 0.5
662 3.55735 10.8632 5.54197 0.5
663 5.77722 12.9021 3.44797 0.5
664 5.04463 6.2052 5.83122 0.5
665 10.8268 11.1082 3.59184 0.5
666 5.75362 12.7692 9.65062 0.5
667 10.3301 4.33682 7.92889 0.5
668 5.5099 3.39243 3.66472 0.5
669 8.29569 10.6795 2.64186 0.5
670 8.71008 12.7924 8.0131 0.5
671 7.24829 8.46239 1.11623 0.5
672 3.06218 2.87713 5.39278 0.5
673 5.73066 8.86073 0.653784 0.5
674 3.28478 7.66492 11.2574 0.5
675 2.73249 3.58283 11.3053 0.5
676 1.94043 13.4612 3.05696 0.5
677 3.48488 8.90312 3.25636 0.5
678 12.72 8.00095 10.4047 0.5
679 10.6076 12.3077 6.44378 0.5
680 4.45166 11.3799 1.96962 0.5
681 4.14048 1.15269 8.92717 0.5
682 1.67016 3.00298 10.3202 0.5
683 2.08114 5.66478 11.8603 0.5
684 11.9649 12.9628 3.62337 0.5
685 12.627 12.4501 3.93766 0.5
686 10.7751 7.49121 11.1441 0.5
687 5.20778 9.38637 0.0746811 0.5
688 1.23084 8.28807 5.55846 0.5
689 3.25019 2.61945 2.20153 0.5
690 4.63058 8.4322 7.02283 0.5
691 13.4067 10.9081 11.7887 0.5
692 5.23591 0.383356 0.242155 0.5
693 12.1169 6.14949 11.9452 0.5
694 5.47442 8.93996 9.87626 0.5
695 12.2495 8.25734 2.72846 0.5
696 10.4159 3.25507 7.88762 0.5
697 13.3857 9.68815 7.71534 0.5
698 6.09499 11.2675 6.76284 0.5
699 3.1668 8.24857 0.121047 0.5
700 12.4674 8.49404 3.61642 0.5
701 9.39774 7.92288 13.0229 0.5
702 3.94582 1.66906 7.98269 0.5
703 2.47751 5.18399 13.4817 0.5
704 8.89822 2.63919 8.53826 0.5
705 10.9637 7.18857 8.06861 0.5
706 6.162 10.5659 5.93296 0.5
707 3.39929 4.30708 9.88251 0.5
708 12.6817 2.24735 1.21869 0.5
709 10.3643 0.173104 13.4812 0.5
710 7.21504 6.21142 3.77038 0.5
711 0.276311 0.237888 12.7633 0.5
712 12.6502 3.08742 9.2699 0.5
713 8.07664 9.70339 8.11694 0.5
714 12.5629 4.3593 6.64425 0.5
715 13.1936 8.71697 2.98176 0.5
716 1.76966 2.12373 10.9224 0.5
717 3.04095 7.31918 0.625429 0.5
718 11.6342 0.619132 7.4901 0.5
719 4.31865 10.8002 12.5834 0.5
720 12.1006 11.6473 2.64426 0.5
721 11.3648 6.37379 8.30659 0.5
722 6.54123 13.5159 12.6418 0.5
723 2.95241 11.925 8.68462 0.5
724 9.26908 13.1362 9.46721 0.5
725 2.57744 2.05014 5.44391 0.5
726 7.16335 2.37601 8.48497 0.5
727 4.91363 2.87128 13.5148 0.5
728 12.3957 2.18008 5.03951 0.5
729 10.0854 4.84303 0.959833 0.5
730 7.91215 5.60571 7.08136 0.5
731 10.9786 0.512634 0.642176 0.5
732 1.67014 3.1783 8.23458 0.5
733 8.4624 11.1824 0.549869 0.5
734 10.1981 11.3459 6.37036 0.5
735 2.75012 5.50398 8.68823 0.5
736 4.28729 4.39422 11.2545 0.5
737 4.50944 3.8069 3.45023 0.5
738 1.70178 7.40089 11.6861 0.5
739 6.96313 0.026551 7.3271 0.5
740 11.9085 13.4512 8.19569 0.5
741 7.63842 4.26991 5.10597 0.5
742 5.73236 9.37217 1.54436 0.5
743 7.0895 8.06923 5.5038 0.5
744 4.98573 3.27966 12.6275 0.5
745 6.78002 6.65688 12.2765 0.5
746 4.62312 8.3563 9.91881 0.5
747 12.7506 0.0645983 11.4645 0.5
748 7.21668 9.35641 8.05337 0.5
749 6.30839 9.51769 3.6784 0.5
750 1.50256 1.03861 0.291092 0.5
751 0.396858 8.68142 12.8549 0.5
752 1.33279 1.88016 13.3798 0.5
753 6.75366 1.98388 1.40896 0.5
754 2.46985 11.5878 11.6934 0.5
755 6.84287 3.61555 0.364114 0.5
756 7.03585 7.77819 1.97121 0.5
757 12.3323 7.09068 11.8167 0.5
758 4.46095 12.0847 4.96079 0.5
759 12.7177 8.90862 2.01535 0.5
760 7.1311 4.68126 4.38421 0.5
761 3.36879 11.5352 0.647562 0.5
762 13.1614 2.48364 0.396968 0.5
763 12.3096 0.42663 3.64566 0.5
764 9.16964 9.46186 3.43966 0.5
765 12.4079 3.11966 0.751725 0.5
766 7.7454 3.17553 5.12391 0.5
767 3.77885 6.9464 1.16816 0.5
768 12.4802 13.3696 10.5359 0.5
769 10.9708 2.17346 5.90618 0.5
770 10.9168 7.80762 6.35948 0.5
771 7.86177 7.97443 6.27228 0.5
772 0.653495 1.92256 10.8657 0.5
773 8.80422 3.66255 8.17615 0.5
774 9.72082 0.171887 2.64116 0.5
775 10.4653 0.13234 10.5843 0.5
776 3.36152 9.34425 6.42092 0.5
777 11.8218 12.5098 4.4947 0.5
778 11.7678 12.0338 3.49054 0.5
779 7.89584 7.49581 5.2858 0.5
780 2.96265 11.0453 8.1769 0.5
781 12.8227 1.31661 5.62329 0.5
782 10.8689 3.27146 4.17279 0.5
783 0.25881 9.33735 12.0417 0.5
784 2.52617 2.65064 4.59258 0.5
785 10.2437 9.82416 5.49531 0.5
786 8.52138 3.79824 4.78069 0.5
787 6.15575 12.4033 2.69591 0.5
788 11.7719 7.59088 10.9764 0.5
789 9.20956 3.80183 2.47581 0.5
790 8.68771 0.266588 2.48625 0.5
791 5.10555 6.91634 12.0027 0.5
792 5.64087 2.60345 7.27858 0.5
793 6.96547 8.73886 3.98032 0.5
794 13.0729 0.562679 3.0387 0.5
795 7.4492 8.07169 4.49785 0.5
796 4.53635 11.4622 9.4607 0.5
797 3.84621 3.49917 11.3154 0.5
798 2.39693 3.32089 3.86509 0.5
799 0.247607 1.15843 5.35218 0.5
800 0.380848 8.14328 0.2195 0.5
801 7.75374 5.53164 3.02561 0.5
802 4.8185 11.0799 13.2799 0.5
803 11.2927 10.6405 11.1391 0.5
804 13.4543 5.78547 8.77229 0.5
805 8.95534 8.66758 2.82783 0.5
806 3.2907 7.09168 8.70784 0.5
807 3.03672 4.77395 8.06742 0.5
808 1.70142 9.25354 2.73013 0.5
809 9.52883 5.10237 11.7204 0.5
810 2.92614 12.3723 11.9948 0.5
811 10.3615 7.17257 3.25579 0.5
812 2.54781 8.09835 11.7895 0.5
813 8.20418 5.51246 12.9696 0.5
814 9.5743 0.325067 5.72314 0.5
815 11.3959 11.691 8.23796 0.5
816 9.5374 7.3472 0.225563 0.5
817 11.8551 11.0399 3.41964 0.5
818 3.15722 10.6378 0.878618 0.5
819 6.44228 13.3435 6.52676 0.5
820 13.4754 12.7534 9.44057 0.5
821 10.9074 2.86138 5.17921 0.5
822 9.09433 1.00714 5.25035 0.5
823 9.73406 0.363497 9.98696 0.5
824 2.04724 8.92972 5.45603 0.5
825 8.45066 1.26423 2.26547 0.5
826 7.02103 13.0061 8.18906 0.5
827 10.4515 0.461414 1.47321 0.5
828 5.24059 3.95033 2.77908 0.5
829 4.87947 2.08321 7.63172 0.5
830 5.13105 12.2897 9.14063 0.5
831 10.942 13.5497 7.9838 0.5
832 0.583455 5.6219 10.6468 0.5
833 2.06185 11.7152 10.8789 0.5
834 8.98422 1.69328 13.0865 0.5
835 1.28933 5.81801 12.5313 0.5
836 7.75586 9.2744 11.8241 0.5
837 7.08054 2.61442 0.553999 0.5
838 11.8725 13.1887 11.2996 0.5
839 4.68875 5.35736 1.45726 0.5
840 7.71952 12.9667 0.10858 0.5
841 6.72174 10.4549 6.7526 0.5
842 12.193 3.933 10.7427 0.5
843 11.9694 3.48247 12.5286 0.5
844 4.49352 3.77039 13.274 0.5
845 10.0473 5.92492 5.51074 0.5
846 5.85861 12.5232 10.5854 0.5
847 4.34565 7.50936 6.71798 0.5
848 5.16943 6.0465 12.6721 0.5
849 0.880616 12.8404 6.83467 0.5
850 10.7639 10.0548 11.897 0.5
851 5.77963 10.2653 6.80782 0.5
852 7.20145 10.2834 7.75954 0.5
853 4.4072 6.87675 8.81396 0.5
854 9.8777 6.41257 3.84904 0.5
855 9.85107 11.1566 3.14368 0.5
856 1.87728 13.4294 4.09566 0.5
857 10.3423 5.18738 11.2635 0.5
858 7.49303 9.95073 8.80525 0.5
859 11.351 5.04654 5.04125 0.5
860 10.5606 5.12346 5.7654 0.5
861 11.1403 13.1708 6.31968 0.5
862 11.158 6.96335 10.4613 0.5
863 7.9971 8.46548 5.37679 0.5
864 8.09574 7.07737 7.85341 0.5
865 12.4334 4.45679 12.6518 0.5
866 5.73357 12.6549 1.81412 0.5
867 13.2268 4.33588 13.2726 0.5
868 9.15498 9.14514 9.50783 0.5
869 4.78807 13.5683 12.9469 0.5
870 3.75769 8.4345 6.57502 0.5
871 12.873 8.74679 4.52572 0.5
872 1.51595 5.52542 13.549 0.5
873 12.7794 0.711076 2.09425 0.5
874 7.6604 4.91682 12.5065 0.5
875 6.8836 11.6438 4.38338 0.5
876 2.04418 6.03614 8.28458 0.5
877 10.6646 7.97445 7.41067 0.5
878 2.61937 12.1501 0.385806 0.5
879 1.48295 4.07182 7.71822 0.5
880 12.3105 1.06025 2.86423 0.5
881 11.0705 10.217 12.8995 0.5
882 1.722 9.9335 3.51907 0.5
883 10.8195 12.2006 13.541 0.5
884 13.1956 3.41536 0.185777 0.5
885 7.54552 10.6183 10.657 0.5
886 0.0359743 3.38384 7.78973 0.5
887 13.5692 13.2987 12.0968 0.5
888 5.21866 4.91183 2.2691 0.5
889 10.9531 4.75991 8.61686 0.5
890 11.489 8.71716 6.1241 0.5
891 2.02461 5.85958 3.01653 0.5
892 8.95748 0.502211 9.4358 0.5
893 9.27231 4.53433 8.21912 0.5
894 7.7494 7.52197 1.15012 0.5
895 12.1321 8.83462 1.17534 0.5
896 7.16448 12.2272 0.526654 0.5
897 6.77361 13.1372 3.16822 0.5
898 5.23751 12.6315 2.68228 0.5
899 10.1261 5.21741 8.26112 0.5
900 11.8425 10.5625 9.42553 0.5
901 13.072 5.63169 10.4159 0.5
902 11.1248 6.4462 7.37986 0.5
903 9.89723 8.85945 3.13102 0.5
904 8.20395 3.81138 5.7699 0.5
905 0.370281 6.66071 6.31559 0.5
906 12.7309 5.37789 2.90204 0.5
907 6.92871 4.30475 10.1213 0.5
908 9.01294 13.5322 4.99891 0.5
909 10.0217 3.19395 2.72935 0.5
910 7.38432 2.66367 7.56824 0.5
911 5.8935 6.80186 12.7685 0.5
912 8.6717 9.13286 11.5339 0.5
913 11.9473 5.9396 13.0476 0.5
914 5.70337 13.1042 13.1881 0.5
915 8.04764 2.2378 5.28279 0.5
916 10.6505 8.80469 6.7746 0.5
917 11.1129 0.19604 11.3426 0.5
918 7.52117 6.49504 8.40851 0.5
919 12.6489 11.9264 0.84463 0.5
920 0.423908 11.7471 10.3071 0.5
921 5.56222 5.95673 7.29701 0.5
922 11.7992 3.28085 11.4681 0.5
923 0.812436 2.70419 8.37475 0.5
924 11.6246 11.1681 10.238 0.5
925 10.846 3.54173 2.08251 0.5
926 5.04521 10.3395 0.345473 0.5
927 2.18289 8.0134 5.71303 0.5
928 0.658382 6.5576 5.3787 0.5
929 0.887666 2.83935 10.9001 0.5
930 10.1392 9.41398 9.40911 0.5
931 5.44461 9.48223 12.5905 0.5
932 4.16592 8.23356 3.15504 0.5
933 0.611014 12.0131 0.426951 0.5