ITEM: TIMESTEP
190000
ITEM: NUMBER OF ATOMS
1000
ITEM: BOX BOUNDS xy xz yz pp pp pp
0.0000000000000000e+00 1.3572088000000001e+01 0.0000000000000000e+00
0.0000000000000000e+00 1.3572088000000001e+01 0.0000000000000000e+00
0.0000000000000000e+00 1.3572088000000001e+01 0.0000000000000000e+00
ITEM: ATOMS id x y z radius
1 4.29711 4.07635 12.2395 0.5
2 5.8901 10.6271 3.23829 0.5
3 8.467 10.3237 3.14798 0.5
4 9.69393 5.31435 2.01494 0.5
5 8.75041 7.1367 10.0959 0.5
6 3.75015 13.2909 5.18609 0.5
7 2.69487 8.602 0.517443 0.5
8 13.5488 11.2849 1.83006 0.5
9 1.51147 7.63152 6.06991 0.5
10 3.50158 13.192 10.3664 0.5
11 0.822376 9.32917 9.28882 0.5
12 10.2458 5.8486 1.48472 0.5
13 9.11717 11.3648 6.54666 0.5
14 11.1439 2.18353 4.21234 0.5
15 6.26325 1.6663 4.75111 0.5
16 7.88469 6.61251 8.37417 0.5
17 6.65827 12.1774 10.3829 0.5
18 2.79554 8.5862 5.82983 0.5
19 9.09809 4.63016 2.40591 0.5
20 10.1098 11.3785 3.35261 0.5
21 1.81569 4.37236 1.03405 0.5
22 2.31871 6.57976 11.1895 0.5
23 1.61064 1.41776 9.74346 0.5
24 7.26832 7.51441 2.28859 0.5
25 1.49593 6.25603 2.61294 0.5
26 10.3479 9.652 6.4757 0.5
27 11.3128 6.46651 12.9838 0.5
28 5.34756 11.091 11.5941 0.5
29 0.50393 5.98777 1.31046 0.5
30 8.3401 11.1498 1.61189 0.5
31 0.472664 13.0634 8.79958 0.5
32 10.4226 2.50296 13.4302 0.5
33 0.678776 6.03297 9.80862 0.5
34 3.14631 9.46491 6.0621 0.5
35 11.7586 6.63131 0.29634 0.5
36 9.14019 1.61143 6.5972 0.5
37 12.5943 0.320194 3.20434 0.5
38 3.42337 1.61086 2.06593 0.5
39 9.70498 4.24425 1.81931 0.5
40 6.00268 6.31151 6.66579 0.5
41 8.48791 11.2283 5.68954 0.5
42 6.7975 5.40898 3.63557 0.5
43 4.9778 5.5812 10.0472 0.5
44 4.14008 9.99806 8.5159 0.5
45 7.32624 6.58343 2.37104 0.5
46 10.2012 11.2451 13.3169 0.5
47 2.38931 9.37453 5.45708 0.5
48 7.96522 10.6933 0.72612 0.5
49 6.45989 12.9597 9.69805 0.5
50 6.23977 1.3775 10.4769 0.5
51 0.0108744 10.4583 7.16208 0.5
52 5.75161 10.958 7.03527 0.5
53 9.47507 3.27829 1.77896 0.5
54 11.6758 10.7163 3.68018 0.5
55 0.0904464 0.940783 6.47605 0.5
56 12.7151 5.22568 2.5028 0.5
57 13.4807 11.794 11.5916 0.5
58 5.42919 8.19716 10.4617 0.5
59 1.04145 10.7695 11.3857 0.5
60 7.55047 5.66745 8.45933 0.5
61 3.96922 12.7365 11.0931 0.5
62 0.703922 8.49387 0.858371 0.5
63 11.8695 9.11511 1.87008 0.5
64 12.305 2.5371 10.1563 0.5
65 12.5264 1.62987 5.29181 0.5
66 13.2109 1.54492 2.2058 0.5
67 8.52609 3.10637 7.30197 0.5
68 3.26039 1.62199 3.002 0.5
69 12.761 2.69636 11.0918 0.5
70 12.0402 4.14654 11.3294 0.5
71 2.73394 7.0719 8.88227 0.5
72 7.36416 3.06281 10.1706 0.5
73 8.86579 6.70259 8.44398 0.5
74 5.5789 4.75573 10.3317 0.5
75 8.62396 0.356747 10.1066 0.5
76 12.5197 2.92741 1.01938 0.5
77 10.5505 2.3339 3.24957 0.5
78 9.05601 3.3054 4.86834 0.5
79 4.09317 12.7749 5.93922 0.5
80 4.91929 2.84902 7.91863 0.5
81 2.03076 2.77324 11.8759 0.5
82 1.15628 8.8408 0.0193949 0.5
83 3.32016 1.09254 6.63063 0.5
84 12.5934 9.15602 9.51293 0.5
85 0.532908 3.33323 7.57684 0.5
86 3.05542 0.395355 0.266874 0.5
87 4.35175 6.11739 6.24046 0.5
88 6.52148 5.51324 4.5681 0.5
89 11.327 12.7179 7.62399 0.5
90 4.19076 5.93114 4.30644 0.5
91 11.5589 7.13306 12.1491 0.5
92 13.3627 0.63901 2.47306 0.5
93 0.0793697 0.0384265 0.613645 0.5
94 4.65003 9.86904 12.3833 0.5
95 12.0284 1.52763 8.60907 0.5
96 11.8884 2.8625 4.26279 0.5
97 11.9893 3.15548 5.26111 0.5
98 11.3984 10.0611 13.553 0.5
99 6.62797 8.66057 9.23028 0.5
100 0.644515 6.46947 5.25334 0.5
101 4.52293 11.6141 2.20579 0.5
102 8.56815 6.41048 10.792 0.5
103 4.23375 5.45334 10.7428 0.5
104 6.49449 10.8609 5.51569 0.5
105 11.2048 12.8045 6.59795 0.5
106 6.4125 2.20827 11.1858 0.5
107 0.0729303 4.28049 8.881 0.5
108 0.840321 10.4099 5.71329 0.5
109 0.12888 11.7948 9.89014 0.5
110 8.17295 9.09311 8.99713 0.5
111 8.43122 13.5323 3.56587 0.5
112 6.04481 0.703263 4.73493 0.5
113 0.945672 0.369904 6.54587 0.5
114 7.07271 7.00378 3.22255 0.5
115 5.17167 6.68287 12.5155 0.5
116 0.867666 5.60694 2.15189 0.5
117 0.984921 13.3135 5.56605 0.5
118 11.2328 9.12997 6.16097 0.5
119 11.4357 8.31937 1.89005 0.5
120 5.14703 9.17111 3.87292 0.5
121 11.5254 0.385351 11.1394 0.5
122 2.50737 3.32227 2.49299 0.5
123 11.8578 2.41079 11.1045 0.5
124 10.9686 10.9659 11.8981 0.5
125 5.37081 11.1708 3.90494 0.5
126 10.9013 10.7778 13.0349 0.5
127 7.37438 10.3842 11.0916 0.5
128 5.46636 2.40533 7.05717 0.5
129 2.91447 6.99657 10.5009 0.5
130 0.379212 12.2029 10.7832 0.5
131 7.69393 1.80187 1.50102 0.5
132 5.35635 12.0348 1.91544 0.5
133 0.24063 11.2244 10.8298 0.5
134 10.6911 10.6633 3.78 0.5
135 12.3504 2.39097 5.83403 0.5
136 8.11351 4.99772 4.4338 0.5
137 3.16847 13.0713 5.99438 0.5
138 7.51557 12.3081 13.0563 0.5
139 5.51354 0.45066 12.9904 0.5
140 6.1187 2.87877 3.23819 0.5
141 1.04523 3.34973 4.59618 0.5
142 9.71948 3.21008 13.2963 0.5
143 0.0769497 0.609755 12.7131 0.5
144 8.99715 12.5244 8.87391 0.5
145 6.47405 7.06419 2.45522 0.5
146 10.1856 8.93766 9.20426 0.5
147 4.56611 6.73374 0.689881 0.5
148 12.4723 0.906484 11.3812 0.5
149 7.58186 6.27327 9.32298 0.5
150 12.5877 11.1717 3.55836 0.5
151 6.42857 12.0403 9.39147 0.5
152 3.61372 4.28079 11.5498 0.5
153 11.4049 6.31568 7.72206 0.5
154 2.88115 2.41253 2.35986 0.5
155 2.11452 8.62687 10.3963 0.5
156 7.81161 12.5595 0.402479 0.5
157 1.5964 0.695753 3.20645 0.5
158 1.3536 9.30449 8.36057 0.5
159 4.08998 2.00179 9.18936 0.5
160 8.96596 0.748056 11.091 0.5
161 12.8231 3.70888 11.2232 0.5
162 6.97566 2.88625 8.07864 0.5
163 11.0854 9.19605 0.296928 0.5
164 9.74048 2.77853 11.6493 0.5
165 7.00989 11.2433 10.6576 0.5
166 10.7829 13.5285 7.1653 0.5
167 11.641 7.24311 8.1922 0.5
168 2.26147 3.36169 7.77765 0.5
169 10.5597 11.7362 12.4812 0.5
170 3.79099 6.16743 0.191442 0.5
171 9.86942 5.08047 1.13217 0.5
172 10.559 7.2471 10.7673 0.5
173 8.79709 10.5 2.17029 0.5
174 3.84232 0.237307 13.1395 0.5
175 2.70817 6.35801 3.73224 0.5
176 4.32574 6.13337 3.3144 0.5
177 9.28148 4.1604 5.32926 0.5
178 6.08349 2.58071 4.2309 0.5
179 13.4536 5.90578 2.2287 0.5
180 9.7382 2.40225 12.6339 0.5
181 10.8842 11.4904 8.9153 0.5
182 2.92731 11.3095 1.09466 0.5
183 8.68097 8.08524 5.99305 0.5
184 10.3538 4.54985 9.17492 0.5
185 8.18496 1.23075 10.55 0.5
186 4.16594 8.46159 2.656 0.5
187 4.74001 13.3966 13.5403 0.5
188 5.07854 6.3227 6.965 0.5
189 0.498626 10.9792 6.41815 0.5
190 9.02693 12.8909 3.05662 0.5
191 9.6306 7.5205 3.64788 0.5
192 10.684 0.96959 0.269732 0.5
193 12.4806 1.72593 10.6901 0.5
194 8.99448 13.3518 10.7214 0.5
195 12.565 9.29097 12.3099 0.5
196 8.97758 0.662752 4.03251 0.5
197 2.8614 6.97097 7.91959 0.5
198 7.10671 6.07117 12.2879 0.5
199 11.0267 2.06524 8.57785 0.5
200 6.93963 7.03564 1.51921 0.5
201 0.744386 3.6267 8.49835 0.5
202 6.46661 0.0655083 7.14787 0.5
203 1.92464 3.60631 1.76544 0.5
204 0.782428 8.5601 7.81283 0.5
205 12.4541 12.4099 4.58168 0.5
206 0.930574 0.925156 10.1677 0.5
207 5.49314 13.1575 8.37877 0.5
208 9.54654 5.82616 6.49917 0.5
209 5.1774 2.71591 3.58987 0.5
210 4.42334 6.93774 5.55803 0.5
211 3.76297 4.57475 10.6195 0.5
212 3.53004 5.59831 3.68811 0.5
213 3.25505 1.80433 5.155 0.5
214 9.93111 3.87902 11.7689 0.5
215 7.9318 7.20921 1.66817 0.5
216 6.09975 8.3296 0.182322 0.5
217 3.87271 11.6318 4.64896 0.5
218 6.54193 8.23514 4.4256 0.5
219 7.87671 0.658786 3.99362 0.5
220 5.80402 2.31442 10.4446 0.5
221 2.40493 4.22956 5.80144 0.5
222 7.07245 11.4682 4.89479 0.5
223 4.57867 9.40542 3.10008 0.5
224 0.208345 9.61835 3.04978 0.5
225 7.64729 11.9713 10.513 0.5
226 10.7847 6.61322 0.392077 0.5
227 12.4281 8.80776 10.4489 0.5
228 4.15307 11.7528 5.65509 0.5
229 5.38045 3.88832 6.25789 0.5
230 6.2354 9.57713 8.76928 0.5
231 8.39775 5.93045 8.89685 0.5
232 6.60788 5.42796 12.9457 0.5
233 1.56389 0.419792 9.49969 0.5
234 11.8151 2.19348 4.97531 0.5
235 1.52991 10.929 2.86211 0.5
236 9.20176 5.78899 1.24879 0.5
237 4.78956 8.10493 6.70701 0.5
238 1.26571 12.378 5.55802 0.5
239 10.4808 7.75256 3.89971 0.5
240 1.41391 4.42788 12.4405 0.5
241 4.78565 5.74166 0.300182 0.5
242 3.27045 0.761428 2.58761 0.5
243 2.7275 9.77352 3.04057 0.5
244 3.40494 12.1041 6.25411 0.5
245 0.966583 11.7516 11.3997 0.5
246 9.67913 9.3325 8.42479 0.5
247 3.7185 0.626903 10.1441 0.5
248 7.10527 2.46783 2.02782 0.5
249 10.2168 1.83845 0.694192 0.5
250 9.64503 1.07795 0.324227 0.5
251 4.89809 9.52107 11.4385 0.5
252 8.48433 7.92522 13.4537 0.5
253 1.7034 8.52637 0.80837 0.5
254 11.0125 3.31481 2.93304 0.5
255 8.25557 9.65559 2.33687 0.5
256 1.55601 13.2701 2.995 0.5
257 1.34216 3.88806 7.73641 0.5
258 0.042142 5.86959 6.65275 0.5
259 4.03102 5.06972 9.80715 0.5
260 6.17231 11.4535 10.0836 0.5
261 11.085 3.69852 5.67142 0.5
262 7.40659 11.1071 5.68141 0.5
263 3.30982 4.52482 8.31216 0.5
264 10.7262 10.5893 8.23822 0.5
265 1.02378 4.37959 4.56523 0.5
266 3.83238 0.137402 6.24245 0.5
267 5.26859 7.68607 8.85534 0.5
268 6.68246 1.72093 1.42781 0.5
269 8.87412 13.5462 8.7046 0.5
270 6.99471 9.63785 7.98567 0.5
271 10.5611 13.506 6.12688 0.5
272 5.99177 9.2396 0.593071 0.5
273 7.69755 5.16914 3.45804 0.5
274 10.2143 3.59163 8.96406 0.5
275 2.93975 10.656 0.34465 0.5
276 4.49509 -0.0217539 11.6071 0.5
277 7.25916 4.759 13.3124 0.5
278 10.4271 10.1929 0.0488381 0.5
279 9.39474 10.8703 5.72388 0.5
280 4.52669 12.5419 1.80444 0.5
281 6.44304 3.09095 10.5716 0.5
282 13.2393 11.3354 0.887368 0.5
283 4.77179 5.34703 2.85128 0.5
284 1.95563 10.4318 13.549 0.5
285 2.41015 10.1381 6.07684 0.5
286 2.97856 0.822496 12.8149 0.5
287 8.44679 7.52286 6.72343 0.5
288 6.65919 0.46698 5.44642 0.5
289 2.50368 10.7882 3.113 0.5
290 1.12071 12.9208 6.48411 0.5
291 5.94958 1.28428 5.62063 0.5
292 4.22211 3.17009 12.7147 0.5
293 11.5081 5.9141 3.97869 0.5
294 1.49429 9.60085 5.99051 0.5
295 2.74007 1.66379 5.95977 0.5
296 0.39634 4.3192 7.85684 0.5
297 10.962 11.9138 11.5224 0.5
298 9.66889 4.05537 12.7644 0.5
299 2.12885 0.406119 13.2121 0.5
300 8.67473 3.89375 1.93618 0.5
301 6.64121 6.88019 11.7342 0.5
302 2.68877 8.78883 2.62369 0.5
303 12.8683 8.91052 2.20404 0.5
304 0.2888 6.7041 6.18414 0.5
305 7.92774 12.7282 7.6751 0.5
306 10.9848 9.09621 1.26794 0.5
307 2.98112 7.34197 3.48385 0.5
308 0.549426 9.92662 12.0067 0.5
309 13.0712 13.325 12.6766 0.5
310 9.25132 13.1715 4.03787 0.5
311 13.4883 4.92284 7.02583 0.5
312 7.18145 11.6228 9.7611 0.5
313 0.974193 10.758 3.69336 0.5
314 5.66896 12.6625 9.18395 0.5
315 13.0808 5.91166 3.09628 0.5
316 8.7165 5.92654 6.99946 0.5
317 0.214899 8.88911 3.80301 0.5
318 12.9768 4.38917 6.42688 0.5
319 10.8627 10.9507 0.423612 0.5
320 5.91288 3.07858 6.5791 0.5
321 2.53232 12.8153 3.12328 0.5
322 9.95142 12.834 0.665202 0.5
323 4.13625 1.3081 2.69502 0.5
324 10.1403 3.37989 3.3355 0.5
325 0.619917 5.94453 12.3675 0.5
326 10.8554 12.9604 0.528747 0.5
327 9.14171 2.6332 8.00142 0.5
328 12.2463 6.82358 12.8069 0.5
329 7.66862 3.55768 7.7847 0.5
330 8.47296 1.017 4.84054 0.5
331 5.84231 3.55012 3.93281 0.5
332 11.7313 2.35111 9.35162 0.5
333 12.9439 1.27326 3.13243 0.5
334 4.11253 5.98141 1.04914 0.5
335 9.84686 0.263248 4.59041 0.5
336 4.3827 1.3066 8.43382 0.5
337 11.5255 1.8019 10.2881 0.5
338 7.86479 5.31922 9.44847 0.5
339 9.40954 3.68248 2.74382 0.5
340 12.5646 3.32517 12.9147 0.5
341 9.08765 13.2962 9.66513 0.5
342 5.66547 0.271906 5.46475 0.5
343 6.90555 5.53137 9.26735 0.5
344 5.56028 7.23787 6.79156 0.5
345 7.95093 8.421 6.60682 0.5
346 0.608881 7.43541 5.60379 0.5
347 12.8948 12.2651 0.609584 0.5
348 1.40688 3.50612 0.783809 0.5
349 8.62429 7.12196 5.85851 0.5
350 7.89735 6.75797 10.1794 0.5
351 2.17866 9.66283 10.5274 0.5
352 8.81009 12.2044 7.26073 0.5
353 8.01907 8.11503 1.87883 0.5
354 2.41088 3.23295 5.67162 0.5
355 2.3576 6.74367 2.88918 0.5
356 11.5475 12.1274 4.97481 0.5
357 6.20184 11.6497 3.38031 0.5
358 4.33035 1.4122 9.94058 0.5
359 7.22483 9.40177 8.8964 0.5
360 13.1763 3.97679 7.28487 0.5
361 3.82169 1.44266 7.5372 0.5
362 0.897341 1.01049 9.19558 0.5
363 10.5755 11.9841 0.436156 0.5
364 3.15742 7.73568 0.859492 0.5
365 2.29054 7.66001 0.617169 0.5
366 6.66541 8.73341 8.21594 0.5
367 11.166 11.6926 13.295 0.5
368 4.99413 4.73369 9.40231 0.5
369 2.01318 3.06503 4.71586 0.5
370 13.5528 10.1318 6.2209 0.5
371 9.27751 0.295324 3.21582 0.5
372 0.352533 4.75397 3.79091 0.5
373 5.16592 2.75933 12.8043 0.5
374 0.633626 9.15779 12.7639 0.5
375 0.898988 10.1455 8.74946 0.5
376 1.93077 11.1977 3.85014 0.5
377 7.47763 5.76763 4.24638 0.5
378 5.76199 9.09407 13.233 0.5
379 5.03247 5.98455 1.24496 0.5
380 6.44284 4.79506 0.25428 0.5
381 10.1189 2.78244 8.38332 0.5
382 9.27769 3.07223 8.88755 0.5
383 1.35171 5.31209 1.23107 0.5
384 5.52938 10.0138 12.9309 0.5
385 12.6958 11.8389 1.58482 0.5
386 0.266442 3.84855 4.26906 0.5
387 1.86818 5.63661 11.2122 0.5
388 0.935143 1.96165 10.2758 0.5
389 5.41441 9.32267 10.5653 0.5
390 4.66692 4.58816 10.3069 0.5
391 7.16583 0.222288 2.18083 0.5
392 0.142312 5.16022 2.81934 0.5
393 3.39195 5.33029 9.06478 0.5
394 9.12186 8.90859 9.19903 0.5
395 1.15559 0.224669 8.62777 0.5
396 0.0486391 0.590237 3.42251 0.5
397 7.24789 0.980281 1.38483 0.5
398 9.17507 11.8654 3.4306 0.5
399 0.9416 3.85797 3.66787 0.5
400 6.87489 8.81272 5.22508 0.5
401 9.50958 2.15954 0.105578 0.5
402 5.13295 7.6698 5.88689 0.5
403 7.59333 13.5232 7.13633 0.5
404 10.2527 10.378 11.4964 0.5
405 12.0366 5.73519 0.543218 0.5
406 7.06265 2.42489 13.4413 0.5
407 2.11372 11.8086 3.17474 0.5
408 1.72841 3.90421 5.23851 0.5
409 3.63718 5.27077 11.4691 0.5
410 11.486 2.51988 3.3553 0.5
411 4.50047 6.60391 13.2664 0.5
412 4.72944 0.0191546 12.579 0.5
413 3.50632 7.73953 8.57475 0.5
414 2.92185 9.08165 10.9904 0.5
415 8.45505 10.3734 10.9472 0.5
416 8.7782 10.3607 6.31415 0.5
417 1.33532 13.0594 9.34928 0.5
418 9.24539 1.36288 10.3003 0.5
419 3.08844 13.0839 11.3214 0.5
420 3.61168 0.449102 7.24841 0.5
421 0.0327944 6.14613 10.6018 0.5
422 8.49278 4.7074 5.43552 0.5
423 12.4027 13.0892 3.81411 0.5
424 2.71177 3.83887 4.88383 0.5
425 8.17489 7.42472 10.8202 0.5
426 0.1961 12.5781 6.77296 0.5
427 7.23672 2.53322 0.964138 0.5
428 13.3835 8.7631 9.09223 0.5
429 10.4121 5.60607 9.43451 0.5
430 8.17629 0.253443 11.0483 0.5
431 2.5597 5.32839 8.33816 0.5
432 0.293031 1.45083 2.91073 0.5
433 7.70091 11.4737 13.5156 0.5
434 0.44218 3.3186 0.422525 0.5
435 11.7864 9.52816 0.891538 0.5
436 6.5381 4.86269 10.0563 0.5
437 4.20506 9.58426 6.06276 0.5
438 5.90328 3.0627 7.69311 0.5
439 11.0116 11.2606 9.88079 0.5
440 9.72669 10.5421 6.61388 0.5
441 6.28571 13.3462 4.74233 0.5
442 1.29647 6.57561 5.91284 0.5
443 0.623486 11.433 1.10583 0.5
444 9.12726 8.61182 13.351 0.5
445 5.08707 8.50632 3.09774 0.5
446 3.27494 6.18724 4.57592 0.5
447 1.74293 8.71155 5.68813 0.5
448 5.3055 9.81951 0.310624 0.5
449 3.64197 0.245022 11.046 0.5
450 3.49038 2.44058 1.57797 0.5
451 6.67763 3.10468 0.27995 0.5
452 2.03257 8.26318 13.4676 0.5
453 5.08743 10.1726 3.58358 0.5
454 3.20311 13.5741 3.34503 0.5
455 2.33932 2.06268 11.1139 0.5
456 8.10511 12.8431 8.64667 0.5
457 11.8559 11.9029 7.68694 0.5
458 3.82395 0.965479 9.1778 0.5
459 13.2922 2.12909 5.51838 0.5
460 12.7629 6.33025 0.115502 0.5
461 11.465 7.67783 11.1803 0.5
462 11.0062 2.64511 7.77231 0.5
463 6.75604 3.43533 7.32025 0.5
464 11.4741 8.61449 10.6685 0.5
465 5.54074 10.179 11.9964 0.5
466 2.92918 0.226658 6.58816 0.5
467 1.21435 7.85485 0.250701 0.5
468 12.7406 8.15902 9.7559 0.5
469 2.07041 3.05339 10.9105 0.5
470 2.0078 5.10436 12.9212 0.5
471 4.41106 0.889828 10.8741 0.5
472 11.0098 6.90795 4.03424 0.5
473 12.2425 6.9079 7.45262 0.5
474 1.67354 8.27848 8.19625 0.5
475 6.51359 3.96041 6.34352 0.5
476 7.16882 1.69983 10.8623 0.5
477 5.88695 8.0227 9.58302 0.5
478 2.65607 12.1436 0.805198 0.5
479 9.43994 7.72612 13.4245 0.5
480 3.47306 10.5096 7.83102 0.5
481 2.36528 3.63198 0.86142 0.5
482 10.497 13.4522 1.39151 0.5
483 8.43317 11.3182 2.82614 0.5
484 10.0508 6.75427 4.08708 0.5
485 4.43478 5.60652 1.97757 0.5
486 3.34631 10.6437 8.82735 0.5
487 4.96634 2.21456 8.71361 0.5
488 5.87029 4.78032 6.45534 0.5
489 3.73125 0.819807 3.46776 0.5
490 0.768345 12.1107 9.05165 0.5
491 2.67249 7.47322 11.42 0.5
492 1.43501 5.35886 12.0351 0.5
493 11.1203 7.84487 10.248 0.5
494 7.17487 4.79465 0.787982 0.5
495 6.47478 7.59676 0.747579 0.5
496 6.456 13.491 12.8071 0.5
497 5.69403 5.56989 7.24491 0.5
498 3.4087 12.2876 5.24119 0.5
499 7.26453 2.64912 11.0812 0.5
500 11.4359 8.85229 5.2352 0.5
501 5.3239 2.04626 4.25603 0.5
502 9.78446 10.3284 8.5926 0.5
503 8.26575 4.9255 12.8415 0.5
504 2.5898 1.25158 0.00707682 0.5
505 4.68217 3.14469 11.9531 0.5
506 3.8622 11.1213 0.747848 0.5
507 7.8808 4.20028 3.88545 0.5
508 0.438749 1.67305 6.0413 0.5
509 5.32406 5.63386 6.28452 0.5
510 8.00309 11.2313 11.2222 0.5
511 6.09979 0.474274 6.28517 0.5
512 8.56617 11.1179 3.82037 0.5
513 5.70869 3.93334 2.03918 0.5
514 5.6929 8.27903 1.06772 0.5
515 1.99807 10.21 2.45487 0.5
516 5.64438 9.49075 3.04685 0.5
517 1.59115 3.06064 3.80459 0.5
518 1.83762 7.31024 8.30806 0.5
519 5.0799 7.54983 9.80475 0.5
520 2.12378 0.554511 0.668677 0.5
521 11.1853 5.07688 4.66995 0.5
522 2.06884 10.5768 11.1332 0.5
523 13.2674 8.08057 3.59009 0.5
524 0.605618 0.718815 5.60214 0.5
525 10.9037 10.0292 0.849592 0.5
526 8.40662 12.0612 8.1279 0.5
527 7.35073 10.8917 1.43513 0.5
528 1.2493 0.137052 0.233392 0.5
529 13.3444 12.9138 0.0138957 0.5
530 12.0463 3.38748 10.802 0.5
531 10.6345 8.11186 11.1518 0.5
532 6.02799 9.06463 4.54228 0.5
533 5.0954 7.12056 10.7888 0.5
534 1.8732 11.4108 11.5512 0.5
535 8.01929 13.2763 13.2292 0.5
536 1.77503 12.5912 3.66251 0.5
537 2.58916 11.3718 8.92355 0.5
538 8.09612 10.1588 1.47795 0.5
539 2.45102 7.81377 2.85429 0.5
540 1.71424 3.629 8.587 0.5
541 3.78712 11.4939 1.7379 0.5
542 7.36399 0.373497 12.8497 0.5
543 12.7977 5.44386 6.41632 0.5
544 8.09926 2.68225 8.09314 0.5
545 2.31875 5.75058 3.00262 0.5
546 1.15412 0.568774 12.8267 0.5
547 10.3145 5.23622 5.17069 0.5
548 11.8827 13.3776 7.20904 0.5
549 0.183017 10.8395 9.18214 0.5
550 12.6815 12.1456 3.58835 0.5
551 6.3851 0.739103 1.91363 0.5
552 3.80984 7.24552 0.165233 0.5
553 11.0941 4.86885 9.5787 0.5
554 3.53415 12.9458 6.85676 0.5
555 0.583369 2.9168 3.909 0.5
556 7.28265 12.9629 12.4064 0.5
557 7.05518 10.93 0.50626 0.5
558 5.00765 2.17 9.76966 0.5
559 3.14571 11.3179 8.11562 0.5
560 7.13174 3.66173 10.891 0.5
561 8.49657 8.77992 11.8457 0.5
562 13.4405 2.63316 0.681576 0.5
563 9.04821 6.74379 6.66921 0.5
564 8.06044 5.10562 0.221679 0.5
565 9.45111 4.99039 5.8829 0.5
566 6.81818 2.25821 10.213 0.5
567 12.1189 5.58856 3.21195 0.5
568 7.82011 2.16958 10.3692 0.5
569 10.8897 6.34293 12.0678 0.5
570 12.9314 8.02357 2.60069 0.5
571 2.66217 0.882488 3.39502 0.5
572 3.7085 3.44278 0.0804451 0.5
573 0.218492 13.4471 6.19292 0.5
574 9.02926 8.24598 3.17238 0.5
575 8.54733 0.155004 2.55519 0.5
576 4.1547 10.9561 8.2972 0.5
577 3.60082 9.2755 2.99767 0.5
578 2.11125 10.6198 1.00929 0.5
579 13.4239 9.07624 11.9669 0.5
580 2.78976 6.01685 7.52679 0.5
581 1.40096 12.783 8.43444 0.5
582 3.05916 12.3311 10.7497 0.5
583 2.69571 10.9677 13.035 0.5
584 10.758 6.04538 4.6556 0.5
585 12.5377 4.82901 7.1891 0.5
586 13.2302 5.87154 9.68265 0.5
587 0.490121 2.08147 2.01696 0.5
588 13.075 0.366055 13.4062 0.5
589 13.5325 9.83508 8.96415 0.5
590 4.31684 10.8134 9.25804 0.5
591 3.74096 3.29424 11.8887 0.5
592 11.2537 12.0154 10.5393 0.5
593 5.50235 10.0804 7.05722 0.5
594 13.4371 10.8744 5.61251 0.5
595 12.684 10.2043 5.91601 0.5
596 9.18698 9.72272 2.7963 0.5
597 3.07964 12.0634 7.34569 0.5
598 8.00948 11.4759 4.81235 0.5
599 11.6945 11.1022 8.25675 0.5
600 12.0533 5.92694 13.1037 0.5
601 3.85443 5.32622 2.80167 0.5
602 0.373049 5.32895 9.21748 0.5
603 2.88821 8.08421 10.6435 0.5
604 5.27437 1.35563 10.4828 0.5
605 8.1325 3.07457 10.8315 0.5
606 12.1993 9.24283 5.83426 0.5
607 8.90821 9.82288 8.7642 0.5
608 8.23408 12.6932 12.3978 0.5
609 1.29194 11.0159 0.424301 0.5
610 0.807428 8.43785 8.78006 0.5
611 0.36055 9.22314 8.37352 0.5
612 5.36839 13.1418 3.19924 0.5
613 3.63369 5.21094 4.69708 0.5
614 4.43426 13.537 10.5365 0.5
615 2.5409 10.5178 8.34008 0.5
616 0.597287 6.64008 2.06926 0.5
617 6.64006 6.08483 2.88283 0.5
618 10.7522 6.93512 8.01589 0.5
619 11.6432 3.36051 1.14736 0.5
620 0.225763 10.8586 11.7672 0.5
621 1.86881 3.94756 4.21511 0.5
622 5.7538 8.59586 8.75667 0.5
623 12.9466 8.84099 4.19692 0.5
624 0.490044 6.13268 2.9255 0.5
625 1.20416 3.15243 11.5126 0.5
626 2.89169 3.87344 1.70166 0.5
627 10.3687 5.66483 0.545899 0.5
628 12.957 4.66543 11.4179 0.5
629 6.17602 3.03386 2.26435 0.5
630 3.36419 3.31867 1.02112 0.5
631 9.91346 0.57908 13.1142 0.5
632 6.45401 12.5178 13.0752 0.5
633 10.1626 0.805249 1.13874 0.5
634 10.3609 10.6628 9.27631 0.5
635 10.2281 1.56065 13.1891 0.5
636 10.2393 3.2402 12.4855 0.5
637 12.9646 10.9692 6.5293 0.5
638 5.29096 1.24971 4.87129 0.5
639 8.55737 6.12309 9.791 0.5
640 2.87188 4.95893 7.40135 0.5
641 8.1755 7.68787 5.15133 0.5
642 11.1696 5.9422 1.09059 0.5
643 11.4787 1.71292 7.79237 0.5
644 6.82777 3.92243 9.93661 0.5
645 0.760843 11.5158 5.64429 0.5
646 8.9989 9.10796 12.5611 0.5
647 8.94604 6.10015 11.7327 0.5
648 7.99617 10.3741 11.8111 0.5
649 5.89763 7.57838 11.186 0.5
650 3.68141 0.727391 8.18674 0.5
651 0.118475 5.06846 6.05498 0.5
652 5.16727 3.34666 7.11028 0.5
653 1.36848 6.2781 1.6228 0.5
654 4.56416 9.95489 10.6478 0.5
655 11.4931 12.1767 8.55412 0.5
656 0.330557 11.0911 0.193406 0.5
657 11.4086 0.730267 7.46139 0.5
658 9.56747 9.86323 5.84807 0.5
659 1.11838 10.0147 2.95103 0.5
660 0.594689 0.163261 9.5132 0.5
661 0.879857 7.59504 8.03714 0.5
662 3.22084 11.2918 5.46743 0.5
663 5.38208 12.1424 3.52772 0.5
664 5.20509 6.62869 6.11174 0.5
665 10.2819 10.5836 2.80048 0.5
666 5.74613 12.3143 10.0819 0.5
667 10.2434 4.36827 8.28137 0.5
668 5.36638 3.48334 2.93965 0.5
669 7.84471 10.605 2.35696 0.5
670 8.81965 12.9366 7.92023 0.5
671 6.56797 8.58943 1.04694 0.5
672 3.25005 3.69837 5.58516 0.5
673 5.14282 8.79239 0.370877 0.5
674 3.22938 8.29843 11.5231 0.5
675 1.90647 3.80474 11.5936 0.5
676 2.44155 0.133266 2.70662 0.5
677 3.3371 8.27337 3.28239 0.5
678 12.1224 7.80046 10.4124 0.5
679 11.3551 12.9948 5.62131 0.5
680 4.59212 11.7324 1.17345 0.5
681 3.38841 1.62543 8.5379 0.5
682 1.11394 2.95981 10.446 0.5
683 2.3703 5.8378 12.105 0.5
684 11.6773 12.4036 3.95002 0.5
685 12.0226 11.5231 4.2509 0.5
686 10.7469 7.24609 11.7161 0.5
687 4.83486 9.37765 13.1595 0.5
688 1.18534 8.10335 5.12655 0.5
689 3.42945 3.19027 2.08017 0.5
690 4.07289 8.80094 6.52976 0.5
691 13.2178 10.031 11.7701 0.5
692 4.66185 0.818333 13.2879 0.5
693 11.0956 5.60783 12.6719 0.5
694 5.77148 9.0456 9.66741 0.5
695 12.1031 8.48608 2.63654 0.5
696 11.1503 3.01917 8.72385 0.5
697 0.0934032 10.3028 8.16417 0.5
698 6.12786 10.3296 6.35177 0.5
699 3.00219 7.88027 13.4929 0.5
700 12.9413 9.02925 3.17078 0.5
701 8.92139 8.1453 12.6471 0.5
702 4.092 2.15002 8.17132 0.5
703 0.943921 5.2214 12.8893 0.5
704 8.60641 3.55145 8.24993 0.5
705 10.9062 7.90255 7.66966 0.5
706 6.75594 11.8211 5.74805 0.5
707 4.2286 4.80563 8.71193 0.5
708 0.576672 0.993359 1.958 0.5
709 10.1297 0.143522 0.458841 0.5
710 6.62739 6.3618 3.87616 0.5
711 0.421249 13.4259 13.1896 0.5
712 12.4046 1.6424 9.62731 0.5
713 8.73207 9.11062 8.17163 0.5
714 13.3673 3.52073 8.126 0.5
715 0.118644 8.68613 2.79796 0.5
716 1.92552 2.28133 10.2625 0.5
717 2.89492 6.8991 0.269013 0.5
718 11.1311 0.963938 8.42875 0.5
719 4.65046 10.4817 11.5317 0.5
720 12.8458 11.6336 2.63796 0.5
721 10.9958 5.05525 8.61657 0.5
722 5.48029 13.0332 13.0051 0.5
723 3.2847 11.16 9.71008 0.5
724 10.0502 13.4843 9.48525 0.5
725 2.37995 2.25307 5.29499 0.5
726 7.56487 2.70675 7.2093 0.5
727 4.70892 3.35218 0.0520349 0.5
728 12.6659 2.5428 4.89342 0.5
729 8.92188 4.82127 1.43902 0.5
730 8.64695 6.13667 5.93884 0.5
731 11.1073 0.353347 0.883584 0.5
732 2.81186 3.65765 8.51816 0.5
733 7.72315 11.6172 0.850915 0.5
734 10.0866 11.339 6.26574 0.5
735 3.08119 6.17293 8.54994 0.5
736 4.48374 4.66168 11.3821 0.5
737 6.15967 3.87828 2.92637 0.5
738 2.05216 7.49279 10.6518 0.5
739 7.1782 0.608285 7.76897 0.5
740 11.3878 1.4606 9.37278 0.5
741 7.7136 4.19297 4.9536 0.5
742 5.24861 9.33254 1.21542 0.5
743 7.18117 7.90172 5.30367 0.5
744 5.04257 3.67747 12.7229 0.5
745 8.06506 5.74089 12.1999 0.5
746 5.01995 8.46832 9.50657 0.5
747 13.1331 0.28768 11.7971 0.5
748 7.6751 8.92015 8.08082 0.5
749 6.07897 9.74824 3.82627 0.5
750 1.52759 1.059 0.018923 0.5
751 0.296311 8.28793 12.3619 0.5
752 2.08035 1.23464 12.7684 0.5
753 7.14521 1.63383 0.563295 0.5
754 3.30628 12.0738 11.6372 0.5
755 6.10823 2.49519 13.2025 0.5
756 6.32138 7.80848 1.77068 0.5
757 11.8749 6.21034 12.1387 0.5
758 4.34383 12.5043 4.95584 0.5
759 12.3639 8.19877 1.66588 0.5
760 7.16401 4.82424 4.32311 0.5
761 3.19291 11.5755 0.128336 0.5
762 0.629535 2.89557 1.33911 0.5
763 11.7481 13.1218 4.61091 0.5
764 8.50354 9.25733 3.32886 0.5
765 13.2469 2.55085 1.70626 0.5
766 8.10865 3.26281 4.51754 0.5
767 3.61312 6.86967 0.999158 0.5
768 12.5599 -0.00616876 10.9254 0.5
769 11.3812 2.63303 5.84822 0.5
770 12.0499 7.60482 6.55374 0.5
771 7.78778 7.62749 6.06768 0.5
772 1.60015 1.50959 10.8024 0.5
773 9.62355 3.58595 8.09925 0.5
774 8.46057 0.850294 3.2655 0.5
775 9.7365 0.0720337 11.3404 0.5
776 2.32884 9.16341 6.43728 0.5
777 11.0889 11.6109 3.80227 0.5
778 11.8756 11.6986 3.19154 0.5
779 7.86493 8.47285 5.57473 0.5
780 3.6266 11.5607 8.92256 0.5
781 12.9571 1.61704 6.31367 0.5
782 10.9061 3.12 3.95871 0.5
783 13.3896 9.72209 12.7386 0.5
784 3.06214 2.85036 4.8755 0.5
785 10.5918 9.54376 5.50044 0.5
786 8.59577 4.12461 4.59243 0.5
787 5.95883 12.4199 2.7018 0.5
788 11.3943 6.64329 11.2629 0.5
789 8.7398 3.10385 2.40954 0.5
790 7.6444 0.276288 3.01102 0.5
791 5.85187 7.36201 12.1648 0.5
792 6.55909 2.42031 7.29037 0.5
793 6.87649 9.10212 4.16626 0.5
794 11.9081 0.390055 4.07873 0.5
795 7.51283 8.4405 4.62552 0.5
796 3.12167 9.73815 8.48066 0.5
797 4.42647 3.79328 11.1898 0.5
798 2.66745 3.26402 4.02216 0.5
799 13.3439 1.13584 5.58052 0.5
800 1.1533 8.24799 12.8777 0.5
801 7.56727 6.13346 3.33626 0.5
802 5.01658 10.8715 12.4677 0.5
803 10.7182 11.0518 10.8731 0.5
804 13.582 6.83119 9.73842 0.5
805 8.78105 8.82309 2.44807 0.5
806 2.54563 7.8752 8.18529 0.5
807 3.47314 5.49499 8.02325 0.5
808 1.77433 9.35676 2.98661 0.5
809 8.99951 4.10951 11.9164 0.5
810 2.35114 12.2797 11.3471 0.5
811 10.3494 7.04005 3.19339 0.5
812 2.17628 8.39505 11.3192 0.5
813 7.27453 5.11543 12.3637 0.5
814 9.76718 0.297921 5.59104 0.5
815 12.1475 12.8608 8.05012 0.5
816 8.35671 7.74705 0.969858 0.5
817 11.0257 11.1348 2.95066 0.5
818 3.72829 10.7159 13.4096 0.5
819 6.12512 12.8483 7.67243 0.5
820 0.494555 12.7003 9.76963 0.5
821 11.0805 2.90603 4.95125 0.5
822 9.35057 1.01191 4.9647 0.5
823 9.5686 0.389377 10.3061 0.5
824 2.18628 7.86659 5.37682 0.5
825 8.02205 0.990118 2.17904 0.5
826 7.11913 13.1858 7.97708 0.5
827 10.8454 0.785267 1.92197 0.5
828 5.41458 4.54455 2.9303 0.5
829 4.81988 1.82444 7.68044 0.5
830 6.07734 0.11958 8.9899 0.5
831 11.3745 13.5523 8.10256 0.5
832 13.1743 4.94777 9.52885 0.5
833 2.77119 11.35 11.0443 0.5
834 9.19043 1.44554 13.0125 0.5
835 1.62501 6.0363 12.7186 0.5
836 7.95254 9.4715 11.3529 0.5
837 5.77288 3.40352 13.4058 0.5
838 12.1831 13.4747 11.8049 0.5
839 4.61983 5.09168 1.18717 0.5
840 7.08685 13.0998 13.4575 0.5
841 5.77393 11.285 6.08887 0.5
842 12.594 4.1074 12.1759 0.5
843 12.6707 2.6039 0.0932978 0.5
844 4.32917 4.15792 13.2166 0.5
845 10.4051 5.30883 6.15294 0.5
846 6.48451 12.8319 8.68327 0.5
847 4.04588 7.90768 5.92197 0.5
848 4.92123 7.30634 11.7595 0.5
849 0.453857 12.5173 5.83542 0.5
850 10.1322 11.4061 11.5314 0.5
851 6.73222 11.1639 6.49828 0.5
852 6.51029 10.333 7.31995 0.5
853 4.3174 7.78507 9.17753 0.5
854 10.5403 6.08738 3.57558 0.5
855 9.26764 10.83 3.04307 0.5
856 2.19275 13.5478 3.79004 0.5
857 9.71867 4.12199 10.682 0.5
858 8.04822 9.83464 8.24678 0.5
859 11.1773 4.71937 5.63761 0.5
860 10.2619 4.38611 5.7826 0.5
861 11.4039 0.171043 6.44088 0.5
862 10.3185 6.34149 11.2851 0.5
863 7.11635 8.42991 6.11168 0.5
864 8.42672 6.71289 7.47025 0.5
865 12.0634 3.3908 0.240259 0.5
866 5.41335 13.0267 2.07756 0.5
867 12.4219 3.9064 1.0491 0.5
868 9.73224 9.76939 9.45898 0.5
869 4.11965 0.37638 0.437992 0.5
870 3.71408 8.79345 5.58483 0.5
871 12.3304 8.66351 4.99811 0.5
872 1.44901 6.35638 11.8475 0.5
873 12.4344 0.81815 2.36018 0.5
874 7.67199 5.62931 13.0895 0.5
875 7.70329 12.1126 5.51225 0.5
876 2.13434 6.32282 8.36964 0.5
877 11.8398 7.92521 7.48936 0.5
878 2.2673 11.405 0.266468 0.5
879 2.95202 4.04747 7.54848 0.5
880 11.7627 0.676056 1.59779 0.5
881 10.1361 10.8659 12.4067 0.5
882 1.92532 10.1685 3.54826 0.5
883 10.5174 12.3704 1.28898 0.5
884 13.3417 3.4497 1.17931 0.5
885 7.8433 10.8642 10.247 0.5
886 1.33641 2.89232 8.10302 0.5
887 0.513893 0.750642 0.0636882 0.5
888 4.95239 4.65457 2.05705 0.5
889 11.0575 4.09504 8.7829 0.5
890 12.0266 8.70208 6.76225 0.5
891 3.30877 6.21418 2.90701 0.5
892 9.37109 0.66556 9.39112 0.5
893 10.6392 3.54223 7.99221 0.5
894 7.26952 7.93211 1.26383 0.5
895 11.7521 8.57074 0.938395 0.5
896 6.90054 11.9628 0.238814 0.5
897 6.27564 12.6974 3.65025 0.5
898 4.93096 12.4141 2.7289 0.5
899 10.4011 4.87796 10.2254 0.5
900 11.8095 11.5194 9.32183 0.5
901 0.318164 5.29466 10.2972 0.5
902 10.717 6.10602 8.47752 0.5
903 9.75956 8.46322 3.85859 0.5
904 8.35105 3.71031 5.44509 0.5
905 0.758765 5.77081 5.94035 0.5
906 12.8905 4.85625 3.45464 0.5
907 6.17209 4.03003 10.6288 0.5
908 9.0055 0.107013 5.01023 0.5
909 9.69263 2.74178 2.7011 0.5
910 8.51034 2.16268 7.18076 0.5
911 6.14286 6.4034 12.5236 0.5
912 8.73093 9.7508 11.7773 0.5
913 11.205 5.72226 0.0426237 0.5
914 4.41046 1.29855 0.660392 0.5
915 8.41017 2.62722 5.25312 0.5
916 11.1361 8.12358 6.69321 0.5
917 11.7408 0.804744 12.0727 0.5
918 8.42611 5.8864 7.96485 0.5
919 13.5803 12.1372 1.39618 0.5
920 13.0539 11.7104 10.6594 0.5
921 5.7818 6.53452 7.64426 0.5
922 13.0235 3.12827 12.0818 0.5
923 2.29824 2.83309 8.65465 0.5
924 11.3083 12.2506 9.58686 0.5
925 10.3515 3.56652 2.25146 0.5
926 4.57428 10.3373 13.2326 0.5
927 1.38144 7.15614 5.16192 0.5
928 13.3806 5.95778 5.694 0.5
929 1.39118 2.34239 11.213 0.5
930 10.5726 9.84484 8.84211 0.5
931 5.3811 9.21412 12.3334 0.5
932 4.21264 8.76007 3.67823 0.5
933 0.330328 12.0878 0.465534 0.5