ITEM: TIMESTEP
290000
ITEM: NUMBER OF ATOMS
1000
ITEM: BOX BOUNDS xy xz yz pp pp pp
0.0000000000000000e+00 1.3572088000000001e+01 0.0000000000000000e+00
0.0000000000000000e+00 1.3572088000000001e+01 0.0000000000000000e+00
0.0000000000000000e+00 1.3572088000000001e+01 0.0000000000000000e+00
ITEM: ATOMS id x y z radius
1 4.14837 3.92323 11.9829 0.5
2 5.92529 10.5924 3.28233 0.5
3 8.86781 10.2963 2.93921 0.5
4 9.84785 5.93515 1.21987 0.5
5 9.06346 7.05485 10.1207 0.5
6 3.64452 13.363 5.53665 0.5
7 3.0647 8.57899 1.08963 0.5
8 0.23405 11.5485 1.6981 0.5
9 1.68896 8.16725 6.06656 0.5
10 2.47509 12.6811 10.9772 0.5
11 0.244613 9.53158 8.84681 0.5
12 10.4567 5.90571 0.343223 0.5
13 8.90157 11.5798 6.28553 0.5
14 10.9663 2.09411 3.97604 0.5
15 6.30096 1.25826 4.80352 0.5
16 7.73918 6.52957 8.62059 0.5
17 7.16322 12.2508 10.9481 0.5
18 2.58815 8.80167 6.05523 0.5
19 10.0251 5.27216 1.88396 0.5
20 9.98238 11.8582 3.20928 0.5
21 2.32734 4.4237 0.999699 0.5
22 2.31348 6.71225 12.0268 0.5
23 1.60087 1.5453 9.69797 0.5
24 7.5607 7.19127 2.13182 0.5
25 0.659634 5.84798 3.14185 0.5
26 9.99335 9.86011 6.00448 0.5
27 11.3189 6.91309 12.8058 0.5
28 5.3121 11.1045 11.611 0.5
29 0.337801 6.02594 1.51159 0.5
30 8.1613 10.7775 1.63097 0.5
31 0.0796601 13.1755 8.88521 0.5
32 8.98781 2.31874 12.7262 0.5
33 13.268 6.34808 10.074 0.5
34 3.24369 9.5578 5.84271 0.5
35 11.8693 6.83445 0.0735371 0.5
36 8.93835 1.7048 6.63773 0.5
37 0.66234 0.975535 2.84994 0.5
38 3.42472 1.31012 1.78892 0.5
39 9.91412 4.34699 1.61008 0.5
40 5.82431 6.39944 6.38951 0.5
41 8.39367 11.6194 5.42981 0.5
42 6.79181 5.14614 3.4253 0.5
43 5.14871 5.22547 10.0827 0.5
44 4.4151 10.6354 8.64616 0.5
45 7.33598 6.22483 2.20377 0.5
46 10.4792 11.3126 13.338 0.5
47 2.46539 9.52924 5.29783 0.5
48 7.66816 10.3994 0.878923 0.5
49 5.88677 12.4302 9.66987 0.5
50 6.08995 0.89996 10.5906 0.5
51 13.5687 10.0263 6.51692 0.5
52 5.47383 11.1537 6.39164 0.5
53 9.26668 3.60199 1.87034 0.5
54 11.8691 11.5867 3.94618 0.5
55 0.601093 1.71578 6.40379 0.5
56 12.8095 4.48117 2.77681 0.5
57 0.180241 11.3689 11.4406 0.5
58 5.0857 8.23574 10.4311 0.5
59 1.49718 10.3524 11.2311 0.5
60 7.42976 5.56695 8.91745 0.5
61 3.11367 12.4901 10.1763 0.5
62 0.999469 8.56942 0.950983 0.5
63 11.829 8.81745 2.09731 0.5
64 12.7101 2.45547 10.5179 0.5
65 13.4286 1.5485 4.84831 0.5
66 13.2946 1.8418 1.76145 0.5
67 8.47571 3.22243 7.76778 0.5
68 3.14517 1.39494 2.67573 0.5
69 12.2532 2.86349 11.2612 0.5
70 12.9177 4.34908 10.4813 0.5
71 2.36778 6.98344 8.77953 0.5
72 7.64064 2.30854 11.0846 0.5
73 8.74947 6.31 8.25439 0.5
74 5.95995 4.4372 10.5186 0.5
75 9.04484 0.273262 10.4484 0.5
76 12.6822 2.82463 0.0559262 0.5
77 10.2656 2.48046 3.3332 0.5
78 8.9539 2.83356 5.17238 0.5
79 3.91252 12.6036 6.10775 0.5
80 5.06371 2.69109 7.96464 0.5
81 1.71601 2.96025 11.7755 0.5
82 1.45973 9.04661 0.107982 0.5
83 3.10383 0.878278 6.77385 0.5
84 12.9434 8.92618 8.93379 0.5
85 13.5103 3.63555 6.93686 0.5
86 3.14752 0.695435 13.4662 0.5
87 4.33709 5.82658 5.79601 0.5
88 6.51335 5.40946 4.39231 0.5
89 11.2604 12.4535 7.10903 0.5
90 4.61455 6.16561 4.13955 0.5
91 11.6587 7.68001 11.9844 0.5
92 0.691233 1.80536 2.22164 0.5
93 13.2615 1.15267 13.0959 0.5
94 4.81163 9.82288 12.6415 0.5
95 12.3144 1.69242 7.82006 0.5
96 11.8622 2.58407 3.97193 0.5
97 12.199 2.7676 4.98199 0.5
98 11.0787 9.95159 0.477686 0.5
99 6.58956 8.46109 9.52734 0.5
100 0.712442 6.90407 5.43034 0.5
101 4.73862 11.6699 2.51938 0.5
102 8.78754 6.53401 10.9281 0.5
103 4.23349 5.34412 10.461 0.5
104 6.98298 10.8213 6.04224 0.5
105 11.1985 12.6378 6.10239 0.5
106 6.05361 1.86474 10.7708 0.5
107 12.957 4.55302 8.09123 0.5
108 13.4189 11.166 5.04409 0.5
109 0.227566 12.1966 9.93192 0.5
110 8.16699 9.25192 8.97437 0.5
111 8.66165 -0.00240996 3.32597 0.5
112 6.45634 0.906604 5.77281 0.5
113 0.82964 0.682958 6.41623 0.5
114 7.25103 6.73855 3.08121 0.5
115 5.9906 5.95208 12.5981 0.5
116 0.123784 5.60516 2.31059 0.5
117 1.09315 0.271092 5.54453 0.5
118 10.7199 9.08043 6.21936 0.5
119 12.1077 8.00906 1.64455 0.5
120 5.09316 9.3465 4.03513 0.5
121 11.47 13.0547 11.2446 0.5
122 2.29068 3.06725 1.94061 0.5
123 11.6894 2.24656 10.6645 0.5
124 11.0476 11.1292 11.7703 0.5
125 5.70279 11.1306 4.04735 0.5
126 11.2821 10.9148 0.155827 0.5
127 7.51494 10.2338 11.0987 0.5
128 5.61479 2.61074 7.04145 0.5
129 1.8661 6.91414 11.218 0.5
130 0.791638 11.8289 10.86 0.5
131 7.64353 1.85572 1.52442 0.5
132 5.64477 12.1445 2.18458 0.5
133 0.650565 10.8581 10.7563 0.5
134 10.974 11.7319 3.56209 0.5
135 12.4633 1.8035 5.38907 0.5
136 8.04995 4.65664 4.48832 0.5
137 2.98402 12.9476 6.05469 0.5
138 7.48613 12.128 13.232 0.5
139 5.84665 0.422027 13.1097 0.5
140 6.01042 2.71714 3.94664 0.5
141 1.32989 4.13323 4.97356 0.5
142 10.0562 2.65708 12.6547 0.5
143 0.651239 13.381 13.0302 0.5
144 9.55602 13.0639 8.74622 0.5
145 6.55238 6.84998 2.40991 0.5
146 10.187 8.95374 8.51681 0.5
147 4.63061 6.4374 0.6302 0.5
148 12.12 0.25186 11.0777 0.5
149 7.7045 6.30221 9.61488 0.5
150 12.5472 11.5326 3.11712 0.5
151 6.90557 12.6739 10.0085 0.5
152 3.31552 4.19967 11.223 0.5
153 10.8547 6.60966 8.04582 0.5
154 2.90014 2.13766 1.97996 0.5
155 2.03284 8.58033 11.5811 0.5
156 7.92786 12.0209 0.53068 0.5
157 1.71496 0.219781 3.10762 0.5
158 1.15411 9.95181 8.57358 0.5
159 3.47973 1.75041 9.26201 0.5
160 9.63075 0.181113 11.2801 0.5
161 13.0436 3.35529 10.9332 0.5
162 6.92243 2.65528 8.11178 0.5
163 11.6587 9.13813 0.556263 0.5
164 10.0099 3.39889 11.2488 0.5
165 7.16048 11.2639 10.9953 0.5
166 10.9782 13.3445 6.77572 0.5
167 11.111 7.52877 8.25673 0.5
168 1.70098 3.55435 7.26533 0.5
169 11.2911 10.9276 12.7281 0.5
170 3.81411 6.48958 0.067822 0.5
171 10.1939 5.06229 0.937127 0.5
172 11.0623 7.87668 10.4568 0.5
173 8.85474 10.1759 1.98269 0.5
174 4.35794 0.0627048 12.3737 0.5
175 2.90484 6.34191 3.70752 0.5
176 4.37114 5.62516 3.28575 0.5
177 9.18848 3.84997 5.53414 0.5
178 6.00459 1.62161 3.93319 0.5
179 13.0513 6.18891 1.91777 0.5
180 9.31957 2.9745 11.9891 0.5
181 10.8118 11.4707 9.24287 0.5
182 3.17893 11.8978 1.23564 0.5
183 8.46212 7.26717 5.97849 0.5
184 10.6775 4.36576 9.25467 0.5
185 8.69477 0.561702 11.3859 0.5
186 4.26218 8.71525 2.79162 0.5
187 5.05343 13.3439 13.0494 0.5
188 4.90279 6.05623 6.66272 0.5
189 0.209849 10.8613 5.88529 0.5
190 9.40545 12.769 3.40152 0.5
191 9.35613 7.32981 3.57776 0.5
192 10.5705 1.23234 13.5025 0.5
193 12.3209 1.78577 11.298 0.5
194 9.65701 13.0878 10.6407 0.5
195 13.3435 9.0518 12.3869 0.5
196 8.88897 0.702615 4.15065 0.5
197 2.68503 7.09127 7.85926 0.5
198 6.89797 5.46922 12.503 0.5
199 11.3814 1.50022 8.24019 0.5
200 6.911 6.73634 1.47701 0.5
201 0.110959 3.92943 7.88424 0.5
202 6.03895 0.181092 8.67351 0.5
203 2.07005 3.38529 0.918647 0.5
204 1.86821 8.41723 8.24815 0.5
205 12.7712 13.2762 3.30418 0.5
206 0.740181 1.36016 9.70265 0.5
207 5.22366 11.1423 8.77302 0.5
208 9.07098 4.7833 6.01741 0.5
209 5.10949 2.09073 4.08682 0.5
210 4.35374 6.59312 5.07637 0.5
211 3.73524 4.54992 10.4085 0.5
212 3.66104 5.60717 3.90429 0.5
213 3.7814 1.79076 5.16176 0.5
214 10.2308 4.40002 11.6074 0.5
215 7.90521 6.62204 1.30694 0.5
216 6.1751 8.16758 0.365048 0.5
217 3.75614 11.8213 4.63268 0.5
218 6.57953 8.38061 4.49913 0.5
219 9.16319 0.860921 3.11898 0.5
220 6.34262 1.66582 9.88 0.5
221 3.33217 3.51583 5.31215 0.5
222 7.35361 11.6241 5.58765 0.5
223 4.59612 9.57912 3.14226 0.5
224 12.4285 9.32119 3.94329 0.5
225 8.03607 11.725 10.8317 0.5
226 10.8794 6.88827 0.172994 0.5
227 13.1417 7.87162 10.1503 0.5
228 4.09293 11.77 5.59214 0.5
229 5.55736 4.33365 6.88942 0.5
230 6.20652 9.12242 8.87519 0.5
231 8.33675 5.83157 9.05348 0.5
232 6.63298 4.67579 13.0846 0.5
233 1.27543 0.85535 9.05328 0.5
234 11.6695 1.91143 4.73514 0.5
235 1.28254 10.9556 3.0695 0.5
236 10.7942 5.72864 1.3375 0.5
237 5.13358 8.11979 6.65439 0.5
238 0.764875 12.8734 5.4448 0.5
239 9.98161 8.01883 3.67642 0.5
240 1.68881 5.14612 13.2315 0.5
241 4.2321 5.57739 0.465643 0.5
242 3.2982 0.474335 2.46691 0.5
243 2.47814 9.76164 2.91965 0.5
244 3.26206 11.9748 6.28932 0.5
245 1.14266 11.1782 11.6137 0.5
246 9.46381 9.64823 8.09054 0.5
247 3.60192 0.317852 10.2605 0.5
248 7.57426 2.4639 2.28446 0.5
249 10.5889 2.23438 13.4914 0.5
250 9.94139 1.85569 0.544744 0.5
251 5.03442 9.36412 11.6494 0.5
252 8.51066 8.62587 13.0332 0.5
253 2.04894 8.61507 1.07111 0.5
254 10.5505 2.51679 2.35868 0.5
255 8.33094 9.55958 2.54587 0.5
256 1.77058 12.74 3.11317 0.5
257 0.875269 4.20369 7.29273 0.5
258 13.3624 6.39451 6.70706 0.5
259 4.41464 4.78205 9.62498 0.5
260 6.46275 11.8146 10.3151 0.5
261 11.6005 3.43251 5.3766 0.5
262 7.92921 11.1378 6.21067 0.5
263 2.83469 4.48251 8.12487 0.5
264 10.4189 11.0577 8.41556 0.5
265 2.04081 4.84325 5.19575 0.5
266 3.67968 13.5452 6.46932 0.5
267 5.3542 7.17289 9.11287 0.5
268 6.75854 2.11393 1.84308 0.5
269 9.44673 0.49183 8.82047 0.5
270 6.77358 9.35408 8.06469 0.5
271 10.377 12.5072 6.60073 0.5
272 6.20607 9.026 0.807653 0.5
273 7.74879 4.67091 3.47644 0.5
274 10.2662 3.44009 8.79666 0.5
275 3.16188 11.0862 0.604936 0.5
276 5.05749 12.8677 12.1771 0.5
277 7.51653 4.18472 13.2704 0.5
278 10.3499 10.5884 0.458725 0.5
279 9.40932 11.3294 5.47478 0.5
280 4.72241 12.6666 1.98179 0.5
281 6.75943 2.42805 10.4813 0.5
282 0.308652 11.2352 0.766503 0.5
283 5.18581 5.4377 1.99572 0.5
284 2.35232 11.0909 0.00119869 0.5
285 2.78941 10.4708 5.6991 0.5
286 2.90969 0.949844 12.4842 0.5
287 7.76768 6.97965 6.66821 0.5
288 5.83345 13.452 6.86411 0.5
289 2.27677 10.7649 2.84512 0.5
290 1.02405 13.148 6.45003 0.5
291 5.69897 0.631097 6.21845 0.5
292 3.98343 3.13739 12.5995 0.5
293 10.3941 5.54071 4.16733 0.5
294 1.76381 10.1223 5.76176 0.5
295 2.95056 1.63778 5.90104 0.5
296 13.5361 4.59366 7.16688 0.5
297 10.1527 11.4301 11.6818 0.5
298 9.46267 4.58368 12.4115 0.5
299 2.19454 0.591701 13.0443 0.5
300 9.17028 4.57634 2.33446 0.5
301 6.18438 7.06366 11.3191 0.5
302 2.57141 8.87392 3.27217 0.5
303 12.4736 9.11331 2.91596 0.5
304 0.790433 6.70352 6.41604 0.5
305 7.94667 13.368 8.25504 0.5
306 11.3577 8.53993 1.14123 0.5
307 3.19532 7.26625 3.64662 0.5
308 13.2727 9.76657 11.5491 0.5
309 12.717 0.488589 12.6147 0.5
310 8.92324 13.183 4.19409 0.5
311 13.2841 5.42674 6.55249 0.5
312 7.42488 11.7184 10.1006 0.5
313 0.983076 10.8371 3.90458 0.5
314 6.75687 11.8735 9.35328 0.5
315 12.752 5.40373 2.44491 0.5
316 8.67486 5.79898 7.37464 0.5
317 12.9097 8.58289 4.47292 0.5
318 12.3916 5.16244 6.06204 0.5
319 10.4349 11.5342 0.73917 0.5
320 6.07337 3.55496 7.00806 0.5
321 2.79281 12.5777 3.24199 0.5
322 9.93931 13.0438 0.539755 0.5
323 4.1023 1.0523 2.51528 0.5
324 10.5678 3.38322 2.93595 0.5
325 0.905745 5.1954 0.323775 0.5
326 10.9017 13.0445 0.271828 0.5
327 8.95702 2.51118 8.28596 0.5
328 12.2692 7.27989 12.7756 0.5
329 7.57322 3.48209 8.26022 0.5
330 8.39598 1.18999 5.05019 0.5
331 5.14545 2.8958 4.60423 0.5
332 12 2.07924 8.69663 0.5
333 13.4511 1.44831 2.71048 0.5
334 4.36977 5.79168 1.50585 0.5
335 9.73451 0.218894 4.64348 0.5
336 3.99239 1.38629 8.52906 0.5
337 11.5651 1.08903 10.9329 0.5
338 7.85368 5.37874 9.85517 0.5
339 9.96229 4.0311 2.53462 0.5
340 12.6457 4.20717 12.5947 0.5
341 8.73147 0.612424 9.50232 0.5
342 6.27737 13.4664 5.90143 0.5
343 6.96038 5.64646 9.74853 0.5
344 5.11452 7.14399 6.67699 0.5
345 8.45444 8.44675 6.02384 0.5
346 0.773973 7.70978 6.09894 0.5
347 13.2597 11.7828 0.178063 0.5
348 1.89895 5.29111 0.71904 0.5
349 7.90987 6.25165 5.98039 0.5
350 8.08598 7.11511 10.2608 0.5
351 3.04965 9.01222 11.6456 0.5
352 8.3536 12.8276 7.45773 0.5
353 7.94572 8.24728 0.360415 0.5
354 2.56682 3.05255 5.19337 0.5
355 2.28353 6.97041 3.21528 0.5
356 11.996 13.461 3.96155 0.5
357 6.51181 11.7032 3.66764 0.5
358 3.79091 1.32068 10.1736 0.5
359 7.16653 9.24413 9.02091 0.5
360 12.9222 4.43785 6.50801 0.5
361 3.4411 1.408 7.66389 0.5
362 0.35944 1.24957 8.81625 0.5
363 10.2652 12.2835 0.0365943 0.5
364 3.53057 7.63794 1.18 0.5
365 2.55819 7.79482 0.709903 0.5
366 6.73199 8.43971 8.45534 0.5
367 11.1689 12.0497 0.230631 0.5
368 5.33685 4.33092 9.52345 0.5
369 1.89048 3.41625 4.60946 0.5
370 12.9915 10.3835 5.76279 0.5
371 9.58022 0.121239 3.63299 0.5
372 13.1088 4.2905 3.76678 0.5
373 4.76344 2.47225 12.426 0.5
374 0.698486 9.09373 12.8377 0.5
375 0.525779 9.6417 7.93188 0.5
376 1.96526 11.1832 3.80429 0.5
377 7.55945 5.4559 4.00359 0.5
378 5.9815 9.02576 13.3347 0.5
379 5.14071 5.54068 0.979068 0.5
380 6.64118 3.77204 -0.0137222 0.5
381 10.0182 2.62027 8.323 0.5
382 9.42927 2.91762 9.1505 0.5
383 1.21462 5.85457 1.07158 0.5
384 5.62158 10.0628 13.0657 0.5
385 12.9697 11.6424 1.15191 0.5
386 0.405587 4.15434 4.52537 0.5
387 2.62354 6.0978 11.2651 0.5
388 1.04636 2.34461 9.86973 0.5
389 5.31494 9.24831 10.6266 0.5
390 4.78274 4.47028 10.5066 0.5
391 6.9545 0.507259 2.30484 0.5
392 13.4318 5.1715 3.14769 0.5
393 2.7416 5.1847 8.94518 0.5
394 9.15877 8.98916 8.67502 0.5
395 0.511392 0.396237 8.49294 0.5
396 0.761741 1.88499 3.14174 0.5
397 6.98203 1.18499 1.48613 0.5
398 9.05109 11.9551 3.03998 0.5
399 1.14709 4.91953 4.4555 0.5
400 6.72717 8.99654 5.27744 0.5
401 9.55551 2.68447 13.4989 0.5
402 4.84111 7.59866 5.87416 0.5
403 6.20919 12.9336 8.13664 0.5
404 10.983 10.2063 12.1104 0.5
405 12.1496 5.91255 0.195695 0.5
406 6.3004 2.60547 1.12467 0.5
407 2.05333 11.7983 2.99066 0.5
408 2.47441 4.07084 5.28454 0.5
409 3.35266 5.26436 11.0354 0.5
410 11.1571 2.54435 3.09038 0.5
411 4.71384 6.25171 13.3021 0.5
412 5.33855 0.208796 12.2344 0.5
413 3.37532 7.10146 8.82877 0.5
414 2.50905 8.72587 10.855 0.5
415 8.47415 10.1899 11.0225 0.5
416 8.66621 10.6864 5.83395 0.5
417 1.091 13.3874 8.91286 0.5
418 9.45621 1.05551 10.8582 0.5
419 3.35687 12.1999 11.1641 0.5
420 3.63562 0.0745698 7.41315 0.5
421 12.896 5.44182 10.3243 0.5
422 8.34072 4.43658 5.45739 0.5
423 12.421 13.5324 2.4141 0.5
424 2.79357 3.56318 4.46405 0.5
425 8.69728 7.56388 10.9254 0.5
426 0.761804 12.4299 7.10134 0.5
427 6.85614 1.9727 0.779232 0.5
428 0.325074 8.5669 9.13247 0.5
429 10.1815 5.21334 9.1728 0.5
430 8.8591 13.2095 11.2843 0.5
431 2.35374 5.44313 8.07414 0.5
432 13.5833 2.43831 2.66996 0.5
433 7.53607 11.1696 0.225903 0.5
434 13.4309 4.23267 0.718478 0.5
435 11.3906 9.50596 1.44085 0.5
436 6.95709 4.83127 10.2799 0.5
437 4.23332 9.47049 6.33038 0.5
438 5.95587 3.03842 7.89268 0.5
439 11.1898 10.809 9.90285 0.5
440 9.47117 10.7478 6.30937 0.5
441 6.68266 0.407107 6.66887 0.5
442 1.64666 7.12427 5.92065 0.5
443 1.04531 11.7316 1.08985 0.5
444 9.5504 8.77349 13.1128 0.5
445 5.03754 8.6703 3.34189 0.5
446 3.60602 6.58963 4.36535 0.5
447 1.7235 9.114 5.81265 0.5
448 5.65432 9.70877 0.465712 0.5
449 3.38461 13.1522 10.9167 0.5
450 3.60829 2.23077 1.33339 0.5
451 6.89335 2.93523 0.364736 0.5
452 2.5297 8.65562 0.24971 0.5
453 5.17559 10.3154 3.71578 0.5
454 3.32595 13.4649 3.34731 0.5
455 1.84513 2.06159 11.3352 0.5
456 8.66146 13.4268 8.92724 0.5
457 12.2897 11.765 8.62642 0.5
458 3.85564 0.795986 9.31791 0.5
459 13.1299 2.42793 5.30469 0.5
460 12.8618 6.64508 13.44 0.5
461 11.7262 8.35595 11.0943 0.5
462 10.6779 1.97859 7.7477 0.5
463 6.75927 3.56141 7.68856 0.5
464 12.5021 8.73263 10.4458 0.5
465 5.54065 10.1275 12.0099 0.5
466 2.76474 13.4558 6.92549 0.5
467 1.6481 8.09418 0.377191 0.5
468 13.2902 8.75753 9.87083 0.5
469 2.27248 2.95514 10.9123 0.5
470 1.6956 5.90692 11.5857 0.5
471 4.52851 0.674513 9.93597 0.5
472 10.7369 6.46723 4.0396 0.5
473 11.4876 7.03539 7.51991 0.5
474 1.75648 7.7308 8.93195 0.5
475 6.52791 4.51055 7.14984 0.5
476 6.49069 1.27421 11.4811 0.5
477 5.7884 7.81184 9.78678 0.5
478 3.37457 12.7419 0.637274 0.5
479 8.2708 7.60924 13.1787 0.5
480 3.64021 9.96868 8.31037 0.5
481 2.93396 3.68064 0.550845 0.5
482 10.7274 13.5477 1.08697 0.5
483 8.83113 11.1146 2.44429 0.5
484 10.2333 7.18244 4.26433 0.5
485 4.23117 5.31384 2.40479 0.5
486 3.47189 10.8427 8.96048 0.5
487 4.29271 2.33048 8.78389 0.5
488 5.77934 5.42702 6.86932 0.5
489 3.68148 0.854582 3.35559 0.5
490 0.707593 12.4333 9.03541 0.5
491 2.78383 7.1727 11.2299 0.5
492 1.3342 5.29058 12.2603 0.5
493 11.5853 8.65188 10.1936 0.5
494 7.50384 3.65299 0.589997 0.5
495 6.56444 7.4886 0.888306 0.5
496 6.71226 13.5331 13.3481 0.5
497 4.86375 5.05014 6.48951 0.5
498 3.32311 12.4012 5.36465 0.5
499 6.68089 2.19769 11.5224 0.5
500 10.3921 8.99238 5.4122 0.5
501 5.46123 1.1636 4.52986 0.5
502 9.50802 10.5972 8.51582 0.5
503 8.24864 4.89258 13.0863 0.5
504 2.49709 1.43603 13.3969 0.5
505 4.33244 2.99961 11.6467 0.5
506 3.96654 11.2259 1.18934 0.5
507 7.77497 3.73598 4.00107 0.5
508 0.509417 2.00252 5.5005 0.5
509 5.45986 5.58967 5.93889 0.5
510 7.98715 11.0149 11.5163 0.5
511 6.31528 0.227313 7.5816 0.5
512 8.42181 11.148 3.32211 0.5
513 5.15116 3.86319 3.15764 0.5
514 5.96092 8.18575 1.32745 0.5
515 1.5805 10.0834 2.60975 0.5
516 5.61812 9.48493 3.13543 0.5
517 1.32096 3.97953 3.962 0.5
518 1.80124 7.4595 8.05637 0.5
519 4.92477 7.31482 10.0369 0.5
520 2.26289 0.673923 0.473992 0.5
521 11.2158 5.877 4.74729 0.5
522 2.1959 9.49811 11.3613 0.5
523 13.3203 7.95789 3.84032 0.5
524 1.34192 1.284 5.85146 0.5
525 10.615 9.22883 0.891625 0.5
526 8.66727 12.5926 8.37307 0.5
527 7.22674 10.6249 1.77712 0.5
528 1.41396 0.271949 13.5085 0.5
529 0.0471977 12.7923 0.0973021 0.5
530 12.2421 3.16885 10.3438 0.5
531 10.7514 8.74165 10.7931 0.5
532 5.87558 9.06732 4.7009 0.5
533 5.60431 7.4739 10.6919 0.5
534 1.70418 11.9861 11.2247 0.5
535 8.26786 12.844 13.4589 0.5
536 2.07544 12.2949 3.92782 0.5
537 2.5972 11.1467 9.04755 0.5
538 7.85106 9.7818 1.66527 0.5
539 2.49915 7.94892 3.50201 0.5
540 1.16691 3.82225 8.12834 0.5
541 3.96418 11.9124 1.91428 0.5
542 7.79838 0.155603 13.5498 0.5
543 12.4635 5.96091 6.65617 0.5
544 7.89701 2.50611 8.25703 0.5
545 1.30047 6.63321 2.90724 0.5
546 1.21197 0.630671 12.572 0.5
547 10.5598 5.2175 5.14025 0.5
548 11.8779 13.1044 6.6262 0.5
549 13.2708 10.2823 7.47346 0.5
550 12.5559 12.4772 2.73088 0.5
551 6.33226 1.36767 2.2568 0.5
552 4.10115 7.34966 0.525605 0.5
553 11.1857 5.31607 9.48587 0.5
554 3.43062 12.652 6.94809 0.5
555 0.506365 4.53366 3.67717 0.5
556 7.44425 13.0294 12.9183 0.5
557 7.53746 11.4466 1.20558 0.5
558 4.47903 1.61414 9.46697 0.5
559 2.94984 10.7575 8.13153 0.5
560 6.94314 3.09874 11.2789 0.5
561 8.56502 8.54103 11.3836 0.5
562 0.0121264 3.30262 0.246153 0.5
563 8.52467 6.58427 6.66361 0.5
564 7.88933 4.6666 0.544451 0.5
565 9.93766 4.60862 5.85062 0.5
566 7.02723 1.56232 10.6973 0.5
567 11.8407 4.97167 2.65722 0.5
568 7.52794 1.57865 11.7458 0.5
569 11.0091 6.97843 11.8463 0.5
570 13.1636 8.32687 2.92298 0.5
571 2.65317 0.6333 3.32116 0.5
572 3.76233 3.30835 0.0604747 0.5
573 0.241662 0.00357405 5.83356 0.5
574 9.08449 8.3366 3.52504 0.5
575 8.83675 12.872 2.54139 0.5
576 3.82387 11.044 8.03394 0.5
577 3.49296 9.3434 3.0855 0.5
578 2.19363 11.5269 0.90624 0.5
579 0.241048 9.87943 12.3894 0.5
580 2.69886 6.05122 7.47596 0.5
581 0.805374 12.9722 8.15354 0.5
582 2.48514 11.7661 10.7261 0.5
583 3.30346 11.2117 13.2245 0.5
584 10.2769 6.22928 4.84121 0.5
585 12.577 5.04309 7.16872 0.5
586 13.4285 5.48904 9.47037 0.5
587 13.0795 2.89709 1.84571 0.5
588 13.2862 0.0529487 13.2649 0.5
589 13.0508 9.50099 8.14994 0.5
590 4.1961 11.5849 8.81664 0.5
591 3.49242 3.34496 11.6702 0.5
592 10.7473 11.159 10.8076 0.5
593 5.19458 10.0789 6.22786 0.5
594 13.0022 11.4934 5.91832 0.5
595 12.2238 10.8554 6.24531 0.5
596 9.36494 9.52518 2.48993 0.5
597 1.97583 10.5761 8.4076 0.5
598 7.82316 10.728 5.28488 0.5
599 11.3523 11.433 8.45021 0.5
600 12.1438 6.3001 12.8135 0.5
601 3.38158 5.72931 2.97306 0.5
602 0.524553 6.18863 9.62286 0.5
603 2.10534 7.843 10.8584 0.5
604 5.34167 1.39459 10.0605 0.5
605 7.45692 2.5797 12.0061 0.5
606 11.5351 8.96238 5.55274 0.5
607 8.78692 9.9817 8.80992 0.5
608 8.18298 13.5721 12.6053 0.5
609 1.7818 11.9317 0.158633 0.5
610 1.00468 8.93286 8.48789 0.5
611 0.0525369 8.70236 8.10748 0.5
612 5.61325 13.1877 3.44829 0.5
613 4.03148 5.72221 4.77974 0.5
614 2.70085 13.4662 10.3061 0.5
615 2.85591 10.084 8.89173 0.5
616 0.435275 6.5201 2.35096 0.5
617 6.50391 5.97738 2.94458 0.5
618 10.1841 7.26527 8.30626 0.5
619 11.863 4.23558 13.2439 0.5
620 0.570559 10.3419 11.5102 0.5
621 2.15871 4.35908 4.35175 0.5
622 5.89963 8.13124 8.85259 0.5
623 12.507 7.81957 4.49587 0.5
624 13.2243 6.02789 3.01453 0.5
625 1.54662 3.65882 11.0398 0.5
626 2.88475 3.72033 1.54854 0.5
627 10.4648 6.63079 1.11379 0.5
628 -0.0156194 4.92671 10.9632 0.5
629 5.9313 3.27741 3.11216 0.5
630 3.67973 3.30523 1.0602 0.5
631 9.5776 0.981632 0.210705 0.5
632 6.58053 12.5415 13.3513 0.5
633 10.3922 0.952769 0.875602 0.5
634 10.2739 10.5126 9.2786 0.5
635 9.77734 1.74842 13.1279 0.5
636 9.96378 3.70217 12.2634 0.5
637 13.1376 10.8914 6.67433 0.5
638 5.8313 0.433952 5.18726 0.5
639 8.61614 6.16822 9.96995 0.5
640 2.68282 5.03426 7.20941 0.5
641 7.55502 7.09539 5.63873 0.5
642 11.3583 6.24408 0.714902 0.5
643 11.5185 1.52932 7.25765 0.5
644 7.52307 3.15356 10.4822 0.5
645 0.439221 11.8047 5.52736 0.5
646 9.13212 8.6325 12.2173 0.5
647 8.62371 5.13027 12.1719 0.5
648 8.06715 10.0977 11.9676 0.5
649 5.18389 7.02363 11.5344 0.5
650 2.77995 0.528746 7.74403 0.5
651 12.9251 6.09886 5.862 0.5
652 5.20334 3.39026 7.36388 0.5
653 1.14278 5.92154 2.18765 0.5
654 4.43663 9.69223 10.9269 0.5
655 11.5503 12.246 9.02612 0.5
656 1.33846 11.1299 0.411739 0.5
657 11.5949 0.538302 6.81643 0.5
658 9.44863 10.2916 5.33488 0.5
659 0.838222 10.0065 3.2947 0.5
660 0.406307 0.455387 9.40068 0.5
661 0.890772 7.98071 8.4701 0.5
662 3.1744 11.3548 5.40765 0.5
663 5.59288 12.1818 3.73376 0.5
664 5.06052 6.53711 5.72865 0.5
665 10.5861 11.0174 3.11086 0.5
666 5.88066 11.4909 9.55767 0.5
667 10.2528 4.52055 8.42997 0.5
668 5.04823 2.90984 3.5424 0.5
669 7.98577 10.4341 2.48892 0.5
670 8.92134 13.5236 7.96262 0.5
671 6.98998 8.38562 0.967709 0.5
672 3.4105 2.69136 4.58704 0.5
673 5.41151 8.64824 0.510478 0.5
674 3.05573 8.00706 10.5289 0.5
675 2.49026 3.71197 11.588 0.5
676 2.53561 13.341 2.70139 0.5
677 3.37863 8.33302 3.19809 0.5
678 12.1331 7.78639 10.3578 0.5
679 10.3701 13.2963 5.83343 0.5
680 4.88751 11.7735 1.55347 0.5
681 3.0255 1.12397 8.58003 0.5
682 1.55907 3.22818 10.1132 0.5
683 0.88561 6.27889 12.2265 0.5
684 11.8632 12.9969 3.06707 0.5
685 12.3824 12.4422 3.75514 0.5
686 10.8459 7.91721 11.4256 0.5
687 4.97692 9.16953 13.3508 0.5
688 1.01077 8.55392 5.51642 0.5
689 3.35848 2.99617 2.05357 0.5
690 4.33967 8.6743 7.05211 0.5
691 13.2802 10.6031 11.9821 0.5
692 4.90425 0.748795 12.9878 0.5
693 11.3169 6.04199 12.2484 0.5
694 5.62667 8.73494 9.69491 0.5
695 12.2034 8.05948 2.64102 0.5
696 10.9186 2.89319 8.16652 0.5
697 13.3367 9.29484 7.21526 0.5
698 6.08753 10.5349 6.04423 0.5
699 3.39093 8.14236 0.299802 0.5
700 12.4005 8.39107 3.61586 0.5
701 9.15147 7.77816 12.8605 0.5
702 3.386 2.17014 8.37447 0.5
703 1.53024 6.01433 0.137844 0.5
704 8.43721 3.2225 8.80938 0.5
705 10.4132 8.23728 7.92158 0.5
706 7.09826 11.7123 6.58753 0.5
707 3.63647 4.64319 8.73388 0.5
708 0.431291 2.65632 1.72022 0.5
709 10.318 0.312719 0.1682 0.5
710 6.87678 6.15793 3.85293 0.5
711 0.523888 0.702377 13.3729 0.5
712 12.1047 2.45543 9.69066 0.5
713 8.52809 9.38881 8.0178 0.5
714 12.7139 3.97188 7.32699 0.5
715 13.2656 8.99192 3.54994 0.5
716 1.86574 2.21575 10.318 0.5
717 3.14713 7.18973 0.31378 0.5
718 11.7806 0.736544 7.82344 0.5
719 4.60747 10.369 11.7088 0.5
720 12.8189 11.6808 2.11997 0.5
721 11.0817 5.03109 8.47267 0.5
722 5.89774 13.2038 0.185 0.5
723 3.34003 11.7598 9.40002 0.5
724 9.4568 13.5288 9.65195 0.5
725 2.7452 2.08841 4.9357 0.5
726 7.57607 2.88729 7.41431 0.5
727 4.71034 3.17925 13.2466 0.5
728 12.6556 2.03725 4.37215 0.5
729 9.22609 5.09301 1.40979 0.5
730 8.5154 5.62437 6.31516 0.5
731 11.2578 0.508257 0.406158 0.5
732 2.1739 3.63438 8.17875 0.5
733 8.40061 11.2082 0.762778 0.5
734 9.968 11.6174 6.30417 0.5
735 2.88386 6.18826 8.50019 0.5
736 4.17249 4.76939 11.4049 0.5
737 5.58548 3.62492 4.02328 0.5
738 2.08613 7.63311 11.842 0.5
739 6.94496 13.5444 8.41778 0.5
740 12.2163 1.09048 8.64719 0.5
741 7.60868 3.8556 4.96834 0.5
742 5.63883 9.11692 1.47262 0.5
743 6.95843 8.00176 5.39076 0.5
744 4.97564 3.47361 12.3027 0.5
745 7.86138 5.68141 12.5699 0.5
746 4.91556 8.13846 9.37886 0.5
747 12.979 0.0921239 11.6994 0.5
748 7.69328 8.78896 8.21992 0.5
749 5.99917 9.8265 4.04729 0.5
750 1.49477 1.167 13.5663 0.5
751 13.5269 8.68825 13.2346 0.5
752 1.92893 1.34079 12.5701 0.5
753 5.99667 1.57716 1.26009 0.5
754 2.22205 11.0543 11.4529 0.5
755 6.54198 3.62565 0.968993 0.5
756 6.73269 7.76513 1.81399 0.5
757 12.0002 6.82664 11.9826 0.5
758 4.23208 12.6079 5.11422 0.5
759 12.8245 8.7169 2.08321 0.5
760 7.13344 4.54118 4.30348 0.5
761 3.72531 11.7849 0.396428 0.5
762 0.157829 3.42872 1.21271 0.5
763 12.3633 0.432081 3.32599 0.5
764 8.92292 9.27086 3.31343 0.5
765 13.3537 2.53178 0.927221 0.5
766 8.09273 2.92361 4.68207 0.5
767 3.77226 6.57054 1.13242 0.5
768 12.4338 12.8892 11.1252 0.5
769 11.5585 2.45332 5.62904 0.5
770 11.2812 7.60466 6.68388 0.5
771 7.60947 7.86768 6.21987 0.5
772 1.16914 1.64368 10.6165 0.5
773 9.31001 3.4065 8.29756 0.5
774 9.59883 13.5182 2.6971 0.5
775 10.5534 13.3952 11.0963 0.5
776 2.38196 9.72403 6.29616 0.5
777 11.4793 12.5627 3.89998 0.5
778 11.7147 12.091 3.07825 0.5
779 7.92732 7.89392 5.27616 0.5
780 3.16133 11.6892 8.43602 0.5
781 13.2575 1.76161 5.91618 0.5
782 11.0326 3.14046 3.84876 0.5
783 12.7667 9.87634 12.3957 0.5
784 2.44938 2.67461 4.21989 0.5
785 10.8877 9.80344 5.577 0.5
786 8.61167 3.77455 4.70358 0.5
787 6.14743 12.4556 2.94642 0.5
788 11.5966 7.35877 11.1049 0.5
789 8.90342 3.65931 2.8515 0.5
790 8.74989 0.340464 2.24494 0.5
791 5.89236 6.92599 12.2376 0.5
792 6.63596 2.76988 7.13023 0.5
793 6.80446 9.18963 4.20025 0.5
794 13.2881 0.467983 2.87376 0.5
795 7.50441 8.656 4.69487 0.5
796 3.83292 9.99496 9.31311 0.5
797 4.17547 3.82221 11.0848 0.5
798 2.2687 3.61211 3.6839 0.5
799 0.37735 1.04587 5.61797 0.5
800 0.793019 8.42457 0.0228292 0.5
801 7.44805 5.72343 3.14244 0.5
802 4.97824 10.7572 12.6285 0.5
803 10.3074 10.4599 11.3819 0.5
804 12.5217 5.92371 9.381 0.5
805 8.93088 8.60983 2.57533 0.5
806 2.65053 7.87243 8.44273 0.5
807 3.29123 5.38554 8.11589 0.5
808 1.62123 9.35698 3.30003 0.5
809 9.4428 4.91289 11.4491 0.5
810 2.53523 11.9236 11.6928 0.5
811 10.28 7.02481 3.32303 0.5
812 2.9136 8.02906 11.5224 0.5
813 7.53572 4.78002 12.4772 0.5
814 9.47327 0.257263 5.72643 0.5
815 11.7876 12.357 8.10459 0.5
816 8.21048 7.31014 0.546139 0.5
817 11.5631 11.0561 2.95612 0.5
818 4.0072 10.8204 0.284663 0.5
819 5.43322 0.0229646 7.90206 0.5
820 0.579424 13.1116 9.83612 0.5
821 11.1517 2.7342 4.78481 0.5
822 9.3167 1.06464 5.0977 0.5
823 10.0599 0.304431 10.346 0.5
824 1.93999 8.59519 5.2214 0.5
825 7.85824 0.842695 1.91546 0.5
826 6.52453 12.8475 9.05816 0.5
827 11.3064 0.810618 1.32884 0.5
828 4.63398 3.60375 4.00888 0.5
829 4.2819 2.08788 7.80579 0.5
830 5.00128 12.0494 9.20145 0.5
831 11.633 13.2915 7.59398 0.5
832 0.858901 5.2409 9.5586 0.5
833 1.59171 11.2008 10.7288 0.5
834 8.90661 1.93212 0.0724956 0.5
835 1.76318 6.01851 12.6742 0.5
836 7.90524 9.35397 11.3299 0.5
837 5.91662 3.15969 0.391282 0.5
838 12.0914 13.4604 11.9924 0.5
839 4.64137 4.82229 1.54551 0.5
840 7.40483 12.8022 0.317842 0.5
841 6.29206 11.5963 5.93614 0.5
842 13.0544 4.20917 11.482 0.5
843 13.1948 3.39088 12.8233 0.5
844 4.25759 3.99364 12.9214 0.5
845 10.5755 5.209 6.06985 0.5
846 5.92254 12.0473 8.70009 0.5
847 4.17295 7.81087 6.54591 0.5
848 5.15472 6.41886 12.3649 0.5
849 0.260335 12.5981 6.20476 0.5
850 10.2929 10.7679 12.3687 0.5
851 6.38908 11.0777 6.83276 0.5
852 5.67361 10.3861 7.0375 0.5
853 4.34268 7.27089 9.2582 0.5
854 9.7373 6.37538 3.96758 0.5
855 9.52589 11.0254 3.19052 0.5
856 2.38366 13.3459 3.64119 0.5
857 10.312 5.20327 11.0489 0.5
858 7.72287 9.85377 8.36082 0.5
859 11.4744 5.20797 5.60808 0.5
860 10.8695 4.29336 5.54311 0.5
861 11.3071 0.123383 5.94054 0.5
862 10.6831 7.14097 10.8895 0.5
863 7.59266 8.74373 5.66637 0.5
864 8.09078 6.72748 7.61677 0.5
865 12.1656 3.36737 12.9468 0.5
866 5.62429 13.1669 2.41196 0.5
867 11.9855 3.55101 0.346065 0.5
868 9.707 9.70698 9.07655 0.5
869 4.13175 0.33494 13.3575 0.5
870 3.64185 8.72019 6.17979 0.5
871 11.8745 8.69091 4.56216 0.5
872 0.876276 5.61738 13.0432 0.5
873 0.215398 0.917398 1.96419 0.5
874 7.38322 5.18557 13.3832 0.5
875 7.98802 12.1816 6.14857 0.5
876 2.00781 6.42081 7.95871 0.5
877 11.2887 8.04465 7.51483 0.5
878 2.79018 11.975 0.205107 0.5
879 2.61284 3.94433 7.29228 0.5
880 12.817 0.964161 2.06798 0.5
881 10.6642 10.3162 13.1174 0.5
882 1.7562 10.292 3.55822 0.5
883 10.6034 12.5502 0.966739 0.5
884 12.8172 3.30597 0.914566 0.5
885 7.81271 10.8335 10.4977 0.5
886 0.721471 3.24861 7.4509 0.5
887 0.214888 0.459667 12.4152 0.5
888 4.99015 4.55503 2.38743 0.5
889 11.0196 3.9876 8.3419 0.5
890 11.5625 8.5915 6.6061 0.5
891 3.1138 6.74897 2.76425 0.5
892 9.56111 0.927676 9.8905 0.5
893 10.2073 3.5837 7.92998 0.5
894 7.54864 7.60977 1.24084 0.5
895 12.2576 9.02557 1.28118 0.5
896 6.89462 11.902 0.458984 0.5
897 6.44568 12.7153 3.92091 0.5
898 5.15866 12.4345 2.94064 0.5
899 10.6559 4.91868 10.211 0.5
900 11.8336 11.3007 9.30564 0.5
901 0.372553 5.64405 10.3826 0.5
902 10.882 5.89866 8.82626 0.5
903 9.90649 8.8467 3.05892 0.5
904 8.26746 3.41721 5.6156 0.5
905 0.31284 6.03696 5.98019 0.5
906 12.5118 5.26098 3.41103 0.5
907 6.85967 3.86909 10.5688 0.5
908 8.75368 0.146981 5.11031 0.5
909 9.65311 3.01853 2.54496 0.5
910 8.45924 2.31555 7.36025 0.5
911 6.64682 6.37547 11.9298 0.5
912 8.8095 9.49845 11.735 0.5
913 11.323 6.05784 13.3383 0.5
914 5.09464 0.338372 0.258542 0.5
915 8.09629 2.08761 5.22324 0.5
916 10.6191 8.30787 6.85889 0.5
917 11.2672 0.340718 11.5942 0.5
918 7.87701 5.71695 7.99533 0.5
919 0.228003 12.2211 0.914381 0.5
920 13.4276 11.373 10.3982 0.5
921 5.60048 6.39669 7.29102 0.5
922 12.6358 3.45082 11.9132 0.5
923 1.47078 2.8957 8.05635 0.5
924 11.2114 11.7922 9.9977 0.5
925 10.3402 3.41443 1.89837 0.5
926 4.79828 10.2082 13.5298 0.5
927 1.33964 7.74095 5.22183 0.5
928 13.5286 6.97703 5.93223 0.5
929 1.23715 2.7081 10.8624 0.5
930 10.4164 10.019 8.33323 0.5
931 5.62031 9.15085 12.4378 0.5
932 4.17156 8.91109 3.82155 0.5
933 0.734952 11.9302 0.0831418 0.5