ITEM: TIMESTEP
900000
ITEM: NUMBER OF ATOMS
1000
ITEM: BOX BOUNDS xy xz yz pp pp pp
0.0000000000000000e+00 1.3572088000000001e+01 0.0000000000000000e+00
0.0000000000000000e+00 1.3572088000000001e+01 0.0000000000000000e+00
0.0000000000000000e+00 1.3572088000000001e+01 0.0000000000000000e+00
ITEM: ATOMS id x y z radius
1 4.24298 3.00304 12.3592 0.5
2 4.56496 11.7374 4.73178 0.5
3 9.5354 10.5339 3.36699 0.5
4 10.2565 5.72872 1.11717 0.5
5 8.93764 7.04452 9.91118 0.5
6 3.37116 13.1201 5.93726 0.5
7 3.18591 8.54252 0.41209 0.5
8 12.3107 11.8164 2.05134 0.5
9 2.09585 8.5171 6.58282 0.5
10 3.40407 0.338737 11.7368 0.5
11 0.257821 9.18131 9.1477 0.5
12 10.3791 6.0249 -0.00106954 0.5
13 7.40144 10.9462 4.27762 0.5
14 10.4246 2.68696 4.09371 0.5
15 6.01087 0.41173 5.29222 0.5
16 7.26839 6.63685 9.07928 0.5
17 6.55139 11.8787 10.5688 0.5
18 3.13103 8.55308 6.28361 0.5
19 10.8461 4.89092 1.26726 0.5
20 10.7689 12.2411 3.32875 0.5
21 1.8499 4.52269 1.32971 0.5
22 1.26628 6.13429 12.2125 0.5
23 1.74749 1.66493 9.81827 0.5
24 7.49744 7.58222 1.88285 0.5
25 0.79706 6.25103 2.23995 0.5
26 10.8223 10.5593 5.99521 0.5
27 11.5832 5.64951 11.2658 0.5
28 4.61817 11.3407 12.095 0.5
29 12.9654 5.99043 1.18966 0.5
30 8.85518 10.9089 1.76605 0.5
31 0.759967 13.4813 8.25348 0.5
32 9.09789 2.92403 12.4297 0.5
33 0.00833967 6.23441 9.61822 0.5
34 3.94559 8.94866 5.82988 0.5
35 12.426 6.25618 13.2664 0.5
36 8.62297 2.14512 4.95951 0.5
37 13.4549 1.38682 2.57603 0.5
38 2.89107 1.39946 2.21177 0.5
39 10.2676 4.12146 1.00637 0.5
40 5.99329 5.84322 5.65623 0.5
41 6.832 11.1977 5.23568 0.5
42 7.30067 5.33852 2.89379 0.5
43 5.85761 4.69257 10.2046 0.5
44 4.12966 10.7542 8.58811 0.5
45 7.60856 6.65214 1.89097 0.5
46 10.0738 10.8426 13.4796 0.5
47 2.99996 9.36106 5.64418 0.5
48 8.17272 10.4437 1.24224 0.5
49 6.4661 12.0023 9.55946 0.5
50 5.06247 0.543424 11.1152 0.5
51 0.0228835 9.98534 7.28402 0.5
52 6.23948 10.5913 7.62797 0.5
53 9.51286 3.85463 1.52576 0.5
54 11.5681 11.8358 3.61047 0.5
55 13.4167 0.555346 4.88079 0.5
56 12.9624 3.3877 3.63708 0.5
57 0.231726 10.4962 11.9265 0.5
58 5.60647 8.61732 10.9216 0.5
59 1.74849 10.9369 11.3478 0.5
60 6.39895 5.17735 8.696 0.5
61 4.08795 0.883669 11.2711 0.5
62 1.22877 7.89364 0.407555 0.5
63 11.9297 8.5327 2.13795 0.5
64 12.0384 2.27381 9.58827 0.5
65 0.765304 1.86336 5.33414 0.5
66 12.0839 1.61079 1.77476 0.5
67 7.71029 2.10394 9.13943 0.5
68 2.70513 1.13057 3.17173 0.5
69 11.6992 2.68701 10.4002 0.5
70 12.5701 3.92147 9.57925 0.5
71 3.68201 5.73128 8.32211 0.5
72 7.17532 1.76578 11.141 0.5
73 8.00266 6.72505 8.40927 0.5
74 5.66435 4.70891 9.21439 0.5
75 8.96894 0.388452 10.5585 0.5
76 12.1451 3.63934 13.1039 0.5
77 10.0285 3.30719 3.4164 0.5
78 8.76024 3.0697 5.48077 0.5
79 4.08557 12.6034 6.21363 0.5
80 4.49402 2.38002 9.03999 0.5
81 1.71211 3.28632 11.8129 0.5
82 1.37132 8.78729 13.5492 0.5
83 3.49833 0.554374 6.04171 0.5
84 0.273935 8.41484 8.59261 0.5
85 13.308 4.38472 6.41328 0.5
86 2.38579 0.854737 13.2183 0.5
87 4.39005 6.13202 5.8769 0.5
88 7.12978 6.18629 3.48608 0.5
89 12.0498 13.016 7.74242 0.5
90 3.53647 5.48889 4.56312 0.5
91 11.8725 6.65852 11.0714 0.5
92 13.0365 1.643 1.66042 0.5
93 13.1299 0.632618 11.8132 0.5
94 4.7004 10.5989 12.7742 0.5
95 11.6323 1.95509 7.96855 0.5
96 11.3831 2.78771 4.1376 0.5
97 11.6488 3.07497 5.09209 0.5
98 10.7243 9.29865 0.368317 0.5
99 6.59375 8.61067 9.41549 0.5
100 0.661181 7.64741 6.34251 0.5
101 4.13599 11.6303 2.77065 0.5
102 8.95197 6.53454 9.00412 0.5
103 4.56248 4.35994 11.3564 0.5
104 7.39642 11.1681 6.12033 0.5
105 11.8659 12.8783 6.71812 0.5
106 5.53963 1.4141 11.0024 0.5
107 13.05 5.95929 6.67239 0.5
108 12.7337 10.7978 6.03585 0.5
109 0.905909 12.4573 9.58352 0.5
110 8.09096 9.07445 8.33892 0.5
111 8.42502 13.4343 3.2801 0.5
112 5.29467 1.08727 5.31137 0.5
113 1.09912 0.34058 5.85838 0.5
114 7.31892 6.9835 2.76249 0.5
115 6.2991 6.45993 11.7093 0.5
116 12.7093 5.56599 2.10761 0.5
117 0.748545 1.24224 6.13931 0.5
118 11.4177 10.0644 5.4559 0.5
119 12.7397 8.34885 1.64841 0.5
120 5.56084 9.3976 3.69998 0.5
121 11.829 13.1133 10.7759 0.5
122 1.76292 3.2446 2.18631 0.5
123 11.5419 2.68506 8.77182 0.5
124 10.405 10.9904 11.2704 0.5
125 4.57007 11.9704 3.72012 0.5
126 11.0677 10.8368 13.2643 0.5
127 7.97106 10.2485 10.8906 0.5
128 6.43139 2.85933 7.18228 0.5
129 1.94331 6.41357 12.8456 0.5
130 0.126154 11.3683 11.3527 0.5
131 8.28261 2.17364 1.81617 0.5
132 5.19315 11.3934 3.08573 0.5
133 0.755103 10.7278 11.0184 0.5
134 11.4727 12.1676 2.72153 0.5
135 11.6778 3.2363 6.11216 0.5
136 7.47118 5.04261 4.52967 0.5
137 3.15746 12.6436 6.76677 0.5
138 7.28153 11.9269 13.5203 0.5
139 5.52113 13.0879 0.665465 0.5
140 5.19981 3.54289 3.6414 0.5
141 1.37503 3.52625 4.38462 0.5
142 9.91126 3.55832 12.2883 0.5
143 13.364 11.7239 13.2908 0.5
144 9.31409 12.9299 9.02057 0.5
145 6.65452 7.1214 2.01526 0.5
146 9.68886 8.67098 8.2381 0.5
147 4.62146 5.99572 0.15783 0.5
148 12.4646 0.11442 11.2702 0.5
149 8.05527 6.79288 9.57877 0.5
150 12.5498 11.4453 3.749 0.5
151 7.15935 12.55 10.0987 0.5
152 3.92555 3.68581 11.6768 0.5
153 11.619 7.42068 7.48963 0.5
154 2.15827 2.28096 2.12002 0.5
155 2.54291 7.79363 10.4712 0.5
156 8.15826 11.8815 0.315185 0.5
157 1.44363 0.166146 2.33183 0.5
158 1.56216 9.93555 8.45644 0.5
159 3.5375 1.06931 9.26572 0.5
160 9.52727 0.401137 11.4704 0.5
161 12.5255 3.01563 10.0609 0.5
162 7.34313 2.65903 9.87436 0.5
163 11.4412 9.9262 0.0721152 0.5
164 9.09742 3.54827 10.8282 0.5
165 7.22443 11.0182 10.8248 0.5
166 11.1206 12.9883 7.46389 0.5
167 11.5184 7.99958 8.28779 0.5
168 0.641894 3.25932 6.97816 0.5
169 10.3995 10.7681 12.4809 0.5
170 3.69677 6.25584 0.592694 0.5
171 11.0883 5.61216 0.594222 0.5
172 12.6525 8.25014 11.1082 0.5
173 9.45507 10.2824 2.38161 0.5
174 4.6527 0.947058 0.689783 0.5
175 2.69606 6.8111 3.84056 0.5
176 2.58328 5.18912 4.32841 0.5
177 8.32935 5.03282 6.02802 0.5
178 5.27388 1.6188 4.34606 0.5
179 13.3054 6.37553 2.08816 0.5
180 9.54657 3.0428 11.5618 0.5
181 10.9238 10.919 9.3221 0.5
182 3.13718 11.5478 1.3914 0.5
183 9.04573 7.68485 5.94802 0.5
184 10.6348 5.58116 7.95663 0.5
185 8.6158 13.5596 11.4519 0.5
186 4.53917 8.37481 2.74583 0.5
187 5.43325 0.422573 0.251038 0.5
188 5.31104 6.19024 6.32565 0.5
189 0.878483 11.2388 6.53027 0.5
190 9.38216 13.1774 3.07241 0.5
191 9.76742 7.58469 2.62418 0.5
192 10.0341 1.25996 13.2528 0.5
193 11.0539 2.52157 9.57664 0.5
194 9.28449 13.0687 10.9505 0.5
195 13.1692 9.05642 12.4515 0.5
196 8.18144 1.14813 4.87845 0.5
197 2.98961 6.41317 8.09678 0.5
198 6.24729 5.94243 12.6148 0.5
199 11.9564 1.10118 8.47657 0.5
200 7.09807 7.12148 1.08702 0.5
201 12.9615 4.37444 7.30467 0.5
202 5.69551 13.1161 8.65611 0.5
203 1.53916 3.5599 1.33597 0.5
204 3.46563 7.77483 8.29472 0.5
205 11.2421 13.4926 4.90449 0.5
206 0.824693 1.50667 9.54816 0.5
207 3.67439 11.6508 8.48088 0.5
208 8.70494 4.05972 5.82821 0.5
209 6.10423 2.05169 4.04698 0.5
210 4.27944 6.8319 5.12427 0.5
211 4.19689 4.93413 10.5693 0.5
212 2.79432 6.1544 4.69047 0.5
213 3.1462 1.3038 5.49716 0.5
214 9.84452 3.97883 11.3113 0.5
215 8.06553 7.11537 1.10707 0.5
216 6.4342 8.68987 13.4924 0.5
217 3.51821 11.708 5.02849 0.5
218 6.80125 8.3232 4.49021 0.5
219 8.31856 0.542376 4.06273 0.5
220 7.01177 1.81493 10.1197 0.5
221 3.59246 3.32808 5.56829 0.5
222 7.1774 12.0568 5.6873 0.5
223 4.70923 9.17744 3.29263 0.5
224 12.3834 9.3115 4.01106 0.5
225 8.05951 11.162 11.3342 0.5
226 10.5787 6.96405 13.4587 0.5
227 0.0848501 7.23751 9.68775 0.5
228 4.16424 11.7436 5.71232 0.5
229 5.98017 4.17794 6.22203 0.5
230 6.39573 9.56217 9.27798 0.5
231 7.22928 5.82206 8.45197 0.5
232 7.62824 4.41123 12.6728 0.5
233 1.43645 0.70279 9.57263 0.5
234 10.9644 2.46467 4.94523 0.5
235 1.44188 10.4297 3.40029 0.5
236 10.8258 6.55183 0.743509 0.5
237 5.7625 8.6936 6.68475 0.5
238 1.04531 12.7534 5.67772 0.5
239 9.61494 8.03014 3.49338 0.5
240 1.6829 4.81938 13.2033 0.5
241 4.02375 6.42322 1.66026 0.5
242 3.26202 0.480012 2.56546 0.5
243 2.96429 10.0301 2.99346 0.5
244 3.726 11.7614 6.67997 0.5
245 1.05544 11.0963 11.9112 0.5
246 9.66717 9.68029 8.1911 0.5
247 3.39324 0.106582 10.8414 0.5
248 7.96646 2.82326 2.56256 0.5
249 10.479 2.11902 12.9528 0.5
250 10.0123 2.08038 0.210433 0.5
251 4.16481 9.97626 11.3073 0.5
252 8.55508 8.36953 12.6321 0.5
253 1.61662 8.76442 0.930727 0.5
254 10.1711 2.79839 2.52421 0.5
255 8.87018 9.82521 3.05517 0.5
256 1.11338 13.31 3.15619 0.5
257 0.3764 4.15426 7.13083 0.5
258 0.26016 6.83931 4.93499 0.5
259 5.12347 5.09392 10.8985 0.5
260 7.26455 11.578 9.95845 0.5
261 10.7556 3.1404 5.6773 0.5
262 7.77893 11.3315 5.21999 0.5
263 1.73605 4.12658 8.35411 0.5
264 10.2704 10.3331 8.6474 0.5
265 1.26485 4.40717 4.89096 0.5
266 3.87003 13.446 6.74901 0.5
267 4.96139 7.73604 9.65537 0.5
268 7.26009 2.52862 2.01491 0.5
269 9.8913 0.224779 9.23722 0.5
270 6.64633 10.0476 8.45506 0.5
271 11.6434 12.1467 7.38387 0.5
272 6.23105 9.36002 0.801656 0.5
273 7.85727 5.47883 3.71035 0.5
274 10.9843 4.95016 8.58719 0.5
275 2.67548 10.6183 1.0473 0.5
276 4.88636 1.99469 0.584849 0.5
277 7.5109 5.09137 13.4374 0.5
278 10.6652 10.3613 0.503865 0.5
279 9.57113 11.7795 6.14938 0.5
280 4.77817 12.3326 2.74924 0.5
281 6.23291 2.11162 10.8607 0.5
282 0.219243 12.1575 1.29958 0.5
283 4.69495 4.97618 1.60127 0.5
284 1.19858 11.0782 0.711162 0.5
285 3.81322 10.0716 5.80561 0.5
286 1.74436 1.52206 12.6592 0.5
287 8.42729 7.5406 6.79095 0.5
288 6.04553 13.4788 6.73862 0.5
289 2.28708 10.7804 3.19943 0.5
290 0.444701 13.1776 6.251 0.5
291 6.27822 1.26799 5.72293 0.5
292 4.78168 2.55093 13.2888 0.5
293 10.9944 5.8931 4.12592 0.5
294 2.92957 10.2581 6.28373 0.5
295 2.62814 2.04473 5.99032 0.5
296 13.5296 5.21621 7.07561 0.5
297 10.4694 10.2128 10.7444 0.5
298 9.5849 4.58124 12.0514 0.5
299 1.4109 0.580921 13.1536 0.5
300 9.7892 4.83005 1.41879 0.5
301 6.58085 7.37469 11.5334 0.5
302 3.04449 9.10038 3.38639 0.5
303 12.0942 9.13289 2.98782 0.5
304 0.715435 7.71955 5.34977 0.5
305 8.5238 13.2797 8.33755 0.5
306 11.8338 8.17299 1.16773 0.5
307 2.47136 6.34456 2.97123 0.5
308 0.401386 9.4858 12.1031 0.5
309 12.6154 1.10521 12.558 0.5
310 8.10688 0.172702 4.96496 0.5
311 0.00713597 6.88752 6.56317 0.5
312 7.71998 11.8674 10.7553 0.5
313 1.3355 9.84655 4.11507 0.5
314 6.64864 12.9409 9.24597 0.5
315 12.7622 6.24282 2.938 0.5
316 7.65218 6.31021 7.49382 0.5
317 13.3638 8.93359 4.0441 0.5
318 0.443992 5.88444 6.54023 0.5
319 10.6489 11.4054 0.365883 0.5
320 5.9647 3.66058 7.06766 0.5
321 1.86769 13.2754 3.76364 0.5
322 10.1762 0.220212 1.02344 0.5
323 3.5714 1.41184 2.95827 0.5
324 10.6774 3.61792 2.68988 0.5
325 1.43813 5.04742 0.490321 0.5
326 9.98659 13.1679 0.195317 0.5
327 7.87438 3.14486 9.21593 0.5
328 12.8715 5.49119 0.171015 0.5
329 8.34354 1.84499 8.28885 0.5
330 8.15478 1.68315 5.72147 0.5
331 5.37072 1.94525 3.40569 0.5
332 12.3002 2.05089 8.6773 0.5
333 12.5773 1.76045 2.56321 0.5
334 4.9686 6.00215 1.77236 0.5
335 8.98055 0.503102 4.82401 0.5
336 3.58682 2.02755 8.98369 0.5
337 12.1396 0.998436 11.6884 0.5
338 7.10355 5.62538 9.34712 0.5
339 10.3154 4.27698 1.98489 0.5
340 11.9749 3.98711 11.3639 0.5
341 8.89159 0.27358 9.06085 0.5
342 6.57413 0.776237 6.66887 0.5
343 6.37969 6.20275 8.84099 0.5
344 5.96827 6.83047 5.80933 0.5
345 9.18609 8.50733 5.48343 0.5
346 1.45935 7.22611 5.90248 0.5
347 12.7729 12.2711 1.16177 0.5
348 1.61382 4.12069 0.390812 0.5
349 8.69504 6.69298 6.22996 0.5
350 8.2929 6.59011 10.5846 0.5
351 2.44918 8.76723 10.9194 0.5
352 8.36027 12.574 7.71184 0.5
353 9.69386 6.74186 13.1396 0.5
354 2.69324 2.93379 5.51705 0.5
355 1.71999 6.89111 3.39649 0.5
356 11.3827 12.6898 4.26409 0.5
357 6.47972 11.2577 4.19243 0.5
358 4.30548 0.663353 9.56717 0.5
359 7.25427 9.26271 8.91808 0.5
360 12.385 4.03392 6.58748 0.5
361 3.51246 1.57661 6.36738 0.5
362 1.60315 1.33093 8.7791 0.5
363 10.7497 12.4712 0.101951 0.5
364 3.77639 7.71343 0.251949 0.5
365 2.60701 8.66956 1.12397 0.5
366 6.33541 9.03068 8.47861 0.5
367 10.4746 11.6806 13.0419 0.5
368 4.93701 5.16219 9.93297 0.5
369 1.91755 3.66229 5.18235 0.5
370 0.355064 10.7444 5.81936 0.5
371 9.14541 13.3973 4.03636 0.5
372 0.0263325 4.0156 3.0742 0.5
373 4.52189 2.9702 0.530019 0.5
374 0.412378 8.97052 13.1686 0.5
375 0.634627 10.0338 8.63026 0.5
376 2.01756 10.5956 4.15885 0.5
377 6.85871 5.26117 3.78541 0.5
378 6.1249 9.64927 13.2761 0.5
379 4.16465 5.5054 2.09947 0.5
380 7.62016 4.0754 0.115944 0.5
381 9.42347 3.09286 8.57143 0.5
382 8.73843 2.75347 7.91198 0.5
383 2.33119 4.77637 0.493707 0.5
384 5.48309 10.1871 12.4219 0.5
385 13.1032 11.3997 1.68845 0.5
386 13.4251 4.09185 4.07918 0.5
387 1.75266 7.12014 12.0523 0.5
388 1.06052 2.25832 10.1797 0.5
389 3.42227 9.294 11.2286 0.5
390 5.00321 4.26246 10.4498 0.5
391 8.45339 1.11679 2.12158 0.5
392 12.7334 5.29295 3.07108 0.5
393 2.5997 4.59155 8.89772 0.5
394 8.81563 9.11576 7.80047 0.5
395 1.5377 0.335644 8.67671 0.5
396 13.3543 2.36585 2.39243 0.5
397 7.60691 1.55169 1.72813 0.5
398 9.71499 12.2084 3.12363 0.5
399 0.791964 4.23779 3.87361 0.5
400 7.31427 9.13804 4.6911 0.5
401 9.87512 2.93221 13.1451 0.5
402 5.5918 7.88415 6.0251 0.5
403 6.09106 0.415938 8.2549 0.5
404 11.2744 10.173 12.5835 0.5
405 12.0888 6.01226 0.657798 0.5
406 6.83188 2.96277 1.11455 0.5
407 1.65319 11.4068 3.73746 0.5
408 2.67738 3.87821 5.93375 0.5
409 3.56479 4.55531 11.1825 0.5
410 10.8909 2.75648 3.19583 0.5
411 4.27293 5.64971 1.06 0.5
412 5.38286 0.331801 1.29827 0.5
413 3.12134 5.47828 7.5956 0.5
414 3.28872 8.30365 10.9896 0.5
415 8.28363 10.2213 11.8742 0.5
416 9.13058 10.8818 6.37737 0.5
417 0.872757 13.3924 9.29341 0.5
418 9.56421 1.19962 10.7999 0.5
419 2.72384 13.293 12.0595 0.5
420 3.36002 0.745202 7.07408 0.5
421 0.0658076 5.33284 9.38924 0.5
422 8.06012 4.63166 5.17607 0.5
423 11.6416 0.707896 4.35179 0.5
424 2.90939 3.79956 5.02857 0.5
425 8.88397 7.34171 10.8643 0.5
426 0.534365 12.517 8.74157 0.5
427 7.58584 2.31555 1.11664 0.5
428 1.08279 8.60406 9.27928 0.5
429 11.4936 5.04524 7.77078 0.5
430 9.27925 12.9682 11.8899 0.5
431 2.39021 4.80776 7.99881 0.5
432 12.5441 2.42816 1.71245 0.5
433 7.58115 11.0101 0.50647 0.5
434 0.0922753 3.39137 13.2188 0.5
435 11.3003 9.67448 1.14688 0.5
436 6.006 5.42884 9.53209 0.5
437 4.44625 9.61943 6.45314 0.5
438 5.43663 2.74527 6.97693 0.5
439 11.1798 10.2651 10.0163 0.5
440 10.1779 11.0235 6.57384 0.5
441 5.72609 0.684776 6.20867 0.5
442 1.60506 7.69943 6.77523 0.5
443 0.570632 11.7626 0.434006 0.5
444 9.07437 9.18227 12.9662 0.5
445 5.05795 8.41405 3.62244 0.5
446 3.69175 6.52259 4.3075 0.5
447 2.46698 9.39961 6.41392 0.5
448 5.44736 9.96318 0.547484 0.5
449 3.45171 12.8741 11.4684 0.5
450 3.14682 2.41241 1.84 0.5
451 7.28977 3.86091 1.07009 0.5
452 2.15431 8.2452 0.276925 0.5
453 4.92305 9.13347 2.30108 0.5
454 2.67438 0.213589 3.35813 0.5
455 1.73389 2.18429 11.7678 0.5
456 9.44902 0.104719 8.29448 0.5
457 12.3565 11.1322 8.65142 0.5
458 4.3409 0.190284 10.4734 0.5
459 10.9311 2.89868 6.60635 0.5
460 13.023 6.53837 0.318209 0.5
461 12.2883 7.41631 11.7169 0.5
462 9.23295 4.12321 8.55159 0.5
463 5.1476 3.50305 7.58874 0.5
464 0.138074 8.27712 9.57678 0.5
465 4.9335 10.4818 11.7988 0.5
466 2.77632 0.0726547 6.66354 0.5
467 1.97239 7.79831 1.16123 0.5
468 0.725872 7.6698 9.01756 0.5
469 2.31327 2.71007 11.2461 0.5
470 2.26558 6.25074 11.8961 0.5
471 3.72905 0.9507 10.3219 0.5
472 10.9062 6.79235 3.80497 0.5
473 12.0869 8.24511 7.46994 0.5
474 3.81221 6.8222 8.37086 0.5
475 5.28685 4.34577 6.91359 0.5
476 6.12221 0.583927 11.3789 0.5
477 5.8688 8.18141 9.90494 0.5
478 2.86867 12.3035 0.837813 0.5
479 9.0332 7.47016 12.872 0.5
480 4.28978 10.4507 9.57835 0.5
481 2.49398 3.82636 0.85415 0.5
482 10.9738 13.3342 0.633166 0.5
483 9.59332 11.3371 2.58048 0.5
484 9.94795 7.0268 3.64313 0.5
485 5.23713 4.28261 2.16536 0.5
486 3.61902 11.147 9.35524 0.5
487 3.7325 2.98685 8.75325 0.5
488 5.88993 4.81954 5.42345 0.5
489 3.54344 0.640749 3.56068 0.5
490 13.5084 12.9594 9.52646 0.5
491 2.84494 7.03161 11.9283 0.5
492 1.13925 5.07953 12.3509 0.5
493 12.4279 8.96359 11.8125 0.5
494 6.86222 4.68971 0.536946 0.5
495 6.86793 7.83095 0.356042 0.5
496 7.05771 0.0191442 0.16416 0.5
497 5.16417 4.46018 5.93444 0.5
498 3.30652 12.0857 5.89398 0.5
499 6.37091 1.47746 11.7147 0.5
500 10.7474 9.52276 6.0014 0.5
501 5.86283 1.10074 3.66318 0.5
502 9.40924 10.0602 9.07345 0.5
503 7.13884 6.01234 13.1349 0.5
504 1.75721 1.48516 0.127389 0.5
505 4.7478 3.55928 13.138 0.5
506 3.65117 10.8737 0.847964 0.5
507 8.39686 4.66862 4.16058 0.5
508 13.5107 1.3455 5.43366 0.5
509 5.05234 5.42535 5.56897 0.5
510 7.37965 10.5133 11.7276 0.5
511 5.80132 0.734192 7.35621 0.5
512 10.4606 11.8753 2.45313 0.5
513 5.14937 4.47447 3.14284 0.5
514 6.00703 8.35131 0.776557 0.5
515 1.98732 10.1481 2.60887 0.5
516 5.60077 8.73104 2.93499 0.5
517 0.490122 3.70776 4.622 0.5
518 3.24597 6.32086 9.05944 0.5
519 5.32604 7.72874 10.6102 0.5
520 1.9194 0.607053 0.480438 0.5
521 11.057 6.45909 4.85523 0.5
522 2.85223 8.78427 11.8192 0.5
523 13.5365 8.17377 3.2409 0.5
524 0.146037 0.482253 5.87914 0.5
525 11.6293 8.94873 0.546186 0.5
526 8.55041 12.399 8.68564 0.5
527 7.87881 10.7821 2.12935 0.5
528 2.10737 13.4879 12.7787 0.5
529 13.4699 12.459 0.364872 0.5
530 11.7272 3.23053 9.54155 0.5
531 11.729 8.26368 11.3435 0.5
532 6.32257 9.26131 4.27618 0.5
533 6.29546 7.89959 10.8012 0.5
534 2.54403 12.4317 11.7225 0.5
535 8.03533 12.3261 13.0533 0.5
536 1.67227 12.4033 3.32843 0.5
537 1.87435 10.1514 9.3693 0.5
538 8.54775 10.0316 2.16042 0.5
539 2.53354 7.28751 2.85653 0.5
540 0.28505 3.36359 7.86783 0.5
541 4.15027 11.5612 1.54719 0.5
542 7.90971 13.3031 13.0838 0.5
543 13.4094 6.27165 5.71027 0.5
544 7.80652 2.74583 8.31209 0.5
545 1.77169 6.71838 2.35137 0.5
546 0.358498 0.520842 13.3197 0.5
547 10.5159 5.54543 4.87755 0.5
548 11.7588 0.156399 7.11463 0.5
549 12.1023 10.0272 8.6231 0.5
550 12.0576 13.3248 4.28178 0.5
551 7.38664 0.778651 2.49867 0.5
552 4.30025 6.89642 0.105832 0.5
553 10.6353 6.50721 8.49516 0.5
554 3.23249 13.3938 7.49381 0.5
555 0.405454 3.23506 3.78222 0.5
556 7.00391 12.884 13.1031 0.5
557 7.21219 10.9606 1.42661 0.5
558 4.21459 1.64694 9.71474 0.5
559 2.54558 9.93925 8.62366 0.5
560 6.86841 2.40532 11.7778 0.5
561 8.19037 8.5846 11.6828 0.5
562 12.8096 3.01617 12.9073 0.5
563 8.55844 6.63603 7.30182 0.5
564 6.53929 5.38245 13.4958 0.5
565 9.11051 4.78003 5.35401 0.5
566 6.52349 1.1152 10.731 0.5
567 12.6723 4.26225 3.28904 0.5
568 7.16692 0.79111 11.4429 0.5
569 11.1609 7.1152 10.456 0.5
570 13.5366 8.57538 2.20572 0.5
571 2.29871 0.555244 2.42582 0.5
572 4.53669 1.46562 13.3668 0.5
573 0.544415 13.4639 5.22008 0.5
574 9.07582 8.28821 2.56084 0.5
575 8.99598 0.310428 2.48486 0.5
576 3.60576 9.99719 9.05482 0.5
577 3.91092 9.11704 2.67163 0.5
578 1.23842 11.8323 1.29943 0.5
579 13.4058 8.92555 11.5105 0.5
580 3.00015 4.56332 7.28158 0.5
581 1.43901 12.8923 8.75394 0.5
582 1.63008 12.5741 11.1179 0.5
583 2.16886 10.7441 0.202906 0.5
584 10.09 6.41105 4.4732 0.5
585 13.3526 5.34052 6.04675 0.5
586 0.923328 5.78909 9.72027 0.5
587 12.5543 3.08966 1.05549 0.5
588 12.5195 11.9955 0.208502 0.5
589 0.00440384 9.38634 8.17429 0.5
590 3.14602 10.863 8.46177 0.5
591 4.82928 3.94803 12.3047 0.5
592 10.581 11.0576 10.2592 0.5
593 5.91479 10.5634 6.72481 0.5
594 13.4855 10.8637 6.70971 0.5
595 13.3617 10.0029 6.15 0.5
596 9.27173 9.21384 2.34304 0.5
597 1.93329 9.13046 9.05362 0.5
598 8.88653 11.2189 5.4826 0.5
599 11.477 10.873 8.46602 0.5
600 10.7201 5.55478 10.8229 0.5
601 2.08335 6.00677 3.79416 0.5
602 0.583139 6.5174 10.3252 0.5
603 3.1655 7.2797 11.0626 0.5
604 4.65918 1.15024 10.4186 0.5
605 7.2733 1.57294 12.126 0.5
606 12.0116 9.44059 4.94531 0.5
607 8.74107 9.83965 8.30631 0.5
608 8.3512 12.847 12.2806 0.5
609 0.251125 10.9011 0.276522 0.5
610 1.1024 9.59403 9.35049 0.5
611 1.02874 9.12831 8.47823 0.5
612 6.40927 12.4168 3.04508 0.5
613 3.51383 6.09413 5.30627 0.5
614 4.25467 13.5302 11.4087 0.5
615 4.47442 11.2766 10.107 0.5
616 0.122383 5.46253 1.82636 0.5
617 7.57945 5.66423 2.03956 0.5
618 11.5398 6.89093 8.30428 0.5
619 12.9924 3.82503 11.632 0.5
620 1.22519 10.1224 11.762 0.5
621 2.26946 4.65532 5.24142 0.5
622 5.62929 8.99282 9.25399 0.5
623 13.3348 7.9428 4.15927 0.5
624 13.5703 5.68537 2.74729 0.5
625 1.93313 3.62422 10.925 0.5
626 2.3673 3.92356 1.92747 0.5
627 9.87695 6.62938 0.548596 0.5
628 13.3598 4.61057 10.0716 0.5
629 5.52554 3.65063 2.7932 0.5
630 3.2307 3.33006 1.50968 0.5
631 9.17932 1.52626 0.171775 0.5
632 6.65582 12.705 0.520418 0.5
633 10.0765 1.19439 0.760434 0.5
634 10.2409 10.178 9.64218 0.5
635 9.96688 2.584 12.1962 0.5
636 8.94876 3.74646 11.8552 0.5
637 0.714016 10.2722 6.62985 0.5
638 5.44339 0.595562 4.44184 0.5
639 8.78898 6.08041 9.8347 0.5
640 2.07835 4.07912 7.48039 0.5
641 8.09115 7.37998 5.72024 0.5
642 11.4311 6.32 13.4418 0.5
643 11.0916 1.14651 8.2284 0.5
644 6.98901 2.64538 10.7457 0.5
645 13.4678 11.6321 6.15237 0.5
646 9.1123 8.8341 12.0102 0.5
647 8.53479 4.62093 12.1446 0.5
648 7.67412 9.57811 11.5128 0.5
649 5.76005 8.02681 11.6514 0.5
650 2.67326 1.01782 6.3238 0.5
651 1.02273 6.77656 6.84928 0.5
652 6.00299 3.0509 6.20985 0.5
653 13.2015 4.67502 2.52301 0.5
654 3.52105 9.6425 12.0078 0.5
655 11.6419 11.6631 9.16076 0.5
656 0.479789 11.2173 1.25916 0.5
657 10.9805 0.746495 7.23665 0.5
658 9.89344 10.1043 6.19711 0.5
659 1.4744 9.36901 3.11396 0.5
660 0.704038 0.748429 8.97138 0.5
661 3.59355 7.25881 9.26819 0.5
662 3.51378 11.058 5.94771 0.5
663 6.29498 12.292 4.02972 0.5
664 5.23456 6.29632 5.229 0.5
665 9.07933 11.4738 3.46114 0.5
666 5.55509 12.5126 9.35145 0.5
667 10.0868 3.84304 8.10068 0.5
668 5.94885 2.88467 3.55749 0.5
669 8.72551 10.8315 2.77774 0.5
670 9.26824 12.6202 8.06086 0.5
671 6.99473 8.78402 0.702441 0.5
672 3.3727 2.84596 4.72604 0.5
673 5.55769 9.02877 0.232666 0.5
674 3.36375 7.90421 11.8791 0.5
675 3.97953 4.63336 12.0458 0.5
676 2.10432 13.2208 2.8436 0.5
677 3.82424 9.62966 3.6257 0.5
678 13.2968 7.67255 8.8526 0.5
679 11.0444 12.3394 6.55424 0.5
680 4.96211 11.5367 2.15666 0.5
681 4.40472 1.41286 8.78125 0.5
682 1.96733 2.78364 10.2153 0.5
683 2.0194 5.47265 12.4917 0.5
684 11.0923 13.5278 3.89878 0.5
685 12.3865 12.3838 4.06126 0.5
686 11.3074 7.39227 11.3841 0.5
687 5.0415 9.74773 13.1934 0.5
688 1.41337 8.20176 5.86174 0.5
689 2.67655 3.13121 2.35764 0.5
690 4.93735 9.07728 7.18516 0.5
691 13.0688 9.84597 11.8263 0.5
692 4.67219 13.4945 0.583033 0.5
693 10.9641 6.41419 11.1271 0.5
694 5.95273 9.22058 10.116 0.5
695 12.6735 8.27397 2.66416 0.5
696 9.22869 3.5441 7.70253 0.5
697 0.826118 9.74723 7.73343 0.5
698 6.82882 10.8224 6.81772 0.5
699 2.88472 7.75115 0.811397 0.5
700 12.4985 8.38635 3.71498 0.5
701 9.57323 8.34461 12.744 0.5
702 3.60495 1.34071 8.266 0.5
703 2.1205 5.60147 13.4776 0.5
704 8.6066 2.6228 8.89142 0.5
705 10.7318 7.36363 7.9335 0.5
706 6.34491 11.3555 6.06535 0.5
707 4.25252 5.42636 11.4111 0.5
708 12.6021 2.10848 0.79506 0.5
709 9.49136 0.520895 0.266866 0.5
710 6.89494 6.18929 2.49745 0.5
711 0.0307362 1.03133 12.5746 0.5
712 12.5688 2.94629 9.09612 0.5
713 8.06489 9.75797 7.55802 0.5
714 12.6276 5.05226 6.6171 0.5
715 13.0608 9.0951 3.08735 0.5
716 1.7667 1.99799 10.7987 0.5
717 3.89826 7.21512 1.02957 0.5
718 11.8246 1.07714 7.56126 0.5
719 3.95774 10.5918 12.031 0.5
720 13.0009 11.3505 2.71232 0.5
721 11.3803 5.93471 8.36564 0.5
722 6.15765 13.2817 13.4429 0.5
723 2.71046 11.6305 8.97116 0.5
724 9.28297 13.2894 9.86417 0.5
725 2.64656 2.06444 4.95766 0.5
726 7.34264 1.92268 8.13469 0.5
727 3.92659 2.17676 0.20508 0.5
728 0.10678 1.97736 6.22962 0.5
729 10.2354 5.04312 0.495857 0.5
730 8.14498 5.97607 6.55419 0.5
731 10.4854 0.515534 0.132019 0.5
732 0.93895 2.65077 7.76764 0.5
733 8.14032 11.4222 1.1857 0.5
734 10.5369 11.6382 5.89329 0.5
735 3.32411 4.77411 8.27502 0.5
736 4.07705 3.8726 10.6441 0.5
737 5.11402 2.82349 3.05766 0.5
738 2.21318 7.02795 11.1316 0.5
739 5.83144 13.2571 7.70826 0.5
740 12.4526 0.321202 7.91263 0.5
741 7.83284 3.98519 4.42033 0.5
742 5.41696 9.09664 1.32117 0.5
743 7.52063 8.22409 5.30838 0.5
744 3.91924 3.00226 13.2584 0.5
745 7.19657 5.90786 12.1551 0.5
746 4.98116 8.5947 10.0534 0.5
747 13.0361 13.1522 11.856 0.5
748 7.16528 9.43882 7.90332 0.5
749 6.38523 9.23737 3.20575 0.5
750 1.00225 0.921952 0.3896 0.5
751 13.3573 8.24494 13.0956 0.5
752 0.927157 1.3993 13.0798 0.5
753 6.69349 2.02789 1.3751 0.5
754 1.75765 12.8441 12.143 0.5
755 6.74346 3.63281 0.370502 0.5
756 6.66613 7.96696 1.4358 0.5
757 11.3677 6.04319 10.3687 0.5
758 4.02458 12.5887 5.22279 0.5
759 12.6967 9.20614 2.24127 0.5
760 7.48542 4.57453 3.55314 0.5
761 2.96848 11.3459 0.366393 0.5
762 13.2337 2.74115 0.291393 0.5
763 11.9023 0.395434 3.42119 0.5
764 9.86604 9.71627 2.98836 0.5
765 12.2329 2.8245 0.146465 0.5
766 8.10372 2.99079 4.69824 0.5
767 4.68298 6.58923 0.977351 0.5
768 12.757 12.8532 10.9462 0.5
769 11.2313 2.37201 5.8332 0.5
770 11.6463 7.75804 6.69952 0.5
771 8.29431 8.29682 6.03803 0.5
772 1.0671 1.23102 10.4458 0.5
773 8.47252 3.48011 8.43407 0.5
774 9.20457 0.529285 3.39274 0.5
775 10.1929 13.1566 11.3284 0.5
776 3.52777 9.45567 6.57773 0.5
777 11.7749 12.8461 3.40671 0.5
778 12.4447 12.1002 3.04415 0.5
779 8.50848 7.97756 5.04731 0.5
780 2.79526 10.4933 9.36734 0.5
781 0.316971 1.44986 4.52141 0.5
782 10.9396 3.50549 3.7392 0.5
783 0.387292 8.51545 12.2288 0.5
784 2.32681 3.1296 4.52569 0.5
785 10.3353 10.0402 5.25087 0.5
786 8.76357 3.84165 4.86702 0.5
787 6.15523 11.578 3.28365 0.5
788 11.9817 7.58627 10.6346 0.5
789 9.43279 4.59346 2.20828 0.5
790 8.23505 0.834862 3.06429 0.5
791 5.90881 7.25663 12.2069 0.5
792 4.72031 2.98189 8.29762 0.5
793 7.07376 8.91028 3.68926 0.5
794 12.678 0.970146 3.10359 0.5
795 7.84555 8.49328 4.37733 0.5
796 4.51514 11.5051 9.15145 0.5
797 3.8996 3.85393 12.7336 0.5
798 2.26638 4.25154 4.39596 0.5
799 0.769788 0.852466 5.11451 0.5
800 0.845421 8.05207 13.0879 0.5
801 7.88452 6.12894 2.82378 0.5
802 5.54122 11.1241 12.4022 0.5
803 11.3171 10.6502 10.9764 0.5
804 0.610776 5.98717 8.83061 0.5
805 9.34254 8.95026 3.28358 0.5
806 2.89083 7.17858 8.74531 0.5
807 2.73226 3.89895 8.18902 0.5
808 2.4007 9.32102 2.73054 0.5
809 9.19818 5.4608 11.6255 0.5
810 1.76264 11.8479 11.7739 0.5
811 10.3608 6.83209 2.77948 0.5
812 2.4695 7.91593 11.5264 0.5
813 7.92397 5.39697 12.6258 0.5
814 9.15681 0.453494 5.94103 0.5
815 12.0325 12.1334 8.38006 0.5
816 9.76086 7.61976 13.5338 0.5
817 12.0263 11.213 2.89661 0.5
818 3.06101 10.372 0.212503 0.5
819 6.67335 0.146324 7.50228 0.5
820 0.043978 11.961 9.49397 0.5
821 10.6315 3.37725 4.68714 0.5
822 8.97961 1.32604 5.46696 0.5
823 10.0153 0.205446 10.5621 0.5
824 2.3259 8.66745 5.62098 0.5
825 8.08154 0.196042 2.28151 0.5
826 6.64094 13.1335 8.25253 0.5
827 11.0356 0.684335 0.942347 0.5
828 4.63415 3.64336 2.78122 0.5
829 4.1094 2.21722 8.1969 0.5
830 6.24818 12.2941 8.64635 0.5
831 11.514 0.178274 8.08293 0.5
832 0.99533 5.09135 10.8032 0.5
833 1.061 11.7294 11.2461 0.5
834 9.42444 2.03703 12.8866 0.5
835 1.73491 5.44319 11.5082 0.5
836 8.92022 8.38895 11.0692 0.5
837 7.67271 3.08568 0.508132 0.5
838 12.1751 12.8261 11.7628 0.5
839 5.14699 5.30455 2.51441 0.5
840 7.64794 12.7503 0.332381 0.5
841 6.27226 11.4604 7.17521 0.5
842 12.767 3.88212 10.6542 0.5
843 12.2641 3.40371 12.1171 0.5
844 4.04696 2.08017 12.7969 0.5
845 9.59987 5.69452 5.0927 0.5
846 6.19408 12.686 10.1865 0.5
847 4.95108 8.13304 6.91258 0.5
848 5.31512 6.4467 12.075 0.5
849 0.749639 12.2229 6.46403 0.5
850 10.7394 10.1233 11.7282 0.5
851 7.09927 11.8683 6.66351 0.5
852 7.27997 10.4137 7.6588 0.5
853 4.40629 7.7118 8.69775 0.5
854 10.2553 6.07743 3.51234 0.5
855 10.0783 11.4228 3.49258 0.5
856 1.75374 0.484766 3.19708 0.5
857 9.92419 5.02005 11.1231 0.5
858 7.745 10.0428 8.51036 0.5
859 11.1431 5.89972 5.62607 0.5
860 10.244 5.48228 5.88889 0.5
861 10.9768 13.4214 6.56763 0.5
862 10.9936 8.05182 10.6889 0.5
863 8.20587 8.84589 5.22976 0.5
864 7.73018 7.28547 7.60286 0.5
865 12.3225 4.3881 12.2549 0.5
866 5.72031 12.037 2.48881 0.5
867 12.5478 4.54282 13.2502 0.5
868 9.08393 9.11943 8.8551 0.5
869 4.50677 0.537679 13.4053 0.5
870 4.12699 8.70548 6.67441 0.5
871 12.7208 8.63361 4.74972 0.5
872 1.22536 5.74398 13.0808 0.5
873 12.8439 0.837447 2.10982 0.5
874 7.0146 5.12908 12.6176 0.5
875 7.12264 11.8746 4.62406 0.5
876 2.70499 5.54825 8.53385 0.5
877 11.0421 8.26947 7.41789 0.5
878 2.13532 11.4965 0.822383 0.5
879 1.12587 3.7123 7.68608 0.5
880 11.8245 1.02216 2.62288 0.5
881 10.5323 9.99132 13.1416 0.5
882 2.22932 9.80265 3.53382 0.5
883 11.5163 11.7712 13.3076 0.5
884 12.8713 3.69865 0.162741 0.5
885 8.13486 11.0152 10.2297 0.5
886 13.2383 3.48868 6.93414 0.5
887 13.2003 0.16508 12.6718 0.5
888 4.39067 4.59818 2.46903 0.5
889 10.5757 4.66172 7.70083 0.5
890 11.5909 9.1235 5.82468 0.5
891 1.46966 5.99501 3.01002 0.5
892 9.38063 0.813419 9.81798 0.5
893 9.99805 4.76599 8.51389 0.5
894 7.67101 8.01191 0.883551 0.5
895 12.2217 9.16891 1.39063 0.5
896 7.29799 11.9217 0.914764 0.5
897 7.10128 11.7841 3.61035 0.5
898 5.48307 12.3115 3.39435 0.5
899 9.52764 4.49233 7.63965 0.5
900 11.8355 10.6219 9.39794 0.5
901 0.228859 5.50532 10.3618 0.5
902 10.9807 6.50892 7.54559 0.5
903 10.0786 8.59961 2.81217 0.5
904 7.89166 3.61685 5.45845 0.5
905 13.5014 7.37549 5.70208 0.5
906 13.4811 4.89776 3.50038 0.5
907 6.24764 3.03692 11.3487 0.5
908 8.26986 0.637279 5.74259 0.5
909 9.63867 3.62495 2.57112 0.5
910 6.91129 2.65607 8.91187 0.5
911 6.75058 6.81126 12.5121 0.5
912 8.55267 9.40889 11.2653 0.5
913 11.9117 5.36343 13.4854 0.5
914 5.13757 13.2276 13.2647 0.5
915 7.87031 2.62501 5.61217 0.5
916 11.7692 8.76508 6.74715 0.5
917 11.5226 0.0211603 11.709 0.5
918 6.98229 6.77932 8.10042 0.5
919 13.1835 12.2769 2.13143 0.5
920 13.2938 10.498 11.0153 0.5
921 5.52833 7.21182 6.76891 0.5
922 12.3579 3.16074 11.0976 0.5
923 0.0842794 2.52036 7.2288 0.5
924 11.4999 11.2617 10.1155 0.5
925 10.3126 3.32822 1.70863 0.5
926 5.6267 10.6037 13.344 0.5
927 2.38333 7.74355 6.07903 0.5
928 0.670261 6.67189 5.80939 0.5
929 1.34335 2.82104 11.0505 0.5
930 10.0942 9.42636 9.06791 0.5
931 4.40911 9.77626 12.3523 0.5
932 3.97276 8.64091 3.5528 0.5
933 13.238 11.5569 0.675711 0.5