ITEM: TIMESTEP
30000
ITEM: NUMBER OF ATOMS
1000
ITEM: BOX BOUNDS xy xz yz pp pp pp
0.0000000000000000e+00 1.3572088000000001e+01 0.0000000000000000e+00
0.0000000000000000e+00 1.3572088000000001e+01 0.0000000000000000e+00
0.0000000000000000e+00 1.3572088000000001e+01 0.0000000000000000e+00
ITEM: ATOMS id x y z radius
1 4.13597 3.934 12.2675 0.5
2 4.73879 10.4212 3.20468 0.5
3 9.25789 10.4707 2.63674 0.5
4 10.7661 6.74382 1.8922 0.5
5 7.49216 7.6951 10.1437 0.5
6 4.3834 12.0939 6.59266 0.5
7 3.42477 7.97315 0.0995798 0.5
8 13.4418 12.5017 1.25392 0.5
9 1.46969 7.46479 5.76032 0.5
10 2.79091 12.6096 10.6553 0.5
11 0.813923 9.49668 8.64535 0.5
12 11.5648 6.58465 1.27323 0.5
13 10.1676 11.2891 6.83773 0.5
14 11.707 2.85497 4.14044 0.5
15 5.15871 1.7265 4.40197 0.5
16 7.76805 6.56745 8.69883 0.5
17 7.57171 11.9486 9.95992 0.5
18 2.20478 8.07246 5.77273 0.5
19 9.23734 5.56377 1.86188 0.5
20 10.038 11.8925 3.73366 0.5
21 1.44528 5.04336 0.132256 0.5
22 0.928475 6.39598 11.5116 0.5
23 1.33053 1.3404 10.2121 0.5
24 7.44394 6.69874 2.67788 0.5
25 1.55536 6.13309 1.7418 0.5
26 10.4772 9.47712 5.88112 0.5
27 11.3935 6.83714 12.71 0.5
28 5.08414 11.1591 10.7988 0.5
29 0.937421 6.56643 1.02629 0.5
30 8.28708 11.4195 1.80657 0.5
31 0.691634 13.4548 8.41415 0.5
32 9.79616 3.20969 0.469443 0.5
33 12.5474 6.47828 9.96949 0.5
34 2.78703 8.9442 5.80485 0.5
35 12.1966 6.98547 13.2914 0.5
36 11.0196 13.2812 5.03222 0.5
37 13.4358 0.674151 2.66033 0.5
38 4.34419 1.26413 2.179 0.5
39 10.1311 5.20893 2.01812 0.5
40 6.43553 5.81166 7.61465 0.5
41 9.18785 11.5741 6.81023 0.5
42 7.4014 6.07178 5.18446 0.5
43 5.2012 4.99657 10.2213 0.5
44 3.24531 9.90167 7.64383 0.5
45 6.55675 6.33121 2.58879 0.5
46 10.8802 11.8521 13.4178 0.5
47 1.85218 9.00181 5.53714 0.5
48 8.28799 10.8236 0.894159 0.5
49 5.69068 12.0016 10.7417 0.5
50 4.68292 2.56269 11.1986 0.5
51 12.7821 9.97047 7.39092 0.5
52 6.09668 10.5568 7.312 0.5
53 9.2897 4.46922 1.99455 0.5
54 11.5253 11.077 2.63945 0.5
55 0.584531 0.247397 7.5659 0.5
56 12.1504 5.94469 3.87243 0.5
57 13.4001 11.3684 10.837 0.5
58 4.78587 7.49779 9.78355 0.5
59 1.34233 10.5967 11.5831 0.5
60 7.963 5.75746 9.35515 0.5
61 3.20456 13.0023 11.5204 0.5
62 0.677136 9.26978 0.696934 0.5
63 11.8828 8.69911 1.35377 0.5
64 11.2782 1.67212 10.542 0.5
65 12.8257 1.781 4.99132 0.5
66 0.642614 2.06525 1.79151 0.5
67 8.68337 2.09211 7.13785 0.5
68 4.17714 0.678351 2.98612 0.5
69 11.5658 1.20521 11.4956 0.5
70 10.7164 4.06334 11.6805 0.5
71 2.72714 6.44204 9.08 0.5
72 8.07975 4.12727 10.4218 0.5
73 8.53706 7.04928 8.34414 0.5
74 5.63341 4.23168 9.73023 0.5
75 8.00191 1.29762 10.4712 0.5
76 12.3093 3.56058 1.621 0.5
77 10.3956 2.52057 3.2396 0.5
78 8.80943 2.00281 6.17092 0.5
79 3.48103 12.1677 6.14378 0.5
80 5.47342 2.46526 8.33104 0.5
81 2.05356 3.20373 10.8877 0.5
82 0.951969 8.48023 0.192006 0.5
83 3.46776 0.987553 7.17465 0.5
84 12.9244 9.18324 9.76251 0.5
85 0.928925 3.44504 8.1971 0.5
86 3.07296 0.666019 13.1178 0.5
87 5.59171 6.19694 6.17562 0.5
88 6.49478 6.17857 5.58353 0.5
89 11.6353 13.4431 7.00026 0.5
90 4.08785 4.95763 4.28144 0.5
91 11.1044 7.56992 12.1247 0.5
92 0.672107 1.04558 2.06759 0.5
93 0.696612 1.33613 1.05475 0.5
94 4.53576 10.0616 11.9378 0.5
95 12.5024 2.31298 8.21783 0.5
96 11.2877 3.08363 3.23438 0.5
97 12.2476 2.58707 5.04719 0.5
98 11.9694 10.563 13.3325 0.5
99 6.09267 7.75321 8.35263 0.5
100 1.4151 5.83973 6.02219 0.5
101 4.86399 12.344 1.51456 0.5
102 8.11986 8.05464 10.8063 0.5
103 3.627 5.03385 10.8111 0.5
104 6.36859 10.3659 5.68467 0.5
105 11.5658 0.416698 5.44259 0.5
106 7.41956 0.947547 9.70903 0.5
107 13.5879 5.02356 8.92999 0.5
108 0.940568 11.458 5.06779 0.5
109 1.40625 10.9236 9.6223 0.5
110 9.00497 8.97576 8.11173 0.5
111 7.91729 1.02013 3.27574 0.5
112 5.45486 1.55039 5.39202 0.5
113 0.685766 0.492778 6.58843 0.5
114 6.96106 6.21421 3.56074 0.5
115 5.01543 6.98563 12.4862 0.5
116 0.562543 5.90743 1.81728 0.5
117 0.431271 13.2783 5.87673 0.5
118 12.2903 8.59076 5.49986 0.5
119 11.3202 8.29684 2.07935 0.5
120 5.7465 8.86993 3.16476 0.5
121 11.8938 12.8742 12.1806 0.5
122 1.49652 3.28835 2.80828 0.5
123 10.6055 1.40281 11.2743 0.5
124 11.2757 11.2833 11.764 0.5
125 4.56191 11.3068 3.92498 0.5
126 11.5093 11.2713 12.8497 0.5
127 8.16979 10.9714 11.7665 0.5
128 5.281 2.29429 7.2728 0.5
129 1.88601 6.77491 11.3767 0.5
130 1.56557 10.4811 8.03353 0.5
131 7.03776 1.85311 0.789589 0.5
132 5.20685 11.4977 1.82434 0.5
133 0.515237 11.0782 10.2336 0.5
134 11.472 10.6494 3.64308 0.5
135 12.571 2.27988 5.90816 0.5
136 7.96207 2.6288 3.94974 0.5
137 4.00019 13.0117 6.18887 0.5
138 7.95408 12.0853 12.8469 0.5
139 5.58687 13.3067 12.8015 0.5
140 5.46224 3.79899 3.57617 0.5
141 1.19122 3.75128 4.92592 0.5
142 9.02534 3.63055 0.62336 0.5
143 13.3814 0.787813 12.4063 0.5
144 8.73428 12.4787 6.72093 0.5
145 6.7799 7.18875 3.11444 0.5
146 10.8563 9.35379 8.64108 0.5
147 4.61681 6.69641 13.5102 0.5
148 12.0482 0.289678 11.2617 0.5
149 7.7095 6.70452 9.77199 0.5
150 12.3116 10.8844 2.06389 0.5
151 6.23324 12.1784 9.86268 0.5
152 3.11254 3.47452 10.9418 0.5
153 11.1222 5.7364 8.6592 0.5
154 4.09978 3.39676 1.49211 0.5
155 1.8875 8.58776 10.6411 0.5
156 7.80882 12.359 0.218297 0.5
157 2.0466 0.388582 4.46744 0.5
158 1.16812 8.59869 8.76516 0.5
159 3.887 1.30342 9.63196 0.5
160 8.61752 1.29567 11.3283 0.5
161 12.5614 3.79479 11.0961 0.5
162 7.1243 2.27083 7.27457 0.5
163 10.6826 9.74253 0.0672177 0.5
164 8.817 4.28851 13.4466 0.5
165 7.70429 11.6178 10.8575 0.5
166 11.3562 13.1414 6.0102 0.5
167 11.3567 6.66411 8.58131 0.5
168 2.26243 3.52782 7.03284 0.5
169 11.2379 12.088 12.4434 0.5
170 3.93632 6.3773 0.717923 0.5
171 10.9038 5.84462 1.51927 0.5
172 10.0333 7.8547 10.9734 0.5
173 9.01755 10.4245 3.54965 0.5
174 4.17698 0.61747 13.2924 0.5
175 3.1039 6.18047 2.97244 0.5
176 4.28926 5.10597 3.42372 0.5
177 9.3499 3.51374 5.89344 0.5
178 5.46179 2.66589 3.93188 0.5
179 13.5877 6.21504 2.49906 0.5
180 9.15499 3.20248 13.2793 0.5
181 10.8903 11.9848 8.936 0.5
182 2.77081 11.757 0.495971 0.5
183 8.49785 8.77891 6.25302 0.5
184 9.98115 3.57915 10.2752 0.5
185 7.34302 1.98583 10.0384 0.5
186 4.41394 8.2213 1.96005 0.5
187 4.58656 13.3342 12.7719 0.5
188 6.03931 6.46062 7.03079 0.5
189 0.36638 10.8548 5.67145 0.5
190 7.46762 0.323638 2.69664 0.5
191 9.40446 7.06579 4.78138 0.5
192 10.3065 1.45228 0.229993 0.5
193 11.2016 0.67228 10.7255 0.5
194 8.18642 0.797408 12.0158 0.5
195 13.2559 9.15689 11.7855 0.5
196 8.76384 0.551281 3.64732 0.5
197 2.98302 6.75276 8.09962 0.5
198 6.62528 6.56337 12.2141 0.5
199 11.5291 2.31872 8.63241 0.5
200 6.83256 7.14168 2.04985 0.5
201 1.01489 4.47599 8.22561 0.5
202 6.72072 0.596647 7.9784 0.5
203 2.11905 3.39534 1.8165 0.5
204 1.32181 7.56688 8.89087 0.5
205 13.2285 12.9735 3.5992 0.5
206 0.486884 0.928875 10.0947 0.5
207 6.47302 13.127 9.19248 0.5
208 9.08686 4.66075 7.40224 0.5
209 4.6193 3.20726 3.56868 0.5
210 4.59999 6.47357 4.84783 0.5
211 3.97028 3.99551 10.6769 0.5
212 3.47846 5.57319 3.81148 0.5
213 2.34872 1.23614 5.18441 0.5
214 9.36883 3.94625 12.5299 0.5
215 7.20572 6.32781 1.77953 0.5
216 6.49162 9.49659 13.3761 0.5
217 4.34692 11.4001 4.88211 0.5
218 6.9844 8.14308 3.6457 0.5
219 7.90042 2.06508 3.03898 0.5
220 6.88145 1.18363 8.89934 0.5
221 2.36605 2.65818 6.56651 0.5
222 6.79919 11.0243 5.06604 0.5
223 4.16907 9.06632 2.51394 0.5
224 11.4185 8.47392 3.74089 0.5
225 8.47265 11.3627 10.1314 0.5
226 11.2532 6.74607 0.225492 0.5
227 12.8474 9.19685 10.8307 0.5
228 3.39921 11.6792 5.2585 0.5
229 6.187 4.8373 7.2117 0.5
230 6.29141 8.77082 8.16995 0.5
231 8.54461 6.60551 9.28337 0.5
232 6.81225 6.21551 13.0942 0.5
233 1.20126 0.344175 9.85223 0.5
234 11.2634 2.18833 4.69744 0.5
235 1.14867 10.3709 3.62578 0.5
236 10.5739 6.43947 0.942032 0.5
237 5.03786 8.51337 4.86124 0.5
238 0.633359 12.3626 5.41039 0.5
239 10.3081 7.30401 4.99664 0.5
240 2.4123 3.96728 11.4205 0.5
241 4.84923 5.84897 0.567526 0.5
242 3.40929 0.93477 2.36342 0.5
243 1.53318 9.56288 3.32288 0.5
244 3.46849 12.7872 5.28326 0.5
245 1.44622 11.1076 10.7742 0.5
246 10.0059 9.67934 9.14852 0.5
247 3.09664 13.2659 9.87147 0.5
248 7.03183 2.72533 1.56901 0.5
249 10.0403 2.23165 0.877519 0.5
250 9.37615 1.54665 0.495797 0.5
251 4.13237 9.85718 10.3541 0.5
252 8.96568 8.24222 1.73753 0.5
253 1.66091 9.11653 0.525284 0.5
254 11.1798 4.07217 2.82853 0.5
255 8.54913 10.3657 1.74594 0.5
256 2.17578 13.0826 3.85871 0.5
257 1.51184 3.93313 7.53981 0.5
258 0.923961 6.40228 6.79035 0.5
259 4.11825 4.8563 9.97632 0.5
260 6.69615 11.4595 9.55682 0.5
261 11.052 3.3424 6.10301 0.5
262 7.37567 10.9787 5.83579 0.5
263 3.88537 4.68048 7.21074 0.5
264 11.4557 11.0973 8.6763 0.5
265 1.30455 4.39775 4.08144 0.5
266 4.29908 13.1354 7.1165 0.5
267 4.55369 7.9634 8.835 0.5
268 6.22695 2.12173 1.24852 0.5
269 8.30837 13.4479 6.75231 0.5
270 6.57294 10.4616 8.14436 0.5
271 12.0049 0.127078 4.5115 0.5
272 5.95251 9.95821 0.558474 0.5
273 7.72307 3.58958 4.03429 0.5
274 10.0764 3.06311 9.41464 0.5
275 2.33506 11.818 1.44917 0.5
276 5.08988 0.749288 11.5822 0.5
277 7.78275 5.81047 13.2246 0.5
278 10.7833 10.7844 13.4464 0.5
279 10.2292 11.0465 5.87645 0.5
280 5.5682 12.0735 1.00888 0.5
281 7.35067 3.65779 9.96358 0.5
282 0.282161 11.704 1.21703 0.5
283 5.24049 5.11064 1.72644 0.5
284 1.33002 11.7119 1.27208 0.5
285 2.35188 9.7952 6.07992 0.5
286 3.1015 1.68148 13.0494 0.5
287 7.92322 8.06975 6.77787 0.5
288 5.96678 1.10012 4.58806 0.5
289 2.18883 10.3095 3.36759 0.5
290 1.15884 12.6548 6.14392 0.5
291 5.82227 0.596749 5.43361 0.5
292 4.49708 3.22623 12.9109 0.5
293 11.3758 5.66026 4.59795 0.5
294 1.41637 9.45964 6.47333 0.5
295 2.7737 0.80129 6.39667 0.5
296 0.523931 4.12222 7.502 0.5
297 11.4437 12.2037 11.4697 0.5
298 10.401 4.07404 12.6172 0.5
299 2.35312 1.1209 12.564 0.5
300 8.51361 5.00721 2.4175 0.5
301 6.32054 7.10314 11.3787 0.5
302 3.19813 8.78455 2.86407 0.5
303 11.8131 8.15289 2.90807 0.5
304 0.846041 6.61629 5.81413 0.5
305 6.94676 12.5975 7.44674 0.5
306 11.2488 9.01343 0.608386 0.5
307 2.49158 6.96362 2.87732 0.5
308 13.4953 10.1711 11.9703 0.5
309 12.4491 0.645829 12.8876 0.5
310 7.94046 0.0239574 3.6188 0.5
311 0.129131 4.93305 6.84221 0.5
312 7.49409 11.0126 10.0739 0.5
313 0.794972 10.5416 4.64988 0.5
314 5.73591 11.1836 10.1339 0.5
315 13.057 6.33301 3.3657 0.5
316 8.58346 5.50373 7.35575 0.5
317 12.0201 8.48963 4.56734 0.5
318 12.8859 5.17827 7.35913 0.5
319 10.3556 11.3625 0.481274 0.5
320 5.71721 3.11174 6.75254 0.5
321 2.59506 13.213 2.97477 0.5
322 10.377 0.353697 1.38586 0.5
323 4.11884 0.302673 2.04946 0.5
324 10.4113 3.56699 3.35492 0.5
325 0.960597 4.52418 12.212 0.5
326 10.9705 13.2476 0.772909 0.5
327 9.86295 0.9016 7.61534 0.5
328 12.1274 7.37576 12.3653 0.5
329 8.72974 2.21498 8.21242 0.5
330 9.13799 0.434542 4.713 0.5
331 4.59926 4.17466 3.92666 0.5
332 11.9705 1.99381 9.94289 0.5
333 13.2353 1.38944 3.34965 0.5
334 4.81581 6.79668 0.949532 0.5
335 8.86938 13.1746 3.35311 0.5
336 3.78316 0.818724 8.56343 0.5
337 11.5423 1.11037 9.7962 0.5
338 7.70229 4.61955 9.65864 0.5
339 9.53519 5.05128 2.7726 0.5
340 12.4553 3.57059 12.7465 0.5
341 9.35112 0.407528 9.81042 0.5
342 5.71836 0.137327 4.45461 0.5
343 6.9465 5.35206 9.85548 0.5
344 5.10796 8.02365 5.67999 0.5
345 8.00999 8.04595 5.7939 0.5
346 1.75757 6.48817 5.4015 0.5
347 0.0436933 11.284 0.479676 0.5
348 1.82896 4.8257 1.03381 0.5
349 8.79571 8.4732 7.14857 0.5
350 7.74684 7.05602 10.8809 0.5
351 2.32843 9.36007 11.1049 0.5
352 8.91686 13.1249 7.49205 0.5
353 8.06809 5.98062 2.21952 0.5
354 2.68041 2.76048 5.66308 0.5
355 1.61166 7.01343 2.46509 0.5
356 12.3895 13.487 3.63807 0.5
357 5.48554 11.0994 3.51181 0.5
358 3.71123 0.303663 10.2639 0.5
359 7.06028 9.55884 8.27091 0.5
360 13.1642 4.13621 7.44531 0.5
361 4.12937 1.38813 7.85497 0.5
362 1.13509 1.30013 9.32546 0.5
363 10.1431 12.9047 1.4966 0.5
364 4.04319 8.24381 1.00158 0.5
365 2.77161 7.87787 12.828 0.5
366 6.23008 9.67473 7.58093 0.5
367 10.5501 12.3326 0.710526 0.5
368 4.94757 4.72933 9.23745 0.5
369 1.65384 2.86812 4.6791 0.5
370 11.8794 10.4922 6.9021 0.5
371 8.44558 0.29864 2.74614 0.5
372 0.491109 5.08397 4.07164 0.5
373 5.46518 3.12403 12.6681 0.5
374 13.5522 8.87399 -0.000835473 0.5
375 0.426865 8.69619 8.05375 0.5
376 2.48756 11.0184 4.11146 0.5
377 7.60814 6.44374 4.37014 0.5
378 5.85054 9.2559 12.5652 0.5
379 5.61313 6.50849 0.332758 0.5
380 6.98796 4.23485 13.4287 0.5
381 10.4135 2.56228 8.63774 0.5
382 9.23544 0.470895 7.00039 0.5
383 1.02353 5.63696 0.976435 0.5
384 5.54519 10.2 12.136 0.5
385 12.9054 11.8499 0.806247 0.5
386 0.65072 4.54594 4.90652 0.5
387 0.60974 6.10965 10.5489 0.5
388 0.63319 1.93406 10.0042 0.5
389 4.82307 9.35498 9.83756 0.5
390 4.69573 4.02983 9.96503 0.5
391 6.95724 0.701202 1.9487 0.5
392 0.260337 5.72539 3.31359 0.5
393 4.03394 5.00121 8.19966 0.5
394 9.83888 8.88336 8.5659 0.5
395 1.42865 0.312751 8.90191 0.5
396 0.602906 1.00078 3.14788 0.5
397 6.56648 1.13856 1.10271 0.5
398 8.25169 11.0405 3.95206 0.5
399 0.447554 3.90221 4.24038 0.5
400 7.23423 8.81334 4.38839 0.5
401 9.05943 2.55615 0.550999 0.5
402 4.54791 7.49329 4.96242 0.5
403 6.4699 13.4534 7.2651 0.5
404 10.3358 10.9719 11.4774 0.5
405 12.7003 6.05665 13.3604 0.5
406 6.92972 2.15981 13.3381 0.5
407 1.59315 11.2014 3.53218 0.5
408 2.05174 3.77509 4.34395 0.5
409 3.00596 4.35644 10.6631 0.5
410 11.2723 2.0977 3.63776 0.5
411 4.10053 5.84463 13.3973 0.5
412 5.01055 0.475291 12.5347 0.5
413 3.63507 6.67319 8.85077 0.5
414 2.80637 8.59776 10.9051 0.5
415 8.82381 10.2943 11.4016 0.5
416 9.44591 10.604 6.50837 0.5
417 0.843749 13.1314 9.30295 0.5
418 8.91284 1.34606 9.94423 0.5
419 2.27095 13.1434 11.4144 0.5
420 4.13617 0.481809 7.6573 0.5
421 13.562 6.62686 9.87991 0.5
422 8.77028 3.87217 6.68764 0.5
423 12.8312 13.3821 2.80364 0.5
424 2.62773 2.93422 4.72279 0.5
425 7.14477 7.88814 11.0918 0.5
426 0.853953 12.0767 6.96886 0.5
427 6.77477 2.75757 0.561557 0.5
428 13.2218 8.20301 9.52788 0.5
429 8.63224 4.24288 9.56344 0.5
430 7.55369 1.22302 11.3249 0.5
431 3.16034 4.97021 7.79932 0.5
432 0.985546 1.78821 2.60953 0.5
433 7.9678 11.4848 0.114105 0.5
434 0.0469528 4.33074 0.819949 0.5
435 10.4538 9.36981 0.965121 0.5
436 6.17938 4.84395 10.3601 0.5
437 3.78169 9.08243 5.95992 0.5
438 6.16808 2.81484 7.68529 0.5
439 10.6399 12.061 9.90194 0.5
440 10.3648 10.3507 6.50544 0.5
441 5.8266 12.8002 4.0663 0.5
442 2.01293 7.4491 4.9112 0.5
443 0.943201 12.609 1.05271 0.5
444 8.92325 7.77057 13.3279 0.5
445 4.78084 8.47205 2.92757 0.5
446 4.44033 5.83949 4.08411 0.5
447 1.39886 8.41391 6.12542 0.5
448 5.78666 10.1951 13.0672 0.5
449 2.87634 0.0235373 10.8216 0.5
450 3.38317 3.01492 0.934186 0.5
451 6.27549 3.54963 0.284216 0.5
452 1.85126 8.08328 0.528814 0.5
453 4.93901 8.65948 3.85902 0.5
454 2.5349 0.56126 2.84063 0.5
455 1.8514 3.11367 9.91952 0.5
456 7.97432 12.7493 7.47056 0.5
457 12.2161 13.0101 8.23329 0.5
458 3.59462 0.303158 9.3072 0.5
459 13.5261 1.97803 5.75694 0.5
460 12.8826 7.65206 12.9446 0.5
461 10.8243 8.26786 11.3314 0.5
462 11.0529 3.02001 8.05285 0.5
463 6.69103 3.21149 6.91511 0.5
464 11.9099 9.37924 11.1483 0.5
465 5.15218 10.1701 11.1612 0.5
466 3.41448 0.0675294 6.81365 0.5
467 1.1612 8.49509 1.14925 0.5
468 12.6381 8.37074 10.2841 0.5
469 1.03559 3.38728 10.719 0.5
470 2.73597 4.97611 11.3166 0.5
471 3.97964 13.0349 9.62744 0.5
472 10.9719 6.49374 4.83781 0.5
473 10.7608 6.37511 7.90203 0.5
474 2.07458 8.02189 8.67482 0.5
475 6.27885 4.04813 6.55031 0.5
476 6.94083 1.11146 10.5337 0.5
477 5.4186 7.6016 9.04522 0.5
478 2.81972 10.7518 0.23341 0.5
479 8.78425 7.39386 1.22531 0.5
480 2.49703 10.5931 7.81762 0.5
481 1.74123 3.87219 0.973501 0.5
482 11.3797 0.562735 1.13201 0.5
483 7.90092 10.1168 3.55708 0.5
484 9.98628 6.28347 5.03678 0.5
485 4.53903 5.91931 1.4907 0.5
486 3.02137 10.3961 8.64364 0.5
487 4.70869 2.10677 8.85993 0.5
488 6.82094 4.13812 7.40952 0.5
489 3.43947 0.0576552 2.88294 0.5
490 1.40657 12.2609 7.7969 0.5
491 2.02808 7.60992 12.0674 0.5
492 1.8064 4.74238 11.6974 0.5
493 10.1863 8.88517 10.866 0.5
494 7.83286 4.84989 13.4419 0.5
495 6.78158 8.60607 0.147766 0.5
496 6.45896 12.7736 12.8695 0.5
497 6.57663 6.93212 7.75409 0.5
498 4.23513 12.2887 5.55837 0.5
499 7.08142 2.8794 10.4522 0.5
500 12.3816 8.3865 6.47964 0.5
501 4.50547 2.5009 4.30688 0.5
502 9.25151 10.3319 9.2804 0.5
503 8.58809 6.10379 12.6457 0.5
504 2.42052 1.15895 13.5673 0.5
505 4.80482 3.25398 11.9322 0.5
506 3.65639 11.2825 0.536866 0.5
507 7.27076 2.88138 3.35085 0.5
508 0.383877 1.19139 7.19067 0.5
509 5.53773 5.60871 7.07046 0.5
510 8.65682 11.5659 11.1112 0.5
511 6.70675 0.294896 4.96372 0.5
512 7.50225 10.3846 4.48041 0.5
513 6.89915 3.18942 2.48513 0.5
514 6.09598 9.03054 0.728575 0.5
515 0.526343 9.81539 3.07318 0.5
516 3.98489 8.95865 3.49323 0.5
517 0.653774 2.94248 4.56999 0.5
518 2.05847 7.02991 8.49555 0.5
519 4.6104 6.91279 8.93985 0.5
520 1.57905 1.49792 0.401035 0.5
521 11.7646 5.22219 5.42136 0.5
522 2.18758 10.5607 11.1779 0.5
523 12.9851 8.46632 4.10976 0.5
524 13.4136 0.384327 6.9795 0.5
525 10.2605 10.4212 0.753511 0.5
526 8.73845 12.2028 7.61446 0.5
527 7.31937 11.6572 1.96293 0.5
528 0.773661 0.902583 0.13577 0.5
529 12.3835 1.19706 0.087731 0.5
530 11.6433 3.99849 11.3562 0.5
531 10.9486 9.27117 11.4893 0.5
532 6.54761 9.05749 3.71663 0.5
533 4.57817 7.27674 10.862 0.5
534 2.47394 11.5127 10.864 0.5
535 8.39052 12.9927 13.199 0.5
536 2.09118 12.0278 3.71885 0.5
537 1.9127 11.4176 7.94577 0.5
538 7.62638 10.6423 1.76583 0.5
539 1.91632 7.70988 3.25261 0.5
540 2.40302 4.16463 7.89146 0.5
541 3.76692 10.652 13.3854 0.5
542 8.68052 0.0970092 12.5265 0.5
543 0.126634 5.84412 7.16287 0.5
544 8.92076 1.26033 7.60373 0.5
545 2.14276 6.11502 2.60049 0.5
546 0.731678 0.568676 12.8157 0.5
547 10.3174 5.01134 6.14332 0.5
548 11.1962 0.556964 6.45286 0.5
549 12.6834 10.9017 7.61113 0.5
550 13.1053 12.3588 2.71509 0.5
551 5.6241 1.30146 1.02197 0.5
552 3.62551 6.85607 13.4652 0.5
553 10.8823 3.91853 10.6348 0.5
554 3.03422 13.0829 6.1203 0.5
555 0.102933 3.59818 5.08563 0.5
556 8.04667 12.8991 12.2348 0.5
557 7.58209 11.4506 1.02041 0.5
558 4.32977 2.03133 10.3231 0.5
559 2.852 11.321 8.35223 0.5
560 7.27465 3.68111 11.0179 0.5
561 8.95681 9.33303 12.6158 0.5
562 12.655 4.01446 0.721139 0.5
563 9.4929 5.36739 6.66401 0.5
564 8.72014 5.25664 13.1482 0.5
565 9.50667 4.40752 6.31073 0.5
566 6.53382 0.532978 9.68875 0.5
567 12.3083 5.28616 4.61578 0.5
568 6.49641 1.51527 9.72639 0.5
569 10.6562 6.75002 11.9457 0.5
570 12.8519 8.11986 3.08518 0.5
571 3.34421 1.07046 3.38359 0.5
572 4.12188 3.49935 0.392411 0.5
573 0.466882 13.0615 6.89971 0.5
574 9.14392 8.38402 2.61607 0.5
575 7.92316 0.257937 1.76143 0.5
576 3.54641 10.7771 7.912 0.5
577 3.52491 8.61456 1.88664 0.5
578 1.88204 12.3106 0.673397 0.5
579 0.389002 9.35494 12.4239 0.5
580 2.89489 5.94279 7.50774 0.5
581 1.55364 12.9406 8.53203 0.5
582 2.62911 12.1589 11.5725 0.5
583 1.88549 10.9173 1.56922 0.5
584 10.7958 5.62117 5.31743 0.5
585 0.222518 4.98283 7.88442 0.5
586 13.2141 5.79207 10.3712 0.5
587 1.50853 2.50061 2.09467 0.5
588 12.8658 1.57304 12.7952 0.5
589 0.110086 8.92112 9.03505 0.5
590 3.88315 9.9156 8.55314 0.5
591 3.98468 2.94362 10.5243 0.5
592 11.5617 12.1596 10.4012 0.5
593 5.58338 9.80333 5.99488 0.5
594 13.5183 11.0103 4.79585 0.5
595 11.7864 10.7228 5.85214 0.5
596 9.88128 9.98178 3.4871 0.5
597 3.83958 11.6536 8.30928 0.5
598 7.75557 11.2629 4.91447 0.5
599 11.8253 12.0264 8.55549 0.5
600 12.3355 6.36143 12.4467 0.5
601 4.46007 5.34666 2.37064 0.5
602 12.3509 5.4772 9.91476 0.5
603 2.31318 7.77032 11.0328 0.5
604 5.15877 1.70163 10.8682 0.5
605 8.21959 3.56688 11.2351 0.5
606 13.0821 8.07288 5.81309 0.5
607 9.05748 9.27806 9.16479 0.5
608 7.95015 11.9096 11.8411 0.5
609 1.164 12.5649 0.0954043 0.5
610 1.69285 8.20581 9.64805 0.5
611 0.4132 7.96422 8.78446 0.5
612 5.82289 12.5887 2.99257 0.5
613 3.73497 5.81017 4.79634 0.5
614 3.71517 12.9682 10.7093 0.5
615 2.07815 10.8235 8.75821 0.5
616 0.767243 6.80483 2.03928 0.5
617 6.63987 5.29545 5.07606 0.5
618 10.3662 6.47384 8.79812 0.5
619 12.0498 3.78595 3.09069 0.5
620 0.513794 10.6429 11.1764 0.5
621 1.29253 3.43087 3.86577 0.5
622 5.32535 8.4648 8.44613 0.5
623 12.5958 7.8232 4.85978 0.5
624 0.975017 6.14588 2.73497 0.5
625 1.18896 2.85076 11.5061 0.5
626 2.54003 4.20924 1.47515 0.5
627 11.3222 5.84486 0.596104 0.5
628 11.5085 3.96007 12.3643 0.5
629 6.93856 3.8132 3.30109 0.5
630 2.58071 3.51044 0.844907 0.5
631 9.61507 1.44947 13.0252 0.5
632 7.16225 12.3514 12.2124 0.5
633 10.6991 1.28981 1.1285 0.5
634 10.6127 11.1621 9.33091 0.5
635 9.80789 2.39642 13.4495 0.5
636 9.80965 4.02217 13.416 0.5
637 11.7134 11.2395 7.70875 0.5
638 5.05955 0.839472 4.83484 0.5
639 8.42705 7.2331 10.0834 0.5
640 3.18364 5.17938 6.82881 0.5
641 9.4626 8.48596 6.36912 0.5
642 12.1469 6.42613 0.572694 0.5
643 11.7473 2.56282 7.57728 0.5
644 7.14278 4.46117 10.4238 0.5
645 13.5168 11.6605 5.53698 0.5
646 8.40058 8.6213 13.3811 0.5
647 7.31537 7.03204 11.6843 0.5
648 8.3571 9.48185 11.6636 0.5
649 5.31694 7.38585 11.6225 0.5
650 3.1741 1.50057 7.99821 0.5
651 12.9917 5.60931 6.43745 0.5
652 5.17299 3.15858 7.67854 0.5
653 3.15046 6.05645 0.138763 0.5
654 4.30468 10.072 9.39499 0.5
655 11.211 12.9507 8.60763 0.5
656 0.959383 11.7436 0.455526 0.5
657 10.2002 0.656676 6.56402 0.5
658 9.84043 10.1386 5.60339 0.5
659 0.179682 10.3241 3.98825 0.5
660 0.515889 0.552457 9.15507 0.5
661 2.11581 7.30889 9.43286 0.5
662 3.57401 11.1472 4.33501 0.5
663 5.1351 12.1043 3.56839 0.5
664 6.36215 5.72198 6.49833 0.5
665 9.83552 10.9305 3.37542 0.5
666 6.70952 11.6028 10.515 0.5
667 9.57288 3.81089 9.20395 0.5
668 6.24116 3.10933 3.36284 0.5
669 8.17632 10.7153 2.60571 0.5
670 7.32022 13.233 6.76193 0.5
671 6.92586 9.50667 0.700579 0.5
672 3.09098 2.02133 5.16193 0.5
673 5.51453 9.34417 13.5549 0.5
674 2.86199 8.14005 11.8247 0.5
675 1.44499 3.78071 11.4719 0.5
676 1.84285 0.273276 3.43325 0.5
677 2.92878 7.86261 3.2087 0.5
678 11.192 8.92409 10.5907 0.5
679 13.057 13.4888 4.48262 0.5
680 4.63117 11.5847 0.959552 0.5
681 3.02309 1.11651 8.99251 0.5
682 0.460842 2.58399 10.7968 0.5
683 1.37122 6.18952 12.3082 0.5
684 12.3336 12.5126 3.3335 0.5
685 12.3161 10.7182 3.10794 0.5
686 10.2276 7.6386 11.829 0.5
687 4.97026 9.61828 12.7202 0.5
688 1.05976 7.16735 4.85084 0.5
689 3.48234 4.01261 1.03559 0.5
690 4.45682 8.35735 6.375 0.5
691 12.9501 10.4964 12.8211 0.5
692 5.10654 0.277641 13.4951 0.5
693 11.4207 5.92633 12.3052 0.5
694 6.08832 8.42487 9.09541 0.5
695 12.3645 8.19023 2.10408 0.5
696 11.0594 3.14946 9.1174 0.5
697 13.431 9.50709 8.15068 0.5
698 6.36256 9.95048 6.60221 0.5
699 2.50073 8.63499 0.0775043 0.5
700 12.1637 7.79168 3.8198 0.5
701 8.94425 8.19931 0.653239 0.5
702 3.69412 1.8682 8.70369 0.5
703 1.92035 4.10431 12.4004 0.5
704 9.55661 1.89002 7.64153 0.5
705 10.711 8.35098 8.35628 0.5
706 6.39293 11.3759 5.92013 0.5
707 4.74387 5.21354 7.46865 0.5
708 1.4678 1.50006 1.80355 0.5
709 10.6522 0.512704 0.476418 0.5
710 6.64578 6.16562 4.54822 0.5
711 13.3858 0.863279 13.3355 0.5
712 12.0826 1.08016 10.5561 0.5
713 9.38456 9.85139 8.4066 0.5
714 0.0344698 4.07835 8.41658 0.5
715 12.3189 8.73271 3.52837 0.5
716 0.831925 2.92312 9.89274 0.5
717 4.34006 9.10886 1.44859 0.5
718 11.9096 1.5916 7.9865 0.5
719 4.21599 10.5782 11.0537 0.5
720 12.9471 11.7406 1.81688 0.5
721 9.65508 4.50764 9.92337 0.5
722 5.11464 13.2813 11.9462 0.5
723 4.48308 9.03723 8.81506 0.5
724 8.38856 0.54535 9.79711 0.5
725 2.51858 1.81457 6.02157 0.5
726 7.90121 2.23184 6.54322 0.5
727 5.3165 3.59981 13.4532 0.5
728 13.2814 2.73081 5.05966 0.5
729 9.92181 6.17435 1.66933 0.5
730 8.62434 4.89105 6.50976 0.5
731 11.3933 1.2642 0.354286 0.5
732 2.94441 3.49807 6.33831 0.5
733 8.50014 11.8627 0.903287 0.5
734 11.0807 11.0066 6.45375 0.5
735 3.2092 5.8033 8.40246 0.5
736 3.4626 4.32192 11.5406 0.5
737 6.95657 4.28602 2.39454 0.5
738 1.38203 7.72909 11.248 0.5
739 7.15108 0.242582 8.91832 0.5
740 12.1885 1.63548 9.01826 0.5
741 8.70867 3.26052 3.8933 0.5
742 5.13475 9.38453 0.942288 0.5
743 9.58544 7.68768 5.67749 0.5
744 5.18526 4.04223 12.512 0.5
745 8.26265 6.7195 11.7061 0.5
746 5.13224 8.4651 9.45984 0.5
747 0.159589 13.5128 11.9903 0.5
748 7.61814 10.5048 8.14359 0.5
749 4.7942 9.42612 3.32857 0.5
750 1.45567 1.19161 12.9586 0.5
751 0.117477 7.88478 13.5386 0.5
752 2.05573 1.91959 13.1102 0.5
753 6.25962 1.77033 0.306777 0.5
754 1.79429 12.4499 12.0317 0.5
755 6.98327 3.23392 13.2151 0.5
756 6.92379 8.5753 1.18654 0.5
757 11.6168 6.77081 11.746 0.5
758 4.17992 11.384 5.94514 0.5
759 11.7288 7.37114 2.15451 0.5
760 8.10636 5.57736 4.6885 0.5
761 2.79748 10.9395 1.11375 0.5
762 13.3769 3.39502 0.375014 0.5
763 13.3261 0.363649 3.5452 0.5
764 9.55502 9.00134 3.1318 0.5
765 12.6605 2.99365 0.918564 0.5
766 8.74961 2.7078 5.44614 0.5
767 4.14178 7.38242 0.532755 0.5
768 13.0921 13.4022 11.1867 0.5
769 11.5006 2.496 5.70114 0.5
770 11.5275 6.99193 7.57952 0.5
771 8.79369 7.75855 6.41707 0.5
772 1.58362 2.2017 9.63703 0.5
773 9.45422 2.92427 8.65159 0.5
774 8.65853 1.26397 2.81498 0.5
775 9.1095 1.06991 12.2559 0.5
776 2.16771 8.91311 6.53735 0.5
777 11.879 11.5213 3.5429 0.5
778 12.5283 11.6193 2.81881 0.5
779 8.90133 8.37888 5.44957 0.5
780 3.73463 10.9625 8.97858 0.5
781 0.657663 1.53686 6.23261 0.5
782 10.6373 2.80956 4.03635 0.5
783 13.1677 9.50832 12.7392 0.5
784 2.06456 2.17093 5.18984 0.5
785 11.3182 9.99996 6.29096 0.5
786 8.35852 3.56289 5.80303 0.5
787 5.70781 11.6787 2.81145 0.5
788 10.8448 7.26236 11.0969 0.5
789 9.49142 2.94908 1.41431 0.5
790 7.83232 1.10658 2.26451 0.5
791 5.64448 6.4693 11.8793 0.5
792 6.23303 2.29685 6.8628 0.5
793 7.5207 9.10818 3.43258 0.5
794 12.5968 0.761974 3.10363 0.5
795 9.39968 9.26214 5.72467 0.5
796 3.09512 9.35927 6.66615 0.5
797 3.89173 3.39696 11.4332 0.5
798 1.98901 3.97454 3.30056 0.5
799 13.3565 1.11711 6.29028 0.5
800 0.949399 7.55518 0.611473 0.5
801 7.31442 5.49544 4.27854 0.5
802 4.91098 10.9373 11.792 0.5
803 10.7619 11.6767 10.9303 0.5
804 12.8947 7.38369 10.0687 0.5
805 8.7746 7.43785 2.2972 0.5
806 2.92053 7.41368 8.74144 0.5
807 3.79402 5.70682 7.50766 0.5
808 2.19803 8.68047 3.09757 0.5
809 9.79948 4.54074 11.8921 0.5
810 1.79607 12.3197 11.0133 0.5
811 10.3219 6.7854 4.17482 0.5
812 1.99478 8.51425 11.6183 0.5
813 7.66169 6.48463 12.4926 0.5
814 9.2171 12.4835 4.00255 0.5
815 11.4853 0.10993 7.95753 0.5
816 8.94461 6.53047 1.82513 0.5
817 10.7702 11.4221 3.44286 0.5
818 2.78324 11.3006 2.12509 0.5
819 5.79942 0.321726 7.84934 0.5
820 0.827976 12.3934 8.60969 0.5
821 11.1835 3.11463 5.00572 0.5
822 9.51988 13.3897 4.02484 0.5
823 8.967 0.366651 11.6291 0.5
824 1.40005 8.20944 5.05975 0.5
825 7.59417 1.07163 1.21728 0.5
826 6.52827 13.2458 8.23241 0.5
827 11.6722 1.44088 1.24728 0.5
828 6.1268 3.88884 2.70008 0.5
829 4.48501 2.37029 7.9052 0.5
830 4.59297 11.4804 8.91764 0.5
831 10.6885 0.300627 7.35622 0.5
832 13.2314 4.98892 9.94816 0.5
833 1.91179 11.4657 11.689 0.5
834 8.86953 2.14197 13.323 0.5
835 1.64264 5.11573 12.6801 0.5
836 8.42791 10.0955 12.2957 0.5
837 6.14932 3.71493 12.8926 0.5
838 12.6116 13.5111 12.0053 0.5
839 5.53443 5.99209 1.25825 0.5
840 7.39969 12.8306 13.0269 0.5
841 5.7859 10.7735 6.38113 0.5
842 12.4561 4.22446 11.9572 0.5
843 11.8083 4.33757 1.2371 0.5
844 4.45825 4.15328 13.2035 0.5
845 11.0601 4.30139 6.40897 0.5
846 5.5843 11.6605 9.15711 0.5
847 4.30138 7.43353 5.95839 0.5
848 4.31773 7.36958 11.9035 0.5
849 0.177059 12.3109 6.30694 0.5
850 10.5398 11.9561 11.8371 0.5
851 6.75878 10.7809 6.64615 0.5
852 7.04483 10.0899 7.31768 0.5
853 3.86428 7.4879 9.38021 0.5
854 10.3618 5.79044 4.30944 0.5
855 9.14187 11.4065 3.9329 0.5
856 2.80471 0.203536 3.74222 0.5
857 9.01963 3.92827 10.5757 0.5
858 8.54591 10.606 8.55754 0.5
859 11.0053 4.60473 5.49439 0.5
860 10.334 3.94567 5.93545 0.5
861 10.5656 0.319587 5.70621 0.5
862 9.89213 6.87644 11.1301 0.5
863 8.62402 7.43608 5.41797 0.5
864 8.44945 7.55696 7.41216 0.5
865 12.0133 4.35256 2.25406 0.5
866 5.83873 12.2651 1.97793 0.5
867 12.9468 3.76185 2.4719 0.5
868 9.44046 9.72062 9.96003 0.5
869 4.29601 0.45915 0.606387 0.5
870 3.49938 8.14499 6.14461 0.5
871 12.1741 7.59353 5.85766 0.5
872 1.01682 5.3914 11.8418 0.5
873 0.0625642 1.67587 2.50807 0.5
874 8.47615 7.1158 12.6925 0.5
875 7.07082 11.969 5.48792 0.5
876 2.26028 6.0992 8.33805 0.5
877 11.567 7.66776 8.45674 0.5
878 1.98699 11.2795 0.6331 0.5
879 3.4755 4.42256 6.23071 0.5
880 12.1378 1.99702 0.660304 0.5
881 10.5818 11.2629 12.4826 0.5
882 0.888106 9.59865 4.06076 0.5
883 10.9988 13.3921 1.88557 0.5
884 13.3271 3.62934 1.43364 0.5
885 8.18442 10.7042 10.7988 0.5
886 1.86834 3.23766 8.05156 0.5
887 0.440413 1.54706 12.8912 0.5
888 6.03527 4.45929 1.90749 0.5
889 10.4536 3.94902 9.58726 0.5
890 11.8073 7.62193 6.71716 0.5
891 3.59167 5.25297 2.79488 0.5
892 8.9023 0.663511 10.6543 0.5
893 10.3541 3.57598 8.60203 0.5
894 7.99852 7.00093 1.84212 0.5
895 11.1151 9.18611 1.67419 0.5
896 7.05559 11.9082 13.1819 0.5
897 6.14668 11.8927 3.65782 0.5
898 4.98073 12.3358 2.49441 0.5
899 9.94887 4.27097 10.9397 0.5
900 11.3898 12.6368 9.50557 0.5
901 13.0685 5.81431 9.34152 0.5
902 11.0294 6.34322 9.49715 0.5
903 8.59229 6.44251 4.8494 0.5
904 8.31704 3.32381 4.8027 0.5
905 0.418325 5.7159 6.23123 0.5
906 13.0596 5.51913 3.92989 0.5
907 6.44704 3.79243 10.3571 0.5
908 8.58535 13.2212 4.33177 0.5
909 10.5717 3.27002 2.46463 0.5
910 9.44403 1.41467 6.81027 0.5
911 5.87722 6.39943 12.8668 0.5
912 7.3423 8.63033 10.5551 0.5
913 11.8103 6.10427 13.2739 0.5
914 3.75599 0.92017 1.36838 0.5
915 8.69534 2.88136 6.4562 0.5
916 11.1438 7.89208 7.6046 0.5
917 11.6812 0.406139 12.2051 0.5
918 8.50439 5.95768 8.41271 0.5
919 12.7999 11.1778 0.0436481 0.5
920 0.369627 10.7164 9.35291 0.5
921 7.0242 6.33126 7.07037 0.5
922 13.1679 3.56241 11.9663 0.5
923 1.45511 2.93421 8.94764 0.5
924 10.381 12.8614 9.26708 0.5
925 10.1991 4.3071 2.57614 0.5
926 4.74824 10.631 12.7724 0.5
927 1.50933 7.67129 4.12453 0.5
928 13.5047 6.50592 6.48677 0.5
929 1.41454 2.35101 10.5391 0.5
930 10.8781 10.2031 9.03042 0.5
931 5.32178 9.29091 11.7766 0.5
932 3.84251 8.12969 2.82688 0.5