ITEM: TIMESTEP
75
ITEM: NUMBER OF ATOMS
1000
ITEM: BOX BOUNDS xy xz yz pp pp pp
0.0000000000000000e+00 1.3572088000000001e+01 0.0000000000000000e+00
0.0000000000000000e+00 1.3572088000000001e+01 0.0000000000000000e+00
0.0000000000000000e+00 1.3572088000000001e+01 0.0000000000000000e+00
ITEM: ATOMS id x y z radius
1 4.41073 4.08149 12.127 0.5
2 4.39045 11.2548 3.66954 0.5
3 8.02142 10.862 1.60245 0.5
4 10.2372 6.36178 1.07401 0.5
5 7.61651 8.32498 11.4799 0.5
6 4.32556 11.1783 6.47849 0.5
7 4.28654 7.99663 0.266194 0.5
8 0.731442 11.8046 1.03887 0.5
9 2.21227 7.36537 4.85971 0.5
10 3.20048 13.07 10.764 0.5
11 0.521106 10.2964 8.79001 0.5
12 11.2635 6.34417 0.900238 0.5
13 9.05533 10.9398 6.79839 0.5
14 11.002 1.93517 4.05909 0.5
15 5.50715 1.53072 4.92753 0.5
16 6.45031 6.37321 9.3679 0.5
17 7.22665 11.5486 10.346 0.5
18 1.71621 8.28237 6.09219 0.5
19 8.16717 5.63383 2.26055 0.5
20 9.93347 12.0878 4.1206 0.5
21 0.732834 4.32688 0.394278 0.5
22 2.03784 6.03106 12.023 0.5
23 13.3219 1.1518 9.45335 0.5
24 5.47411 6.97297 3.1151 0.5
25 1.22653 6.62271 1.35065 0.5
26 9.91946 8.46185 6.00911 0.5
27 12.4492 6.3843 13.0043 0.5
28 4.781 10.7269 10.9006 0.5
29 1.25096 5.96436 0.642409 0.5
30 9.66741 9.60602 1.94862 0.5
31 1.14526 0.133116 7.00297 0.5
32 10.1505 2.40968 0.960394 0.5
33 13.1293 6.81166 10.3461 0.5
34 2.43102 8.93777 6.364 0.5
35 12.5177 6.21827 0.375955 0.5
36 12.2835 13.5506 6.64491 0.5
37 12.6733 0.651727 3.04304 0.5
38 4.68201 2.59581 0.798185 0.5
39 8.89161 5.55159 1.60933 0.5
40 6.20814 5.38577 6.77717 0.5
41 9.03178 11.7936 7.33942 0.5
42 6.37443 5.19121 3.83821 0.5
43 4.93428 4.41782 9.53519 0.5
44 3.43986 9.84726 7.50523 0.5
45 5.54965 7.89501 2.61432 0.5
46 11.69 11.441 13.0542 0.5
47 1.46234 9.18021 5.94514 0.5
48 9.24221 9.94857 1.06754 0.5
49 4.94074 11.5613 11.3629 0.5
50 4.6965 2.46178 11.5202 0.5
51 12.7768 10.9134 7.30288 0.5
52 5.46393 9.82434 7.15599 0.5
53 7.84169 4.88708 2.77486 0.5
54 12.4522 9.86343 1.702 0.5
55 0.437908 0.944027 5.7148 0.5
56 11.4453 4.65537 3.64009 0.5
57 12.4897 10.7082 9.79652 0.5
58 5.13817 7.52671 10.6672 0.5
59 2.97588 10.7175 11.5071 0.5
60 6.12444 5.53616 9.86187 0.5
61 3.39076 12.6029 11.7013 0.5
62 0.821396 9.12074 0.509049 0.5
63 11.8432 8.34792 1.0523 0.5
64 11.2548 2.07478 10.5099 0.5
65 13.1881 3.71595 5.81582 0.5
66 0.859703 2.31839 1.85137 0.5
67 8.5728 2.52811 7.36511 0.5
68 4.3926 1.33239 3.03461 0.5
69 12.0746 0.734811 11.1771 0.5
70 11.1605 4.49849 12.4844 0.5
71 2.27581 6.04621 9.67221 0.5
72 7.90907 3.97638 9.95902 0.5
73 7.44768 7.52524 10.3955 0.5
74 5.59129 4.3638 8.72791 0.5
75 8.43769 1.90585 11.4336 0.5
76 12.3393 4.06031 1.89642 0.5
77 9.29491 1.60829 3.8419 0.5
78 9.83345 2.04598 6.03435 0.5
79 3.6816 11.4804 5.64818 0.5
80 4.74567 3.62048 7.61054 0.5
81 2.5805 3.60433 10.1127 0.5
82 1.45021 9.02025 13.3557 0.5
83 2.20541 1.62463 7.54724 0.5
84 12.0529 9.26898 7.68035 0.5
85 1.09023 3.54091 9.35482 0.5
86 3.49752 0.780703 12.2297 0.5
87 4.71733 6.09178 6.19315 0.5
88 5.66535 4.6579 4.29848 0.5
89 11.7927 0.8407 7.73186 0.5
90 3.63673 5.29884 4.66974 0.5
91 11.6502 8.1587 11.2074 0.5
92 0.80968 1.30896 2.14392 0.5
93 1.37006 1.6189 1.2549 0.5
94 4.22736 9.6381 12.2733 0.5
95 12.1929 3.50404 9.64061 0.5
96 10.6811 2.73364 3.48061 0.5
97 11.4861 3.42184 4.93824 0.5
98 12.84 10.8139 11.9243 0.5
99 5.59374 7.70238 8.06709 0.5
100 1.88869 5.43879 5.39304 0.5
101 5.84804 11.0697 1.56545 0.5
102 7.92678 8.17399 12.4942 0.5
103 4.26441 4.83745 10.1288 0.5
104 6.4559 10.2237 6.00915 0.5
105 11.3958 1.53802 7.01464 0.5
106 7.8786 2.2965 10.577 0.5
107 0.149029 5.38058 9.05345 0.5
108 0.126586 10.8213 4.94973 0.5
109 1.10283 10.1438 10.0554 0.5
110 7.63261 8.71949 7.39128 0.5
111 7.35258 0.299664 4.22086 0.5
112 6.24605 1.2541 6.03042 0.5
113 0.585393 2.5655 5.66711 0.5
114 6.00116 6.12835 3.56353 0.5
115 5.70624 6.06865 12.5276 0.5
116 0.396074 6.06314 1.23141 0.5
117 0.694274 0.0451737 5.32569 0.5
118 12.5987 7.58694 4.84555 0.5
119 11.9967 8.64596 2.04179 0.5
120 4.77577 10.6985 4.4106 0.5
121 12.9126 12.8211 12.813 0.5
122 1.27953 4.65786 2.47205 0.5
123 11.3576 1.45815 11.2572 0.5
124 11.3929 12.4919 12.0489 0.5
125 3.98253 12.1096 3.29928 0.5
126 11.9973 10.6483 12.5517 0.5
127 8.11018 10.2693 11.728 0.5
128 4.37193 3.26637 6.68908 0.5
129 2.57757 7.44435 12.8475 0.5
130 1.79636 11.3394 8.16785 0.5
131 7.75762 1.25236 0.195241 0.5
132 5.47157 12.0215 2.04411 0.5
133 0.0793518 11.2312 8.67948 0.5
134 11.5778 10.8897 3.01172 0.5
135 12.1989 3.92707 5.9527 0.5
136 8.3636 1.80789 3.97486 0.5
137 2.19008 0.351806 5.55956 0.5
138 8.71401 13.2483 12.4279 0.5
139 5.98975 12.6826 12.7749 0.5
140 4.82364 2.76707 3.51391 0.5
141 0.797306 3.94497 4.179 0.5
142 9.22364 2.90268 1.76916 0.5
143 0.987385 0.374209 11.3127 0.5
144 8.21907 12.4653 7.18821 0.5
145 5.94318 7.06735 3.99653 0.5
146 10.0784 10.7225 8.49281 0.5
147 4.76634 6.32652 13.1699 0.5
148 12.4766 13.463 10.751 0.5
149 5.91344 6.83146 8.63749 0.5
150 13.4291 9.95088 1.41718 0.5
151 5.63948 11.2723 10.5468 0.5
152 3.47215 3.44288 10.676 0.5
153 11.0775 6.56677 8.12014 0.5
154 3.71809 4.22713 1.35719 0.5
155 2.63967 7.74665 10.4224 0.5
156 8.78468 12.3591 0.263058 0.5
157 3.18991 12.8239 3.18751 0.5
158 1.50091 8.73428 8.66312 0.5
159 3.80099 1.43925 10.2883 0.5
160 8.73493 2.5935 12.0627 0.5
161 13.2244 3.01882 11.9156 0.5
162 6.94638 3.05097 7.29719 0.5
163 12.8202 8.27264 12.2875 0.5
164 8.38124 2.76731 1.21957 0.5
165 8.12473 11.3076 10.211 0.5
166 12.5044 13.4664 5.66148 0.5
167 11.8597 6.80408 8.78026 0.5
168 2.05162 4.43948 7.4649 0.5
169 13.3675 12.0603 12.2569 0.5
170 4.9575 6.22484 0.639467 0.5
171 10.8031 5.53407 1.36169 0.5
172 9.60423 7.34117 9.09516 0.5
173 8.93226 10.2659 3.58448 0.5
174 4.26388 0.249162 0.349276 0.5
175 3.08999 6.23785 2.29108 0.5
176 3.98651 4.85923 2.88709 0.5
177 9.35248 4.11917 6.73354 0.5
178 5.31134 2.18843 4.17718 0.5
179 13.2577 7.55133 2.19592 0.5
180 9.1733 2.09039 1.15052 0.5
181 9.96299 12.4599 9.43817 0.5
182 3.68189 10.7886 0.62088 0.5
183 8.57554 7.59822 6.15651 0.5
184 10.0011 4.20905 10.804 0.5
185 7.91948 2.7198 11.4728 0.5
186 4.43832 8.99402 2.63396 0.5
187 5.29787 12.4105 12.0455 0.5
188 5.53617 5.98795 7.2991 0.5
189 1.07565 10.2291 6.04603 0.5
190 8.79549 0.146048 2.76358 0.5
191 8.87385 6.12649 4.78255 0.5
192 10.8232 1.67838 0.452759 0.5
193 11.5727 1.11759 10.3426 0.5
194 9.76904 2.39733 11.9035 0.5
195 12.8126 10.0709 10.6194 0.5
196 8.94449 0.538681 5.08432 0.5
197 3.3527 6.81777 8.43069 0.5
198 7.40482 5.64014 12.7454 0.5
199 11.5407 3.80557 8.9085 0.5
200 6.34136 7.48302 3.1716 0.5
201 0.314367 4.42618 9.23639 0.5
202 6.57252 0.58008 8.93519 0.5
203 1.78344 3.54323 1.5708 0.5
204 0.765271 7.7763 9.90226 0.5
205 13.4929 12.0348 3.07446 0.5
206 13.2185 1.8196 8.67878 0.5
207 6.22974 1.43994 10.1516 0.5
208 8.49023 5.39291 8.6634 0.5
209 3.77922 2.53099 4.6575 0.5
210 3.7607 6.97631 4.96344 0.5
211 4.35939 3.831 10.3333 0.5
212 3.89542 5.57046 3.61585 0.5
213 2.18614 1.553 4.73441 0.5
214 9.04795 4.02821 12.5125 0.5
215 6.17269 7.01972 2.28338 0.5
216 6.49297 9.06017 13.4365 0.5
217 3.20105 10.9151 4.90048 0.5
218 6.03129 8.14148 4.33471 0.5
219 7.28228 1.40709 2.83273 0.5
220 7.03388 13.522 9.52808 0.5
221 2.38122 3.6275 7.76774 0.5
222 7.94208 12.1586 5.33577 0.5
223 3.8646 9.42117 1.91848 0.5
224 11.3422 6.455 3.08731 0.5
225 9.59569 10.7151 10.5678 0.5
226 11.6068 6.09779 13.5314 0.5
227 12.0027 8.60396 9.52603 0.5
228 2.74868 11.7826 5.33731 0.5
229 5.76988 4.95812 6.01962 0.5
230 6.35459 8.51903 9.45514 0.5
231 6.98166 5.95555 10.1893 0.5
232 7.2255 5.74833 0.107882 0.5
233 13.4095 0.753503 8.52936 0.5
234 11.746 2.48875 4.53045 0.5
235 1.20704 10.1127 3.62794 0.5
236 10.6669 5.58623 0.380193 0.5
237 4.65188 9.57583 5.43937 0.5
238 13.4111 11.922 5.90546 0.5
239 9.35434 7.06367 4.56202 0.5
240 2.7776 4.132 11.0083 0.5
241 4.53801 5.43576 0.177502 0.5
242 3.99979 1.03736 2.20528 0.5
243 1.09594 9.09273 3.20835 0.5
244 3.1024 0.028654 5.79507 0.5
245 2.32221 11.356 11.0581 0.5
246 9.12968 10.6559 8.83909 0.5
247 3.37069 13.4686 9.80023 0.5
248 7.46233 2.00319 0.881192 0.5
249 10.7203 1.68731 1.47374 0.5
250 9.88643 1.48404 0.942414 0.5
251 3.40524 8.49711 10.337 0.5
252 8.80738 7.77359 3.09659 0.5
253 1.79212 8.934 0.699043 0.5
254 10.1662 4.11945 3.16302 0.5
255 8.29632 9.86174 1.38462 0.5
256 0.892806 12.1066 3.35508 0.5
257 1.13643 4.32869 7.91192 0.5
258 1.78776 6.8119 7.14006 0.5
259 3.98961 4.44189 9.25838 0.5
260 6.4269 11.111 9.83337 0.5
261 11.8423 4.70188 6.5554 0.5
262 7.34883 11.3273 5.57037 0.5
263 3.9288 4.7598 7.25002 0.5
264 11.007 10.9962 8.11465 0.5
265 0.900545 4.87139 3.72808 0.5
266 3.51456 13.2467 7.73226 0.5
267 4.6158 7.32003 9.74825 0.5
268 7.15764 1.0432 0.917264 0.5
269 8.38295 0.732892 7.12884 0.5
270 6.19774 11.3299 7.93414 0.5
271 12.0934 12.6753 3.79235 0.5
272 5.94039 9.88854 0.170289 0.5
273 8.2776 3.27834 4.00269 0.5
274 10.1228 3.85548 9.84419 0.5
275 3.02765 12.1866 1.43625 0.5
276 5.19927 0.621828 12.2759 0.5
277 8.04968 5.22996 13.4553 0.5
278 11.2869 10.5794 13.2488 0.5
279 9.80058 11.6152 6.58732 0.5
280 5.51303 10.7524 0.698587 0.5
281 8.58426 2.41853 9.74743 0.5
282 0.909464 11.4174 0.157544 0.5
283 4.45545 4.76878 2.01191 0.5
284 1.9587 11.2222 0.369714 0.5
285 1.87821 9.78873 6.61566 0.5
286 2.56225 1.77646 12.8788 0.5
287 7.93186 7.81387 7.03855 0.5
288 6.47056 0.437795 6.5883 0.5
289 1.70639 9.79038 2.81219 0.5
290 0.415025 12.6333 5.53398 0.5
291 4.64303 0.499565 4.83479 0.5
292 4.98111 3.8489 12.9737 0.5
293 10.5066 5.39782 4.58273 0.5
294 0.814316 9.49767 6.66314 0.5
295 2.76507 1.87825 6.78313 0.5
296 0.430255 3.54866 7.95736 0.5
297 12.018 12.3921 12.8902 0.5
298 9.99799 4.82358 0.0974873 0.5
299 2.41035 0.941331 12.2492 0.5
300 7.19142 5.62938 2.43249 0.5
301 6.24984 6.86066 12.6125 0.5
302 3.65118 7.48824 3.86336 0.5
303 11.2786 7.30065 2.45272 0.5
304 1.26542 5.92932 6.07415 0.5
305 7.20099 13.3755 6.70439 0.5
306 11.2179 9.24427 12.4818 0.5
307 2.68945 7.26305 2.2697 0.5
308 1.00748 10.0297 11.0796 0.5
309 13.2516 0.266719 12.5223 0.5
310 8.30683 0.298182 4.33202 0.5
311 0.231162 5.64452 6.99011 0.5
312 7.41257 10.9077 9.62967 0.5
313 12.7582 10.9261 4.72762 0.5
314 5.6351 10.3475 11.1358 0.5
315 13.0007 5.73324 3.53579 0.5
316 9.33799 4.63952 8.5191 0.5
317 12.2132 7.93526 3.96053 0.5
318 13.0626 5.48573 7.60262 0.5
319 10.712 10.7607 0.528513 0.5
320 5.00308 3.01303 5.96882 0.5
321 1.43053 12.7071 2.7414 0.5
322 10.2299 12.5539 1.52128 0.5
323 4.90662 1.63325 2.15774 0.5
324 9.80895 3.25183 3.58478 0.5
325 2.51387 3.7163 12.4891 0.5
326 12.0795 12.6772 0.952602 0.5
327 8.96902 1.60906 7.32363 0.5
328 13.1689 6.90999 0.0136968 0.5
329 10.0037 2.79341 8.57208 0.5
330 9.90152 0.20767 6.03753 0.5
331 3.94222 3.55074 4.517 0.5
332 11.9839 2.62066 10.1105 0.5
333 12.2333 1.24419 5.11567 0.5
334 5.54892 5.69384 13.4897 0.5
335 9.09961 13.2501 4.6414 0.5
336 2.25102 1.04215 9.18559 0.5
337 11.6837 1.83625 9.57063 0.5
338 8.64851 3.46324 9.45899 0.5
339 8.52489 4.73894 2.0014 0.5
340 12.8734 2.21525 0.114243 0.5
341 9.32444 0.617783 10.0727 0.5
342 5.6846 13.2661 4.75284 0.5
343 6.81566 3.88488 9.84842 0.5
344 4.24921 8.71937 5.82156 0.5
345 8.62538 7.91711 5.17381 0.5
346 2.09881 6.40761 5.04385 0.5
347 0.74871 11.6928 12.7415 0.5
348 1.69968 3.41797 0.205127 0.5
349 8.78626 7.24107 7.14637 0.5
350 8.18521 7.20482 12.7691 0.5
351 1.6513 9.17109 11.2117 0.5
352 7.70293 12.7102 8.05481 0.5
353 6.94837 6.52856 2.02685 0.5
354 1.39279 2.83596 4.97556 0.5
355 1.1871 6.90939 2.3814 0.5
356 12.5532 12.4174 2.90517 0.5
357 4.93233 12.1902 3.69338 0.5
358 4.09332 13.3468 10.436 0.5
359 6.73909 10.2943 9.29048 0.5
360 0.00997789 4.72917 7.13075 0.5
361 4.6069 1.84439 8.43358 0.5
362 0.219485 2.07123 9.5452 0.5
363 11.1728 12.356 1.1809 0.5
364 4.70556 7.67789 1.1155 0.5
365 3.16615 9.26118 13.4792 0.5
366 5.27374 9.82098 8.21098 0.5
367 11.5504 12.1988 0.261041 0.5
368 4.77991 4.85428 8.62376 0.5
369 1.48183 3.33675 4.00321 0.5
370 11.8689 10.7539 5.94301 0.5
371 8.5712 0.880379 3.55953 0.5
372 0.119746 5.86094 4.2621 0.5
373 5.69961 2.79777 11.8655 0.5
374 0.182923 8.09041 12.1086 0.5
375 0.60276 9.2071 8.75792 0.5
376 2.61032 9.63105 2.48484 0.5
377 6.64086 5.50886 4.79749 0.5
378 6.11759 9.05429 12.5118 0.5
379 6.36234 5.28146 0.305034 0.5
380 6.6516 3.8962 0.64538 0.5
381 10.4653 3.38915 7.88972 0.5
382 9.16439 0.353141 6.70163 0.5
383 0.831745 5.13957 1.00402 0.5
384 5.6279 10.3106 12.1613 0.5
385 0.670573 10.3827 0.0512775 0.5
386 0.432981 4.90544 4.74144 0.5
387 1.3004 5.33191 11.6827 0.5
388 13.3407 1.78817 10.3786 0.5
389 3.02792 9.35543 9.98013 0.5
390 4.69031 3.78348 8.6949 0.5
391 7.96176 13.451 1.67343 0.5
392 0.960926 6.87227 3.42227 0.5
393 4.62472 5.42648 7.66602 0.5
394 9.52391 9.86064 8.28585 0.5
395 1.27007 1.05125 7.46016 0.5
396 13.4856 1.79029 3.84211 0.5
397 7.19563 0.111727 1.07922 0.5
398 7.34313 11.0035 3.75885 0.5
399 13.315 4.94378 4.07143 0.5
400 6.98962 8.47211 5.57722 0.5
401 9.77663 2.03044 1.8688 0.5
402 4.09521 7.83006 5.27888 0.5
403 5.73394 12.3065 6.5708 0.5
404 10.6447 11.1812 11.4183 0.5
405 13.1589 5.61483 0.789011 0.5
406 7.3896 0.375271 0.106942 0.5
407 1.6716 10.7782 3.11534 0.5
408 1.70018 4.33697 4.14388 0.5
409 3.38625 4.20011 10.1562 0.5
410 10.4047 1.3546 3.66488 0.5
411 4.03506 5.59717 12.8989 0.5
412 5.02461 13.0126 12.7643 0.5
413 2.56497 7.0179 9.67166 0.5
414 2.52579 8.76491 10.7858 0.5
415 7.39223 9.92047 11.11 0.5
416 8.40264 10.5593 6.08453 0.5
417 1.12929 13.2618 7.93387 0.5
418 7.89399 1.28937 10.7894 0.5
419 2.65924 13.3108 11.6383 0.5
420 4.09171 1.52265 7.61118 0.5
421 0.362665 6.98427 10.9068 0.5
422 8.37509 4.28039 6.87726 0.5
423 13.2513 12.4991 2.21928 0.5
424 2.11989 3.5295 4.6883 0.5
425 7.16778 7.46449 12.5544 0.5
426 2.31241 11.2017 6.07672 0.5
427 6.80602 1.65668 0.189091 0.5
428 12.8383 8.33205 9.09142 0.5
429 8.3821 4.3519 9.03301 0.5
430 7.84619 2.19394 12.295 0.5
431 3.81353 5.35345 8.1311 0.5
432 0.827486 2.06242 2.85783 0.5
433 8.86111 11.5857 13.2098 0.5
434 12.858 2.70182 0.946249 0.5
435 10.6947 8.74335 13.1302 0.5
436 6.24609 3.56307 9.03538 0.5
437 3.35935 9.03849 6.86212 0.5
438 5.36534 3.31713 6.85213 0.5
439 10.6363 11.7488 10.6016 0.5
440 9.29546 11.1265 5.84403 0.5
441 5.62688 12.9139 3.79127 0.5
442 1.45278 6.84971 4.39003 0.5
443 1.53292 12.1724 0.544906 0.5
444 9.4069 7.73363 1.2096 0.5
445 4.44948 9.23779 3.63922 0.5
446 3.80172 6.26531 4.25189 0.5
447 0.763433 8.55137 6.36319 0.5
448 5.51926 10.7 13.2442 0.5
449 3.7056 13.5421 11.5699 0.5
450 3.58294 3.41166 1.93501 0.5
451 7.05653 3.03922 0.861304 0.5
452 2.85875 9.02999 0.85404 0.5
453 4.84444 9.7101 4.43824 0.5
454 3.16271 0.651335 2.7162 0.5
455 1.81733 2.24923 10.3138 0.5
456 7.72613 0.65119 6.33818 0.5
457 10.8425 12.8767 8.13641 0.5
458 4.05323 0.569012 9.72268 0.5
459 12.8291 4.45281 6.44975 0.5
460 2.25234 6.50334 13.1825 0.5
461 10.3556 8.54359 10.2031 0.5
462 10.9084 4.28617 8.25041 0.5
463 6.32938 3.35159 6.5128 0.5
464 9.91928 8.63716 11.6518 0.5
465 4.7956 10.0931 11.595 0.5
466 3.38615 1.06601 7.01298 0.5
467 1.16921 8.23693 0.313306 0.5
468 11.8351 10.1288 10.1612 0.5
469 2.68179 2.73586 10.699 0.5
470 3.41031 4.91991 10.8444 0.5
471 4.28456 13.1609 9.47114 0.5
472 10.8941 6.31539 4.35329 0.5
473 10.249 7.89803 7.60438 0.5
474 1.55397 7.74204 9.00597 0.5
475 5.99322 4.33313 5.25445 0.5
476 7.1106 2.12605 11.6433 0.5
477 5.25599 7.5432 9.04717 0.5
478 3.1655 10.4621 1.57304 0.5
479 7.80803 7.96015 3.11454 0.5
480 3.03348 11.4138 7.66435 0.5
481 1.48082 4.52938 1.5225 0.5
482 13.4723 0.196053 0.82945 0.5
483 7.36532 9.98983 3.62883 0.5
484 9.88725 6.2112 4.67177 0.5
485 3.76938 5.1557 0.78289 0.5
486 3.52941 10.593 8.24856 0.5
487 4.62324 2.35104 9.46607 0.5
488 6.5554 4.22248 6.17243 0.5
489 4.1484 0.371754 2.87838 0.5
490 1.75578 11.8986 6.36572 0.5
491 3.06337 8.00977 12.206 0.5
492 2.06999 4.2695 11.7817 0.5
493 9.55401 8.14429 9.76863 0.5
494 7.48351 4.52974 0.558167 0.5
495 6.89729 8.77382 0.830575 0.5
496 6.64893 12.4348 13.5596 0.5
497 5.99654 6.82067 7.58803 0.5
498 3.53715 12.334 5.11389 0.5
499 7.3107 3.07115 10.2615 0.5
500 12.7769 7.60962 5.8707 0.5
501 4.59652 2.00186 4.80777 0.5
502 8.38173 8.66328 8.94889 0.5
503 8.17953 6.10348 0.295198 0.5
504 3.07939 0.898877 13.0686 0.5
505 4.76066 3.1631 12.2715 0.5
506 4.66329 11.4127 0.861734 0.5
507 7.61619 2.51183 3.9533 0.5
508 0.186114 1.78686 6.24259 0.5
509 5.16765 5.27763 6.74119 0.5
510 9.69122 9.72972 10.3946 0.5
511 5.08846 13.4138 5.51574 0.5
512 7.59071 10.3411 4.50075 0.5
513 6.97909 2.39517 3.10905 0.5
514 5.92503 9.05862 0.721698 0.5
515 0.345889 9.72604 3.14917 0.5
516 4.03294 9.86666 2.91153 0.5
517 12.7036 4.13125 4.20643 0.5
518 2.12647 7.98189 8.17049 0.5
519 3.62997 6.84716 9.4799 0.5
520 1.83275 0.895485 0.632444 0.5
521 10.9635 5.16916 5.51013 0.5
522 3.1512 11.7261 11.4832 0.5
523 12.8976 8.95821 4.59911 0.5
524 13.1847 2.20664 5.56226 0.5
525 11.6839 8.99829 13.297 0.5
526 8.47956 12.1043 8.05957 0.5
527 10.3261 11.1462 1.40624 0.5
528 1.08645 1.24428 0.106813 0.5
529 13.0193 0.434209 13.5067 0.5
530 11.1907 5.26886 11.7263 0.5
531 9.5052 8.77953 10.6532 0.5
532 5.39561 8.91989 4.02629 0.5
533 5.46921 6.58244 10.6865 0.5
534 1.93984 11.5027 10.0321 0.5
535 9.68843 13.2083 12.7328 0.5
536 1.85337 12.444 3.6033 0.5
537 2.19587 11.3058 7.13782 0.5
538 7.94289 9.20724 2.14123 0.5
539 2.17201 7.86684 2.93935 0.5
540 2.38912 5.23212 8.08128 0.5
541 3.40849 11.0763 12.3636 0.5
542 10.4379 12.9457 12.1977 0.5
543 0.30515 5.80762 8.047 0.5
544 9.7522 1.78346 8.74742 0.5
545 2.08288 6.48414 2.00351 0.5
546 1.39511 0.812545 12.2286 0.5
547 9.54982 5.89815 6.87231 0.5
548 11.0039 0.647276 7.13003 0.5
549 12.0927 12.3887 7.58089 0.5
550 13.4601 11.6539 1.55475 0.5
551 6.46288 1.74302 1.13613 0.5
552 3.45439 5.85287 0.134109 0.5
553 10.5641 4.51536 11.577 0.5
554 2.79255 13.5267 4.84272 0.5
555 13.2053 4.31619 4.98241 0.5
556 8.42857 12.9716 11.4992 0.5
557 9.71091 10.7472 0.737298 0.5
558 3.6532 2.29489 9.73809 0.5
559 3.75143 12.2861 7.73381 0.5
560 6.97148 2.8263 8.63269 0.5
561 8.90512 9.78372 12.2965 0.5
562 12.2999 3.37177 0.400294 0.5
563 9.14666 5.55799 7.88239 0.5
564 8.45376 4.3586 0.215001 0.5
565 9.01277 5.00819 7.02645 0.5
566 6.82451 1.33302 10.942 0.5
567 11.1001 4.45027 4.73829 0.5
568 6.71847 2.28098 10.6799 0.5
569 10.7179 6.82771 11.5697 0.5
570 11.4289 8.28282 2.76982 0.5
571 3.65988 0.819309 3.59261 0.5
572 4.35604 3.41951 1.24451 0.5
573 0.546854 0.830215 4.71188 0.5
574 9.12743 8.68277 3.47342 0.5
575 8.85565 0.160554 1.79622 0.5
576 3.91738 10.8154 7.3338 0.5
577 3.72315 8.49255 2.24623 0.5
578 2.55998 12.12 0.538963 0.5
579 0.733279 8.68462 11.4965 0.5
580 3.04706 6.03924 7.84175 0.5
581 1.901 0.222693 7.67221 0.5
582 2.50169 12.3623 11.196 0.5
583 3.00132 11.3256 2.00534 0.5
584 10.6489 6.14559 5.32942 0.5
585 0.228838 4.86468 8.18353 0.5
586 0.133489 6.06016 10.6407 0.5
587 1.7855 2.50202 1.55304 0.5
588 0.359225 0.813228 12.0101 0.5
589 1.35622 9.72021 9.1005 0.5
590 3.81562 9.7767 8.80308 0.5
591 4.19664 2.78913 10.3615 0.5
592 11.3998 12.1208 9.90643 0.5
593 7.16387 8.34863 6.58609 0.5
594 0.098277 10.1069 5.67018 0.5
595 10.6065 10.8192 4.81709 0.5
596 10.182 10.2963 3.28336 0.5
597 4.57297 11.7657 7.28414 0.5
598 8.21593 11.6169 3.85797 0.5
599 10.9762 12.5248 9.05395 0.5
600 13.2549 5.87587 13.3778 0.5
601 3.95699 5.80802 2.51518 0.5
602 13.1956 6.03387 9.76361 0.5
603 3.1441 8.14454 11.1878 0.5
604 4.72835 1.43624 11.9134 0.5
605 7.72505 3.6264 10.964 0.5
606 13.2965 7.02029 4.42213 0.5
607 9.24594 8.8987 8.5071 0.5
608 7.41167 11.8206 11.3489 0.5
609 2.06011 12.6719 13.3994 0.5
610 1.73518 7.41694 9.94186 0.5
611 0.261466 8.412 9.3762 0.5
612 6.73868 12.1676 2.71359 0.5
613 3.10428 6.14294 4.96045 0.5
614 3.70655 12.5078 9.93529 0.5
615 2.77521 11.2741 8.64347 0.5
616 1.13483 7.59681 1.67906 0.5
617 5.81509 4.45825 3.30785 0.5
618 11.3452 7.50129 8.31811 0.5
619 11.0103 4.39697 2.73705 0.5
620 1.91981 10.4614 11.4361 0.5
621 1.25384 4.01344 3.26796 0.5
622 4.64866 9.16109 8.80123 0.5
623 13.2081 7.98699 4.1399 0.5
624 0.346385 6.9535 1.78322 0.5
625 2.79751 1.88699 10.1811 0.5
626 2.10798 4.1166 0.811455 0.5
627 11.2336 4.81437 0.751411 0.5
628 11.477 4.30841 11.605 0.5
629 7.44058 3.30806 3.4044 0.5
630 2.40036 3.15279 0.891596 0.5
631 10.6902 1.56312 13.0109 0.5
632 7.44994 12.164 12.3249 0.5
633 10.6991 0.852808 1.00395 0.5
634 9.74326 11.72 10.1285 0.5
635 9.96918 1.92946 0.0637656 0.5
636 9.23722 3.16196 0.886505 0.5
637 11.3298 12.0325 8.21383 0.5
638 6.46801 13.1986 5.37917 0.5
639 7.86485 7.37183 11.8033 0.5
640 3.24433 4.94748 6.53509 0.5
641 8.3179 8.91852 5.23454 0.5
642 12.201 5.23129 0.685386 0.5
643 12.4094 4.30223 9.01133 0.5
644 7.40799 3.76626 8.95982 0.5
645 0.367728 11.0655 5.95058 0.5
646 9.41816 9.57974 13.0546 0.5
647 7.61167 6.55921 12.2654 0.5
648 7.57414 8.95905 12.9878 0.5
649 5.86542 6.62909 11.7192 0.5
650 2.13762 1.78357 8.47436 0.5
651 13.4943 6.51534 7.397 0.5
652 4.74781 4.21142 6.72457 0.5
653 3.04971 5.47673 12.8279 0.5
654 3.13535 10.4126 9.18331 0.5
655 10.3296 13.3152 8.9353 0.5
656 1.71027 11.7173 13.1461 0.5
657 9.76797 1.35128 7.82895 0.5
658 9.16121 9.95603 6.4424 0.5
659 0.248169 10.2671 4.03566 0.5
660 0.506123 0.525146 7.74617 0.5
661 1.64907 6.77019 9.21843 0.5
662 3.31705 9.96717 4.50805 0.5
663 6.35375 13.0538 3.02946 0.5
664 5.70962 5.98213 6.30628 0.5
665 9.41594 10.8397 2.90974 0.5
666 6.28544 12.0214 10.1989 0.5
667 8.70388 4.7541 9.95237 0.5
668 6.44983 3.21571 3.40135 0.5
669 7.14968 10.5241 2.06352 0.5
670 6.73699 12.5473 7.67402 0.5
671 6.61227 9.35423 1.5358 0.5
672 2.32536 2.51233 4.91351 0.5
673 5.57016 9.02843 13.3914 0.5
674 3.61731 8.36195 13.0747 0.5
675 2.46655 3.31089 11.5353 0.5
676 2.30619 0.96889 3.05925 0.5
677 2.85923 8.18526 3.62663 0.5
678 11.3298 8.63767 10.2289 0.5
679 12.9711 12.8304 4.25767 0.5
680 4.91613 12.3748 1.12446 0.5
681 3.24468 1.24129 9.47997 0.5
682 0.135796 2.44797 11.188 0.5
683 2.60287 7.15442 0.304131 0.5
684 12.7741 11.5917 2.35724 0.5
685 13.1538 9.96688 2.36006 0.5
686 10.8857 7.80592 10.6539 0.5
687 5.16378 9.45199 12.4698 0.5
688 1.16873 6.1477 5.10431 0.5
689 3.40097 3.3139 0.953239 0.5
690 4.31766 8.55043 6.74079 0.5
691 13.5434 10.4925 11.233 0.5
692 4.72406 12.9474 0.233164 0.5
693 11.6011 6.98588 12.9248 0.5
694 5.48732 8.4792 8.78656 0.5
695 11.2493 8.06479 1.78189 0.5
696 10.6999 4.42292 9.24229 0.5
697 0.129129 9.78276 8.10094 0.5
698 6.87444 9.25361 6.22017 0.5
699 3.14377 9.93174 0.692131 0.5
700 11.3369 8.562 3.77554 0.5
701 9.06308 7.97676 2.11179 0.5
702 4.28194 1.5069 9.33841 0.5
703 3.39837 4.14435 12.645 0.5
704 9.33845 2.27882 7.91729 0.5
705 11.084 9.46152 7.37896 0.5
706 6.73041 11.071 6.33287 0.5
707 4.57387 6.30513 7.25765 0.5
708 1.62419 1.8195 2.25155 0.5
709 10.3028 0.936651 0.135031 0.5
710 5.71818 5.68734 4.38437 0.5
711 0.665516 0.510071 12.9778 0.5
712 12.7045 2.04092 9.56344 0.5
713 8.46013 10.0709 8.33404 0.5
714 13.2324 4.02552 8.50408 0.5
715 10.572 8.55682 3.23845 0.5
716 1.11797 2.70186 10.9407 0.5
717 4.51193 8.60597 1.65683 0.5
718 12.461 3.42186 8.64171 0.5
719 4.06142 10.1495 10.8299 0.5
720 0.210993 10.874 0.973745 0.5
721 9.27446 5.00289 10.7397 0.5
722 5.64985 13.2967 11.9618 0.5
723 3.891 9.01145 9.47192 0.5
724 8.58076 13.5693 9.75993 0.5
725 3.06347 2.56587 3.20942 0.5
726 6.99126 2.06255 7.0336 0.5
727 5.70649 3.17671 12.761 0.5
728 12.5206 3.62887 5.03184 0.5
729 9.86251 5.63531 1.75004 0.5
730 8.48785 4.68157 7.91388 0.5
731 11.9777 0.426229 13.4417 0.5
732 2.22226 3.71925 6.74453 0.5
733 9.37956 11.669 0.473987 0.5
734 10.2858 11.1627 5.77113 0.5
735 2.10556 5.1795 9.0326 0.5
736 4.22269 4.41325 11.1601 0.5
737 5.93996 2.54968 2.79876 0.5
738 3.34499 6.52297 11.8621 0.5
739 5.77145 0.768377 8.33727 0.5
740 11.9315 2.61657 9.15321 0.5
741 9.02192 2.59027 3.71802 0.5
742 5.00029 8.59491 0.663673 0.5
743 8.38998 6.98367 4.76948 0.5
744 5.45591 3.77584 12.071 0.5
745 8.80607 6.78563 13.4613 0.5
746 4.71246 8.27216 9.42575 0.5
747 0.643372 0.252344 10.2655 0.5
748 6.09896 10.8764 8.8672 0.5
749 4.1296 10.2388 3.82397 0.5
750 1.99045 1.04594 13.1684 0.5
751 0.950438 7.53028 12.4518 0.5
752 2.62812 1.45948 0.213666 0.5
753 6.28567 1.65075 12.8998 0.5
754 1.96179 0.408347 11.4915 0.5
755 7.1221 2.29423 13.0036 0.5
756 7.2517 7.84724 0.960892 0.5
757 13.4041 6.53381 12.6453 0.5
758 4.41086 12.2161 5.5739 0.5
759 10.9571 7.14386 1.51213 0.5
760 7.24517 4.87388 4.21478 0.5
761 3.71756 11.3964 1.40817 0.5
762 12.5354 1.77285 0.947781 0.5
763 12.7733 13.332 3.39681 0.5
764 10.328 9.35946 3.70969 0.5
765 12.5653 2.25273 1.83142 0.5
766 9.64095 4.27681 5.77813 0.5
767 4.77895 7.20546 0.214356 0.5
768 13.3746 13.21 10.1907 0.5
769 10.6263 3.10893 5.44927 0.5
770 11.4071 8.28449 6.15117 0.5
771 7.98172 6.86114 6.66955 0.5
772 0.970316 2.78944 9.91587 0.5
773 10.0822 3.86081 8.71402 0.5
774 7.61357 1.10311 3.7694 0.5
775 10.6216 1.67199 11.9376 0.5
776 1.61097 8.90538 6.84244 0.5
777 12.3161 10.5949 2.40479 0.5
778 13.0043 10.7826 1.70856 0.5
779 7.75664 8.18293 4.92379 0.5
780 3.7296 11.6005 8.48061 0.5
781 0.815381 2.46996 6.71033 0.5
782 9.99759 2.34663 4.06602 0.5
783 0.193798 9.53983 11.5454 0.5
784 2.4272 2.8962 3.89637 0.5
785 10.5795 10.16 5.86399 0.5
786 8.43502 4.98897 6.22673 0.5
787 5.68445 12.3232 2.99721 0.5
788 10.2056 7.03358 10.73 0.5
789 10.5642 2.66068 1.8606 0.5
790 7.91259 0.665946 2.85352 0.5
791 6.70438 6.05756 12.108 0.5
792 6.98753 2.63352 6.28058 0.5
793 6.8461 8.71974 4.58592 0.5
794 13.483 13.3784 1.78427 0.5
795 10.3399 8.87474 5.20024 0.5
796 2.44097 9.36625 7.28086 0.5
797 4.37645 3.4167 11.2613 0.5
798 1.76054 4.85931 3.3059 0.5
799 13.394 2.75836 6.32882 0.5
800 1.63595 8.02822 12.9912 0.5
801 6.28891 5.33563 2.87339 0.5
802 3.99955 10.9167 11.4638 0.5
803 11.4091 12.2362 11.0634 0.5
804 13.2445 7.66917 9.74851 0.5
805 8.6548 6.78052 3.1406 0.5
806 2.44015 7.25174 8.71413 0.5
807 3.75217 5.72367 7.18585 0.5
808 1.93444 8.66543 3.53499 0.5
809 9.89346 4.02794 12.9427 0.5
810 2.20748 13.2887 10.745 0.5
811 9.20887 6.2719 3.84089 0.5
812 2.40804 8.53649 11.6592 0.5
813 8.23492 6.10178 12.8816 0.5
814 9.97551 13.0962 4.1558 0.5
815 9.75959 0.904695 9.227 0.5
816 7.77016 6.51722 2.58975 0.5
817 9.76315 11.3505 4.95489 0.5
818 3.90667 11.524 2.42613 0.5
819 4.04031 1.15013 6.28318 0.5
820 0.745563 12.838 8.78448 0.5
821 10.7794 2.77662 4.44572 0.5
822 9.88534 0.182251 5.0348 0.5
823 9.66112 1.37857 11.7162 0.5
824 1.05728 8.52171 5.40344 0.5
825 9.30238 12.5194 1.01913 0.5
826 5.13907 0.509476 7.59194 0.5
827 11.3095 0.901878 1.94478 0.5
828 5.50389 3.47369 3.01321 0.5
829 4.88344 2.87789 8.35166 0.5
830 5.05567 12.4366 9.21854 0.5
831 10.7695 1.35948 7.82521 0.5
832 0.081656 5.18866 10.0422 0.5
833 1.46335 10.9373 10.7284 0.5
834 9.27003 1.10393 1.57539 0.5
835 2.47906 4.68022 12.5962 0.5
836 7.82149 9.84625 12.6707 0.5
837 6.51871 3.14397 13.4696 0.5
838 0.667185 13.0124 10.7359 0.5
839 5.46136 5.39818 0.782154 0.5
840 7.7523 13.13 12.2169 0.5
841 5.85156 9.44005 6.33136 0.5
842 12.1949 4.95792 11.4627 0.5
843 12.0414 4.17477 0.957975 0.5
844 4.57669 4.69895 12.9613 0.5
845 11.3233 4.77919 7.44734 0.5
846 5.63152 11.6083 9.52813 0.5
847 4.79444 7.88546 6.04764 0.5
848 5.16623 6.97104 12.4506 0.5
849 0.791157 11.9314 6.20979 0.5
850 10.5531 12.1889 11.5714 0.5
851 6.44557 9.86963 7.00568 0.5
852 6.02298 10.3406 7.82581 0.5
853 4.21951 6.5297 10.3636 0.5
854 10.1656 5.88796 3.76045 0.5
855 9.83985 11.7276 3.13909 0.5
856 2.52523 0.00449263 3.1954 0.5
857 8.31972 4.4445 10.8259 0.5
858 7.3146 8.65933 9.2219 0.5
859 10.9788 5.12593 6.52467 0.5
860 9.90906 4.98181 6.56857 0.5
861 11.6896 12.9411 6.04241 0.5
862 9.79891 6.47744 11.4524 0.5
863 7.09914 6.30161 5.15982 0.5
864 7.93324 6.93106 7.65475 0.5
865 12.9583 4.67735 2.51986 0.5
866 6.49274 11.9336 1.71022 0.5
867 12.0473 4.47838 2.85432 0.5
868 9.99086 8.2627 8.83049 0.5
869 3.61373 1.45897 0.726056 0.5
870 5.10864 8.01373 7.13191 0.5
871 12.8431 6.72801 5.26733 0.5
872 1.40453 4.72188 12.4 0.5
873 12.6696 1.5971 2.63179 0.5
874 9.5108 7.49729 0.218367 0.5
875 6.33827 11.5301 5.48643 0.5
876 2.56485 7.08362 7.75973 0.5
877 11.7297 9.05002 6.71704 0.5
878 2.78567 11.2954 1.03899 0.5
879 2.92482 4.05323 6.16456 0.5
880 12.195 1.23572 1.75037 0.5
881 11.0414 11.0002 12.4053 0.5
882 12.2286 9.74676 4.42397 0.5
883 11.142 0.863593 3.07218 0.5
884 12.1515 3.19607 1.36694 0.5
885 7.7352 10.9145 11.0396 0.5
886 2.0419 4.34256 8.40205 0.5
887 0.624636 1.45264 12.7821 0.5
888 4.92108 4.32761 2.76594 0.5
889 9.94653 4.79782 10.0188 0.5
890 12.1007 6.87994 6.07002 0.5
891 3.16789 5.40107 2.82629 0.5
892 8.9609 1.12835 10.8801 0.5
893 9.32585 4.21459 9.39278 0.5
894 7.1728 7.37848 2.59541 0.5
895 12.3484 9.3542 0.413102 0.5
896 7.11111 11.6405 13.1275 0.5
897 6.48277 12.3142 3.67243 0.5
898 6.09446 12.7124 2.12741 0.5
899 9.18033 4.34699 11.5247 0.5
900 11.3205 13.4782 8.83704 0.5
901 0.505731 5.17496 11.0989 0.5
902 11.3769 5.91365 8.9288 0.5
903 7.61554 5.39189 5.01398 0.5
904 9.05036 2.23033 4.63274 0.5
905 0.944197 6.34089 7.39091 0.5
906 0.00502878 6.56895 3.52609 0.5
907 6.78826 3.62797 8.15976 0.5
908 9.51707 12.9479 5.53555 0.5
909 9.93126 2.85213 2.53581 0.5
910 9.4023 2.29173 6.87281 0.5
911 6.49969 5.90264 13.105 0.5
912 7.02088 8.48471 12.2897 0.5
913 12.3669 5.402 13.2688 0.5
914 4.44883 1.32406 1.36725 0.5
915 8.26897 4.07998 5.84169 0.5
916 12.3833 8.51941 6.24618 0.5
917 12.5037 0.028644 11.7093 0.5
918 8.44358 6.26515 9.2434 0.5
919 0.239762 11.2057 11.9253 0.5
920 0.35296 12.0483 9.13586 0.5
921 6.4467 6.3395 6.86388 0.5
922 13.4734 3.62132 12.7222 0.5
923 0.506336 3.64874 10.1416 0.5
924 9.52026 13.4718 9.50865 0.5
925 8.70208 3.71752 1.53545 0.5
926 4.73749 10.4507 12.5985 0.5
927 1.9504 7.71703 3.99802 0.5
928 0.645406 7.25519 7.20873 0.5
929 0.811461 1.9511 10.3784 0.5
930 9.66403 11.4803 9.10097 0.5
931 5.6286 9.4671 11.6022 0.5
932 3.86856 8.4139 3.29725 0.5
933 0.992433 12.3987 13.3705 0.5
934 4.83741 9.31138 6.40571 0.5