ITEM: TIMESTEP
820000
ITEM: NUMBER OF ATOMS
1000
ITEM: BOX BOUNDS xy xz yz pp pp pp
0.0000000000000000e+00 1.3572088000000001e+01 0.0000000000000000e+00
0.0000000000000000e+00 1.3572088000000001e+01 0.0000000000000000e+00
0.0000000000000000e+00 1.3572088000000001e+01 0.0000000000000000e+00
ITEM: ATOMS id x y z radius
1 4.56421 3.13345 12.4869 0.5
2 4.62597 11.9343 4.35401 0.5
3 9.2461 10.2306 3.01758 0.5
4 10.1175 6.13863 1.4253 0.5
5 9.12846 7.36474 9.57808 0.5
6 3.73548 12.8284 5.79824 0.5
7 3.19256 8.38899 1.20579 0.5
8 12.4622 12.4091 2.28947 0.5
9 1.76798 8.62779 6.53281 0.5
10 3.33769 13.3947 11.3075 0.5
11 0.286729 8.85672 9.50149 0.5
12 10.3169 6.07622 0.376481 0.5
13 7.95689 11.7931 4.54637 0.5
14 10.3502 2.49768 4.1775 0.5
15 6.1301 0.656889 4.90554 0.5
16 7.08051 6.35065 9.20216 0.5
17 6.70805 11.8767 10.6637 0.5
18 2.77493 8.59067 6.1031 0.5
19 10.3185 5.16525 1.7625 0.5
20 10.6297 12.0523 3.19448 0.5
21 2.04456 4.82269 1.09995 0.5
22 1.47233 6.3632 12.3548 0.5
23 1.7834 1.72325 9.90422 0.5
24 7.70908 7.38017 1.7808 0.5
25 0.759081 6.26053 3.32826 0.5
26 10.6386 10.4492 5.83402 0.5
27 11.388 5.78974 11.1787 0.5
28 5.1517 11.3187 11.3154 0.5
29 12.7136 5.51396 1.35204 0.5
30 8.64603 10.7698 1.50394 0.5
31 1.49266 -0.0118868 8.10749 0.5
32 9.06739 3.05312 12.6927 0.5
33 13.4459 5.89221 9.41722 0.5
34 3.71772 8.85724 5.63644 0.5
35 12.2923 6.45872 0.122574 0.5
36 8.44003 2.07804 4.92357 0.5
37 13.5412 1.36371 2.52578 0.5
38 2.16543 1.59037 2.13168 0.5
39 10.0165 4.30528 1.26727 0.5
40 6.02121 6.35654 5.97325 0.5
41 7.35726 11.2036 5.03557 0.5
42 7.07812 5.49152 3.29287 0.5
43 5.33846 4.94884 10.5239 0.5
44 4.45662 10.5558 8.47401 0.5
45 7.44881 6.39395 1.83993 0.5
46 10.4491 10.9303 0.0127197 0.5
47 2.87051 9.34672 5.45715 0.5
48 8.01326 10.3777 0.802045 0.5
49 6.20991 11.6778 9.77726 0.5
50 5.22592 0.766051 11.1221 0.5
51 13.4264 9.65989 7.60969 0.5
52 6.52033 10.4524 7.69711 0.5
53 9.18632 3.9642 1.72062 0.5
54 11.5331 11.9421 3.65907 0.5
55 0.0936823 0.343081 4.66955 0.5
56 13.0572 3.15723 3.97977 0.5
57 0.395216 10.8943 11.9216 0.5
58 5.64395 8.25299 10.7603 0.5
59 1.90233 10.8825 11.4159 0.5
60 6.42307 4.65606 9.25757 0.5
61 4.32742 0.177094 10.8687 0.5
62 0.797228 7.96203 0.610721 0.5
63 11.7381 8.97654 2.00624 0.5
64 11.7767 1.78352 9.45366 0.5
65 0.412058 1.80403 5.31583 0.5
66 12.1231 1.75191 1.72388 0.5
67 8.57256 2.33983 8.63269 0.5
68 2.72779 1.46643 3.07385 0.5
69 11.0867 2.28553 10.0122 0.5
70 12.3885 3.35714 9.97528 0.5
71 3.49217 6.18316 8.4516 0.5
72 7.24023 2.09861 10.9515 0.5
73 8.01898 6.59842 8.8738 0.5
74 5.57369 4.4091 9.66179 0.5
75 9.0909 0.0204727 10.248 0.5
76 11.8921 3.55706 12.962 0.5
77 9.93985 2.84276 3.27232 0.5
78 8.69033 2.95341 5.47635 0.5
79 4.39359 12.2924 6.36539 0.5
80 5.17389 2.1175 8.04575 0.5
81 1.72714 3.48656 11.6428 0.5
82 1.64085 8.52817 0.405704 0.5
83 3.07934 0.641904 5.81354 0.5
84 0.381142 8.27725 8.71736 0.5
85 13.3572 4.14031 6.62243 0.5
86 2.60892 1.42807 12.966 0.5
87 4.4989 5.82046 5.87745 0.5
88 6.39289 6.12443 3.55483 0.5
89 11.835 12.5145 7.72178 0.5
90 4.02044 6.24293 4.31144 0.5
91 11.733 6.70462 11.0117 0.5
92 13.0755 1.6445 1.53202 0.5
93 13.0297 0.693338 11.9011 0.5
94 4.56486 10.4385 12.6613 0.5
95 11.9655 1.37864 7.89532 0.5
96 11.297 2.73923 4.20546 0.5
97 11.6842 3.00227 5.1888 0.5
98 10.7762 10.1439 0.571878 0.5
99 6.74476 8.40043 9.32961 0.5
100 0.494671 7.42267 6.32231 0.5
101 4.34584 11.63 2.50572 0.5
102 8.78278 6.35575 9.50193 0.5
103 4.60509 4.80573 11.2278 0.5
104 7.49447 11.258 6.03886 0.5
105 11.7648 12.1672 6.75314 0.5
106 5.92624 1.29244 10.3536 0.5
107 12.9893 5.74109 6.63989 0.5
108 13.3504 10.6047 5.69466 0.5
109 1.06591 12.6508 9.31224 0.5
110 8.35779 9.03783 8.46553 0.5
111 8.14403 0.115999 3.41391 0.5
112 5.54075 0.979576 5.70725 0.5
113 0.711638 0.338291 6.29683 0.5
114 7.54607 6.86074 2.71698 0.5
115 5.71333 6.51258 11.9837 0.5
116 12.6618 5.14074 2.25017 0.5
117 0.166312 1.13293 6.07191 0.5
118 11.5062 10.1547 5.32177 0.5
119 12.1976 8.21683 1.58379 0.5
120 5.55973 9.25499 3.96028 0.5
121 11.9137 13.2178 10.6228 0.5
122 1.48893 3.57255 2.10734 0.5
123 11.8252 2.19035 8.58326 0.5
124 10.2595 11.0441 11.5984 0.5
125 4.72405 12.0933 3.39301 0.5
126 11.1898 11.5286 13.0593 0.5
127 8.44987 10.3923 11.1436 0.5
128 5.60435 3.01229 8.04635 0.5
129 2.43872 6.28381 12.384 0.5
130 0.553356 11.7225 11.2464 0.5
131 7.36983 2.62111 2.44051 0.5
132 5.3529 11.4608 2.91015 0.5
133 0.910765 10.8043 10.9789 0.5
134 11.4818 12.2611 2.63303 0.5
135 12.3843 2.7974 5.84139 0.5
136 7.24192 5.00131 4.87761 0.5
137 3.43305 12.4106 6.67013 0.5
138 7.67033 12.0727 13.2601 0.5
139 5.17905 13.1983 0.122059 0.5
140 4.50302 3.3577 3.38763 0.5
141 1.55503 3.50867 4.10689 0.5
142 9.52012 3.18364 11.8334 0.5
143 0.400564 12.4352 0.0538643 0.5
144 8.83234 12.6763 8.8577 0.5
145 6.75277 7.06441 2.12166 0.5
146 10.0288 8.82313 8.24212 0.5
147 4.6135 6.41234 0.18043 0.5
148 12.508 0.229222 11.2036 0.5
149 8.17669 7.13004 9.81322 0.5
150 12.5656 11.9223 3.88932 0.5
151 7.12133 12.1161 9.88579 0.5
152 4.5689 3.8897 11.7855 0.5
153 11.6093 8.09889 7.46121 0.5
154 1.80646 2.60728 2.0336 0.5
155 2.45758 8.27033 10.8559 0.5
156 8.35434 12.1092 0.361153 0.5
157 1.4031 -0.023495 2.99592 0.5
158 1.47032 9.87063 8.70932 0.5
159 4.0296 1.88677 9.79765 0.5
160 9.43514 0.17039 11.1356 0.5
161 12.0919 2.36021 10.1755 0.5
162 7.75077 2.5024 9.33457 0.5
163 11.8424 10.0942 0.766151 0.5
164 8.89666 3.47585 11.1642 0.5
165 7.00647 11.0097 10.9975 0.5
166 11.0711 12.7366 7.26339 0.5
167 10.6841 8.44135 7.63899 0.5
168 0.616868 3.04571 7.15115 0.5
169 10.3466 11.1129 12.6568 0.5
170 3.83634 5.97644 0.73016 0.5
171 10.8955 5.56387 0.956097 0.5
172 12.7661 7.99524 11.4703 0.5
173 9.24964 10.0637 2.02139 0.5
174 5.25942 1.24889 0.452993 0.5
175 2.43152 6.87391 4.31133 0.5
176 3.50789 5.64717 3.61888 0.5
177 8.48274 4.90314 6.26367 0.5
178 4.83966 1.33251 3.80246 0.5
179 12.9953 6.14403 2.0175 0.5
180 8.49886 3.03144 11.8854 0.5
181 10.9363 10.9483 9.63741 0.5
182 2.88045 12.1561 0.777136 0.5
183 8.71017 7.19275 6.15063 0.5
184 10.6691 6.00594 8.13327 0.5
185 8.47804 13.2975 11.1411 0.5
186 4.84614 8.40028 2.73368 0.5
187 5.72135 0.509848 13.4709 0.5
188 5.18727 6.07046 6.53112 0.5
189 1.01649 11.1576 6.71978 0.5
190 8.77107 13.2551 2.77129 0.5
191 10.1171 6.86622 3.26591 0.5
192 9.72842 1.28594 13.47 0.5
193 10.923 2.15578 8.97777 0.5
194 9.24954 12.8067 10.7716 0.5
195 13.06 9.40883 12.6734 0.5
196 8.16524 1.16058 4.69486 0.5
197 2.6508 6.71417 8.13762 0.5
198 5.92273 5.82682 12.6989 0.5
199 11.9212 0.526607 8.47495 0.5
200 7.08623 7.00723 1.11232 0.5
201 12.95 4.34705 7.50646 0.5
202 5.92941 13.1532 8.90497 0.5
203 1.34911 4.16215 1.30715 0.5
204 3.39084 8.15119 8.70995 0.5
205 11.5788 13.479 4.80696 0.5
206 0.961223 1.7975 9.2552 0.5
207 4.47598 11.431 8.8537 0.5
208 8.63693 3.91706 5.95023 0.5
209 5.21476 2.11534 4.32132 0.5
210 4.20163 6.65793 5.26139 0.5
211 3.73624 4.67481 10.557 0.5
212 3.01937 6.04067 4.48898 0.5
213 3.3407 1.51242 5.497 0.5
214 9.59967 4.09051 11.5159 0.5
215 8.04178 6.74409 1.1751 0.5
216 6.59863 8.86418 0.035105 0.5
217 3.98164 11.4361 4.99376 0.5
218 6.82292 8.10069 4.52425 0.5
219 8.59669 0.961487 3.8573 0.5
220 7.58344 1.8566 10.0573 0.5
221 3.33414 3.29097 5.90815 0.5
222 6.70414 11.671 5.56211 0.5
223 4.67381 9.29436 3.27006 0.5
224 13.1091 9.6811 3.5441 0.5
225 7.83057 11.0568 11.4624 0.5
226 10.632 6.99214 -0.0224176 0.5
227 13.4429 6.85712 9.49563 0.5
228 4.46058 11.4279 5.82919 0.5
229 5.70213 4.44504 6.90606 0.5
230 6.48375 9.37824 9.18785 0.5
231 7.60024 5.61864 8.86206 0.5
232 7.62103 4.6323 12.8107 0.5
233 1.21253 0.865015 9.48322 0.5
234 10.884 2.37183 5.08201 0.5
235 1.60762 10.6112 3.25097 0.5
236 10.9652 6.56889 0.87923 0.5
237 5.49064 8.17677 6.33458 0.5
238 1.20129 12.9484 6.2109 0.5
239 9.94814 7.71065 3.77568 0.5
240 1.45595 4.94579 13.0339 0.5
241 3.90085 6.34647 1.70344 0.5
242 2.8687 0.659341 2.39331 0.5
243 3.12023 10.2777 3.27815 0.5
244 3.7715 11.4627 6.61349 0.5
245 1.24277 11.4157 11.802 0.5
246 9.83393 9.83896 8.2709 0.5
247 3.42524 0.401746 10.5025 0.5
248 6.38543 2.36765 2.65568 0.5
249 9.94044 1.68478 12.5203 0.5
250 10.2124 2.17717 13.428 0.5
251 4.0506 10.1553 11.8221 0.5
252 8.68773 8.5827 12.9152 0.5
253 1.17491 8.56552 1.32597 0.5
254 10.18 2.68597 2.32613 0.5
255 8.81203 9.41311 2.56384 0.5
256 1.81677 12.6971 3.32878 0.5
257 0.283168 3.96042 7.54017 0.5
258 0.0716424 6.51188 4.94349 0.5
259 4.42702 5.44546 10.4483 0.5
260 6.96587 11.0964 10.028 0.5
261 10.8356 3.11762 5.76354 0.5
262 7.68706 12.0539 5.43131 0.5
263 1.80269 4.29817 8.37399 0.5
264 10.4334 10.2969 8.93824 0.5
265 1.64928 4.36443 4.42269 0.5
266 4.1211 13.2664 6.65253 0.5
267 5.28182 7.60303 9.29999 0.5
268 6.86003 2.12511 1.70293 0.5
269 9.62452 13.2543 8.70561 0.5
270 6.86591 9.75878 8.36029 0.5
271 11.2711 11.6687 7.3488 0.5
272 6.28344 9.38592 0.847538 0.5
273 7.62785 5.56298 4.14898 0.5
274 11.0257 6.04373 9.11905 0.5
275 2.68494 11.196 0.915997 0.5
276 4.94572 2.24781 0.64281 0.5
277 7.17945 5.11566 13.6249 0.5
278 11.4755 10.8787 0.2711 0.5
279 9.34636 11.4548 5.41029 0.5
280 5.02862 12.356 2.38607 0.5
281 6.59117 2.12186 10.151 0.5
282 0.311235 11.7029 1.72782 0.5
283 5.06261 5.19441 1.81297 0.5
284 1.86928 10.8987 0.307793 0.5
285 3.72885 9.96904 5.61221 0.5
286 1.84016 1.902 12.5208 0.5
287 7.93185 7.18043 6.83483 0.5
288 5.98227 0.0537344 6.9592 0.5
289 2.51583 11.0697 3.27092 0.5
290 0.254873 12.9543 6.09376 0.5
291 6.38076 1.28683 5.76931 0.5
292 4.73821 2.71146 13.347 0.5
293 11.2469 5.52768 4.27434 0.5
294 2.80726 10.2311 6.10304 0.5
295 2.39407 1.38505 5.97071 0.5
296 0.0535194 4.9529 7.05313 0.5
297 10.4024 10.1978 11.0265 0.5
298 9.35029 4.9218 12.0472 0.5
299 1.69663 1.01164 12.9342 0.5
300 9.39913 4.90642 1.84498 0.5
301 6.44838 7.05978 11.7637 0.5
302 3.10958 9.49543 2.59542 0.5
303 12.3144 9.47935 2.79689 0.5
304 0.67352 7.30838 5.31458 0.5
305 8.41814 12.4957 7.9558 0.5
306 11.3173 8.63304 1.23026 0.5
307 2.35162 7.00862 3.24945 0.5
308 0.430114 9.81393 12.2603 0.5
309 12.937 0.4055 12.8216 0.5
310 8.3403 0.118256 4.43813 0.5
311 13.5441 6.605 6.63151 0.5
312 7.67856 11.7593 10.6509 0.5
313 1.31113 10.3092 4.10081 0.5
314 6.43999 12.3933 9.10261 0.5
315 12.3442 5.98947 2.81773 0.5
316 8.22305 6.07579 8.12861 0.5
317 13.4983 8.74763 3.77555 0.5
318 0.507575 5.78755 6.50111 0.5
319 10.906 11.768 0.438837 0.5
320 5.21126 3.54868 7.27826 0.5
321 2.85575 12.992 3.53655 0.5
322 10.6165 0.62938 1.19534 0.5
323 3.19613 1.63691 2.18861 0.5
324 10.5104 3.46923 2.70084 0.5
325 1.47164 5.41515 0.405817 0.5
326 10.0607 13.4686 0.954316 0.5
327 8.40734 3.31374 9.01477 0.5
328 12.954 5.71497 0.385938 0.5
329 9.32915 2.36979 7.96456 0.5
330 8.07208 1.38972 5.71166 0.5
331 5.58208 1.97422 3.38454 0.5
332 12.4513 1.41585 8.88039 0.5
333 12.7328 1.87842 2.39212 0.5
334 4.71429 5.97601 2.27645 0.5
335 9.19165 0.686906 4.61584 0.5
336 4.77786 1.96072 8.9157 0.5
337 12.1656 0.378631 12.1488 0.5
338 6.91036 5.36335 9.57598 0.5
339 10.0268 4.33522 2.297 0.5
340 11.5168 3.64807 11.241 0.5
341 8.77146 0.00350066 9.19267 0.5
342 6.0269 1.09334 6.68461 0.5
343 6.63365 5.58089 8.64041 0.5
344 5.43775 7.11372 6.30287 0.5
345 8.94579 8.04594 5.84837 0.5
346 1.43863 7.08947 6.00403 0.5
347 13.0057 12.1438 1.4798 0.5
348 1.48832 4.38444 0.353301 0.5
349 8.19581 6.32908 6.45277 0.5
350 8.72296 7.90644 10.294 0.5
351 2.37076 8.91439 11.6811 0.5
352 8.96969 12.0085 7.32893 0.5
353 9.61837 6.86177 13.3681 0.5
354 2.42824 2.87927 5.58178 0.5
355 1.5867 6.52351 3.823 0.5
356 10.7508 12.9111 4.44845 0.5
357 6.49774 11.4763 4.31908 0.5
358 3.48143 1.0048 9.66798 0.5
359 7.42423 9.14111 8.96939 0.5
360 12.4184 3.83819 6.84656 0.5
361 3.24369 1.47981 6.50802 0.5
362 1.83793 1.36096 8.98185 0.5
363 10.3464 12.5402 0.664643 0.5
364 3.52034 7.63896 0.532967 0.5
365 2.2417 8.51578 1.18948 0.5
366 6.55692 8.72224 8.46949 0.5
367 10.2616 11.8813 13.3246 0.5
368 5.04084 5.3197 9.67123 0.5
369 1.96683 3.65672 5.03588 0.5
370 0.587141 10.3432 6.15458 0.5
371 9.13359 0.149316 3.67724 0.5
372 13.5909 3.6335 3.31605 0.5
373 3.99873 2.67598 0.51035 0.5
374 0.215068 9.33622 13.2437 0.5
375 0.541457 9.78863 9.08875 0.5
376 1.79923 11.1927 4.07724 0.5
377 6.70404 5.44657 4.18574 0.5
378 5.99006 9.7303 13.4178 0.5
379 4.14076 5.41172 1.69462 0.5
380 7.5228 4.1926 0.186819 0.5
381 10.0916 3.67283 8.74056 0.5
382 9.71499 3.16914 7.96494 0.5
383 2.26741 4.78681 0.0842714 0.5
384 5.50239 10.1862 12.5736 0.5
385 13.1279 11.58 2.29147 0.5
386 0.0111542 3.90208 4.32351 0.5
387 2.00741 7.12622 12.0266 0.5
388 1.01493 2.43367 10.1492 0.5
389 3.28928 9.45346 11.7217 0.5
390 4.64315 4.46341 10.075 0.5
391 7.96443 1.10078 2.16522 0.5
392 12.5682 4.96087 3.2337 0.5
393 2.44671 4.81919 8.95731 0.5
394 9.20084 9.19644 7.92559 0.5
395 1.89606 0.341642 8.88252 0.5
396 13.5466 2.34344 2.1578 0.5
397 7.91744 2.0307 1.78897 0.5
398 9.62432 11.9259 2.78666 0.5
399 0.814182 4.11388 3.7482 0.5
400 7.30086 8.83187 4.89753 0.5
401 10.0498 2.69262 12.6228 0.5
402 4.78579 7.51778 5.70015 0.5
403 6.50327 0.249442 8.44723 0.5
404 11.1903 11.1449 12.13 0.5
405 11.965 5.90451 0.746603 0.5
406 6.80346 2.87845 0.995453 0.5
407 1.62077 11.6711 3.16631 0.5
408 2.47322 3.91516 5.91768 0.5
409 3.72129 4.41633 11.5126 0.5
410 10.7647 2.4705 3.21485 0.5
411 4.72984 6.09425 1.14453 0.5
412 5.31281 0.283125 0.830205 0.5
413 2.85514 5.8551 7.69064 0.5
414 3.29005 8.50069 11.2818 0.5
415 8.02576 10.2709 12.0654 0.5
416 9.07845 10.4457 5.32645 0.5
417 0.964618 13.5273 8.93159 0.5
418 9.74146 0.837176 10.4135 0.5
419 2.66362 13.2545 10.6212 0.5
420 3.51314 0.462489 6.79331 0.5
421 13.4229 4.95046 9.40238 0.5
422 7.87863 4.53043 5.50241 0.5
423 11.8259 0.793957 4.21357 0.5
424 2.94192 3.60999 5.04217 0.5
425 8.9094 7.51222 11.2429 0.5
426 0.850272 12.6476 8.36367 0.5
427 7.62816 2.99422 1.61386 0.5
428 0.994755 8.20309 9.40414 0.5
429 11.6214 6.30693 8.35256 0.5
430 9.1613 12.9442 11.8167 0.5
431 2.23395 5.13703 8.03932 0.5
432 12.669 2.65565 1.70904 0.5
433 7.98404 11.2488 0.170432 0.5
434 13.5441 3.43412 12.9283 0.5
435 11.2378 9.62709 1.39363 0.5
436 5.94888 5.40713 9.81514 0.5
437 4.31267 9.34091 6.31766 0.5
438 5.72549 2.81247 7.15526 0.5
439 11.226 10.3372 10.354 0.5
440 9.63739 10.7444 6.08301 0.5
441 6.35168 0.366108 6.05352 0.5
442 1.37363 7.6634 6.7923 0.5
443 0.97369 12.1265 0.971061 0.5
444 9.27766 9.45688 12.9364 0.5
445 5.02921 8.47386 3.7358 0.5
446 3.33724 6.87345 4.73764 0.5
447 2.16187 9.49647 6.13332 0.5
448 5.34481 10.0241 0.576536 0.5
449 3.04474 12.3649 11.1583 0.5
450 2.6598 2.41102 1.64043 0.5
451 7.0732 3.82204 1.27232 0.5
452 2.70271 8.26707 0.338775 0.5
453 4.99391 9.25368 2.273 0.5
454 2.94815 0.475361 3.35548 0.5
455 1.37953 2.53804 11.7439 0.5
456 8.68616 13.5021 8.10308 0.5
457 12.3685 11.0363 8.80581 0.5
458 4.14681 0.153802 9.84571 0.5
459 11.7015 3.4285 6.21149 0.5
460 12.783 6.48899 1.00486 0.5
461 12.1513 7.14833 11.8742 0.5
462 9.7752 4.64074 8.72617 0.5
463 5.03433 2.91734 6.50453 0.5
464 0.186718 7.8235 9.58979 0.5
465 5.01405 10.3989 11.6842 0.5
466 2.99971 13.3088 6.34535 0.5
467 1.71617 7.78063 1.00997 0.5
468 0.735177 7.28201 8.97102 0.5
469 2.21698 2.7751 11.1941 0.5
470 1.98688 6.36319 11.4693 0.5
471 4.21703 1.02987 10.4179 0.5
472 11.1627 6.48461 4.42171 0.5
473 11.1539 8.88979 6.74172 0.5
474 3.48676 7.19275 8.52097 0.5
475 4.91685 4.00107 6.4263 0.5
476 6.28419 0.83721 11.3114 0.5
477 6.02306 7.82734 9.79438 0.5
478 3.394 12.3351 13.4692 0.5
479 9.19485 7.73499 13.0699 0.5
480 4.07533 9.9313 9.15598 0.5
481 2.31763 4.00651 0.767456 0.5
482 10.9645 13.3607 0.63386 0.5
483 9.29458 11.043 2.34726 0.5
484 10.2999 6.94394 4.26926 0.5
485 5.1772 4.46864 2.47837 0.5
486 3.66633 10.8951 9.06811 0.5
487 4.79794 2.94701 8.5095 0.5
488 5.97902 5.37761 6.49023 0.5
489 3.69948 1.03387 2.91555 0.5
490 0.145448 12.8451 9.06454 0.5
491 2.94178 6.89441 11.7035 0.5
492 0.842351 5.52052 12.3912 0.5
493 12.5974 7.76244 12.4541 0.5
494 6.67962 4.59261 0.650007 0.5
495 6.70527 7.84495 0.498923 0.5
496 6.91776 13.5326 13.2528 0.5
497 5.65736 4.51385 5.9618 0.5
498 3.63422 11.9476 5.82155 0.5
499 6.29501 1.77629 11.1744 0.5
500 10.8333 9.49699 5.85121 0.5
501 5.79167 1.27944 4.12223 0.5
502 9.50109 10.1586 9.26648 0.5
503 6.79619 5.97828 13.239 0.5
504 1.66223 1.80239 13.5694 0.5
505 3.97766 3.42271 13.2948 0.5
506 3.54398 11.7375 1.33164 0.5
507 8.17658 4.8532 4.67879 0.5
508 13.2995 1.11088 5.17619 0.5
509 5.4016 5.51159 5.70733 0.5
510 7.5197 10.1286 11.1732 0.5
511 6.02926 0.732235 7.68435 0.5
512 10.2837 11.3231 2.51302 0.5
513 4.546 4.23626 3.11761 0.5
514 6.13989 8.46226 0.987248 0.5
515 2.28714 9.99331 2.83167 0.5
516 5.60823 9.00893 2.96056 0.5
517 0.861994 3.81085 4.75295 0.5
518 2.87425 6.67272 9.13073 0.5
519 5.22354 7.44608 10.3148 0.5
520 2.18482 1.04918 0.235045 0.5
521 11.1625 6.01145 5.29043 0.5
522 3.10536 8.58731 12.2998 0.5
523 12.9742 7.97767 3.30086 0.5
524 13.4935 0.311343 5.71527 0.5
525 11.283 9.32575 0.443506 0.5
526 9.14223 11.853 8.34833 0.5
527 7.66906 10.5821 1.71199 0.5
528 1.63419 0.270647 0.0332739 0.5
529 0.170919 12.6334 1.17895 0.5
530 11.6726 2.76348 9.36898 0.5
531 11.798 8.07436 11.9067 0.5
532 6.45707 9.00714 4.44133 0.5
533 6.21501 7.46592 10.8285 0.5
534 2.35622 12.8823 11.5178 0.5
535 8.37541 12.7844 13.1308 0.5
536 2.42139 11.9666 3.82154 0.5
537 2.11253 10.4871 9.10664 0.5
538 8.37861 9.78408 1.66708 0.5
539 1.68906 7.47357 3.79402 0.5
540 0.407736 3.17497 8.07654 0.5
541 4.52607 12.0427 1.57543 0.5
542 7.90662 0.119569 13.145 0.5
543 13.317 6.03935 5.83196 0.5
544 8.70099 3.09989 7.99132 0.5
545 1.30266 6.9888 3.03716 0.5
546 0.777104 0.63461 13.0111 0.5
547 10.7877 5.12846 5.06824 0.5
548 11.9537 13.1362 6.95088 0.5
549 12.0297 10.0607 8.78347 0.5
550 11.8209 13.5072 3.76691 0.5
551 7.33483 1.37348 1.44615 0.5
552 3.78697 6.777 0.0670915 0.5
553 11.2474 6.44631 7.50116 0.5
554 3.33579 13.1809 7.29863 0.5
555 0.549672 3.13271 4.05207 0.5
556 7.44346 12.8332 12.7058 0.5
557 7.14296 10.9317 0.89585 0.5
558 4.43226 1.06225 9.48271 0.5
559 3.10993 10.0814 9.18016 0.5
560 6.5186 2.80304 10.9422 0.5
561 8.03992 8.58206 12.155 0.5
562 12.6858 2.9427 12.831 0.5
563 8.6457 6.53167 7.23906 0.5
564 6.15137 5.13378 13.4636 0.5
565 8.86319 4.70819 5.37778 0.5
566 6.89075 1.23923 10.6389 0.5
567 12.8233 4.10509 3.70711 0.5
568 7.064 1.45055 11.6498 0.5
569 11.0257 7.27941 10.5273 0.5
570 13.105 8.1413 2.12772 0.5
571 2.02792 0.772905 2.90187 0.5
572 5.3991 2.00097 13.2811 0.5
573 0.721042 13.3799 5.40795 0.5
574 9.56742 7.57297 2.90077 0.5
575 7.95457 0.0727252 2.45595 0.5
576 3.55111 10.1662 8.31225 0.5
577 4.01302 9.04323 2.49026 0.5
578 1.91547 11.7689 0.71469 0.5
579 13.1686 9.40923 11.7259 0.5
580 2.87742 4.85423 7.33377 0.5
581 1.76243 12.9413 8.75045 0.5
582 2.10593 12.3852 10.7007 0.5
583 2.881 10.6762 0.137402 0.5
584 10.2759 5.95734 4.64842 0.5
585 13.3611 5.0313 6.14745 0.5
586 0.532595 5.54173 9.99552 0.5
587 12.6868 3.20731 0.780018 0.5
588 13.0787 12.5518 0.41867 0.5
589 13.5435 9.16968 8.57089 0.5
590 3.75775 11.0707 8.1448 0.5
591 4.58416 4.13224 12.8902 0.5
592 10.5413 10.9774 10.5277 0.5
593 6.49788 10.097 6.8013 0.5
594 0.0655939 11.103 6.44304 0.5
595 13.265 10.1385 6.66453 0.5
596 9.70734 9.37821 2.65683 0.5
597 2.22756 9.57003 9.31649 0.5
598 8.34461 11.206 5.29212 0.5
599 11.3647 10.8545 8.77156 0.5
600 10.4023 5.77099 10.8377 0.5
601 2.46102 6.11096 3.59046 0.5
602 0.194448 6.31133 10.3685 0.5
603 3.20547 7.56868 10.9261 0.5
604 5.02707 0.558572 10.1955 0.5
605 6.76106 2.34055 11.839 0.5
606 12.2843 9.5091 5.16962 0.5
607 8.81097 10.0127 8.54835 0.5
608 8.31182 13.262 12.2264 0.5
609 1.12254 11.6674 0.085627 0.5
610 1.19764 9.25107 9.6439 0.5
611 0.98888 9.04342 8.66836 0.5
612 6.62424 12.3492 2.90015 0.5
613 3.63802 5.93381 5.16502 0.5
614 3.56959 12.9957 10.4615 0.5
615 3.90085 10.581 10.0695 0.5
616 13.5993 5.33163 1.86654 0.5
617 7.92343 5.86031 2.79134 0.5
618 11.1678 7.88457 8.40385 0.5
619 12.4968 3.89825 11.4782 0.5
620 1.20931 10.2991 11.7312 0.5
621 2.51832 4.48738 4.9346 0.5
622 5.83391 8.52286 9.09866 0.5
623 12.7861 8.12607 4.24027 0.5
624 13.3046 5.43072 2.80285 0.5
625 2.01369 3.60827 10.6795 0.5
626 2.25931 4.15878 1.82138 0.5
627 9.95986 6.87721 0.713194 0.5
628 12.8575 4.41277 9.97024 0.5
629 5.3774 3.75461 3.19908 0.5
630 2.92926 3.3991 1.34384 0.5
631 9.46922 1.77311 0.564984 0.5
632 6.75195 12.5143 13.4931 0.5
633 10.5468 1.38051 0.531324 0.5
634 10.2753 10.1833 9.90711 0.5
635 9.1535 2.29242 12.1506 0.5
636 8.82875 3.99786 12.1777 0.5
637 0.497449 10.4376 7.23918 0.5
638 5.09155 1.15254 4.7782 0.5
639 8.89949 6.91964 10.4213 0.5
640 2.13402 4.33135 7.4198 0.5
641 7.78936 7.06883 5.84119 0.5
642 11.2208 6.03361 0.128023 0.5
643 11.145 0.808668 7.89407 0.5
644 7.25911 2.88361 10.2391 0.5
645 0.737094 11.3025 5.74055 0.5
646 8.97836 9.03512 12.0647 0.5
647 8.42676 5.04927 12.3984 0.5
648 7.43703 9.39959 11.9367 0.5
649 6.04526 7.97622 11.6524 0.5
650 2.58069 0.628731 6.67597 0.5
651 0.963858 6.69373 6.86569 0.5
652 6.1696 3.64714 7.4727 0.5
653 13.0207 4.36077 2.75988 0.5
654 4.00443 8.78242 11.9225 0.5
655 11.6418 11.5971 9.33022 0.5
656 1.02686 11.0936 0.973423 0.5
657 11.1927 0.246083 6.95792 0.5
658 9.86347 9.84306 5.59269 0.5
659 1.56628 9.54642 3.34092 0.5
660 1.09602 0.859426 8.52744 0.5
661 3.38616 7.53697 9.43183 0.5
662 3.52193 10.9409 5.7225 0.5
663 6.3932 12.4137 3.87405 0.5
664 5.12194 6.55212 5.65779 0.5
665 9.73883 10.9636 3.25446 0.5
666 5.43778 12.3452 9.44137 0.5
667 10.7772 4.37669 8.51616 0.5
668 5.32113 2.9144 3.80293 0.5
669 8.44404 10.3218 2.52651 0.5
670 9.35273 12.755 7.91959 0.5
671 7.16766 8.59909 0.993506 0.5
672 3.22949 2.59122 5.10716 0.5
673 5.58546 8.98828 0.358376 0.5
674 3.65486 7.75076 11.8568 0.5
675 4.16486 4.78761 12.2078 0.5
676 2.39689 13.3436 2.77491 0.5
677 3.69547 9.43416 3.36026 0.5
678 13.3999 7.54495 8.69127 0.5
679 10.7874 11.9986 6.55134 0.5
680 5.17533 11.4242 1.92017 0.5
681 3.75843 1.53683 8.8644 0.5
682 1.95632 2.75062 10.2241 0.5
683 1.75396 5.54965 12.1449 0.5
684 10.9423 0.267689 4.00746 0.5
685 11.8294 12.6656 4.26896 0.5
686 11.2115 7.35105 11.5449 0.5
687 4.99525 9.75619 13.2703 0.5
688 1.20711 8.01385 5.82787 0.5
689 2.42457 3.28829 2.27149 0.5
690 4.7642 8.63485 6.9977 0.5
691 13.1473 10.3952 12.063 0.5
692 4.7419 0.462222 0.0442229 0.5
693 10.7933 6.56156 11.1959 0.5
694 6.16194 8.86764 9.9747 0.5
695 12.3623 8.51519 2.57421 0.5
696 9.98697 4.15432 7.88005 0.5
697 0.656576 9.87635 8.14549 0.5
698 7.13077 10.8722 6.99132 0.5
699 2.65757 7.58756 1.04901 0.5
700 12.5439 8.82249 3.55231 0.5
701 9.67677 8.57421 12.6269 0.5
702 3.99328 2.59321 9.04259 0.5
703 2.08402 5.71535 13.1517 0.5
704 9.3279 2.92514 8.77693 0.5
705 10.8564 7.42531 7.55107 0.5
706 6.57328 10.8478 6.11059 0.5
707 3.85591 5.36505 11.3052 0.5
708 12.547 2.19937 0.849439 0.5
709 9.78083 0.882566 0.861113 0.5
710 6.83037 6.22372 2.66983 0.5
711 0.02603 1.10432 12.5672 0.5
712 12.5826 2.35183 9.24097 0.5
713 8.34452 9.66232 7.61147 0.5
714 12.591 4.82551 6.77635 0.5
715 13.2324 8.89915 2.84045 0.5
716 1.60479 2.05436 10.7998 0.5
717 3.22267 6.70985 0.928469 0.5
718 11.9903 0.515406 7.43965 0.5
719 4.37087 11.1364 11.9628 0.5
720 13.0601 12.1565 3.07188 0.5
721 10.8917 6.85382 8.47033 0.5
722 5.98937 13.1562 12.9639 0.5
723 3.35583 11.7786 8.82242 0.5
724 9.41328 12.8133 9.67437 0.5
725 2.50427 1.91559 5.19067 0.5
726 8.32308 2.22599 7.66756 0.5
727 4.43624 1.80647 13.501 0.5
728 13.0563 1.90052 5.70821 0.5
729 9.80136 5.25817 0.818025 0.5
730 8.26793 5.56226 7.23313 0.5
731 10.3002 0.455139 0.128326 0.5
732 1.27018 2.70861 7.9446 0.5
733 7.97871 11.3689 1.15144 0.5
734 10.2687 11.4598 5.78141 0.5
735 3.16844 5.13133 8.37312 0.5
736 4.32421 3.92458 10.8122 0.5
737 5.29952 2.83304 2.80005 0.5
738 2.19501 7.29767 11.0228 0.5
739 5.86974 13.3085 7.83758 0.5
740 12.3808 13.3525 7.98164 0.5
741 7.47188 4.01349 4.68944 0.5
742 5.33612 9.26959 1.25969 0.5
743 7.43764 7.90819 5.2786 0.5
744 3.91701 2.60416 13.0663 0.5
745 6.75847 6.20338 12.265 0.5
746 5.19303 8.37605 9.91913 0.5
747 13.4652 0.0159741 11.2497 0.5
748 7.42243 8.98798 7.96546 0.5
749 6.48959 9.41097 3.46542 0.5
750 1.22861 1.12702 0.276281 0.5
751 13.2433 8.46818 12.9976 0.5
752 0.844698 1.66859 12.9103 0.5
753 7.52548 2.24689 0.895996 0.5
754 1.4099 12.4027 11.523 0.5
755 6.67464 3.65601 0.343681 0.5
756 6.77337 7.86156 1.50444 0.5
757 11.1657 6.26166 10.2506 0.5
758 4.38514 12.328 5.28224 0.5
759 12.7469 9.08102 1.93237 0.5
760 7.3101 4.6746 4.02209 0.5
761 3.52826 11.4782 0.285385 0.5
762 13.1941 2.78197 0.107527 0.5
763 11.417 0.813752 3.28835 0.5
764 9.1887 9.02406 3.38106 0.5
765 12.2146 2.79836 -0.00804598 0.5
766 7.82087 2.98932 4.82133 0.5
767 4.2176 6.93921 0.987248 0.5
768 12.8847 13.4371 10.3341 0.5
769 11.4786 2.36216 5.85736 0.5
770 11.8919 8.26816 6.46361 0.5
771 7.96694 8.03726 6.10514 0.5
772 0.931049 1.49448 10.2075 0.5
773 9.16521 3.89311 8.48002 0.5
774 8.68946 0.684941 2.84176 0.5
775 10.0989 13.0356 11.3044 0.5
776 3.30866 9.41589 6.44321 0.5
777 11.1346 12.8215 3.52111 0.5
778 12.2256 12.6289 3.31093 0.5
779 8.34896 7.57676 5.25294 0.5
780 2.87809 10.9296 8.48405 0.5
781 0.34876 1.30786 4.42736 0.5
782 10.6758 3.36081 3.71768 0.5
783 0.201445 8.82146 12.3274 0.5
784 2.42825 2.91159 4.57203 0.5
785 10.6241 10.0448 4.97197 0.5
786 8.4089 3.86532 5.01167 0.5
787 6.30771 11.5195 3.27025 0.5
788 11.93 7.60823 10.9803 0.5
789 9.07443 4.43042 2.58654 0.5
790 7.7363 0.855653 3.08929 0.5
791 5.51995 7.44034 12.3763 0.5
792 4.69236 2.72602 7.51146 0.5
793 7.19295 8.79423 3.94028 0.5
794 12.613 1.1257 3.00315 0.5
795 7.89694 8.17854 4.4913 0.5
796 4.705 10.6938 9.46575 0.5
797 3.85008 3.78341 12.3569 0.5
798 2.48856 3.82806 4.18187 0.5
799 0.659778 0.838525 5.34384 0.5
800 0.776002 8.55889 13.1705 0.5
801 7.38527 6.30598 3.54472 0.5
802 5.29046 11.1463 12.3594 0.5
803 11.242 10.7563 11.2115 0.5
804 0.617992 5.59534 8.98323 0.5
805 9.27108 8.43452 2.5344 0.5
806 2.61569 7.58824 8.69602 0.5
807 2.78345 4.23876 8.15369 0.5
808 2.70178 9.37989 3.48568 0.5
809 8.7622 5.45275 11.5007 0.5
810 2.14524 11.8257 11.4881 0.5
811 11.068 7.07828 3.54912 0.5
812 2.58222 7.92194 11.708 0.5
813 7.65059 5.65854 12.7735 0.5
814 9.42809 0.561767 5.60926 0.5
815 11.7841 11.6563 8.30188 0.5
816 9.8921 7.75742 0.176927 0.5
817 12.3226 11.5783 2.8748 0.5
818 3.55474 10.7256 1.00392 0.5
819 6.77179 0.0476259 7.51307 0.5
820 0.455029 11.9454 8.78831 0.5
821 10.7306 3.23789 4.75696 0.5
822 8.98685 1.36206 5.3396 0.5
823 10.0029 13.3763 10.3887 0.5
824 1.96456 8.6882 5.54022 0.5
825 7.14761 0.579612 2.24269 0.5
826 6.65408 12.8633 8.20157 0.5
827 11.2239 0.768515 0.353758 0.5
828 4.82429 3.58779 2.40831 0.5
829 4.14255 2.18828 8.18732 0.5
830 5.72547 12.3537 8.39306 0.5
831 11.4387 13.3804 7.87402 0.5
832 0.389557 5.43401 10.929 0.5
833 1.49164 11.6434 10.8588 0.5
834 9.34087 2.18851 13.1873 0.5
835 0.971978 6.12568 11.5183 0.5
836 8.55266 8.48127 11.2357 0.5
837 7.61281 3.31349 0.587662 0.5
838 12.812 12.8164 11.112 0.5
839 4.41796 5.1359 2.71779 0.5
840 7.58256 12.9182 0.143953 0.5
841 6.11573 11.0124 6.98757 0.5
842 12.1139 4.01808 10.5867 0.5
843 12.0552 3.19661 12.0193 0.5
844 4.70624 2.06757 12.5505 0.5
845 9.74685 5.1732 5.10641 0.5
846 6.22466 12.6074 10.0753 0.5
847 4.6012 7.80187 6.65647 0.5
848 5.21919 6.66269 12.9344 0.5
849 0.551945 12.0471 6.46723 0.5
850 10.7982 10.2654 11.995 0.5
851 6.78154 11.718 6.57477 0.5
852 7.3054 9.91067 7.42419 0.5
853 4.27872 7.66419 8.88888 0.5
854 10.6226 6.07982 3.69886 0.5
855 10.0537 10.3693 2.48903 0.5
856 2.09507 0.0430627 3.70574 0.5
857 9.61833 5.10408 11.0768 0.5
858 7.81187 9.85932 8.33721 0.5
859 11.1477 5.24948 5.99078 0.5
860 10.223 4.72991 5.80291 0.5
861 11.1247 12.8689 6.31793 0.5
862 11.1422 8.2405 11.0645 0.5
863 8.18931 8.585 5.31522 0.5
864 7.96048 7.01727 7.92618 0.5
865 11.804 4.21376 12.1909 0.5
866 5.98796 11.8009 2.28573 0.5
867 12.2137 4.51535 13.0608 0.5
868 9.24676 9.22642 8.95529 0.5
869 5.05336 1.13212 12.9599 0.5
870 3.8349 8.50687 6.53451 0.5
871 12.9159 9.08202 4.45763 0.5
872 1.06282 6.0252 13.2597 0.5
873 12.6691 1.01109 2.07599 0.5
874 6.77261 5.20881 12.7019 0.5
875 7.08657 12.1482 4.6839 0.5
876 2.47612 5.85848 8.61736 0.5
877 10.8762 7.97808 6.74697 0.5
878 2.56464 11.6613 13.6066 0.5
879 1.26706 3.70029 7.70641 0.5
880 11.7771 1.44578 2.57088 0.5
881 11.132 10.4997 12.9375 0.5
882 2.27285 10.1999 3.85537 0.5
883 11.077 12.5167 13.4779 0.5
884 12.7441 3.68337 13.4826 0.5
885 7.82071 10.8374 10.4361 0.5
886 13.2121 3.28006 7.3675 0.5
887 0.156218 0.0555628 12.3066 0.5
888 4.30222 4.44022 2.00597 0.5
889 11.3426 5.27046 8.32031 0.5
890 11.7674 9.23002 5.90003 0.5
891 1.73021 6.18932 2.84218 0.5
892 9.70912 0.282257 9.49768 0.5
893 10.5269 5.2204 8.85029 0.5
894 7.68802 7.72467 0.910509 0.5
895 12.0807 9.18869 1.11449 0.5
896 7.33106 11.9943 0.6313 0.5
897 7.18868 11.8935 3.71884 0.5
898 5.74483 12.3648 3.21423 0.5
899 10.4208 5.02152 7.91153 0.5
900 11.9327 10.5963 9.60824 0.5
901 13.1951 5.40232 10.3147 0.5
902 11.7532 7.25498 7.90888 0.5
903 10.0979 8.50232 3.03964 0.5
904 7.71677 3.51806 5.61701 0.5
905 13.2902 7.06033 5.75823 0.5
906 -0.0141239 4.72442 3.55439 0.5
907 6.90806 3.7411 10.6454 0.5
908 8.50698 0.448859 5.39947 0.5
909 9.51581 3.5161 2.5684 0.5
910 7.80832 2.88258 8.27569 0.5
911 6.22201 6.77625 12.8159 0.5
912 8.26905 9.44152 11.526 0.5
913 12.1 5.55413 13.2772 0.5
914 5.09651 0.113243 12.765 0.5
915 7.86822 2.42035 5.68449 0.5
916 11.0269 8.49283 5.741 0.5
917 12.0375 13.0403 11.6654 0.5
918 7.20704 6.29651 8.18726 0.5
919 13.5318 12.5511 2.15836 0.5
920 13.4662 10.9925 10.9661 0.5
921 5.01911 6.94617 7.15459 0.5
922 12.2055 3.05509 10.9889 0.5
923 0.536018 2.19993 7.6401 0.5
924 11.541 11.3322 10.3433 0.5
925 9.99055 3.4033 1.70767 0.5
926 5.39523 10.6486 13.3514 0.5
927 2.18142 7.74306 6.12826 0.5
928 0.611005 6.47528 5.92216 0.5
929 1.21254 3.02516 10.8886 0.5
930 10.2205 9.42712 9.10855 0.5
931 4.75076 9.51878 12.2448 0.5
932 3.99849 8.52013 3.28356 0.5