ITEM: TIMESTEP
430000
ITEM: NUMBER OF ATOMS
1000
ITEM: BOX BOUNDS xy xz yz pp pp pp
0.0000000000000000e+00 1.3572088000000001e+01 0.0000000000000000e+00
0.0000000000000000e+00 1.3572088000000001e+01 0.0000000000000000e+00
0.0000000000000000e+00 1.3572088000000001e+01 0.0000000000000000e+00
ITEM: ATOMS id x y z radius
1 4.51445 4.1598 12.0922 0.5
2 5.42363 10.9484 3.30386 0.5
3 8.81327 10.2566 2.69691 0.5
4 9.67405 5.92847 0.956798 0.5
5 9.58278 7.69601 10.2663 0.5
6 4.15211 12.9226 5.21194 0.5
7 2.86969 8.68422 1.07993 0.5
8 13.1156 11.4836 2.0276 0.5
9 1.83314 8.39859 6.19823 0.5
10 2.55519 12.9367 10.7193 0.5
11 0.727757 9.34981 8.77902 0.5
12 10.2952 5.91912 0.175736 0.5
13 8.32973 11.1224 5.99798 0.5
14 10.8335 2.34464 4.13429 0.5
15 6.11086 1.77066 4.43776 0.5
16 7.81529 6.82699 9.41782 0.5
17 6.74564 12.4363 11.0457 0.5
18 2.83147 8.61074 6.04184 0.5
19 10.1517 5.60275 1.84889 0.5
20 9.91892 12.0203 3.34362 0.5
21 2.11178 4.94919 0.886406 0.5
22 2.03258 5.92007 12.0102 0.5
23 1.23784 1.52844 9.9104 0.5
24 7.41784 7.34596 2.1139 0.5
25 1.2164 6.56851 3.06868 0.5
26 10.0009 10.0229 6.21744 0.5
27 11.2591 6.78909 12.6017 0.5
28 4.8112 11.6395 11.5143 0.5
29 0.0954945 6.2199 1.1027 0.5
30 8.25913 10.9305 1.28744 0.5
31 0.952872 13.2409 8.53547 0.5
32 9.14115 2.94394 13.0254 0.5
33 12.8337 5.70453 9.83854 0.5
34 3.77897 8.84605 5.79564 0.5
35 11.7769 6.50202 13.3702 0.5
36 8.88444 2.00838 5.32712 0.5
37 0.762338 0.620079 2.62985 0.5
38 3.25901 1.6549 1.85151 0.5
39 10.5958 4.57895 1.74867 0.5
40 5.90147 6.12525 6.69968 0.5
41 8.0342 11.2709 5.10081 0.5
42 6.90373 5.31131 3.66924 0.5
43 5.03492 5.43382 9.76843 0.5
44 4.53778 10.8801 8.1961 0.5
45 7.45973 6.29058 2.16881 0.5
46 10.2104 11.0015 0.225405 0.5
47 2.97478 9.3663 5.41815 0.5
48 7.52255 10.6813 0.6666 0.5
49 5.85059 12.578 9.44449 0.5
50 6.52535 1.3044 10.1077 0.5
51 0.187322 9.91993 7.13855 0.5
52 6.51725 10.5183 7.39263 0.5
53 9.83539 4.02031 1.83698 0.5
54 11.7765 11.3517 4.14544 0.5
55 0.52976 1.08297 6.42257 0.5
56 13.3934 4.33614 2.96961 0.5
57 0.385082 11.4187 11.2365 0.5
58 5.63141 8.51663 10.4637 0.5
59 1.90065 10.6622 11.2244 0.5
60 7.64056 5.094 9.60814 0.5
61 4.16967 13.5155 10.659 0.5
62 0.883063 8.62396 1.03675 0.5
63 11.8493 8.44672 2.2701 0.5
64 12.043 2.11157 10.4401 0.5
65 12.8451 1.1018 5.18698 0.5
66 12.7954 1.17323 2.0122 0.5
67 8.20467 3.2275 8.20715 0.5
68 3.09318 1.83817 2.83875 0.5
69 11.4926 2.79618 10.9012 0.5
70 12.5072 3.77581 10.0841 0.5
71 2.74498 6.64822 8.85947 0.5
72 7.20632 2.86962 10.9691 0.5
73 8.5463 6.79742 8.85012 0.5
74 6.22881 4.56396 10.3384 0.5
75 8.9512 0.13361 10.4922 0.5
76 12.2252 2.99458 13.5267 0.5
77 10.1574 2.83235 3.46475 0.5
78 8.71179 2.96482 5.02206 0.5
79 4.42511 12.4089 5.93387 0.5
80 5.0268 2.77762 8.27611 0.5
81 1.31824 3.24154 11.8848 0.5
82 1.37051 8.85762 0.154904 0.5
83 3.4272 0.840975 6.34355 0.5
84 13.4782 8.99659 9.20589 0.5
85 12.8304 3.22142 6.96885 0.5
86 2.92796 1.02393 0.437669 0.5
87 4.43184 5.75005 6.08745 0.5
88 6.68083 5.64868 4.5506 0.5
89 11.7252 12.2355 7.3628 0.5
90 4.29726 6.00463 4.49986 0.5
91 11.647 7.5536 11.9156 0.5
92 0.169896 1.12763 1.88474 0.5
93 13.3993 0.425475 12.7395 0.5
94 4.76012 10.044 12.1919 0.5
95 11.5857 1.25573 7.72418 0.5
96 11.7862 2.51059 4.09204 0.5
97 12.1944 2.67531 5.05224 0.5
98 10.9423 9.38611 0.755824 0.5
99 6.56982 8.3894 9.02169 0.5
100 0.942608 6.40241 5.96644 0.5
101 4.91775 11.5992 2.61946 0.5
102 8.67857 7.35173 9.80953 0.5
103 4.20739 5.0882 10.2076 0.5
104 6.55464 11.0073 5.93222 0.5
105 11.6982 11.8712 6.46302 0.5
106 5.96038 1.71049 10.8176 0.5
107 12.958 4.87434 7.3839 0.5
108 0.0628919 10.34 5.24841 0.5
109 12.9242 13.3069 9.00952 0.5
110 8.33905 9.33806 8.80679 0.5
111 8.7036 0.0483583 3.30403 0.5
112 6.53711 1.16679 5.22241 0.5
113 0.623735 13.5523 6.36351 0.5
114 7.35926 6.79168 2.98052 0.5
115 5.59397 6.16107 11.8436 0.5
116 0.195868 5.80552 2.01208 0.5
117 0.405819 13.4364 5.32343 0.5
118 10.6476 9.20964 6.05439 0.5
119 12.7204 8.06171 1.91061 0.5
120 5.1673 9.12373 3.85609 0.5
121 11.5252 13.2858 11.0669 0.5
122 2.31148 3.62821 2.06157 0.5
123 11.7498 2.05536 9.45997 0.5
124 10.5341 11.4306 11.7434 0.5
125 5.09099 11.8309 3.62293 0.5
126 11.1041 11.3206 13.5822 0.5
127 7.50857 10.7421 11.5393 0.5
128 4.75899 3.27584 7.35159 0.5
129 1.88129 6.84588 11.8494 0.5
130 1.09465 11.7959 10.5774 0.5
131 7.72916 2.26792 2.37553 0.5
132 5.63854 12.1518 1.99227 0.5
133 1.12901 10.9174 10.6964 0.5
134 10.8742 11.5977 3.68305 0.5
135 12.2239 1.77257 5.54862 0.5
136 8.13232 4.83379 4.41604 0.5
137 3.2972 12.6872 5.78841 0.5
138 7.24603 12.501 13.1112 0.5
139 5.62135 0.0624443 0.182777 0.5
140 5.31752 3.41249 4.52239 0.5
141 0.918651 3.73854 4.42555 0.5
142 10.151 2.82233 12.8791 0.5
143 1.18073 13.1373 12.5652 0.5
144 8.83367 12.849 8.84126 0.5
145 6.60396 6.91373 2.41427 0.5
146 10.2226 9.19322 8.52942 0.5
147 4.63891 6.61906 0.800459 0.5
148 12.1198 0.550244 11.4111 0.5
149 8.01565 6.90468 10.4333 0.5
150 12.578 11.1677 3.52832 0.5
151 6.62697 12.8555 10.1039 0.5
152 3.53306 4.55959 11.7631 0.5
153 11.6991 7.9262 8.3682 0.5
154 2.77926 2.59492 1.93673 0.5
155 2.56828 8.2854 10.6407 0.5
156 7.89941 12.4029 0.274201 0.5
157 1.78214 0.489629 2.97352 0.5
158 1.56317 9.59986 8.40585 0.5
159 3.75821 1.96065 9.23516 0.5
160 9.6672 0.308703 11.2129 0.5
161 12.4503 3.03231 10.7512 0.5
162 6.17374 2.65945 8.19564 0.5
163 11.8996 9.5723 0.976846 0.5
164 9.79456 3.23583 11.4044 0.5
165 7.44088 11.7288 11.2298 0.5
166 11.0112 12.5234 6.81621 0.5
167 10.6697 7.59491 8.01649 0.5
168 0.726241 2.67129 7.34359 0.5
169 10.4138 11.3968 12.7627 0.5
170 3.72713 6.4811 0.352032 0.5
171 10.4786 5.24675 0.925204 0.5
172 11.1973 8.06418 10.3869 0.5
173 8.8573 10.1698 1.62076 0.5
174 4.26092 0.955268 13.2641 0.5
175 2.721 6.40691 4.1042 0.5
176 4.10112 5.59524 3.58123 0.5
177 9.12799 4.15881 6.55245 0.5
178 5.6063 2.48624 5.05964 0.5
179 12.817 5.83622 1.64893 0.5
180 9.53505 2.50744 12.1607 0.5
181 11.0845 11.2497 9.71589 0.5
182 3.146 11.5567 1.35069 0.5
183 8.31331 7.15176 6.2698 0.5
184 10.5934 4.27414 8.70644 0.5
185 8.69811 0.582088 11.3279 0.5
186 4.21854 8.41468 2.71333 0.5
187 5.14736 0.623745 12.9948 0.5
188 5.00316 6.02712 6.80144 0.5
189 0.393479 10.8778 6.71771 0.5
190 9.52903 12.9627 3.1462 0.5
191 9.37227 7.34808 3.68578 0.5
192 10.2808 1.24254 13.4899 0.5
193 11.173 2.2768 10.2175 0.5
194 9.67309 13.0988 10.5975 0.5
195 0.493393 9.97894 12.2754 0.5
196 8.94149 0.584778 4.17152 0.5
197 2.97182 6.50871 7.9255 0.5
198 7.06857 5.87348 12.5577 0.5
199 11.1253 0.91156 8.60265 0.5
200 7.0246 6.79171 1.35872 0.5
201 13.1675 3.89094 7.61269 0.5
202 6.09871 0.407155 8.35226 0.5
203 1.80199 4.05751 1.27105 0.5
204 2.03854 7.97246 8.2738 0.5
205 13.0784 12.9184 3.66879 0.5
206 0.769203 1.64145 8.94955 0.5
207 4.28477 11.6448 8.85967 0.5
208 9.10022 3.75382 5.5773 0.5
209 5.35349 2.41313 4.05245 0.5
210 4.22301 6.52357 5.47993 0.5
211 4.28387 4.09023 10.4171 0.5
212 3.49644 5.57629 4.2576 0.5
213 3.16921 1.79351 6.15978 0.5
214 10.0226 4.18873 11.1913 0.5
215 8.00742 6.94317 1.48252 0.5
216 6.02753 8.18033 0.190729 0.5
217 4.14351 11.1554 4.75936 0.5
218 6.28803 8.02975 4.64669 0.5
219 8.86021 1.00605 3.16592 0.5
220 6.02993 2.20794 9.92333 0.5
221 3.13677 3.47632 5.45802 0.5
222 7.04166 11.1055 4.93768 0.5
223 4.66556 9.266 3.04625 0.5
224 12.6408 9.07417 4.20431 0.5
225 8.20388 11.8383 10.535 0.5
226 10.9058 6.69851 0.159388 0.5
227 13.1212 7.45412 10.0505 0.5
228 4.52626 11.4301 5.69276 0.5
229 5.61833 4.49708 6.46287 0.5
230 6.34025 9.31721 8.80234 0.5
231 8.02646 5.90159 9.11449 0.5
232 6.95005 4.96884 13.0051 0.5
233 0.65216 0.768225 9.61512 0.5
234 11.5123 1.91622 4.79304 0.5
235 1.77769 11.1962 3.06491 0.5
236 10.632 6.19202 1.0665 0.5
237 5.35555 8.01774 7.0038 0.5
238 0.989952 12.0285 5.6606 0.5
239 10.0138 8.14705 3.77674 0.5
240 1.16515 4.86068 13.1574 0.5
241 4.072 5.88908 0.884134 0.5
242 3.33058 0.843911 2.58035 0.5
243 2.57799 9.92597 3.8587 0.5
244 3.69487 11.8225 6.26869 0.5
245 1.34459 11.4055 11.4273 0.5
246 9.84121 10.1319 8.57898 0.5
247 3.58141 0.759702 10.7521 0.5
248 7.21766 2.65904 3.04609 0.5
249 10.5266 2.26357 0.107388 0.5
250 9.7765 1.82278 0.501246 0.5
251 5.39309 10.026 11.3908 0.5
252 8.32004 8.58233 12.9313 0.5
253 1.83412 8.69579 1.06354 0.5
254 10.5263 2.61726 2.50201 0.5
255 8.30461 9.51034 2.19041 0.5
256 1.95389 12.9675 3.07878 0.5
257 0.217955 3.43599 6.9649 0.5
258 13.1012 6.74734 6.81966 0.5
259 4.60635 4.54459 9.5155 0.5
260 6.21983 11.9486 10.2424 0.5
261 11.6965 3.41825 5.65951 0.5
262 7.37746 11.518 5.72318 0.5
263 2.26614 3.92609 8.17336 0.5
264 10.3834 10.7563 9.12808 0.5
265 1.4425 4.49219 4.94472 0.5
266 3.88495 13.4285 6.05807 0.5
267 5.26604 7.56302 9.23418 0.5
268 6.83417 2.56167 2.08426 0.5
269 9.17061 0.247536 8.67083 0.5
270 6.81994 9.8373 8.19876 0.5
271 11.0498 11.5176 7.2396 0.5
272 6.26641 9.11449 0.40299 0.5
273 7.7969 4.8583 3.51586 0.5
274 10.1891 3.46379 8.18125 0.5
275 2.97993 10.8173 0.783936 0.5
276 5.08225 1.64152 13.0483 0.5
277 7.79635 4.51177 13.2561 0.5
278 10.8517 10.3778 0.561683 0.5
279 9.02153 11.0898 5.18144 0.5
280 4.62157 12.3483 2.04293 0.5
281 6.20236 2.73198 10.8317 0.5
282 0.177732 11.2251 1.25719 0.5
283 5.15409 5.43811 1.89587 0.5
284 2.14624 10.9514 0.335564 0.5
285 3.91851 9.78521 5.74737 0.5
286 3.22024 1.27318 13.1264 0.5
287 7.74141 7.1864 7.01831 0.5
288 6.03854 0.272906 6.6603 0.5
289 2.65082 11.0495 3.58101 0.5
290 1.16989 13.0542 5.82577 0.5
291 5.79217 0.507654 5.60238 0.5
292 4.23812 3.4764 12.9009 0.5
293 10.8639 5.70563 3.88197 0.5
294 2.94729 10.2399 5.8965 0.5
295 2.50768 1.12769 6.14931 0.5
296 13.092 4.18847 6.59915 0.5
297 10.5954 10.6133 11.0705 0.5
298 9.64614 4.46419 12.1121 0.5
299 2.48734 0.586468 13.1895 0.5
300 9.66892 4.88469 2.27029 0.5
301 6.03472 7.28022 11.7459 0.5
302 2.61758 9.27011 2.99941 0.5
303 12.1347 8.87042 3.29216 0.5
304 0.387304 7.17721 6.51278 0.5
305 8.25104 12.6367 8.06811 0.5
306 11.7109 7.93874 1.39009 0.5
307 2.87706 6.79599 3.28936 0.5
308 13.5409 9.74647 11.362 0.5
309 13.0879 13.1552 12.3972 0.5
310 9.1917 13.3154 4.13639 0.5
311 13.4331 5.12679 6.60076 0.5
312 7.194 12.0662 10.3125 0.5
313 1.00275 11.1853 3.62194 0.5
314 6.74551 12.1541 9.41454 0.5
315 13.1896 5.02407 2.21004 0.5
316 8.56784 6.11464 8.10143 0.5
317 -0.00745366 8.50906 4.06558 0.5
318 13.1421 4.85664 5.79704 0.5
319 10.7925 11.4306 0.858554 0.5
320 5.66285 3.59402 6.84221 0.5
321 2.86276 12.9309 3.50644 0.5
322 10.1636 13.4426 0.994089 0.5
323 4.06892 1.6049 2.54903 0.5
324 10.7092 3.49731 3.01876 0.5
325 1.45207 5.37028 0.334603 0.5
326 10.5691 12.9818 0.072938 0.5
327 8.85106 2.41964 7.82732 0.5
328 12.1898 7.06142 12.5751 0.5
329 7.83424 2.86039 9.07439 0.5
330 8.1837 0.426446 5.1572 0.5
331 4.5742 3.09081 3.83845 0.5
332 12.1184 1.04604 8.58924 0.5
333 13.4641 1.09573 2.83868 0.5
334 4.53342 6.14027 1.72842 0.5
335 9.80604 0.379061 4.68728 0.5
336 4.54523 1.83347 8.57371 0.5
337 11.699 1.08102 12.1608 0.5
338 7.64251 6.00361 10.0628 0.5
339 10.3017 4.24232 2.70616 0.5
340 12.5955 3.90827 12.2097 0.5
341 8.48689 13.5851 9.47292 0.5
342 6.6732 0.306519 5.77859 0.5
343 7.01515 5.65147 9.13983 0.5
344 5.28995 6.92387 6.98728 0.5
345 8.60032 7.93865 5.85462 0.5
346 0.642574 7.36837 5.53591 0.5
347 13.3428 11.8224 0.476131 0.5
348 1.51136 4.36644 0.327316 0.5
349 7.92249 6.36016 6.58645 0.5
350 8.64293 7.62646 10.7938 0.5
351 2.58485 9.35284 10.977 0.5
352 8.80711 12.3841 7.32358 0.5
353 8.38501 7.48636 0.66042 0.5
354 2.20647 3.13126 5.72439 0.5
355 1.96456 6.99495 3.67769 0.5
356 12.3131 13.0374 4.34601 0.5
357 6.67124 12.3377 3.17905 0.5
358 3.79486 1.60568 10.1189 0.5
359 7.2491 9.24001 8.88813 0.5
360 12.1628 3.92714 6.3085 0.5
361 3.57465 1.04434 7.37808 0.5
362 1.56756 1.0447 9.18022 0.5
363 10.3606 12.3847 0.95419 0.5
364 3.37559 7.79186 1.35423 0.5
365 2.32592 7.74742 0.914119 0.5
366 6.72844 8.84852 8.07677 0.5
367 10.3884 11.9057 0.0374715 0.5
368 5.62499 4.66853 9.56406 0.5
369 1.54307 3.43484 5.05887 0.5
370 0.155108 10.1438 6.16872 0.5
371 9.61004 0.335221 3.54061 0.5
372 0.0833419 4.89977 3.73147 0.5
373 4.74482 2.47953 12.7897 0.5
374 0.634585 8.8829 12.9937 0.5
375 0.726926 9.34486 7.80715 0.5
376 1.84699 11.6344 4.00265 0.5
377 7.68368 5.68603 4.15636 0.5
378 5.96501 9.00124 13.0336 0.5
379 5.01264 5.54109 0.871325 0.5
380 6.93006 4.06744 13.5561 0.5
381 9.76304 2.80865 7.51512 0.5
382 9.67411 2.58824 8.45937 0.5
383 2.26278 4.84931 13.4523 0.5
384 5.27352 10.5826 12.9514 0.5
385 12.7746 11.2811 1.04348 0.5
386 0.282863 3.91284 3.82542 0.5
387 2.91489 6.91901 11.3021 0.5
388 1.56603 2.50622 9.97038 0.5
389 5.1324 9.32889 10.0568 0.5
390 5.16375 4.60418 10.4252 0.5
391 6.72117 0.935973 2.14761 0.5
392 0.0654434 5.43569 2.95582 0.5
393 2.67147 4.67426 8.9547 0.5
394 9.19439 9.39242 8.30057 0.5
395 1.26922 0.0495096 9.39151 0.5
396 0.710579 1.65966 2.57518 0.5
397 7.21389 1.70766 1.69304 0.5
398 9.10781 12.037 2.76096 0.5
399 1.00971 4.58476 4.09892 0.5
400 6.80373 8.7264 5.07499 0.5
401 9.76454 2.83713 0.25361 0.5
402 5.06645 7.50362 6.17115 0.5
403 6.48951 13.0417 8.06396 0.5
404 11.3371 11.1576 12.5624 0.5
405 12.1114 5.61174 13.3591 0.5
406 6.6699 3.38076 1.62736 0.5
407 2.37522 12.0096 3.24109 0.5
408 2.33222 4.08756 5.30412 0.5
409 3.42887 4.63143 10.7539 0.5
410 11.2287 2.58032 3.18082 0.5
411 4.57204 5.89665 13.5657 0.5
412 5.02394 0.954151 0.345517 0.5
413 3.65913 6.67742 8.55808 0.5
414 3.26896 8.74852 11.1858 0.5
415 7.94523 10.1713 10.9042 0.5
416 8.49169 10.3242 5.42743 0.5
417 0.28145 13.539 9.20726 0.5
418 9.27391 1.10038 10.727 0.5
419 3.58657 12.6656 10.7726 0.5
420 3.65912 0.131688 7.07414 0.5
421 13.3275 4.79381 9.61901 0.5
422 8.49316 4.46868 5.81329 0.5
423 12.7118 13.1164 2.75822 0.5
424 2.47532 3.24091 4.80012 0.5
425 8.88436 8.4354 11.3327 0.5
426 0.978434 12.3098 8.37992 0.5
427 7.56052 2.71685 1.50351 0.5
428 0.636815 8.45813 9.22052 0.5
429 10.3712 5.15537 8.44949 0.5
430 9.02301 13.0764 11.3976 0.5
431 1.99719 4.96373 8.21925 0.5
432 13.432 1.98075 2.22356 0.5
433 7.4016 11.5588 13.5815 0.5
434 0.306481 3.01229 13.4565 0.5
435 11.1993 8.88521 1.60563 0.5
436 6.90524 5.33893 10.2718 0.5
437 4.21678 9.31427 6.53859 0.5
438 5.63658 3.52202 7.81936 0.5
439 11.4915 10.7551 10.5505 0.5
440 9.2113 10.6265 6.07819 0.5
441 6.20764 1.18219 6.23994 0.5
442 1.37458 7.36385 6.15531 0.5
443 1.19427 11.1899 1.17824 0.5
444 9.10693 9.13418 13.2168 0.5
445 5.03248 8.35161 3.15455 0.5
446 3.3876 6.50365 4.8306 0.5
447 2.25598 9.39266 6.16788 0.5
448 5.83367 9.9344 13.542 0.5
449 3.325 13.4252 11.235 0.5
450 3.52859 2.90259 1.26342 0.5
451 7.58472 3.73971 1.47 0.5
452 2.3687 8.45399 0.189179 0.5
453 5.58957 9.95464 3.20581 0.5
454 3.28746 0.307566 3.57548 0.5
455 0.897508 2.27337 11.6098 0.5
456 8.26097 13.4739 8.36988 0.5
457 12.4731 11.2907 8.74243 0.5
458 3.86417 0.561622 9.85012 0.5
459 13.063 2.10193 5.30327 0.5
460 12.7067 6.35362 13.1846 0.5
461 11.9917 8.14713 11.0842 0.5
462 9.70509 1.90425 7.69966 0.5
463 6.44756 3.22564 7.48308 0.5
464 12.8548 8.20468 10.6469 0.5
465 5.3417 10.8442 11.9503 0.5
466 3.02114 13.3952 6.41952 0.5
467 1.53549 7.99101 0.373701 0.5
468 0.114943 8.37029 10.0641 0.5
469 1.84735 2.43888 11.5741 0.5
470 2.09414 6.36015 11.0784 0.5
471 4.47344 0.980027 10.4014 0.5
472 10.9544 6.69029 3.97884 0.5
473 11.2929 8.04731 7.38062 0.5
474 2.42353 7.64143 9.08044 0.5
475 6.61948 3.91927 6.60342 0.5
476 6.94373 1.26958 10.9783 0.5
477 6.0427 7.9654 9.76622 0.5
478 3.22493 12.4789 0.94999 0.5
479 8.49602 7.62506 13.2197 0.5
480 3.95813 10.1061 8.55412 0.5
481 2.38608 3.97751 0.542255 0.5
482 11.0704 13.2373 1.00526 0.5
483 8.83957 11.0774 2.12447 0.5
484 10.1366 7.21425 4.29492 0.5
485 4.49491 5.45383 2.60668 0.5
486 3.60339 10.9943 8.65957 0.5
487 3.96746 2.6416 8.47742 0.5
488 5.62345 5.27136 7.04774 0.5
489 3.61042 1.20434 3.43595 0.5
490 0.0262045 12.7329 8.61683 0.5
491 2.62444 7.53849 12.0354 0.5
492 1.00513 5.40533 12.2864 0.5
493 12.0648 8.62179 10.2134 0.5
494 7.87539 4.06454 0.543787 0.5
495 6.60258 7.39402 0.69395 0.5
496 6.62717 0.440144 0.0528362 0.5
497 4.81034 5.05442 6.73194 0.5
498 3.81019 11.9779 5.25962 0.5
499 6.65239 2.13516 11.4127 0.5
500 9.8326 8.95596 6.34943 0.5
501 5.19197 1.64748 4.65764 0.5
502 9.59444 10.3743 9.50719 0.5
503 8.56772 5.22722 12.8958 0.5
504 2.39317 1.59945 13.5025 0.5
505 4.36829 3.08165 11.9559 0.5
506 4.01169 11.0086 1.16157 0.5
507 7.71294 3.97784 4.07418 0.5
508 0.300634 1.45678 5.51741 0.5
509 5.36646 5.48582 6.01264 0.5
510 8.29999 11.1812 11.2483 0.5
511 6.60189 0.256536 7.44861 0.5
512 8.44674 11.1401 3.01117 0.5
513 4.28514 4.59136 3.22223 0.5
514 5.69101 8.59067 0.950886 0.5
515 2.34001 10.2619 2.95208 0.5
516 5.64365 9.08938 2.90134 0.5
517 1.27291 3.75355 3.45843 0.5
518 2.10935 7.031 8.31189 0.5
519 5.21981 7.69982 10.2845 0.5
520 2.04868 0.750334 0.482971 0.5
521 11.3795 6.01371 4.64382 0.5
522 2.87372 9.3428 11.9082 0.5
523 13.4903 7.90487 3.39861 0.5
524 1.02583 0.580822 5.70395 0.5
525 11.591 8.66232 0.653182 0.5
526 9.10172 12.1914 8.17221 0.5
527 7.28211 10.8723 1.56028 0.5
528 1.59314 0.0612973 13.4615 0.5
529 0.0565375 12.882 0.554521 0.5
530 11.7784 3.00555 9.96085 0.5
531 11.3338 8.93364 10.8722 0.5
532 5.8915 8.95786 4.58846 0.5
533 6.12556 7.58872 10.7763 0.5
534 1.92326 12.2767 11.1928 0.5
535 7.97674 13.1603 13.1657 0.5
536 1.99748 12.5919 3.96475 0.5
537 2.64244 11.0708 8.88701 0.5
538 7.89562 9.98427 1.3393 0.5
539 2.51843 7.75171 3.24021 0.5
540 0.614366 3.49209 7.89363 0.5
541 4.01919 11.5632 2.09959 0.5
542 7.77271 0.508185 13.4292 0.5
543 12.9219 5.8942 6.21396 0.5
544 8.00909 2.22004 8.34979 0.5
545 1.96898 7.03465 2.69709 0.5
546 1.74379 0.478075 12.4411 0.5
547 10.7175 5.27076 4.80628 0.5
548 11.8719 12.8443 6.57105 0.5
549 12.782 9.78087 7.4539 0.5
550 12.7812 12.132 3.06424 0.5
551 6.25129 1.72162 1.75452 0.5
552 4.0551 7.4146 0.611035 0.5
553 10.904 5.20149 9.28973 0.5
554 3.8135 12.749 6.69852 0.5
555 0.762216 4.61803 3.14705 0.5
556 7.08347 13.4767 12.858 0.5
557 7.60716 11.6638 0.960162 0.5
558 4.53578 1.30306 9.43007 0.5
559 3.02227 10.2551 8.3045 0.5
560 6.69301 3.18178 11.656 0.5
561 8.06853 8.77222 11.9464 0.5
562 13.0178 2.61814 13.2221 0.5
563 8.63285 6.62339 7.23773 0.5
564 8.38267 4.9102 0.320827 0.5
565 9.56524 4.67394 5.65059 0.5
566 6.82692 2.05429 10.4783 0.5
567 12.5166 4.3288 2.45392 0.5
568 7.61972 1.94464 11.0389 0.5
569 10.8299 7.12764 11.7789 0.5
570 13.4766 8.40546 2.46864 0.5
571 2.6567 0.940317 3.25287 0.5
572 4.24469 3.69807 0.344031 0.5
573 0.353717 12.7204 6.01691 0.5
574 8.95024 8.30293 3.40169 0.5
575 8.69892 13.0003 2.51983 0.5
576 3.7242 10.6602 7.71771 0.5
577 3.69345 9.27806 2.91117 0.5
578 2.21411 11.2994 1.2585 0.5
579 13.0828 9.80315 12.2682 0.5
580 2.58618 5.56072 7.52182 0.5
581 0.778743 12.7074 9.30562 0.5
582 2.82562 12.0542 10.7355 0.5
583 2.99544 11.1312 13.4328 0.5
584 10.2961 6.21586 4.66554 0.5
585 12.4093 4.97386 6.5376 0.5
586 0.254956 5.64444 9.62296 0.5
587 13.3953 2.69373 1.35753 0.5
588 0.29321 13.1274 13.0914 0.5
589 13.4029 9.58833 8.24293 0.5
590 3.78935 11.691 7.96161 0.5
591 3.61465 3.61269 12.1189 0.5
592 10.8173 11.4783 10.7522 0.5
593 6.95199 9.6277 7.21857 0.5
594 13.3056 11.0557 5.89421 0.5
595 12.8149 10.1762 5.76098 0.5
596 9.3566 9.49191 2.38463 0.5
597 2.29214 10.07 8.88534 0.5
598 7.58003 10.5627 5.69434 0.5
599 11.4749 10.9031 8.8936 0.5
600 11.9648 6.09256 12.4544 0.5
601 3.13544 5.86794 3.30572 0.5
602 13.5059 6.37633 10.2417 0.5
603 3.21457 7.79488 11.2128 0.5
604 5.42861 1.45852 10.005 0.5
605 7.43151 2.56828 11.8489 0.5
606 10.9354 9.1173 5.09281 0.5
607 8.86434 10.1772 8.78774 0.5
608 7.90841 0.371133 12.445 0.5
609 1.65027 11.794 0.494495 0.5
610 1.18006 8.51331 8.30782 0.5
611 0.245738 8.64769 8.29118 0.5
612 5.43681 13.482 3.07597 0.5
613 3.83654 5.68395 5.32887 0.5
614 3.21228 13.5179 10.2501 0.5
615 3.26978 10.3665 9.30442 0.5
616 13.2833 6.63463 2.04684 0.5
617 6.75136 5.94186 2.78222 0.5
618 11.2043 7.02012 8.55236 0.5
619 12.4953 4.5782 13.0034 0.5
620 0.859793 10.4776 11.5167 0.5
621 1.88171 3.9899 4.28748 0.5
622 5.6226 8.58521 8.87569 0.5
623 13.2952 7.5603 4.41895 0.5
624 12.9598 5.92998 2.61661 0.5
625 2.08452 3.46597 11.1751 0.5
626 2.79926 4.25346 1.4913 0.5
627 9.95961 6.76251 0.573006 0.5
628 13.3863 4.24345 10.4306 0.5
629 5.2583 4.35216 3.23474 0.5
630 3.35282 3.72999 0.911188 0.5
631 9.26845 1.08278 -0.0240768 0.5
632 6.33234 13.0117 13.3893 0.5
633 9.97882 0.873911 0.860703 0.5
634 10.5378 10.4267 10.0783 0.5
635 9.67786 2.03268 13.0896 0.5
636 9.67762 3.4599 12.2978 0.5
637 12.9768 10.4503 6.70179 0.5
638 5.68574 0.822414 4.68666 0.5
639 9.14893 6.83501 10.5923 0.5
640 2.28332 4.54794 7.37778 0.5
641 7.33685 6.98836 6.07216 0.5
642 11.283 5.82305 0.37663 0.5
643 10.7013 1.50174 7.81597 0.5
644 6.6708 3.62718 10.6587 0.5
645 0.60034 11.0426 5.80597 0.5
646 9.03176 8.85357 12.2285 0.5
647 8.64841 4.73151 12.0034 0.5
648 8.26179 10.2358 11.8896 0.5
649 5.37138 7.85114 11.3605 0.5
650 2.62174 0.491723 6.96445 0.5
651 0.223704 5.63065 5.84495 0.5
652 5.14022 4.25309 7.29961 0.5
653 0.23 6.41901 2.87542 0.5
654 4.86089 10.1264 10.492 0.5
655 11.7979 11.7654 9.22954 0.5
656 0.681463 11.2926 0.341665 0.5
657 11.1493 13.3914 6.29666 0.5
658 9.13347 9.60497 5.94105 0.5
659 1.27536 10.379 2.91157 0.5
660 0.800288 0.663491 8.66029 0.5
661 1.33216 7.63017 8.8789 0.5
662 3.72141 10.8643 5.64297 0.5
663 5.82589 12.659 3.63906 0.5
664 5.18849 6.42261 5.94804 0.5
665 10.314 10.9283 3.29205 0.5
666 5.77436 11.605 9.28849 0.5
667 9.75196 4.29206 8.37809 0.5
668 5.3885 3.3865 3.47238 0.5
669 8.04201 10.4724 2.17167 0.5
670 9.09987 13.1812 7.91632 0.5
671 6.65719 8.35087 0.964455 0.5
672 2.96269 2.50258 5.27543 0.5
673 5.29301 8.96104 0.104492 0.5
674 3.2327 8.38401 12.0816 0.5
675 2.96333 3.90635 11.3304 0.5
676 2.68427 0.0541383 2.78008 0.5
677 3.29561 8.36549 3.04501 0.5
678 12.1628 7.59105 10.2937 0.5
679 10.6661 11.775 6.2687 0.5
680 4.89586 11.5146 1.59371 0.5
681 3.71702 1.00643 8.86831 0.5
682 2.28147 2.6445 10.7253 0.5
683 1.20429 6.23842 11.508 0.5
684 12.0125 12.8682 3.39518 0.5
685 12.4597 12.138 3.99249 0.5
686 10.9601 8.11019 11.3303 0.5
687 5.06651 9.64585 13.0456 0.5
688 1.4595 7.97442 5.38814 0.5
689 3.19172 3.46674 2.01817 0.5
690 4.55059 8.65178 7.32796 0.5
691 13.5629 10.7056 11.8108 0.5
692 4.54138 0.10752 0.113187 0.5
693 11.0688 6.05893 11.9576 0.5
694 5.95243 9.00515 9.72474 0.5
695 12.6239 8.15485 2.86291 0.5
696 10.5929 2.51244 7.93728 0.5
697 13.3821 8.98023 7.39011 0.5
698 6.19855 10.228 6.57273 0.5
699 3.31066 8.06629 0.415929 0.5
700 12.6116 8.20693 3.86066 0.5
701 9.3125 8.18025 12.948 0.5
702 3.61752 1.73878 8.11069 0.5
703 1.75029 5.57451 12.9159 0.5
704 8.80168 2.63693 8.80879 0.5
705 10.7204 6.61597 7.73722 0.5
706 6.47056 11.8137 5.21643 0.5
707 3.58284 4.40368 9.73106 0.5
708 13.1803 1.73833 1.30819 0.5
709 9.92212 0.244682 0.0344016 0.5
710 6.96703 6.27628 3.79967 0.5
711 0.802822 0.419972 12.8105 0.5
712 12.6038 2.65659 9.80551 0.5
713 8.45169 10.0179 7.93087 0.5
714 12.3619 4.18257 7.27024 0.5
715 13.1302 8.92555 3.32414 0.5
716 1.51309 1.93754 10.8478 0.5
717 3.02816 7.10167 0.717214 0.5
718 10.8655 0.484038 7.73446 0.5
719 4.61725 10.6949 11.342 0.5
720 12.3888 11.2861 2.65572 0.5
721 11.2956 4.94066 8.33934 0.5
722 6.03287 0.270039 12.7612 0.5
723 3.19767 11.8623 8.74613 0.5
724 9.40961 13.3593 9.60143 0.5
725 2.23479 2.14798 5.97265 0.5
726 7.20985 2.83616 8.21935 0.5
727 5.01541 3.14108 13.5121 0.5
728 12.5286 1.84107 4.55635 0.5
729 9.59137 4.90697 1.23678 0.5
730 8.47735 5.64578 7.13199 0.5
731 10.7912 0.43877 0.39177 0.5
732 1.32658 3.59166 8.53132 0.5
733 8.29739 11.3905 0.407482 0.5
734 9.98118 11.0675 5.69785 0.5
735 2.89822 5.57525 8.4635 0.5
736 4.37391 4.67824 11.2021 0.5
737 4.74788 4.08259 3.94416 0.5
738 2.17253 7.48019 11.0841 0.5
739 7.42375 13.3633 7.67594 0.5
740 11.7446 0.307451 8.04025 0.5
741 7.65408 4.31779 5.15002 0.5
742 5.4663 9.54308 0.871996 0.5
743 6.92108 7.85867 5.52309 0.5
744 5.14032 3.37125 12.453 0.5
745 6.52996 6.56484 12.0786 0.5
746 5.09367 8.42822 9.68927 0.5
747 13.1059 0.198816 11.6205 0.5
748 7.63743 9.3287 7.97058 0.5
749 6.19663 9.41807 3.71431 0.5
750 1.59341 1.06411 13.1543 0.5
751 13.373 8.63702 13.0936 0.5
752 2.34033 1.33945 12.6257 0.5
753 6.6284 2.48508 1.17093 0.5
754 2.44711 11.5641 11.5894 0.5
755 6.89387 4.16283 0.995762 0.5
756 6.53607 7.66086 1.72695 0.5
757 11.7317 6.6293 11.7383 0.5
758 4.69613 12.0679 4.94086 0.5
759 12.6553 8.97646 2.37254 0.5
760 7.23214 4.80734 4.38528 0.5
761 3.61943 11.5972 0.487709 0.5
762 0.175752 2.40141 0.599116 0.5
763 12.3817 0.117551 3.57365 0.5
764 8.6378 9.29671 3.16023 0.5
765 12.7385 2.29487 0.624063 0.5
766 7.76259 3.2507 4.78491 0.5
767 3.82089 6.85617 1.3461 0.5
768 12.5186 13.4238 10.8302 0.5
769 11.3964 2.40973 5.6973 0.5
770 11.4478 7.72322 6.34906 0.5
771 7.6541 7.87783 6.20454 0.5
772 0.714042 2.13045 10.5703 0.5
773 9.20091 3.3888 8.15535 0.5
774 9.39305 0.209801 2.54144 0.5
775 10.6074 13.5499 10.8808 0.5
776 3.27056 9.39969 6.37632 0.5
777 11.4834 12.3467 4.06878 0.5
778 11.8173 11.8982 3.22974 0.5
779 7.90639 7.5341 5.32593 0.5
780 2.88685 11.1779 7.97684 0.5
781 13.078 1.44385 6.09572 0.5
782 11.1237 3.2486 3.93873 0.5
783 0.126315 9.09685 12.1651 0.5
784 1.90026 2.45167 5.02871 0.5
785 9.95941 9.30765 5.30979 0.5
786 8.51709 3.94653 4.80019 0.5
787 6.02939 12.7546 2.6443 0.5
788 11.5281 7.26875 10.9829 0.5
789 9.30493 4.17146 2.731 0.5
790 8.43323 0.487645 2.34635 0.5
791 5.05149 7.0503 11.9632 0.5
792 5.51869 2.66428 7.37037 0.5
793 6.82749 8.60324 4.02809 0.5
794 13.4354 0.140361 3.11882 0.5
795 7.33126 7.94294 4.65333 0.5
796 4.34731 10.6844 9.22065 0.5
797 3.96609 3.8409 11.2815 0.5
798 1.73458 3.06342 4.1805 0.5
799 13.543 0.57443 5.79465 0.5
800 0.613513 8.18748 0.0724269 0.5
801 7.71341 5.90363 3.16327 0.5
802 4.54623 11.0817 12.3336 0.5
803 11.3817 11.0082 11.4867 0.5
804 13.088 5.427 8.90821 0.5
805 8.83931 8.60017 2.43985 0.5
806 2.98525 7.50706 8.36125 0.5
807 2.95209 4.66533 7.99452 0.5
808 1.74365 9.58613 3.45103 0.5
809 9.27128 4.71187 11.2291 0.5
810 2.88807 12.5644 11.5898 0.5
811 10.2652 7.29081 3.2759 0.5
812 2.36251 8.44334 11.5576 0.5
813 7.7394 5.19559 12.4127 0.5
814 9.66453 0.47884 5.70299 0.5
815 11.6165 11.6454 8.20992 0.5
816 9.35046 7.5132 0.275305 0.5
817 11.4993 10.9714 3.2652 0.5
818 3.80924 10.6406 0.188719 0.5
819 5.75478 13.413 7.57456 0.5
820 0.0211915 0.0852763 8.24747 0.5
821 11.2855 2.98788 4.8652 0.5
822 8.97065 0.931795 5.17991 0.5
823 9.94374 0.389191 10.1915 0.5
824 2.10666 8.79376 5.28832 0.5
825 7.6909 1.2077 2.39944 0.5
826 6.53686 13.0017 8.98049 0.5
827 10.8281 0.584474 1.28286 0.5
828 4.58966 3.68042 2.98376 0.5
829 4.45061 2.34896 7.63659 0.5
830 5.15518 12.1719 8.816 0.5
831 11.4117 13.228 7.33645 0.5
832 0.708449 5.78559 10.6075 0.5
833 1.98129 11.4718 10.7196 0.5
834 8.90694 2.08149 0.00761996 0.5
835 1.23849 6.35357 12.5476 0.5
836 7.56183 9.60403 11.77 0.5
837 7.13354 3.24173 0.659257 0.5
838 12.2762 13.1684 11.8015 0.5
839 4.32514 5.12545 1.57726 0.5
840 7.1836 13.2919 0.210703 0.5
841 6.25689 11.2366 6.8757 0.5
842 12.6796 4.13478 11.1803 0.5
843 12.5221 3.01271 12.5101 0.5
844 4.93723 4.06748 13.1502 0.5
845 9.90129 5.57645 5.30734 0.5
846 6.12253 12.13 8.55541 0.5
847 4.43047 7.69291 6.88046 0.5
848 4.85198 6.29233 12.5434 0.5
849 1.10423 12.4703 6.62216 0.5
850 10.776 10.5664 12.1535 0.5
851 7.09402 10.5146 6.63273 0.5
852 7.52654 10.3134 7.6512 0.5
853 4.65798 8.17975 8.83937 0.5
854 10.0199 6.38325 3.67007 0.5
855 9.45833 11.1168 2.94006 0.5
856 2.24051 0.113063 3.75465 0.5
857 9.68148 4.76001 10.3177 0.5
858 7.70269 10.0992 8.68668 0.5
859 11.411 5.46726 5.4563 0.5
860 10.5709 5.12051 5.83332 0.5
861 11.0774 12.5973 5.86133 0.5
862 10.5313 7.32652 10.6753 0.5
863 7.77047 8.49191 5.43257 0.5
864 8.14613 7.07909 7.96722 0.5
865 11.9745 3.68232 12.9909 0.5
866 5.32317 13.165 2.0697 0.5
867 12.4042 3.98761 0.25004 0.5
868 9.46417 9.40691 9.1982 0.5
869 4.40233 0.147833 12.6876 0.5
870 3.74656 8.53092 6.71568 0.5
871 12.857 8.43233 4.87369 0.5
872 0.835702 5.79057 13.2787 0.5
873 13.3428 0.268717 2.19911 0.5
874 7.67427 5.53211 13.3296 0.5
875 7.46392 12.0198 4.773 0.5
876 2.08655 6.02559 8.28855 0.5
877 10.758 7.44377 6.99588 0.5
878 2.63431 11.725 0.44606 0.5
879 1.58133 3.17429 7.57852 0.5
880 12.586 0.541545 2.78601 0.5
881 10.7316 10.5298 13.1265 0.5
882 1.78656 10.5982 3.77631 0.5
883 11.1785 12.2522 0.423038 0.5
884 13.1067 3.24778 0.480782 0.5
885 7.59878 11.0692 10.5861 0.5
886 13.4693 2.83811 7.83012 0.5
887 0.388663 13.4291 12.0205 0.5
888 4.72912 4.51057 2.33159 0.5
889 10.5032 4.41349 7.73199 0.5
890 11.346 8.54637 5.78319 0.5
891 2.14754 6.14854 3.19046 0.5
892 9.14086 0.744482 9.66442 0.5
893 9.73771 3.84086 7.37919 0.5
894 7.44326 7.74508 1.22145 0.5
895 12.2588 8.78127 1.48256 0.5
896 6.96375 12.3334 0.484729 0.5
897 6.40273 13.4349 3.17859 0.5
898 5.15647 12.523 2.8594 0.5
899 9.91454 4.91385 9.28643 0.5
900 12.1453 10.9184 9.64711 0.5
901 13.4417 5.35333 10.5407 0.5
902 10.9707 5.9721 8.51955 0.5
903 9.61184 8.86781 3.09887 0.5
904 8.19678 3.45626 5.65348 0.5
905 0.1919 6.10796 6.68562 0.5
906 12.7993 5.02372 3.18388 0.5
907 7.1779 4.39192 10.1964 0.5
908 9.01454 13.583 5.148 0.5
909 9.7772 3.33104 2.62901 0.5
910 7.91738 2.71128 7.51116 0.5
911 5.76679 6.87424 12.6456 0.5
912 8.55315 9.35947 11.3694 0.5
913 11.0568 5.92469 12.9926 0.5
914 5.24644 13.1798 12.9835 0.5
915 8.0352 2.37187 5.47896 0.5
916 10.6824 8.35915 6.57738 0.5
917 11.514 0.0547613 12.0475 0.5
918 7.54346 6.35741 8.48119 0.5
919 13.3597 12.1637 1.33559 0.5
920 0.329303 11.3008 10.1426 0.5
921 5.6153 6.19982 7.59131 0.5
922 11.9304 3.28975 11.6219 0.5
923 0.916403 2.74367 8.2575 0.5
924 11.8001 11.6598 10.2507 0.5
925 10.6852 3.55239 2.10668 0.5
926 4.29253 10.3713 12.9636 0.5
927 1.5128 6.90446 5.26414 0.5
928 13.4394 6.63906 5.8526 0.5
929 1.30363 2.88349 10.8968 0.5
930 10.447 9.85067 9.33677 0.5
931 5.73959 9.91172 12.4167 0.5
932 4.1609 8.61491 3.58967 0.5