ITEM: TIMESTEP
100000
ITEM: NUMBER OF ATOMS
1000
ITEM: BOX BOUNDS xy xz yz pp pp pp
0.0000000000000000e+00 1.3572088000000001e+01 0.0000000000000000e+00
0.0000000000000000e+00 1.3572088000000001e+01 0.0000000000000000e+00
0.0000000000000000e+00 1.3572088000000001e+01 0.0000000000000000e+00
ITEM: ATOMS id x y z radius
1 4.61808 4.10341 12.1134 0.5
2 4.91125 10.1795 3.74616 0.5
3 8.40057 9.74623 3.31936 0.5
4 9.4953 5.64126 1.65955 0.5
5 8.88182 7.67301 10.4299 0.5
6 4.72974 12.4327 6.02589 0.5
7 3.38305 8.7499 0.88046 0.5
8 13.5725 12.5399 1.35325 0.5
9 1.5662 7.91862 5.96071 0.5
10 3.09773 12.8288 10.4933 0.5
11 0.278544 9.23735 8.84359 0.5
12 10.4411 6.00938 1.59974 0.5
13 9.76582 11.602 6.44154 0.5
14 11.0776 2.39096 3.79763 0.5
15 6.64945 1.66866 4.61245 0.5
16 7.80783 7.02783 8.62302 0.5
17 7.23657 12.2169 10.4355 0.5
18 2.31129 8.56781 5.80348 0.5
19 8.62467 5.02197 1.71356 0.5
20 9.89101 11.7967 3.20011 0.5
21 1.98885 4.90143 1.02929 0.5
22 2.1476 7.33767 11.9825 0.5
23 1.81609 1.33383 9.94991 0.5
24 7.24375 7.68105 2.18283 0.5
25 1.41527 6.08057 2.29144 0.5
26 10.7464 9.78541 5.86819 0.5
27 11.6712 6.38752 13.1361 0.5
28 5.53575 11.2793 11.0119 0.5
29 0.867439 6.16082 1.43158 0.5
30 7.95366 10.8377 1.93784 0.5
31 0.36186 0.0277183 8.51737 0.5
32 10.5119 2.60253 13.3775 0.5
33 0.50761 5.87799 10.0111 0.5
34 2.9766 9.47245 5.85192 0.5
35 12.3328 6.64259 0.332362 0.5
36 9.53051 0.777429 6.07222 0.5
37 13.2447 0.159124 3.63635 0.5
38 4.4515 1.29256 2.2921 0.5
39 9.50922 4.53642 1.78713 0.5
40 6.44199 5.5486 6.82719 0.5
41 8.82972 11.5383 6.16084 0.5
42 6.24213 5.74304 3.76887 0.5
43 5.38008 5.29552 9.7967 0.5
44 2.21727 10.3587 8.35291 0.5
45 6.89659 6.52102 2.17193 0.5
46 10.1481 11.4228 13.3303 0.5
47 1.92276 9.56775 5.71189 0.5
48 8.17052 10.6367 0.970536 0.5
49 5.57577 12.1453 10.5352 0.5
50 4.45777 2.37969 11.1147 0.5
51 13.4504 10.2798 7.64062 0.5
52 6.43324 10.4249 7.56431 0.5
53 9.35086 3.48072 1.7796 0.5
54 11.2711 10.8954 3.38236 0.5
55 1.02809 1.86528 6.63884 0.5
56 11.815 5.69261 3.35272 0.5
57 13.2484 11.8578 10.5581 0.5
58 5.02724 7.64776 9.36241 0.5
59 0.520144 10.7905 11.5652 0.5
60 7.89951 5.97628 8.85484 0.5
61 3.4981 12.5618 11.396 0.5
62 0.163686 8.82775 1.10796 0.5
63 12.1128 9.17831 2.09202 0.5
64 11.6396 1.80122 10.2441 0.5
65 13.5649 2.88147 5.14579 0.5
66 13.5072 1.00175 2.36457 0.5
67 8.89848 3.11179 7.17538 0.5
68 4.1344 1.14395 3.22244 0.5
69 11.9351 1.86735 11.2453 0.5
70 11.5803 3.28413 11.491 0.5
71 2.35091 6.89622 9.03106 0.5
72 8.04408 3.89808 9.86916 0.5
73 8.69171 7.33097 8.42083 0.5
74 5.65053 4.37187 10.0175 0.5
75 8.3186 0.664859 10.5043 0.5
76 12.6473 2.94288 1.47985 0.5
77 9.2683 2.37815 2.94646 0.5
78 8.73779 2.94501 5.54963 0.5
79 3.90384 12.2315 6.3176 0.5
80 5.43861 2.50542 8.58481 0.5
81 2.4777 2.67302 11.2367 0.5
82 0.874701 9.07565 0.539267 0.5
83 3.48727 1.0907 6.98784 0.5
84 12.3818 9.14387 9.64325 0.5
85 0.160795 3.50779 7.69795 0.5
86 3.34292 0.551562 0.227474 0.5
87 4.68182 5.81218 6.31235 0.5
88 6.29852 6.19547 4.69505 0.5
89 11.5801 13.007 6.91113 0.5
90 3.65196 5.04202 4.72384 0.5
91 11.5885 6.98914 12.2968 0.5
92 0.380341 0.381046 2.94038 0.5
93 1.7484 0.894641 1.44999 0.5
94 4.72743 10.1203 11.9647 0.5
95 11.9963 1.65367 8.64278 0.5
96 10.9693 2.76762 2.75539 0.5
97 11.8979 3.44729 5.01786 0.5
98 11.6569 11.162 0.159015 0.5
99 6.68474 8.75706 8.63923 0.5
100 0.780725 6.59263 5.40398 0.5
101 4.35213 11.8674 1.47923 0.5
102 8.50406 7.20685 11.1209 0.5
103 3.81349 5.39175 10.5002 0.5
104 6.6685 10.3207 5.87442 0.5
105 11.5074 13.4548 5.91646 0.5
106 7.23065 1.89852 9.28464 0.5
107 0.360498 4.65445 9.09737 0.5
108 0.0881487 10.989 5.36497 0.5
109 0.62954 11.0057 9.5306 0.5
110 8.5548 9.26427 8.64832 0.5
111 8.12238 0.605972 2.89442 0.5
112 6.0452 0.833598 4.28347 0.5
113 1.44038 0.874967 6.21081 0.5
114 6.93882 7.0627 3.01777 0.5
115 5.127 6.38309 11.9368 0.5
116 0.573753 5.66064 2.30784 0.5
117 0.743127 0.184542 5.83706 0.5
118 11.2867 8.98182 6.1821 0.5
119 11.1687 8.75434 2.09146 0.5
120 4.69914 8.499 3.72115 0.5
121 12.1396 12.9964 11.3987 0.5
122 2.54917 2.89181 2.79141 0.5
123 11.5139 1.01159 10.8124 0.5
124 10.937 11.322 11.7884 0.5
125 4.58745 11.0691 4.06134 0.5
126 11.0839 11.4269 12.8366 0.5
127 7.82928 10.3135 11.1757 0.5
128 5.7715 2.08777 7.6737 0.5
129 2.4117 7.4199 10.9731 0.5
130 0.560759 11.7943 8.88174 0.5
131 7.5887 1.79758 0.76841 0.5
132 4.6599 11.1359 2.03429 0.5
133 0.495353 11.2453 10.5743 0.5
134 10.3491 11.1005 3.7891 0.5
135 12.5388 2.68773 5.33325 0.5
136 7.70121 5.28241 4.61707 0.5
137 3.99218 13.1337 5.80884 0.5
138 7.46127 11.8138 13.2211 0.5
139 5.78721 13.5558 13.0013 0.5
140 6.08449 3.39498 3.47874 0.5
141 1.24124 3.7234 4.77681 0.5
142 9.62406 3.25306 13.476 0.5
143 0.380782 0.301373 12.6211 0.5
144 9.10334 13.0477 7.52504 0.5
145 6.27306 7.29754 2.41994 0.5
146 10.3535 9.16029 8.6785 0.5
147 3.9938 6.62592 0.0184475 0.5
148 12.9363 13.5821 11.3357 0.5
149 7.76325 6.80425 9.59676 0.5
150 12.3725 11.0296 3.1692 0.5
151 6.36564 12.2013 9.8722 0.5
152 3.58796 4.13383 11.6407 0.5
153 12.0258 6.65458 8.52577 0.5
154 3.45897 3.1462 2.39847 0.5
155 1.83164 8.92841 10.682 0.5
156 8.31617 11.9501 0.315607 0.5
157 2.17163 0.925604 3.59186 0.5
158 0.803112 8.75234 8.14832 0.5
159 3.74777 1.72067 9.5498 0.5
160 8.80772 1.1812 11.2286 0.5
161 13.2406 3.26299 11.6148 0.5
162 7.3895 2.81947 6.83532 0.5
163 11.3977 9.24008 0.401531 0.5
164 9.16751 3.37862 12.5428 0.5
165 7.3877 11.3186 10.9333 0.5
166 10.9073 0.242953 6.76016 0.5
167 11.4391 7.4043 8.53093 0.5
168 1.90597 3.43067 7.41812 0.5
169 10.2624 11.8659 12.3839 0.5
170 3.79235 6.82304 0.98906 0.5
171 10.2579 4.96914 1.22725 0.5
172 10.8503 6.9482 10.9653 0.5
173 8.68441 10.5324 2.70883 0.5
174 4.15785 0.452723 13.2695 0.5
175 2.97452 6.67556 3.7063 0.5
176 3.97535 5.4477 3.84184 0.5
177 9.14866 3.96293 5.26123 0.5
178 6.37973 2.47272 4.01001 0.5
179 13.5269 6.38038 2.8635 0.5
180 9.7133 2.54579 12.7198 0.5
181 10.7568 11.6416 8.77513 0.5
182 2.71855 12.1505 0.479722 0.5
183 8.39507 7.90307 6.62725 0.5
184 9.82097 4.1627 9.39768 0.5
185 8.60678 1.62026 10.271 0.5
186 3.56784 8.49997 2.40414 0.5
187 4.92011 13.1601 13.4008 0.5
188 5.12716 6.06031 7.16998 0.5
189 0.405994 11.2072 6.31398 0.5
190 7.58947 13.4234 2.53898 0.5
191 9.65847 7.72992 3.88626 0.5
192 10.7707 0.85552 13.4913 0.5
193 12.4257 1.29876 10.5878 0.5
194 8.36918 0.35074 11.5447 0.5
195 12.7382 9.35535 12.0228 0.5
196 8.83074 0.437825 3.55389 0.5
197 2.77503 7.07267 8.18797 0.5
198 7.07886 6.65223 12.0784 0.5
199 11.128 2.03077 8.52093 0.5
200 6.67368 7.16103 1.36904 0.5
201 0.55313 3.75793 8.61741 0.5
202 6.63219 0.0386445 7.56367 0.5
203 1.84139 3.31244 1.26128 0.5
204 0.780982 7.7211 8.45161 0.5
205 12.156 12.5051 4.0906 0.5
206 1.29372 0.544038 10.2292 0.5
207 5.6661 12.673 8.53401 0.5
208 9.4418 4.99736 6.91869 0.5
209 5.53991 2.51753 3.5002 0.5
210 4.10293 6.38822 5.586 0.5
211 3.64011 4.38451 10.5794 0.5
212 3.25621 5.92121 4.27528 0.5
213 3.66826 1.9223 5.16913 0.5
214 9.84013 3.09826 11.7761 0.5
215 7.58112 6.84785 1.50617 0.5
216 6.24002 8.48073 13.5355 0.5
217 4.1433 11.2792 4.93493 0.5
218 6.1787 7.87008 3.1541 0.5
219 8.7268 1.34466 3.08295 0.5
220 6.74756 1.03348 9.29119 0.5
221 3.06879 3.10459 6.58617 0.5
222 6.52225 10.9041 5.04228 0.5
223 3.4332 9.36055 2.89096 0.5
224 13.2721 9.31424 3.39894 0.5
225 8.0987 12.0161 11.1306 0.5
226 11.3184 6.41029 0.514835 0.5
227 11.9101 9.15923 10.4934 0.5
228 3.46846 11.4301 5.78785 0.5
229 5.15451 4.24374 6.5977 0.5
230 6.43164 9.61834 8.88151 0.5
231 8.61228 6.57146 9.11679 0.5
232 6.76178 5.83664 12.6385 0.5
233 1.71261 0.491648 9.34805 0.5
234 11.8616 2.59308 4.42549 0.5
235 1.32215 11.4561 3.79904 0.5
236 10.0237 5.83069 0.769667 0.5
237 5.60728 8.49508 6.24801 0.5
238 0.790238 12.7736 5.52536 0.5
239 10.6028 7.68329 4.3211 0.5
240 2.89421 4.79666 12.1551 0.5
241 4.05805 5.84049 0.722762 0.5
242 3.94962 0.51605 2.41782 0.5
243 1.96713 10.0003 3.37472 0.5
244 3.18206 12.4385 5.71306 0.5
245 0.247703 11.7284 11.4293 0.5
246 9.50653 9.47799 8.39283 0.5
247 3.77088 0.0691319 10.0539 0.5
248 7.60955 2.71137 1.44064 0.5
249 10.6224 1.72408 0.40125 0.5
250 9.86017 1.1519 0.172725 0.5
251 5.06877 9.64428 11.0599 0.5
252 9.35706 8.59788 0.570515 0.5
253 1.21488 8.74666 1.44545 0.5
254 9.94219 3.1078 2.43627 0.5
255 8.72728 9.48226 2.43463 0.5
256 1.81357 13.4812 3.7152 0.5
257 1.09962 4.03078 7.70953 0.5
258 0.662286 5.51658 6.56724 0.5
259 3.90099 4.91933 9.6961 0.5
260 6.9858 11.3879 9.98084 0.5
261 11.0811 3.48873 5.55453 0.5
262 7.4346 10.4435 5.11919 0.5
263 3.0314 4.50265 8.29042 0.5
264 11.2027 10.8106 8.36464 0.5
265 1.52265 4.66023 4.52438 0.5
266 4.47364 13.0972 6.71831 0.5
267 5.0358 8.25205 8.51538 0.5
268 6.73004 2.09385 1.31035 0.5
269 8.432 0.176123 7.43086 0.5
270 7.06988 10.2185 8.39139 0.5
271 10.5208 0.413465 5.7898 0.5
272 6.27336 9.37482 0.300418 0.5
273 7.18466 5.22285 3.76907 0.5
274 10.023 3.32496 8.87582 0.5
275 2.55934 11.47 1.07987 0.5
276 5.10993 0.599794 11.6224 0.5
277 7.59252 5.22152 12.873 0.5
278 10.8635 10.5398 13.2889 0.5
279 9.62352 11.1062 5.5796 0.5
280 5.04666 11.3469 1.06709 0.5
281 7.11475 3.54061 9.96065 0.5
282 0.0359312 11.6584 1.86436 0.5
283 4.7684 5.36208 2.01157 0.5
284 1.60351 11.0887 1.02369 0.5
285 2.53363 10.1692 6.36316 0.5
286 3.24348 0.883208 12.8682 0.5
287 7.93734 6.96823 6.59281 0.5
288 5.75389 0.402813 5.16135 0.5
289 2.12463 10.949 3.77503 0.5
290 1.30578 13.037 6.33004 0.5
291 6.68312 0.778419 5.11175 0.5
292 4.70294 3.17227 12.5281 0.5
293 10.9573 5.57768 4.00856 0.5
294 1.65802 9.8989 6.71095 0.5
295 3.46154 1.48525 6.03124 0.5
296 0.128688 4.48888 7.97079 0.5
297 10.4275 12.1019 11.3818 0.5
298 10.629 3.61331 11.6995 0.5
299 2.33605 0.545893 13.2634 0.5
300 8.73658 4.17294 1.21345 0.5
301 6.42767 7.28053 11.5048 0.5
302 2.72622 9.27885 3.47654 0.5
303 12.7716 8.726 2.63506 0.5
304 1.20158 6.28354 6.24646 0.5
305 7.64998 12.4875 8.28019 0.5
306 10.7892 8.75501 1.11998 0.5
307 2.19768 7.25424 3.38887 0.5
308 0.672726 9.96931 12.1988 0.5
309 13.1916 13.4895 12.9738 0.5
310 7.86211 13.3503 3.53514 0.5
311 0.0666368 4.81046 7.04683 0.5
312 8.01152 11.5559 10.1671 0.5
313 0.657066 11.0938 4.5523 0.5
314 5.97919 11.3175 10.1034 0.5
315 12.6939 5.87644 3.0363 0.5
316 8.64463 5.48059 7.47336 0.5
317 13.1176 9.02397 4.29124 0.5
318 12.6846 4.89659 6.6897 0.5
319 10.5985 10.948 0.572023 0.5
320 5.82236 2.7336 6.87175 0.5
321 2.45875 12.8492 3.13588 0.5
322 9.77282 12.9598 0.89517 0.5
323 4.85809 0.599262 2.74622 0.5
324 9.6017 3.3163 3.32875 0.5
325 1.29573 5.73013 12.5848 0.5
326 10.6311 12.8098 0.529299 0.5
327 9.44407 2.27111 7.45216 0.5
328 12.4679 6.86946 12.8717 0.5
329 8.00431 3.23706 7.41474 0.5
330 9.07182 1.01046 4.38728 0.5
331 5.12361 3.44891 3.34785 0.5
332 11.6773 2.38576 9.30996 0.5
333 13.428 1.09979 3.35063 0.5
334 4.71874 6.66475 0.740931 0.5
335 8.77991 13.045 3.93248 0.5
336 4.24863 1.28874 8.63814 0.5
337 11.7701 0.820663 9.95355 0.5
338 7.14887 5.60543 9.57558 0.5
339 8.7509 4.16948 2.20777 0.5
340 13.2113 3.49185 13.2714 0.5
341 9.62204 0.463018 9.48489 0.5
342 6.04623 0.86489 5.95203 0.5
343 6.93868 4.81039 9.045 0.5
344 4.87488 7.84852 6.64813 0.5
345 7.49661 7.80242 6.29763 0.5
346 0.724202 7.22854 6.15672 0.5
347 13.1099 11.0022 1.35799 0.5
348 1.3466 4.192 1.1004 0.5
349 8.92351 7.1701 6.41883 0.5
350 7.88526 7.54683 10.3698 0.5
351 2.04025 9.88133 11.1316 0.5
352 8.89872 12.1956 6.94519 0.5
353 8.37574 7.62917 1.67315 0.5
354 2.74117 3.209 5.54217 0.5
355 1.43857 6.9624 2.85982 0.5
356 11.5947 13.3934 3.96623 0.5
357 5.47537 11.0696 3.6753 0.5
358 4.13776 0.973548 10.1392 0.5
359 7.47157 9.39986 8.79326 0.5
360 12.9745 4.15905 7.41643 0.5
361 3.7251 1.77306 7.81266 0.5
362 1.01152 1.25012 9.42258 0.5
363 10.0814 11.8741 0.691845 0.5
364 3.45195 8.26071 13.5433 0.5
365 2.65366 8.88555 0.186603 0.5
366 6.85801 9.40573 7.94177 0.5
367 10.9287 11.8653 0.0995179 0.5
368 4.77915 4.64408 9.36811 0.5
369 2.03411 3.12052 4.80212 0.5
370 13.2456 10.4324 6.17854 0.5
371 8.57487 13.3232 2.91482 0.5
372 0.0163204 4.56 3.8673 0.5
373 5.73073 2.80582 12.408 0.5
374 0.552158 9.22272 13.05 0.5
375 13.4967 9.32209 7.97893 0.5
376 2.35422 11.8277 4.17378 0.5
377 7.19762 6.08951 4.22058 0.5
378 5.96439 9.29404 12.8343 0.5
379 4.74547 5.88334 0.0356592 0.5
380 6.84112 4.87864 13.427 0.5
381 10.2798 2.53566 8.19149 0.5
382 8.72289 1.64498 7.68223 0.5
383 1.2312 5.23915 1.64443 0.5
384 5.63929 10.1813 12.4551 0.5
385 12.7748 11.8915 1.37834 0.5
386 0.567928 4.47104 4.68608 0.5
387 1.53496 7.01576 11.1534 0.5
388 1.02717 1.57967 10.4454 0.5
389 5.21166 9.46241 10.0988 0.5
390 4.69542 4.73876 10.3963 0.5
391 7.42202 0.706233 1.9514 0.5
392 0.0496588 5.44524 3.23258 0.5
393 3.09057 5.11513 9.07968 0.5
394 9.44183 9.0148 9.15459 0.5
395 1.06729 0.684979 8.50025 0.5
396 0.540109 0.712285 3.89718 0.5
397 6.94836 1.10716 1.0848 0.5
398 7.99971 10.8403 4.40773 0.5
399 0.951202 4.03631 3.90439 0.5
400 6.74805 8.65911 3.70086 0.5
401 9.7501 2.23148 0.11185 0.5
402 5.40857 7.65783 5.80246 0.5
403 7.05043 12.7739 7.45549 0.5
404 10.4656 10.4451 11.5628 0.5
405 12.9157 5.86155 0.510785 0.5
406 7.17582 1.98559 13.2053 0.5
407 2.10574 11.7584 3.11347 0.5
408 2.23702 4.00421 5.01883 0.5
409 3.42571 5.03101 11.3708 0.5
410 10.8014 1.69819 3.09909 0.5
411 3.1894 6.25599 0.417778 0.5
412 4.97259 0.245335 12.5251 0.5
413 3.26598 7.21346 9.02818 0.5
414 2.81316 9.46412 10.6402 0.5
415 8.2006 9.3398 11.1265 0.5
416 9.22889 10.6746 6.43414 0.5
417 1.38282 13.3127 8.75902 0.5
418 9.34996 0.968525 10.3135 0.5
419 2.60278 12.9621 11.4422 0.5
420 3.67783 0.150023 7.2271 0.5
421 0.297399 5.40149 10.9178 0.5
422 8.49446 4.69256 5.6401 0.5
423 12.338 13.2261 3.29968 0.5
424 2.87326 3.38326 4.51204 0.5
425 8.10915 8.16817 11.0542 0.5
426 0.89467 12.7334 7.26586 0.5
427 7.04248 2.61279 0.420691 0.5
428 13.3194 8.64697 9.51734 0.5
429 9.94341 5.12384 9.8924 0.5
430 7.80563 1.45044 10.78 0.5
431 2.44288 5.3976 8.27731 0.5
432 0.673704 1.35566 3.02045 0.5
433 7.75553 11.1313 0.266952 0.5
434 0.207259 4.104 0.928598 0.5
435 11.415 9.56891 1.47789 0.5
436 6.39373 4.99336 9.8829 0.5
437 3.94822 9.18558 6.06127 0.5
438 6.0786 2.97389 7.82518 0.5
439 10.6935 11.3419 9.76235 0.5
440 10.1805 10.6029 6.37418 0.5
441 5.73858 12.5858 3.8075 0.5
442 1.67716 6.90936 5.68922 0.5
443 0.899061 11.9584 1.35644 0.5
444 9.86198 8.11836 13.2604 0.5
445 4.36112 8.90239 2.75671 0.5
446 4.14711 5.94984 4.69406 0.5
447 1.46661 8.83147 6.28082 0.5
448 5.51018 9.92172 13.4175 0.5
449 3.50399 0.0324385 11.0364 0.5
450 3.18159 2.74431 1.50098 0.5
451 7.2793 2.9765 13.0378 0.5
452 1.74131 8.66609 0.60241 0.5
453 5.05913 9.2096 4.32792 0.5
454 3.11529 13.4802 2.72089 0.5
455 1.78865 3.12653 10.5414 0.5
456 8.41877 13.205 8.26024 0.5
457 11.9843 12.5984 8.91915 0.5
458 3.62002 0.791918 9.27353 0.5
459 13.2343 2.66852 6.16129 0.5
460 13.2871 6.56895 13.497 0.5
461 11.6009 7.42666 11.4553 0.5
462 11.2341 2.77687 7.71654 0.5
463 6.55269 3.5068 7.02214 0.5
464 10.9658 8.60608 10.7355 0.5
465 5.63472 10.3371 11.441 0.5
466 3.69365 0.496807 6.16268 0.5
467 0.868765 8.07468 0.702336 0.5
468 12.7271 8.61945 10.395 0.5
469 1.52921 2.75908 11.4024 0.5
470 2.59037 5.52676 11.5477 0.5
471 4.39575 0.387805 10.8752 0.5
472 10.9439 6.68715 4.10592 0.5
473 12.224 7.23192 7.9336 0.5
474 1.67698 8.30403 8.55524 0.5
475 5.92516 3.67046 6.31014 0.5
476 7.73866 1.22804 9.82971 0.5
477 5.88394 8.16702 8.90247 0.5
478 2.68482 11.8301 13.0445 0.5
479 9.34502 7.55011 0.458678 0.5
480 2.61563 10.96 7.71754 0.5
481 2.03815 3.93211 0.475667 0.5
482 10.536 13.4483 1.283 0.5
483 7.90692 10.6601 3.35258 0.5
484 10.0228 6.86815 4.419 0.5
485 4.35248 6.25088 1.64951 0.5
486 2.72103 11.1113 8.71284 0.5
487 4.72964 1.94061 9.1481 0.5
488 6.07324 4.50105 7.03845 0.5
489 3.8283 0.229908 3.37663 0.5
490 0.811083 12.6551 8.27145 0.5
491 2.77593 8.0862 11.6617 0.5
492 1.61168 5.6604 11.6391 0.5
493 11.3852 7.61804 10.4754 0.5
494 7.7787 4.96413 0.294615 0.5
495 6.51731 7.73273 0.598364 0.5
496 6.76776 13.3251 13.3445 0.5
497 5.74563 5.36858 7.47796 0.5
498 4.05633 12.1724 5.28991 0.5
499 7.87202 3.07995 10.5269 0.5
500 11.5166 8.33178 5.424 0.5
501 5.65968 1.70952 4.2678 0.5
502 9.74843 10.4824 8.55708 0.5
503 8.4549 5.7339 12.3369 0.5
504 2.72763 1.37021 0.0650835 0.5
505 5.08952 3.24526 11.6305 0.5
506 3.50928 11.7707 0.944157 0.5
507 8.00048 4.67307 3.80909 0.5
508 13.5211 1.67812 6.52198 0.5
509 5.4532 5.2199 6.49455 0.5
510 7.81496 11.1869 11.7813 0.5
511 6.6127 13.5114 5.59105 0.5
512 7.03128 10.6402 4.17039 0.5
513 5.8207 3.78343 1.86207 0.5
514 5.97879 8.70229 0.879426 0.5
515 1.53914 10.8332 3.04947 0.5
516 4.19814 9.37088 3.69287 0.5
517 1.34967 3.01504 4.00736 0.5
518 1.81329 7.38182 8.18116 0.5
519 5.28844 7.39479 8.499 0.5
520 1.94708 0.685765 0.550058 0.5
521 11.2042 5.37733 5.00945 0.5
522 1.4529 10.5304 11.6355 0.5
523 12.6162 8.07433 4.22133 0.5
524 0.580797 1.29389 5.90281 0.5
525 11.3733 10.2405 0.695358 0.5
526 8.70528 12.2115 8.00808 0.5
527 7.44461 10.0868 1.5882 0.5
528 0.98249 0.864016 0.580713 0.5
529 12.9275 0.576878 0.232838 0.5
530 12.3823 2.72478 11.6605 0.5
531 10.8444 7.89803 11.3202 0.5
532 5.73529 8.6267 3.79387 0.5
533 5.03097 7.35182 10.4119 0.5
534 1.21665 11.4887 11.4564 0.5
535 8.23365 12.4734 13.0547 0.5
536 2.49173 12.7844 4.15535 0.5
537 3.46192 11.8843 8.83821 0.5
538 8.45475 10.128 1.71331 0.5
539 1.83985 8.0401 2.96296 0.5
540 1.65675 3.59669 8.47958 0.5
541 4.38118 11.7155 0.462983 0.5
542 7.75954 13.4273 13.0843 0.5
543 13.2155 5.80487 6.95859 0.5
544 8.32715 2.27129 7.03387 0.5
545 2.27074 6.35828 2.96259 0.5
546 1.25603 0.379645 13.2707 0.5
547 10.29 5.19924 5.40976 0.5
548 11.9938 0.393076 6.78154 0.5
549 13.4149 10.0712 8.58837 0.5
550 12.444 12.1649 3.03462 0.5
551 6.44627 1.22039 1.88363 0.5
552 3.28107 7.25382 0.258131 0.5
553 10.7376 4.79787 9.60761 0.5
554 3.40834 13.1791 6.51646 0.5
555 0.327687 3.54879 4.31297 0.5
556 7.20268 12.6036 12.7923 0.5
557 7.32589 11.0669 1.16719 0.5
558 4.57827 1.97553 10.2466 0.5
559 3.54396 11.2694 8.11646 0.5
560 7.46496 3.97968 10.751 0.5
561 8.64013 9.13263 12.763 0.5
562 13.4344 3.09967 0.731249 0.5
563 9.97429 5.6657 6.3205 0.5
564 8.32646 5.71301 13.3333 0.5
565 9.45685 4.88532 5.90633 0.5
566 6.8871 1.51039 10.1068 0.5
567 11.9764 5.40503 4.27026 0.5
568 7.6971 2.13403 10.145 0.5
569 10.956 6.0924 12.3246 0.5
570 12.3326 7.90634 3.20496 0.5
571 3.07424 0.879845 3.08831 0.5
572 4.27116 3.0952 13.4378 0.5
573 0.94582 0.196107 6.83864 0.5
574 8.82602 7.84259 3.40624 0.5
575 8.29027 0.218719 2.02363 0.5
576 3.2599 10.3281 8.20873 0.5
577 2.6644 8.64088 2.74264 0.5
578 1.78137 12.1253 1.00432 0.5
579 0.143701 9.06663 12.077 0.5
580 2.77881 6.10987 7.62685 0.5
581 1.1786 13.4935 7.87687 0.5
582 2.79354 12.0015 10.9458 0.5
583 2.26152 10.6027 0.48207 0.5
584 10.4561 6.00245 4.70061 0.5
585 12.9003 5.09045 7.63159 0.5
586 13.153 5.58042 10.3305 0.5
587 0.511379 1.76162 2.07619 0.5
588 13.3308 0.995196 12.9941 0.5
589 12.8438 9.25531 8.77799 0.5
590 2.86994 10.1224 9.09362 0.5
591 4.03133 3.19389 11.6753 0.5
592 10.6694 12.0567 10.3797 0.5
593 5.55224 9.49766 6.47789 0.5
594 12.995 11.3787 5.98735 0.5
595 12.3012 10.7158 6.34278 0.5
596 9.38844 9.90433 3.1829 0.5
597 4.28173 10.5194 8.27304 0.5
598 7.36727 11.4936 4.76062 0.5
599 11.5615 11.8524 8.41661 0.5
600 12.5777 5.93998 13.1815 0.5
601 4.1827 5.62731 2.79962 0.5
602 13.3981 5.5012 9.40304 0.5
603 2.65334 8.4228 10.8157 0.5
604 4.81262 1.33377 11.0357 0.5
605 8.5039 3.8485 10.7461 0.5
606 12.1489 8.45463 6.21296 0.5
607 9.07889 10.007 9.08204 0.5
608 7.8202 12.0796 12.1859 0.5
609 1.0832 11.776 0.473616 0.5
610 0.760522 8.33996 9.1229 0.5
611 13.5046 8.37222 8.5524 0.5
612 5.58261 12.4209 2.72858 0.5
613 3.32384 5.77573 5.30016 0.5
614 4.16304 12.8874 10.6116 0.5
615 2.83819 11.9326 8.04302 0.5
616 0.607618 6.74003 2.26653 0.5
617 6.11091 6.4754 2.95181 0.5
618 10.9613 6.47576 8.70862 0.5
619 11.8289 2.99298 2.08059 0.5
620 13.2053 10.9622 11.0537 0.5
621 1.96787 3.85173 4.07853 0.5
622 5.60662 9.11507 8.49531 0.5
623 12.121 8.78744 4.67784 0.5
624 0.906355 6.14947 3.1274 0.5
625 2.05308 1.97022 11.7489 0.5
626 2.3245 4.12163 1.38516 0.5
627 11.0715 5.54061 1.08539 0.5
628 12.4181 3.67668 11.8498 0.5
629 6.51088 3.5361 2.45176 0.5
630 2.74013 3.41487 0.861827 0.5
631 9.99439 0.788922 12.7795 0.5
632 6.66137 12.3524 13.5734 0.5
633 10.5407 0.870095 0.905451 0.5
634 10.5768 10.6302 9.1107 0.5
635 10.355 1.68597 13.0614 0.5
636 10.2531 3.34207 12.6827 0.5
637 13.1299 11.0493 6.92257 0.5
638 5.89233 1.49773 5.1749 0.5
639 8.59672 6.84315 10.1431 0.5
640 2.77346 4.99414 7.38598 0.5
641 9.06828 8.0492 5.86239 0.5
642 12.0258 6.06024 1.1561 0.5
643 11.7394 1.88005 7.72268 0.5
644 7.3403 4.57587 9.87482 0.5
645 0.130857 12.101 5.71847 0.5
646 9.43468 8.56155 12.399 0.5
647 7.56325 7.43652 11.4569 0.5
648 8.80394 10.1428 11.2656 0.5
649 5.56574 7.73621 11.2581 0.5
650 3.63978 0.777299 8.00777 0.5
651 13.3441 5.33011 6.1474 0.5
652 5.09612 2.78953 7.54025 0.5
653 1.82656 5.86404 1.39816 0.5
654 4.40846 10.1607 10.2809 0.5
655 11.0118 12.7111 8.65589 0.5
656 0.614915 11.117 1.04855 0.5
657 11.3663 1.17458 7.14473 0.5
658 9.58858 10.0091 5.77255 0.5
659 0.527066 10.9477 3.50238 0.5
660 0.78057 0.262109 9.38735 0.5
661 1.50194 7.46879 9.16941 0.5
662 3.22308 11.763 4.92322 0.5
663 5.07968 11.9186 3.52356 0.5
664 5.65224 6.13434 6.39464 0.5
665 9.67279 10.8694 3.14698 0.5
666 6.45851 11.7503 10.8097 0.5
667 9.82698 4.14119 8.31386 0.5
668 5.71826 3.00873 2.57854 0.5
669 7.82805 10.0792 2.54153 0.5
670 8.07409 12.7984 7.41277 0.5
671 6.97301 8.52657 0.564338 0.5
672 3.63972 3.04948 5.05665 0.5
673 5.36916 8.96476 13.5568 0.5
674 3.34281 8.93651 11.3611 0.5
675 2.08002 2.89487 12.2916 0.5
676 2.21174 0.276751 2.90311 0.5
677 2.60848 8.26822 3.64491 0.5
678 11.8805 8.32883 11.01 0.5
679 11.7516 13.2154 4.89473 0.5
680 4.18719 10.9554 1.1235 0.5
681 3.26956 1.47426 8.66512 0.5
682 1.05719 1.89602 11.4906 0.5
683 2.30893 6.50776 11.5071 0.5
684 11.5346 12.57 3.35985 0.5
685 11.9271 11.6235 3.76418 0.5
686 10.7054 7.08891 11.8623 0.5
687 4.99655 9.43073 12.7107 0.5
688 0.671208 8.22183 5.91645 0.5
689 3.2759 3.78843 1.61894 0.5
690 4.03008 8.19843 6.47379 0.5
691 13.4049 10.0172 11.636 0.5
692 5.09206 0.603229 13.4795 0.5
693 11.6421 5.44705 12.8707 0.5
694 6.05707 8.98536 9.48297 0.5
695 11.7495 8.71485 2.90981 0.5
696 11.0798 3.08853 8.70318 0.5
697 12.6451 9.896 8.09991 0.5
698 6.52458 9.7773 6.74517 0.5
699 2.69172 8.02736 0.463332 0.5
700 12.372 8.86049 3.65424 0.5
701 8.87566 8.27168 13.2845 0.5
702 3.87441 2.25512 8.74422 0.5
703 1.91238 4.98059 12.2941 0.5
704 8.58043 2.60761 7.94242 0.5
705 10.5491 7.25914 8.218 0.5
706 6.17827 11.1956 6.01392 0.5
707 3.93375 4.75375 8.72131 0.5
708 0.99754 0.846736 2.1936 0.5
709 10.1645 0.239051 0.428288 0.5
710 6.56996 6.73916 3.86421 0.5
711 0.323245 0.288743 0.0278642 0.5
712 12.3407 1.68555 9.65191 0.5
713 8.82432 10.1402 8.02439 0.5
714 13.0839 3.84837 8.42334 0.5
715 13.2583 8.38998 3.52741 0.5
716 0.99963 2.55989 10.656 0.5
717 3.51322 7.80309 0.963034 0.5
718 11.3542 1.03736 8.20304 0.5
719 4.78263 10.6343 11.1522 0.5
720 12.6061 11.4427 2.21716 0.5
721 10.2159 4.97375 8.7223 0.5
722 5.73057 13.3998 11.9409 0.5
723 3.38549 10.1588 9.97071 0.5
724 8.76852 0.933897 9.50901 0.5
725 3.44435 2.5102 5.83422 0.5
726 8.26372 2.98379 6.39665 0.5
727 5.46892 3.17465 13.165 0.5
728 12.8076 3.09295 4.45988 0.5
729 9.3093 5.05426 0.90631 0.5
730 8.80975 5.49647 6.39894 0.5
731 11.1941 0.113581 0.522469 0.5
732 2.60387 3.57024 8.19486 0.5
733 8.15749 11.5791 1.21936 0.5
734 10.5772 11.4302 5.85147 0.5
735 3.00329 6.25925 8.5472 0.5
736 4.28513 4.77494 11.2728 0.5
737 5.7456 4.01415 2.78326 0.5
738 1.79365 8.11568 11.3842 0.5
739 6.81994 0.443506 8.44171 0.5
740 11.3889 1.36424 9.32161 0.5
741 7.23772 4.4692 4.41398 0.5
742 5.34966 9.558 0.763486 0.5
743 8.47303 8.25603 5.14799 0.5
744 5.53801 3.76376 12.4167 0.5
745 8.06809 6.54956 11.7967 0.5
746 5.1618 8.66763 9.41078 0.5
747 13.5516 13.1466 12.1128 0.5
748 7.86155 9.65428 7.95842 0.5
749 5.24353 9.31391 3.30004 0.5
750 1.69216 1.25179 13.4292 0.5
751 0.379059 8.26735 12.6772 0.5
752 2.37174 1.52063 12.694 0.5
753 6.64569 1.75892 0.379544 0.5
754 2.71919 12.0137 11.9834 0.5
755 6.78368 2.49166 12.3514 0.5
756 6.67229 8.25364 1.47086 0.5
757 12.0586 6.12421 12.2858 0.5
758 4.51795 11.4719 5.86729 0.5
759 12.051 8.1925 2.17462 0.5
760 6.66402 5.31317 4.55573 0.5
761 3.03152 11.2759 0.251406 0.5
762 0.766635 3.36604 1.38354 0.5
763 12.5469 13.3927 4.3428 0.5
764 9.01922 8.89629 3.23056 0.5
765 0.137792 2.67407 1.57113 0.5
766 8.6472 3.33703 4.68677 0.5
767 4.17361 7.5263 0.34369 0.5
768 13.0667 12.5877 11.3578 0.5
769 11.5228 2.55561 5.36564 0.5
770 11.8579 7.40087 7.03805 0.5
771 8.31376 7.50918 5.73573 0.5
772 1.52852 2.33102 9.82091 0.5
773 9.49049 3.18276 8.01801 0.5
774 9.10883 0.567212 2.48347 0.5
775 9.31691 0.656214 11.9104 0.5
776 2.37096 9.1916 6.57508 0.5
777 10.9218 11.7765 3.51016 0.5
778 11.5897 11.6179 2.7324 0.5
779 8.16718 8.5668 5.97065 0.5
780 3.66883 10.8352 9.00318 0.5
781 13.2941 1.86813 5.47968 0.5
782 10.2567 2.48749 3.28211 0.5
783 13.4389 9.81277 12.6653 0.5
784 2.88033 2.50168 4.92692 0.5
785 11.171 10.66 6.23435 0.5
786 8.24672 4.33704 4.78147 0.5
787 5.49336 11.4533 2.71326 0.5
788 11.4309 6.46047 11.573 0.5
789 8.35655 3.34597 1.72492 0.5
790 8.30533 1.14888 2.07056 0.5
791 5.53346 7.22964 12.0959 0.5
792 6.70115 2.36042 7.42831 0.5
793 6.22282 8.90543 2.98769 0.5
794 12.2321 0.646362 3.68776 0.5
795 9.15125 9.0067 5.52827 0.5
796 2.54656 9.9549 7.42214 0.5
797 4.42973 3.84502 11.0417 0.5
798 2.34352 2.95348 3.82154 0.5
799 0.461474 2.31516 5.93375 0.5
800 1.03786 8.36866 13.3751 0.5
801 7.00811 6.08116 3.1503 0.5
802 5.1937 11.0431 12.0358 0.5
803 10.7509 11.1355 10.8041 0.5
804 0.191385 6.34133 10.8195 0.5
805 9.00211 8.11317 2.44063 0.5
806 2.5035 7.81352 8.854 0.5
807 3.39885 5.49602 8.13364 0.5
808 1.77778 9.01021 3.28426 0.5
809 9.96676 3.97651 11.144 0.5
810 1.97874 12.18 11.4408 0.5
811 10.3509 7.11913 3.45586 0.5
812 2.328 9.02024 11.52 0.5
813 7.45377 5.6786 11.8816 0.5
814 8.7676 13.1708 4.99791 0.5
815 11.6563 12.7723 7.92725 0.5
816 9.34273 7.91443 1.40347 0.5
817 10.5824 11.1769 2.75071 0.5
818 3.21115 10.7574 0.958174 0.5
819 6.09383 12.7468 7.58745 0.5
820 0.439304 12.7825 9.26567 0.5
821 10.9216 2.88592 4.7147 0.5
822 9.4039 0.128214 4.40498 0.5
823 9.203 0.286485 11.072 0.5
824 1.44168 8.56565 5.30354 0.5
825 7.92957 0.863055 1.2164 0.5
826 6.68877 13.0256 8.31758 0.5
827 11.3007 0.535858 1.42664 0.5
828 5.02214 3.69175 2.2745 0.5
829 4.7445 2.06015 8.17145 0.5
830 4.74865 12.3554 8.73754 0.5
831 11.4771 0.190259 7.57802 0.5
832 12.9134 4.72607 9.70403 0.5
833 2.28649 11.2175 11.3851 0.5
834 9.344 1.60668 12.8901 0.5
835 2.21007 5.96136 12.3932 0.5
836 8.22595 9.79931 12.0626 0.5
837 6.40064 3.38917 12.7121 0.5
838 12.6161 13.172 12.2359 0.5
839 4.97013 5.77839 1.02953 0.5
840 7.5487 12.7284 0.157457 0.5
841 5.88363 10.5133 6.66889 0.5
842 13.2582 3.96469 12.4355 0.5
843 12.4561 3.28673 0.475338 0.5
844 4.84656 3.98557 13.1644 0.5
845 10.3534 4.82394 6.39118 0.5
846 5.45472 12.147 9.48121 0.5
847 4.38532 7.43868 5.79237 0.5
848 4.74559 7.14977 11.4206 0.5
849 0.307571 12.9517 6.47164 0.5
850 10.0092 11.2894 11.58 0.5
851 6.86414 10.8258 6.65668 0.5
852 7.35185 10.1378 7.32844 0.5
853 4.27909 7.4672 8.63227 0.5
854 10.051 6.15517 3.74988 0.5
855 8.90955 10.6059 3.74321 0.5
856 2.81022 0.0825156 3.67058 0.5
857 9.40872 4.32454 10.3592 0.5
858 8.14375 10.1726 8.76972 0.5
859 11.129 4.63547 5.78871 0.5
860 10.2391 4.16267 5.47417 0.5
861 11.397 0.908077 6.12838 0.5
862 10.4676 6.24087 11.4059 0.5
863 7.56556 8.03555 5.38404 0.5
864 8.42419 7.26136 7.37177 0.5
865 11.8469 3.52418 1.20865 0.5
866 5.37515 11.8481 1.78702 0.5
867 12.4966 3.67158 2.1376 0.5
868 9.99288 9.82476 9.24 0.5
869 4.27197 0.835326 0.559095 0.5
870 3.16958 8.58737 6.37255 0.5
871 12.4551 8.07474 5.2869 0.5
872 1.50103 6.567 12.0782 0.5
873 12.8197 0.407526 2.79365 0.5
874 7.7037 6.17888 12.7156 0.5
875 7.17956 11.2327 5.7182 0.5
876 2.02137 6.37216 8.26925 0.5
877 11.4048 7.89304 7.73055 0.5
878 2.0316 11.5628 0.19182 0.5
879 2.83399 3.98358 7.25216 0.5
880 12.2007 0.440839 0.863031 0.5
881 10.4165 10.8635 12.4685 0.5
882 1.23545 10.4733 4.03176 0.5
883 10.3134 12.4391 1.48245 0.5
884 13.4067 3.54002 1.84044 0.5
885 8.39198 11.0382 11.0018 0.5
886 1.01878 3.0434 7.98047 0.5
887 0.762733 1.12175 13.1366 0.5
888 5.37322 4.6446 2.22962 0.5
889 10.7209 4.04634 8.85988 0.5
890 11.3696 8.09072 6.72761 0.5
891 3.21711 5.8443 3.16837 0.5
892 8.93857 0.0530347 10.0943 0.5
893 10.4763 3.42202 7.93423 0.5
894 7.43537 7.69526 1.09374 0.5
895 11.815 8.69296 1.30945 0.5
896 7.37469 11.9269 0.700161 0.5
897 6.19784 11.8565 3.36882 0.5
898 4.69586 11.9816 2.55211 0.5
899 10.3861 4.26624 10.3003 0.5
900 11.2821 12.0993 9.38063 0.5
901 0.284796 4.86966 10.0593 0.5
902 10.5179 5.77151 9.27417 0.5
903 9.68636 7.53844 2.92082 0.5
904 7.89979 3.67312 4.08434 0.5
905 0.60532 5.67492 5.68222 0.5
906 12.7291 5.15129 3.7178 0.5
907 6.52825 4.24461 10.4784 0.5
908 8.38995 0.208438 4.45977 0.5
909 8.89322 3.30112 2.56808 0.5
910 9.11747 2.46231 6.50775 0.5
911 6.13265 6.44516 11.923 0.5
912 8.11377 8.77064 11.9237 0.5
913 11.8713 5.70136 0.296095 0.5
914 4.5355 0.679123 1.62091 0.5
915 8.19305 3.65308 5.56652 0.5
916 10.7931 7.24672 7.20249 0.5
917 12.2976 0.942121 11.573 0.5
918 8.45591 6.40385 7.97776 0.5
919 12.7183 11.2037 0.575664 0.5
920 0.163985 11.8901 9.75394 0.5
921 6.03517 6.3589 7.34221 0.5
922 0.242825 3.18818 12.4658 0.5
923 1.07572 3.01147 9.18449 0.5
924 10.2809 12.3082 9.36904 0.5
925 9.65524 4.04746 2.70783 0.5
926 4.86328 10.4647 12.8594 0.5
927 1.00067 7.54912 5.18092 0.5
928 0.191318 6.40206 6.20366 0.5
929 1.79489 2.06173 10.7783 0.5
930 10.4078 10.07 8.28663 0.5
931 5.53678 9.41391 11.9091 0.5
932 3.58954 8.6371 3.39816 0.5
933 0.0196252 11.6799 0.836342 0.5
934 4.70731 8.93687 6.6521 0.5