ITEM: TIMESTEP
380000
ITEM: NUMBER OF ATOMS
1000
ITEM: BOX BOUNDS xy xz yz pp pp pp
0.0000000000000000e+00 1.3572088000000001e+01 0.0000000000000000e+00
0.0000000000000000e+00 1.3572088000000001e+01 0.0000000000000000e+00
0.0000000000000000e+00 1.3572088000000001e+01 0.0000000000000000e+00
ITEM: ATOMS id x y z radius
1 4.21787 4.04238 12.1308 0.5
2 5.62223 10.7933 3.14586 0.5
3 8.92964 10.2606 2.6761 0.5
4 9.8182 5.80177 0.924935 0.5
5 9.51128 7.51278 11.0589 0.5
6 4.05853 12.8138 5.16635 0.5
7 2.70569 8.68994 0.980452 0.5
8 13.0528 11.6792 1.99929 0.5
9 2.14696 7.69622 5.98732 0.5
10 2.92565 13.4629 10.627 0.5
11 0.645156 9.76397 8.67928 0.5
12 10.4377 6.01256 0.161402 0.5
13 8.49363 11.7292 5.52183 0.5
14 10.9732 2.30506 4.15767 0.5
15 6.25667 1.11327 4.49244 0.5
16 7.82294 6.7155 9.44132 0.5
17 7.1175 12.5334 10.8166 0.5
18 2.84821 8.44991 5.90176 0.5
19 10.2683 5.6334 1.78371 0.5
20 10.2011 11.7683 3.17823 0.5
21 1.42224 4.31373 1.28135 0.5
22 2.06573 5.77826 11.6806 0.5
23 1.1978 1.43889 10.2828 0.5
24 7.57785 7.24338 1.93799 0.5
25 1.1527 6.32036 2.68536 0.5
26 10.0425 10.4071 6.27534 0.5
27 11.3631 7.10222 12.3577 0.5
28 5.30999 11.511 11.7816 0.5
29 12.7556 5.26412 1.31353 0.5
30 8.26934 10.8337 1.32344 0.5
31 0.506235 13.2612 8.5283 0.5
32 9.06431 2.58448 13.2296 0.5
33 12.8452 6.10809 9.80861 0.5
34 3.67245 8.92048 5.66094 0.5
35 11.8883 6.85424 13.2438 0.5
36 9.19026 2.17726 6.03605 0.5
37 0.366856 0.89706 3.03991 0.5
38 3.3244 1.20329 1.67283 0.5
39 10.6169 4.71292 1.72812 0.5
40 5.70745 6.01399 6.40902 0.5
41 8.15488 11.2473 4.7123 0.5
42 6.97415 5.31231 3.45866 0.5
43 5.50146 5.09885 9.99485 0.5
44 4.65835 11.0282 9.20498 0.5
45 7.64823 6.22701 1.9768 0.5
46 10.3352 11.237 13.1122 0.5
47 2.78581 9.39488 5.45989 0.5
48 7.46458 10.6134 0.785781 0.5
49 5.7134 12.6627 9.41655 0.5
50 6.56644 1.26782 10.21 0.5
51 0.0902803 10.1256 7.08932 0.5
52 6.02435 10.7312 6.93672 0.5
53 9.77823 3.95073 1.8512 0.5
54 12.0634 11.2645 3.78558 0.5
55 0.560606 1.40739 6.30913 0.5
56 13.2428 4.24004 3.71163 0.5
57 0.560462 11.5724 11.424 0.5
58 5.12918 8.0976 10.3486 0.5
59 2.09621 10.8973 11.3126 0.5
60 7.94635 5.00701 9.45542 0.5
61 4.31735 0.346372 11.2257 0.5
62 0.465396 8.49288 0.860666 0.5
63 11.7704 8.30118 2.14942 0.5
64 12.6726 2.4688 10.2424 0.5
65 13.0047 1.23939 5.22708 0.5
66 12.6831 1.59306 1.99908 0.5
67 8.10895 2.97626 7.70075 0.5
68 3.10075 1.37067 2.69357 0.5
69 12.1828 2.64899 11.1251 0.5
70 12.4357 4.13351 10.4238 0.5
71 2.48539 6.55882 8.75652 0.5
72 7.71223 2.71179 11.0264 0.5
73 8.58489 6.8893 8.72025 0.5
74 6.36587 4.63002 10.0764 0.5
75 8.90222 0.337968 10.3227 0.5
76 12.6695 2.66395 13.3795 0.5
77 10.3687 2.65373 3.4199 0.5
78 9.14634 3.08271 5.14773 0.5
79 4.1108 12.3633 6.12787 0.5
80 5.22427 2.61598 7.98727 0.5
81 1.66656 3.27009 12.0727 0.5
82 1.06641 8.91152 0.276774 0.5
83 3.72847 0.749873 6.20149 0.5
84 13.3031 9.17516 8.97322 0.5
85 0.0900005 3.30144 7.00215 0.5
86 2.7291 0.516015 0.476798 0.5
87 4.19351 5.64268 5.73902 0.5
88 6.83614 5.61145 4.44112 0.5
89 11.6935 12.4158 7.0957 0.5
90 4.30715 6.12757 4.12504 0.5
91 11.7376 7.78349 11.7278 0.5
92 0.248704 1.32555 2.18861 0.5
93 12.523 0.342999 12.5503 0.5
94 4.8025 10.0782 12.4933 0.5
95 12.0103 1.57392 7.83014 0.5
96 11.8819 2.69386 4.37904 0.5
97 12.1406 2.70819 5.34078 0.5
98 11.0714 9.91572 0.351275 0.5
99 6.61497 8.60633 9.27626 0.5
100 0.830371 6.43126 6.22572 0.5
101 5.11788 11.4479 2.64627 0.5
102 8.77036 7.57083 10.3915 0.5
103 4.59645 5.20525 10.3581 0.5
104 6.71595 10.7756 5.52323 0.5
105 11.6099 12.7746 6.26279 0.5
106 6.24118 1.68167 10.9725 0.5
107 13.0368 4.6097 7.96788 0.5
108 0.271294 11.0258 5.36317 0.5
109 0.587788 12.3163 9.85052 0.5
110 7.99536 9.54677 8.72618 0.5
111 8.89047 13.4806 3.22167 0.5
112 6.54311 0.948225 5.4338 0.5
113 1.01991 0.473537 6.27759 0.5
114 7.48085 6.62891 2.81884 0.5
115 5.4771 6.29005 12.4848 0.5
116 13.2709 5.04583 2.15173 0.5
117 0.781139 13.5119 5.39773 0.5
118 10.6696 9.5994 6.37294 0.5
119 12.7698 8.22681 1.9036 0.5
120 4.92948 9.11232 3.5542 0.5
121 11.3757 13.2822 11.0075 0.5
122 2.37159 3.01081 2.30112 0.5
123 11.9563 2.78002 9.48847 0.5
124 11.4112 11.3666 11.7219 0.5
125 5.41304 11.6714 3.62158 0.5
126 11.0486 10.9297 0.235555 0.5
127 7.54901 10.6119 11.454 0.5
128 4.86905 3.16099 7.14732 0.5
129 2.02474 6.76447 11.8961 0.5
130 1.20478 12.1147 10.6206 0.5
131 7.74359 1.97426 1.76944 0.5
132 5.5431 12.0356 1.91248 0.5
133 1.22745 11.173 10.7245 0.5
134 11.0875 11.5163 3.58997 0.5
135 12.2713 1.79125 5.80097 0.5
136 8.22331 4.7626 4.42207 0.5
137 3.29366 12.6293 5.89541 0.5
138 7.1502 12.2483 13.0151 0.5
139 5.90211 0.213478 0.178757 0.5
140 5.79405 2.99413 4.12062 0.5
141 1.2082 4.00607 5.03219 0.5
142 9.98072 2.82142 13.0483 0.5
143 0.432271 12.9758 12.813 0.5
144 8.98766 13.0425 8.71727 0.5
145 6.71613 6.74121 2.19892 0.5
146 9.84362 9.27668 8.71066 0.5
147 4.65451 6.76482 0.639948 0.5
148 12.0292 0.396185 10.9441 0.5
149 8.08719 6.76873 10.5216 0.5
150 12.63 11.4598 2.9179 0.5
151 6.66206 12.7633 9.83658 0.5
152 3.3963 4.5336 11.5891 0.5
153 11.7625 7.69655 7.93405 0.5
154 2.80929 2.13376 2.08108 0.5
155 2.03525 8.50378 10.779 0.5
156 7.91553 12.0975 0.0714389 0.5
157 1.77123 0.219453 3.36945 0.5
158 1.63675 10.1255 8.23664 0.5
159 4.0708 2.07344 9.36254 0.5
160 9.54428 0.465722 11.2307 0.5
161 12.8783 3.25589 10.6988 0.5
162 6.27451 2.68787 7.92955 0.5
163 11.2025 9.56986 1.32885 0.5
164 9.84163 3.25462 11.4109 0.5
165 7.39045 11.6075 11.1562 0.5
166 10.8326 12.8553 6.93226 0.5
167 10.8191 7.65764 8.1178 0.5
168 1.66348 3.09175 7.75897 0.5
169 11.2446 11.2829 12.7839 0.5
170 3.68958 6.59876 0.333062 0.5
171 10.7277 5.32967 0.952248 0.5
172 11.0397 8.13599 10.1318 0.5
173 8.81041 10.0603 1.74168 0.5
174 4.47635 1.05417 13.419 0.5
175 2.67462 6.29644 3.84952 0.5
176 4.14523 5.97288 3.11448 0.5
177 9.41945 4.14009 5.31678 0.5
178 6.01804 2.03764 4.29044 0.5
179 12.3463 5.33938 2.25809 0.5
180 9.25044 3.1367 12.352 0.5
181 11.1025 11.6267 9.84078 0.5
182 3.0553 11.7141 1.10623 0.5
183 8.26497 7.17299 5.96567 0.5
184 10.3975 4.43409 8.89592 0.5
185 8.64769 0.893039 11.1838 0.5
186 3.62323 8.56887 2.79123 0.5
187 5.24075 0.604049 12.9766 0.5
188 4.70197 5.79615 6.60896 0.5
189 13.3959 11.1519 6.86533 0.5
190 9.5586 12.6894 3.20056 0.5
191 9.39738 7.449 3.88056 0.5
192 10.451 1.14944 13.4545 0.5
193 11.7907 2.0831 10.3742 0.5
194 9.40308 13.2642 10.609 0.5
195 0.189769 10.0285 12.5335 0.5
196 9.03756 0.483156 4.02877 0.5
197 2.99361 6.42183 7.99477 0.5
198 6.31599 5.53713 12.4537 0.5
199 11.5379 1.11023 8.6405 0.5
200 6.96578 6.68955 1.20612 0.5
201 0.047044 3.71028 8.0195 0.5
202 6.48418 0.209017 8.33788 0.5
203 1.80312 3.43988 1.67505 0.5
204 2.13896 8.2947 8.43117 0.5
205 13.0302 13.0963 3.57937 0.5
206 0.308727 0.820616 10.0654 0.5
207 4.24722 11.9191 9.25891 0.5
208 9.46852 5.05619 5.86151 0.5
209 5.20713 2.43578 3.82592 0.5
210 4.13811 6.50948 5.17554 0.5
211 4.55704 4.22061 10.3091 0.5
212 3.42312 5.70447 3.85972 0.5
213 3.35912 1.33203 5.47575 0.5
214 10.2703 4.19577 11.573 0.5
215 8.0857 6.73531 1.21129 0.5
216 6.32409 8.39299 0.0111087 0.5
217 4.10515 11.1288 4.94438 0.5
218 6.22023 8.02325 4.31 0.5
219 9.39184 0.775795 3.07775 0.5
220 6.23299 2.22096 10.1201 0.5
221 3.05235 3.21689 5.69146 0.5
222 7.11051 11.2031 4.66721 0.5
223 4.38823 9.32152 2.71039 0.5
224 12.0763 8.85758 4.11241 0.5
225 7.99098 11.8847 10.4594 0.5
226 10.9128 6.92201 0.260233 0.5
227 13.0153 7.71803 10.1072 0.5
228 4.22368 11.3481 5.9459 0.5
229 5.58405 4.44062 6.23857 0.5
230 6.05822 9.24517 8.8157 0.5
231 8.42285 5.93424 9.05401 0.5
232 6.49173 4.67853 13.005 0.5
233 1.29651 0.457107 9.92896 0.5
234 11.5491 1.85937 4.9695 0.5
235 1.42538 11.0892 3.19028 0.5
236 10.6808 6.35074 1.08139 0.5
237 5.28222 7.93332 6.50719 0.5
238 0.683608 12.4099 5.71979 0.5
239 9.96561 8.1718 3.72588 0.5
240 1.00296 4.96781 13.2993 0.5
241 4.12525 5.91013 0.815435 0.5
242 3.22045 0.424433 2.47256 0.5
243 2.31682 9.72111 3.29348 0.5
244 3.38378 11.7976 6.38769 0.5
245 1.56404 11.7224 11.5817 0.5
246 9.58568 10.1247 8.23816 0.5
247 3.89717 1.1959 10.7625 0.5
248 8.07649 2.46437 2.63291 0.5
249 10.6434 2.12699 0.16602 0.5
250 9.89186 1.61365 0.648403 0.5
251 5.0241 9.93057 11.6262 0.5
252 8.44885 8.60694 12.8597 0.5
253 1.55168 8.5953 1.11283 0.5
254 10.5459 2.51735 2.51677 0.5
255 8.19386 9.57775 2.48649 0.5
256 1.77463 12.7388 3.32976 0.5
257 0.933675 3.83953 7.40632 0.5
258 12.9208 6.73804 6.54877 0.5
259 4.8691 4.60153 9.42404 0.5
260 6.00319 12.064 10.2997 0.5
261 11.5075 3.17511 5.9417 0.5
262 7.60255 11.1703 5.53224 0.5
263 2.62824 4.1092 8.63759 0.5
264 10.1503 10.9276 8.54476 0.5
265 1.87678 4.72745 5.07322 0.5
266 3.98167 13.3156 6.11283 0.5
267 5.47914 7.27364 8.85057 0.5
268 7.09944 2.60095 2.23053 0.5
269 9.18056 0.396483 8.60497 0.5
270 6.49044 9.54641 7.91 0.5
271 11.0444 11.9755 6.44871 0.5
272 6.35038 9.13912 0.611669 0.5
273 7.79203 4.67296 3.46058 0.5
274 9.88633 3.38816 8.79274 0.5
275 2.90875 10.7295 0.782744 0.5
276 5.248 1.66509 12.9784 0.5
277 7.47771 4.5792 13.0772 0.5
278 10.1013 10.444 0.300599 0.5
279 9.19072 11.0699 4.89598 0.5
280 4.64638 12.225 2.23955 0.5
281 6.75331 2.68025 10.9087 0.5
282 13.5466 11.2552 1.26709 0.5
283 5.36217 5.5343 1.74463 0.5
284 2.00421 10.6665 0.189388 0.5
285 3.67773 9.93083 5.81563 0.5
286 2.74873 1.08555 13.2498 0.5
287 7.71715 7.19379 6.82489 0.5
288 5.94591 0.0239678 6.63259 0.5
289 2.33021 10.7267 3.1856 0.5
290 1.23531 13.0851 6.21055 0.5
291 5.74021 0.845594 6.0208 0.5
292 3.98496 3.33264 12.8321 0.5
293 10.4067 5.80266 4.06815 0.5
294 2.66944 10.138 5.99439 0.5
295 2.70268 1.14065 6.25082 0.5
296 0.0375463 4.30002 7.1565 0.5
297 10.4233 11.5742 11.3467 0.5
298 9.93072 4.5904 12.4378 0.5
299 2.00364 0.406547 13.188 0.5
300 9.87501 4.91336 2.28348 0.5
301 5.98818 7.60836 11.6326 0.5
302 2.06594 8.68214 3.31541 0.5
303 11.7931 8.64947 3.07181 0.5
304 0.181028 7.25475 6.34416 0.5
305 8.10945 12.5978 8.07783 0.5
306 12.0562 8.15148 1.1518 0.5
307 2.55005 6.9481 3.19161 0.5
308 0.580334 9.86923 11.5594 0.5
309 12.83 13.0824 12.086 0.5
310 9.12636 13.0679 4.10453 0.5
311 13.5048 5.24364 7.19434 0.5
312 6.98111 11.7499 10.2403 0.5
313 1.15885 10.9292 4.11572 0.5
314 6.42768 11.9191 9.41299 0.5
315 12.7619 4.67897 2.88509 0.5
316 8.54322 6.0508 7.92888 0.5
317 13.0537 8.48308 4.2803 0.5
318 13.2223 4.77192 6.21047 0.5
319 10.2512 11.4426 0.53447 0.5
320 5.64038 3.52794 6.57805 0.5
321 2.80547 12.5357 3.23053 0.5
322 10.3832 13.241 0.774964 0.5
323 4.06495 1.06575 2.36234 0.5
324 10.7508 3.34183 2.9322 0.5
325 1.24944 5.31148 0.598447 0.5
326 10.7126 12.9251 13.473 0.5
327 8.58692 2.36937 8.31861 0.5
328 12.3375 7.34166 12.4331 0.5
329 7.13449 3.31296 7.96604 0.5
330 8.22379 0.779053 4.7639 0.5
331 4.77405 3.13878 4.2977 0.5
332 12.1924 1.94386 8.83704 0.5
333 13.1942 1.53817 2.88153 0.5
334 4.58299 6.32531 1.60185 0.5
335 9.85309 0.264423 4.55754 0.5
336 4.1706 1.23284 8.78007 0.5
337 11.3963 1.2598 10.9287 0.5
338 8.07371 5.93155 10.0051 0.5
339 10.353 4.11339 2.57374 0.5
340 12.7121 4.09677 12.5305 0.5
341 8.62179 0.224352 9.35279 0.5
342 6.17557 13.5612 5.62734 0.5
343 7.40739 5.79656 9.24172 0.5
344 5.01602 6.80248 6.5902 0.5
345 8.43097 8.19062 5.77139 0.5
346 0.603439 7.07263 5.40646 0.5
347 13.2533 11.5213 0.333559 0.5
348 1.66766 4.36261 0.290377 0.5
349 7.76057 6.38153 6.34821 0.5
350 8.45896 7.20068 11.3565 0.5
351 1.90712 9.11987 11.5061 0.5
352 8.408 12.4377 7.12864 0.5
353 8.50619 7.45265 0.611185 0.5
354 2.17868 2.66794 5.53277 0.5
355 1.65286 6.61246 3.58866 0.5
356 12.3849 12.9902 4.40609 0.5
357 6.92858 12.3063 3.17412 0.5
358 4.53249 1.80783 10.2461 0.5
359 7.00907 9.49337 8.79772 0.5
360 12.952 3.86297 6.52824 0.5
361 3.61656 1.27573 7.88866 0.5
362 0.896592 1.14287 9.27455 0.5
363 10.0782 12.1487 13.3764 0.5
364 3.28008 7.78461 1.20459 0.5
365 2.21438 7.80655 0.920144 0.5
366 6.68219 8.62687 8.29491 0.5
367 10.9162 11.8908 13.5654 0.5
368 5.89025 4.89004 9.00739 0.5
369 1.66665 3.14837 4.78995 0.5
370 0.242538 10.5472 6.19735 0.5
371 9.81323 0.0316912 3.56406 0.5
372 0.240046 4.94732 4.14617 0.5
373 4.73199 2.56029 12.7925 0.5
374 0.523964 9.1213 13.0009 0.5
375 0.85772 9.62737 7.73222 0.5
376 2.11194 11.1836 3.99794 0.5
377 7.73997 5.56133 3.92106 0.5
378 6.06361 9.2452 13.2898 0.5
379 5.03909 5.85523 0.833364 0.5
380 6.96026 3.90687 0.166638 0.5
381 9.59644 2.54179 8.39053 0.5
382 8.98823 2.98709 9.02613 0.5
383 2.04479 4.93536 0.944114 0.5
384 5.72379 10.2234 12.9942 0.5
385 12.5566 11.5498 1.14798 0.5
386 0.324739 4.08567 4.59728 0.5
387 2.61817 6.51196 11.1228 0.5
388 1.50743 2.40224 10.2602 0.5
389 4.61495 8.81123 9.66356 0.5
390 5.61086 4.07566 10.0894 0.5
391 6.58128 1.06279 2.37979 0.5
392 0.0739082 5.02226 3.12406 0.5
393 2.9069 4.85727 9.28474 0.5
394 8.83894 9.38292 8.15965 0.5
395 1.35806 0.280454 8.84072 0.5
396 0.624918 1.93769 2.90515 0.5
397 6.76071 1.68394 1.68398 0.5
398 9.37323 11.8149 2.5575 0.5
399 1.15447 4.5758 4.29821 0.5
400 6.62602 8.78434 4.81066 0.5
401 9.66642 2.55389 0.461211 0.5
402 4.7337 7.35013 5.77578 0.5
403 6.34954 12.879 7.93241 0.5
404 11.4341 10.4538 12.1571 0.5
405 12.1497 5.80435 13.1981 0.5
406 6.98793 3.4436 1.71286 0.5
407 2.23704 11.7801 3.21852 0.5
408 2.23931 3.7409 5.38937 0.5
409 3.69745 4.76747 10.7128 0.5
410 11.3049 2.47469 3.24481 0.5
411 4.41822 6.04696 13.4635 0.5
412 5.39791 1.16296 0.317528 0.5
413 3.5284 6.95476 8.7419 0.5
414 2.87472 8.90708 11.0008 0.5
415 8.14619 10.0853 10.765 0.5
416 8.4494 10.6918 5.53388 0.5
417 0.981838 13.0888 9.39 0.5
418 9.39251 1.1729 10.5151 0.5
419 3.63359 13.1894 11.204 0.5
420 3.91066 0.161688 7.01781 0.5
421 13.0464 5.19542 9.90658 0.5
422 8.60471 4.59314 5.40378 0.5
423 12.5932 13.5005 2.83591 0.5
424 2.6712 3.18488 4.80251 0.5
425 8.76187 8.20363 11.226 0.5
426 0.771319 12.5269 7.78098 0.5
427 7.18929 2.61218 1.18406 0.5
428 0.707769 8.91431 9.20238 0.5
429 10.6598 5.35547 8.93849 0.5
430 8.67027 13.5054 11.311 0.5
431 2.34251 4.97055 8.48293 0.5
432 13.3284 2.2497 2.2228 0.5
433 7.2685 11.2475 0.0722822 0.5
434 13.4062 3.71385 0.848245 0.5
435 11.1922 8.56121 1.4211 0.5
436 7.25624 5.30647 10.1327 0.5
437 4.16842 9.24796 6.44228 0.5
438 5.66658 3.46926 7.55831 0.5
439 11.1739 10.7198 10.1267 0.5
440 9.28803 11.1559 5.92269 0.5
441 6.61896 0.497841 6.31036 0.5
442 1.17273 7.45103 6.30786 0.5
443 1.09827 11.3042 1.27346 0.5
444 9.20246 9.2047 13.2091 0.5
445 4.64479 8.37239 2.97817 0.5
446 3.35329 6.36413 4.55178 0.5
447 2.07519 9.21795 6.06126 0.5
448 5.51088 9.83893 0.437637 0.5
449 3.3027 0.507153 11.3078 0.5
450 3.39699 2.4091 1.2738 0.5
451 7.52475 3.47422 0.880777 0.5
452 2.04204 8.63315 0.26647 0.5
453 5.19039 9.84253 2.9675 0.5
454 3.30608 13.3758 3.30784 0.5
455 1.78976 2.36148 11.9249 0.5
456 8.16265 0.0610373 8.34019 0.5
457 11.5917 11.2099 8.32854 0.5
458 3.91309 1.15482 9.8069 0.5
459 13.089 2.29475 5.35551 0.5
460 12.7438 6.54153 13.0273 0.5
461 11.7528 8.35192 10.7993 0.5
462 10.3811 1.85022 8.20053 0.5
463 6.5284 3.23548 7.10454 0.5
464 12.6738 8.63994 10.4436 0.5
465 5.61099 10.5024 12.0095 0.5
466 3.03215 0.0699575 6.37791 0.5
467 1.26708 7.89108 0.509738 0.5
468 13.542 8.63981 9.84576 0.5
469 2.47458 3.03642 11.5236 0.5
470 1.56414 6.40657 11.1044 0.5
471 4.71984 0.825287 10.3762 0.5
472 10.7286 6.60752 3.84607 0.5
473 11.079 8.2925 7.37832 0.5
474 1.86134 7.44687 8.77743 0.5
475 6.63426 3.92281 6.28444 0.5
476 7.07256 1.15943 11.0241 0.5
477 5.90149 7.79004 9.73956 0.5
478 3.10227 12.3661 0.413393 0.5
479 8.47087 7.67429 13.1962 0.5
480 4.09269 10.1396 9.25437 0.5
481 2.33948 3.97259 0.987504 0.5
482 11.3639 13.0504 0.677463 0.5
483 8.9264 11.0292 2.0415 0.5
484 10.2882 7.37693 4.32164 0.5
485 4.59144 5.58654 2.35148 0.5
486 3.72085 11.1643 9.08925 0.5
487 4.77959 2.03791 8.6898 0.5
488 5.39224 5.12312 6.92274 0.5
489 3.66636 0.862109 3.31502 0.5
490 0.586697 12.3357 8.84628 0.5
491 2.80032 7.36099 11.6846 0.5
492 1.60832 5.27509 12.585 0.5
493 11.811 8.80345 9.90993 0.5
494 7.80047 4.37456 0.492846 0.5
495 6.52981 7.50536 0.660204 0.5
496 6.86946 0.241592 13.4586 0.5
497 4.67458 4.89921 6.38535 0.5
498 3.5551 11.885 5.3789 0.5
499 7.05911 2.03684 11.5238 0.5
500 9.72567 9.36486 6.14919 0.5
501 5.22966 1.37601 4.37902 0.5
502 9.0969 10.8197 8.83361 0.5
503 7.91621 5.26633 12.5848 0.5
504 2.01401 1.2021 0.324925 0.5
505 4.28011 3.04182 11.8958 0.5
506 3.82451 11.0805 1.14199 0.5
507 7.8248 3.90657 4.17517 0.5
508 0.405889 1.67057 5.37902 0.5
509 5.21275 5.33107 5.88686 0.5
510 8.32144 11.113 11.0675 0.5
511 6.82076 13.5612 7.32414 0.5
512 8.6573 11.1831 2.97305 0.5
513 4.48705 4.97836 3.11867 0.5
514 5.91715 8.15827 1.00563 0.5
515 1.55725 10.1719 2.76172 0.5
516 5.42223 8.94535 2.5893 0.5
517 1.20201 3.55842 4.04083 0.5
518 2.02044 6.93074 7.87626 0.5
519 5.10654 7.20413 9.92641 0.5
520 1.73227 0.243182 0.582519 0.5
521 11.2777 6.08069 4.56007 0.5
522 2.78415 9.25122 11.9439 0.5
523 13.2993 7.88205 3.57853 0.5
524 1.11568 0.949414 5.43816 0.5
525 11.7179 9.00927 0.691986 0.5
526 8.96624 12.3019 7.851 0.5
527 7.35483 10.9162 1.67929 0.5
528 1.21182 13.3868 13.4749 0.5
529 0.00722378 12.3918 0.0255848 0.5
530 11.9077 3.18098 10.4245 0.5
531 10.9684 8.94879 10.5721 0.5
532 5.73731 8.99053 4.27906 0.5
533 5.75529 7.39171 10.7147 0.5
534 1.99802 12.6074 11.3558 0.5
535 7.96474 12.6846 12.8335 0.5
536 2.32756 12.2823 4.04043 0.5
537 2.69851 11.1351 9.07361 0.5
538 7.75232 10.0183 1.58215 0.5
539 1.76883 7.62269 3.32606 0.5
540 0.989815 3.45529 8.3774 0.5
541 3.68105 11.8654 1.79742 0.5
542 7.82202 0.141686 13.0734 0.5
543 12.9795 5.72445 6.52579 0.5
544 7.57926 2.5182 8.37658 0.5
545 1.83568 7.03219 2.53205 0.5
546 1.02382 0.464789 12.703 0.5
547 10.8309 5.3981 4.97938 0.5
548 11.6988 13.4634 6.93916 0.5
549 12.823 9.66449 7.19116 0.5
550 12.672 12.4869 2.66474 0.5
551 6.23806 1.98709 2.46614 0.5
552 3.87612 7.49869 0.390449 0.5
553 11.2517 4.79101 8.35956 0.5
554 3.42508 12.8135 6.81057 0.5
555 0.636508 4.2042 3.56385 0.5
556 7.02752 13.1423 12.7499 0.5
557 7.5222 11.6135 0.955962 0.5
558 4.89487 1.34261 9.51335 0.5
559 3.22857 10.2858 8.67283 0.5
560 7.19802 3.03797 11.7517 0.5
561 8.16469 8.7355 11.8302 0.5
562 13.4837 2.85218 0.154281 0.5
563 8.49475 6.56633 6.93216 0.5
564 7.94964 5.32477 0.00444029 0.5
565 10.3526 4.6306 5.514 0.5
566 7.22035 1.99996 10.4697 0.5
567 12.2143 4.32802 3.69289 0.5
568 7.96609 1.76627 11.0944 0.5
569 10.9139 7.24547 11.4874 0.5
570 13.4686 8.48457 2.75009 0.5
571 2.74877 0.62026 3.29997 0.5
572 4.0769 3.47847 0.29002 0.5
573 0.217855 13.1977 6.14775 0.5
574 9.00557 8.4091 3.67083 0.5
575 8.80278 12.9888 2.42113 0.5
576 4.2293 10.6382 8.36937 0.5
577 3.37606 9.57985 2.92905 0.5
578 2.09976 11.1807 1.08565 0.5
579 13.145 9.80106 11.87 0.5
580 3.04579 5.41994 7.76707 0.5
581 1.454 12.7721 8.58815 0.5
582 2.90174 12.4519 10.9568 0.5
583 2.93883 10.7595 13.2402 0.5
584 10.4141 6.41554 4.87106 0.5
585 12.6769 4.77212 7.03165 0.5
586 0.261513 5.94479 9.65084 0.5
587 12.6244 2.35514 1.46682 0.5
588 13.059 13.1221 13.0281 0.5
589 13.3831 9.65004 8.03161 0.5
590 4.2287 11.6753 8.40984 0.5
591 3.36705 3.43022 11.9648 0.5
592 11.2496 11.511 10.7727 0.5
593 6.27961 9.8124 6.89144 0.5
594 13.1162 11.1919 5.94028 0.5
595 13.1573 10.278 5.41469 0.5
596 9.15578 9.33877 2.31798 0.5
597 2.22545 10.2723 9.15784 0.5
598 7.67748 10.401 4.92187 0.5
599 10.8683 11.7086 8.81818 0.5
600 11.9921 6.3481 12.4157 0.5
601 3.08411 6.08458 2.93631 0.5
602 13.4893 6.7034 10.0113 0.5
603 2.85452 7.91343 10.7755 0.5
604 5.53072 1.4916 10.2801 0.5
605 7.87177 2.34872 11.9439 0.5
606 11.2549 9.40325 5.61237 0.5
607 8.4675 10.2611 8.38634 0.5
608 8.35858 13.4149 12.2652 0.5
609 1.4511 11.533 0.30558 0.5
610 1.39048 9.10144 8.37163 0.5
611 0.481039 8.91175 8.25283 0.5
612 5.60868 13.2359 3.23843 0.5
613 3.88426 5.55609 4.76836 0.5
614 3.73448 0.339284 10.3881 0.5
615 3.16938 10.3941 9.65639 0.5
616 13.0232 6.00877 1.8798 0.5
617 6.91324 5.92713 2.65599 0.5
618 11.3486 6.76323 8.13129 0.5
619 11.8801 4.08642 13.2109 0.5
620 1.04346 10.7423 11.7244 0.5
621 2.0425 4.00447 4.41888 0.5
622 5.85896 8.26428 8.79814 0.5
623 12.984 7.44172 4.4851 0.5
624 12.9634 5.72424 2.87194 0.5
625 1.9543 3.80664 11.2116 0.5
626 2.77263 3.78798 1.75649 0.5
627 9.95975 6.84284 0.772303 0.5
628 13.1332 4.83795 10.8986 0.5
629 5.16862 4.26897 3.21418 0.5
630 3.36963 3.47495 0.980956 0.5
631 9.47031 0.940949 0.0613037 0.5
632 6.43258 12.8972 13.5136 0.5
633 10.1309 0.661244 0.672325 0.5
634 10.4002 11.2223 10.4681 0.5
635 9.79346 1.8568 13.2434 0.5
636 10.0842 3.58843 12.3127 0.5
637 12.9231 10.3039 6.47434 0.5
638 5.63667 0.58406 5.02134 0.5
639 9.07974 6.68357 10.7128 0.5
640 2.71439 4.40998 7.64399 0.5
641 7.39712 6.97778 5.69176 0.5
642 11.447 5.98977 0.363224 0.5
643 10.9937 1.17638 7.85194 0.5
644 7.2176 3.56194 10.758 0.5
645 0.468136 11.5748 6.20042 0.5
646 9.06917 8.75734 12.0913 0.5
647 8.95546 4.94053 12.3643 0.5
648 8.49483 10.3425 11.6597 0.5
649 5.03536 7.62226 11.4156 0.5
650 3.12918 0.781132 7.0374 0.5
651 0.402383 5.59678 6.22676 0.5
652 5.08452 4.1583 7.07871 0.5
653 0.365294 5.8224 2.37107 0.5
654 4.27951 10.4487 11.0841 0.5
655 11.8135 11.8753 9.1693 0.5
656 0.552993 11.0586 0.451314 0.5
657 10.9545 0.26952 7.29008 0.5
658 9.37432 10.206 5.54677 0.5
659 0.85286 10.3461 3.35677 0.5
660 0.452615 0.313311 9.32322 0.5
661 1.08578 8.09483 8.46515 0.5
662 3.41157 10.8911 5.73034 0.5
663 6.10528 12.4321 3.57814 0.5
664 4.92356 6.32169 5.8094 0.5
665 10.6126 10.8119 3.2052 0.5
666 5.31345 11.727 9.4065 0.5
667 9.65174 4.19324 8.20156 0.5
668 5.21007 3.29622 3.42711 0.5
669 8.08659 10.668 2.34872 0.5
670 8.89361 13.271 7.68362 0.5
671 6.904 8.38619 0.897638 0.5
672 3.05497 2.31788 5.175 0.5
673 5.43096 8.82776 0.449189 0.5
674 3.27921 8.35597 11.6483 0.5
675 2.96532 3.84504 11.0658 0.5
676 2.42363 13.3206 2.79182 0.5
677 2.98684 8.89178 3.55022 0.5
678 12.0116 7.86068 10.0147 0.5
679 10.7742 12.8498 5.89723 0.5
680 4.58512 11.5314 1.5936 0.5
681 3.28183 1.50814 9.04948 0.5
682 2.22274 3.21386 10.5462 0.5
683 1.25328 6.16609 12.2477 0.5
684 12.0015 12.8984 3.4134 0.5
685 12.6689 12.1577 3.72155 0.5
686 10.8645 8.17053 11.1333 0.5
687 5.0385 9.3625 13.2301 0.5
688 1.31689 7.73365 5.4035 0.5
689 3.33631 3.01931 1.94852 0.5
690 4.59456 8.55274 6.98966 0.5
691 0.0522135 10.7388 11.8552 0.5
692 4.9431 0.348816 0.343123 0.5
693 11.1311 6.30638 11.9372 0.5
694 5.64716 8.77519 9.64471 0.5
695 12.6039 8.03952 2.80202 0.5
696 10.6717 2.84007 8.2736 0.5
697 0.0867124 9.13306 7.2948 0.5
698 5.94602 10.3043 6.05203 0.5
699 2.97227 8.19603 0.275531 0.5
700 12.2941 7.9532 3.81858 0.5
701 9.28294 8.26478 12.9508 0.5
702 3.75696 2.11126 8.441 0.5
703 1.9949 5.29186 13.4826 0.5
704 8.08363 3.25443 8.62665 0.5
705 10.5012 6.86439 7.64695 0.5
706 6.73778 11.743 5.38527 0.5
707 3.91425 4.81671 9.71638 0.5
708 13.4271 1.74158 1.39719 0.5
709 10.0634 0.145159 13.5317 0.5
710 7.07901 6.22366 3.65874 0.5
711 0.271606 0.180554 13.3482 0.5
712 12.683 3.36271 9.74473 0.5
713 8.18324 9.70133 7.5957 0.5
714 12.7701 3.79382 7.43833 0.5
715 12.827 8.78823 3.43761 0.5
716 2.25982 2.22634 10.9082 0.5
717 2.9478 7.24983 0.579735 0.5
718 11.7317 0.448299 7.83669 0.5
719 4.68942 10.8544 11.8902 0.5
720 12.1191 11.5889 2.16351 0.5
721 10.3636 4.92661 8.05614 0.5
722 6.12363 0.0122306 12.824 0.5
723 3.26663 11.9631 8.69709 0.5
724 9.49432 13.4084 9.54907 0.5
725 2.38001 1.63593 5.45747 0.5
726 7.10866 2.55005 7.35774 0.5
727 4.86889 3.22654 13.4532 0.5
728 12.4483 1.95217 4.74638 0.5
729 9.7764 4.89106 1.31369 0.5
730 8.20714 5.58911 6.98665 0.5
731 10.9776 0.315515 0.227481 0.5
732 1.98412 3.20883 8.73262 0.5
733 8.16465 11.1298 0.31579 0.5
734 10.2972 11.3692 6.07254 0.5
735 3.02751 5.67071 8.71872 0.5
736 4.43275 4.67383 11.2569 0.5
737 5.2595 4.0264 4.13749 0.5
738 2.06913 7.41473 11.0685 0.5
739 7.26888 13.227 8.20902 0.5
740 12.4802 0.977866 8.52234 0.5
741 7.69918 4.14478 5.16242 0.5
742 5.62797 9.22737 1.29452 0.5
743 6.86844 7.90405 5.24216 0.5
744 4.99813 3.42079 12.4659 0.5
745 7.22513 5.95877 12.1985 0.5
746 5.03214 7.9677 9.34065 0.5
747 12.8171 0.41518 11.6522 0.5
748 7.3559 9.24169 7.93766 0.5
749 6.03125 9.30937 3.2749 0.5
750 1.07258 0.842457 0.0211285 0.5
751 13.333 8.47123 12.8402 0.5
752 1.78919 1.39641 12.9051 0.5
753 6.30719 2.62656 1.62168 0.5
754 2.49526 11.8419 11.6531 0.5
755 6.92772 4.19082 1.1047 0.5
756 6.69959 7.59585 1.6229 0.5
757 11.8914 6.89914 11.5652 0.5
758 4.57956 12.0068 5.30869 0.5
759 12.5054 8.95321 2.46713 0.5
760 7.26384 4.7228 4.30963 0.5
761 3.40539 11.365 0.241164 0.5
762 13.5305 2.77431 1.18325 0.5
763 12.2493 0.223344 3.71092 0.5
764 8.88593 9.41154 3.32243 0.5
765 12.9754 2.10281 0.564533 0.5
766 8.08938 3.21968 4.86124 0.5
767 3.7516 6.81988 1.157 0.5
768 12.4294 13.0477 11.106 0.5
769 11.349 2.24804 5.86493 0.5
770 10.7914 7.97282 6.52385 0.5
771 7.56092 7.87375 6.06699 0.5
772 1.31875 1.9033 11.1445 0.5
773 8.96325 3.37213 8.1113 0.5
774 9.63058 13.4933 2.54533 0.5
775 10.3504 13.5147 11.034 0.5
776 3.15625 9.33515 6.44311 0.5
777 11.7965 12.1606 4.12719 0.5
778 11.81 11.9743 3.09893 0.5
779 7.79533 7.59049 5.12769 0.5
780 3.29199 11.0966 8.24032 0.5
781 13.1921 1.51584 6.11691 0.5
782 11.0936 3.14325 3.95952 0.5
783 0.121746 9.07635 12.0796 0.5
784 2.21527 2.21569 4.59435 0.5
785 10.3169 9.74986 5.46925 0.5
786 8.6498 3.90771 4.67912 0.5
787 6.15195 12.6506 2.63961 0.5
788 11.43 7.40011 10.7658 0.5
789 9.36553 4.20061 2.82869 0.5
790 8.79351 0.42587 2.28655 0.5
791 5.3308 7.28375 12.3382 0.5
792 5.74352 2.5727 7.09003 0.5
793 6.62548 8.76608 3.84697 0.5
794 13.0977 0.576547 3.36448 0.5
795 7.2941 8.17467 4.42681 0.5
796 4.04956 10.7005 10.0494 0.5
797 3.93485 3.83926 11.1673 0.5
798 2.1486 3.0711 3.9757 0.5
799 0.144597 0.633763 5.77606 0.5
800 0.492457 8.15324 13.4273 0.5
801 7.73496 5.62693 2.92634 0.5
802 5.18304 11.0438 12.7447 0.5
803 10.9598 10.6875 11.1282 0.5
804 13.0127 5.61007 8.94799 0.5
805 8.72134 8.59136 2.8105 0.5
806 2.761 7.46034 8.30918 0.5
807 3.34642 4.70416 8.43682 0.5
808 1.38023 9.38034 3.44243 0.5
809 9.48218 4.88447 11.4948 0.5
810 2.63359 13.319 11.6299 0.5
811 10.1623 7.20604 3.35202 0.5
812 2.34209 8.24002 11.6611 0.5
813 7.05798 4.97383 12.2314 0.5
814 9.54337 0.348029 5.65848 0.5
815 11.616 12.1832 8.21437 0.5
816 9.34686 7.49246 0.0991477 0.5
817 11.6481 10.9286 2.94995 0.5
818 3.8007 10.4567 0.251258 0.5
819 5.80815 0.062126 7.57529 0.5
820 13.5472 12.9997 9.33901 0.5
821 11.2173 2.79828 5.043 0.5
822 9.16868 1.01193 4.89683 0.5
823 10.0002 0.408933 10.2128 0.5
824 1.97768 8.48242 5.43082 0.5
825 7.53165 1.09164 2.05777 0.5
826 6.5363 12.836 8.8963 0.5
827 10.911 0.256365 1.28897 0.5
828 4.39444 3.91682 3.54068 0.5
829 4.49429 1.82179 7.89977 0.5
830 4.95939 12.4041 8.79605 0.5
831 11.4307 13.0639 7.81738 0.5
832 0.722157 6.271 10.58 0.5
833 2.10656 11.6709 10.7119 0.5
834 9.03095 1.80339 0.253685 0.5
835 2.13951 6.01975 12.7383 0.5
836 7.68266 9.67892 11.6883 0.5
837 6.49673 3.31861 0.853464 0.5
838 11.9071 13.5597 11.8564 0.5
839 4.48933 5.28144 1.39543 0.5
840 7.45269 12.9895 0.0357618 0.5
841 6.33007 11.2334 6.20823 0.5
842 12.9231 4.08024 11.3873 0.5
843 13.3791 3.1523 12.7665 0.5
844 4.54101 4.04205 13.1299 0.5
845 10.2367 5.75071 5.66368 0.5
846 5.91118 12.1252 8.65166 0.5
847 4.34274 7.55607 6.67918 0.5
848 4.60485 6.68999 11.8641 0.5
849 0.539267 12.4693 6.70572 0.5
850 10.5405 10.8939 12.1072 0.5
851 6.93409 10.5291 6.50343 0.5
852 6.78381 10.5288 7.52222 0.5
853 4.40892 7.18696 9.0387 0.5
854 9.7376 6.53855 4.09569 0.5
855 9.67713 10.8899 2.80531 0.5
856 2.46033 13.3488 3.79362 0.5
857 10.2141 4.89174 10.7199 0.5
858 7.47721 10.1533 8.18297 0.5
859 11.8449 5.44766 5.20706 0.5
860 11.1614 5.0955 5.78645 0.5
861 11.0663 0.129782 6.36772 0.5
862 10.417 7.27234 10.5744 0.5
863 7.58403 8.56552 5.29364 0.5
864 8.19992 6.98285 7.78005 0.5
865 12.2569 3.29041 12.7557 0.5
866 5.27311 13.0536 2.25383 0.5
867 11.9047 3.25981 0.138866 0.5
868 9.01946 9.82379 9.09996 0.5
869 4.48647 0.0935275 13.1195 0.5
870 3.69291 8.44137 6.49828 0.5
871 12.2663 8.06851 4.73301 0.5
872 1.25133 5.8855 13.2285 0.5
873 13.1045 0.703031 2.3955 0.5
874 7.07137 5.5519 13.1505 0.5
875 7.63102 12.0856 4.98728 0.5
876 2.19997 5.89773 8.1016 0.5
877 10.1642 7.85424 7.35598 0.5
878 2.46434 11.5573 0.237577 0.5
879 2.60361 3.36276 8.00884 0.5
880 12.2887 0.996912 2.91678 0.5
881 10.7447 10.3148 13.0074 0.5
882 1.6999 10.3104 3.79516 0.5
883 10.6216 12.3037 0.717245 0.5
884 12.6908 3.12125 0.735665 0.5
885 7.51031 10.8944 10.4308 0.5
886 0.661915 2.94706 7.64342 0.5
887 13.5652 0.122171 12.3276 0.5
888 4.94439 4.72866 2.19934 0.5
889 10.5529 3.89327 8.07178 0.5
890 11.2143 8.80523 6.46058 0.5
891 2.17425 6.11625 2.86896 0.5
892 9.39126 0.856634 9.57258 0.5
893 9.91288 3.3182 7.72232 0.5
894 7.50134 7.48519 0.974743 0.5
895 12.0943 9.04155 1.5764 0.5
896 6.93074 12.1139 0.348255 0.5
897 6.71243 13.252 3.08252 0.5
898 5.28876 12.3204 2.95586 0.5
899 10.7757 4.85578 9.84378 0.5
900 11.4294 10.8538 9.3085 0.5
901 13.347 5.8524 10.606 0.5
902 11.0701 5.75566 8.07628 0.5
903 9.69026 8.91432 3.02981 0.5
904 8.49087 3.63603 5.60802 0.5
905 0.133225 6.25405 6.92708 0.5
906 12.8415 5.17758 3.68653 0.5
907 7.34929 4.3117 10.0352 0.5
908 8.94793 0.0393667 4.90673 0.5
909 9.83504 3.23221 2.68303 0.5
910 7.85778 1.97245 7.64408 0.5
911 6.28395 6.66459 12.0435 0.5
912 8.61252 9.3721 11.3152 0.5
913 11.1468 6.30482 13.016 0.5
914 5.38254 13.1757 13.2913 0.5
915 8.39799 2.59087 5.59635 0.5
916 10.3424 8.75581 6.79776 0.5
917 11.144 0.551002 11.4828 0.5
918 7.75706 6.44 8.44422 0.5
919 13.3238 12.2151 1.03879 0.5
920 0.296628 11.5733 10.4795 0.5
921 5.40617 6.126 7.34166 0.5
922 12.7021 3.23958 11.8556 0.5
923 1.26426 2.5245 8.34759 0.5
924 11.9982 11.3017 10.0291 0.5
925 10.5722 3.33445 1.91928 0.5
926 4.83115 10.2785 13.4463 0.5
927 1.62306 6.80556 5.68472 0.5
928 13.5458 6.42392 5.88423 0.5
929 1.4935 2.89555 11.1637 0.5
930 9.85951 10.2591 9.22274 0.5
931 5.63475 9.45624 12.2678 0.5
932 3.95597 9.02406 3.54733 0.5
933 0.567889 11.9613 0.747615 0.5