ITEM: TIMESTEP
330000
ITEM: NUMBER OF ATOMS
1000
ITEM: BOX BOUNDS xy xz yz pp pp pp
0.0000000000000000e+00 1.3572088000000001e+01 0.0000000000000000e+00
0.0000000000000000e+00 1.3572088000000001e+01 0.0000000000000000e+00
0.0000000000000000e+00 1.3572088000000001e+01 0.0000000000000000e+00
ITEM: ATOMS id x y z radius
1 4.05818 3.91292 12.0336 0.5
2 5.6531 10.5176 3.36877 0.5
3 8.99529 10.3132 2.68933 0.5
4 9.86215 6.22966 1.27592 0.5
5 9.10014 7.54242 10.3141 0.5
6 3.60623 12.9833 5.2211 0.5
7 3.02905 8.56652 0.73234 0.5
8 13.2969 11.7298 2.45571 0.5
9 1.94594 8.57571 6.19594 0.5
10 2.66929 12.7656 10.9196 0.5
11 0.366192 9.4544 8.78883 0.5
12 10.5731 6.00171 0.411449 0.5
13 9.10516 11.5373 5.75816 0.5
14 10.7617 2.31113 4.05462 0.5
15 6.43388 0.870804 4.56001 0.5
16 7.71811 6.82181 8.70498 0.5
17 7.83638 12.5476 10.8053 0.5
18 3.03136 8.6429 5.9419 0.5
19 10.2081 5.45747 1.99844 0.5
20 10.1093 11.9839 3.09063 0.5
21 2.38698 3.89383 0.768105 0.5
22 2.35484 6.28724 11.9673 0.5
23 1.50732 1.52776 10.1978 0.5
24 7.50404 7.47127 1.81815 0.5
25 1.1938 6.02784 2.87538 0.5
26 10.8054 10.26 6.02861 0.5
27 11.5015 6.8881 12.7401 0.5
28 4.67269 11.4997 11.6329 0.5
29 0.462621 5.53113 1.34408 0.5
30 8.31355 11.0254 1.24445 0.5
31 0.211389 13.1645 8.74181 0.5
32 8.84214 2.62932 12.6996 0.5
33 13.0295 6.09214 9.32244 0.5
34 4.01025 8.8156 5.61624 0.5
35 12.0154 6.79171 0.153099 0.5
36 8.60426 1.5839 6.38422 0.5
37 0.503639 0.985323 3.02317 0.5
38 3.35118 1.145 2.01744 0.5
39 9.79515 4.47916 1.6213 0.5
40 5.87161 6.18012 6.63892 0.5
41 8.51308 11.209 4.97789 0.5
42 6.78582 5.36525 3.11139 0.5
43 5.52534 5.36971 10.0602 0.5
44 4.27922 11.124 8.21363 0.5
45 7.60467 6.51355 1.67513 0.5
46 10.6142 11.3433 13.3215 0.5
47 3.23133 9.35436 5.27764 0.5
48 7.61476 10.7003 0.51954 0.5
49 6.32164 12.785 9.88435 0.5
50 6.02758 1.10622 10.4323 0.5
51 0.288298 10.0751 6.89439 0.5
52 6.13047 11.3199 6.87474 0.5
53 9.35627 3.59903 1.65707 0.5
54 11.8889 11.624 4.08737 0.5
55 0.313701 1.79553 6.57668 0.5
56 12.4405 4.41669 3.06945 0.5
57 0.327298 11.3801 11.6136 0.5
58 5.34586 8.44186 10.4219 0.5
59 1.77501 10.5186 11.6059 0.5
60 7.32391 5.88532 9.21552 0.5
61 3.46846 13.2067 10.5879 0.5
62 0.939059 8.49218 1.07677 0.5
63 11.5498 8.71488 2.21038 0.5
64 12.4648 2.47895 10.4536 0.5
65 12.8295 1.6091 5.37173 0.5
66 12.9275 1.64304 2.02037 0.5
67 8.22742 3.00691 7.61112 0.5
68 3.22228 1.17967 3.00286 0.5
69 12.0056 3.18036 11.0394 0.5
70 12.9006 4.30195 10.0162 0.5
71 2.48194 6.81446 8.79563 0.5
72 7.48823 2.42395 10.9164 0.5
73 8.69702 6.8491 8.48695 0.5
74 6.32077 4.80797 10.1111 0.5
75 9.23094 0.673993 10.1948 0.5
76 12.4055 2.89253 13.4114 0.5
77 10.2072 2.76526 3.30351 0.5
78 8.89868 3.41906 4.82177 0.5
79 4.30684 12.4848 5.7434 0.5
80 4.93218 2.63339 8.06975 0.5
81 0.890761 3.03806 12.0638 0.5
82 1.43227 8.98497 0.282348 0.5
83 3.18407 0.552824 6.63843 0.5
84 13.026 8.99528 8.89366 0.5
85 13.5025 3.54318 7.20916 0.5
86 2.77375 0.555593 0.136296 0.5
87 4.4032 5.63671 5.99119 0.5
88 6.37122 5.66299 3.92905 0.5
89 12.3437 12.3689 7.03931 0.5
90 4.20418 6.06194 4.46314 0.5
91 11.7119 7.66726 12.0193 0.5
92 0.349915 1.4813 2.06626 0.5
93 12.9614 0.720381 13.0358 0.5
94 4.72651 9.99049 12.2444 0.5
95 12.1815 1.59767 7.71599 0.5
96 11.7358 2.53002 4.05035 0.5
97 11.8845 2.90049 5.07579 0.5
98 10.7579 9.65394 13.5056 0.5
99 6.64057 8.76519 9.30772 0.5
100 1.34796 6.98652 5.80203 0.5
101 5.1926 11.1839 2.68739 0.5
102 8.72275 7.1356 11.127 0.5
103 4.5613 5.03114 10.4057 0.5
104 7.36646 10.7248 6.08945 0.5
105 11.7313 12.5374 6.10135 0.5
106 5.86513 2.01991 10.743 0.5
107 13.3154 5.14957 7.67919 0.5
108 0.385885 10.3242 4.91467 0.5
109 0.194283 11.8428 9.65851 0.5
110 8.24264 9.04878 8.6524 0.5
111 9.00509 0.0860191 3.1999 0.5
112 6.51285 0.505589 5.47467 0.5
113 0.7132 0.842036 6.6745 0.5
114 7.39617 6.82035 2.59527 0.5
115 5.47578 5.93864 12.1616 0.5
116 0.689639 5.17774 2.49558 0.5
117 0.878827 0.513486 5.59159 0.5
118 11.1828 9.3337 6.2587 0.5
119 11.9531 7.93968 1.75505 0.5
120 4.89243 8.8128 3.73571 0.5
121 11.7666 12.9737 11.192 0.5
122 2.56275 3.01784 2.36589 0.5
123 11.5361 2.68783 10.3463 0.5
124 10.6512 11.2553 11.6777 0.5
125 5.45104 11.4586 3.7197 0.5
126 11.6332 11.3327 13.4796 0.5
127 7.54304 10.5986 11.5166 0.5
128 5.02024 3.08407 7.2554 0.5
129 1.626 7.01055 11.6584 0.5
130 0.956442 11.7305 10.9289 0.5
131 7.61561 2.00593 1.75485 0.5
132 5.78542 11.722 2.08896 0.5
133 0.962732 10.825 11.0599 0.5
134 11.0462 11.8705 3.51094 0.5
135 11.9934 2.08996 5.73181 0.5
136 7.85053 5.1329 4.37446 0.5
137 3.42611 12.4602 6.15482 0.5
138 7.42649 12.397 12.9492 0.5
139 5.55057 0.445739 12.551 0.5
140 5.93534 2.82479 4.34093 0.5
141 1.16325 3.91215 5.01945 0.5
142 9.8195 2.81509 12.7122 0.5
143 0.387833 13.2879 0.0909804 0.5
144 8.92644 13.2809 8.90019 0.5
145 6.6738 6.95767 1.81797 0.5
146 10.2235 9.17615 8.45967 0.5
147 4.49306 6.27187 0.629347 0.5
148 12.3184 0.220089 11.3026 0.5
149 7.68211 6.89925 9.78174 0.5
150 12.6882 11.5123 3.38542 0.5
151 7.37273 12.6835 9.94563 0.5
152 3.23284 4.30378 11.1368 0.5
153 11.531 6.57815 7.59378 0.5
154 3.15907 2.07489 2.37867 0.5
155 2.05781 8.51823 10.7961 0.5
156 8.054 12.2277 0.0730686 0.5
157 1.51914 0.492849 3.22079 0.5
158 1.27516 9.83213 8.44524 0.5
159 3.39035 1.75187 9.21051 0.5
160 9.83897 0.711185 11.0578 0.5
161 12.9134 3.40297 10.7136 0.5
162 6.72654 2.50644 8.09311 0.5
163 11.4125 9.60446 0.754413 0.5
164 9.86859 3.7747 11.331 0.5
165 7.58159 11.5507 11.0813 0.5
166 11.3506 12.7344 6.99554 0.5
167 11.6323 7.41642 8.22876 0.5
168 1.46491 3.16034 7.83886 0.5
169 11.1912 11.4019 12.5573 0.5
170 3.69383 6.23661 0.118984 0.5
171 10.0868 5.28282 0.974398 0.5
172 11.5558 7.692 10.3223 0.5
173 8.89339 10.2672 1.66255 0.5
174 4.0777 13.4059 13.2734 0.5
175 2.62067 6.21038 3.97179 0.5
176 4.06992 5.64568 3.55725 0.5
177 9.03005 4.33858 5.38001 0.5
178 6.27343 1.84267 4.42881 0.5
179 13.4242 5.21955 1.98869 0.5
180 9.24256 3.33365 11.9584 0.5
181 11.0127 11.5164 9.17257 0.5
182 3.22719 11.4839 1.69003 0.5
183 8.26881 7.56024 6.1377 0.5
184 10.5023 4.16332 9.17032 0.5
185 8.94664 1.34983 10.7638 0.5
186 3.98085 7.96046 2.50284 0.5
187 5.08084 -0.00157351 13.3048 0.5
188 4.90821 5.84672 6.79434 0.5
189 0.628185 10.9903 6.42573 0.5
190 9.61039 12.8446 3.23535 0.5
191 9.14869 7.57719 3.99626 0.5
192 10.2 1.14569 13.388 0.5
193 11.9026 2.18275 11.2291 0.5
194 9.60861 13.3558 10.4649 0.5
195 0.415184 9.98555 12.7255 0.5
196 9.12848 0.757079 4.04675 0.5
197 2.84528 6.79442 7.80075 0.5
198 6.41642 5.54587 12.5046 0.5
199 11.5069 1.46494 8.52246 0.5
200 7.05799 7.16472 0.955743 0.5
201 13.542 4.14053 8.06125 0.5
202 6.59839 0.0610444 8.44402 0.5
203 2.1319 3.09885 1.30537 0.5
204 1.92919 8.30624 8.25934 0.5
205 13.0046 13.3527 3.67968 0.5
206 0.606716 1.08527 10.1262 0.5
207 3.88983 11.7013 9.07374 0.5
208 8.8532 5.19196 5.92559 0.5
209 5.51182 2.09015 3.89174 0.5
210 4.18446 6.41675 5.38926 0.5
211 3.80417 4.28979 10.3541 0.5
212 3.37824 5.57092 4.27986 0.5
213 3.68922 1.85616 5.59104 0.5
214 10.2478 4.59965 11.5399 0.5
215 8.15082 7.18359 1.01779 0.5
216 6.37897 8.78245 13.5591 0.5
217 4.09931 11.439 4.48092 0.5
218 6.33769 8.15776 4.51297 0.5
219 9.48596 0.890196 2.95424 0.5
220 6.18703 1.88536 9.80888 0.5
221 3.12714 3.44099 5.57455 0.5
222 7.46936 11.3368 5.28214 0.5
223 4.4522 8.91135 2.78772 0.5
224 12.7452 8.92934 3.93743 0.5
225 8.4943 11.7528 10.861 0.5
226 10.9567 6.8635 0.0602725 0.5
227 12.8066 8.37326 9.67213 0.5
228 4.61772 11.5676 5.32628 0.5
229 5.69864 4.3361 6.48296 0.5
230 6.33226 9.55306 9.06107 0.5
231 8.29377 6.22778 9.21804 0.5
232 6.44406 4.64204 13.014 0.5
233 1.35713 0.735466 9.55949 0.5
234 11.3646 2.0395 4.86073 0.5
235 1.39982 10.6239 3.26133 0.5
236 10.7978 5.9947 1.31309 0.5
237 5.30211 7.93882 6.93072 0.5
238 0.762792 12.9314 5.58303 0.5
239 9.84588 8.13446 3.66247 0.5
240 1.1862 5.01792 13.085 0.5
241 3.86616 5.63591 0.961846 0.5
242 3.14251 0.29345 2.61695 0.5
243 2.50473 9.40822 2.95735 0.5
244 4.13243 11.6801 6.1481 0.5
245 1.33405 11.3735 11.7369 0.5
246 9.6923 10.0705 8.41189 0.5
247 3.60888 0.641152 10.3326 0.5
248 7.31907 2.553 2.51934 0.5
249 10.3365 2.30201 13.4729 0.5
250 9.68182 1.81474 0.442546 0.5
251 5.29673 10.0518 11.3307 0.5
252 8.63611 8.29597 12.848 0.5
253 2.03662 8.66337 1.02627 0.5
254 10.6604 2.69459 2.38175 0.5
255 8.31882 9.62132 2.26029 0.5
256 1.46067 13.0261 3.29397 0.5
257 0.807219 3.85823 7.46001 0.5
258 13.3201 6.53236 6.13918 0.5
259 4.78768 5.08878 9.39434 0.5
260 6.80633 12.1144 10.5515 0.5
261 11.1869 3.53498 5.53923 0.5
262 8.1773 11.2014 6.00003 0.5
263 2.62945 4.33026 8.33487 0.5
264 10.3959 10.9042 8.71056 0.5
265 1.83191 4.62256 5.00445 0.5
266 3.8787 13.354 6.09725 0.5
267 5.06296 7.9558 8.83563 0.5
268 6.62164 2.18698 1.93081 0.5
269 9.63961 0.29855 8.54004 0.5
270 6.78685 9.92275 8.2699 0.5
271 11.4693 11.779 6.73055 0.5
272 6.15552 9.45315 0.668772 0.5
273 7.74476 5.05908 3.35279 0.5
274 9.96853 3.57291 8.61974 0.5
275 2.90128 10.866 1.01196 0.5
276 4.85825 12.6894 13.0727 0.5
277 7.41914 4.47064 13.1348 0.5
278 11.0381 10.6122 0.341658 0.5
279 9.51725 10.8979 5.03398 0.5
280 4.90302 12.0104 2.07589 0.5
281 6.66098 2.65205 10.4532 0.5
282 0.217788 11.5219 1.5853 0.5
283 5.19794 5.36721 1.89256 0.5
284 1.89407 11.165 0.73996 0.5
285 4.04413 9.87377 5.57959 0.5
286 2.79181 0.466276 12.6692 0.5
287 7.60961 7.20611 6.74815 0.5
288 5.822 0.280151 6.96691 0.5
289 2.43843 10.4911 3.25331 0.5
290 1.11565 13.5027 6.36018 0.5
291 5.87705 0.945137 6.10927 0.5
292 3.79406 3.09483 12.6604 0.5
293 10.0501 5.74825 4.3117 0.5
294 3.14729 10.2723 5.82906 0.5
295 3.03683 1.60706 6.43145 0.5
296 0.0941191 4.52285 6.99885 0.5
297 10.4334 10.3203 11.4644 0.5
298 9.90403 4.86778 12.4335 0.5
299 1.95112 0.229425 13.2123 0.5
300 8.96948 4.50752 2.11264 0.5
301 5.94128 7.50569 11.6587 0.5
302 2.43426 8.36951 3.10788 0.5
303 12.0411 8.82568 3.06564 0.5
304 0.325488 7.39206 6.04356 0.5
305 8.27917 12.9445 8.02935 0.5
306 11.2298 8.58292 1.24848 0.5
307 2.69344 6.51823 3.07112 0.5
308 0.0486385 9.71246 11.8974 0.5
309 12.5045 13.4606 12.9027 0.5
310 9.25127 13.2307 4.15321 0.5
311 0.0263142 5.62415 6.75937 0.5
312 7.66593 11.7274 10.1772 0.5
313 1.00305 10.235 4.06054 0.5
314 6.76097 11.9093 9.641 0.5
315 12.5806 5.27394 2.52528 0.5
316 8.87617 6.35633 7.60496 0.5
317 13.293 8.0824 3.89967 0.5
318 13.4005 4.87932 5.99695 0.5
319 10.7874 11.5197 0.71507 0.5
320 5.89807 3.43002 6.83627 0.5
321 2.22858 12.5102 3.372 0.5
322 9.88003 12.9974 0.734091 0.5
323 4.04394 0.729538 2.76029 0.5
324 10.5992 3.52725 2.84952 0.5
325 0.846122 5.32111 0.446108 0.5
326 10.5366 13.0999 0.0675879 0.5
327 8.88257 2.43289 8.10831 0.5
328 12.4986 7.25607 12.9262 0.5
329 7.36531 3.23511 8.18216 0.5
330 8.45 1.26246 4.61503 0.5
331 4.91694 2.7957 4.40052 0.5
332 12.276 2.00936 8.71279 0.5
333 13.4338 1.55842 2.88638 0.5
334 4.41813 6.09488 1.73506 0.5
335 9.81463 0.423465 4.688 0.5
336 3.89905 1.36113 8.35725 0.5
337 11.7539 1.07534 11.3213 0.5
338 7.97734 5.96456 10.0922 0.5
339 9.73351 3.99236 2.56922 0.5
340 12.2983 4.09698 12.462 0.5
341 8.90455 0.661935 9.17715 0.5
342 5.87713 13.5316 5.98196 0.5
343 6.94 6.22864 10.0405 0.5
344 5.15072 6.89842 6.91221 0.5
345 8.284 8.59554 5.96332 0.5
346 0.866462 7.65944 5.35167 0.5
347 13.4671 11.8178 0.734873 0.5
348 1.69036 4.60104 0.3281 0.5
349 8.03205 6.56111 6.16821 0.5
350 8.16221 7.56424 10.4351 0.5
351 2.38015 9.05097 11.753 0.5
352 8.83658 12.438 7.34746 0.5
353 8.34205 7.89664 0.264661 0.5
354 2.36407 2.83302 5.60982 0.5
355 1.78623 6.61162 3.41953 0.5
356 12.1714 13.2393 4.42388 0.5
357 6.95477 11.5397 3.39344 0.5
358 3.84326 1.56588 10.0644 0.5
359 7.27189 9.37512 8.96364 0.5
360 12.9563 4.05679 6.44451 0.5
361 3.31078 1.38364 7.49585 0.5
362 0.525289 1.22418 9.18179 0.5
363 10.0908 12.0713 0.356003 0.5
364 3.46954 7.67482 1.04997 0.5
365 2.528 7.75685 0.719487 0.5
366 6.57954 8.89291 8.29639 0.5
367 11.0965 12.2379 0.157667 0.5
368 5.7341 4.92278 9.15746 0.5
369 1.72258 3.10557 4.8948 0.5
370 0.406118 10.1052 5.86194 0.5
371 9.888 0.208914 3.60594 0.5
372 13.1248 4.38386 3.82253 0.5
373 4.34344 2.16714 12.4618 0.5
374 0.686475 9.11702 13.195 0.5
375 0.48429 9.65571 7.85524 0.5
376 1.90414 10.6126 4.12765 0.5
377 7.33136 5.84463 3.84634 0.5
378 5.85605 9.63486 13.3024 0.5
379 4.78692 5.4685 1.05085 0.5
380 6.69332 3.70247 13.4576 0.5
381 9.93907 2.67185 8.2025 0.5
382 9.25431 2.79458 8.94473 0.5
383 1.4973 5.33258 1.07835 0.5
384 5.25435 10.4012 12.9918 0.5
385 12.9147 10.9126 1.92125 0.5
386 0.310989 4.14962 4.458 0.5
387 2.14002 6.49704 10.9736 0.5
388 1.1811 2.57835 10.2678 0.5
389 4.95121 9.34506 10.1637 0.5
390 5.32719 4.43506 9.92635 0.5
391 6.86551 0.676384 2.59521 0.5
392 13.4083 4.69588 2.97283 0.5
393 2.95692 5.17522 8.9686 0.5
394 9.28088 9.09607 8.27202 0.5
395 0.836902 0.381897 8.6607 0.5
396 0.662019 2.00531 3.00202 0.5
397 7.04401 1.18254 1.65123 0.5
398 9.25321 11.9972 2.5657 0.5
399 1.16522 4.52512 4.22977 0.5
400 6.55649 8.86916 5.03711 0.5
401 9.31411 2.64335 13.5583 0.5
402 4.90589 7.39125 6.09973 0.5
403 6.2612 12.7014 8.16144 0.5
404 11.2479 10.5058 11.9431 0.5
405 12.2183 5.88281 0.265766 0.5
406 6.2119 2.70943 1.07564 0.5
407 1.98036 11.5181 3.57518 0.5
408 2.16962 3.7615 5.43495 0.5
409 3.64352 5.17203 10.7787 0.5
410 11.1253 2.60597 3.20939 0.5
411 4.41216 5.50915 0.0961978 0.5
412 4.92794 13.3689 12.2939 0.5
413 3.46836 6.85539 8.63186 0.5
414 3.06761 8.70856 11.0574 0.5
415 7.63223 9.81306 10.9284 0.5
416 8.94723 10.4988 5.70898 0.5
417 1.16078 13.2337 9.27508 0.5
418 9.9189 1.35394 10.3845 0.5
419 3.55193 12.2751 10.9915 0.5
420 4.07843 0.0386583 7.02324 0.5
421 12.9656 5.13144 9.57144 0.5
422 8.10008 4.82424 5.33765 0.5
423 12.7237 0.0665266 2.80274 0.5
424 2.61194 3.23243 4.62943 0.5
425 8.67542 8.13656 11.1154 0.5
426 1.15398 12.8985 7.22077 0.5
427 6.98246 2.02446 0.997645 0.5
428 0.447443 8.53247 9.01147 0.5
429 10.0232 5.03117 9.01516 0.5
430 8.99949 0.318024 11.0839 0.5
431 2.1813 5.18185 8.18023 0.5
432 0.0358605 2.37166 2.33028 0.5
433 7.40622 11.4886 13.3748 0.5
434 13.0806 3.93401 0.63437 0.5
435 11.1645 9.47843 1.68082 0.5
436 7.19073 5.30096 10.1015 0.5
437 4.46637 9.31023 6.25709 0.5
438 5.70255 3.44214 7.84135 0.5
439 11.234 11.1345 10.0307 0.5
440 9.82788 10.8944 6.10354 0.5
441 6.66158 0.37677 6.50156 0.5
442 1.14793 7.84795 6.2224 0.5
443 1.19811 11.4009 1.54536 0.5
444 9.41913 8.90285 12.9666 0.5
445 4.89515 8.04019 2.97991 0.5
446 3.35996 6.43173 4.75113 0.5
447 2.49573 9.52937 6.0147 0.5
448 5.12364 9.80146 0.313839 0.5
449 3.26248 13.1704 11.557 0.5
450 3.79853 2.00868 1.59475 0.5
451 6.84782 2.77681 0.439338 0.5
452 2.3335 8.44348 0.00349866 0.5
453 4.90627 9.75966 3.19202 0.5
454 3.03478 13.1639 3.35975 0.5
455 1.14128 2.15869 11.7427 0.5
456 8.62998 0.327419 8.2186 0.5
457 12.3035 11.3908 8.26133 0.5
458 3.60712 0.863363 9.31927 0.5
459 12.7847 2.58416 5.54894 0.5
460 12.9702 6.64085 13.5106 0.5
461 11.7649 8.25006 11.1796 0.5
462 10.6353 2.07109 8.12086 0.5
463 6.57119 3.39506 7.49627 0.5
464 12.9855 8.82663 10.5741 0.5
465 5.36454 10.7658 11.9613 0.5
466 3.2826 13.1766 6.86916 0.5
467 1.51435 7.95558 0.510686 0.5
468 13.5467 9.16272 9.73824 0.5
469 1.85281 2.88816 11.6725 0.5
470 1.41752 6.06531 11.6062 0.5
471 4.46973 0.852926 9.97671 0.5
472 10.428 6.66776 4.14402 0.5
473 11.5696 7.42359 7.11548 0.5
474 2.01496 7.58378 9.07803 0.5
475 6.67027 4.07676 6.84156 0.5
476 6.34311 1.34969 11.3484 0.5
477 5.8434 8.03894 9.50177 0.5
478 3.43355 12.3643 0.931382 0.5
479 8.78516 7.35793 12.966 0.5
480 3.83928 10.2068 8.26873 0.5
481 2.87959 3.02038 0.607837 0.5
482 10.5947 0.0309589 0.991598 0.5
483 9.01603 11.1664 2.07561 0.5
484 10.024 7.47509 4.4641 0.5
485 4.50671 5.50153 2.63925 0.5
486 3.36356 11.0349 8.59747 0.5
487 4.07481 2.3448 8.59806 0.5
488 5.66409 5.20086 7.05402 0.5
489 3.56224 0.359637 3.53608 0.5
490 0.685076 12.3755 8.96783 0.5
491 2.6005 7.10634 11.4852 0.5
492 0.760558 5.55354 12.3519 0.5
493 11.9502 8.62372 10.2916 0.5
494 7.37841 3.54694 0.687354 0.5
495 6.57296 7.87791 0.387548 0.5
496 6.9981 0.431188 13.2755 0.5
497 4.83222 4.75462 6.60794 0.5
498 3.61905 11.9428 5.27089 0.5
499 6.57319 2.31092 11.3851 0.5
500 10.265 9.42441 6.44918 0.5
501 5.41023 1.3055 4.49811 0.5
502 9.54056 10.6267 9.24937 0.5
503 7.95911 5.26582 12.8256 0.5
504 2.28833 1.25212 13.0627 0.5
505 4.01387 2.91181 11.7365 0.5
506 3.9009 10.898 1.20428 0.5
507 7.82787 4.19654 3.86726 0.5
508 0.100876 1.96428 5.63143 0.5
509 5.4014 5.28731 6.0152 0.5
510 8.3728 11.1371 11.5845 0.5
511 6.57742 13.5248 7.4573 0.5
512 8.47313 11.1873 2.93411 0.5
513 4.51323 4.77237 3.26164 0.5
514 5.95138 8.4663 0.864652 0.5
515 1.82505 9.94805 2.61362 0.5
516 5.43438 8.96499 2.7969 0.5
517 1.06647 3.47255 4.19837 0.5
518 1.98442 7.29776 8.10363 0.5
519 4.95877 7.57631 9.80305 0.5
520 1.86553 0.933116 0.402424 0.5
521 10.95 6.00085 4.7224 0.5
522 2.37881 9.49422 10.886 0.5
523 12.6943 7.41736 3.25149 0.5
524 0.98063 1.4115 5.89506 0.5
525 10.5095 9.33548 0.901574 0.5
526 9.06004 12.3516 8.37023 0.5
527 7.37315 10.8882 1.57216 0.5
528 1.18763 0.347769 0.205295 0.5
529 13.3782 12.8333 0.917614 0.5
530 12.2259 3.40961 10.1174 0.5
531 10.9627 8.46403 10.6528 0.5
532 5.69011 8.89059 4.43808 0.5
533 5.3522 7.47668 10.8295 0.5
534 1.97319 12.1659 11.3007 0.5
535 8.32516 12.9213 12.8781 0.5
536 1.31479 12.2459 3.99203 0.5
537 2.57413 10.8906 9.11174 0.5
538 7.9674 10.0772 1.36977 0.5
539 2.19587 7.38622 2.9439 0.5
540 0.996169 3.79609 8.53296 0.5
541 4.17413 11.2045 2.16128 0.5
542 8.0908 0.294809 12.9397 0.5
543 12.8196 5.71911 6.06366 0.5
544 7.73588 2.36372 8.06376 0.5
545 1.8564 6.58868 2.38172 0.5
546 0.979845 0.112365 12.8861 0.5
547 10.323 5.38146 5.28938 0.5
548 12.0874 13.3038 6.64229 0.5
549 12.9556 10.2292 7.19828 0.5
550 12.873 12.5102 3.01061 0.5
551 6.26169 1.41979 2.39331 0.5
552 4.05385 7.20227 0.400592 0.5
553 10.7056 5.12187 9.7007 0.5
554 4.19191 12.6698 6.7417 0.5
555 0.542497 4.13689 3.47176 0.5
556 7.47242 13.3842 12.5068 0.5
557 7.54679 11.6492 0.781778 0.5
558 4.38245 1.54429 9.25362 0.5
559 2.82719 10.3319 8.23904 0.5
560 6.85356 3.24948 11.2824 0.5
561 8.12532 8.5653 12.0092 0.5
562 13.3574 3.24159 13.5624 0.5
563 8.67842 6.94155 6.85845 0.5
564 7.74401 5.02728 0.327475 0.5
565 9.78992 4.85513 5.89974 0.5
566 6.82101 1.73091 10.6329 0.5
567 11.7269 5.02404 2.99901 0.5
568 7.28492 1.67335 11.5295 0.5
569 11.3265 6.79643 11.7343 0.5
570 12.9037 7.67011 2.34294 0.5
571 2.58209 0.564196 3.47239 0.5
572 3.79671 3.33376 0.152723 0.5
573 0.166646 0.108924 6.01008 0.5
574 8.92533 8.48462 3.55069 0.5
575 9.02524 12.964 2.47069 0.5
576 3.4155 10.9516 7.52885 0.5
577 3.32022 8.74374 2.82768 0.5
578 2.17778 11.4402 1.5957 0.5
579 12.9001 9.8733 12.7116 0.5
580 2.62286 5.69268 7.37563 0.5
581 1.08472 13.088 8.24762 0.5
582 2.67597 11.749 10.91 0.5
583 2.68949 11.2184 0.0661079 0.5
584 10.0763 6.47108 5.03554 0.5
585 12.8644 4.99952 6.85342 0.5
586 0.247745 5.60511 9.48251 0.5
587 12.7498 2.60651 1.6217 0.5
588 13.0198 13.541 0.1721 0.5
589 13.211 9.69562 8.14951 0.5
590 3.58519 11.8209 8.00019 0.5
591 3.20248 3.4542 11.8064 0.5
592 10.3835 11.0422 10.692 0.5
593 5.63147 10.4974 6.89549 0.5
594 -0.000651124 10.9961 5.54103 0.5
595 13.1119 9.99195 5.44934 0.5
596 9.26535 9.52758 2.21241 0.5
597 2.30132 9.8653 8.94418 0.5
598 7.92638 10.4744 5.28576 0.5
599 11.3127 11.231 8.30635 0.5
600 12.3135 6.28032 12.9686 0.5
601 3.07523 5.57793 3.28344 0.5
602 0.178856 6.61404 9.81648 0.5
603 2.80831 7.81185 10.6884 0.5
604 5.2273 1.54078 9.87508 0.5
605 7.361 2.6247 11.8792 0.5
606 11.3664 8.73454 5.60751 0.5
607 8.79634 9.96662 8.78379 0.5
608 8.43375 13.512 11.9828 0.5
609 1.60874 12.0539 0.967961 0.5
610 1.07579 8.84225 8.34979 0.5
611 0.046156 8.77274 8.09201 0.5
612 6.01447 12.8731 3.22115 0.5
613 3.8254 5.48738 5.17577 0.5
614 2.7654 0.263632 10.9408 0.5
615 3.2353 10.1538 9.14364 0.5
616 0.395983 6.1033 2.15111 0.5
617 6.85724 5.9975 2.25716 0.5
618 11.0364 6.73802 8.48176 0.5
619 11.4773 4.07721 13.0877 0.5
620 0.721293 10.4655 11.9278 0.5
621 1.91867 3.85894 4.29787 0.5
622 5.64858 8.71383 8.84977 0.5
623 12.6672 7.27312 4.25499 0.5
624 13.4272 5.69982 2.86556 0.5
625 1.33547 3.67712 11.4804 0.5
626 2.99313 3.54448 1.53272 0.5
627 10.5268 6.91316 0.973539 0.5
628 12.723 5.02243 10.5424 0.5
629 4.9475 3.94376 3.21414 0.5
630 3.69534 2.85149 1.13954 0.5
631 9.26991 1.02385 0.195545 0.5
632 6.73976 13.062 13.0912 0.5
633 10.1878 0.91891 0.769896 0.5
634 10.4416 10.7731 9.6809 0.5
635 9.47248 1.74472 13.0252 0.5
636 10.0078 3.76134 12.3059 0.5
637 13.2602 10.6348 6.33588 0.5
638 5.62495 0.558529 5.13665 0.5
639 8.6125 6.7063 10.1453 0.5
640 2.39666 4.62509 7.3974 0.5
641 7.43138 7.19598 5.67698 0.5
642 11.4727 6.41777 0.720467 0.5
643 11.2459 1.44288 7.63369 0.5
644 7.45948 3.32974 10.484 0.5
645 0.488342 11.9423 5.90634 0.5
646 9.11907 8.64667 11.9959 0.5
647 8.94602 5.21726 12.5041 0.5
648 8.46426 10.252 11.3346 0.5
649 4.92662 7.45846 11.7864 0.5
650 3.20094 0.368322 7.63536 0.5
651 0.227114 5.75074 5.70048 0.5
652 5.14511 4.09608 7.31937 0.5
653 1.29514 5.85097 1.89127 0.5
654 4.77941 10.2886 10.4767 0.5
655 11.6984 12.0918 8.71889 0.5
656 0.817523 11.4339 0.717631 0.5
657 11.3171 0.221879 7.08817 0.5
658 9.87803 10.0826 5.57429 0.5
659 0.907594 9.81368 3.06648 0.5
660 0.50595 0.288064 9.60422 0.5
661 1.12661 7.85577 8.54269 0.5
662 3.8752 10.979 5.37711 0.5
663 6.20313 12.0654 3.71955 0.5
664 5.13024 6.32254 5.90106 0.5
665 10.4994 11.0163 3.30709 0.5
666 5.83987 11.8747 10.0143 0.5
667 10.0638 4.59227 8.18088 0.5
668 5.36871 3.06073 3.51195 0.5
669 8.16442 10.6458 2.1396 0.5
670 9.32333 13.1865 7.90266 0.5
671 6.86517 8.73438 0.800824 0.5
672 3.18389 2.55445 5.04119 0.5
673 5.41894 8.91759 0.185499 0.5
674 3.47544 7.76379 11.4883 0.5
675 2.35202 3.71204 11.2891 0.5
676 2.21076 13.449 2.86427 0.5
677 3.1795 7.79501 3.06508 0.5
678 12.5231 7.88908 10.5641 0.5
679 10.87 12.3898 6.19356 0.5
680 4.93296 11.1435 1.57173 0.5
681 3.02455 1.10325 8.42066 0.5
682 1.82265 3.18803 10.6407 0.5
683 1.02373 6.47853 12.3604 0.5
684 12.0532 13.0646 3.40001 0.5
685 12.4675 12.3877 3.97298 0.5
686 11.0043 7.63704 11.2874 0.5
687 4.98354 9.43178 13.0108 0.5
688 1.32367 8.60597 5.45687 0.5
689 3.53747 2.90219 2.18191 0.5
690 4.53822 8.6 7.11813 0.5
691 13.3723 10.6353 12.3053 0.5
692 4.55536 0.643178 12.7998 0.5
693 11.6415 5.93113 12.3413 0.5
694 5.80496 9.03112 9.82132 0.5
695 12.0265 7.94863 2.74353 0.5
696 10.8302 3.03412 7.62695 0.5
697 13.3444 9.30413 7.23182 0.5
698 6.48526 10.4362 6.46977 0.5
699 3.34762 7.99011 0.101247 0.5
700 12.2108 8.10671 3.74946 0.5
701 9.5386 7.88205 12.5902 0.5
702 3.21523 2.10337 8.233 0.5
703 1.842 5.52742 0.0457652 0.5
704 8.29862 2.99626 8.60221 0.5
705 10.7157 7.66336 8.52894 0.5
706 7.46061 11.8212 6.21365 0.5
707 3.71638 5.0515 9.69281 0.5
708 0.0734621 2.1734 1.38321 0.5
709 9.88822 0.212575 0.186334 0.5
710 6.71326 6.3662 3.21294 0.5
711 0.269626 0.620612 13.4728 0.5
712 12.0858 2.57728 9.50597 0.5
713 8.5324 9.53027 7.8925 0.5
714 12.7671 4.23224 7.46162 0.5
715 12.898 8.40305 3.04675 0.5
716 1.77629 2.21488 10.953 0.5
717 3.14539 7.00116 0.442004 0.5
718 11.8862 0.640797 7.83966 0.5
719 4.44472 10.5317 11.5157 0.5
720 12.3461 11.7216 2.37123 0.5
721 10.9249 4.90078 8.6264 0.5
722 6.06911 0.194374 13.3541 0.5
723 2.93686 11.9133 8.78447 0.5
724 9.6621 0.0087014 9.56369 0.5
725 2.69133 1.81817 5.50452 0.5
726 7.25213 2.71384 7.24131 0.5
727 4.59615 2.82447 13.2758 0.5
728 12.3604 2.12686 4.69918 0.5
729 9.27771 5.31909 1.64657 0.5
730 8.7358 5.85986 6.64053 0.5
731 10.9336 0.551556 0.251346 0.5
732 2.00829 3.55679 8.69043 0.5
733 8.41288 11.2878 0.21244 0.5
734 10.6564 11.3482 6.12482 0.5
735 2.95157 6.00846 8.26709 0.5
736 4.29084 4.60769 11.2577 0.5
737 5.13681 3.67043 4.27541 0.5
738 1.87016 7.48273 10.8096 0.5
739 7.2259 12.9379 8.07006 0.5
740 12.5054 1.0388 8.59923 0.5
741 7.43376 4.18405 4.75682 0.5
742 5.19029 9.11287 1.07104 0.5
743 6.89627 8.0449 5.3564 0.5
744 4.69599 3.05637 12.3757 0.5
745 7.2095 6.05734 12.6234 0.5
746 5.02285 8.54007 9.54483 0.5
747 12.8867 0.0534721 12.0484 0.5
748 7.49248 9.21351 7.99997 0.5
749 5.66566 9.33223 3.5926 0.5
750 1.27194 1.01292 13.1334 0.5
751 13.3378 8.67571 13.5314 0.5
752 1.7479 0.646542 12.4208 0.5
753 6.04402 1.6414 1.45558 0.5
754 2.33972 11.2874 11.8268 0.5
755 6.44921 3.69576 0.859531 0.5
756 6.67505 7.92426 1.37461 0.5
757 12.1916 6.74267 12.0206 0.5
758 4.34517 12.4575 4.74306 0.5
759 12.4923 8.6045 2.18842 0.5
760 6.95315 4.86881 4.05669 0.5
761 3.52472 11.536 0.518169 0.5
762 13.4664 3.18221 1.12618 0.5
763 12.1856 0.450124 3.61684 0.5
764 8.7453 9.47123 3.15558 0.5
765 13.13 2.44938 0.589604 0.5
766 7.97211 3.41919 4.38258 0.5
767 3.73905 6.64634 1.15905 0.5
768 12.7523 12.8025 11.4743 0.5
769 11.0693 2.51077 5.69609 0.5
770 10.6539 7.73881 6.75478 0.5
771 7.43895 8.09323 6.15802 0.5
772 0.768855 1.88731 10.8055 0.5
773 9.11968 3.41939 8.12218 0.5
774 9.71199 13.5382 2.54701 0.5
775 10.5309 13.4878 11.0004 0.5
776 3.47868 9.43281 6.28414 0.5
777 11.4863 12.5763 4.0203 0.5
778 11.9356 12.0934 3.21389 0.5
779 7.91508 7.97673 5.24531 0.5
780 2.55532 11.2679 8.07292 0.5
781 12.8861 1.7851 6.24815 0.5
782 11.0227 3.30839 3.75661 0.5
783 13.3943 9.08281 12.6657 0.5
784 2.23195 2.30824 4.74957 0.5
785 10.625 9.4154 5.44514 0.5
786 8.49892 4.24836 4.55111 0.5
787 6.44522 12.2576 2.77352 0.5
788 11.8899 7.21408 11.0975 0.5
789 8.8111 3.49962 2.51673 0.5
790 8.7821 0.40552 2.24807 0.5
791 5.58895 6.97203 12.4473 0.5
792 6.02864 2.68666 7.37107 0.5
793 6.57439 8.96908 4.01744 0.5
794 13.1255 0.733022 3.34202 0.5
795 7.29291 8.46525 4.49792 0.5
796 4.07013 10.6819 9.18007 0.5
797 4.0463 3.62487 10.9864 0.5
798 1.87626 2.83686 3.95236 0.5
799 13.5568 1.06817 5.88973 0.5
800 0.538493 8.24469 0.257761 0.5
801 7.63185 5.93395 2.86081 0.5
802 4.47176 10.8867 12.4264 0.5
803 11.1979 10.7067 10.8971 0.5
804 13.2988 5.55289 8.6071 0.5
805 8.63816 8.69414 2.59686 0.5
806 2.79141 7.68819 8.36223 0.5
807 3.15963 4.93826 7.95683 0.5
808 1.55499 9.00008 3.03276 0.5
809 9.45141 5.2906 11.5496 0.5
810 2.79806 12.2201 11.771 0.5
811 9.87743 7.20509 3.50274 0.5
812 2.46421 8.06751 11.5699 0.5
813 7.16346 5.00391 12.341 0.5
814 9.4891 0.408912 5.55318 0.5
815 11.6906 12.0642 7.71071 0.5
816 9.05613 7.25842 0.488106 0.5
817 11.7089 11.213 3.14186 0.5
818 3.4888 10.5259 0.221281 0.5
819 5.67996 13.4896 7.96129 0.5
820 0.318511 12.84 9.73101 0.5
821 10.9392 2.98936 4.73736 0.5
822 9.34014 1.2141 4.97322 0.5
823 10.2869 0.458454 10.1479 0.5
824 2.28645 8.82345 5.25303 0.5
825 7.83822 1.0428 2.10631 0.5
826 6.77205 12.883 9.01931 0.5
827 11.1033 0.918534 1.20101 0.5
828 4.32602 3.3564 3.82407 0.5
829 4.16504 2.05456 7.6633 0.5
830 5.36338 12.6615 9.65242 0.5
831 12.0216 13.1216 7.60419 0.5
832 0.620881 5.85308 10.3851 0.5
833 1.86274 11.1879 10.8881 0.5
834 8.67201 1.94387 13.4795 0.5
835 1.71075 5.75218 12.5389 0.5
836 7.82541 9.61356 11.8982 0.5
837 5.88726 3.15601 0.238084 0.5
838 11.9721 13.1955 12.095 0.5
839 4.21228 5.03553 1.77577 0.5
840 7.61301 13.2355 13.5155 0.5
841 6.58856 11.3073 6.02156 0.5
842 13.3159 4.37788 11.0024 0.5
843 12.8835 3.28574 12.6153 0.5
844 4.53263 3.73111 12.9658 0.5
845 10.8426 5.15719 6.13479 0.5
846 6.03267 12.1869 9.00706 0.5
847 4.36889 7.63794 6.84518 0.5
848 4.70615 6.55243 12.1257 0.5
849 0.354273 12.7722 6.46283 0.5
850 10.3908 10.7055 12.4409 0.5
851 7.05579 11.0719 6.96637 0.5
852 6.38749 10.5915 7.52969 0.5
853 4.44694 7.15961 8.9631 0.5
854 9.44791 6.63402 4.16691 0.5
855 9.57104 11.1357 2.93478 0.5
856 2.11277 13.4188 3.91981 0.5
857 10.2121 5.09286 10.6955 0.5
858 7.85678 10.0454 8.45347 0.5
859 11.3307 5.2502 5.26322 0.5
860 10.6882 4.44302 5.55127 0.5
861 11.1285 13.3705 6.20774 0.5
862 11.0267 6.85188 10.6833 0.5
863 7.49234 8.84192 5.49001 0.5
864 8.07156 7.02729 7.73877 0.5
865 11.8883 3.25367 12.6583 0.5
866 5.70733 12.7476 2.28615 0.5
867 11.6613 3.36916 0.207868 0.5
868 9.53651 9.44618 9.23585 0.5
869 4.49626 0.605998 0.269443 0.5
870 3.82226 8.5312 6.57694 0.5
871 12.541 8.20293 4.67168 0.5
872 0.95325 5.89408 13.2221 0.5
873 13.3497 0.770416 2.35658 0.5
874 7.02968 5.31948 13.294 0.5
875 8.1904 12.0167 5.45869 0.5
876 2.06221 6.26508 7.94916 0.5
877 11.1166 8.06597 7.62255 0.5
878 2.63811 11.7755 0.852546 0.5
879 2.33686 3.55239 7.78272 0.5
880 12.4585 1.10327 2.75035 0.5
881 11.217 10.4533 12.9408 0.5
882 1.78753 9.77325 3.56696 0.5
883 10.7175 12.5144 0.936476 0.5
884 12.5465 3.1946 0.725547 0.5
885 8.06744 10.8403 10.6731 0.5
886 0.342641 3.20058 8.11633 0.5
887 13.5522 13.4769 12.8557 0.5
888 4.87407 4.5727 2.39031 0.5
889 10.9539 3.96229 8.26131 0.5
890 11.4429 8.3875 6.5783 0.5
891 2.04372 5.75232 2.82149 0.5
892 9.71851 0.970501 9.46341 0.5
893 10.0519 3.6947 7.67865 0.5
894 7.53123 8.04853 0.872444 0.5
895 11.9932 9.04874 1.4179 0.5
896 7.05243 12.414 0.337294 0.5
897 7.00926 12.686 3.52683 0.5
898 5.45573 12.0987 2.941 0.5
899 9.88856 4.51021 9.89852 0.5
900 11.9003 11.0991 9.12413 0.5
901 13.2867 5.76157 10.2094 0.5
902 10.715 5.81811 8.94456 0.5
903 9.56211 8.83143 2.91252 0.5
904 8.16547 3.78346 5.39407 0.5
905 0.735944 6.427 6.31922 0.5
906 12.698 5.18976 3.54571 0.5
907 7.2085 4.28368 10.0901 0.5
908 8.81127 0.304714 4.83878 0.5
909 9.72117 3.01157 2.52699 0.5
910 8.05352 2.12907 7.17053 0.5
911 6.33685 6.49138 12.0344 0.5
912 8.53077 9.26137 11.4499 0.5
913 11.4095 6.0615 13.3356 0.5
914 5.34542 0.994511 13.3734 0.5
915 8.14852 2.75808 5.24395 0.5
916 10.6701 8.78527 7.0176 0.5
917 11.4175 0.21977 11.5595 0.5
918 8.04064 6.0758 8.16336 0.5
919 12.8961 11.9377 1.47038 0.5
920 0.0778762 11.332 10.5285 0.5
921 5.53446 6.14749 7.56301 0.5
922 12.7579 3.78491 11.6119 0.5
923 1.11356 2.80508 8.74124 0.5
924 11.7499 11.9392 9.7515 0.5
925 10.3518 3.58741 1.91658 0.5
926 4.31785 10.1702 13.2059 0.5
927 1.90532 7.84662 5.44429 0.5
928 0.423693 6.69351 5.38372 0.5
929 0.990622 2.86864 11.1446 0.5
930 10.3738 9.93475 9.13178 0.5
931 5.6733 9.68406 12.3168 0.5
932 4.03515 8.34858 3.47863 0.5