ITEM: TIMESTEP
560000
ITEM: NUMBER OF ATOMS
1000
ITEM: BOX BOUNDS xy xz yz pp pp pp
0.0000000000000000e+00 1.3572088000000001e+01 0.0000000000000000e+00
0.0000000000000000e+00 1.3572088000000001e+01 0.0000000000000000e+00
0.0000000000000000e+00 1.3572088000000001e+01 0.0000000000000000e+00
ITEM: ATOMS id x y z radius
1 4.35473 3.90406 12.3638 0.5
2 5.30793 11.2669 3.73576 0.5
3 9.03135 10.4485 2.77335 0.5
4 9.634 5.5353 1.05061 0.5
5 8.7317 7.84832 10.5025 0.5
6 3.63217 12.9721 5.13878 0.5
7 2.66797 8.65302 1.19993 0.5
8 13.2525 11.0139 1.98926 0.5
9 2.01711 8.15442 6.54576 0.5
10 3.10148 0.152679 11.2682 0.5
11 1.12122 9.10003 9.30917 0.5
12 10.4116 5.2705 0.4214 0.5
13 8.8555 11.5601 5.29276 0.5
14 11.1375 2.19951 4.34936 0.5
15 5.78422 2.31519 4.411 0.5
16 7.76829 6.72633 9.5261 0.5
17 6.4906 12.2493 10.6436 0.5
18 2.92322 8.32004 6.22838 0.5
19 9.73396 4.86501 1.79906 0.5
20 10.0194 12.0461 3.52705 0.5
21 1.86381 4.69325 1.35385 0.5
22 2.01084 6.06194 12.6396 0.5
23 1.52743 1.29742 10.3858 0.5
24 7.88941 7.36931 1.88327 0.5
25 0.729172 5.93496 2.29293 0.5
26 10.2555 10.358 5.94701 0.5
27 11.4412 6.64987 12.8259 0.5
28 5.10533 11.6412 12.1084 0.5
29 0.0550088 5.94654 1.48065 0.5
30 8.16678 11.1046 1.55592 0.5
31 0.759565 13.5313 8.36387 0.5
32 8.87241 2.41266 12.6016 0.5
33 13.021 6.00938 9.77235 0.5
34 3.74461 8.88312 5.81834 0.5
35 11.8042 6.51981 0.182835 0.5
36 8.96456 2.18159 4.66109 0.5
37 0.162229 1.11329 2.53279 0.5
38 3.20138 1.46977 1.97487 0.5
39 10.4831 4.30064 1.7144 0.5
40 5.89196 6.1274 6.5405 0.5
41 8.0245 10.9998 5.16409 0.5
42 6.86265 5.34025 3.34226 0.5
43 5.31151 5.17961 10.0223 0.5
44 4.28605 11.5608 8.1407 0.5
45 7.58961 6.33784 1.67245 0.5
46 10.1971 11.0201 0.201068 0.5
47 2.7288 9.15948 5.62146 0.5
48 7.60677 10.6739 0.803421 0.5
49 5.26595 11.6877 9.41452 0.5
50 5.85022 0.853388 10.2949 0.5
51 13.0343 10.1386 7.51741 0.5
52 6.24083 10.7482 7.47187 0.5
53 10.3225 3.29057 2.01049 0.5
54 12.1164 11.5759 4.18878 0.5
55 0.50574 0.681359 6.44016 0.5
56 13.4345 3.79084 3.53956 0.5
57 0.596514 11.5248 11.2891 0.5
58 5.08749 8.46592 10.4468 0.5
59 1.84284 10.4111 11.7384 0.5
60 7.66926 4.98262 9.36983 0.5
61 4.0291 0.694162 10.8262 0.5
62 1.01485 9.05465 0.823844 0.5
63 11.6689 8.46851 2.29466 0.5
64 12.2561 1.78049 9.54414 0.5
65 13.0899 1.46197 5.29851 0.5
66 12.3113 1.35748 1.70339 0.5
67 8.33437 3.12716 8.52395 0.5
68 2.943 1.45941 3.00776 0.5
69 11.6318 2.31538 10.2106 0.5
70 12.5191 3.3314 9.39857 0.5
71 2.97136 6.43575 9.0886 0.5
72 7.36742 2.10419 10.7745 0.5
73 8.58602 6.72988 8.73849 0.5
74 6.27277 4.82066 10.1144 0.5
75 9.07629 0.24082 10.3876 0.5
76 12.0786 3.18385 12.8747 0.5
77 10.5045 2.60471 3.62081 0.5
78 8.74528 3.03331 5.15404 0.5
79 4.32761 12.5028 5.83793 0.5
80 5.63428 2.82068 8.05836 0.5
81 1.35972 3.17484 11.9297 0.5
82 1.0386 8.70946 13.5274 0.5
83 3.14137 0.603331 6.36442 0.5
84 0.167341 8.75231 9.54995 0.5
85 13.0525 3.88097 7.03192 0.5
86 2.97156 0.757899 0.238014 0.5
87 4.44021 5.69886 5.84926 0.5
88 6.78964 5.93397 4.23449 0.5
89 11.3749 12.0864 7.63998 0.5
90 4.38984 6.13114 4.26357 0.5
91 11.5399 7.51035 12.2114 0.5
92 13.2866 1.36305 1.59519 0.5
93 0.150912 0.474438 12.5149 0.5
94 4.52754 10.2137 12.6858 0.5
95 12.2119 0.871014 8.06447 0.5
96 11.85 2.79849 4.71075 0.5
97 12.1408 2.63466 5.73266 0.5
98 10.866 9.66983 0.406093 0.5
99 6.48638 8.84762 9.32914 0.5
100 0.554888 7.23316 6.51386 0.5
101 4.79971 11.7584 2.95684 0.5
102 8.59706 7.22566 9.63999 0.5
103 4.46482 4.92407 10.5731 0.5
104 6.99886 11.7589 6.03622 0.5
105 11.7687 11.9524 6.69202 0.5
106 5.76599 1.63123 10.727 0.5
107 13.4817 5.57408 7.27719 0.5
108 12.8826 10.3811 5.9227 0.5
109 0.909595 12.1159 9.42591 0.5
110 8.0477 9.32898 8.63463 0.5
111 8.79593 0.0392707 3.43994 0.5
112 6.30827 1.48928 4.78425 0.5
113 0.581774 13.4266 5.86275 0.5
114 7.71254 6.63025 2.62954 0.5
115 5.70339 6.43426 11.7848 0.5
116 13.5475 5.25783 2.20297 0.5
117 0.593332 1.28016 4.84401 0.5
118 10.843 9.54883 6.13953 0.5
119 12.5881 8.14743 1.83806 0.5
120 5.44418 9.22625 3.83627 0.5
121 11.7223 13.2247 11.288 0.5
122 1.75203 2.93343 2.38534 0.5
123 12.0762 1.86769 8.56531 0.5
124 10.3627 11.2087 11.8127 0.5
125 4.91987 12.1903 3.88661 0.5
126 11.1105 11.4725 13.4675 0.5
127 7.63594 10.0632 10.843 0.5
128 5.04923 3.20743 7.32109 0.5
129 2.65408 6.35406 11.8965 0.5
130 1.5109 11.7921 10.9398 0.5
131 7.87244 2.28513 1.70203 0.5
132 5.47663 12.2194 2.2463 0.5
133 1.27647 10.8845 10.9091 0.5
134 11.2406 11.5432 3.76285 0.5
135 12.2828 1.60214 5.76356 0.5
136 8.07316 4.77062 4.37425 0.5
137 3.28323 12.5193 5.9893 0.5
138 7.04149 12.2554 13.1424 0.5
139 5.24661 13.4529 0.356669 0.5
140 4.60735 3.9138 3.84914 0.5
141 1.71518 3.9822 4.23302 0.5
142 9.85663 2.51261 12.5278 0.5
143 0.774522 12.6265 0.48137 0.5
144 8.79613 12.8848 8.80952 0.5
145 6.88493 6.89844 2.04807 0.5
146 9.74813 8.82836 8.85639 0.5
147 4.36007 6.73109 0.660256 0.5
148 12.3542 0.456575 11.5734 0.5
149 8.32232 6.79153 10.49 0.5
150 12.8449 11.5694 3.48614 0.5
151 6.60603 12.5264 9.75645 0.5
152 3.48851 4.34881 11.9399 0.5
153 12.1311 7.78669 7.78596 0.5
154 2.46398 2.17571 2.31305 0.5
155 1.82215 8.42576 10.9861 0.5
156 8.10426 12.1917 13.3684 0.5
157 1.34922 0.408602 3.55534 0.5
158 1.93399 9.53497 8.83124 0.5
159 4.11036 2.3876 8.87445 0.5
160 9.73138 0.279518 11.1452 0.5
161 12.5754 2.63292 10.0264 0.5
162 6.59854 2.97763 7.86731 0.5
163 11.357 9.6594 1.19174 0.5
164 9.81119 3.2963 10.9862 0.5
165 6.72639 11.2353 10.7919 0.5
166 10.9257 12.601 6.77943 0.5
167 11.2043 7.91687 8.21367 0.5
168 1.12957 2.78318 7.5579 0.5
169 10.3827 11.2567 12.8177 0.5
170 3.3913 6.50111 0.188581 0.5
171 10.6061 5.19793 1.43025 0.5
172 11.7625 7.34986 10.3326 0.5
173 8.84342 10.3938 1.81098 0.5
174 4.91005 1.44455 13.3355 0.5
175 2.59189 6.43 4.11775 0.5
176 3.99068 5.83493 3.29027 0.5
177 8.77032 4.47762 6.14554 0.5
178 5.1764 3.205 4.32301 0.5
179 12.8248 5.64328 1.69046 0.5
180 9.28635 2.93134 11.7713 0.5
181 10.9568 10.9246 9.9196 0.5
182 3.15359 11.8119 1.6053 0.5
183 8.2738 6.92674 6.17327 0.5
184 10.3421 5.34357 8.75431 0.5
185 9.08279 13.0674 11.1012 0.5
186 4.81995 8.30769 2.6364 0.5
187 5.40858 0.607936 13.1898 0.5
188 4.95448 5.81096 6.70043 0.5
189 0.705462 10.9584 6.64032 0.5
190 9.60506 12.9422 3.52856 0.5
191 9.32822 7.55629 3.76307 0.5
192 9.89641 0.969363 13.3527 0.5
193 11.3636 1.77481 9.23304 0.5
194 9.89145 13.1183 10.4893 0.5
195 0.218209 10.0994 12.4206 0.5
196 9.06333 0.82332 4.26243 0.5
197 2.97722 6.30074 8.17167 0.5
198 6.10464 6.13161 12.619 0.5
199 11.4798 0.208394 8.37827 0.5
200 7.27421 6.92663 1.11872 0.5
201 0.272626 4.19608 7.66389 0.5
202 6.07019 0.19148 6.99859 0.5
203 1.57199 3.59694 1.67714 0.5
204 3.04724 7.84211 8.36331 0.5
205 12.7667 13.4144 3.71446 0.5
206 0.620087 1.30339 10.1264 0.5
207 4.33751 11.9658 9.00755 0.5
208 9.20142 3.91671 5.36882 0.5
209 5.55879 2.57855 3.5069 0.5
210 4.41944 6.58132 5.14002 0.5
211 4.52501 3.98087 10.6012 0.5
212 3.44 5.75744 4.04996 0.5
213 3.58528 1.67799 6.18419 0.5
214 10.1419 4.25416 11.253 0.5
215 8.32712 6.92346 1.22076 0.5
216 6.33667 8.52769 13.5311 0.5
217 4.58774 11.3938 4.57467 0.5
218 6.48694 8.20186 4.72483 0.5
219 9.12527 0.927943 3.19338 0.5
220 7.13139 2.21639 9.79756 0.5
221 3.27023 3.37297 6.14691 0.5
222 7.22941 11.5509 5.086 0.5
223 4.70769 9.23026 3.14859 0.5
224 12.2843 9.25024 4.07305 0.5
225 7.43368 11.8572 11.1641 0.5
226 10.8075 6.20317 0.00325835 0.5
227 13.1015 7.10584 9.98651 0.5
228 4.68622 11.6012 5.53686 0.5
229 5.6532 4.38858 6.07887 0.5
230 6.04242 9.58524 8.89915 0.5
231 8.17849 5.82288 9.04383 0.5
232 8.05798 4.47925 12.7373 0.5
233 1.11902 0.418947 9.98537 0.5
234 11.6738 1.92947 5.07215 0.5
235 1.30163 10.6998 3.40886 0.5
236 10.4036 6.10674 0.926062 0.5
237 5.39475 7.86601 6.52588 0.5
238 0.418493 12.5068 6.22042 0.5
239 10.0945 8.14842 3.57938 0.5
240 1.18266 4.62066 13.3121 0.5
241 3.86341 5.84713 0.670632 0.5
242 3.03672 0.509672 2.63318 0.5
243 2.70947 9.64758 3.32617 0.5
244 3.86905 11.7332 6.13384 0.5
245 1.46768 11.3468 11.8135 0.5
246 9.58864 9.83958 8.60274 0.5
247 3.36338 1.1761 10.2198 0.5
248 7.58343 2.90516 2.49097 0.5
249 10.3016 1.9247 13.2129 0.5
250 9.66682 1.81307 0.458523 0.5
251 4.5669 10.1192 11.6723 0.5
252 8.40997 8.83668 12.7933 0.5
253 1.65423 8.63386 1.47002 0.5
254 11.0183 2.88182 2.78737 0.5
255 8.40121 9.74736 2.45907 0.5
256 1.25966 13.042 3.24952 0.5
257 1.0194 3.66327 7.06883 0.5
258 13.2842 6.87152 5.07625 0.5
259 4.71379 4.50222 9.64446 0.5
260 6.29725 11.6041 9.80993 0.5
261 11.4399 3.01467 6.32738 0.5
262 8.06553 11.9556 4.87002 0.5
263 2.57995 3.77074 8.46657 0.5
264 10.1608 10.5598 9.17701 0.5
265 1.67973 4.44176 5.10821 0.5
266 3.67263 13.3542 6.03892 0.5
267 5.51078 7.6181 9.02849 0.5
268 6.96465 2.59804 1.8642 0.5
269 9.20361 0.251906 8.59622 0.5
270 6.54095 9.9051 7.96723 0.5
271 10.9387 11.4981 6.93089 0.5
272 6.29314 9.26592 0.686046 0.5
273 7.53141 4.65105 3.48739 0.5
274 10.1404 4.32974 8.64149 0.5
275 2.88462 10.9639 1.08563 0.5
276 4.32239 2.19075 13.5481 0.5
277 7.48863 5.25792 13.0853 0.5
278 11.0788 10.577 0.665354 0.5
279 9.02608 11.3245 6.23693 0.5
280 4.49131 12.5532 2.27248 0.5
281 6.388 2.39655 10.4797 0.5
282 0.10877 11.4005 1.25453 0.5
283 5.31465 5.76799 1.61875 0.5
284 1.9894 11.1526 0.521852 0.5
285 3.44668 9.96326 5.66129 0.5
286 2.72967 1.21078 12.8567 0.5
287 7.77034 7.25817 6.96643 0.5
288 5.90157 0.195735 5.99656 0.5
289 2.30052 10.6441 3.32803 0.5
290 1.32547 12.7656 5.96958 0.5
291 5.75602 0.632052 4.95236 0.5
292 4.1431 3.05388 12.9883 0.5
293 10.2085 5.71043 3.96661 0.5
294 2.45956 9.96561 6.06 0.5
295 2.8227 1.4617 6.74908 0.5
296 0.0702828 4.68535 6.75943 0.5
297 10.3562 10.307 11.2379 0.5
298 9.83691 4.56767 12.1638 0.5
299 2.03344 0.446721 13.3421 0.5
300 9.54923 3.83451 1.49451 0.5
301 5.85128 7.38844 11.6242 0.5
302 2.92293 8.72402 3.31651 0.5
303 11.9181 8.98498 3.0799 0.5
304 0.46824 7.37407 5.49149 0.5
305 7.97123 12.739 8.19165 0.5
306 11.6518 8.0429 1.36982 0.5
307 2.60962 7.04744 3.3808 0.5
308 0.0647134 9.87372 11.3685 0.5
309 13.2531 13.098 12.7899 0.5
310 9.22478 13.3621 4.38421 0.5
311 13.4404 6.39163 6.66533 0.5
312 7.20909 11.8168 10.1609 0.5
313 1.11903 10.3955 4.3119 0.5
314 5.96606 12.2539 9.07393 0.5
315 12.7729 4.62724 1.95425 0.5
316 8.35434 6.03674 8.03028 0.5
317 13.0874 8.6731 4.19095 0.5
318 0.343831 5.62539 6.26138 0.5
319 10.7799 11.5889 0.812304 0.5
320 5.68981 3.50468 6.55078 0.5
321 2.15799 12.6046 3.28546 0.5
322 9.87816 13.3966 0.957024 0.5
323 3.85512 1.11657 2.60124 0.5
324 10.8508 3.49387 3.5429 0.5
325 1.52471 5.16731 0.466359 0.5
326 10.235 12.9784 0.178916 0.5
327 8.80047 2.64016 7.72412 0.5
328 12.1558 7.26213 13.0615 0.5
329 8.58539 2.75836 9.40258 0.5
330 8.39871 1.37128 4.94759 0.5
331 5.11541 2.97144 2.69988 0.5
332 11.9526 1.01017 9.02665 0.5
333 12.9174 1.58972 2.4624 0.5
334 4.42736 6.22199 1.47736 0.5
335 9.79264 0.364082 4.77357 0.5
336 4.99843 2.01584 8.61676 0.5
337 11.8506 1.05256 12.2201 0.5
338 7.89942 5.84502 9.96719 0.5
339 9.83146 4.114 2.41453 0.5
340 12.5495 3.82955 11.2576 0.5
341 8.69622 0.253439 9.45055 0.5
342 6.56887 0.605522 5.57595 0.5
343 7.15239 5.84578 9.26084 0.5
344 5.18789 6.87487 6.64308 0.5
345 8.73373 7.66487 5.7674 0.5
346 1.30977 6.84682 5.74446 0.5
347 13.1152 11.5998 0.475912 0.5
348 1.32048 4.20254 0.751708 0.5
349 7.64898 6.28316 6.56076 0.5
350 8.90313 7.23982 11.2656 0.5
351 2.11995 9.32528 11.5309 0.5
352 8.32788 12.5528 7.30358 0.5
353 8.80703 7.56163 0.621726 0.5
354 2.38604 2.92782 5.80719 0.5
355 1.75767 7.1478 3.90302 0.5
356 12.0756 13.3023 4.38307 0.5
357 6.69512 12.4006 3.51313 0.5
358 3.63276 1.82786 9.5011 0.5
359 7.04169 9.46278 8.73416 0.5
360 12.6602 4.45177 6.50536 0.5
361 3.7139 1.03755 7.08211 0.5
362 1.36453 1.22554 9.3689 0.5
363 10.2594 12.4301 0.929153 0.5
364 3.07918 7.74556 1.32292 0.5
365 2.03858 7.84907 1.02478 0.5
366 6.39728 8.96374 8.25714 0.5
367 10.2422 12.0028 13.5566 0.5
368 5.71357 4.66879 9.29443 0.5
369 1.96936 3.45759 5.05833 0.5
370 0.248845 10.1464 6.11933 0.5
371 9.78807 0.356646 3.75297 0.5
372 0.179045 4.78198 3.67607 0.5
373 4.7208 2.33778 12.6885 0.5
374 0.70759 9.2482 12.718 0.5
375 1.00721 9.70461 8.5655 0.5
376 1.99251 10.9473 4.24381 0.5
377 7.58377 5.53712 3.92288 0.5
378 5.91802 9.40048 13.2139 0.5
379 4.84991 5.82576 0.582157 0.5
380 7.6118 4.47828 0.156849 0.5
381 9.97937 3.41348 8.30138 0.5
382 9.73827 2.58846 7.81453 0.5
383 2.11085 4.40322 0.2819 0.5
384 5.49305 10.3215 13.0862 0.5
385 12.6471 11.0744 1.18573 0.5
386 0.0399843 4.12448 4.49975 0.5
387 2.10079 6.87156 11.2401 0.5
388 1.28534 2.17819 10.037 0.5
389 4.55085 10.0793 10.6886 0.5
390 5.36647 4.24401 10.2563 0.5
391 6.94063 0.996243 2.38806 0.5
392 13.169 4.70999 2.95146 0.5
393 3.03482 4.2457 9.14993 0.5
394 8.98332 9.14117 8.22569 0.5
395 1.33469 0.248004 9.03181 0.5
396 0.111979 2.1615 2.1604 0.5
397 7.21664 1.59843 1.57943 0.5
398 9.03945 12.0287 3.14456 0.5
399 0.871314 4.64752 4.39076 0.5
400 7.1387 8.96388 5.02032 0.5
401 9.46588 2.5791 13.4301 0.5
402 4.78267 7.33416 5.77748 0.5
403 6.75146 13.1841 7.3535 0.5
404 11.2308 11.0719 12.4141 0.5
405 12.4464 5.85902 0.262523 0.5
406 6.59053 3.39545 1.19692 0.5
407 1.89966 11.6208 3.46658 0.5
408 2.3743 3.96273 5.69858 0.5
409 3.50168 4.57919 10.9467 0.5
410 11.5459 2.7046 3.57626 0.5
411 4.2531 6.10766 13.3754 0.5
412 5.3577 0.91659 0.540178 0.5
413 3.85736 6.14393 8.68513 0.5
414 2.84059 8.8337 11.0049 0.5
415 8.20766 10.4785 11.4091 0.5
416 8.74397 10.6438 5.51177 0.5
417 0.716531 13.2061 9.41077 0.5
418 9.48694 1.10185 10.5993 0.5
419 2.96873 12.9008 10.5587 0.5
420 3.76021 0.0845783 7.01174 0.5
421 13.0939 4.97716 9.6159 0.5
422 8.59809 4.66717 5.20377 0.5
423 12.5184 13.4905 2.71755 0.5
424 2.90351 3.37639 5.13778 0.5
425 8.45518 8.49139 11.1822 0.5
426 0.810266 12.8546 7.67167 0.5
427 7.21961 2.59239 0.942125 0.5
428 0.830758 8.07953 9.1329 0.5
429 11.2169 5.46481 8.29072 0.5
430 10.0066 12.9411 11.4868 0.5
431 2.23758 4.8015 8.7108 0.5
432 12.6645 2.3356 1.75683 0.5
433 7.38188 11.4519 0.161781 0.5
434 0.0780447 2.9274 13.0057 0.5
435 11.0618 8.83972 1.63487 0.5
436 7.00424 5.34027 10.0898 0.5
437 4.36724 9.2111 6.55532 0.5
438 5.96028 3.55466 7.51822 0.5
439 11.1713 10.2984 10.5321 0.5
440 9.36046 10.459 6.34771 0.5
441 5.8229 1.22606 5.71243 0.5
442 1.51178 7.27091 6.63777 0.5
443 0.904484 12.1169 1.32649 0.5
444 9.19653 9.53584 12.7043 0.5
445 5.04724 8.40663 3.67391 0.5
446 3.47553 6.50938 4.79223 0.5
447 2.21039 9.09505 6.43393 0.5
448 5.42949 9.82867 0.571408 0.5
449 3.82019 13.2219 10.9568 0.5
450 3.20704 2.56729 1.67038 0.5
451 7.55004 3.51693 0.630712 0.5
452 1.94902 8.71712 0.455831 0.5
453 5.00635 9.13526 2.18373 0.5
454 2.87667 13.418 3.50296 0.5
455 1.45645 2.27797 11.7173 0.5
456 8.25047 0.118881 8.48572 0.5
457 12.2863 11.0987 9.00045 0.5
458 4.16586 0.928807 9.7876 0.5
459 13.0766 2.15206 5.93518 0.5
460 12.8101 6.76918 0.207527 0.5
461 11.4083 8.28791 11.4967 0.5
462 10.1817 3.39311 7.3558 0.5
463 6.62676 3.37266 6.96962 0.5
464 13.5332 8.01261 10.2303 0.5
465 5.32004 10.6519 12.1722 0.5
466 2.98448 13.2679 6.75413 0.5
467 1.19412 8.11112 0.769079 0.5
468 13.461 7.74509 9.28962 0.5
469 2.02871 3.06708 11.3513 0.5
470 1.70389 6.86435 12.1685 0.5
471 4.20911 1.65018 10.4101 0.5
472 10.6414 6.54678 3.7036 0.5
473 11.4119 8.33339 7.27904 0.5
474 2.89908 7.4193 9.29321 0.5
475 6.40945 3.7381 5.93708 0.5
476 6.34408 0.952101 11.147 0.5
477 5.84728 8.22342 9.76525 0.5
478 3.40657 12.5637 0.850341 0.5
479 8.78467 7.92867 13.1602 0.5
480 4.09178 10.5368 8.04462 0.5
481 2.25714 3.71854 1.01287 0.5
482 10.9132 13.1855 0.8571 0.5
483 8.82378 11.3395 2.35156 0.5
484 10.2758 7.31598 4.10206 0.5
485 4.57933 5.70836 2.35034 0.5
486 3.58114 11.2173 8.69577 0.5
487 4.65711 2.87518 8.08929 0.5
488 5.67014 5.1304 6.7529 0.5
489 3.43143 0.690969 3.42197 0.5
490 0.444545 12.5939 8.62668 0.5
491 2.61854 7.44563 11.8855 0.5
492 1.34733 5.26497 12.526 0.5
493 12.0031 8.33943 10.7322 0.5
494 6.66903 4.95626 0.0580374 0.5
495 6.85903 7.58691 0.47372 0.5
496 6.96087 0.204462 13.0951 0.5
497 4.72119 4.81588 6.24078 0.5
498 3.77395 11.9596 5.16201 0.5
499 6.55265 1.89323 11.2761 0.5
500 9.89114 9.36871 6.18673 0.5
501 4.8254 2.19297 4.18557 0.5
502 9.16036 10.3876 9.1958 0.5
503 7.11917 5.92917 12.3116 0.5
504 2.17938 1.45144 0.219326 0.5
505 4.27267 2.98679 12.0306 0.5
506 3.9297 11.1122 1.43303 0.5
507 7.4581 3.83618 4.17509 0.5
508 0.300296 1.5103 5.91395 0.5
509 5.45473 5.40472 5.86455 0.5
510 7.30537 10.7689 11.4946 0.5
511 6.38784 0.988581 6.52333 0.5
512 8.35083 11.1047 3.22879 0.5
513 4.39503 4.57643 2.22329 0.5
514 6.12967 8.28 0.937595 0.5
515 1.76448 9.95479 2.92401 0.5
516 5.63576 8.80837 2.89487 0.5
517 0.950391 3.8182 4.7747 0.5
518 2.52185 7.03676 8.50581 0.5
519 5.1391 7.49672 10.0899 0.5
520 2.06259 0.49649 0.76056 0.5
521 11.1351 5.86153 4.37725 0.5
522 3.10973 9.18624 11.8712 0.5
523 13.1726 8.04108 3.50985 0.5
524 1.07908 0.841896 5.66794 0.5
525 11.3328 8.80675 0.65665 0.5
526 8.84071 12.1557 8.08278 0.5
527 7.28269 10.7311 1.7156 0.5
528 1.42693 13.4805 0.245784 0.5
529 0.0293365 12.3459 1.0008 0.5
530 11.8646 2.68269 9.34858 0.5
531 11.1017 7.90524 10.6313 0.5
532 6.29218 9.18256 4.46034 0.5
533 5.92286 7.75457 10.6128 0.5
534 2.20835 13.0806 11.2638 0.5
535 7.74237 12.5245 12.4495 0.5
536 1.48981 12.4128 3.88108 0.5
537 2.81181 10.7393 9.09748 0.5
538 8.02612 10.1693 1.49876 0.5
539 2.19893 7.99573 3.49492 0.5
540 0.893634 3.51707 8.12401 0.5
541 3.90859 11.7076 2.33552 0.5
542 7.64365 13.528 12.3413 0.5
543 13.0816 6.0686 5.7466 0.5
544 8.53267 2.08892 8.55358 0.5
545 1.69645 7.28535 2.9424 0.5
546 1.13742 0.468374 12.9116 0.5
547 10.4447 5.23969 4.84992 0.5
548 11.889 12.7853 7.08597 0.5
549 11.9907 10.1576 8.94492 0.5
550 12.7571 12.5911 3.09817 0.5
551 6.42645 1.77961 2.13202 0.5
552 3.6203 7.45834 0.434849 0.5
553 10.4723 5.92986 8.04995 0.5
554 3.82148 12.6697 6.69268 0.5
555 0.818776 3.94227 3.73681 0.5
556 6.74308 12.9539 12.6367 0.5
557 7.39762 11.6032 1.21656 0.5
558 4.63561 1.82737 9.6065 0.5
559 3.10423 10.471 8.1819 0.5
560 6.87 2.82512 11.2857 0.5
561 7.85492 8.89674 11.867 0.5
562 12.7559 2.54392 12.8181 0.5
563 8.48 6.37098 7.09191 0.5
564 6.46493 5.135 12.6683 0.5
565 9.5769 4.90924 5.5999 0.5
566 6.69499 1.49218 10.368 0.5
567 12.8436 4.44679 3.92837 0.5
568 7.34542 1.22956 11.1871 0.5
569 11.191 6.62061 11.7694 0.5
570 13.3823 8.34459 2.55271 0.5
571 2.36813 0.612194 3.35873 0.5
572 4.14525 3.11075 0.422444 0.5
573 0.9115 13.3078 6.79139 0.5
574 9.18518 8.52323 3.55997 0.5
575 8.87094 12.9498 2.76552 0.5
576 3.44942 11.2409 7.63869 0.5
577 4.04171 8.99563 2.39087 0.5
578 2.09212 11.5895 1.35622 0.5
579 12.87 9.96363 12.0463 0.5
580 2.40165 5.39264 7.95861 0.5
581 1.34015 12.8529 8.65305 0.5
582 2.45831 12.129 10.9486 0.5
583 2.97167 10.9618 0.177395 0.5
584 10.3849 6.31044 4.71655 0.5
585 12.9997 5.41415 6.55379 0.5
586 0.336192 5.61222 9.61354 0.5
587 12.6789 2.88908 0.892477 0.5
588 13.4815 12.404 13.5368 0.5
589 0.32605 9.70413 9.21625 0.5
590 3.40474 12.0502 8.28686 0.5
591 3.41207 3.48171 12.2516 0.5
592 10.5472 11.058 10.7649 0.5
593 6.55871 9.32039 7.28229 0.5
594 13.2698 10.704 6.66263 0.5
595 12.9829 9.65516 6.56876 0.5
596 9.36784 9.6007 2.33118 0.5
597 2.89594 9.76277 8.879 0.5
598 8.05035 11.7117 5.88056 0.5
599 11.2448 10.9166 8.95235 0.5
600 12.3652 6.31661 12.976 0.5
601 2.84296 6.00888 3.29868 0.5
602 0.191779 6.38835 10.283 0.5
603 2.56553 7.78414 11.0517 0.5
604 4.89074 1.07772 10.3386 0.5
605 7.43433 1.99327 11.7454 0.5
606 11.2448 8.93032 5.32656 0.5
607 8.6124 10.0848 8.32346 0.5
608 8.18248 12.597 11.4172 0.5
609 1.61854 12.0183 0.579353 0.5
610 1.45219 8.70437 8.52566 0.5
611 0.496003 8.85682 8.55818 0.5
612 5.65909 13.553 3.0528 0.5
613 3.91944 5.66874 5.04402 0.5
614 3.41994 0.180554 10.1884 0.5
615 3.77234 10.2641 8.9669 0.5
616 13.1864 6.25355 2.3884 0.5
617 7.00832 5.95537 2.45308 0.5
618 11.5958 7.02618 8.43467 0.5
619 13.0926 4.36201 12.0757 0.5
620 0.736734 10.6657 11.7349 0.5
621 2.59597 4.1948 4.66588 0.5
622 5.64477 8.54068 8.83803 0.5
623 12.8895 7.74418 4.58588 0.5
624 12.5895 5.44682 2.6343 0.5
625 1.32848 3.74535 11.0742 0.5
626 2.29995 3.87103 2.0452 0.5
627 9.75323 6.03808 0.228786 0.5
628 13.1887 4.4032 10.5779 0.5
629 4.96002 4.53442 3.09736 0.5
630 3.07715 3.48478 1.41955 0.5
631 9.02299 1.07365 0.120601 0.5
632 6.65487 12.9932 0.0905879 0.5
633 9.77433 0.816564 0.780258 0.5
634 10.205 10.2912 10.1991 0.5
635 9.31067 1.67019 12.9774 0.5
636 10.016 3.50777 12.0389 0.5
637 0.242439 10.0157 7.10178 0.5
638 5.55085 1.53457 3.95875 0.5
639 9.31379 6.98059 10.3186 0.5
640 2.22276 4.42319 7.8034 0.5
641 7.26107 7.16104 6.06524 0.5
642 11.3935 5.69673 0.7275 0.5
643 11.2849 0.71453 7.5208 0.5
644 7.27332 2.99797 10.3841 0.5
645 0.0731415 11.1296 5.91071 0.5
646 8.91063 8.92691 11.9242 0.5
647 8.83974 4.73423 12.0956 0.5
648 7.53122 9.76324 11.6738 0.5
649 5.02787 7.71736 11.0766 0.5
650 3.01483 0.494717 7.41306 0.5
651 1.00098 6.34327 6.57286 0.5
652 5.2039 4.28365 7.04073 0.5
653 0.0435823 5.71777 3.03729 0.5
654 3.94486 10.8001 11.0981 0.5
655 11.7036 11.5853 9.6574 0.5
656 1.13857 11.2411 1.11685 0.5
657 11.2565 13.5046 6.71577 0.5
658 9.46838 9.96915 5.47067 0.5
659 1.08204 9.68648 3.56602 0.5
660 0.52479 0.680791 9.31581 0.5
661 2.12733 7.90664 8.78877 0.5
662 3.90587 10.9889 5.41107 0.5
663 5.74889 12.7941 3.68806 0.5
664 5.22594 6.32304 5.83329 0.5
665 10.451 11.195 3.08542 0.5
666 5.10438 12.6851 9.14451 0.5
667 10.7595 4.02453 8.04092 0.5
668 5.35774 3.649 3.36519 0.5
669 8.00227 10.6054 2.37981 0.5
670 8.83352 13.1926 7.81675 0.5
671 7.03817 8.49664 0.668714 0.5
672 3.25195 2.43715 5.55094 0.5
673 5.46466 8.86512 0.315736 0.5
674 3.31009 8.19628 11.6101 0.5
675 2.91213 3.64533 11.4103 0.5
676 2.06631 13.4992 2.83341 0.5
677 3.69033 9.39959 3.42132 0.5
678 12.6971 7.65514 10.8013 0.5
679 10.9781 11.82 6.05436 0.5
680 4.8283 11.5946 1.97453 0.5
681 4.17952 1.32187 8.80696 0.5
682 1.6783 3.14987 10.3658 0.5
683 1.73478 6.00126 11.7021 0.5
684 11.8328 13.09 3.3799 0.5
685 12.5249 12.4719 4.00467 0.5
686 10.7613 7.48512 11.4878 0.5
687 4.93585 9.5017 13.3677 0.5
688 1.20226 7.85662 5.89465 0.5
689 2.83674 3.03735 2.35113 0.5
690 4.69591 8.49388 7.06482 0.5
691 13.3677 10.8215 11.7084 0.5
692 4.54235 0.497185 0.0697666 0.5
693 11.7935 5.89161 12.2481 0.5
694 5.42881 9.09058 9.66706 0.5
695 12.4702 8.05159 2.81722 0.5
696 10.7395 2.93423 8.08327 0.5
697 0.116049 9.74493 8.12072 0.5
698 6.19316 11.2471 6.53386 0.5
699 2.87911 8.221 0.490678 0.5
700 12.2279 8.23037 3.75284 0.5
701 9.37168 8.55293 12.7474 0.5
702 4.22445 1.87533 7.99152 0.5
703 2.00801 5.20822 13.1703 0.5
704 9.2315 2.78789 8.60018 0.5
705 10.6109 7.04152 8.2506 0.5
706 6.74777 10.8783 5.76713 0.5
707 3.72388 4.3641 9.9609 0.5
708 12.6832 1.78427 0.756077 0.5
709 9.39438 0.143343 0.113666 0.5
710 7.24926 6.24069 3.39678 0.5
711 0.400253 13.3607 13.3718 0.5
712 12.7757 2.47148 8.98183 0.5
713 8.20366 9.61258 7.59536 0.5
714 12.8979 4.76776 7.42785 0.5
715 12.8784 8.84913 3.24293 0.5
716 1.89554 2.21089 10.8315 0.5
717 2.72988 7.2191 0.630404 0.5
718 11.9494 0.0152947 7.46742 0.5
719 4.32239 11.0013 12.0536 0.5
720 12.6058 11.6204 2.52135 0.5
721 10.9292 6.2545 8.7603 0.5
722 5.88573 13.3248 13.0379 0.5
723 2.86629 11.7917 9.0981 0.5
724 9.63426 13.3442 9.4233 0.5
725 2.53874 1.8971 5.7881 0.5
726 7.7292 2.46146 8.97069 0.5
727 5.026 2.94846 13.4819 0.5
728 12.6452 2.29955 5.00083 0.5
729 10.0914 4.48355 0.896262 0.5
730 7.97897 5.55365 7.19702 0.5
731 10.4445 0.27953 0.244248 0.5
732 1.61829 2.85778 8.44773 0.5
733 8.21177 11.5917 0.669439 0.5
734 10.0957 11.2898 6.35644 0.5
735 3.03719 5.45595 8.7601 0.5
736 4.36911 4.52185 11.5694 0.5
737 4.51925 3.69094 2.85471 0.5
738 1.7021 7.70843 11.583 0.5
739 6.97442 0.565174 7.25733 0.5
740 11.9027 12.7935 8.18706 0.5
741 7.57868 4.32517 5.0849 0.5
742 5.61369 9.08773 1.3203 0.5
743 7.1637 8.04532 5.47818 0.5
744 5.07628 3.21643 12.5211 0.5
745 6.62569 6.76968 12.0531 0.5
746 4.84626 8.25955 9.42735 0.5
747 13.2954 13.4803 11.8389 0.5
748 7.31376 9.12491 7.89728 0.5
749 6.37935 9.30836 3.49294 0.5
750 1.28738 0.941921 0.213388 0.5
751 0.0880448 8.63694 13.0675 0.5
752 1.71838 1.28364 12.9625 0.5
753 6.3907 2.26275 1.17483 0.5
754 2.17695 12.1262 11.7996 0.5
755 6.75325 4.00228 0.412052 0.5
756 6.97915 7.81616 1.51719 0.5
757 12.0728 6.78367 12.0971 0.5
758 4.5377 12.3951 4.82727 0.5
759 12.5053 8.9522 2.31562 0.5
760 7.02267 4.87344 4.28239 0.5
761 3.5929 11.5984 0.616732 0.5
762 13.274 2.40897 0.219518 0.5
763 12.0615 0.496462 3.48948 0.5
764 8.99899 9.5646 3.28743 0.5
765 12.2757 2.44103 0.0519801 0.5
766 7.7825 3.31272 4.98751 0.5
767 3.49498 6.76793 1.18771 0.5
768 12.6525 13.0346 11.1073 0.5
769 11.3408 2.05302 6.00517 0.5
770 10.9163 7.81464 6.5826 0.5
771 7.87777 7.8362 6.15938 0.5
772 0.969808 1.72583 10.9355 0.5
773 9.15273 3.49536 7.78405 0.5
774 9.56105 0.0759165 2.72511 0.5
775 10.681 0.0552521 11.0202 0.5
776 3.25379 9.32068 6.46697 0.5
777 11.5089 12.4235 4.13669 0.5
778 11.9779 11.9999 3.26165 0.5
779 8.016 7.4436 5.28 0.5
780 2.60399 11.3171 8.2588 0.5
781 13.1087 1.20886 6.29764 0.5
782 10.9921 3.12267 4.40906 0.5
783 13.5698 9.15619 11.9987 0.5
784 2.30777 2.5276 4.95258 0.5
785 10.3723 9.37032 5.31114 0.5
786 8.44537 3.93672 4.63332 0.5
787 6.14563 12.7343 2.79474 0.5
788 11.794 7.43787 11.3099 0.5
789 9.34864 3.14507 2.21457 0.5
790 8.59651 0.362202 2.50677 0.5
791 4.88846 7.02828 11.8005 0.5
792 5.89206 2.69912 7.11267 0.5
793 7.04211 8.74203 3.92956 0.5
794 12.9722 0.695514 3.08086 0.5
795 7.49149 8.03546 4.6081 0.5
796 4.63142 11.0424 8.87217 0.5
797 3.89598 3.72385 11.3905 0.5
798 2.37728 3.24167 4.15799 0.5
799 0.0882484 0.707893 5.46946 0.5
800 0.268462 8.39579 0.571859 0.5
801 7.82834 5.61749 2.99625 0.5
802 4.96009 11.1151 12.934 0.5
803 11.278 10.7607 11.4847 0.5
804 13.2302 5.67942 8.86906 0.5
805 8.78676 8.82156 2.66532 0.5
806 3.65019 7.14513 8.64742 0.5
807 3.11719 4.6198 8.12275 0.5
808 1.88467 9.04885 3.40622 0.5
809 9.46808 4.96736 11.2827 0.5
810 3.05822 12.7397 11.5531 0.5
811 10.0709 7.14613 3.16081 0.5
812 2.42194 8.44121 11.8643 0.5
813 8.13783 5.4442 12.3148 0.5
814 9.6045 0.453327 5.85324 0.5
815 11.7782 11.8071 8.55912 0.5
816 9.56506 8.07687 0.177658 0.5
817 11.9568 10.9665 3.26789 0.5
818 3.739 10.5894 0.52625 0.5
819 6.82358 0.0411595 6.43168 0.5
820 13.5038 12.4866 9.3894 0.5
821 11.178 2.7232 5.34209 0.5
822 9.41496 1.32567 5.18938 0.5
823 10.0474 0.418837 10.2511 0.5
824 1.97306 8.43933 5.66287 0.5
825 8.02041 1.25166 2.14188 0.5
826 7.18842 0.0138139 8.16053 0.5
827 10.5828 0.51592 1.25685 0.5
828 5.27608 4.03068 2.3863 0.5
829 5.07719 2.1381 7.59006 0.5
830 5.20214 11.9669 8.43725 0.5
831 11.1561 13.1341 7.6594 0.5
832 0.902059 5.69453 10.5262 0.5
833 2.22594 11.2757 11.3289 0.5
834 8.62255 2.01691 0.0126502 0.5
835 1.04057 6.16434 12.419 0.5
836 7.50872 9.00895 10.9202 0.5
837 6.82907 2.9964 0.213524 0.5
838 12.4703 13.1002 12.0592 0.5
839 4.52231 5.24441 1.43319 0.5
840 7.5849 13.0207 13.2787 0.5
841 7.21944 10.9792 6.60668 0.5
842 12.6394 3.63949 10.2945 0.5
843 12.4275 3.00997 11.967 0.5
844 4.66533 3.89214 13.3486 0.5
845 9.91456 5.79979 5.52394 0.5
846 5.67591 12.3621 10.0012 0.5
847 4.41321 7.51101 6.66484 0.5
848 5.08914 6.29312 12.5282 0.5
849 1.14772 12.283 6.83562 0.5
850 10.6238 10.3566 12.2929 0.5
851 6.50807 10.3145 6.63667 0.5
852 7.17498 10.1262 7.32184 0.5
853 4.60982 7.27005 9.24191 0.5
854 9.65585 6.58714 3.90591 0.5
855 9.38693 11.1374 3.34277 0.5
856 1.99359 13.3642 3.90506 0.5
857 10.3359 5.10704 10.7674 0.5
858 7.59486 10.0989 8.21573 0.5
859 11.4594 5.13636 5.01456 0.5
860 10.6498 5.0703 5.76247 0.5
861 11.7099 12.6678 6.0958 0.5
862 10.9853 6.95524 10.7827 0.5
863 7.98759 8.45259 5.39606 0.5
864 8.24142 7.02891 7.86843 0.5
865 12.0978 3.95309 12.2378 0.5
866 5.3504 13.2553 2.15411 0.5
867 12.579 4.1401 13.0042 0.5
868 8.9698 9.37008 9.16663 0.5
869 4.50472 0.714839 12.6363 0.5
870 3.74757 8.38611 6.64358 0.5
871 12.1614 8.47872 4.77181 0.5
872 1.2727 5.80421 13.4012 0.5
873 12.9002 0.624957 2.06709 0.5
874 7.35061 4.90433 12.132 0.5
875 7.27779 12.2821 4.33177 0.5
876 2.19565 5.91421 8.67902 0.5
877 10.5155 7.91694 7.49743 0.5
878 2.66565 11.9085 0.647346 0.5
879 1.85442 3.54337 7.64705 0.5
880 12.0239 0.857968 2.5458 0.5
881 10.9081 10.534 13.2143 0.5
882 1.94177 9.97554 3.90103 0.5
883 11.0544 12.3806 0.371215 0.5
884 12.8748 3.26744 13.5108 0.5
885 7.73044 11.0849 10.6545 0.5
886 0.1509 3.19325 7.5455 0.5
887 0.613398 13.2348 12.3767 0.5
888 5.29115 4.98338 2.24445 0.5
889 11.1182 4.59428 8.76491 0.5
890 11.3915 8.68736 6.30178 0.5
891 1.93462 6.3959 3.31179 0.5
892 9.48545 0.810233 9.57553 0.5
893 9.82561 4.2406 7.72955 0.5
894 7.78853 7.77093 0.933947 0.5
895 12.0207 8.95293 1.42769 0.5
896 7.41611 12.3822 0.543628 0.5
897 6.62653 13.3847 3.4206 0.5
898 5.1101 12.7431 2.94645 0.5
899 10.5727 4.86281 7.9209 0.5
900 11.8385 10.6289 9.78458 0.5
901 13.4822 5.43718 10.4399 0.5
902 11.2142 6.38344 7.82171 0.5
903 9.78782 8.90394 2.8819 0.5
904 8.3019 3.69954 5.67294 0.5
905 13.1967 7.07059 6.00537 0.5
906 12.8623 5.47197 3.63318 0.5
907 7.16229 4.30422 9.99386 0.5
908 8.85616 0.414372 5.10444 0.5
909 10.0911 3.21004 2.87776 0.5
910 7.80468 2.43094 7.92654 0.5
911 5.81384 7.06191 12.5066 0.5
912 8.36433 9.50246 11.1757 0.5
913 11.6316 5.69302 13.2482 0.5
914 4.87232 13.3382 12.9909 0.5
915 7.94998 2.35817 5.01781 0.5
916 10.5499 8.78762 6.89402 0.5
917 11.6732 0.0936458 12.1856 0.5
918 7.65255 6.57256 8.57005 0.5
919 12.8726 11.9458 1.57124 0.5
920 0.82719 11.4094 10.2456 0.5
921 5.66828 5.8752 7.42502 0.5
922 12.2178 2.85978 10.9055 0.5
923 0.552475 2.63867 8.35364 0.5
924 11.5778 11.2353 10.591 0.5
925 10.8396 3.83611 2.58325 0.5
926 4.6513 10.3638 0.152892 0.5
927 2.18016 7.38976 5.93115 0.5
928 0.417209 6.50747 5.78848 0.5
929 1.09366 2.78189 11.0611 0.5
930 9.96945 9.62756 9.44685 0.5
931 5.30903 9.6723 12.4036 0.5
932 4.0209 8.47888 3.22515 0.5
933 0.531713 11.7046 0.417859 0.5