ITEM: TIMESTEP
150000
ITEM: NUMBER OF ATOMS
1000
ITEM: BOX BOUNDS xy xz yz pp pp pp
0.0000000000000000e+00 1.3572088000000001e+01 0.0000000000000000e+00
0.0000000000000000e+00 1.3572088000000001e+01 0.0000000000000000e+00
0.0000000000000000e+00 1.3572088000000001e+01 0.0000000000000000e+00
ITEM: ATOMS id x y z radius
1 4.52582 3.88762 12.1363 0.5
2 5.28737 10.9926 3.66481 0.5
3 8.39155 10.4105 3.37791 0.5
4 9.92113 5.29979 2.06894 0.5
5 8.82811 7.45163 10.2878 0.5
6 4.51625 13.0356 6.00028 0.5
7 2.57991 8.06085 0.955053 0.5
8 13.1508 12.388 1.86567 0.5
9 1.6926 7.8929 5.7515 0.5
10 3.12253 13.1725 10.3804 0.5
11 0.582482 9.41898 9.05289 0.5
12 10.5148 6.08483 1.63211 0.5
13 9.32009 11.1908 6.08639 0.5
14 10.8871 2.24813 4.45742 0.5
15 6.2775 1.98263 4.40036 0.5
16 7.60453 6.82609 8.65935 0.5
17 6.89544 11.9734 10.2663 0.5
18 2.42945 8.58723 5.95835 0.5
19 9.10955 4.77255 2.30935 0.5
20 10.045 11.2003 3.82416 0.5
21 1.57332 5.09303 1.55042 0.5
22 2.10448 6.5829 11.4166 0.5
23 1.46578 2.10748 9.61538 0.5
24 7.4227 7.50093 2.1955 0.5
25 0.982963 6.48864 2.87963 0.5
26 10.8459 9.78656 6.61846 0.5
27 11.3605 6.69316 13.0544 0.5
28 5.27582 11.1882 11.6475 0.5
29 0.633919 6.62148 1.79291 0.5
30 7.99087 11.1024 1.79845 0.5
31 1.19005 0.0562376 8.40147 0.5
32 10.2431 2.39002 13.2642 0.5
33 0.417497 6.03747 9.81097 0.5
34 3.10173 9.36023 6.07804 0.5
35 12.02 6.7598 0.225822 0.5
36 8.91541 1.48764 6.43723 0.5
37 12.6474 0.678689 3.2517 0.5
38 3.16096 1.84652 2.05281 0.5
39 9.85572 4.35367 1.80138 0.5
40 5.76096 5.62636 6.26428 0.5
41 8.86567 10.6993 5.41157 0.5
42 6.84701 5.43275 3.54401 0.5
43 4.98624 5.14375 9.89761 0.5
44 2.58066 10.0173 8.72197 0.5
45 7.35995 6.49528 2.2302 0.5
46 10.2361 11.0508 0.042145 0.5
47 2.39499 9.34506 5.28777 0.5
48 7.68904 10.6112 0.970394 0.5
49 6.41194 12.6778 9.7223 0.5
50 5.89104 1.44927 10.4621 0.5
51 13.4946 10.6447 7.59485 0.5
52 5.80972 10.8387 6.71514 0.5
53 9.67988 3.45219 1.60645 0.5
54 11.6244 11.0307 3.71528 0.5
55 0.0321668 1.21254 6.40389 0.5
56 11.9968 5.99278 3.3002 0.5
57 13.3487 12.0208 11.0615 0.5
58 4.9315 7.93691 10.2391 0.5
59 0.706814 10.5459 11.1588 0.5
60 7.42943 5.84703 8.78954 0.5
61 3.45002 13.0209 11.3453 0.5
62 0.588074 8.47138 0.776246 0.5
63 12.3706 9.22325 1.74013 0.5
64 11.7017 1.79867 10.1111 0.5
65 12.5 1.85247 5.41998 0.5
66 13.221 1.92258 2.36832 0.5
67 8.57709 3.00465 7.52525 0.5
68 3.52274 1.86083 2.98688 0.5
69 12.3379 2.38792 10.8252 0.5
70 12.3424 4.22623 11.2164 0.5
71 2.34234 6.98397 8.80069 0.5
72 7.78025 3.06959 11.0676 0.5
73 8.50472 6.93517 8.46226 0.5
74 5.61787 4.3915 10.0482 0.5
75 8.74938 0.188899 10.1889 0.5
76 12.5976 2.96358 0.747535 0.5
77 10.5701 2.64143 2.86582 0.5
78 9.07281 3.30391 5.1546 0.5
79 3.90847 12.364 6.47531 0.5
80 5.36598 2.60794 8.08342 0.5
81 2.14578 3.27234 11.6193 0.5
82 1.23485 8.81373 0.164341 0.5
83 3.9173 0.731491 7.19004 0.5
84 12.5137 9.06218 9.54861 0.5
85 13.5603 3.64348 7.49734 0.5
86 3.36828 0.540128 -0.0178492 0.5
87 4.6454 5.79578 6.08118 0.5
88 6.56 5.71169 4.42246 0.5
89 11.1807 12.5888 7.35128 0.5
90 4.27868 5.22111 4.07598 0.5
91 11.6014 7.24567 12.2394 0.5
92 13.384 0.969522 2.64401 0.5
93 0.555264 1.14789 0.641324 0.5
94 4.55397 9.93811 12.3204 0.5
95 11.9402 1.57379 8.4221 0.5
96 11.6001 2.98629 4.34604 0.5
97 11.7685 3.39047 5.27674 0.5
98 11.3788 10.0987 0.393501 0.5
99 6.43822 8.38483 9.34808 0.5
100 1.08479 6.36921 5.14928 0.5
101 4.19518 11.7162 2.41387 0.5
102 8.60908 6.83301 10.9953 0.5
103 4.1801 5.13794 10.5536 0.5
104 7.00472 10.4953 5.68853 0.5
105 11.0295 12.8085 6.34359 0.5
106 7.03234 1.25174 10.5058 0.5
107 13.2865 4.41347 9.01397 0.5
108 0.754078 10.6948 6.06556 0.5
109 0.235217 11.3106 9.54208 0.5
110 8.06297 9.1182 8.80075 0.5
111 8.16003 0.130503 3.29558 0.5
112 5.8562 1.08224 4.20111 0.5
113 0.846418 0.703195 6.48169 0.5
114 7.24055 7.00066 3.0337 0.5
115 5.26961 6.2193 12.3476 0.5
116 0.361668 5.79901 2.46208 0.5
117 0.944051 13.5493 5.72407 0.5
118 11.5265 8.94039 6.38731 0.5
119 11.6665 8.64818 1.69684 0.5
120 4.56993 9.37535 3.76627 0.5
121 12.3244 13.3682 11.4881 0.5
122 2.1396 3.62 2.17445 0.5
123 11.9617 1.34173 10.9337 0.5
124 11.2844 10.7585 12.3214 0.5
125 4.91019 11.8076 4.14653 0.5
126 11.2366 10.8539 13.4032 0.5
127 7.34008 10.3903 11.2527 0.5
128 5.27985 2.30373 7.06118 0.5
129 2.41128 6.90251 10.4808 0.5
130 0.523726 12.2502 9.18768 0.5
131 7.9112 1.6234 0.87024 0.5
132 5.18855 11.9063 2.18553 0.5
133 0.558107 11.3792 10.5472 0.5
134 10.7696 10.6152 3.85242 0.5
135 12.2357 2.65858 5.90611 0.5
136 8.05831 5.09643 4.6042 0.5
137 3.46465 13.0473 6.06509 0.5
138 7.27002 11.9091 12.9697 0.5
139 5.47361 0.326303 13.0087 0.5
140 6.46872 3.28373 3.18797 0.5
141 1.39791 3.53947 4.76008 0.5
142 9.40334 2.80321 12.9214 0.5
143 0.726995 0.434966 12.6737 0.5
144 9.02736 12.3152 7.87665 0.5
145 6.51662 7.0656 2.40972 0.5
146 10.076 8.94782 9.00396 0.5
147 4.52621 6.65046 13.576 0.5
148 13.2136 0.215091 11.4336 0.5
149 7.53214 6.54703 9.62476 0.5
150 12.4909 11.517 3.41276 0.5
151 6.79867 11.8544 9.28318 0.5
152 3.62095 3.96985 11.6907 0.5
153 11.208 6.59878 8.40941 0.5
154 2.88771 2.83315 1.77323 0.5
155 1.94754 8.49254 10.6128 0.5
156 8.02425 12.077 13.5601 0.5
157 1.72136 0.340605 4.08868 0.5
158 1.14576 9.24468 8.39705 0.5
159 4.28925 1.8297 9.24709 0.5
160 9.31151 0.483955 11.0733 0.5
161 12.7952 3.2629 11.2824 0.5
162 7.1169 2.38827 7.77702 0.5
163 10.7642 9.26854 0.535922 0.5
164 9.40116 2.89311 11.9509 0.5
165 7.21476 11.1948 10.7665 0.5
166 10.72 13.4823 7.04247 0.5
167 11.3668 7.51897 8.5342 0.5
168 1.68293 3.3687 7.54455 0.5
169 10.751 11.3768 12.7634 0.5
170 3.69638 6.38725 0.498626 0.5
171 10.1455 5.16973 1.13453 0.5
172 10.5805 7.19669 10.8329 0.5
173 8.66418 10.5949 2.36535 0.5
174 4.38117 0.560146 13.121 0.5
175 3.37513 6.74853 3.76987 0.5
176 4.04814 5.22282 3.1507 0.5
177 9.29199 4.26777 5.50485 0.5
178 5.98286 2.86136 4.02105 0.5
179 12.9169 5.84753 2.80434 0.5
180 9.77395 2.08164 12.4047 0.5
181 10.5168 11.4972 9.41111 0.5
182 2.86105 11.6463 1.0424 0.5
183 7.96796 8.36101 6.46839 0.5
184 10.1668 4.3819 9.43276 0.5
185 8.8451 1.1285 10.4501 0.5
186 3.80488 9.26878 2.29172 0.5
187 4.77241 13.33 13.469 0.5
188 5.08945 6.09641 6.9088 0.5
189 0.38446 11.1723 6.8084 0.5
190 8.88321 12.9941 2.92734 0.5
191 9.72238 7.99331 4.01938 0.5
192 10.8134 0.827242 0.0721694 0.5
193 12.6717 1.52269 10.3389 0.5
194 8.79912 13.1812 11.1303 0.5
195 12.7588 9.24653 11.9903 0.5
196 8.69431 0.628679 4.03253 0.5
197 2.4184 6.88679 7.82153 0.5
198 7.21489 6.21367 11.7888 0.5
199 11.0576 1.93332 8.55921 0.5
200 6.88297 6.97361 1.47376 0.5
201 0.272626 3.70633 8.52045 0.5
202 7.11481 0.35544 7.34636 0.5
203 1.41452 4.00338 1.47001 0.5
204 0.673107 8.60018 7.62798 0.5
205 12.2836 12.8428 4.29979 0.5
206 0.606169 1.71968 9.30131 0.5
207 6.09458 12.9022 8.00337 0.5
208 9.4699 5.7827 6.78783 0.5
209 5.57299 2.56105 3.23656 0.5
210 4.62383 6.50951 5.30913 0.5
211 3.67983 4.28973 10.7022 0.5
212 3.36671 5.61654 3.89211 0.5
213 2.80561 1.14547 5.38269 0.5
214 10.1364 3.68852 11.6481 0.5
215 7.86772 6.90626 1.58602 0.5
216 6.28645 8.47724 0.259394 0.5
217 4.2776 11.5636 5.08113 0.5
218 5.52443 8.05672 4.3296 0.5
219 7.82761 1.10048 3.72311 0.5
220 6.49714 1.76811 11.1732 0.5
221 3.20827 3.76099 5.66065 0.5
222 7.18648 10.865 4.7441 0.5
223 3.80622 9.68092 3.17487 0.5
224 13.5048 9.65602 3.06384 0.5
225 7.88002 11.8845 10.8083 0.5
226 10.9603 6.9272 0.359664 0.5
227 12.417 8.81531 10.578 0.5
228 3.76 11.4969 5.99838 0.5
229 5.4461 3.96919 6.51199 0.5
230 6.07603 9.32554 9.10598 0.5
231 8.26721 6.23273 9.05092 0.5
232 6.95379 5.55781 12.6101 0.5
233 1.47675 1.11804 9.60825 0.5
234 11.611 2.40304 5.14143 0.5
235 1.43162 11.1447 3.11574 0.5
236 9.56862 5.95691 1.32436 0.5
237 5.22064 8.18586 6.49295 0.5
238 1.3182 12.6038 6.10789 0.5
239 10.5653 7.94245 4.52822 0.5
240 1.7464 4.08065 12.2629 0.5
241 4.37533 5.68381 13.5557 0.5
242 2.77389 1.10408 2.70112 0.5
243 2.14611 9.53557 3.29 0.5
244 3.01518 12.1513 6.09746 0.5
245 0.556131 11.4613 11.5152 0.5
246 9.51416 9.56185 8.28728 0.5
247 3.84648 0.305895 9.96028 0.5
248 7.91191 2.54828 1.48253 0.5
249 10.2777 1.60488 0.374225 0.5
250 9.7967 0.708432 13.5382 0.5
251 4.73405 9.67043 11.3527 0.5
252 8.91124 8.95944 0.385006 0.5
253 1.52216 8.28255 0.914691 0.5
254 11.0827 3.38108 3.1209 0.5
255 8.36589 9.70621 2.71986 0.5
256 1.48502 13.0026 3.72398 0.5
257 0.932069 4.04116 7.74017 0.5
258 0.498771 5.9778 6.61255 0.5
259 3.95666 4.66733 9.63512 0.5
260 6.74126 11.0256 9.90773 0.5
261 10.9177 3.8457 5.75766 0.5
262 7.85477 10.5094 5.42975 0.5
263 2.91273 4.32065 8.30574 0.5
264 10.4462 10.9507 8.648 0.5
265 1.85777 4.45442 4.59514 0.5
266 4.04544 13.277 6.85196 0.5
267 5.12987 7.49118 8.7782 0.5
268 7.07538 2.03463 1.09026 0.5
269 8.69931 13.3115 7.67041 0.5
270 6.66738 9.76963 8.29799 0.5
271 10.389 13.4769 6.02096 0.5
272 5.95807 9.20653 0.792677 0.5
273 7.81049 5.13724 3.62758 0.5
274 10.0589 3.42702 8.94694 0.5
275 2.647 10.719 0.667972 0.5
276 4.30676 0.0775225 11.4914 0.5
277 7.89071 5.33879 13.0686 0.5
278 10.5507 10.1984 0.100988 0.5
279 9.88928 10.5263 5.5469 0.5
280 4.42287 12.2858 1.66538 0.5
281 6.87155 3.05303 10.7069 0.5
282 0.21079 11.8754 1.38547 0.5
283 4.80067 5.07469 2.52419 0.5
284 1.71456 10.6833 0.223308 0.5
285 2.53196 10.1838 5.86538 0.5
286 3.5827 1.20544 12.8859 0.5
287 7.72762 7.47978 6.81136 0.5
288 6.38978 0.21971 4.3738 0.5
289 2.3702 10.6841 3.32121 0.5
290 0.697746 13.2817 6.71227 0.5
291 6.43231 1.05513 5.01802 0.5
292 4.57648 2.96898 12.6229 0.5
293 11.186 5.94029 3.99879 0.5
294 1.51322 9.91005 5.54332 0.5
295 3.25208 1.15572 6.31103 0.5
296 0.0420345 4.56569 8.00307 0.5
297 11.2237 11.6093 11.8917 0.5
298 10.3797 4.22714 12.4534 0.5
299 2.60212 0.850363 13.0171 0.5
300 8.90168 4.11792 1.59684 0.5
301 6.64454 6.94934 11.6963 0.5
302 2.13838 8.56701 2.96624 0.5
303 13.061 8.84688 2.50946 0.5
304 0.646996 6.66595 6.01746 0.5
305 7.64455 12.3831 6.89166 0.5
306 11.2442 8.46773 0.717184 0.5
307 2.89596 6.99335 2.87846 0.5
308 0.511796 10.0173 12.4233 0.5
309 13.4994 -0.0136542 13.0905 0.5
310 8.83331 13.1642 3.95578 0.5
311 13.5252 5.20667 7.08317 0.5
312 7.7455 11.3234 10.0352 0.5
313 0.869783 11.1227 3.95929 0.5
314 5.91857 12.2244 8.9367 0.5
315 12.8874 5.68363 3.788 0.5
316 8.54633 5.93374 7.06903 0.5
317 13.1775 9.40567 4.12194 0.5
318 12.9217 4.82001 6.39194 0.5
319 10.8534 10.8856 0.704808 0.5
320 5.89883 2.99945 6.63278 0.5
321 1.97696 12.8679 2.9093 0.5
322 9.74912 12.7366 0.668651 0.5
323 3.72257 1.05642 2.41786 0.5
324 9.94902 3.30607 3.24302 0.5
325 1.07052 5.56293 12.9282 0.5
326 10.8491 12.677 0.611089 0.5
327 9.04078 2.39333 8.19613 0.5
328 12.3777 6.77596 12.8352 0.5
329 7.67816 3.2212 7.90341 0.5
330 8.33757 1.09958 4.76033 0.5
331 5.61452 3.5615 3.43072 0.5
332 11.6807 2.25601 9.21549 0.5
333 12.8913 1.72676 3.20327 0.5
334 4.54534 6.22046 0.900358 0.5
335 9.67837 0.226593 4.32052 0.5
336 4.40791 1.21083 8.506 0.5
337 11.9354 0.857538 10.0333 0.5
338 7.18368 5.49749 9.68108 0.5
339 9.26789 3.75582 2.49404 0.5
340 12.3841 3.74404 12.8193 0.5
341 9.30215 13.1352 8.47484 0.5
342 5.51153 0.490763 4.87599 0.5
343 6.66198 5.09631 8.89189 0.5
344 5.22473 7.15531 6.78731 0.5
345 7.08694 8.03222 6.17462 0.5
346 0.825475 7.40998 5.34189 0.5
347 13.4187 11.0729 0.977908 0.5
348 0.81145 4.74716 0.911751 0.5
349 8.68888 7.55479 6.51316 0.5
350 7.82946 7.20709 10.442 0.5
351 2.25864 9.43228 11.0768 0.5
352 9.26579 11.7455 6.97337 0.5
353 8.30087 7.83365 1.6696 0.5
354 2.51203 2.96239 5.78613 0.5
355 1.94279 6.62293 2.79851 0.5
356 11.4137 12.4464 4.65012 0.5
357 5.81228 11.786 3.62722 0.5
358 4.1707 1.33833 10.1791 0.5
359 7.08472 9.10995 8.92587 0.5
360 12.9444 4.45388 7.35372 0.5
361 3.97847 1.64304 7.6533 0.5
362 1.39248 1.63252 8.73483 0.5
363 10.1923 11.8687 0.672942 0.5
364 3.50609 7.93965 0.780969 0.5
365 2.04605 7.35265 0.469513 0.5
366 6.34982 8.80473 8.31001 0.5
367 10.9743 11.7473 0.16794 0.5
368 4.7888 4.39603 9.27477 0.5
369 2.11271 2.92875 4.88696 0.5
370 13.4667 10.3138 6.67578 0.5
371 9.24563 0.215044 3.27394 0.5
372 0.479679 4.45211 3.58451 0.5
373 5.59733 2.63509 12.7792 0.5
374 0.530859 9.06447 12.9106 0.5
375 0.376009 10.0315 8.35051 0.5
376 1.97556 11.3368 3.91418 0.5
377 7.54424 5.86028 4.18623 0.5
378 5.90854 9.30366 13.2473 0.5
379 5.28956 5.9836 0.233605 0.5
380 7.0786 4.85573 13.4251 0.5
381 10.1242 2.56265 8.41663 0.5
382 9.30591 2.87604 9.1432 0.5
383 0.692834 5.60674 1.45729 0.5
384 5.42515 10.0868 12.9199 0.5
385 12.9788 11.3788 1.78706 0.5
386 0.731173 4.2711 4.57656 0.5
387 1.49089 5.73883 11.2204 0.5
388 1.84005 1.59651 10.4291 0.5
389 5.24897 9.46601 10.5105 0.5
390 4.61735 4.2962 10.2855 0.5
391 7.09177 0.60424 1.97962 0.5
392 13.4538 5.09479 3.19329 0.5
393 3.15565 5.13133 9.02348 0.5
394 8.99748 9.0286 8.86411 0.5
395 1.7989 0.733817 8.6946 0.5
396 13.6015 1.09095 3.58099 0.5
397 7.07558 1.02546 1.06122 0.5
398 8.83221 12.0243 3.2911 0.5
399 1.44108 4.06682 3.93268 0.5
400 6.32005 8.64369 4.67317 0.5
401 9.49309 1.75103 13.2855 0.5
402 4.86429 7.44865 5.85044 0.5
403 7.00001 13.1402 6.75537 0.5
404 10.6753 9.96214 11.9815 0.5
405 12.215 5.79433 0.487609 0.5
406 7.44576 2.15776 13.0599 0.5
407 2.18821 11.6701 3.00456 0.5
408 2.3428 3.88773 5.23086 0.5
409 3.59296 5.01063 11.3964 0.5
410 11.2986 2.48284 3.56704 0.5
411 3.65202 6.3758 13.0445 0.5
412 4.84842 13.4696 12.466 0.5
413 3.26803 7.10158 8.49467 0.5
414 2.94421 8.90575 10.6211 0.5
415 8.11275 9.74401 11.0612 0.5
416 9.10715 10.1551 6.20397 0.5
417 1.41739 0.0167616 9.22195 0.5
418 9.5904 0.723653 10.0568 0.5
419 2.50022 13.1517 11.6819 0.5
420 3.45175 0.066589 7.67719 0.5
421 0.529296 5.8585 10.8067 0.5
422 8.42714 4.85754 5.54658 0.5
423 12.0652 13.4651 3.55703 0.5
424 3.00247 3.18327 4.95232 0.5
425 8.35955 7.85351 11.0197 0.5
426 13.3646 12.8879 6.73837 0.5
427 7.59225 2.51138 0.45718 0.5
428 13.5395 8.78108 9.33989 0.5
429 10.1483 5.48933 9.50258 0.5
430 8.32131 0.526814 11.0835 0.5
431 2.38093 5.26249 8.342 0.5
432 0.428721 1.83251 3.00971 0.5
433 7.50306 11.2311 0.166168 0.5
434 13.5156 4.50917 0.631673 0.5
435 11.5775 9.36096 1.0394 0.5
436 6.38235 4.97935 9.8917 0.5
437 4.08235 9.31711 6.39768 0.5
438 6.1609 2.86438 7.66635 0.5
439 10.889 10.9859 10.2289 0.5
440 10.0672 10.5265 6.59315 0.5
441 5.47238 0.10755 3.85103 0.5
442 1.58349 6.84095 5.81727 0.5
443 1.09451 12.0985 1.04328 0.5
444 9.49729 8.72641 13.1603 0.5
445 4.68585 9.19073 2.82923 0.5
446 3.94308 6.14109 4.52182 0.5
447 1.57353 8.83315 5.58064 0.5
448 5.32025 9.66849 0.334416 0.5
449 3.53671 0.444475 10.9496 0.5
450 3.42022 3.35402 1.05423 0.5
451 7.21481 3.18509 13.2458 0.5
452 2.03357 8.13935 13.5725 0.5
453 5.15162 10.0449 4.18478 0.5
454 2.58005 0.106744 2.74673 0.5
455 1.7393 3.27133 10.7162 0.5
456 8.00901 12.5026 7.80083 0.5
457 12.053 12.1817 9.04143 0.5
458 3.81002 0.997043 9.33904 0.5
459 13.2017 2.48831 5.58341 0.5
460 12.902 6.36284 13.4871 0.5
461 11.5185 7.64201 11.2818 0.5
462 10.8453 2.59319 7.71985 0.5
463 6.91627 3.11548 7.05914 0.5
464 11.5555 8.63184 10.895 0.5
465 5.43343 10.2764 11.7953 0.5
466 3.1054 0.240251 6.76279 0.5
467 1.20502 7.73825 0.208612 0.5
468 12.7521 8.14289 9.68996 0.5
469 1.37042 2.77569 11.637 0.5
470 2.48806 4.79135 12.3595 0.5
471 4.6037 0.527383 10.6747 0.5
472 10.959 6.90426 4.21964 0.5
473 12.0024 6.94662 7.85037 0.5
474 1.51431 8.27896 8.03473 0.5
475 6.4325 3.70354 6.22259 0.5
476 7.88217 0.807277 10.1457 0.5
477 5.62088 7.8071 9.55891 0.5
478 3.0252 12.2231 0.358105 0.5
479 9.32326 8.01374 0.20148 0.5
480 2.45072 10.9242 8.33911 0.5
481 2.07023 4.48979 0.723216 0.5
482 10.3455 13.3603 1.32897 0.5
483 8.29701 11.3164 2.86118 0.5
484 9.92057 7.11311 4.34113 0.5
485 5.02291 5.66321 1.69499 0.5
486 3.06494 10.7753 9.1856 0.5
487 5.24149 1.81813 8.79392 0.5
488 6.08648 4.68104 6.61496 0.5
489 3.35565 0.432267 3.18966 0.5
490 1.36058 12.7502 8.78721 0.5
491 2.80342 7.32224 11.2885 0.5
492 1.53447 5.1912 12.1713 0.5
493 11.1528 7.88194 10.3537 0.5
494 7.79945 5.19687 0.426891 0.5
495 6.52632 7.62283 0.755058 0.5
496 6.50449 13.4846 12.8846 0.5
497 5.93384 5.51335 7.24132 0.5
498 3.83266 12.4113 5.41832 0.5
499 7.3136 2.18288 11.0369 0.5
500 11.5859 8.70102 5.38951 0.5
501 5.33278 1.95014 4.10228 0.5
502 9.56052 10.4659 8.63736 0.5
503 8.74107 5.87356 12.6362 0.5
504 2.96841 1.47269 0.236343 0.5
505 5.02684 3.10476 11.765 0.5
506 3.59049 10.9285 1.02381 0.5
507 8.01541 4.26994 4.092 0.5
508 0.294601 2.17626 6.18017 0.5
509 5.11441 5.05393 6.72029 0.5
510 7.7621 11.2284 11.5933 0.5
511 6.44911 0.139283 5.38791 0.5
512 8.35785 11.3162 3.86875 0.5
513 5.95608 3.83431 1.71761 0.5
514 5.80455 8.37004 1.11637 0.5
515 1.7734 10.2668 2.63173 0.5
516 4.75319 10.1482 3.16153 0.5
517 1.56228 3.04463 3.96331 0.5
518 1.55953 7.25238 8.17559 0.5
519 4.6533 7.23236 9.61315 0.5
520 2.41103 0.596942 0.455072 0.5
521 11.2612 5.48125 4.93819 0.5
522 1.80973 10.3791 11.0458 0.5
523 12.7021 8.47034 4.15668 0.5
524 0.667599 0.907483 5.5485 0.5
525 10.7234 10.0677 1.108 0.5
526 8.37126 11.7102 7.31918 0.5
527 7.06457 10.5292 1.78626 0.5
528 1.4483 0.698931 0.631801 0.5
529 13.4564 0.387097 0.501828 0.5
530 11.8974 3.31839 10.8242 0.5
531 10.6901 8.15948 11.1813 0.5
532 5.42709 9.04648 4.28401 0.5
533 5.14084 7.09632 10.8319 0.5
534 1.42383 11.3461 11.1636 0.5
535 8.03863 12.7061 12.7625 0.5
536 2.32165 12.3196 3.74571 0.5
537 3.78449 11.4648 9.41538 0.5
538 7.97927 10.1166 1.84373 0.5
539 2.11662 7.60781 3.0629 0.5
540 1.35118 3.56475 8.47903 0.5
541 3.63332 11.7295 1.70938 0.5
542 7.52983 0.0994354 12.773 0.5
543 13.0631 5.78424 6.4125 0.5
544 8.07775 2.36754 8.02938 0.5
545 2.56326 6.05033 3.43593 0.5
546 1.73714 0.364527 13.2492 0.5
547 10.3754 5.6054 5.55846 0.5
548 11.7604 13.2915 7.05081 0.5
549 0.262282 10.3444 9.28806 0.5
550 12.3143 12.5127 3.3905 0.5
551 6.48478 1.36908 1.74779 0.5
552 3.71488 7.28242 13.5975 0.5
553 11.0646 4.88599 9.42155 0.5
554 3.17478 12.8709 7.0238 0.5
555 0.689835 3.4626 3.944 0.5
556 7.07777 12.8113 12.4111 0.5
557 7.18027 11.4856 1.11588 0.5
558 5.07366 1.65383 9.88464 0.5
559 3.4238 11.3892 8.50987 0.5
560 7.57017 3.70578 10.3317 0.5
561 8.00197 9.0863 12.5632 0.5
562 13.496 3.3942 0.529807 0.5
563 9.11417 6.69272 6.62998 0.5
564 8.21171 6.04113 13.5373 0.5
565 9.42346 5.15541 5.96084 0.5
566 6.7012 2.09866 10.1669 0.5
567 12.0369 5.27117 4.20154 0.5
568 7.90122 1.42566 10.9181 0.5
569 10.8856 6.47032 12.2133 0.5
570 12.6201 8.28107 3.16003 0.5
571 2.46401 0.803189 3.50057 0.5
572 4.19768 3.24981 0.449195 0.5
573 0.0459025 0.218479 6.13296 0.5
574 8.95094 8.03886 3.37489 0.5
575 8.47202 0.24315 2.40339 0.5
576 3.2988 10.4019 8.13513 0.5
577 2.98729 9.00961 2.97381 0.5
578 1.8005 11.3313 0.951684 0.5
579 0.163491 9.05952 11.8892 0.5
580 2.52633 5.91391 7.67118 0.5
581 2.19672 13.38 8.5929 0.5
582 2.68498 12.3822 10.9027 0.5
583 2.636 10.6559 13.1698 0.5
584 10.5354 6.22362 4.68705 0.5
585 12.5464 5.40166 7.18298 0.5
586 13.2626 5.61336 10.2877 0.5
587 0.411253 2.37088 2.17625 0.5
588 0.0798219 1.08421 13.2352 0.5
589 13.1829 9.61605 8.94206 0.5
590 3.48777 9.8465 8.99713 0.5
591 4.08923 3.05395 11.7518 0.5
592 10.8246 11.5693 11.0788 0.5
593 5.71309 9.89804 6.6929 0.5
594 13.3945 11.0415 6.00273 0.5
595 12.5321 10.6388 6.25267 0.5
596 9.29293 10.0301 2.96738 0.5
597 4.12282 10.9545 7.90233 0.5
598 8.11595 11.2716 4.89918 0.5
599 11.3146 11.4998 8.66111 0.5
600 12.0686 5.90868 13.0991 0.5
601 4.22202 5.94373 2.44505 0.5
602 13.3768 5.3663 9.38188 0.5
603 2.76143 7.94927 10.4655 0.5
604 4.87527 1.43801 10.8138 0.5
605 8.53193 3.72258 10.618 0.5
606 12.4414 8.69048 5.85682 0.5
607 8.69919 9.93454 8.82621 0.5
608 7.71391 12.0926 11.9562 0.5
609 1.36406 11.7013 0.0623605 0.5
610 0.763824 8.34233 8.72755 0.5
611 0.113181 8.98476 8.37553 0.5
612 5.43233 13.2918 2.8604 0.5
613 3.57752 5.24632 4.85124 0.5
614 4.13689 13.1279 10.6639 0.5
615 2.737 11.6134 9.15415 0.5
616 13.5606 6.73699 2.54906 0.5
617 6.66618 6.23034 2.87988 0.5
618 10.4435 7.27812 8.45265 0.5
619 11.5852 2.75437 0.916284 0.5
620 13.4236 10.9232 11.1079 0.5
621 2.33949 3.59194 4.22315 0.5
622 5.60886 8.50322 8.79946 0.5
623 12.5035 8.9667 4.92702 0.5
624 0.0610715 6.16146 3.38175 0.5
625 2.2355 2.27689 12.0859 0.5
626 2.34728 4.40364 1.70229 0.5
627 10.3892 6.03469 0.631087 0.5
628 13.1924 4.00777 10.9999 0.5
629 6.74991 3.42217 2.20033 0.5
630 3.07982 4.30759 1.01781 0.5
631 10.4298 0.361639 12.883 0.5
632 6.39166 12.4182 13.1268 0.5
633 10.2121 0.71907 0.877201 0.5
634 10.1155 10.5145 9.57036 0.5
635 10.3271 1.38015 12.9711 0.5
636 10.1835 3.10143 12.4355 0.5
637 12.9973 11.1628 6.92857 0.5
638 5.51021 1.55182 4.93501 0.5
639 8.44194 6.47323 10.0338 0.5
640 2.74721 4.80429 7.42824 0.5
641 8.68362 8.34767 5.78007 0.5
642 11.3715 6.3132 1.0551 0.5
643 11.3307 1.72528 7.6216 0.5
644 7.2624 4.49324 9.63507 0.5
645 0.609439 11.7508 5.92862 0.5
646 8.85429 8.59847 12.2481 0.5
647 7.73743 7.15089 11.4562 0.5
648 8.27921 10.4146 11.7715 0.5
649 5.81841 7.48158 11.3965 0.5
650 3.52295 0.885379 8.22108 0.5
651 0.299547 5.1508 6.17108 0.5
652 5.27608 3.23476 7.30745 0.5
653 1.31201 6.03464 2.10835 0.5
654 4.37164 10.1419 10.6368 0.5
655 11.0852 12.3129 9.27716 0.5
656 0.866395 11.1573 0.815855 0.5
657 11.3177 0.664111 7.28733 0.5
658 10.0566 9.68767 6.05899 0.5
659 0.600067 10.5122 3.27822 0.5
660 0.813512 0.765932 8.95002 0.5
661 0.665281 7.70289 7.97484 0.5
662 3.18484 11.5871 5.21665 0.5
663 5.26233 12.6179 3.65415 0.5
664 5.33001 6.53013 5.97752 0.5
665 10.1156 10.44 3.12145 0.5
666 5.96104 11.7515 9.84684 0.5
667 9.85611 4.25504 8.4892 0.5
668 5.81162 3.08735 2.47223 0.5
669 7.6734 10.5583 2.62647 0.5
670 8.63199 12.5534 6.94485 0.5
671 6.82751 8.56883 1.07886 0.5
672 3.50028 2.71647 5.67015 0.5
673 5.27525 8.59321 0.108266 0.5
674 3.52105 8.27212 11.1599 0.5
675 1.53869 3.16053 12.4305 0.5
676 1.6335 0.243129 3.10905 0.5
677 3.03277 8.04299 3.19788 0.5
678 12.1171 7.94887 10.4796 0.5
679 11.2904 13.1594 5.41691 0.5
680 4.5203 11.3455 1.51406 0.5
681 3.55457 1.7866 8.61975 0.5
682 1.50935 1.85515 11.4 0.5
683 2.28385 5.64724 11.8752 0.5
684 11.4441 12.6796 3.68303 0.5
685 11.9732 11.916 4.10506 0.5
686 10.6007 7.37064 11.8504 0.5
687 4.89853 9.23084 13.0211 0.5
688 1.23955 8.1789 4.88435 0.5
689 3.07034 3.75163 1.87648 0.5
690 4.38823 8.59189 6.98936 0.5
691 13.4574 10.0774 11.7322 0.5
692 5.07759 0.689504 0.294676 0.5
693 11.1409 5.6816 12.759 0.5
694 5.46036 8.74302 9.83804 0.5
695 12.0683 8.8707 2.54617 0.5
696 11.0049 2.98474 8.66026 0.5
697 13.1249 9.73683 7.91853 0.5
698 6.66366 10.3752 6.65609 0.5
699 2.8931 7.7753 0.0475238 0.5
700 12.5685 9.26757 3.34236 0.5
701 8.49922 8.35597 13.1922 0.5
702 4.41319 2.25224 8.44254 0.5
703 1.89249 4.67135 13.1458 0.5
704 8.50375 3.16608 8.5138 0.5
705 10.8313 8.12563 7.97769 0.5
706 6.33868 11.2127 5.11557 0.5
707 3.92515 4.56668 8.72334 0.5
708 0.454155 1.41265 2.07143 0.5
709 10.3422 13.492 0.205186 0.5
710 6.89078 6.43045 3.78592 0.5
711 0.698374 0.184027 0.0837795 0.5
712 12.3145 1.53319 9.36769 0.5
713 8.46148 9.43375 7.93504 0.5
714 12.8817 3.91602 8.26412 0.5
715 13.446 8.70586 3.46501 0.5
716 1.33402 2.33504 10.6562 0.5
717 3.08836 7.16697 0.77356 0.5
718 11.1493 0.89476 8.27031 0.5
719 4.4844 10.5756 11.6012 0.5
720 12.5609 11.9858 2.55986 0.5
721 10.4291 5.03895 8.63472 0.5
722 5.58043 12.9088 12.8672 0.5
723 3.82705 10.4709 9.79484 0.5
724 8.74932 0.868863 9.51614 0.5
725 2.86889 2.07411 6.10869 0.5
726 7.7229 2.49064 7.11295 0.5
727 5.06134 3.03103 13.5673 0.5
728 12.4725 2.85411 5.03505 0.5
729 9.15953 5.09221 1.36496 0.5
730 8.59428 5.70328 6.10054 0.5
731 11.1501 0.196444 0.817846 0.5
732 2.21838 3.57879 8.36357 0.5
733 8.18723 11.4456 0.8354 0.5
734 10.3643 11.2927 5.98372 0.5
735 2.86227 6.11526 8.59397 0.5
736 4.46277 4.59814 11.3788 0.5
737 6.19002 4.06347 2.65377 0.5
738 1.89486 7.61539 11.0504 0.5
739 7.62626 13.4996 8.15069 0.5
740 11.4683 1.29523 9.20555 0.5
741 7.71229 4.29977 5.05233 0.5
742 4.98461 8.99167 1.04109 0.5
743 8.0453 7.93 4.93007 0.5
744 5.31733 3.51665 12.6559 0.5
745 8.22903 6.30069 11.8152 0.5
746 4.71316 8.20145 9.31462 0.5
747 0.267182 13.3998 12.1262 0.5
748 7.39695 9.02719 8.00613 0.5
749 5.42596 9.42112 3.39025 0.5
750 1.98629 1.34826 13.54 0.5
751 0.382594 8.1721 12.3651 0.5
752 2.72441 1.81853 12.8283 0.5
753 7.18947 1.68076 0.210438 0.5
754 2.92986 12.1784 11.8177 0.5
755 6.67622 2.52319 12.6742 0.5
756 6.46548 7.82082 1.7074 0.5
757 11.8501 6.3152 12.1779 0.5
758 4.64263 12.0229 5.8011 0.5
759 12.5552 8.18409 1.92535 0.5
760 7.19717 4.86776 4.29215 0.5
761 3.34309 11.3013 0.125005 0.5
762 0.381326 3.87054 1.32406 0.5
763 11.6472 13.4446 4.46963 0.5
764 9.08563 9.00485 2.9809 0.5
765 13.4079 2.96312 1.44349 0.5
766 8.22433 3.42184 4.658 0.5
767 4.16853 7.14179 0.884898 0.5
768 13.07 12.758 11.737 0.5
769 11.2553 2.85417 5.97997 0.5
770 11.9872 7.32595 6.87919 0.5
771 7.89568 7.59019 5.84789 0.5
772 2.24014 2.60021 10.1325 0.5
773 9.43077 3.31207 8.16958 0.5
774 8.66615 1.03954 3.1246 0.5
775 9.83727 13.1715 11.3582 0.5
776 2.05646 9.43608 6.25232 0.5
777 11.0375 11.6875 4.0103 0.5
778 11.5776 11.889 3.11161 0.5
779 7.73339 8.55548 5.55815 0.5
780 3.97391 10.6558 8.90207 0.5
781 12.8866 1.90355 6.28654 0.5
782 10.6421 2.96632 3.89973 0.5
783 13.3185 9.62115 12.6565 0.5
784 2.79769 2.20529 5.14575 0.5
785 10.9889 9.4905 5.62059 0.5
786 8.69647 4.21845 4.77024 0.5
787 5.71616 12.382 2.82761 0.5
788 11.3329 6.7283 11.4451 0.5
789 8.65984 3.17622 1.98257 0.5
790 7.81607 0.923393 2.65935 0.5
791 5.82144 7.10504 12.3417 0.5
792 6.40207 2.22546 7.05522 0.5
793 5.98725 8.51935 3.59768 0.5
794 11.7819 0.519813 2.76186 0.5
795 7.41107 8.63009 4.67351 0.5
796 2.36879 10.0746 7.76755 0.5
797 4.44134 3.66334 11.0889 0.5
798 2.66502 2.63225 4.14978 0.5
799 13.4415 1.4881 5.48567 0.5
800 1.17067 8.22744 12.9046 0.5
801 7.57611 6.11888 3.22012 0.5
802 4.87487 10.8615 12.5661 0.5
803 11.1361 10.7052 11.2564 0.5
804 13.4735 6.62851 10.4005 0.5
805 9.10045 8.28446 2.34766 0.5
806 2.4423 7.78663 8.27997 0.5
807 3.3159 5.31128 8.10869 0.5
808 2.19867 9.46332 2.37262 0.5
809 9.56654 4.53172 11.7995 0.5
810 2.0002 12.2408 11.6024 0.5
811 10.5201 7.48951 3.5658 0.5
812 2.53062 8.35738 11.3183 0.5
813 7.82248 5.44249 12.1012 0.5
814 9.69184 0.348396 5.38032 0.5
815 11.4249 12.6131 8.3707 0.5
816 9.19667 8.2522 1.30352 0.5
817 10.7703 11.2496 3.0647 0.5
818 3.37586 10.2983 0.133933 0.5
819 6.16559 13.4189 7.20242 0.5
820 0.510929 13.3214 9.07923 0.5
821 10.8921 3.06927 4.98837 0.5
822 9.3795 1.02772 4.80729 0.5
823 9.54926 13.3703 10.3528 0.5
824 2.26067 8.28984 4.99982 0.5
825 8.02447 0.732975 1.54514 0.5
826 7.0458 12.8872 7.66492 0.5
827 10.7019 0.651106 1.69321 0.5
828 5.25405 3.99546 2.42854 0.5
829 4.92907 1.69546 7.85855 0.5
830 6.06447 13.3265 9.01223 0.5
831 11.2064 13.4718 7.82267 0.5
832 13.3216 4.58995 10.0129 0.5
833 2.35055 11.41 11.2874 0.5
834 9.63913 1.04044 12.5621 0.5
835 2.10286 5.61957 12.8709 0.5
836 7.64989 9.77165 11.9488 0.5
837 6.19562 3.26576 13.2115 0.5
838 12.8576 13.5227 12.2504 0.5
839 4.86111 5.21649 0.780499 0.5
840 7.32883 12.9462 13.3749 0.5
841 5.97268 10.582 5.82517 0.5
842 12.9555 3.91517 11.9815 0.5
843 12.8363 3.02078 13.3302 0.5
844 4.45807 3.7516 13.219 0.5
845 10.4502 5.33698 6.48081 0.5
846 6.868 12.8247 8.76961 0.5
847 4.3018 7.69224 6.64631 0.5
848 4.97783 7.1343 11.8219 0.5
849 0.34742 12.7923 5.92607 0.5
850 10.4394 11.0185 11.8409 0.5
851 6.57601 11.2465 6.17455 0.5
852 6.22513 10.2795 7.54259 0.5
853 4.13791 7.57796 8.72627 0.5
854 10.3147 6.48017 3.70366 0.5
855 9.1972 11.0412 3.18819 0.5
856 2.50227 13.4083 3.65305 0.5
857 9.87212 4.32378 10.8611 0.5
858 7.72002 9.91025 8.47425 0.5
859 11.1345 4.86898 5.73516 0.5
860 10.1594 4.61471 5.87727 0.5
861 11.3647 0.225967 6.316 0.5
862 10.4207 6.37409 11.3589 0.5
863 7.05449 7.87993 5.20281 0.5
864 8.48176 6.88878 7.41496 0.5
865 11.9116 3.27425 0.0495776 0.5
866 5.55804 12.8238 1.94299 0.5
867 12.0198 3.75035 1.02481 0.5
868 9.49079 9.75153 9.35051 0.5
869 4.27577 0.375135 0.494826 0.5
870 3.49196 8.40649 6.42162 0.5
871 12.2584 8.02674 5.08587 0.5
872 1.54575 6.18852 12.166 0.5
873 12.458 1.14345 2.37133 0.5
874 7.79418 6.24282 12.7449 0.5
875 7.35421 11.4675 5.51185 0.5
876 1.86842 6.2074 8.29641 0.5
877 11.8977 7.90441 7.72588 0.5
878 2.32376 11.4856 0.150754 0.5
879 2.61626 3.80425 7.47545 0.5
880 11.6349 1.0478 1.81279 0.5
881 10.3332 10.514 12.7236 0.5
882 1.54801 10.2553 3.60724 0.5
883 10.3264 12.4468 1.47253 0.5
884 12.9621 3.83259 1.23637 0.5
885 8.20389 10.8505 10.8237 0.5
886 0.764898 3.04478 7.74611 0.5
887 1.07565 1.15338 13.3368 0.5
888 5.166 4.6659 1.67723 0.5
889 10.8463 4.10323 8.68445 0.5
890 12.2612 8.26175 6.82081 0.5
891 3.44286 6.06265 2.98244 0.5
892 9.29036 0.0213425 9.38831 0.5
893 10.4027 3.47105 8.03431 0.5
894 7.40806 7.77796 1.21826 0.5
895 12.3167 8.55885 1.04469 0.5
896 7.05247 12.1602 0.338611 0.5
897 6.17418 13.0583 3.50749 0.5
898 4.74338 12.6999 2.66344 0.5
899 10.4312 4.99365 10.235 0.5
900 11.552 11.5184 9.61259 0.5
901 0.472445 5.15652 10.0483 0.5
902 10.9702 5.79689 8.99179 0.5
903 9.78214 8.23998 2.99261 0.5
904 8.29103 3.79755 5.60321 0.5
905 1.11162 5.75951 5.86992 0.5
906 12.4326 5.00666 3.15769 0.5
907 6.58641 3.99465 10.2363 0.5
908 8.79714 0.140917 4.89209 0.5
909 9.56671 2.87432 2.43999 0.5
910 8.72885 1.98824 7.25763 0.5
911 6.29114 6.20419 12.2825 0.5
912 8.06333 8.79658 11.4602 0.5
913 11.2642 5.88196 0.182902 0.5
914 4.56174 1.22122 0.99162 0.5
915 8.37037 2.71565 5.31173 0.5
916 11.307 8.12155 6.96865 0.5
917 12.5002 0.771973 11.7959 0.5
918 8.04873 6.17831 8.04351 0.5
919 12.9838 11.9878 0.9108 0.5
920 0.0659697 12.1725 10.0492 0.5
921 6.01666 6.40452 6.76513 0.5
922 12.9204 3.00446 12.3337 0.5
923 1.99274 2.89832 9.12267 0.5
924 10.9403 12.0555 10.1952 0.5
925 10.3257 3.57881 2.38911 0.5
926 4.548 10.1387 13.3409 0.5
927 1.76389 7.28061 5.03715 0.5
928 0.0585151 5.97683 5.63578 0.5
929 2.18518 2.38955 11.0954 0.5
930 10.4049 9.91253 8.77804 0.5
931 5.30024 9.2596 12.1346 0.5
932 3.91349 8.60569 3.18087 0.5