ITEM: TIMESTEP
260000
ITEM: NUMBER OF ATOMS
1000
ITEM: BOX BOUNDS xy xz yz pp pp pp
0.0000000000000000e+00 1.3572088000000001e+01 0.0000000000000000e+00
0.0000000000000000e+00 1.3572088000000001e+01 0.0000000000000000e+00
0.0000000000000000e+00 1.3572088000000001e+01 0.0000000000000000e+00
ITEM: ATOMS id x y z radius
1 4.3155 4.05445 12.266 0.5
2 5.66927 10.6474 3.47239 0.5
3 8.49806 10.241 2.95578 0.5
4 10.4197 5.22972 1.72925 0.5
5 9.0188 7.07369 10.2144 0.5
6 3.88857 13.1361 5.27088 0.5
7 3.0374 8.74322 0.640949 0.5
8 0.0079076 11.5515 1.68515 0.5
9 1.7953 8.15302 6.0735 0.5
10 3.2728 13.1559 10.5861 0.5
11 0.401423 9.02838 8.88987 0.5
12 10.9553 5.65752 1.07423 0.5
13 8.99497 11.2358 5.99377 0.5
14 11.0287 2.18562 4.16728 0.5
15 6.14019 1.15447 4.42672 0.5
16 7.79984 6.82616 8.54153 0.5
17 6.97235 12.0309 11.1224 0.5
18 2.68513 8.64239 5.96503 0.5
19 9.50754 4.9784 2.32901 0.5
20 9.83605 11.8892 3.34682 0.5
21 2.4348 4.60676 1.10096 0.5
22 2.31246 6.6413 12.2268 0.5
23 1.84876 1.50042 9.95429 0.5
24 7.6025 7.33642 2.08345 0.5
25 0.74449 5.97891 2.90438 0.5
26 10.3406 9.67707 6.44039 0.5
27 11.2304 6.80956 12.7886 0.5
28 5.22407 11.0525 11.55 0.5
29 0.260813 6.28523 1.45942 0.5
30 8.27078 11.0726 1.45746 0.5
31 0.257159 13.413 8.83463 0.5
32 9.12493 2.50226 12.2417 0.5
33 0.0445812 6.14888 9.99834 0.5
34 3.46035 9.41677 5.80795 0.5
35 11.4929 7.02263 0.180376 0.5
36 8.70553 1.66866 6.51084 0.5
37 12.9565 0.352781 2.41805 0.5
38 3.44933 1.47398 2.06785 0.5
39 10.0806 4.34786 1.51949 0.5
40 6.01227 5.99978 6.23526 0.5
41 8.64414 10.7203 5.24095 0.5
42 6.90173 5.38783 3.51287 0.5
43 4.81176 5.23535 10.0173 0.5
44 4.25983 11.2078 8.52377 0.5
45 7.4143 6.24393 2.03272 0.5
46 10.4127 11.58 13.1545 0.5
47 2.56371 9.39828 5.39546 0.5
48 7.84069 10.7046 0.547599 0.5
49 6.28139 12.886 9.42547 0.5
50 6.22873 1.13993 10.4921 0.5
51 0.172749 10.1342 7.06387 0.5
52 5.56084 10.7781 6.86196 0.5
53 9.62424 3.3423 1.60789 0.5
54 11.8626 11.2844 4.03534 0.5
55 0.639048 1.70629 6.40452 0.5
56 12.2976 4.51641 3.32291 0.5
57 0.191409 11.0966 11.3121 0.5
58 4.87835 8.32794 10.228 0.5
59 1.59767 10.2684 11.1992 0.5
60 7.49289 5.94498 8.69351 0.5
61 3.66354 12.3235 10.8187 0.5
62 1.19969 9.0696 1.26885 0.5
63 11.8618 9.12662 2.16297 0.5
64 12.6838 2.3216 10.9786 0.5
65 13.4003 1.72478 4.98448 0.5
66 13.0452 1.90853 1.64209 0.5
67 8.38303 3.11678 7.73559 0.5
68 2.95337 1.54319 2.93596 0.5
69 12.0488 2.85558 11.502 0.5
70 12.6101 4.13305 10.7446 0.5
71 2.42021 6.50072 8.35733 0.5
72 7.5353 2.58703 10.5029 0.5
73 8.77027 6.88265 8.28134 0.5
74 5.59418 4.62162 10.3546 0.5
75 8.67523 0.448871 10.2289 0.5
76 12.7711 2.83872 0.194964 0.5
77 10.1948 2.3588 3.37489 0.5
78 8.86603 2.84146 5.16681 0.5
79 4.20258 12.5953 6.0515 0.5
80 4.93136 3.09171 7.88532 0.5
81 1.20073 2.6271 12.0864 0.5
82 1.47376 9.20064 0.306559 0.5
83 3.35479 0.871312 6.92166 0.5
84 13.0528 8.60857 9.06537 0.5
85 0.13482 3.56209 6.926 0.5
86 2.98356 0.442831 0.195408 0.5
87 4.43056 5.7497 6.43072 0.5
88 6.80074 5.56523 4.46043 0.5
89 11.5217 12.5965 6.96078 0.5
90 4.53682 6.0617 4.33272 0.5
91 11.4612 7.45603 12.0789 0.5
92 13.4706 1.12439 1.84255 0.5
93 12.9679 13.4866 13.1471 0.5
94 4.75136 9.79607 12.4426 0.5
95 12.4071 1.65287 8.00064 0.5
96 11.8317 2.8046 4.14299 0.5
97 12.1654 2.8724 5.07577 0.5
98 11.2147 10.2678 0.241379 0.5
99 6.19638 8.73251 9.2175 0.5
100 1.2613 6.63851 5.33877 0.5
101 4.62189 11.6056 2.54312 0.5
102 8.5405 6.63749 11.0129 0.5
103 3.99436 5.20815 10.5718 0.5
104 6.681 11.0196 5.50744 0.5
105 11.3876 12.9424 6.03904 0.5
106 6.01517 2.08175 10.7725 0.5
107 13.1257 4.61617 8.14142 0.5
108 0.282978 11.0899 5.52098 0.5
109 0.254697 11.9566 9.81924 0.5
110 7.72782 9.20585 8.87788 0.5
111 8.87093 0.0785417 3.27632 0.5
112 6.43752 0.654119 5.32234 0.5
113 0.638351 0.824561 6.58372 0.5
114 7.46982 6.74803 2.92498 0.5
115 6.03481 6.07544 12.0624 0.5
116 0.211032 5.64201 2.26519 0.5
117 1.22596 0.364611 5.83652 0.5
118 11.0101 8.92472 6.49149 0.5
119 11.9403 8.16781 1.77832 0.5
120 4.99701 9.034 3.70782 0.5
121 11.0404 0.096104 11.0271 0.5
122 2.23252 3.24548 2.10829 0.5
123 11.7003 2.24664 10.727 0.5
124 11.1921 10.7854 11.8172 0.5
125 5.80018 11.5106 4.01109 0.5
126 11.3184 11.2411 13.5686 0.5
127 7.50817 10.0821 10.9521 0.5
128 5.42482 2.79101 7.00931 0.5
129 1.87657 6.44851 11.3249 0.5
130 0.764939 11.6745 10.6309 0.5
131 7.78477 2.03181 1.65956 0.5
132 5.44687 11.8713 2.0075 0.5
133 0.767825 10.6482 10.6825 0.5
134 10.9274 11.5712 3.97447 0.5
135 12.4658 1.93542 5.43547 0.5
136 8.23252 4.65641 4.33088 0.5
137 3.22676 12.8919 6.01114 0.5
138 7.26549 12.4473 13.0888 0.5
139 5.60635 0.591622 13.2763 0.5
140 5.83425 3.07257 3.77765 0.5
141 1.26711 3.89304 4.83157 0.5
142 9.56485 3.3323 12.5054 0.5
143 0.945046 13.5323 12.2637 0.5
144 9.23512 12.6196 8.65587 0.5
145 6.63227 6.89915 2.3123 0.5
146 9.73436 8.83432 8.89654 0.5
147 4.80241 6.92769 0.558389 0.5
148 12.0155 0.286054 10.6596 0.5
149 7.53921 6.57686 9.48091 0.5
150 12.254 11.4248 3.04774 0.5
151 6.65904 12.5123 10.3962 0.5
152 3.35245 4.18876 11.7442 0.5
153 11.6087 6.34481 8.13651 0.5
154 2.74554 2.28184 2.19514 0.5
155 1.85791 8.37158 11.3615 0.5
156 7.85104 12.4444 0.398236 0.5
157 1.4845 0.274814 3.27848 0.5
158 1.34652 9.48806 8.50471 0.5
159 3.60873 1.88305 9.29816 0.5
160 9.19878 0.554463 11.0448 0.5
161 12.8238 3.31134 11.3035 0.5
162 6.74928 2.76379 8.02298 0.5
163 11.5893 9.29857 0.519538 0.5
164 9.7299 3.69252 10.7901 0.5
165 7.10329 10.989 11.0214 0.5
166 11.0141 13.5036 6.89496 0.5
167 11.9287 7.20034 8.08338 0.5
168 1.59544 3.06827 7.58968 0.5
169 11.1755 11.6486 12.5478 0.5
170 3.91754 6.43759 0.355639 0.5
171 10.1625 5.07451 0.815102 0.5
172 11.1698 7.36623 10.4423 0.5
173 8.96087 10.4459 2.07297 0.5
174 3.92097 0.683139 12.8611 0.5
175 2.99927 6.46856 4.1878 0.5
176 4.32845 6.2432 3.2157 0.5
177 9.33842 3.76018 5.31616 0.5
178 6.01751 2.00958 4.00649 0.5
179 12.9974 6.164 2.08201 0.5
180 9.28336 3.13754 11.5031 0.5
181 10.6396 11.2784 9.23523 0.5
182 3.03409 11.5474 1.19164 0.5
183 8.28251 7.40478 5.80861 0.5
184 10.5027 4.4668 9.26168 0.5
185 8.29551 1.06956 11.0148 0.5
186 3.79217 9.10596 2.65236 0.5
187 4.65176 0.0561698 13.15 0.5
188 5.26559 5.87872 6.95241 0.5
189 0.605532 10.9591 6.49218 0.5
190 9.28663 12.7585 3.41333 0.5
191 9.50243 7.20228 3.18812 0.5
192 9.99648 1.28087 13.0919 0.5
193 12.0304 1.82897 11.5717 0.5
194 9.08023 13.2309 10.6545 0.5
195 12.8984 9.48506 12.5202 0.5
196 9.03317 0.663568 4.14871 0.5
197 2.96605 7.06833 7.79376 0.5
198 6.90121 5.76915 12.2915 0.5
199 11.4316 1.54928 8.50495 0.5
200 6.97459 6.90705 1.41454 0.5
201 0.0831694 3.64765 7.94854 0.5
202 6.22654 0.279119 7.79002 0.5
203 2.00357 3.65462 1.19765 0.5
204 1.79343 8.04947 8.67273 0.5
205 12.8454 12.7714 3.49208 0.5
206 0.944636 1.16008 10.0568 0.5
207 5.25692 11.7128 8.56853 0.5
208 9.44062 5.18121 6.00823 0.5
209 5.14311 2.38458 3.69056 0.5
210 4.2262 6.53009 5.94146 0.5
211 3.5673 4.30011 10.7337 0.5
212 3.72445 5.77598 3.86415 0.5
213 3.90558 2.08896 5.54052 0.5
214 9.94938 4.51699 11.3409 0.5
215 7.98353 6.79558 1.35292 0.5
216 6.40784 8.40698 0.206682 0.5
217 3.86462 11.4748 4.67348 0.5
218 6.65993 8.03426 3.95451 0.5
219 9.36942 0.858705 3.15292 0.5
220 6.08852 1.87969 9.82952 0.5
221 3.12732 3.69202 5.76146 0.5
222 7.31998 11.7016 5.08825 0.5
223 4.22205 9.57073 3.33247 0.5
224 12.4393 9.42375 4.33301 0.5
225 7.87434 11.697 10.9925 0.5
226 10.574 6.87616 13.5563 0.5
227 13.0517 7.95627 10.6919 0.5
228 4.22724 11.6024 5.7571 0.5
229 5.64999 4.35354 6.42214 0.5
230 5.72341 9.38047 8.65026 0.5
231 8.41291 6.05362 8.95726 0.5
232 6.98343 4.71273 12.6085 0.5
233 1.58634 0.471447 9.66643 0.5
234 11.7802 1.92067 4.79075 0.5
235 1.30118 11.08 3.10016 0.5
236 9.99833 6.04679 1.27145 0.5
237 5.08247 7.78801 6.66482 0.5
238 1.06467 12.937 5.74012 0.5
239 9.87582 7.91734 3.7025 0.5
240 1.68422 5.22194 13.0884 0.5
241 4.69876 5.9244 0.280292 0.5
242 3.02847 0.562831 2.5534 0.5
243 2.39889 9.82516 3.39457 0.5
244 3.4823 11.9064 6.33471 0.5
245 1.17092 11.1578 11.3522 0.5
246 9.25876 9.55442 8.25469 0.5
247 3.89788 0.36083 10.4219 0.5
248 7.17648 2.58934 2.19444 0.5
249 10.0316 2.39384 12.8479 0.5
250 9.66344 1.99434 0.201595 0.5
251 4.91535 9.46703 11.4488 0.5
252 8.53901 8.69423 13.0893 0.5
253 2.16542 8.99782 1.09082 0.5
254 10.6919 2.42426 2.44047 0.5
255 8.60895 9.53514 2.14126 0.5
256 1.6088 12.8205 3.09673 0.5
257 0.921823 3.80855 7.4371 0.5
258 0.266196 6.32361 6.68523 0.5
259 3.95516 4.59769 9.79367 0.5
260 6.36895 11.4912 10.4946 0.5
261 11.5732 3.44914 5.61921 0.5
262 7.60565 10.7875 5.50157 0.5
263 2.63682 4.00938 8.50881 0.5
264 10.2425 10.7932 8.36318 0.5
265 1.80231 4.78219 5.0865 0.5
266 3.74492 0.00452272 6.24402 0.5
267 5.04388 7.19469 8.90541 0.5
268 6.67854 1.85238 1.72429 0.5
269 9.20418 0.00763397 8.64547 0.5
270 6.47659 9.84389 8.03708 0.5
271 10.5838 12.6483 6.54725 0.5
272 6.36189 9.30452 0.712798 0.5
273 7.7524 4.84397 3.40074 0.5
274 10.1127 3.64483 8.74652 0.5
275 2.91122 10.726 0.683492 0.5
276 4.37742 13.5259 12.1495 0.5
277 7.60688 4.3853 13.3517 0.5
278 10.3966 10.7457 0.177578 0.5
279 9.64218 10.7211 5.43142 0.5
280 4.46585 12.279 1.84846 0.5
281 6.54512 2.87371 10.2315 0.5
282 0.114055 11.3125 0.701058 0.5
283 5.29793 5.93579 1.82021 0.5
284 1.96976 10.8169 0.120308 0.5
285 3.00767 10.2658 5.8117 0.5
286 2.91318 0.932598 12.9006 0.5
287 7.69266 7.10758 6.50385 0.5
288 6.69466 0.66447 6.32251 0.5
289 2.25535 10.8435 3.11087 0.5
290 1.04858 13.3968 6.65254 0.5
291 6.26289 1.44812 5.92299 0.5
292 4.31083 3.25889 12.9261 0.5
293 10.9695 5.65242 4.10526 0.5
294 2.03374 10.1534 5.90324 0.5
295 3.29654 1.65963 6.15886 0.5
296 0.161122 4.56128 7.32319 0.5
297 10.9274 11.6745 11.5429 0.5
298 9.65879 4.4235 12.2506 0.5
299 2.1367 0.464743 13.3867 0.5
300 9.17289 4.26238 1.83763 0.5
301 6.22655 7.41948 11.1635 0.5
302 2.31527 8.826 3.10333 0.5
303 12.5866 9.27617 2.8974 0.5
304 1.12417 6.6148 6.33822 0.5
305 7.82155 12.9722 7.8559 0.5
306 11.3537 8.85914 1.3863 0.5
307 3.12341 7.36982 3.69134 0.5
308 13.4607 9.5932 11.6756 0.5
309 12.9346 0.175724 12.0238 0.5
310 8.93274 13.2225 4.21346 0.5
311 13.5588 5.39468 6.55687 0.5
312 7.22532 11.6259 10.2276 0.5
313 0.726893 11.0335 3.77601 0.5
314 6.54669 11.8846 9.59673 0.5
315 12.8517 5.31543 2.61485 0.5
316 8.90747 6.54909 7.44983 0.5
317 13.0813 8.64837 4.56618 0.5
318 12.5733 5.25509 6.33506 0.5
319 10.5494 11.7365 0.537241 0.5
320 6.15428 3.4097 6.77038 0.5
321 2.67677 12.6173 3.26321 0.5
322 10.1047 13.1774 0.823605 0.5
323 3.89153 1.13876 2.7492 0.5
324 10.5001 3.28466 3.06132 0.5
325 1.01128 5.72296 13.5347 0.5
326 10.8018 13.3185 -0.00895844 0.5
327 8.95473 2.41679 8.21791 0.5
328 11.9977 7.34842 12.9832 0.5
329 7.5519 3.35855 8.22249 0.5
330 8.40525 1.13443 4.91476 0.5
331 4.92121 3.22841 4.14336 0.5
332 12.1767 2.07623 8.90604 0.5
333 12.7587 1.30926 2.39882 0.5
334 4.47206 6.25096 1.25512 0.5
335 9.69633 0.0563914 4.71495 0.5
336 4.32843 1.42627 8.64932 0.5
337 12.3027 1.3014 10.6539 0.5
338 7.82474 5.63683 9.55025 0.5
339 9.77513 3.86589 2.43347 0.5
340 12.4981 4.21321 12.9282 0.5
341 8.4345 0.325676 9.21696 0.5
342 5.77439 0.543948 6.12324 0.5
343 6.75702 5.79017 9.38409 0.5
344 5.57571 6.83374 6.65415 0.5
345 8.23329 8.55364 5.81791 0.5
346 1.01378 7.55558 5.99151 0.5
347 13.1322 11.7692 0.0256314 0.5
348 1.56528 4.99124 0.568562 0.5
349 8.30175 6.43942 5.89826 0.5
350 8.00991 7.14893 10.284 0.5
351 2.85248 8.99069 11.5387 0.5
352 8.43832 12.3623 7.16504 0.5
353 8.53828 7.40264 1.78237 0.5
354 2.52098 2.86402 5.46603 0.5
355 2.35074 6.76688 3.39637 0.5
356 12.5399 12.782 4.4891 0.5
357 6.55217 11.8892 3.33112 0.5
358 4.28433 1.2868 10.5053 0.5
359 6.76704 9.45262 8.8619 0.5
360 13.1624 4.37883 6.45156 0.5
361 3.92367 1.08665 7.76212 0.5
362 1.2284 1.20203 9.15669 0.5
363 10.1701 12.5611 0.191285 0.5
364 3.51436 7.96912 0.891568 0.5
365 2.52958 7.92099 0.868691 0.5
366 6.27791 8.74113 8.16353 0.5
367 11.0829 12.218 13.4264 0.5
368 5.06904 4.38523 9.55771 0.5
369 1.889 3.20598 4.66425 0.5
370 13.2836 10.6151 6.26216 0.5
371 9.6933 0.0553382 3.75647 0.5
372 0.126008 4.75416 4.06351 0.5
373 5.14152 2.70507 12.817 0.5
374 0.850242 9.19539 13.092 0.5
375 0.49091 9.42967 8.01052 0.5
376 1.70335 11.3856 3.95747 0.5
377 7.71312 5.5868 3.99644 0.5
378 6.09725 9.29748 13.2421 0.5
379 5.44469 6.29868 0.91106 0.5
380 6.77928 3.84551 13.3658 0.5
381 10.0204 2.72835 8.18738 0.5
382 9.36644 2.90131 8.98816 0.5
383 1.19675 5.81729 1.01736 0.5
384 5.60732 10.0655 12.9129 0.5
385 12.803 11.5409 1.05451 0.5
386 0.428808 3.86831 4.24539 0.5
387 2.67286 5.87472 11.6313 0.5
388 1.18639 2.12658 10.2856 0.5
389 5.07087 9.31697 10.4611 0.5
390 4.56517 4.41124 10.5892 0.5
391 7.2879 0.422727 2.27424 0.5
392 0.161205 5.09574 3.14111 0.5
393 2.48021 4.84944 8.96976 0.5
394 8.67755 9.01052 8.88262 0.5
395 1.12686 0.281024 8.71969 0.5
396 0.0615172 1.0944 2.90946 0.5
397 7.23578 1.0962 1.61752 0.5
398 9.25606 12.0118 2.65126 0.5
399 1.21482 4.57425 4.15044 0.5
400 6.56081 8.67391 4.80116 0.5
401 9.21009 2.75284 13.2522 0.5
402 4.86929 7.30506 5.92162 0.5
403 6.87522 13.0089 7.46024 0.5
404 10.4756 10.1617 12.0137 0.5
405 11.8242 6.28818 0.732237 0.5
406 6.37168 2.18204 0.893089 0.5
407 2.00527 11.8184 3.10571 0.5
408 2.13535 3.83126 5.38702 0.5
409 3.16525 5.00717 11.3492 0.5
410 11.1304 2.60002 3.34158 0.5
411 4.66664 6.63253 13.1852 0.5
412 4.84977 0.879957 12.5808 0.5
413 3.36244 6.70968 8.65992 0.5
414 2.51185 8.56776 10.7143 0.5
415 8.48675 10.1294 11.0077 0.5
416 8.9782 9.88422 5.67884 0.5
417 1.07838 13.0763 9.28242 0.5
418 9.44908 1.25556 10.2728 0.5
419 3.08197 12.7879 11.5318 0.5
420 3.88886 0.196487 7.27881 0.5
421 13.0663 5.34365 9.99115 0.5
422 8.62909 4.54474 5.25879 0.5
423 12.2739 13.5063 2.96015 0.5
424 2.85421 3.58041 4.80828 0.5
425 8.61097 7.56397 10.9249 0.5
426 0.675061 12.7628 7.40848 0.5
427 7.15327 2.66205 1.25015 0.5
428 0.395605 8.04103 8.91555 0.5
429 10.1304 5.3546 8.93326 0.5
430 8.35484 0.0119586 11.1746 0.5
431 2.31046 4.93803 7.96879 0.5
432 13.5273 2.06937 2.47885 0.5
433 7.64508 11.6148 13.4175 0.5
434 0.198484 4.00813 0.920849 0.5
435 11.7277 9.80331 1.46867 0.5
436 6.55181 4.71391 10.2143 0.5
437 4.32732 9.30269 6.31787 0.5
438 5.93984 3.29332 7.76699 0.5
439 11.021 10.5625 9.87854 0.5
440 9.5757 10.3944 6.39044 0.5
441 6.44869 13.435 5.81908 0.5
442 2.03719 7.11039 6.02287 0.5
443 0.902292 11.9389 1.12284 0.5
444 9.42361 8.92302 13.3388 0.5
445 4.83308 8.96655 2.7513 0.5
446 3.7622 6.24985 4.88664 0.5
447 1.70409 9.10869 5.86612 0.5
448 5.46218 9.84616 0.361923 0.5
449 4.05903 13.2659 11.1548 0.5
450 3.45489 2.34644 1.52483 0.5
451 6.60154 3.1607 0.604749 0.5
452 2.25931 8.58826 0.119699 0.5
453 4.78215 10.1628 3.97211 0.5
454 2.95732 0.0424342 3.52185 0.5
455 1.87762 1.92741 11.7876 0.5
456 8.38892 12.9977 8.72827 0.5
457 12.0756 11.6227 8.53716 0.5
458 3.95487 0.874759 9.51874 0.5
459 13.1977 2.55573 5.20735 0.5
460 12.5293 7.0961 0.355025 0.5
461 11.4888 8.02345 11.1692 0.5
462 10.802 2.14672 8.08311 0.5
463 6.91699 3.5839 7.33038 0.5
464 12.2415 8.66911 10.7851 0.5
465 5.45733 10.2674 11.9612 0.5
466 2.97174 13.4646 6.95569 0.5
467 1.48792 8.26129 0.790606 0.5
468 0.0716383 8.42336 9.84887 0.5
469 2.08944 2.74796 11.6727 0.5
470 1.82501 5.71316 12.103 0.5
471 4.79099 0.748867 9.90829 0.5
472 10.8759 6.58633 4.07623 0.5
473 12.1273 6.78777 7.19271 0.5
474 1.69457 7.08765 8.89134 0.5
475 6.63323 4.28335 6.55583 0.5
476 6.65699 1.56666 11.3764 0.5
477 5.48216 7.95228 9.54554 0.5
478 3.11545 12.3255 0.530851 0.5
479 8.33306 7.7658 13.4554 0.5
480 3.8544 10.2292 8.66233 0.5
481 2.92725 3.76878 0.70505 0.5
482 10.7441 0.368549 0.812275 0.5
483 8.52755 11.2401 2.44107 0.5
484 9.97131 6.98378 4.15503 0.5
485 4.30624 5.79736 2.2227 0.5
486 3.35508 11.0205 8.91133 0.5
487 4.40666 2.31156 8.7376 0.5
488 6.05389 5.17471 6.86052 0.5
489 3.29708 0.883056 3.53758 0.5
490 0.507065 12.4113 8.90634 0.5
491 2.77908 7.04245 11.2761 0.5
492 0.932827 5.73967 12.5209 0.5
493 11.5177 8.36163 10.2883 0.5
494 7.34087 4.01091 0.655917 0.5
495 6.57741 7.60583 0.756157 0.5
496 6.30269 13.5693 13.1282 0.5
497 5.09543 4.87494 7.18846 0.5
498 3.48735 12.2428 5.33193 0.5
499 6.82877 2.52799 11.2412 0.5
500 10.3903 8.89914 5.68972 0.5
501 5.27404 1.62295 4.41911 0.5
502 9.3161 10.4389 8.63691 0.5
503 8.29411 5.20229 13.3554 0.5
504 2.51606 1.37859 0.0996721 0.5
505 4.8122 3.21791 12.0173 0.5
506 3.82642 10.8866 1.17906 0.5
507 7.75053 3.87916 4.036 0.5
508 0.551204 2.03003 5.51901 0.5
509 5.2595 5.29786 6.2112 0.5
510 8.01239 10.8646 11.4978 0.5
511 6.21055 13.4907 6.85575 0.5
512 8.88102 11.7369 3.4212 0.5
513 5.12535 4.26952 2.77994 0.5
514 5.99737 8.4171 1.14246 0.5
515 1.65863 10.1524 2.80826 0.5
516 5.2814 9.76453 3.12714 0.5
517 1.37504 3.59347 3.84982 0.5
518 2.02086 7.39469 7.98987 0.5
519 4.79347 7.34427 9.95258 0.5
520 2.08976 0.6878 0.834452 0.5
521 11.1787 6.05757 4.96531 0.5
522 2.05326 9.32944 11.1417 0.5
523 13.4259 8.25077 3.78181 0.5
524 1.33729 1.33944 5.82763 0.5
525 10.7792 9.77725 1.03929 0.5
526 8.45901 12.1838 8.0775 0.5
527 7.35378 10.654 1.40394 0.5
528 1.07966 0.355954 0.348918 0.5
529 13.5099 12.6252 13.2881 0.5
530 12.1717 3.16206 10.5637 0.5
531 10.5746 8.08704 10.5995 0.5
532 5.79481 8.57444 4.05135 0.5
533 5.4528 7.60619 10.6475 0.5
534 1.65804 12.0326 11.0636 0.5
535 7.96766 13.1973 13.122 0.5
536 1.95024 12.4459 3.95988 0.5
537 2.36642 10.786 9.09266 0.5
538 8.26046 10.1255 1.3321 0.5
539 2.37636 7.74292 3.13975 0.5
540 1.03692 3.46653 8.3254 0.5
541 3.77117 11.5069 1.97052 0.5
542 7.32162 0.387485 13.0267 0.5
543 12.8886 5.9808 6.9112 0.5
544 7.83336 2.44003 8.26314 0.5
545 1.39676 6.85294 2.70535 0.5
546 1.19419 0.656209 12.9864 0.5
547 10.6004 5.17103 5.03279 0.5
548 12.0141 13.4739 6.72423 0.5
549 13.3743 10.3497 7.94394 0.5
550 12.3399 12.4818 2.72989 0.5
551 6.4682 0.936563 2.2193 0.5
552 4.06173 7.33119 0.207964 0.5
553 10.896 5.45903 9.60312 0.5
554 3.78041 12.8311 6.87601 0.5
555 0.765128 4.26309 3.39474 0.5
556 7.11095 13.169 12.5616 0.5
557 7.53557 11.5713 0.902976 0.5
558 4.62851 1.70355 9.60561 0.5
559 2.88964 10.231 8.37463 0.5
560 7.27809 3.40035 10.8603 0.5
561 8.81592 8.41389 11.5149 0.5
562 0.065181 3.28759 0.27779 0.5
563 8.64867 7.00535 6.66108 0.5
564 7.55218 4.99953 0.552694 0.5
565 10.0031 4.47117 5.61641 0.5
566 6.89616 1.89284 10.4096 0.5
567 11.8332 5.47347 3.53852 0.5
568 7.65759 1.86339 11.1293 0.5
569 11.0678 6.56445 11.8573 0.5
570 13.1223 8.458 2.95834 0.5
571 2.30257 0.757998 3.33012 0.5
572 3.94974 3.51607 0.34736 0.5
573 0.333835 0.133446 5.86612 0.5
574 9.19413 8.18039 3.00528 0.5
575 8.9724 13.0304 2.4427 0.5
576 3.49091 10.8222 7.97023 0.5
577 3.18312 9.23125 3.41858 0.5
578 2.05438 11.2694 1.04842 0.5
579 0.0262319 8.88103 12.4563 0.5
580 3.07332 5.15063 7.37766 0.5
581 1.06106 12.9825 8.35033 0.5
582 3.10622 11.7933 11.4723 0.5
583 2.92418 10.8016 13.3267 0.5
584 10.1857 6.09485 4.6463 0.5
585 12.8457 5.00755 7.19631 0.5
586 0.428642 5.17166 9.7734 0.5
587 13.4509 2.79448 1.79719 0.5
588 0.0831291 13.0725 12.4576 0.5
589 13.1763 9.47187 8.53363 0.5
590 3.30181 11.7542 8.17823 0.5
591 3.79119 3.32083 12.0655 0.5
592 11.1336 10.9812 10.7548 0.5
593 5.23176 9.89096 6.52489 0.5
594 13.4303 11.6504 6.26133 0.5
595 12.5223 11.1402 6.59712 0.5
596 9.43001 9.82724 2.8151 0.5
597 2.25322 9.74045 8.95305 0.5
598 7.97621 11.2389 4.56726 0.5
599 11.1689 11.3296 8.40174 0.5
600 12.0382 6.49876 13.2471 0.5
601 3.66353 5.45869 2.92018 0.5
602 0.959548 5.82426 10.3599 0.5
603 2.1703 7.67058 10.6913 0.5
604 5.35512 1.50123 10.3465 0.5
605 7.83245 2.76832 11.5062 0.5
606 11.3347 8.77641 5.45592 0.5
607 8.5051 9.92584 8.67519 0.5
608 7.82453 0.226432 12.1296 0.5
609 1.63954 11.8718 0.393947 0.5
610 0.95167 8.56277 8.21119 0.5
611 13.5311 8.60609 8.12248 0.5
612 5.69957 13.3186 2.94739 0.5
613 3.98609 5.34154 4.79139 0.5
614 4.09356 13.0152 10.1741 0.5
615 3.19131 10.125 9.4019 0.5
616 0.314337 6.71462 2.40409 0.5
617 6.77812 6.09606 2.90462 0.5
618 10.9655 7.09434 8.46103 0.5
619 12.005 4.35414 0.236638 0.5
620 0.649454 10.2172 11.6066 0.5
621 2.07918 4.18859 4.36325 0.5
622 5.4579 8.22879 8.63417 0.5
623 12.7156 7.68692 4.3337 0.5
624 13.3682 6.07982 3.1314 0.5
625 1.43913 3.39632 11.4919 0.5
626 2.89437 3.95005 1.74194 0.5
627 10.2562 6.02409 0.385225 0.5
628 12.754 5.02243 10.8971 0.5
629 6.00753 3.64467 2.91004 0.5
630 3.57973 3.45233 1.29025 0.5
631 9.32809 1.16798 0.256672 0.5
632 6.3493 12.5924 13.2097 0.5
633 10.2511 1.28943 0.497084 0.5
634 10.0958 10.4161 9.34645 0.5
635 9.14328 1.75347 12.9734 0.5
636 10.1165 3.5825 11.6989 0.5
637 13.3865 11.0815 7.09241 0.5
638 5.51724 1.0708 5.22714 0.5
639 8.38562 6.33493 9.98198 0.5
640 2.78444 4.20993 7.52719 0.5
641 7.46089 6.92915 5.57351 0.5
642 10.8707 6.65433 0.993013 0.5
643 11.4105 1.60835 7.45718 0.5
644 6.99049 3.83345 9.97514 0.5
645 0.797019 11.9205 5.98379 0.5
646 9.20504 8.73639 12.4283 0.5
647 8.9671 5.31063 12.504 0.5
648 8.03926 9.92252 11.8093 0.5
649 5.38879 7.5243 11.6971 0.5
650 3.16537 0.387403 7.87232 0.5
651 13.1557 6.1862 5.94158 0.5
652 5.22895 3.7751 7.21194 0.5
653 1.05111 6.2012 1.98008 0.5
654 4.33455 9.89473 10.7283 0.5
655 11.4231 12.0053 9.08246 0.5
656 1.10616 11.132 0.578573 0.5
657 11.5415 0.706565 7.02687 0.5
658 10.0151 9.82699 5.59767 0.5
659 0.822936 10.1418 3.32289 0.5
660 0.602431 0.358301 9.52297 0.5
661 1.09094 7.54921 8.20133 0.5
662 3.15497 11.2467 5.56697 0.5
663 5.68788 12.5576 3.52265 0.5
664 5.1864 6.30367 5.93066 0.5
665 10.3455 10.9297 3.38911 0.5
666 5.78773 12.2727 9.99561 0.5
667 10.3673 4.57698 8.19991 0.5
668 5.11416 3.32278 3.18252 0.5
669 7.94839 10.4288 2.13697 0.5
670 8.85386 13.0485 7.78518 0.5
671 7.01177 8.49042 1.06991 0.5
672 3.50628 2.92926 5.0386 0.5
673 5.60901 8.90084 0.375795 0.5
674 3.17906 7.76901 10.8352 0.5
675 1.77232 3.44286 12.4127 0.5
676 2.26434 13.4677 2.80031 0.5
677 3.18743 8.2822 3.15633 0.5
678 12.1094 7.57346 10.4903 0.5
679 10.4774 13.4751 5.93641 0.5
680 4.59954 11.3584 1.52094 0.5
681 3.45329 1.03022 8.65274 0.5
682 1.77408 3.04946 10.6796 0.5
683 1.29373 6.60858 12.1305 0.5
684 11.8841 12.9557 3.76561 0.5
685 12.4385 12.0035 3.77697 0.5
686 10.8153 7.39202 11.3863 0.5
687 5.0642 9.31456 13.1533 0.5
688 1.05565 8.44237 5.4494 0.5
689 3.24319 3.11977 2.16154 0.5
690 4.46738 8.41045 6.93617 0.5
691 13.2919 10.4164 11.9474 0.5
692 4.66535 1.01648 13.5161 0.5
693 11.5804 5.86857 12.5388 0.5
694 5.13654 8.85216 9.40865 0.5
695 12.241 8.34452 2.78319 0.5
696 10.9456 3.09887 8.41356 0.5
697 13.1959 9.3999 7.50165 0.5
698 6.20657 10.3367 6.31247 0.5
699 3.12187 7.85027 0.00710009 0.5
700 12.499 8.52056 3.80249 0.5
701 9.17281 7.94075 13.0472 0.5
702 3.5363 1.93208 8.24914 0.5
703 1.90547 5.85029 0.314878 0.5
704 8.3862 2.95933 8.73537 0.5
705 11.2328 7.94867 8.02888 0.5
706 7.29643 11.5169 6.081 0.5
707 3.15856 4.2357 9.36076 0.5
708 0.456897 2.0695 1.57621 0.5
709 9.94533 0.371273 0.138057 0.5
710 7.12326 6.29615 3.81671 0.5
711 0.542794 13.4909 13.2218 0.5
712 12.4074 2.26385 9.9866 0.5
713 8.24517 9.41189 7.98729 0.5
714 12.976 3.94645 7.47461 0.5
715 13.2591 9.20048 3.61091 0.5
716 2.17271 2.07693 10.7854 0.5
717 3.15199 7.0353 0.656393 0.5
718 11.8861 0.837985 7.96121 0.5
719 4.43461 10.3181 11.6105 0.5
720 12.6326 11.7131 2.07825 0.5
721 11.0361 5.07966 8.70946 0.5
722 5.43559 13.1249 13.3975 0.5
723 2.60501 11.7602 8.8999 0.5
724 8.95641 13.2592 9.62124 0.5
725 3.04527 2.05541 5.20045 0.5
726 7.49423 2.7617 7.38872 0.5
727 4.92715 3.29607 0.140438 0.5
728 12.6308 2.12949 4.4692 0.5
729 9.49305 5.2121 1.42979 0.5
730 8.9825 5.98237 6.53456 0.5
731 10.8786 0.740168 13.4136 0.5
732 2.02102 3.07194 8.45737 0.5
733 8.41318 11.5674 0.474814 0.5
734 9.90289 11.3644 6.27135 0.5
735 3.01257 5.64295 8.52327 0.5
736 4.08751 4.72801 11.4792 0.5
737 5.4967 4.06778 3.7316 0.5
738 1.91388 7.41612 11.7174 0.5
739 7.24043 0.150509 7.94771 0.5
740 12.3027 1.12829 8.8399 0.5
741 7.69714 4.08994 4.92136 0.5
742 5.46139 9.27404 1.29477 0.5
743 7.05386 7.74589 5.04049 0.5
744 5.23391 3.72782 12.7917 0.5
745 7.8974 5.84029 12.5056 0.5
746 4.52303 7.94854 9.14909 0.5
747 12.6912 13.3953 11.1738 0.5
748 7.26544 9.01779 8.04066 0.5
749 5.75628 9.6263 3.94743 0.5
750 1.52602 1.27267 0.100717 0.5
751 0.316569 8.30798 13.2185 0.5
752 1.97601 1.32076 12.7731 0.5
753 7.24074 1.71189 0.854115 0.5
754 2.29648 12.2984 11.8016 0.5
755 5.62254 2.85894 0.737421 0.5
756 6.58917 7.71073 1.6793 0.5
757 12.0112 6.63786 12.1972 0.5
758 4.43688 12.3624 5.01988 0.5
759 12.7704 8.69667 2.09414 0.5
760 7.23636 4.63975 4.19935 0.5
761 3.54215 11.4783 0.306786 0.5
762 0.507731 3.05333 1.16279 0.5
763 12.7138 0.0474858 3.87091 0.5
764 8.7962 9.13915 3.05004 0.5
765 13.3632 2.44497 0.869047 0.5
766 7.90032 3.15242 4.79989 0.5
767 3.94266 7.03681 1.1246 0.5
768 11.8797 12.8939 10.9337 0.5
769 11.5646 2.35095 5.72071 0.5
770 11.5887 7.35522 6.46228 0.5
771 7.45841 7.92451 5.97097 0.5
772 1.49816 1.4179 10.9232 0.5
773 9.29457 3.39031 8.13817 0.5
774 9.73965 13.5039 2.78526 0.5
775 10.0138 13.5623 11.1341 0.5
776 2.61621 9.50033 6.32216 0.5
777 11.6062 12.2349 4.46298 0.5
778 11.5588 12.1095 3.41305 0.5
779 8.03662 8.00982 5.03059 0.5
780 2.54138 11.108 8.24621 0.5
781 13.231 1.68127 5.97641 0.5
782 10.5542 3.05897 4.03937 0.5
783 0.229446 9.81692 12.5728 0.5
784 2.68031 2.60078 4.48861 0.5
785 11.0491 9.74613 5.77001 0.5
786 8.63436 3.78383 4.63065 0.5
787 6.10176 12.4501 2.59758 0.5
788 11.7742 6.98957 11.2462 0.5
789 8.87283 3.28449 2.28307 0.5
790 8.85679 0.468964 2.33856 0.5
791 6.23403 7.05819 12.0885 0.5
792 6.45018 2.57327 7.12406 0.5
793 6.61448 9.05059 3.89577 0.5
794 11.969 0.645675 2.31635 0.5
795 7.38947 8.51701 4.3898 0.5
796 4.03926 10.7442 9.52462 0.5
797 4.2786 3.75755 11.2725 0.5
798 2.40802 3.30667 3.93443 0.5
799 0.421763 1.09267 5.63331 0.5
800 1.23516 8.26672 13.4146 0.5
801 7.63839 5.76929 3.01219 0.5
802 4.93061 10.7883 12.4899 0.5
803 10.306 10.8652 11.2892 0.5
804 13.4025 5.65637 9.11998 0.5
805 9.48443 8.85224 2.30662 0.5
806 2.69988 7.48643 8.70773 0.5
807 3.28612 4.74247 8.2871 0.5
808 1.4915 9.32531 3.41147 0.5
809 9.18258 5.06814 11.5717 0.5
810 2.59017 12.3588 10.8388 0.5
811 10.4537 7.103 3.35518 0.5
812 2.6845 8.03411 11.6122 0.5
813 7.95192 4.89009 12.4095 0.5
814 9.5908 0.420243 5.73522 0.5
815 11.5406 12.3969 8.0234 0.5
816 8.53858 7.42652 0.771886 0.5
817 11.2593 11.1687 3.15548 0.5
818 3.75121 10.5069 0.218516 0.5
819 5.97387 12.8982 7.72259 0.5
820 0.186713 12.9128 9.77506 0.5
821 11.1328 2.76498 4.90867 0.5
822 9.36634 1.07817 5.05491 0.5
823 9.73354 0.215356 10.2183 0.5
824 2.00963 8.53031 5.17345 0.5
825 8.13042 1.13516 2.10177 0.5
826 6.64038 13.1124 8.42844 0.5
827 11.2592 1.2461 0.541399 0.5
828 4.48106 3.93512 3.61621 0.5
829 4.48932 1.93673 7.81392 0.5
830 5.30148 12.5756 9.15018 0.5
831 11.7207 13.383 7.60937 0.5
832 0.897909 4.73381 10.4879 0.5
833 2.18491 11.2312 11.5074 0.5
834 8.60028 2.05436 0.123398 0.5
835 1.6897 6.19943 12.9305 0.5
836 8.08455 9.22283 11.1667 0.5
837 5.82929 3.17521 13.3943 0.5
838 11.8911 0.0885659 11.7036 0.5
839 5.1846 5.32289 1.1074 0.5
840 7.11304 13.1677 0.0811454 0.5
841 6.3256 11.2925 6.42091 0.5
842 12.5611 4.32814 11.72 0.5
843 13.0055 3.40502 13.0095 0.5
844 4.43715 4.06998 13.3254 0.5
845 10.405 5.16538 6.1243 0.5
846 6.10387 12.2761 8.61486 0.5
847 4.1116 7.51045 6.45038 0.5
848 5.18773 6.71666 12.2856 0.5
849 0.339022 12.7321 6.46108 0.5
850 10.287 11.1232 12.2374 0.5
851 7.06285 10.5459 6.29708 0.5
852 6.45856 10.5389 7.1939 0.5
853 4.19209 6.96469 9.23693 0.5
854 10.1918 6.07085 3.63851 0.5
855 9.35514 10.8915 2.87311 0.5
856 2.11368 13.3664 3.7697 0.5
857 9.70534 5.42427 10.7882 0.5
858 7.46219 9.97664 8.20028 0.5
859 11.2861 5.37535 5.69935 0.5
860 11.0602 4.40971 5.66847 0.5
861 11.3143 0.353101 6.08236 0.5
862 10.9581 6.38466 10.9082 0.5
863 7.37595 8.67488 5.31102 0.5
864 8.11899 7.11167 7.45042 0.5
865 12.1151 3.46062 13.3479 0.5
866 5.51222 12.9631 2.05018 0.5
867 12.1212 3.42755 0.754077 0.5
868 9.30442 9.63887 9.23773 0.5
869 4.00728 0.419083 0.237215 0.5
870 3.71308 8.53101 6.25321 0.5
871 12.0527 8.50726 4.67873 0.5
872 0.616961 6.49898 13.0341 0.5
873 12.6179 0.885966 1.48803 0.5
874 7.3745 5.38416 13.1836 0.5
875 8.17371 11.5984 5.56898 0.5
876 2.71023 6.00067 7.62979 0.5
877 11.9376 7.79448 7.22378 0.5
878 2.5954 11.5607 0.22662 0.5
879 2.57202 3.28056 7.62567 0.5
880 11.7207 0.560774 1.13944 0.5
881 10.8899 10.7044 12.8637 0.5
882 1.60911 10.3826 3.74361 0.5
883 10.9533 12.6283 0.787527 0.5
884 12.9914 3.36922 1.10276 0.5
885 7.90381 10.8608 10.5029 0.5
886 0.64701 2.90665 7.66691 0.5
887 0.0657202 0.550605 12.6223 0.5
888 4.88311 4.97318 1.9695 0.5
889 11.0842 4.00415 8.53942 0.5
890 11.7619 8.28715 6.36197 0.5
891 3.29133 6.35537 3.25426 0.5
892 9.35259 0.657094 9.45511 0.5
893 10.3754 3.69846 7.83454 0.5
894 7.5775 7.7456 1.14165 0.5
895 12.3223 9.00948 1.3037 0.5
896 6.9116 12.1808 0.400999 0.5
897 6.56505 12.938 3.32128 0.5
898 5.10554 12.4493 2.75388 0.5
899 10.078 5.19584 9.8886 0.5
900 11.6328 11.0465 9.26118 0.5
901 0.149243 5.49069 10.677 0.5
902 10.7752 6.08322 8.84054 0.5
903 9.78043 8.89549 3.25403 0.5
904 8.26626 3.65028 5.57549 0.5
905 0.510602 5.92325 5.80222 0.5
906 12.8966 5.32695 3.6981 0.5
907 6.27539 3.80058 10.5749 0.5
908 8.76855 0.196795 5.05466 0.5
909 9.81582 2.8594 2.39913 0.5
910 8.39647 2.24854 7.42397 0.5
911 6.61848 6.47427 11.4098 0.5
912 8.9672 9.41368 11.6307 0.5
913 11.1742 6.05392 13.5609 0.5
914 4.99477 0.213311 0.485972 0.5
915 8.26778 2.15297 4.78346 0.5
916 10.9807 8.03355 7.01307 0.5
917 11.4793 0.966625 11.3315 0.5
918 8.10993 6.12938 8.0135 0.5
919 13.5577 12.2184 0.934475 0.5
920 13.5503 11.1187 10.3343 0.5
921 6.14891 6.14953 7.22423 0.5
922 12.2442 3.46326 12.1895 0.5
923 1.2212 2.51273 8.4014 0.5
924 11.2539 11.6548 9.9604 0.5
925 10.5238 3.3857 1.9824 0.5
926 4.69756 10.2521 13.362 0.5
927 1.62769 7.66854 5.20688 0.5
928 0.311398 6.93048 5.8378 0.5
929 1.23943 2.34779 11.1463 0.5
930 10.1502 9.78848 8.62721 0.5
931 5.56271 9.31136 12.2363 0.5