ITEM: TIMESTEP
600000
ITEM: NUMBER OF ATOMS
1000
ITEM: BOX BOUNDS xy xz yz pp pp pp
0.0000000000000000e+00 1.3572088000000001e+01 0.0000000000000000e+00
0.0000000000000000e+00 1.3572088000000001e+01 0.0000000000000000e+00
0.0000000000000000e+00 1.3572088000000001e+01 0.0000000000000000e+00
ITEM: ATOMS id x y z radius
1 4.49865 3.8759 11.9919 0.5
2 4.96336 11.0429 3.43921 0.5
3 8.89333 10.4892 3.1657 0.5
4 9.99198 5.92721 1.19986 0.5
5 8.83507 7.87928 10.4548 0.5
6 3.51353 12.6957 4.85577 0.5
7 2.49426 8.65515 1.18446 0.5
8 13.1504 11.1394 1.98362 0.5
9 1.76332 8.13254 6.86523 0.5
10 3.55099 0.054047 11.2893 0.5
11 0.474787 9.20734 9.3603 0.5
12 10.2693 5.55697 0.279021 0.5
13 8.15898 11.6396 5.71224 0.5
14 10.9552 2.20375 4.40345 0.5
15 5.72248 1.82872 5.18335 0.5
16 7.85491 6.96108 9.51926 0.5
17 6.86804 12.4811 10.8884 0.5
18 2.65231 8.35037 6.42604 0.5
19 10.0354 5.1795 1.94535 0.5
20 10.1074 11.6144 2.77356 0.5
21 2.17435 4.8373 1.23237 0.5
22 1.24454 6.23463 12.6253 0.5
23 1.67171 1.08357 10.3382 0.5
24 7.77088 7.23675 2.15272 0.5
25 0.796571 5.91966 2.31642 0.5
26 10.3246 10.4901 5.82805 0.5
27 11.3681 6.64544 12.6214 0.5
28 5.02977 11.5603 12.2507 0.5
29 0.294938 6.01682 1.45208 0.5
30 8.43953 11.1058 1.66093 0.5
31 0.766957 0.0245003 8.19184 0.5
32 9.23434 2.85547 12.9511 0.5
33 13.0226 5.92899 9.46679 0.5
34 3.52131 8.75601 5.98477 0.5
35 11.7128 6.3779 0.0768633 0.5
36 8.65966 1.85605 4.61692 0.5
37 0.232963 1.35122 2.53791 0.5
38 2.88467 1.50629 1.83478 0.5
39 10.5427 4.26808 1.56845 0.5
40 5.68793 5.99227 6.40576 0.5
41 7.96254 11.2439 4.78851 0.5
42 6.89141 5.18058 3.28081 0.5
43 5.4887 5.16546 9.82848 0.5
44 4.8782 11.5844 8.3712 0.5
45 7.73836 6.1217 1.94001 0.5
46 10.3073 10.7044 13.5653 0.5
47 2.61919 9.17924 5.80754 0.5
48 7.99504 10.8729 0.813099 0.5
49 5.7973 11.7991 9.84133 0.5
50 6.02881 0.979538 10.2763 0.5
51 13.091 10.1306 7.24521 0.5
52 6.41827 10.4214 7.23721 0.5
53 10.0205 3.40977 1.85049 0.5
54 11.7995 11.8812 3.92586 0.5
55 0.00802721 0.339482 6.10926 0.5
56 0.105386 3.839 3.10447 0.5
57 0.580364 11.506 11.4961 0.5
58 5.24223 8.5287 10.6274 0.5
59 1.86753 10.4392 11.1909 0.5
60 7.06409 5.60374 9.93374 0.5
61 4.35411 0.628987 11.0816 0.5
62 0.862254 8.76345 0.932007 0.5
63 11.4849 8.73602 2.10777 0.5
64 12.208 1.83074 9.53768 0.5
65 0.0363735 1.69551 5.10384 0.5
66 12.5542 1.74692 1.49554 0.5
67 8.14198 3.28278 8.22716 0.5
68 2.87525 1.60831 2.83459 0.5
69 11.7543 2.05566 10.3556 0.5
70 12.1046 3.55488 9.62913 0.5
71 2.94487 6.68835 8.36704 0.5
72 7.55019 2.27864 10.8718 0.5
73 8.65156 6.73308 8.83114 0.5
74 6.1257 4.38085 10.0401 0.5
75 9.00878 0.484904 10.4752 0.5
76 12.1375 3.43064 12.9746 0.5
77 10.4317 2.67746 3.60806 0.5
78 8.68487 2.78844 5.15093 0.5
79 4.06982 12.3512 5.53041 0.5
80 5.5373 2.73281 8.20277 0.5
81 1.41454 3.43982 11.3071 0.5
82 0.965557 8.34282 13.4995 0.5
83 2.91305 0.154026 6.63937 0.5
84 13.3996 8.61051 8.85866 0.5
85 13.2302 3.85892 6.7621 0.5
86 2.86893 0.669562 13.4015 0.5
87 4.17432 5.66002 5.9122 0.5
88 6.71707 5.60301 4.23502 0.5
89 11.5073 12.3409 7.49886 0.5
90 4.01562 6.26429 4.28655 0.5
91 11.3595 7.59555 12.1997 0.5
92 13.5352 1.62877 1.50439 0.5
93 13.4318 0.711522 12.7409 0.5
94 4.60024 10.1512 13.0693 0.5
95 11.8093 1.23915 7.98432 0.5
96 11.8741 2.59414 4.60211 0.5
97 12.1283 2.55108 5.50417 0.5
98 10.6301 9.79481 0.526517 0.5
99 6.48961 8.84253 9.44535 0.5
100 0.449473 7.11916 6.44888 0.5
101 4.57396 11.6416 2.71295 0.5
102 8.81553 7.35824 9.69929 0.5
103 4.58143 5.2292 10.3706 0.5
104 6.64816 11.3794 5.78758 0.5
105 11.7068 12.2726 6.3958 0.5
106 6.03405 1.6728 10.8281 0.5
107 13.0606 5.48006 7.01708 0.5
108 13.0503 10.6237 5.46082 0.5
109 0.744641 12.133 8.98375 0.5
110 8.04231 9.21819 8.65291 0.5
111 8.71507 0.107966 3.6538 0.5
112 6.21581 0.929245 4.92651 0.5
113 0.398095 13.2193 5.33175 0.5
114 7.76758 6.48624 2.80981 0.5
115 5.59337 6.51081 12.0699 0.5
116 -0.0499997 5.2804 2.16753 0.5
117 0.968946 1.25627 5.0142 0.5
118 11.0012 9.71435 5.95051 0.5
119 12.0388 8.02731 1.76527 0.5
120 5.77268 9.28893 4.10996 0.5
121 12.0018 12.9356 11.2063 0.5
122 2.27576 3.42488 2.3085 0.5
123 11.5847 1.99289 8.63493 0.5
124 10.3383 11.276 11.6433 0.5
125 4.81239 12.1051 3.58949 0.5
126 11.0816 11.297 13.2597 0.5
127 7.84262 10.1487 11.0862 0.5
128 4.91192 3.13617 7.43647 0.5
129 2.34011 6.40887 12.5248 0.5
130 1.25671 12.0382 11.0134 0.5
131 8.07027 1.99077 1.85297 0.5
132 5.3597 11.9278 2.18486 0.5
133 1.16189 11.1314 10.7387 0.5
134 11.0322 11.7116 3.32238 0.5
135 12.0622 1.57796 5.88379 0.5
136 8.14103 4.6054 4.12565 0.5
137 3.11017 12.2349 5.78026 0.5
138 7.21861 12.2624 13.1543 0.5
139 5.85316 0.0601666 0.114502 0.5
140 5.16912 3.48869 4.2264 0.5
141 1.8555 3.90603 4.23406 0.5
142 10.0901 3.4551 12.8895 0.5
143 0.640644 13.008 0.426027 0.5
144 8.62224 12.8391 9.30594 0.5
145 6.89516 6.69422 2.43712 0.5
146 10.0112 9.00015 8.56441 0.5
147 4.52993 6.82874 1.1944 0.5
148 12.3764 0.315631 11.1293 0.5
149 8.17195 7.09328 10.4419 0.5
150 12.7073 11.945 3.48306 0.5
151 6.72236 12.2263 9.97447 0.5
152 4.28468 4.77851 12.0355 0.5
153 12.1897 7.71523 7.17606 0.5
154 2.504 2.43377 2.13288 0.5
155 2.51409 8.11745 10.6232 0.5
156 8.05493 12.1892 0.159896 0.5
157 1.29889 0.699523 3.2045 0.5
158 1.83057 10.0605 8.86506 0.5
159 4.01283 2.14567 9.08432 0.5
160 9.66058 0.524682 11.3056 0.5
161 12.4783 2.67444 9.98438 0.5
162 6.58054 2.91079 7.90353 0.5
163 11.4933 9.81137 0.897696 0.5
164 9.82651 3.68999 11.3118 0.5
165 7.17172 11.6279 11.406 0.5
166 10.9122 12.6619 6.83557 0.5
167 11.509 8.05484 7.85973 0.5
168 0.935248 2.91992 7.14255 0.5
169 10.2777 11.0876 12.6356 0.5
170 3.83547 6.55552 0.516251 0.5
171 10.7291 5.30772 1.11707 0.5
172 12.0579 7.85431 10.2731 0.5
173 9.04856 10.4157 2.14907 0.5
174 4.39939 0.966381 13.2807 0.5
175 2.33291 6.517 4.19959 0.5
176 3.73217 6.03723 3.37848 0.5
177 9.05006 4.49866 5.86398 0.5
178 5.60543 2.56379 4.27842 0.5
179 12.8559 5.98534 1.66068 0.5
180 9.70927 3.06584 12.0453 0.5
181 10.7675 11.1965 9.73262 0.5
182 2.79849 11.7843 1.44468 0.5
183 8.50689 6.67898 6.27357 0.5
184 10.7215 5.74177 8.99836 0.5
185 8.75714 13.5493 11.4476 0.5
186 4.86707 8.28067 3.07485 0.5
187 5.26247 0.521387 12.9312 0.5
188 4.82971 5.80577 6.80448 0.5
189 0.805812 10.7593 6.35596 0.5
190 9.45238 12.965 3.65216 0.5
191 9.34263 7.50666 3.80799 0.5
192 10.0848 1.02668 13.5258 0.5
193 11.2356 1.57196 9.54303 0.5
194 9.52775 13.2174 10.8697 0.5
195 0.444488 9.95843 12.2364 0.5
196 8.79306 0.75807 4.45197 0.5
197 2.12117 6.92416 8.19152 0.5
198 6.02267 6.00529 12.9014 0.5
199 11.6428 0.382891 8.33725 0.5
200 7.18626 6.83297 1.49574 0.5
201 13.2313 3.82328 7.68695 0.5
202 6.67318 13.0769 7.63948 0.5
203 1.77135 3.9836 1.6102 0.5
204 3.50916 8.06874 9.12361 0.5
205 12.5316 0.158291 3.43653 0.5
206 0.809913 1.21634 9.90074 0.5
207 4.55628 12.2711 9.02267 0.5
208 9.30149 3.83237 5.22866 0.5
209 5.35886 1.99439 3.44491 0.5
210 4.14847 6.50834 5.37762 0.5
211 4.1635 4.22782 10.2719 0.5
212 3.05599 5.7836 4.13546 0.5
213 3.34883 1.22324 5.8607 0.5
214 9.94049 4.70283 11.2692 0.5
215 8.24321 6.79397 1.45664 0.5
216 6.38414 8.35463 0.41687 0.5
217 4.47402 11.4156 4.28795 0.5
218 6.79288 7.85072 4.70106 0.5
219 9.12263 1.03922 3.48672 0.5
220 7.20823 2.68972 10.113 0.5
221 3.1674 2.82584 6.1254 0.5
222 7.01119 10.9779 4.8617 0.5
223 4.86252 9.19342 3.50652 0.5
224 12.7255 9.56636 3.57833 0.5
225 7.95443 11.1361 11.2087 0.5
226 10.7198 6.20732 13.3304 0.5
227 13.2925 7.38924 9.96943 0.5
228 4.6397 11.6295 5.18987 0.5
229 5.51253 4.34751 6.25409 0.5
230 6.0754 9.63799 9.06057 0.5
231 7.95516 6.05578 9.17747 0.5
232 8.05677 4.59695 13.1487 0.5
233 1.24216 0.283843 9.8141 0.5
234 11.5437 1.8006 5.10225 0.5
235 1.452 10.636 3.20537 0.5
236 10.8266 6.30629 0.756632 0.5
237 5.25973 7.85471 6.47728 0.5
238 0.20295 12.3235 5.93316 0.5
239 10.0098 8.14759 3.75278 0.5
240 1.26916 4.69603 13.4025 0.5
241 4.04897 5.91278 1.4323 0.5
242 2.95132 0.579701 2.42629 0.5
243 2.92926 9.82895 3.64143 0.5
244 3.80975 11.4936 5.85081 0.5
245 1.60077 11.3089 11.6357 0.5
246 9.63404 9.95176 8.50352 0.5
247 3.5688 0.746114 10.4763 0.5
248 7.83708 2.69987 2.65024 0.5
249 10.4174 1.94695 13.5279 0.5
250 9.77577 1.74936 0.618394 0.5
251 4.30441 10.0775 12.1344 0.5
252 8.4108 8.56006 12.9788 0.5
253 1.61675 8.35376 1.47331 0.5
254 10.8585 2.71046 2.73171 0.5
255 8.38273 9.66137 2.59606 0.5
256 1.11443 13.3066 3.16811 0.5
257 0.580915 3.83052 7.31818 0.5
258 13.2265 6.48511 5.09785 0.5
259 4.56238 4.7516 9.4577 0.5
260 6.40337 11.5983 10.6765 0.5
261 11.6348 3.10601 6.11057 0.5
262 7.27518 11.8027 5.24703 0.5
263 2.69774 3.86286 8.63134 0.5
264 10.1629 10.7198 8.97566 0.5
265 1.62036 4.06704 5.24744 0.5
266 3.39016 13.0795 5.92844 0.5
267 5.31884 7.69674 9.29221 0.5
268 7.08991 2.42026 1.93242 0.5
269 9.35522 -0.0746222 8.84882 0.5
270 6.66718 9.99886 8.20193 0.5
271 11.1071 11.6403 6.75314 0.5
272 6.36471 9.25794 0.870257 0.5
273 7.59905 4.52052 3.29909 0.5
274 10.3429 4.83424 9.36464 0.5
275 2.60073 10.901 1.02834 0.5
276 3.82311 2.84459 0.128605 0.5
277 7.33669 5.23634 13.4354 0.5
278 11.2509 10.6095 0.323645 0.5
279 9.09949 11.6371 6.01801 0.5
280 4.44958 12.3151 1.95882 0.5
281 6.62608 2.58258 10.8141 0.5
282 13.5705 11.4139 1.02631 0.5
283 5.56621 5.16737 1.82632 0.5
284 1.79138 10.8303 0.49878 0.5
285 3.41729 9.71872 6.12019 0.5
286 2.60437 1.39804 12.5291 0.5
287 7.8357 7.05153 6.9376 0.5
288 5.68002 0.115992 6.35286 0.5
289 2.45162 10.7448 3.45452 0.5
290 1.12944 12.5594 5.7106 0.5
291 5.5012 0.282891 5.28033 0.5
292 4.07161 3.48035 12.8595 0.5
293 10.6183 5.71109 3.88967 0.5
294 2.51835 9.97281 6.52624 0.5
295 2.86327 1.15332 6.81217 0.5
296 13.6092 4.65426 7.04763 0.5
297 10.1852 10.4387 11.0074 0.5
298 9.33082 5.13509 11.9525 0.5
299 1.97874 0.657072 13.0021 0.5
300 9.51565 4.36148 1.62938 0.5
301 6.03596 7.35749 11.7805 0.5
302 3.21153 8.89281 3.41225 0.5
303 12.1746 9.36522 2.76351 0.5
304 0.389397 7.26841 5.46735 0.5
305 7.91961 12.5535 8.48948 0.5
306 11.1368 8.23832 1.2959 0.5
307 2.43435 7.18173 3.30346 0.5
308 0.128216 9.85342 11.291 0.5
309 13.0119 13.3361 12.6841 0.5
310 8.90751 13.2741 4.51688 0.5
311 13.5223 6.35373 6.82586 0.5
312 7.47294 11.764 10.5503 0.5
313 0.944436 10.2574 4.04425 0.5
314 6.14979 12.844 9.54789 0.5
315 12.6155 4.95196 1.9558 0.5
316 8.20377 6.07554 8.12714 0.5
317 13.4245 8.79593 3.78695 0.5
318 0.241644 5.56307 6.39238 0.5
319 10.7769 11.3523 0.695602 0.5
320 5.60237 3.43054 6.78592 0.5
321 2.06621 12.7364 3.27945 0.5
322 10.1464 13.3469 1.00399 0.5
323 3.69207 1.18847 2.43151 0.5
324 11.076 3.47039 3.27254 0.5
325 1.52306 5.41014 0.607923 0.5
326 10.322 12.8361 0.150818 0.5
327 8.49581 3.38948 7.3736 0.5
328 11.9779 7.17641 13.017 0.5
329 8.43538 2.30463 8.58401 0.5
330 8.137 1.20314 5.12136 0.5
331 4.72964 2.58134 2.85674 0.5
332 11.9607 1.13683 8.99581 0.5
333 12.979 1.85018 2.35879 0.5
334 5.03008 6.04233 1.51039 0.5
335 9.59602 0.396033 5.01466 0.5
336 4.99088 1.87699 8.73825 0.5
337 11.9663 0.853242 11.8914 0.5
338 7.67403 6.29494 10.1633 0.5
339 10.041 4.32029 2.4358 0.5
340 11.8805 3.49803 11.255 0.5
341 8.66975 0.259086 9.43608 0.5
342 6.38569 0.220964 5.63696 0.5
343 7.06392 6.38487 9.37409 0.5
344 5.17857 6.81202 6.83141 0.5
345 9.00453 7.50498 5.85747 0.5
346 1.22044 6.86574 5.84902 0.5
347 13.0089 11.8653 0.408508 0.5
348 1.45315 4.31865 0.664537 0.5
349 7.55046 6.12351 6.63388 0.5
350 8.60682 7.41723 11.2976 0.5
351 2.23633 9.08497 10.8962 0.5
352 8.54328 12.1231 7.81827 0.5
353 8.55869 7.41804 0.641978 0.5
354 2.40816 2.53054 5.50876 0.5
355 1.83732 7.43289 4.02493 0.5
356 11.6062 0.0721477 3.87436 0.5
357 6.61036 11.9834 3.4753 0.5
358 3.63657 1.40539 9.69607 0.5
359 7.05803 9.46601 8.95345 0.5
360 12.2207 3.97074 6.28241 0.5
361 3.74854 0.695024 6.56948 0.5
362 1.4915 1.05139 9.27733 0.5
363 10.3413 12.2931 0.863528 0.5
364 3.04973 7.81056 1.43005 0.5
365 2.21666 7.7434 0.857697 0.5
366 6.40452 8.96131 8.3713 0.5
367 10.2939 11.7637 13.5314 0.5
368 5.54189 4.44776 9.23373 0.5
369 2.17418 3.25839 4.84552 0.5
370 0.285334 10.2113 5.74699 0.5
371 9.60356 0.33307 3.97768 0.5
372 0.199471 4.63451 3.69291 0.5
373 3.80958 2.53203 12.6174 0.5
374 0.702448 9.16285 12.7958 0.5
375 0.871173 9.90531 8.72647 0.5
376 1.6835 10.9227 4.14439 0.5
377 7.66001 5.48251 3.79769 0.5
378 5.97097 9.21039 13.5426 0.5
379 4.82592 5.19383 1.11647 0.5
380 7.5509 4.45681 0.486193 0.5
381 9.80159 3.47953 8.36501 0.5
382 9.5438 3.48605 7.37634 0.5
383 2.20362 4.77816 0.139401 0.5
384 5.6027 10.2215 13.308 0.5
385 12.6434 11.0812 0.983149 0.5
386 0.175535 3.69142 4.07078 0.5
387 2.37969 6.40484 11.4492 0.5
388 1.38222 1.96423 9.8295 0.5
389 4.08077 10.1567 11.0788 0.5
390 5.13684 4.36882 10.2402 0.5
391 6.73842 0.972761 2.32149 0.5
392 13.1682 4.66284 2.88881 0.5
393 3.24327 4.72895 9.0602 0.5
394 9.06999 9.28854 8.08436 0.5
395 1.55575 0.115971 8.85256 0.5
396 0.445666 2.24044 2.12329 0.5
397 7.22975 1.54009 1.61108 0.5
398 9.29281 12.2508 2.97785 0.5
399 0.956491 4.44825 4.51199 0.5
400 7.50958 8.5896 5.05958 0.5
401 9.94438 2.73939 0.084035 0.5
402 4.70441 7.19806 6.00755 0.5
403 6.97315 0.308872 7.35601 0.5
404 11.1635 11.1361 12.244 0.5
405 12.3396 5.58412 0.0287668 0.5
406 6.82284 3.04355 1.21294 0.5
407 1.80808 11.6273 3.49139 0.5
408 2.53604 3.64151 5.71308 0.5
409 3.81059 4.92466 10.923 0.5
410 11.4514 2.57978 3.60661 0.5
411 4.63453 6.01637 0.523366 0.5
412 5.31156 0.865717 0.242449 0.5
413 2.62511 6.27304 7.59446 0.5
414 3.19297 8.60306 11.3107 0.5
415 8.2466 10.3898 11.9634 0.5
416 8.69159 10.8255 5.58979 0.5
417 0.731546 13.1559 9.11297 0.5
418 9.70293 1.19351 10.5388 0.5
419 2.93494 13.4139 10.5404 0.5
420 3.57611 13.2339 7.0128 0.5
421 13.4831 4.96165 9.35909 0.5
422 8.71229 4.5322 4.99778 0.5
423 12.5633 0.224649 2.42416 0.5
424 3.12909 3.13773 5.20139 0.5
425 8.62968 8.45538 11.284 0.5
426 1.00659 12.9324 7.51443 0.5
427 7.56071 2.35447 1.00193 0.5
428 0.792884 8.27083 8.99843 0.5
429 11.2527 5.78796 8.31378 0.5
430 9.61547 13.3157 11.8397 0.5
431 2.38427 4.89297 8.56576 0.5
432 13.1589 2.4903 1.67471 0.5
433 7.47781 11.4052 0.154911 0.5
434 0.282721 3.34272 12.9689 0.5
435 10.9401 9.25978 1.45814 0.5
436 6.41667 5.18042 10.3696 0.5
437 4.16475 9.12284 6.50755 0.5
438 5.84702 3.59931 7.70624 0.5
439 11.015 10.487 10.3214 0.5
440 9.45415 10.7987 6.2457 0.5
441 5.74001 1.0796 5.83322 0.5
442 1.45044 7.10987 6.81196 0.5
443 0.79869 11.966 1.29866 0.5
444 9.11436 9.14317 13.2094 0.5
445 5.20264 8.4494 3.92538 0.5
446 3.18818 6.44688 4.84045 0.5
447 2.16847 9.09206 6.64965 0.5
448 5.6769 9.8872 0.693109 0.5
449 3.44087 12.6769 10.883 0.5
450 3.0552 2.39578 1.36155 0.5
451 7.64813 3.38471 0.593947 0.5
452 1.7665 8.54786 0.538996 0.5
453 5.07339 9.03203 2.47619 0.5
454 2.87234 13.6109 3.32911 0.5
455 1.49771 2.43811 11.4128 0.5
456 8.36749 13.4413 8.55208 0.5
457 12.2785 11.039 8.9421 0.5
458 4.3984 0.740926 10.0401 0.5
459 13.0616 1.91736 5.90207 0.5
460 12.6733 6.64156 13.5171 0.5
461 11.2443 8.44094 11.5839 0.5
462 9.96904 4.26616 7.73626 0.5
463 6.56899 3.42187 7.06279 0.5
464 0.176199 8.28518 9.68767 0.5
465 5.15047 10.5176 12.3912 0.5
466 2.80754 12.7559 6.6086 0.5
467 1.11978 7.78419 0.761226 0.5
468 0.0175605 7.60698 8.92467 0.5
469 2.31258 2.8521 10.9414 0.5
470 1.5922 6.69735 11.8024 0.5
471 4.16699 1.54128 10.6006 0.5
472 10.832 6.74147 3.86317 0.5
473 11.5443 8.41193 6.90321 0.5
474 3.40211 7.05078 9.26823 0.5
475 6.36321 3.83499 6.15315 0.5
476 6.81927 0.980286 10.9311 0.5
477 5.86947 8.16188 9.91714 0.5
478 3.08505 12.3032 0.737264 0.5
479 8.45155 7.52488 13.121 0.5
480 4.68097 10.6688 8.76275 0.5
481 2.49921 4.02818 0.813381 0.5
482 11.0412 13.0475 0.746245 0.5
483 9.00571 11.3341 2.55345 0.5
484 10.214 7.3412 4.38834 0.5
485 5.45164 4.70471 2.71206 0.5
486 4.02437 11.3642 8.90148 0.5
487 4.51198 2.71947 8.34999 0.5
488 5.58047 5.16268 6.85733 0.5
489 3.31722 0.919237 3.2899 0.5
490 0.452509 12.5909 8.22543 0.5
491 2.36852 7.36097 12.0398 0.5
492 1.15849 5.2601 12.4207 0.5
493 12.179 8.47548 10.9883 0.5
494 6.60524 4.77595 0.290378 0.5
495 6.56681 7.54586 1.11506 0.5
496 6.91056 0.272372 13.5294 0.5
497 4.61787 4.81873 6.56187 0.5
498 3.66249 11.6971 4.94167 0.5
499 6.92479 1.86402 11.3632 0.5
500 10.0237 9.58911 6.20203 0.5
501 4.95744 1.71961 4.28823 0.5
502 9.27594 10.4173 9.22069 0.5
503 7.02811 5.877 12.7141 0.5
504 2.283 1.48661 13.4761 0.5
505 3.63891 3.24241 11.8456 0.5
506 3.50106 11.02 1.45604 0.5
507 7.59511 3.7995 4.02628 0.5
508 0.289545 1.22581 5.95323 0.5
509 5.13083 5.28379 5.89726 0.5
510 7.30328 10.6391 11.8271 0.5
511 6.37915 0.699717 6.58259 0.5
512 9.47125 11.3157 3.51928 0.5
513 4.53328 4.47698 2.83843 0.5
514 6.17423 8.38424 1.40296 0.5
515 2.13037 9.89777 3.0656 0.5
516 5.75073 8.72296 3.27746 0.5
517 1.07975 3.52004 4.59144 0.5
518 2.42939 6.77531 9.23281 0.5
519 4.99017 7.61351 10.3337 0.5
520 2.1185 0.663478 0.45517 0.5
521 11.3123 5.89876 4.51513 0.5
522 2.59959 9.17989 11.8653 0.5
523 12.9718 7.99081 3.3417 0.5
524 0.883226 0.517675 5.68878 0.5
525 11.1031 8.90942 0.502358 0.5
526 8.61036 11.9176 8.79842 0.5
527 7.44141 10.8298 1.63618 0.5
528 1.35931 0.0805802 13.5463 0.5
529 13.443 12.5227 0.934145 0.5
530 11.6191 2.57978 9.51997 0.5
531 11.2004 8.28682 10.5714 0.5
532 6.56043 8.89926 4.70519 0.5
533 5.88138 7.69679 10.7684 0.5
534 2.73396 13.0618 11.4508 0.5
535 8.05634 12.8485 12.9154 0.5
536 1.09203 12.3077 3.34279 0.5
537 3.0901 11.1345 9.11339 0.5
538 8.16816 10.1387 1.60574 0.5
539 2.40009 8.11458 3.48123 0.5
540 0.449313 3.07346 8.07252 0.5
541 3.6354 11.6973 2.19031 0.5
542 7.921 0.24466 13.119 0.5
543 13.0244 5.91515 5.97637 0.5
544 8.19831 2.45151 7.5873 0.5
545 1.48874 7.53914 3.13006 0.5
546 0.902184 0.694116 12.8515 0.5
547 10.548 5.33822 4.84483 0.5
548 11.6903 13.1597 6.8269 0.5
549 11.7806 10.2134 8.80388 0.5
550 12.679 12.8576 2.98809 0.5
551 6.23648 1.76549 1.88381 0.5
552 3.89916 7.48158 0.802148 0.5
553 10.3102 6.08818 8.18243 0.5
554 3.86733 12.4108 6.51268 0.5
555 1.03853 3.92652 3.56663 0.5
556 7.14564 13.2659 12.7924 0.5
557 7.00334 11.248 0.922641 0.5
558 4.60572 1.63899 9.67621 0.5
559 3.56504 10.5422 8.58443 0.5
560 7.2173 2.7174 11.6919 0.5
561 8.01003 8.72588 11.9854 0.5
562 12.9481 2.7721 12.8755 0.5
563 8.41326 6.25238 7.21481 0.5
564 6.44692 5.08095 12.9585 0.5
565 9.76815 4.7863 5.35108 0.5
566 6.91322 1.73379 10.3262 0.5
567 12.8504 4.17485 3.62812 0.5
568 7.7514 1.32874 10.9582 0.5
569 11.1507 6.7647 11.4995 0.5
570 12.8619 7.96009 2.40789 0.5
571 2.35381 0.853227 3.20101 0.5
572 4.66015 3.44018 0.162341 0.5
573 0.778656 13.2046 6.22919 0.5
574 8.95148 8.43799 3.58304 0.5
575 8.85889 13.0597 2.83581 0.5
576 4.19702 11.0652 7.90308 0.5
577 4.10749 8.96192 2.93896 0.5
578 1.66048 11.5844 1.21143 0.5
579 13.0623 9.88565 12.0546 0.5
580 2.40642 5.27327 7.66836 0.5
581 1.40071 12.7277 8.46391 0.5
582 2.40439 12.5365 10.6491 0.5
583 2.7746 10.8025 0.0702685 0.5
584 10.5129 6.36233 4.69275 0.5
585 12.9303 4.80712 6.35031 0.5
586 0.320639 5.77792 9.78928 0.5
587 13.1783 3.21798 0.988518 0.5
588 13.4205 12.6916 13.4887 0.5
589 13.4209 9.63251 8.623 0.5
590 4.08208 12.108 8.17159 0.5
591 3.58623 4.11524 12.3898 0.5
592 10.4638 11.2937 10.6371 0.5
593 6.44737 9.44259 7.37758 0.5
594 13.3412 10.7276 6.47396 0.5
595 13.059 9.90164 6.13288 0.5
596 9.43071 9.76649 2.73342 0.5
597 2.94591 10.0682 9.13182 0.5
598 7.57804 10.9506 5.5949 0.5
599 11.2719 11.0976 8.82393 0.5
600 12.2515 6.21311 12.7633 0.5
601 2.62463 6.19654 3.26745 0.5
602 13.3914 6.42777 10.3334 0.5
603 2.93851 7.67932 11.297 0.5
604 5.10456 1.2439 10.5821 0.5
605 7.92835 1.96601 11.7834 0.5
606 11.2101 9.19813 5.19188 0.5
607 8.58941 10.0874 8.54102 0.5
608 7.99988 13.5319 12.194 0.5
609 1.42768 11.8143 0.327691 0.5
610 1.42011 9.03426 8.96423 0.5
611 0.587129 9.04931 8.38509 0.5
612 5.76381 13.4009 2.94827 0.5
613 3.85588 5.58612 4.87523 0.5
614 3.9968 13.4421 10.4478 0.5
615 3.84235 10.4575 9.49596 0.5
616 13.4604 6.27323 2.28982 0.5
617 7.02022 5.72591 2.35639 0.5
618 11.7334 7.02854 7.87158 0.5
619 12.7848 3.58905 11.558 0.5
620 0.855416 10.5928 11.5269 0.5
621 2.55587 4.15303 4.89066 0.5
622 5.66985 8.66841 9.01003 0.5
623 12.8804 8.07386 4.34636 0.5
624 12.7063 5.691 2.68744 0.5
625 1.83785 3.65322 10.4361 0.5
626 2.75354 4.08023 1.73267 0.5
627 9.97991 6.55011 0.378187 0.5
628 13.271 4.28184 10.1571 0.5
629 5.29043 3.99962 3.40004 0.5
630 3.36691 3.41187 1.01692 0.5
631 9.17489 0.99295 0.314954 0.5
632 6.51054 12.8931 13.5405 0.5
633 10.0259 0.788447 0.897739 0.5
634 10.1259 10.4288 10.0161 0.5
635 10.0103 2.4002 12.669 0.5
636 9.85295 4.16249 12.2006 0.5
637 0.35898 9.94075 6.76758 0.5
638 5.91634 1.57494 4.19274 0.5
639 9.16046 6.97929 10.638 0.5
640 2.24464 4.25573 7.75079 0.5
641 7.48743 6.89129 6.008 0.5
642 11.3188 5.53095 0.350716 0.5
643 10.8672 0.755453 7.74565 0.5
644 7.33267 3.3665 10.8818 0.5
645 0.2229 11.1914 5.65918 0.5
646 8.9181 8.78614 12.2416 0.5
647 8.37232 4.92759 12.1765 0.5
648 7.52134 9.65691 11.998 0.5
649 5.28486 7.8989 11.4058 0.5
650 3.38901 0.572053 7.4415 0.5
651 0.968491 6.24591 6.54363 0.5
652 5.12493 4.27565 7.2501 0.5
653 0.0671432 5.59538 3.03424 0.5
654 3.66572 10.8251 11.7625 0.5
655 11.7609 11.8415 9.4232 0.5
656 0.877131 11.0865 0.805593 0.5
657 10.8611 0.161901 6.91268 0.5
658 9.47139 10.1483 5.52642 0.5
659 1.29695 9.53681 3.5349 0.5
660 0.655018 0.628888 9.04466 0.5
661 2.69515 7.68854 9.72439 0.5
662 4.16199 10.808 5.07473 0.5
663 5.67967 12.57 3.60574 0.5
664 4.91438 6.25766 5.8769 0.5
665 10.3338 10.9771 3.57543 0.5
666 5.20079 12.5355 9.76727 0.5
667 10.6506 4.11465 8.49791 0.5
668 5.33117 3.08963 3.3472 0.5
669 8.09662 10.7038 2.46577 0.5
670 8.97069 12.7113 8.39739 0.5
671 7.08602 8.47053 1.21503 0.5
672 3.36066 2.21195 5.37974 0.5
673 5.52865 8.81294 0.709955 0.5
674 3.10199 8.18253 12.2234 0.5
675 3.41414 5.02746 11.7746 0.5
676 2.0463 0.0141992 2.78446 0.5
677 3.85341 9.58007 3.66239 0.5
678 12.9454 8.25118 10.4241 0.5
679 10.8332 12.2066 5.89495 0.5
680 4.48699 11.2923 1.73507 0.5
681 4.23699 1.0985 9.00305 0.5
682 2.06645 2.71122 9.91388 0.5
683 1.86629 5.81197 11.9786 0.5
684 11.8374 13.2521 2.99707 0.5
685 12.2783 12.7766 3.89723 0.5
686 10.7066 7.68982 11.305 0.5
687 4.98478 9.49174 0.0177012 0.5
688 1.11938 7.81754 6.02893 0.5
689 3.2025 3.12916 1.93495 0.5
690 4.61515 8.47257 7.09043 0.5
691 13.3998 10.7726 11.7922 0.5
692 4.7279 0.0715586 0.0595621 0.5
693 11.7283 5.97622 12.0024 0.5
694 5.63457 9.15737 9.98175 0.5
695 12.1068 8.22352 2.77551 0.5
696 10.6036 3.58023 7.6083 0.5
697 0.336048 9.76137 7.78812 0.5
698 6.03916 10.8033 6.30469 0.5
699 3.09019 8.05892 0.407119 0.5
700 12.3431 8.65495 3.69621 0.5
701 9.30899 8.11383 12.8911 0.5
702 4.22272 1.65562 8.17017 0.5
703 1.86331 5.60061 13.081 0.5
704 9.04281 2.86239 8.05405 0.5
705 10.8357 7.37817 7.87981 0.5
706 6.77013 10.4459 5.5846 0.5
707 3.70043 4.98262 9.9158 0.5
708 12.9505 2.1424 0.762994 0.5
709 9.67707 0.108704 0.174473 0.5
710 7.06853 6.11679 3.31271 0.5
711 0.344782 13.5354 13.2211 0.5
712 12.328 2.76066 8.96298 0.5
713 8.22463 9.56852 7.6805 0.5
714 12.5558 4.45994 7.17298 0.5
715 13.0592 8.82252 2.91934 0.5
716 2.04579 2.00617 10.6661 0.5
717 3.01627 7.14947 0.7345 0.5
718 11.8012 0.482884 7.33237 0.5
719 4.24668 10.9142 12.5532 0.5
720 12.5219 11.7935 2.52738 0.5
721 11.0617 6.71734 8.60072 0.5
722 6.16809 -0.00204723 12.8434 0.5
723 3.41836 12.1385 8.9035 0.5
724 9.36871 13.315 9.86687 0.5
725 2.63292 1.63501 5.12723 0.5
726 7.4979 2.52015 8.39826 0.5
727 4.56611 2.67974 13.172 0.5
728 12.6068 1.85741 4.9684 0.5
729 9.96208 4.84087 0.913689 0.5
730 7.70165 5.49801 7.37998 0.5
731 10.6833 0.326339 0.300556 0.5
732 1.37102 2.57644 7.96852 0.5
733 7.77872 11.8031 1.11932 0.5
734 10.2195 11.4614 6.13053 0.5
735 3.08174 5.53662 8.37844 0.5
736 4.66638 4.50742 11.1517 0.5
737 4.44663 3.486 3.41482 0.5
738 2.15217 7.25112 11.0597 0.5
739 6.02865 0.17908 7.30268 0.5
740 12.0393 13.1796 7.82844 0.5
741 7.70032 4.19722 4.92491 0.5
742 5.73772 9.35582 1.65899 0.5
743 7.39637 7.78944 5.60997 0.5
744 4.60402 2.96168 12.2445 0.5
745 6.48992 6.56666 12.2617 0.5
746 4.90406 8.47913 9.63752 0.5
747 13.415 0.346138 11.1688 0.5
748 7.27004 9.22312 7.96618 0.5
749 6.6206 9.20769 3.66288 0.5
750 1.36393 1.06095 0.0889034 0.5
751 0.105221 8.46196 12.9121 0.5
752 1.51225 1.59773 12.852 0.5
753 6.56236 2.09702 1.02776 0.5
754 2.10377 12.2451 11.5126 0.5
755 6.74588 3.75088 0.487349 0.5
756 6.88124 7.71659 1.93431 0.5
757 11.9806 6.95654 11.9819 0.5
758 4.38704 12.445 4.52499 0.5
759 12.4919 8.82483 2.01067 0.5
760 7.08441 4.66014 4.21406 0.5
761 3.33219 11.3943 0.588534 0.5
762 13.3304 2.62442 0.174796 0.5
763 11.7589 0.681356 2.98592 0.5
764 8.90531 9.46073 3.50553 0.5
765 12.4067 2.85695 0.273225 0.5
766 7.78471 3.22522 4.93613 0.5
767 3.63259 6.87637 1.46894 0.5
768 12.9251 13.1444 10.6447 0.5
769 11.3108 2.14401 6.0272 0.5
770 10.8413 8.02403 6.29803 0.5
771 8.1519 7.7099 6.27234 0.5
772 1.10029 1.80827 10.7399 0.5
773 8.99075 3.86974 8.07955 0.5
774 9.41532 0.228936 3.01 0.5
775 10.4773 13.4507 11.2675 0.5
776 3.09031 9.12338 6.80376 0.5
777 11.3279 12.7237 3.7968 0.5
778 11.859 12.32 3.07792 0.5
779 8.2269 7.17239 5.40358 0.5
780 3.29838 11.4876 8.20241 0.5
781 12.9097 1.06664 5.66687 0.5
782 11.1116 3.2008 4.34287 0.5
783 0.101866 9.08623 12.038 0.5
784 2.79164 2.51037 4.53975 0.5
785 10.2163 9.56178 5.20094 0.5
786 8.50237 3.67514 4.56351 0.5
787 6.06478 12.4846 2.66085 0.5
788 11.7498 7.6173 11.1696 0.5
789 9.21973 3.75256 2.47331 0.5
790 8.45443 0.487095 2.81465 0.5
791 5.04528 7.28364 12.2398 0.5
792 5.85078 2.5804 7.26922 0.5
793 7.26933 8.46218 4.1257 0.5
794 12.7772 1.05639 2.97707 0.5
795 7.83145 7.73579 4.6395 0.5
796 4.96239 11.5531 9.38565 0.5
797 3.73144 4.14349 11.3764 0.5
798 2.85859 3.48856 4.21452 0.5
799 0.103355 0.697222 5.13242 0.5
800 0.143086 7.98178 0.447735 0.5
801 7.87067 5.4844 2.86987 0.5
802 4.9559 11.0954 13.1898 0.5
803 11.1254 10.8311 11.2453 0.5
804 0.231117 5.81661 8.81424 0.5
805 8.98842 8.84875 2.61998 0.5
806 2.66016 7.60721 8.73602 0.5
807 3.0891 4.64313 7.97484 0.5
808 2.23706 9.11412 3.69507 0.5
809 9.1168 5.25902 10.9802 0.5
810 2.93006 11.8753 11.3956 0.5
811 10.1168 7.2098 3.25614 0.5
812 2.25074 8.24176 11.6268 0.5
813 8.04518 5.62694 12.8361 0.5
814 9.33789 0.486809 6.0678 0.5
815 11.899 11.8246 8.39281 0.5
816 9.34487 7.2411 13.4923 0.5
817 12.0002 11.2952 3.2121 0.5
818 3.37185 10.3779 0.766558 0.5
819 6.51095 13.2014 6.60554 0.5
820 13.3598 12.75 8.97009 0.5
821 11.1199 2.70242 5.26314 0.5
822 9.13741 1.21057 5.26031 0.5
823 10.0155 0.278882 10.3325 0.5
824 1.86168 8.45311 5.80354 0.5
825 7.82816 0.985136 2.10519 0.5
826 7.39629 13.4402 8.19377 0.5
827 10.9741 0.497703 1.21283 0.5
828 5.06338 3.68792 2.61085 0.5
829 4.90916 2.07135 7.66168 0.5
830 5.5875 12.1148 8.91009 0.5
831 11.1377 13.2763 7.74417 0.5
832 0.283586 5.75593 10.8903 0.5
833 2.11963 11.5496 10.8389 0.5
834 9.45994 1.89357 13.3144 0.5
835 0.930394 5.91805 11.728 0.5
836 7.81372 9.12716 11.1375 0.5
837 6.84177 2.83495 0.290316 0.5
838 12.8789 13.1771 11.6747 0.5
839 4.64261 5.33788 2.16973 0.5
840 7.4822 13.0568 0.119827 0.5
841 7.12656 10.7201 6.56154 0.5
842 12.5714 3.55438 10.5388 0.5
843 12.3669 2.97093 12.0607 0.5
844 5.13976 3.52559 12.8172 0.5
845 9.99993 5.82646 5.47831 0.5
846 5.97568 12.5729 10.4849 0.5
847 4.45057 7.47404 6.96902 0.5
848 5.11052 6.54854 12.8538 0.5
849 0.870607 12.3124 6.73397 0.5
850 10.4796 10.3335 12.0376 0.5
851 6.55493 9.90357 6.3697 0.5
852 7.30805 10.0009 7.33872 0.5
853 4.30991 7.59121 9.51931 0.5
854 9.83719 6.57114 3.8575 0.5
855 9.75588 10.7012 2.80546 0.5
856 1.91674 0.0696896 3.71246 0.5
857 9.92492 5.092 10.4013 0.5
858 7.67895 10.1456 8.35742 0.5
859 11.5136 5.13794 5.12641 0.5
860 10.686 4.92452 5.71324 0.5
861 11.049 13.1812 6.02684 0.5
862 11.1406 7.27415 10.5427 0.5
863 8.34995 8.15978 5.45883 0.5
864 8.31792 7.01619 7.82626 0.5
865 12.0421 3.99444 12.1763 0.5
866 5.61715 13.0177 2.017 0.5
867 12.5301 4.31031 13.0329 0.5
868 9.02695 9.35945 9.04843 0.5
869 4.37936 0.138156 12.7708 0.5
870 3.6889 8.2515 6.91057 0.5
871 12.7062 9.05938 4.5751 0.5
872 0.928235 5.58066 13.3923 0.5
873 13.0911 0.848618 1.93256 0.5
874 7.40579 4.9737 12.3817 0.5
875 7.34135 11.6928 4.16788 0.5
876 2.24787 5.94625 8.50879 0.5
877 10.6888 8.18818 7.311 0.5
878 2.41584 11.6373 0.444536 0.5
879 1.34994 3.5801 7.79687 0.5
880 12.1503 1.14822 2.14735 0.5
881 10.9489 10.3227 13.0076 0.5
882 1.936 10.0371 3.99701 0.5
883 11.155 12.1554 0.145676 0.5
884 13.0479 3.52559 13.4896 0.5
885 7.09699 10.8733 10.8177 0.5
886 13.5027 2.99744 7.27634 0.5
887 0.217295 0.0920256 12.1159 0.5
888 4.85903 4.43264 1.92377 0.5
889 11.2214 4.80893 8.85628 0.5
890 11.4504 8.79249 5.94451 0.5
891 1.68509 6.58254 3.39976 0.5
892 9.49447 0.735891 9.58725 0.5
893 9.69323 4.43464 8.64742 0.5
894 7.62962 7.6724 1.18361 0.5
895 11.8362 8.8883 1.14657 0.5
896 7.0802 12.2356 0.567021 0.5
897 6.5917 13.0439 3.21236 0.5
898 5.06269 12.6041 2.75181 0.5
899 10.4832 5.11043 8.3848 0.5
900 11.6704 10.786 9.65754 0.5
901 13.0925 5.328 10.2114 0.5
902 11.0252 6.49949 7.56559 0.5
903 9.78268 8.92574 3.21772 0.5
904 8.3851 3.73301 5.55636 0.5
905 13.108 6.9451 5.98704 0.5
906 12.8453 5.19782 3.62432 0.5
907 6.71882 3.55557 10.1813 0.5
908 8.70829 0.3504 5.31796 0.5
909 10.1408 3.45992 2.97764 0.5
910 7.53443 3.12959 7.49357 0.5
911 5.87864 7.12781 12.8571 0.5
912 8.52019 9.51527 11.5475 0.5
913 11.479 5.61507 12.9406 0.5
914 5.25053 13.1529 12.9399 0.5
915 7.88002 2.21549 5.16335 0.5
916 10.7619 9.07537 6.66292 0.5
917 12.1238 0.015808 12.068 0.5
918 7.66589 6.73862 8.56095 0.5
919 12.8636 11.8727 1.47823 0.5
920 0.375865 11.7596 10.5305 0.5
921 5.56346 6.07796 7.43672 0.5
922 12.3335 2.66302 11.0431 0.5
923 0.544227 2.13223 7.57657 0.5
924 11.4323 11.4429 10.3973 0.5
925 10.8539 3.62144 2.25285 0.5
926 4.92553 10.4843 0.397657 0.5
927 2.03212 7.55491 6.06011 0.5
928 0.331972 6.3625 5.87416 0.5
929 1.36429 2.80432 10.4988 0.5
930 10.0499 9.71819 9.19751 0.5
931 5.04777 9.53836 12.5466 0.5
932 4.1158 8.49755 3.73397 0.5