ITEM: TIMESTEP
840000
ITEM: NUMBER OF ATOMS
1000
ITEM: BOX BOUNDS xy xz yz pp pp pp
0.0000000000000000e+00 1.3572088000000001e+01 0.0000000000000000e+00
0.0000000000000000e+00 1.3572088000000001e+01 0.0000000000000000e+00
0.0000000000000000e+00 1.3572088000000001e+01 0.0000000000000000e+00
ITEM: ATOMS id x y z radius
1 4.2263 3.47152 12.197 0.5
2 4.61396 11.4433 4.17181 0.5
3 9.08539 10.4095 2.99727 0.5
4 10.413 5.69146 1.33724 0.5
5 8.97289 7.70297 10.1931 0.5
6 3.39726 12.9496 5.66932 0.5
7 2.93333 9.15567 1.06705 0.5
8 12.4185 11.5916 2.29162 0.5
9 1.82082 8.35216 6.65623 0.5
10 3.30231 13.4946 11.7659 0.5
11 0.457324 9.06419 9.25365 0.5
12 10.2248 5.9466 0.356707 0.5
13 7.46365 11.5942 4.48659 0.5
14 10.7221 2.42225 4.13345 0.5
15 6.22464 0.98158 4.56494 0.5
16 7.4166 6.58124 9.42008 0.5
17 6.39855 11.6889 10.4197 0.5
18 2.89393 8.25656 6.34867 0.5
19 10.893 4.71131 1.38582 0.5
20 10.7421 12.3461 3.3282 0.5
21 2.07351 4.67154 1.24075 0.5
22 1.00672 6.21308 12.3114 0.5
23 1.63547 1.92093 9.66476 0.5
24 7.81059 7.49839 1.90398 0.5
25 1.11606 6.23119 2.48445 0.5
26 10.6077 10.6232 5.8139 0.5
27 11.6308 6.05143 10.7937 0.5
28 5.29408 11.3752 11.4567 0.5
29 12.9876 5.79808 1.38193 0.5
30 8.58373 11.2503 1.47456 0.5
31 1.02489 0.121946 7.91887 0.5
32 9.04516 2.85261 12.7465 0.5
33 13.2014 5.97292 9.53594 0.5
34 3.74596 8.6295 5.93644 0.5
35 12.3478 6.47712 13.5236 0.5
36 8.47029 2.17238 5.01696 0.5
37 0.226078 1.0354 2.35345 0.5
38 2.65005 1.49804 2.38477 0.5
39 10.2112 3.96126 1.07531 0.5
40 5.9464 5.8998 5.89196 0.5
41 6.96352 11.1817 5.15918 0.5
42 7.26753 5.32421 3.17242 0.5
43 5.9704 4.33881 9.91812 0.5
44 4.29076 11.1382 8.16504 0.5
45 7.60633 6.485 1.80508 0.5
46 10.6034 10.6213 13.3636 0.5
47 2.9263 9.18867 5.58377 0.5
48 8.13915 10.8124 0.56797 0.5
49 6.3906 12.1829 9.53743 0.5
50 5.32653 0.650027 11.4469 0.5
51 13.3097 9.59219 7.40608 0.5
52 6.46776 10.1575 7.48165 0.5
53 9.44217 3.96826 1.84124 0.5
54 11.5642 11.845 3.68891 0.5
55 0.235792 0.435801 4.48873 0.5
56 13.1957 3.20257 3.9233 0.5
57 0.752721 10.9101 11.9362 0.5
58 5.51284 8.45848 10.464 0.5
59 2.12475 10.9081 11.0804 0.5
60 7.15918 5.03504 8.93271 0.5
61 4.28552 0.503431 11.399 0.5
62 0.787039 8.02629 0.613383 0.5
63 11.6068 8.83081 2.18986 0.5
64 11.7097 1.89167 9.57924 0.5
65 0.376418 1.67488 5.54251 0.5
66 12.3646 1.27718 1.68627 0.5
67 8.2482 2.20518 8.50365 0.5
68 2.74752 0.962809 3.27854 0.5
69 11.1356 2.24542 10.5087 0.5
70 12.5196 3.28528 10.1256 0.5
71 3.65475 6.15212 8.10891 0.5
72 7.27985 2.21426 11.314 0.5
73 8.25856 6.75799 8.86878 0.5
74 6.213 4.64597 9.02697 0.5
75 9.06966 0.273198 10.3103 0.5
76 12.0745 3.53219 13.2832 0.5
77 10.2136 3.09985 3.47411 0.5
78 8.56056 2.98456 5.64411 0.5
79 4.31237 12.4027 5.82901 0.5
80 4.88651 2.25378 8.595 0.5
81 1.78102 3.49436 11.5858 0.5
82 1.366 8.92032 0.424719 0.5
83 3.42517 0.374474 6.00576 0.5
84 0.146468 8.31583 8.5188 0.5
85 13.4066 4.00887 6.55029 0.5
86 2.60585 1.68327 13.014 0.5
87 4.37962 5.48687 5.68346 0.5
88 6.78771 6.09398 3.62345 0.5
89 11.8387 12.7019 7.72246 0.5
90 4.07469 6.35362 4.19634 0.5
91 12.0547 6.71431 11.4222 0.5
92 13.3835 1.50802 1.58635 0.5
93 13.1847 0.655791 11.9684 0.5
94 4.72438 10.4209 12.6793 0.5
95 11.6223 1.79512 7.97021 0.5
96 11.6668 2.50197 4.42172 0.5
97 11.7532 2.72355 5.37369 0.5
98 11.0595 9.76354 13.5287 0.5
99 6.69793 8.8438 9.46834 0.5
100 0.6392 7.26926 6.23776 0.5
101 4.51144 11.345 2.29212 0.5
102 9.07941 6.96072 9.52116 0.5
103 4.38251 4.66556 10.9459 0.5
104 7.40095 11.3033 6.07521 0.5
105 11.8262 12.5617 6.68789 0.5
106 5.75009 1.47388 11.0373 0.5
107 12.8991 5.58897 6.51851 0.5
108 13.1064 10.735 5.67571 0.5
109 1.12856 12.3207 8.83047 0.5
110 8.36788 9.25923 8.5077 0.5
111 8.05585 0.270729 3.42497 0.5
112 5.60872 0.460954 5.00669 0.5
113 0.504425 0.164675 6.11279 0.5
114 7.92305 6.7903 2.70883 0.5
115 5.56338 6.6975 12.0232 0.5
116 12.6626 5.32737 2.28119 0.5
117 13.4427 0.964103 5.98205 0.5
118 11.4454 10.2341 5.65448 0.5
119 12.3861 8.37705 1.76529 0.5
120 5.72365 9.21707 3.84479 0.5
121 12.2478 12.9376 10.5655 0.5
122 1.82225 3.34933 2.29714 0.5
123 11.6515 2.43676 8.80164 0.5
124 10.3624 10.9456 11.4588 0.5
125 4.60539 11.9295 3.2632 0.5
126 11.1838 11.3802 13.0535 0.5
127 8.56105 10.6892 11.2525 0.5
128 4.99436 3.19646 8.46432 0.5
129 2.01053 6.38103 12.7663 0.5
130 0.776212 11.916 11.4408 0.5
131 7.98998 2.79445 2.22661 0.5
132 5.36868 11.4962 2.83557 0.5
133 1.07415 11.0338 10.9195 0.5
134 11.4812 12.0864 2.72268 0.5
135 12.2561 2.55271 6.21396 0.5
136 6.95336 4.69772 4.70479 0.5
137 3.51181 12.3334 6.45803 0.5
138 7.31107 12.3436 12.877 0.5
139 5.10625 13.4846 0.833195 0.5
140 4.50456 3.57299 3.32586 0.5
141 1.5145 3.34361 4.13566 0.5
142 9.87004 3.47827 12.5488 0.5
143 0.256959 12.328 0.0337264 0.5
144 8.7793 12.9777 8.83319 0.5
145 6.9718 7.11354 2.16912 0.5
146 10.1252 8.66469 8.43659 0.5
147 4.76668 7.03942 0.179541 0.5
148 12.601 0.132366 11.1939 0.5
149 8.14943 7.23958 9.82908 0.5
150 12.4244 11.4055 3.84059 0.5
151 6.84055 12.5647 10.2728 0.5
152 3.9074 3.93027 11.385 0.5
153 11.6109 7.80387 7.49082 0.5
154 2.05405 2.39462 2.30535 0.5
155 2.43279 7.70229 10.6144 0.5
156 8.13244 12.4172 13.5621 0.5
157 1.25426 0.22092 2.94651 0.5
158 1.52102 9.82816 8.40673 0.5
159 3.62311 1.8076 9.97473 0.5
160 9.4663 0.0788366 11.2899 0.5
161 12.2365 2.33321 10.3936 0.5
162 7.85246 2.04121 9.62287 0.5
163 11.652 9.89583 0.867341 0.5
164 8.94278 3.51997 11.0729 0.5
165 7.03046 10.9034 10.6275 0.5
166 11.0408 12.927 7.22448 0.5
167 10.7553 8.30591 7.6452 0.5
168 0.648642 3.4524 7.00156 0.5
169 10.3816 10.9392 12.485 0.5
170 3.80982 6.69364 0.315623 0.5
171 11.2185 5.43925 0.548727 0.5
172 12.7657 8.30265 11.4295 0.5
173 9.26656 10.486 1.92177 0.5
174 5.05204 1.66559 0.595213 0.5
175 2.33493 6.42214 4.07423 0.5
176 3.75268 6.00158 3.24221 0.5
177 8.11696 4.8947 6.25848 0.5
178 4.96337 1.82021 3.99135 0.5
179 13.1119 6.27703 2.25614 0.5
180 9.44777 2.89109 11.8783 0.5
181 11.0099 10.9601 9.50671 0.5
182 2.79813 12.3281 1.03463 0.5
183 8.65971 7.22929 6.4091 0.5
184 10.5304 5.65391 8.07563 0.5
185 8.51435 0.280492 11.179 0.5
186 4.96613 8.12829 2.8837 0.5
187 5.35584 0.796194 0.277998 0.5
188 5.122 5.67761 6.39087 0.5
189 1.02172 11.1123 6.26312 0.5
190 8.52417 13.0296 2.95757 0.5
191 10.0925 6.97482 3.11653 0.5
192 9.77574 0.930357 13.4538 0.5
193 10.8274 2.23748 9.51287 0.5
194 8.87054 12.9348 10.7488 0.5
195 13.4092 9.54832 12.7145 0.5
196 8.27496 1.20555 4.65769 0.5
197 2.84106 6.67653 8.20647 0.5
198 5.92371 6.22476 12.9296 0.5
199 11.8144 0.8989 8.35642 0.5
200 7.25324 7.10775 1.15847 0.5
201 12.8278 4.14188 7.30073 0.5
202 5.53979 13.3251 8.65792 0.5
203 1.56057 3.84296 1.50034 0.5
204 3.45195 8.14014 9.11015 0.5
205 10.8585 13.4808 4.70938 0.5
206 0.700465 1.72278 9.18425 0.5
207 4.27699 11.7252 9.00999 0.5
208 8.45475 3.96088 6.05973 0.5
209 5.3494 2.53576 4.48205 0.5
210 4.2304 6.58653 5.27069 0.5
211 4.058 4.90199 10.0765 0.5
212 3.20256 5.82375 4.09494 0.5
213 3.40489 1.22456 5.47659 0.5
214 9.82976 3.68089 11.4496 0.5
215 8.2041 7.01175 1.04537 0.5
216 6.62782 8.91543 0.10943 0.5
217 3.64921 11.7987 4.38811 0.5
218 6.88746 8.36406 4.73392 0.5
219 8.73358 0.949121 3.69129 0.5
220 7.34286 1.67916 10.3496 0.5
221 3.22143 3.07345 6.08844 0.5
222 6.53242 11.8476 5.74951 0.5
223 4.85872 9.06145 3.3211 0.5
224 12.5436 9.32952 4.07138 0.5
225 7.60452 10.9912 11.4989 0.5
226 10.4066 6.83456 0.191735 0.5
227 13.44 7.03343 9.6116 0.5
228 4.30195 11.6482 5.15615 0.5
229 5.27865 4.28263 7.04218 0.5
230 6.38501 9.58332 9.07627 0.5
231 7.86659 5.84685 8.9166 0.5
232 7.29408 4.75201 12.5271 0.5
233 1.19324 0.967266 9.46837 0.5
234 10.9298 2.12771 5.10616 0.5
235 1.64117 10.2383 3.2317 0.5
236 11.0607 6.31813 0.983317 0.5
237 5.45924 7.78366 6.3967 0.5
238 1.04213 12.8697 5.97595 0.5
239 9.34054 7.62959 3.68324 0.5
240 1.38726 4.90681 13.2668 0.5
241 3.666 6.47904 1.26914 0.5
242 3.23944 0.66416 2.43921 0.5
243 3.20114 9.86391 3.64099 0.5
244 4.05225 11.3931 6.10844 0.5
245 1.50284 11.3608 11.6589 0.5
246 9.98061 9.68416 8.32897 0.5
247 3.48046 0.223252 10.8851 0.5
248 7.00977 2.79101 2.45716 0.5
249 10.0814 1.5611 12.5834 0.5
250 10.2787 1.71885 13.4692 0.5
251 4.09707 10.2514 11.9739 0.5
252 8.4135 8.32891 12.4534 0.5
253 1.03125 8.84231 1.32152 0.5
254 9.88016 2.61729 2.55348 0.5
255 8.76242 9.73753 2.14314 0.5
256 1.33105 12.997 3.48897 0.5
257 0.205563 4.05326 7.60897 0.5
258 0.620865 6.17249 4.90387 0.5
259 4.89177 5.46902 10.3755 0.5
260 7.34211 11.7054 9.93708 0.5
261 10.6822 2.92624 5.70446 0.5
262 7.42855 12.0585 5.48574 0.5
263 1.95057 4.14597 8.50048 0.5
264 10.4591 10.3923 8.82426 0.5
265 1.67719 4.2366 4.45778 0.5
266 3.98342 13.1653 6.43936 0.5
267 5.39771 7.79826 8.94313 0.5
268 7.07126 2.57055 1.59488 0.5
269 9.64793 13.2966 8.83501 0.5
270 6.95533 10.0337 8.32865 0.5
271 11.2952 11.9208 7.30703 0.5
272 6.37066 9.44191 0.795618 0.5
273 7.52962 5.44374 4.12197 0.5
274 10.9281 5.78233 8.92369 0.5
275 2.6861 11.3487 1.08145 0.5
276 5.17271 2.62631 0.34259 0.5
277 7.33495 5.42117 13.1876 0.5
278 11.5787 10.6837 0.20425 0.5
279 9.1133 11.6137 5.707 0.5
280 4.99059 12.3076 2.30976 0.5
281 6.51412 2.08253 10.5892 0.5
282 0.400266 11.954 1.66646 0.5
283 5.00431 5.39337 1.44259 0.5
284 1.90975 11.0941 0.605678 0.5
285 3.78033 9.70526 5.95638 0.5
286 1.88584 1.9395 12.602 0.5
287 7.83849 7.34606 6.94198 0.5
288 6.37705 13.5247 6.88464 0.5
289 2.5044 10.6376 3.45367 0.5
290 0.0800888 12.8174 5.84288 0.5
291 6.20081 1.12002 5.54227 0.5
292 4.72612 2.98748 13.0175 0.5
293 11.1296 5.6312 4.37052 0.5
294 2.76856 9.98474 6.2104 0.5
295 2.62429 1.0187 5.92707 0.5
296 13.3427 4.79087 7.11773 0.5
297 10.7563 10.1355 10.8848 0.5
298 9.8718 4.4993 12.1597 0.5
299 1.79529 1.03023 13.0558 0.5
300 9.90248 4.84103 1.6356 0.5
301 6.25868 7.12976 11.4482 0.5
302 3.35144 9.33146 2.76063 0.5
303 12.0481 9.22344 3.08779 0.5
304 0.93993 7.14799 5.24369 0.5
305 8.29555 13.1628 8.0096 0.5
306 11.486 8.34249 1.24307 0.5
307 2.38685 6.98829 3.08989 0.5
308 0.773473 9.85154 12.2344 0.5
309 12.8824 0.498088 12.825 0.5
310 8.13327 0.203295 4.45385 0.5
311 13.507 6.53176 6.39533 0.5
312 7.25497 11.8209 10.912 0.5
313 1.31443 9.70822 4.05405 0.5
314 6.32648 13.1986 9.42852 0.5
315 12.406 6.04178 3.04536 0.5
316 8.05594 6.15143 7.984 0.5
317 13.3153 8.70194 4.00703 0.5
318 0.307056 5.61057 6.6357 0.5
319 10.9471 11.4329 0.467082 0.5
320 4.89018 3.42305 7.46163 0.5
321 2.47117 12.8321 3.76995 0.5
322 10.7759 0.185718 1.14316 0.5
323 3.5191 1.56198 2.9004 0.5
324 10.715 3.16467 2.63572 0.5
325 1.58667 5.33931 0.521584 0.5
326 10.0188 13.179 1.09354 0.5
327 8.35082 2.8716 9.29104 0.5
328 12.9039 5.7301 0.347514 0.5
329 8.62646 2.70583 7.70721 0.5
330 8.02672 1.39572 5.61643 0.5
331 5.65488 2.47337 3.50144 0.5
332 12.1639 1.65429 8.80948 0.5
333 12.9354 1.37815 2.50508 0.5
334 4.4648 6.3157 1.78032 0.5
335 9.06551 0.471682 4.60235 0.5
336 4.32479 1.98611 9.33352 0.5
337 12.1608 0.372975 11.9608 0.5
338 7.3621 5.58241 9.72544 0.5
339 10.4465 4.05928 2.11858 0.5
340 11.8617 3.30327 11.6356 0.5
341 8.98304 0.328397 9.21488 0.5
342 6.51677 0.93004 6.66353 0.5
343 6.79178 5.89885 8.99177 0.5
344 5.46335 6.63216 6.43407 0.5
345 9.0769 7.98608 5.89757 0.5
346 1.4786 6.85224 6.00633 0.5
347 12.93 11.836 1.46243 0.5
348 1.32333 4.22601 0.588591 0.5
349 7.81463 6.4792 6.42423 0.5
350 8.31538 7.44893 10.9877 0.5
351 2.15614 8.61508 11.1507 0.5
352 8.59686 12.5076 7.24253 0.5
353 9.53542 6.6287 0.257943 0.5
354 2.42369 2.77275 5.67329 0.5
355 1.74535 6.36483 3.29251 0.5
356 11.1684 12.5328 4.23329 0.5
357 6.40008 11.3626 4.15969 0.5
358 3.38839 0.791235 9.97172 0.5
359 7.43462 9.42626 8.94902 0.5
360 12.4836 3.5065 6.54482 0.5
361 3.37367 1.26834 6.58198 0.5
362 1.57398 1.43613 8.75121 0.5
363 10.1738 12.1832 0.481273 0.5
364 3.25999 8.34241 0.555632 0.5
365 2.01373 8.88447 1.37021 0.5
366 6.70043 8.93914 8.53867 0.5
367 10.1882 11.4775 13.3891 0.5
368 5.44559 5.04482 9.65278 0.5
369 1.92226 3.44332 5.0663 0.5
370 0.444175 10.4027 5.94811 0.5
371 8.82485 13.4265 3.86549 0.5
372 0.0901547 3.81747 3.34366 0.5
373 4.8853 3.58122 0.281492 0.5
374 0.723086 9.45113 13.2395 0.5
375 0.679708 9.97639 8.92608 0.5
376 1.77486 10.6016 4.23935 0.5
377 6.58714 5.15339 3.85575 0.5
378 6.13088 9.65006 13.327 0.5
379 4.0448 5.47766 1.39276 0.5
380 7.58319 4.40713 13.5757 0.5
381 9.8672 3.46496 8.55149 0.5
382 9.16668 3.49486 8.04504 0.5
383 2.20704 4.60273 0.265951 0.5
384 5.76642 10.022 12.4468 0.5
385 13.2488 11.118 2.00525 0.5
386 0.0702844 4.07029 4.31157 0.5
387 1.62429 7.09484 12.0752 0.5
388 0.87494 2.46818 9.97539 0.5
389 2.87869 9.3145 11.3786 0.5
390 4.91526 4.42666 10.1892 0.5
391 8.12861 1.24144 1.77827 0.5
392 12.5428 5.0772 3.36672 0.5
393 2.85778 4.7218 8.90195 0.5
394 9.3073 9.17789 7.83356 0.5
395 1.61916 0.350384 8.71866 0.5
396 0.0974084 2.06473 2.412 0.5
397 8.01993 2.11865 1.38546 0.5
398 9.00283 12.0894 3.1656 0.5
399 0.898276 4.13217 3.85903 0.5
400 7.39567 9.13584 5.01499 0.5
401 9.88274 2.51606 12.7814 0.5
402 4.88266 7.23862 5.85598 0.5
403 5.81504 0.601866 8.21367 0.5
404 11.1732 11.1179 12.0391 0.5
405 12.128 6.05765 0.754553 0.5
406 6.91218 3.33431 0.96726 0.5
407 1.64793 11.1894 3.40407 0.5
408 2.51776 3.78143 5.92021 0.5
409 3.36191 4.63806 10.7807 0.5
410 10.7807 2.31688 3.18158 0.5
411 4.43738 6.08821 0.774456 0.5
412 5.33879 0.852492 1.25846 0.5
413 2.81157 5.79575 7.70036 0.5
414 3.04385 8.30908 11.2521 0.5
415 7.9933 10.1971 11.8292 0.5
416 9.02793 10.6785 5.41539 0.5
417 0.77861 13.3686 8.85014 0.5
418 10.1609 0.43611 10.6545 0.5
419 2.52653 0.0522012 11.1185 0.5
420 3.5955 0.340369 7.08554 0.5
421 13.2716 4.94202 9.44026 0.5
422 7.75376 4.46103 5.45215 0.5
423 11.2708 0.655244 4.09296 0.5
424 2.94225 3.39083 5.11068 0.5
425 9.3595 7.19308 11.1133 0.5
426 0.707185 12.7659 8.07348 0.5
427 7.86847 3.09415 1.14962 0.5
428 1.04941 8.34308 8.93353 0.5
429 11.4479 5.84576 8.08675 0.5
430 8.74201 13.0353 11.7483 0.5
431 2.31063 4.95707 8.09801 0.5
432 12.7121 2.15019 2.08631 0.5
433 7.73933 11.5601 13.4007 0.5
434 0.101177 3.58028 0.0344199 0.5
435 11.0462 9.2587 1.35861 0.5
436 6.42663 5.32169 9.72542 0.5
437 4.38335 9.0505 6.55251 0.5
438 5.35168 2.68129 7.64803 0.5
439 11.3203 10.39 10.2126 0.5
440 9.73591 10.8669 6.17636 0.5
441 5.73335 0.467149 6.23156 0.5
442 1.45148 7.49248 6.72093 0.5
443 0.842569 12.3686 0.890553 0.5
444 8.92921 9.09384 12.9182 0.5
445 5.39927 8.26572 3.76839 0.5
446 3.22799 6.60661 4.7621 0.5
447 2.31224 9.19481 6.3737 0.5
448 5.62165 9.89612 0.529725 0.5
449 3.15776 12.8182 11.0778 0.5
450 2.83689 2.20132 1.71157 0.5
451 7.44614 4.12641 0.95339 0.5
452 2.32428 8.74802 0.450602 0.5
453 5.05155 9.00264 2.3332 0.5
454 2.92647 13.5592 3.12991 0.5
455 1.56309 2.48326 11.6657 0.5
456 9.10179 0.187315 8.19678 0.5
457 12.4093 11.1903 8.6806 0.5
458 4.27649 0.333265 10.4356 0.5
459 11.4806 3.17692 6.20795 0.5
460 12.9528 6.62638 0.701195 0.5
461 12.1548 7.63787 11.9531 0.5
462 9.60389 4.36039 8.41478 0.5
463 4.76234 2.73935 6.89868 0.5
464 0.112387 8.06791 9.51584 0.5
465 5.03971 10.4418 11.715 0.5
466 3.05568 13.2848 6.47075 0.5
467 1.68011 8.11748 0.946363 0.5
468 0.496068 7.37862 8.81187 0.5
469 2.14643 2.97625 10.9553 0.5
470 1.76944 6.16413 11.7998 0.5
471 3.81478 1.19086 10.7836 0.5
472 10.8834 6.60562 4.55844 0.5
473 11.6847 8.6698 7.043 0.5
474 3.78124 7.21225 8.63489 0.5
475 4.78845 3.62568 6.38786 0.5
476 6.05608 1.1906 11.9298 0.5
477 6.00769 8.13638 9.68735 0.5
478 3.21651 12.5278 0.193365 0.5
479 8.96542 7.32485 12.7737 0.5
480 4.12642 10.1391 8.62977 0.5
481 2.31553 3.73393 0.81611 0.5
482 10.8401 13.0371 0.480385 0.5
483 8.90543 11.2739 2.41797 0.5
484 10.0515 7.02224 4.13186 0.5
485 5.26138 4.76031 2.30279 0.5
486 3.70614 11.0006 9.02018 0.5
487 4.07219 2.8329 8.81254 0.5
488 5.82107 4.97563 6.34487 0.5
489 3.71625 0.50755 3.23526 0.5
490 0.175492 12.4143 8.84656 0.5
491 2.46346 6.87874 11.9944 0.5
492 0.680604 5.33082 12.6648 0.5
493 12.314 8.46813 12.4113 0.5
494 6.9138 4.8989 0.458521 0.5
495 6.85324 7.91026 0.572262 0.5
496 6.69743 0.230305 0.0383064 0.5
497 5.7596 4.04454 6.13403 0.5
498 3.40262 11.9254 5.53693 0.5
499 6.24022 2.2561 11.5091 0.5
500 10.8086 9.59089 5.81252 0.5
501 5.93645 1.79352 4.02656 0.5
502 9.63204 10.0784 9.2187 0.5
503 6.89034 6.33857 12.9798 0.5
504 1.7877 1.78322 0.0365446 0.5
505 4.73139 3.9871 12.8616 0.5
506 3.58808 11.7206 1.42111 0.5
507 8.0202 4.61142 4.42855 0.5
508 13.2917 1.13847 5.01285 0.5
509 5.29967 5.21258 5.43932 0.5
510 7.7423 10.2059 10.8909 0.5
511 5.80103 0.591843 7.22057 0.5
512 9.91877 11.8554 2.85909 0.5
513 4.3704 4.50044 2.8451 0.5
514 6.22806 8.50335 1.03434 0.5
515 2.42747 9.7569 2.90364 0.5
516 5.88025 8.78226 2.9977 0.5
517 0.9099 3.78795 4.87417 0.5
518 3.34064 6.4905 9.03047 0.5
519 5.24434 7.61417 9.94323 0.5
520 2.39823 0.947255 0.173583 0.5
521 10.7993 5.91956 5.32048 0.5
522 2.57995 8.59606 12.02 0.5
523 13.1977 8.05271 3.22088 0.5
524 13.3399 0.145691 5.37322 0.5
525 11.3707 8.99563 0.454826 0.5
526 8.49248 12.1737 8.26915 0.5
527 7.68487 10.8689 1.41709 0.5
528 1.82635 0.184895 13.58 0.5
529 13.4899 12.6326 1.12197 0.5
530 11.62 2.95294 9.749 0.5
531 11.758 8.43266 11.535 0.5
532 6.51397 9.14598 4.45199 0.5
533 6.09218 7.64561 10.5115 0.5
534 2.52039 12.8756 11.8747 0.5
535 8.00767 13.0697 12.647 0.5
536 1.93418 12.1817 3.29243 0.5
537 2.1126 10.2137 9.12549 0.5
538 8.46491 10.1976 1.24608 0.5
539 1.57385 7.26624 3.69476 0.5
540 0.387448 3.17468 7.91346 0.5
541 4.55102 11.9454 1.41046 0.5
542 7.58366 0.466517 12.9738 0.5
543 13.403 5.82588 5.63293 0.5
544 8.21859 3.25378 8.33916 0.5
545 1.55998 7.1112 2.63596 0.5
546 0.933568 0.582126 13.0741 0.5
547 10.514 5.05407 4.95153 0.5
548 11.9469 13.4681 7.05252 0.5
549 12.0197 10.2478 8.55644 0.5
550 11.7275 13.3831 4.24433 0.5
551 7.20121 1.57377 1.48799 0.5
552 4.07182 7.71902 0.255245 0.5
553 10.9471 6.30007 7.41271 0.5
554 3.57723 12.9527 7.3095 0.5
555 0.53007 3.28524 4.0539 0.5
556 6.91256 13.3106 12.6948 0.5
557 7.18661 11.3174 0.66972 0.5
558 4.3021 1.09725 9.81271 0.5
559 3.15536 10.1825 9.00642 0.5
560 6.66787 3.02954 11.1088 0.5
561 8.25743 8.54812 11.4369 0.5
562 12.88 2.8473 13.3718 0.5
563 8.46396 6.5343 7.05884 0.5
564 6.41715 5.59671 0.0364261 0.5
565 8.74326 4.71569 5.33369 0.5
566 6.78224 1.38608 11.1633 0.5
567 12.8032 4.14024 3.74009 0.5
568 6.83182 1.74436 12.0946 0.5
569 11.4445 6.94532 10.6149 0.5
570 13.2696 8.4669 2.31162 0.5
571 2.2625 0.584295 2.71512 0.5
572 4.57042 2.09013 13.3781 0.5
573 0.693279 13.3486 5.13738 0.5
574 9.57912 7.81961 2.66478 0.5
575 8.15534 0.262701 2.37683 0.5
576 3.41465 10.6966 8.14659 0.5
577 4.07655 8.66644 2.75119 0.5
578 1.83407 12.0159 0.928277 0.5
579 0.0305247 9.47571 11.7316 0.5
580 2.78763 4.8801 7.3086 0.5
581 1.63081 13.033 8.3281 0.5
582 2.14884 12.7578 10.8566 0.5
583 2.83209 10.8622 0.29085 0.5
584 10.1734 5.98503 4.5729 0.5
585 13.4396 4.86333 6.07567 0.5
586 0.525723 5.48709 9.59388 0.5
587 12.6828 3.10695 1.51059 0.5
588 12.9017 12.1985 0.418182 0.5
589 13.508 9.39694 8.47633 0.5
590 3.45127 11.644 8.31767 0.5
591 4.62378 4.38321 11.9674 0.5
592 10.5453 10.9864 10.4306 0.5
593 6.29825 9.91987 6.52498 0.5
594 -0.019822 11.195 6.43237 0.5
595 13.2183 10.1729 6.53599 0.5
596 9.70736 9.71468 2.48012 0.5
597 2.35472 9.38216 8.83182 0.5
598 8.08683 11.2944 5.29425 0.5
599 11.4255 10.9426 8.63064 0.5
600 10.8783 5.47713 11.1185 0.5
601 2.6868 5.98726 3.23465 0.5
602 0.358442 6.23536 10.1968 0.5
603 3.0228 7.23472 11.2025 0.5
604 4.83628 1.10923 10.7709 0.5
605 7.01041 2.77305 12.0291 0.5
606 12.5355 9.36711 4.99052 0.5
607 9.04359 9.9894 8.37836 0.5
608 8.05964 0.286624 12.0586 0.5
609 1.04881 11.5661 0.235007 0.5
610 1.45656 9.31422 9.21368 0.5
611 0.871875 9.03807 8.3793 0.5
612 6.59975 12.7243 3.00583 0.5
613 3.72366 5.77773 4.96022 0.5
614 4.05942 13.1591 11.1936 0.5
615 3.97083 10.2399 9.65386 0.5
616 0.0312906 5.32066 2.05652 0.5
617 7.97176 5.75686 2.5699 0.5
618 10.9685 7.63921 8.39322 0.5
619 12.7686 3.67076 11.813 0.5
620 1.44302 10.3138 11.4982 0.5
621 2.49575 4.33238 5.15831 0.5
622 5.72517 8.82175 8.93416 0.5
623 12.9864 7.66655 4.11256 0.5
624 13.3059 5.55917 2.96694 0.5
625 1.77382 3.85988 10.6435 0.5
626 2.54295 3.87445 1.73396 0.5
627 10.043 6.58883 1.1015 0.5
628 13.0604 4.19662 10.1674 0.5
629 5.26277 4.16946 3.13718 0.5
630 3.07571 3.14643 1.18009 0.5
631 9.71479 1.49947 0.667456 0.5
632 6.53948 12.7791 13.4758 0.5
633 10.5921 1.04752 0.597656 0.5
634 10.4464 10.1142 9.90063 0.5
635 9.26794 1.98527 12.3321 0.5
636 9.04052 3.77726 12.0708 0.5
637 0.540245 10.5016 6.92052 0.5
638 5.36732 0.849444 4.01117 0.5
639 8.81363 6.76835 10.4361 0.5
640 2.14636 4.14811 7.551 0.5
641 7.74499 7.2651 5.94907 0.5
642 11.3956 6.32052 0.055073 0.5
643 10.9241 1.06534 7.93446 0.5
644 7.2734 2.67244 10.302 0.5
645 0.432829 11.363 5.5955 0.5
646 9.04507 8.83308 11.863 0.5
647 9.01629 4.84653 12.424 0.5
648 7.59179 9.3261 11.3421 0.5
649 5.99369 8.13914 11.282 0.5
650 2.70976 0.644083 6.79692 0.5
651 0.756507 6.52331 6.82734 0.5
652 5.84015 3.5693 7.73473 0.5
653 13.1636 4.61136 2.86258 0.5
654 3.40757 8.76654 12.155 0.5
655 11.5998 11.7071 9.22539 0.5
656 1.10195 11.4166 1.19237 0.5
657 11.0451 0.360007 7.02474 0.5
658 9.81657 10.0586 5.64706 0.5
659 1.78691 9.13334 3.363 0.5
660 0.790408 0.845205 8.55265 0.5
661 3.65901 7.25979 9.58451 0.5
662 4.13116 10.5977 5.47504 0.5
663 6.16254 12.3729 3.92083 0.5
664 5.08971 6.23664 5.55494 0.5
665 9.38991 11.2144 3.40473 0.5
666 5.4206 12.5817 9.29116 0.5
667 10.6196 4.03155 8.41478 0.5
668 5.38875 3.44362 3.83118 0.5
669 8.34175 10.6001 2.20454 0.5
670 9.24481 12.761 7.89199 0.5
671 7.18366 8.75226 0.861949 0.5
672 3.19717 2.35696 5.24214 0.5
673 5.60648 8.97788 0.391766 0.5
674 3.13327 7.76751 12.0851 0.5
675 3.74213 4.919 11.6984 0.5
676 2.07867 13.1089 2.82282 0.5
677 3.7564 9.06033 3.64704 0.5
678 13.0664 7.51166 8.79312 0.5
679 10.8286 12.37 6.4446 0.5
680 5.37278 11.5255 1.77143 0.5
681 3.69239 1.3161 9.05388 0.5
682 1.79294 2.98264 10.0716 0.5
683 1.63247 5.52074 12.5122 0.5
684 10.8752 13.373 3.70829 0.5
685 12.1383 12.3897 4.08274 0.5
686 11.3834 7.46942 11.4666 0.5
687 5.18748 9.68371 13.285 0.5
688 1.3897 7.8491 5.89157 0.5
689 2.86346 3.09427 2.18478 0.5
690 4.73795 8.13428 7.13643 0.5
691 13.4835 10.432 12.0811 0.5
692 4.4643 0.695465 0.764987 0.5
693 10.9932 6.51612 11.3166 0.5
694 5.89625 9.22445 9.81592 0.5
695 12.3952 8.42263 2.67986 0.5
696 10.0593 3.81148 7.60337 0.5
697 0.597078 9.99248 7.916 0.5
698 7.02568 10.6871 6.73236 0.5
699 2.61404 8.1263 1.12255 0.5
700 12.4411 8.41404 3.66899 0.5
701 9.41158 8.24749 12.6485 0.5
702 3.28876 2.19118 9.2216 0.5
703 2.25337 5.47843 13.218 0.5
704 9.12716 2.80038 8.68165 0.5
705 10.6596 7.2692 7.51508 0.5
706 6.45363 10.9203 6.06425 0.5
707 3.91078 5.57731 10.8561 0.5
708 12.6303 2.17599 1.17145 0.5
709 9.81139 0.624566 1.12456 0.5
710 7.06034 6.14564 2.68335 0.5
711 0.125688 1.08397 12.6902 0.5
712 12.4507 2.46304 9.3517 0.5
713 8.39999 9.61724 7.60964 0.5
714 12.5427 4.56628 6.4793 0.5
715 13.0793 9.11726 3.11143 0.5
716 1.58415 2.17089 10.7507 0.5
717 3.37867 7.36949 0.941018 0.5
718 11.8682 0.819265 7.38286 0.5
719 4.52741 11.1707 12.0145 0.5
720 12.9017 11.2148 2.98071 0.5
721 10.7552 6.61573 8.34535 0.5
722 5.75729 13.3952 0.0629034 0.5
723 3.26529 11.8069 9.4023 0.5
724 9.0425 13.0461 9.75924 0.5
725 2.49648 1.77923 5.37024 0.5
726 7.64785 2.56667 7.82069 0.5
727 4.22672 2.82406 0.170513 0.5
728 12.9447 1.86172 5.78459 0.5
729 10.3378 4.86966 0.62745 0.5
730 7.89323 5.69634 6.92878 0.5
731 10.2312 0.209059 0.316525 0.5
732 1.26705 2.89596 7.50741 0.5
733 8.05484 11.8048 0.751187 0.5
734 10.2456 11.5787 5.87522 0.5
735 3.34945 5.102 8.1278 0.5
736 3.99061 3.92824 10.3907 0.5
737 5.28252 3.08323 2.95636 0.5
738 2.04427 6.81097 11.1088 0.5
739 6.08191 13.3244 7.8411 0.5
740 12.3923 0.105152 7.9373 0.5
741 7.42828 3.82988 4.70737 0.5
742 5.63561 9.30622 1.381 0.5
743 7.50007 8.20575 5.58506 0.5
744 3.92824 3.52892 13.1894 0.5
745 6.47568 6.29617 12.0257 0.5
746 5.05814 8.59894 9.60678 0.5
747 13.5182 -0.00101357 11.2925 0.5
748 7.4957 9.25648 7.95642 0.5
749 6.59813 9.39148 3.50045 0.5
750 1.33676 0.958111 0.336552 0.5
751 13.3582 8.83705 13.274 0.5
752 1.03292 1.56896 13.0826 0.5
753 7.3063 2.41898 0.647171 0.5
754 1.64911 12.3665 11.6103 0.5
755 6.77171 3.94517 0.242269 0.5
756 6.92577 7.9689 1.64082 0.5
757 10.7105 6.23542 10.4172 0.5
758 4.02421 12.5711 4.9071 0.5
759 12.5932 9.29212 2.20752 0.5
760 7.28486 4.47696 3.79232 0.5
761 3.43344 11.6618 0.510968 0.5
762 13.2745 2.91615 0.687484 0.5
763 11.6776 0.308264 3.23877 0.5
764 8.90655 9.369 3.03518 0.5
765 12.2468 2.95234 0.558188 0.5
766 7.8317 2.92725 4.85453 0.5
767 4.44838 7.0813 1.02169 0.5
768 13.0764 13.4005 10.3778 0.5
769 11.2718 2.21011 6.13036 0.5
770 11.7888 7.89383 6.43353 0.5
771 8.25784 8.06847 6.31847 0.5
772 0.883527 1.52234 10.2509 0.5
773 8.90373 3.73123 9.04033 0.5
774 8.93622 0.434879 2.93631 0.5
775 9.67899 12.6935 11.467 0.5
776 3.27955 9.16645 6.55103 0.5
777 11.67 12.8491 3.41049 0.5
778 12.3403 12.1563 3.14429 0.5
779 8.29006 7.70809 5.36711 0.5
780 2.77306 11.0438 8.9574 0.5
781 0.529007 1.42898 4.54916 0.5
782 11.1534 3.14633 3.73756 0.5
783 0.564262 8.86595 12.4341 0.5
784 2.36614 2.68262 4.67454 0.5
785 10.5938 10.1298 4.97222 0.5
786 8.38783 3.78391 5.05942 0.5
787 6.31404 11.7517 3.23987 0.5
788 12.1682 7.59809 10.9956 0.5
789 9.79014 4.6561 2.62452 0.5
790 8.16241 1.07493 2.83321 0.5
791 5.54898 7.60399 12.0813 0.5
792 4.38476 2.65763 7.81778 0.5
793 7.33401 8.89252 3.94419 0.5
794 13.1931 0.479472 2.94451 0.5
795 7.96956 8.29838 4.64625 0.5
796 4.64582 10.8501 9.13901 0.5
797 3.78818 4.31441 12.4364 0.5
798 2.50302 3.71704 4.2876 0.5
799 0.598881 0.725916 5.35446 0.5
800 0.711968 8.55163 13.3695 0.5
801 7.82673 6.09366 3.43089 0.5
802 5.40219 11.0113 12.4225 0.5
803 11.3108 10.8524 11.0984 0.5
804 0.0439011 5.60959 8.73439 0.5
805 9.28271 8.75841 2.3142 0.5
806 2.8011 7.36549 8.98256 0.5
807 2.90175 4.15615 8.15027 0.5
808 2.74509 8.97243 3.51922 0.5
809 9.62406 5.34513 11.7121 0.5
810 2.45054 11.936 11.2868 0.5
811 10.9381 7.18536 3.58871 0.5
812 2.30386 7.75311 11.5974 0.5
813 7.38421 5.76983 12.2462 0.5
814 9.43746 0.355914 5.58567 0.5
815 11.7998 11.8726 8.24977 0.5
816 9.65047 7.60398 13.4603 0.5
817 11.8635 11.1709 3.05918 0.5
818 3.45704 10.7624 1.07573 0.5
819 6.66078 0.542773 7.63864 0.5
820 0.762119 11.6995 8.25846 0.5
821 11.0117 3.13022 4.81054 0.5
822 9.05277 1.2737 5.17564 0.5
823 9.79632 13.0268 10.5267 0.5
824 2.20377 8.47311 5.71454 0.5
825 7.40046 0.916154 2.2387 0.5
826 6.62601 0.0673406 8.55094 0.5
827 11.17 0.317395 0.134143 0.5
828 4.75948 3.81051 2.37735 0.5
829 3.943 1.95272 8.39535 0.5
830 6.21484 12.6726 8.66488 0.5
831 11.3757 0.03443 7.95862 0.5
832 0.665569 5.32469 10.6691 0.5
833 1.66109 11.8575 10.7829 0.5
834 9.3326 1.88913 13.3364 0.5
835 1.0058 5.34344 11.7098 0.5
836 9.20035 8.1672 11.0755 0.5
837 7.65778 3.35239 0.189008 0.5
838 12.9871 12.6916 11.1777 0.5
839 4.62861 5.48873 2.31246 0.5
840 7.4675 13.1587 13.5363 0.5
841 5.99564 10.8572 6.94839 0.5
842 12.3888 3.89646 10.9028 0.5
843 12.3451 2.96401 12.5216 0.5
844 3.91632 2.68496 12.6832 0.5
845 9.49784 5.16194 4.7373 0.5
846 5.89925 12.6256 10.2668 0.5
847 4.75536 7.25025 6.81684 0.5
848 5.30372 6.95294 12.846 0.5
849 0.565006 12.0334 6.35177 0.5
850 10.8458 10.1815 11.8123 0.5
851 6.57819 11.6674 6.72353 0.5
852 7.46896 10.123 7.39006 0.5
853 4.47082 7.70634 9.27417 0.5
854 10.5279 6.17902 3.72568 0.5
855 9.98273 10.8149 2.63162 0.5
856 2.04032 0.206896 3.56065 0.5
857 10.1255 4.72249 11.1407 0.5
858 7.95351 10.1267 8.27051 0.5
859 10.567 5.20408 5.94567 0.5
860 9.76649 4.77357 5.68844 0.5
861 11.3295 13.3228 6.32922 0.5
862 11.3111 8.01999 10.4925 0.5
863 8.353 8.74179 5.57681 0.5
864 8.15071 7.08313 7.93759 0.5
865 12.0603 3.94931 12.429 0.5
866 6.03012 12.0271 2.30902 0.5
867 12.2942 4.4988 13.2189 0.5
868 9.30013 9.14844 8.85222 0.5
869 4.39685 1.11647 13.5183 0.5
870 3.7966 8.31817 6.81958 0.5
871 12.7044 8.45916 4.72544 0.5
872 1.32371 5.95623 13.2732 0.5
873 13.0096 0.537315 1.86814 0.5
874 6.52317 5.47019 12.6046 0.5
875 6.67493 12.1587 4.82486 0.5
876 2.72041 5.71665 8.64511 0.5
877 10.8945 7.9692 6.77184 0.5
878 2.50511 11.7879 0.202508 0.5
879 1.19559 3.85338 7.82323 0.5
880 12.2518 0.606297 2.53008 0.5
881 11.2635 10.4196 12.6943 0.5
882 2.30582 9.76194 3.91141 0.5
883 10.8892 12.2699 13.427 0.5
884 12.7653 3.76201 0.349179 0.5
885 8.01901 11.1402 10.5304 0.5
886 13.2395 3.14001 7.1089 0.5
887 0.162175 0.0661379 12.7018 0.5
888 4.43966 4.66798 1.8735 0.5
889 11.0902 4.92922 8.43428 0.5
890 11.6826 9.61487 6.4701 0.5
891 2.1153 6.29485 2.39988 0.5
892 9.85696 0.163938 9.75802 0.5
893 10.1824 5.05705 8.81032 0.5
894 7.75894 7.92674 1.01234 0.5
895 12.0576 9.14926 1.3254 0.5
896 7.28958 12.2415 0.361252 0.5
897 7.05958 12.0705 3.7505 0.5
898 5.48759 12.4788 3.11895 0.5
899 10.3314 4.76289 7.81837 0.5
900 11.999 10.7499 9.47289 0.5
901 13.3097 5.32439 10.2788 0.5
902 11.6345 6.82173 7.97879 0.5
903 9.4658 8.5501 3.38518 0.5
904 7.64061 3.44047 5.65237 0.5
905 13.5484 6.81234 5.46077 0.5
906 13.5044 4.74078 3.67754 0.5
907 6.70816 3.67372 10.1877 0.5
908 8.48157 0.488318 5.33665 0.5
909 9.80722 3.61725 2.69202 0.5
910 7.46543 2.55779 8.79282 0.5
911 6.32808 7.1224 12.5787 0.5
912 8.58569 9.57503 11.3175 0.5
913 11.9914 5.43164 13.5198 0.5
914 4.69883 0.194265 13.4906 0.5
915 7.81364 2.38695 5.82112 0.5
916 11.2979 8.76832 6.12085 0.5
917 12.1603 12.9251 11.5573 0.5
918 7.39167 6.65673 8.41183 0.5
919 13.2338 11.9991 2.49627 0.5
920 0.053864 11.151 11.3412 0.5
921 4.95512 6.27413 7.23478 0.5
922 12.6625 2.96865 11.1375 0.5
923 0.408021 2.4143 7.15733 0.5
924 11.6016 11.3406 10.2402 0.5
925 10.1207 3.2432 1.78984 0.5
926 5.57892 10.566 13.3211 0.5
927 2.23741 7.53276 6.21454 0.5
928 0.756705 6.25202 5.85774 0.5
929 1.14745 3.01889 10.863 0.5
930 10.3565 9.34134 9.17081 0.5
931 4.8868 9.58939 12.2168 0.5
932 4.45917 8.30589 3.67404 0.5
933 0.131237 11.6851 0.838773 0.5