ITEM: TIMESTEP
620000
ITEM: NUMBER OF ATOMS
1000
ITEM: BOX BOUNDS xy xz yz pp pp pp
0.0000000000000000e+00 1.3572088000000001e+01 0.0000000000000000e+00
0.0000000000000000e+00 1.3572088000000001e+01 0.0000000000000000e+00
0.0000000000000000e+00 1.3572088000000001e+01 0.0000000000000000e+00
ITEM: ATOMS id x y z radius
1 4.60901 3.35459 12.0228 0.5
2 4.82464 11.5509 3.87892 0.5
3 8.78615 10.0106 2.99251 0.5
4 9.94183 5.82294 1.27273 0.5
5 8.69619 7.97956 10.2314 0.5
6 3.48346 12.9433 5.27572 0.5
7 2.48933 8.47634 1.2138 0.5
8 13.2654 11.2347 2.33018 0.5
9 1.73382 8.31271 6.67569 0.5
10 3.76789 13.5679 11.3709 0.5
11 0.295622 9.12747 9.21218 0.5
12 10.0613 5.61469 0.233456 0.5
13 8.22712 11.8408 5.6037 0.5
14 11.0928 2.26444 4.34435 0.5
15 5.893 1.6694 5.44503 0.5
16 7.59818 6.91288 9.32398 0.5
17 6.84516 12.4336 10.4667 0.5
18 2.74127 8.3941 6.33746 0.5
19 9.97252 5.10042 1.74156 0.5
20 10.7024 10.7567 2.81293 0.5
21 1.97481 4.69769 0.871952 0.5
22 1.08789 6.1618 12.276 0.5
23 1.78581 1.29575 10.33 0.5
24 7.21545 7.0901 1.99557 0.5
25 0.722131 5.88548 2.14434 0.5
26 10.1782 10.4859 6.48027 0.5
27 11.1539 6.68056 12.4208 0.5
28 5.34504 11.0881 11.3796 0.5
29 0.183762 5.86638 1.18371 0.5
30 8.24772 11.1115 1.7852 0.5
31 0.617183 0.243237 8.39963 0.5
32 9.34675 2.29721 12.5078 0.5
33 12.9584 5.88736 9.54139 0.5
34 3.65444 8.67436 5.87262 0.5
35 11.4457 6.3774 13.3489 0.5
36 8.96878 2.0661 4.75889 0.5
37 0.554619 0.981624 2.4919 0.5
38 3.03756 1.75036 1.79101 0.5
39 10.4107 4.27803 1.45098 0.5
40 5.78523 5.99969 6.36012 0.5
41 7.71556 11.3438 4.76556 0.5
42 6.71255 5.22789 3.41781 0.5
43 5.73135 5.23162 10.3104 0.5
44 4.65 11.2171 8.23629 0.5
45 7.02267 6.10435 2.00043 0.5
46 10.261 10.67 0.183481 0.5
47 2.73161 9.20685 5.69407 0.5
48 7.73594 10.8008 1.00233 0.5
49 5.96895 11.544 9.31778 0.5
50 6.34824 1.11695 9.89389 0.5
51 12.7935 9.91445 7.10316 0.5
52 6.32383 10.6768 7.33972 0.5
53 9.98431 3.37543 1.82338 0.5
54 11.6287 11.5097 3.93769 0.5
55 0.0214272 0.293226 6.01998 0.5
56 13.221 3.67111 3.32908 0.5
57 0.544794 11.3398 11.4366 0.5
58 5.38545 8.56814 10.4101 0.5
59 2.02021 10.6891 11.3313 0.5
60 7.5177 5.13493 9.59033 0.5
61 4.69506 0.430258 10.9325 0.5
62 0.500867 7.98602 0.756179 0.5
63 11.5419 8.62679 2.10577 0.5
64 12.3969 2.05639 9.45466 0.5
65 0.193071 1.6585 4.9356 0.5
66 12.5601 1.29069 1.90617 0.5
67 8.5244 3.0612 8.53328 0.5
68 2.92955 1.85956 2.73898 0.5
69 11.8663 2.16971 10.3019 0.5
70 12.1471 3.68461 9.68022 0.5
71 3.30359 6.27714 8.7068 0.5
72 7.6705 1.84772 11.169 0.5
73 8.47437 6.74639 8.66326 0.5
74 6.06573 4.3413 10.0548 0.5
75 9.01472 0.471813 10.3311 0.5
76 12.0648 3.05909 13.2045 0.5
77 10.5878 2.69479 3.63399 0.5
78 8.87988 3.07857 5.17588 0.5
79 4.23575 12.7119 5.90647 0.5
80 5.42856 2.76449 8.21105 0.5
81 1.60286 3.09578 11.9088 0.5
82 1.00485 8.68331 0.290339 0.5
83 2.75839 0.551302 6.50538 0.5
84 13.4459 8.2889 8.83581 0.5
85 13.354 3.74596 6.96446 0.5
86 2.69749 0.317192 13.177 0.5
87 4.25802 5.73021 5.87636 0.5
88 6.68643 5.59025 4.37771 0.5
89 11.3894 12.4153 7.54579 0.5
90 4.14766 6.38961 4.31408 0.5
91 11.3278 7.67634 12.1428 0.5
92 0.0126633 1.34155 1.70469 0.5
93 13.2011 0.534413 13.0729 0.5
94 4.76587 10.4975 12.8371 0.5
95 11.9859 1.41713 7.89265 0.5
96 11.996 2.68692 4.54876 0.5
97 12.2584 2.81014 5.55895 0.5
98 10.5017 9.62939 0.212802 0.5
99 6.51619 8.67501 9.17026 0.5
100 0.464424 7.2433 6.52211 0.5
101 4.64957 11.9921 3.00411 0.5
102 8.52901 7.4015 9.38631 0.5
103 4.84894 5.01657 10.9124 0.5
104 6.70211 11.4911 6.03068 0.5
105 11.745 12.2993 6.53615 0.5
106 6.07833 1.87742 10.3446 0.5
107 13.1459 5.43915 7.22666 0.5
108 12.8129 10.6484 5.56284 0.5
109 0.817651 12.3491 8.71759 0.5
110 8.24688 9.42365 8.55981 0.5
111 8.59317 0.331286 3.7035 0.5
112 6.5662 0.910073 5.50778 0.5
113 0.267457 13.2292 5.28222 0.5
114 7.14673 6.69368 2.814 0.5
115 5.6106 6.6173 11.976 0.5
116 13.4691 5.26525 1.8622 0.5
117 1.06755 1.2667 5.06496 0.5
118 10.8655 9.25368 6.18168 0.5
119 12.0133 7.85237 1.78234 0.5
120 5.41871 9.50627 4.06817 0.5
121 12.0178 12.8548 11.173 0.5
122 2.01769 3.4672 2.07533 0.5
123 11.8129 2.08142 8.60477 0.5
124 10.4115 11.2661 11.714 0.5
125 4.88683 12.5353 3.90062 0.5
126 11.015 11.2441 13.3891 0.5
127 7.87534 10.0893 10.9557 0.5
128 4.85183 3.32523 7.51528 0.5
129 2.13402 6.39171 12.4341 0.5
130 1.23825 12.0706 10.9644 0.5
131 8.08696 2.09038 1.96887 0.5
132 5.30952 12.1318 2.39839 0.5
133 1.28954 11.0526 10.7665 0.5
134 10.7685 11.5219 3.51079 0.5
135 12.4325 1.81607 5.94265 0.5
136 8.20843 4.79363 4.20629 0.5
137 3.21077 12.5452 6.09901 0.5
138 7.06472 12.0738 13.1909 0.5
139 5.66343 13.5621 0.159996 0.5
140 5.48303 3.3578 4.47308 0.5
141 1.64437 4.06763 3.94683 0.5
142 9.77571 3.1941 12.7496 0.5
143 0.614023 12.4332 0.254796 0.5
144 8.89614 12.998 8.93149 0.5
145 6.32892 6.88456 2.21355 0.5
146 10.0905 9.26044 8.72088 0.5
147 4.58049 6.49351 1.14715 0.5
148 12.2451 0.193902 11.3212 0.5
149 8.03512 7.24307 10.2958 0.5
150 12.4308 11.6527 3.51299 0.5
151 6.80745 12.0725 9.5774 0.5
152 4.71042 4.43046 11.7458 0.5
153 11.5851 8.55442 7.8181 0.5
154 2.54038 2.60875 2.13205 0.5
155 2.71146 7.95396 10.437 0.5
156 7.93769 12.0618 0.0211273 0.5
157 1.43343 0.639306 2.92139 0.5
158 1.41943 10.3256 8.823 0.5
159 4.0893 2.23789 9.29556 0.5
160 9.51373 0.472975 11.1447 0.5
161 12.5499 2.91787 10.1119 0.5
162 7.55481 2.54927 8.49545 0.5
163 11.4066 9.50733 0.765403 0.5
164 9.78198 3.52405 11.1212 0.5
165 7.1506 11.6847 11.0855 0.5
166 10.8745 12.8199 6.80189 0.5
167 10.6713 8.2431 7.56743 0.5
168 1.21374 2.98005 7.30801 0.5
169 10.2476 11.1179 12.7661 0.5
170 3.81347 6.37623 0.511499 0.5
171 10.674 5.162 0.927064 0.5
172 11.9967 7.84633 10.1884 0.5
173 8.84412 10.2584 2.03904 0.5
174 4.32626 0.793374 13.1859 0.5
175 2.4762 6.41889 4.1212 0.5
176 3.99368 6.32562 3.32161 0.5
177 9.17427 4.53375 5.91763 0.5
178 5.95002 2.34557 4.66996 0.5
179 12.6901 5.72851 1.51106 0.5
180 9.35713 3.09173 11.7944 0.5
181 10.8821 11.4273 9.77468 0.5
182 2.85223 11.8219 1.33983 0.5
183 8.3865 6.98346 6.05864 0.5
184 10.3733 5.80726 8.69511 0.5
185 8.59892 13.5607 11.1323 0.5
186 4.56949 8.46295 3.1068 0.5
187 5.19997 0.43442 12.8807 0.5
188 4.90085 5.82683 6.7305 0.5
189 0.485871 11.04 6.67013 0.5
190 9.1181 13.0066 3.71216 0.5
191 9.33287 6.94219 3.34451 0.5
192 10.1507 0.931539 0.0329204 0.5
193 11.5359 1.67461 9.46432 0.5
194 9.40821 13.1725 10.6489 0.5
195 0.548627 9.79078 12.4216 0.5
196 8.90578 0.972257 4.47939 0.5
197 2.78666 6.86284 8.13095 0.5
198 6.01747 6.10201 12.6968 0.5
199 11.6956 0.533379 8.4257 0.5
200 6.691 6.81249 1.24637 0.5
201 13.3704 3.81029 7.92317 0.5
202 6.47957 13.5251 8.60377 0.5
203 1.55641 3.98327 1.35043 0.5
204 3.3785 8.2072 8.58405 0.5
205 12.5445 13.383 3.8837 0.5
206 0.815406 1.38694 10.289 0.5
207 4.38991 12.0432 8.74604 0.5
208 9.45652 3.96423 5.17662 0.5
209 5.65839 1.88134 3.79028 0.5
210 4.1291 6.55065 5.31234 0.5
211 4.20536 4.81693 10.196 0.5
212 3.29268 5.87805 4.08396 0.5
213 3.52081 1.74321 5.85684 0.5
214 9.97096 4.47471 11.2584 0.5
215 7.69466 6.63463 1.22951 0.5
216 6.28515 8.59692 0.21967 0.5
217 4.32174 11.4206 4.89224 0.5
218 6.48108 8.30499 4.73322 0.5
219 9.22522 1.02283 3.45215 0.5
220 7.82751 2.18055 10.2744 0.5
221 3.1812 3.5539 5.89181 0.5
222 6.78046 11.2618 5.0419 0.5
223 4.62329 9.42644 3.45513 0.5
224 13.3202 9.45318 3.59317 0.5
225 7.96524 11.1362 11.0242 0.5
226 10.4803 6.23668 13.1118 0.5
227 13.4623 7.39826 10.101 0.5
228 4.77828 11.9239 5.61767 0.5
229 5.48655 4.39387 6.2422 0.5
230 6.26354 9.65405 8.98478 0.5
231 7.79113 5.99509 8.96401 0.5
232 8.06947 4.63724 12.9398 0.5
233 1.30731 0.53595 9.91804 0.5
234 11.7506 2.09984 5.20914 0.5
235 1.88562 10.6121 3.31886 0.5
236 10.7068 6.2082 0.558902 0.5
237 5.31705 7.80416 6.61785 0.5
238 0.583064 12.2337 5.51435 0.5
239 9.72849 7.8048 3.53478 0.5
240 1.02371 4.64036 12.9643 0.5
241 4.03333 5.83365 1.38944 0.5
242 2.95487 0.880713 2.62176 0.5
243 2.72415 9.27887 3.89482 0.5
244 4.00939 11.9039 6.35747 0.5
245 1.48029 11.5014 11.6821 0.5
246 9.82438 10.1809 8.50017 0.5
247 3.79351 0.730653 10.6625 0.5
248 7.76872 2.5675 2.71887 0.5
249 10.6045 1.82916 13.5108 0.5
250 9.89407 1.72253 0.573531 0.5
251 4.00106 10.3035 12.0836 0.5
252 8.25311 8.5977 12.8878 0.5
253 1.48741 8.33131 1.13175 0.5
254 10.9945 2.6321 2.69482 0.5
255 8.39152 9.44415 2.26613 0.5
256 1.50622 13.1614 2.97895 0.5
257 0.673052 3.83477 7.44228 0.5
258 13.3522 6.20824 5.3464 0.5
259 4.85428 5.42635 9.87827 0.5
260 6.39352 11.4339 10.2233 0.5
261 11.6567 3.47504 6.13604 0.5
262 7.18986 12.0324 5.34103 0.5
263 1.76388 4.38933 8.69535 0.5
264 10.2607 10.948 9.06997 0.5
265 1.47959 4.23574 4.94022 0.5
266 3.53714 13.4778 6.17084 0.5
267 5.18468 7.73652 9.04875 0.5
268 7.14717 2.44006 1.90504 0.5
269 9.42911 0.292074 8.67464 0.5
270 6.73048 10.0234 8.15277 0.5
271 10.97 11.8147 6.83687 0.5
272 6.19934 9.2846 1.02682 0.5
273 7.59698 4.65213 3.36282 0.5
274 10.5149 5.34317 9.6053 0.5
275 2.63021 10.8947 1.14334 0.5
276 4.83704 2.77463 0.426492 0.5
277 7.41383 5.25451 13.3338 0.5
278 11.1678 10.4056 0.415816 0.5
279 9.24274 11.7343 5.74032 0.5
280 4.47264 12.5557 2.13342 0.5
281 6.94605 2.4698 10.7257 0.5
282 0.00698094 11.2397 1.35908 0.5
283 5.34252 4.67261 1.69517 0.5
284 1.81755 10.7483 0.543832 0.5
285 3.63661 9.71674 5.91265 0.5
286 2.39441 1.23439 12.8162 0.5
287 7.84024 7.25765 6.83083 0.5
288 5.7992 0.0468489 6.79095 0.5
289 2.60684 10.4123 3.90718 0.5
290 1.27109 12.9794 5.28744 0.5
291 5.96879 0.0515762 5.74921 0.5
292 4.66307 3.28013 13.1419 0.5
293 10.6832 5.57549 3.99705 0.5
294 2.70108 9.98772 6.23886 0.5
295 2.78872 1.56298 6.52918 0.5
296 0.178125 4.62631 7.35802 0.5
297 10.4841 10.4233 11.0595 0.5
298 9.47781 5.00187 11.9632 0.5
299 1.70948 0.465273 13.0797 0.5
300 9.41297 4.22703 1.58786 0.5
301 6.00804 7.33591 11.615 0.5
302 2.87379 9.00389 2.91048 0.5
303 12.2125 9.20817 2.66691 0.5
304 0.299757 7.17716 5.54086 0.5
305 8.10876 12.744 8.1694 0.5
306 11.1454 8.08837 1.31209 0.5
307 2.45559 7.07511 3.34169 0.5
308 0.341047 9.71316 11.4682 0.5
309 12.7459 13.2056 12.7093 0.5
310 8.81627 13.5237 4.66619 0.5
311 0.014798 6.40158 6.94165 0.5
312 7.47784 11.6519 10.171 0.5
313 1.0109 10.3094 3.76911 0.5
314 6.1049 12.5755 9.02716 0.5
315 12.6213 4.72392 1.85561 0.5
316 8.09297 6.08525 7.99396 0.5
317 13.5344 8.41129 3.75674 0.5
318 0.420883 5.48544 6.62424 0.5
319 10.6759 11.2473 0.833787 0.5
320 5.50682 3.46349 6.7248 0.5
321 2.44673 12.9462 3.31851 0.5
322 10.1436 13.211 1.19051 0.5
323 3.79381 1.49088 2.45749 0.5
324 11.0261 3.54913 3.23547 0.5
325 1.38356 5.29406 0.0763735 0.5
326 10.2458 12.7586 0.330521 0.5
327 8.64357 3.79269 7.85821 0.5
328 11.9148 7.22829 12.9213 0.5
329 9.16038 2.42193 8.6225 0.5
330 8.38896 1.35431 5.24225 0.5
331 4.95337 2.41517 3.25508 0.5
332 12.2582 1.2185 8.87709 0.5
333 13.2341 1.43127 2.74505 0.5
334 5.00227 5.63552 1.40184 0.5
335 9.67096 0.383917 4.98132 0.5
336 4.81137 1.95861 8.68952 0.5
337 11.5381 0.701856 11.8344 0.5
338 7.27446 6.02172 9.87148 0.5
339 10.0373 4.20897 2.43361 0.5
340 11.7256 3.39451 11.5307 0.5
341 8.73543 0.378968 9.27503 0.5
342 6.72388 0.216333 6.30861 0.5
343 6.72617 5.60051 9.13646 0.5
344 5.18781 6.78668 6.75717 0.5
345 8.80025 7.79672 5.61451 0.5
346 1.21261 7.02856 5.915 0.5
347 12.8772 11.614 0.674208 0.5
348 1.22733 4.33381 0.381725 0.5
349 7.77543 6.33009 6.36455 0.5
350 8.52857 7.42668 11.0736 0.5
351 2.51078 8.86848 10.679 0.5
352 8.48993 12.5152 7.29646 0.5
353 8.2923 7.25594 0.521859 0.5
354 2.406 3.03176 5.68892 0.5
355 1.57221 6.97163 3.98008 0.5
356 11.628 13.3724 4.28888 0.5
357 6.63432 12.4487 3.52287 0.5
358 3.8306 1.40518 9.8856 0.5
359 7.27263 9.37139 8.88574 0.5
360 12.4704 4.03336 6.39951 0.5
361 3.62149 0.905773 6.42782 0.5
362 1.31452 1.41928 9.37104 0.5
363 10.2129 12.0946 1.05056 0.5
364 3.19773 7.72386 1.34545 0.5
365 2.19893 7.63878 0.909687 0.5
366 6.55778 9.02235 8.27529 0.5
367 10.1976 11.6993 0.134694 0.5
368 5.85903 5.02631 9.41369 0.5
369 1.95258 3.39476 4.78235 0.5
370 0.181591 10.4054 5.8773 0.5
371 9.55202 0.235215 4.03355 0.5
372 0.0658567 4.67704 3.53518 0.5
373 3.9529 2.77522 13.3645 0.5
374 0.560261 8.98562 13.015 0.5
375 0.47978 9.88575 8.55937 0.5
376 1.80327 10.7136 4.37322 0.5
377 7.59521 5.51423 3.92002 0.5
378 6.03658 9.65829 13.5713 0.5
379 4.45549 4.8114 1.35533 0.5
380 7.57537 4.50098 0.330555 0.5
381 10.2986 3.87928 8.41086 0.5
382 9.68213 3.65024 7.61502 0.5
383 1.97898 4.60137 13.3692 0.5
384 5.55787 9.93603 12.6519 0.5
385 12.5921 11.2668 1.55175 0.5
386 13.5314 4.02728 4.22853 0.5
387 2.54946 6.45799 11.4642 0.5
388 1.46303 2.17251 10.1606 0.5
389 3.42988 10.3896 11.0931 0.5
390 5.16154 4.4763 10.011 0.5
391 6.89127 0.851873 2.02563 0.5
392 13.0725 4.68083 2.73951 0.5
393 2.17964 5.09173 9.23253 0.5
394 9.23513 9.50148 8.20517 0.5
395 1.48333 0.462969 8.97361 0.5
396 0.282171 2.03335 2.36636 0.5
397 7.39095 1.49477 1.44001 0.5
398 8.94004 12.0906 3.0416 0.5
399 0.790026 4.49959 4.29285 0.5
400 7.27149 8.88332 4.84297 0.5
401 9.81182 2.55042 13.5068 0.5
402 4.74035 7.28834 5.86088 0.5
403 6.80148 0.717622 8.01874 0.5
404 11.1537 11.1337 12.4655 0.5
405 11.9166 5.45036 13.1055 0.5
406 7.08197 3.22236 1.26061 0.5
407 2.28447 11.3668 3.74645 0.5
408 2.32047 4.05932 5.49582 0.5
409 3.90063 4.85083 11.177 0.5
410 11.5857 2.67087 3.50959 0.5
411 4.57879 5.59904 0.568136 0.5
412 5.13396 0.82612 0.246207 0.5
413 2.88096 5.90531 7.91416 0.5
414 3.23431 8.35432 11.2433 0.5
415 8.40206 10.4909 11.7018 0.5
416 8.76013 10.892 5.55622 0.5
417 0.830728 13.4043 9.24142 0.5
418 9.82431 1.21148 10.5903 0.5
419 3.05279 13.5073 10.6938 0.5
420 3.51445 0.172809 7.17859 0.5
421 13.3954 5.0134 9.51521 0.5
422 8.7463 4.68881 5.07545 0.5
423 12.4298 13.4918 2.80605 0.5
424 2.91252 3.55177 4.93525 0.5
425 8.48999 8.52689 11.1941 0.5
426 0.620284 12.917 7.96303 0.5
427 7.7553 2.43558 1.08974 0.5
428 0.951245 8.34199 9.05748 0.5
429 11.334 6.093 8.48922 0.5
430 9.34439 13.3043 11.7866 0.5
431 2.15991 5.10339 8.21644 0.5
432 12.944 2.22385 1.97783 0.5
433 7.37231 11.3617 0.281967 0.5
434 0.141331 2.89931 12.9999 0.5
435 10.9555 8.98817 1.52091 0.5
436 6.67608 5.20534 10.0894 0.5
437 4.19301 9.22225 6.57576 0.5
438 5.78769 3.5735 7.69353 0.5
439 11.2151 10.7278 10.4359 0.5
440 9.20975 11.0169 6.50962 0.5
441 5.93754 0.906572 6.24538 0.5
442 1.38671 7.37429 6.83809 0.5
443 0.837621 11.8682 1.24077 0.5
444 9.03841 9.14886 13.0987 0.5
445 4.78202 8.69484 4.0427 0.5
446 3.24234 6.56861 4.80259 0.5
447 2.16117 9.16447 6.55935 0.5
448 5.40112 9.96125 0.749493 0.5
449 3.65447 12.6349 11.01 0.5
450 2.98893 2.51031 1.16222 0.5
451 7.87591 3.53205 0.843832 0.5
452 2.11688 8.59707 0.35828 0.5
453 4.87455 9.16759 2.36742 0.5
454 3.00738 0.357276 3.49063 0.5
455 1.77972 2.1535 11.7723 0.5
456 8.3855 0.152043 8.40001 0.5
457 12.3212 11.6471 8.91723 0.5
458 4.45258 0.658188 9.94678 0.5
459 13.5033 2.05683 5.79895 0.5
460 12.4603 6.46983 13.3561 0.5
461 11.2533 8.54793 11.7085 0.5
462 10.1886 4.53413 7.7483 0.5
463 6.42861 3.24428 6.88206 0.5
464 0.105343 8.37355 9.80027 0.5
465 4.94748 10.2806 11.852 0.5
466 2.86279 13.1068 6.79091 0.5
467 1.35172 7.76285 0.313527 0.5
468 0.344663 7.61176 9.2911 0.5
469 2.30693 2.88225 11.3544 0.5
470 1.61566 6.53398 11.6384 0.5
471 4.5267 1.44257 10.62 0.5
472 10.9383 6.48693 3.96471 0.5
473 11.2921 8.45829 6.745 0.5
474 3.4613 7.26664 8.66849 0.5
475 6.25089 3.70695 6.06254 0.5
476 6.23472 0.97378 10.8673 0.5
477 5.84413 8.08729 9.70144 0.5
478 3.10796 12.1657 0.44696 0.5
479 8.36069 7.5818 13.0658 0.5
480 4.21717 10.4876 8.94193 0.5
481 2.10961 3.8786 0.422833 0.5
482 10.9858 12.889 0.937734 0.5
483 8.89849 11.1264 2.66088 0.5
484 10.0223 7.0879 4.21985 0.5
485 5.44114 4.50823 2.69116 0.5
486 3.70567 11.2578 8.73571 0.5
487 4.44644 2.90082 8.44272 0.5
488 5.57634 5.13466 6.86257 0.5
489 3.40888 1.27217 3.35462 0.5
490 0.0214494 12.9043 8.74334 0.5
491 2.1829 7.28223 11.9935 0.5
492 1.06712 5.07038 11.9984 0.5
493 12.0368 8.59473 10.9662 0.5
494 6.68398 4.79969 0.249643 0.5
495 6.58681 7.60301 0.657252 0.5
496 6.85057 0.195329 13.3478 0.5
497 4.63084 4.88579 6.53948 0.5
498 3.77786 12.0217 5.38361 0.5
499 6.65873 1.82755 11.356 0.5
500 9.83589 9.16931 5.98666 0.5
501 5.29941 1.57906 4.67907 0.5
502 9.39447 10.605 9.31079 0.5
503 7.00802 5.8315 12.5511 0.5
504 2.10521 1.08498 0.158876 0.5
505 3.77753 3.43941 12.6033 0.5
506 3.48031 11.1163 1.74181 0.5
507 7.6171 3.96493 4.09252 0.5
508 0.417948 1.22284 5.75049 0.5
509 5.13702 5.32714 5.92717 0.5
510 7.28615 10.6394 11.6516 0.5
511 6.3658 0.826373 7.09117 0.5
512 9.90865 11.5106 2.99971 0.5
513 4.59777 4.12029 3.21122 0.5
514 5.90872 8.33624 1.07301 0.5
515 2.31635 9.85691 3.1577 0.5
516 5.43909 9.01273 3.1243 0.5
517 1.00502 3.5038 4.47133 0.5
518 2.52744 6.91201 9.13054 0.5
519 4.86515 7.77296 10.0112 0.5
520 1.92908 0.0740052 0.423815 0.5
521 11.3001 5.92497 4.70844 0.5
522 2.62941 8.92995 11.7391 0.5
523 12.9119 7.85613 3.41376 0.5
524 0.982568 0.317513 5.63777 0.5
525 10.9245 8.67687 0.584305 0.5
526 8.81999 12.1943 8.2079 0.5
527 7.34087 10.8556 1.93514 0.5
528 1.06935 13.2819 13.4758 0.5
529 13.5478 12.1832 0.984438 0.5
530 11.6537 2.77435 9.49659 0.5
531 11.1039 8.47541 10.609 0.5
532 6.42887 9.30756 4.44143 0.5
533 5.64228 7.60697 10.6497 0.5
534 2.92931 13.0492 11.529 0.5
535 8.01664 12.5419 12.7528 0.5
536 1.82888 12.1449 3.17146 0.5
537 2.67064 11.2104 8.9204 0.5
538 7.94766 10.1168 1.64635 0.5
539 1.78072 7.83467 3.55226 0.5
540 0.698833 3.10741 8.20224 0.5
541 3.5684 12.052 2.20024 0.5
542 7.74316 0.0390886 12.8358 0.5
543 13.1562 5.79234 6.26677 0.5
544 8.96066 2.86606 7.63309 0.5
545 1.52073 7.01292 2.96712 0.5
546 0.701744 0.483571 12.9458 0.5
547 10.7213 5.20203 4.91354 0.5
548 11.8461 13.1113 7.01906 0.5
549 11.925 10.66 8.75578 0.5
550 12.5684 12.5735 3.10789 0.5
551 6.44529 1.72028 1.87815 0.5
552 3.87039 7.35566 0.739957 0.5
553 10.7078 6.28793 7.79538 0.5
554 3.8445 12.7998 6.86032 0.5
555 0.673925 3.81313 3.58045 0.5
556 6.97723 12.9733 12.6724 0.5
557 6.92794 11.4195 1.16897 0.5
558 4.75015 1.57317 9.63642 0.5
559 3.213 10.3603 8.53057 0.5
560 7.18188 2.64059 11.6416 0.5
561 7.95536 8.76637 11.9548 0.5
562 12.8019 2.47722 13.0347 0.5
563 8.48327 6.30592 6.97598 0.5
564 6.52968 5.12132 12.8933 0.5
565 9.8286 4.83686 5.34501 0.5
566 7.06914 1.44856 10.4265 0.5
567 12.7398 4.4154 3.72157 0.5
568 7.17844 1.05416 11.3438 0.5
569 10.9837 6.93273 11.4203 0.5
570 12.9466 7.7509 2.32434 0.5
571 2.35483 1.03244 3.29569 0.5
572 5.66432 3.04561 13.4495 0.5
573 0.671237 13.0545 6.11663 0.5
574 8.84717 7.76537 3.05473 0.5
575 8.56528 13.1287 2.88791 0.5
576 3.92949 10.6071 7.95229 0.5
577 3.92341 9.10357 2.74922 0.5
578 1.73965 11.4855 1.19579 0.5
579 13.1489 9.80511 12.1249 0.5
580 3.08838 4.90106 7.89676 0.5
581 1.39364 13.1149 8.48562 0.5
582 2.70852 12.5664 10.6201 0.5
583 2.76933 10.5966 0.211153 0.5
584 10.3425 6.15207 4.78159 0.5
585 13.1844 4.70761 6.4164 0.5
586 0.251843 5.71162 10.0675 0.5
587 13.0552 2.8982 1.08121 0.5
588 13.2704 12.3261 0.0279702 0.5
589 13.1498 9.31624 8.60364 0.5
590 3.84536 11.7706 7.94232 0.5
591 4.34505 4.20967 12.7098 0.5
592 10.6377 11.3849 10.7135 0.5
593 6.62906 9.49694 7.37196 0.5
594 13.0652 10.744 6.57754 0.5
595 12.9579 9.79765 6.19572 0.5
596 9.37474 9.41632 2.36662 0.5
597 2.45574 10.2342 9.20865 0.5
598 7.59923 11.146 5.70952 0.5
599 11.2856 11.3904 8.84489 0.5
600 12.0127 6.20109 12.5152 0.5
601 3.05864 6.22709 3.23119 0.5
602 13.25 6.33625 10.4235 0.5
603 2.92965 7.38644 11.1734 0.5
604 5.44746 1.08181 10.3193 0.5
605 7.30821 1.71742 12.1037 0.5
606 11.2308 9.67218 5.28485 0.5
607 8.70279 10.2602 8.58175 0.5
608 8.3649 13.2805 12.1123 0.5
609 1.30943 11.6621 0.377061 0.5
610 1.21415 9.26941 8.95927 0.5
611 0.453301 8.87989 8.27825 0.5
612 5.57326 0.0733299 2.87113 0.5
613 3.6951 5.7783 5.02081 0.5
614 4.10054 13.3822 10.3983 0.5
615 3.37215 10.6492 9.47478 0.5
616 13.3309 6.17067 2.12737 0.5
617 6.41864 6.01652 2.79252 0.5
618 11.1416 7.81261 8.32634 0.5
619 12.6631 3.6415 11.7412 0.5
620 1.06062 10.4862 11.6506 0.5
621 2.43126 4.28297 4.56192 0.5
622 5.69034 8.6844 8.77559 0.5
623 12.8762 8.11201 4.41024 0.5
624 12.7017 5.5521 2.47362 0.5
625 1.76785 3.63197 11.0343 0.5
626 2.5524 4.10743 1.3998 0.5
627 9.79246 6.60506 0.347856 0.5
628 12.7804 4.45595 10.0167 0.5
629 5.50453 3.96738 3.68782 0.5
630 3.06533 3.52073 0.739068 0.5
631 9.24499 0.919418 0.362527 0.5
632 6.4288 12.8395 13.5238 0.5
633 10.0171 0.716827 1.00416 0.5
634 10.1483 10.7254 10.0117 0.5
635 10.3049 2.34113 12.7007 0.5
636 9.71479 4.00577 12.0916 0.5
637 0.171183 10.085 6.88391 0.5
638 6.22747 1.31683 4.59035 0.5
639 9.00642 6.93994 10.299 0.5
640 2.445 4.13155 7.97804 0.5
641 7.33013 7.20086 5.92017 0.5
642 11.0255 5.53626 13.5501 0.5
643 11.2134 0.852783 7.62016 0.5
644 7.88003 2.85614 11.088 0.5
645 13.5571 11.3283 5.84843 0.5
646 8.92806 8.84149 12.136 0.5
647 8.48148 4.98055 11.9497 0.5
648 7.57657 9.7225 11.8751 0.5
649 5.4353 8.19366 11.4322 0.5
650 3.01528 0.95298 7.35998 0.5
651 1.0991 6.37925 6.77371 0.5
652 5.25162 4.24337 7.24147 0.5
653 0.0363878 5.51713 2.87644 0.5
654 3.59274 11.1491 11.7722 0.5
655 11.6886 12.0942 9.59669 0.5
656 0.973856 10.9451 0.885358 0.5
657 11.2489 0.221081 6.71599 0.5
658 9.36415 10.1967 5.95811 0.5
659 1.39829 9.6627 3.05821 0.5
660 0.606897 0.764149 9.1989 0.5
661 3.16171 7.67371 9.49308 0.5
662 4.12657 11.027 5.7642 0.5
663 5.85765 12.9258 3.66086 0.5
664 4.95583 6.30856 5.81919 0.5
665 10.1096 10.6734 3.61972 0.5
666 5.18392 12.1622 9.39768 0.5
667 11.0413 4.43239 8.2539 0.5
668 5.72125 2.92231 3.63298 0.5
669 8.04809 10.4567 2.53729 0.5
670 9.01145 13.1555 7.95068 0.5
671 6.87797 8.47154 1.01877 0.5
672 3.35659 2.68221 5.38509 0.5
673 5.39115 9.02665 0.452973 0.5
674 2.88246 7.96124 12.109 0.5
675 3.84517 4.94056 12.1613 0.5
676 2.26218 0.15019 2.67487 0.5
677 3.27298 9.87165 3.2679 0.5
678 12.8881 8.15853 10.5275 0.5
679 10.8121 12.2601 6.00408 0.5
680 4.44408 11.5621 2.08887 0.5
681 4.11282 1.24322 8.98927 0.5
682 2.14994 2.97289 10.3642 0.5
683 1.8419 5.56845 11.7348 0.5
684 11.7346 12.9962 3.35281 0.5
685 12.1627 12.4017 4.073 0.5
686 10.6603 7.88134 11.3113 0.5
687 5.01114 9.74782 13.4184 0.5
688 0.92469 7.95483 5.99862 0.5
689 3.0286 3.31994 1.77648 0.5
690 4.67337 8.47906 7.0411 0.5
691 0.0949636 10.5333 11.9711 0.5
692 4.6842 0.0199132 0.0735705 0.5
693 11.3247 6.05573 11.7608 0.5
694 5.79824 9.11168 9.68898 0.5
695 12.1957 8.24652 2.7401 0.5
696 10.7661 3.75014 7.55498 0.5
697 13.5239 9.53131 7.69333 0.5
698 6.03064 10.866 6.36964 0.5
699 2.98531 7.9685 0.384264 0.5
700 12.5904 8.79789 3.64905 0.5
701 9.17401 8.11893 12.8751 0.5
702 3.94757 2.03988 8.33505 0.5
703 1.70553 5.4149 12.6809 0.5
704 9.40128 3.35968 8.57358 0.5
705 10.6532 7.29118 7.68312 0.5
706 6.82044 10.5007 5.75152 0.5
707 4.15043 5.74153 10.6413 0.5
708 12.9664 1.81286 1.05348 0.5
709 9.75585 0.0420707 0.289288 0.5
710 6.92122 6.16166 3.61093 0.5
711 0.0791589 13.163 13.1559 0.5
712 12.4894 2.88824 8.99397 0.5
713 8.33109 9.81725 7.68753 0.5
714 12.7364 4.49161 7.29655 0.5
715 13.1476 8.6522 2.80623 0.5
716 2.23919 2.04236 10.7935 0.5
717 2.8866 7.01344 0.713042 0.5
718 12.0818 0.406334 7.45624 0.5
719 4.57835 11.1821 12.0045 0.5
720 12.3775 11.66 2.50894 0.5
721 10.6975 6.80971 8.6509 0.5
722 6.07351 13.5227 12.8757 0.5
723 3.3183 12.1902 8.62142 0.5
724 9.43232 13.396 9.65314 0.5
725 2.62666 2.02343 5.6073 0.5
726 8.45267 2.14032 8.05445 0.5
727 4.90808 2.26349 13.188 0.5
728 12.7784 2.12311 5.02109 0.5
729 9.74294 4.84242 0.820309 0.5
730 7.70263 5.6601 7.16778 0.5
731 10.726 0.162949 0.462901 0.5
732 1.72256 2.73851 8.15074 0.5
733 7.88603 11.8214 1.02937 0.5
734 10.1254 11.5514 6.32941 0.5
735 2.98743 5.38102 8.81435 0.5
736 4.51435 4.11405 10.779 0.5
737 4.76792 3.32534 3.73311 0.5
738 2.03033 7.18386 10.95 0.5
739 5.8692 0.302761 7.82514 0.5
740 12.0368 13.1668 8.06475 0.5
741 7.6604 4.27352 5.00188 0.5
742 5.37637 9.1493 1.50231 0.5
743 7.11133 8.15836 5.4587 0.5
744 4.32789 2.55632 12.4918 0.5
745 6.5448 6.51228 12.0055 0.5
746 4.95236 8.63081 9.36719 0.5
747 13.2884 0.36692 11.3108 0.5
748 7.45782 9.37575 7.93479 0.5
749 6.3253 9.37964 3.50631 0.5
750 1.18752 0.585978 0.300503 0.5
751 13.4311 8.32258 12.7846 0.5
752 1.30647 1.28516 13.1075 0.5
753 6.76632 2.18064 0.983597 0.5
754 2.07728 12.454 11.4221 0.5
755 6.90093 3.74626 0.364525 0.5
756 6.47563 7.80337 1.71775 0.5
757 12.0204 7.00126 11.8314 0.5
758 4.39802 12.4642 4.82957 0.5
759 12.5956 8.69016 1.94125 0.5
760 7.10853 4.70725 4.27135 0.5
761 3.39662 11.249 0.704175 0.5
762 13.3843 2.37746 0.308256 0.5
763 11.9044 0.461323 3.50971 0.5
764 9.01335 8.98107 3.09778 0.5
765 12.4173 2.52545 0.476859 0.5
766 7.85161 3.24937 4.86893 0.5
767 3.58811 6.78966 1.51619 0.5
768 12.7583 13.2454 10.7433 0.5
769 11.4926 2.35167 6.10024 0.5
770 11.3458 7.68562 6.12004 0.5
771 7.93296 7.94656 6.13524 0.5
772 1.27204 1.78502 11.0111 0.5
773 9.41028 4.40409 8.24294 0.5
774 9.38362 0.171154 3.02135 0.5
775 10.2103 13.3841 11.2544 0.5
776 3.15539 9.24443 6.62157 0.5
777 11.1602 12.4283 3.95736 0.5
778 11.5691 12.0828 3.07057 0.5
779 7.96416 7.5457 5.27269 0.5
780 2.93717 11.2051 7.98832 0.5
781 13.0283 1.19637 5.49043 0.5
782 11.3066 3.27623 4.21009 0.5
783 0.131311 8.94785 12.0878 0.5
784 2.60282 2.64178 4.74515 0.5
785 10.3284 9.97847 5.57016 0.5
786 8.54936 3.88475 4.59526 0.5
787 6.03396 12.7174 2.75679 0.5
788 11.5892 7.74263 11.1409 0.5
789 9.28337 3.63037 2.47981 0.5
790 8.54651 0.587426 2.67097 0.5
791 5.2552 7.57456 12.287 0.5
792 5.6754 2.7132 7.2845 0.5
793 6.9217 8.61224 3.86449 0.5
794 12.8447 0.633957 3.24568 0.5
795 7.43116 8.00296 4.56296 0.5
796 4.98658 11.2376 9.17326 0.5
797 3.94882 3.99169 11.711 0.5
798 2.55275 3.43569 4.03922 0.5
799 0.177578 0.643652 5.09043 0.5
800 0.638442 7.97835 13.3537 0.5
801 7.40498 5.62746 2.82902 0.5
802 5.44982 10.9447 12.3873 0.5
803 11.2507 10.9387 11.3875 0.5
804 0.234879 5.73943 9.04743 0.5
805 8.82491 8.37664 2.32312 0.5
806 2.60651 7.7312 8.59703 0.5
807 2.79632 4.36722 8.83992 0.5
808 1.92062 8.94722 3.45941 0.5
809 9.22979 5.10503 11.0512 0.5
810 2.97078 11.9985 11.3796 0.5
811 10.3333 7.01684 3.26791 0.5
812 2.20886 8.10094 11.2716 0.5
813 8.07194 5.57219 12.5798 0.5
814 9.70902 0.641918 6.00798 0.5
815 11.7083 12.2556 8.5543 0.5
816 9.19656 7.36039 0.0556955 0.5
817 11.7266 11.058 3.01598 0.5
818 3.46051 10.3404 0.989827 0.5
819 6.62335 13.5014 7.44098 0.5
820 13.311 12.0096 8.78022 0.5
821 11.3194 3.00188 5.20869 0.5
822 9.48532 1.3192 5.31638 0.5
823 10.1068 0.286093 10.2824 0.5
824 1.87243 8.64099 5.76059 0.5
825 7.88807 1.08976 2.09621 0.5
826 7.41182 13.505 8.11074 0.5
827 10.9342 0.287126 1.31732 0.5
828 5.19839 3.44911 2.85742 0.5
829 4.7346 2.28924 7.64227 0.5
830 5.40356 11.8943 8.50659 0.5
831 11.1974 13.4711 7.64855 0.5
832 0.0416592 5.5743 11.0061 0.5
833 2.15879 11.6707 10.9455 0.5
834 9.66913 1.57614 13.1131 0.5
835 0.981501 5.81635 11.2987 0.5
836 7.62342 9.13557 11.0192 0.5
837 7.24548 2.72019 0.276108 0.5
838 12.8954 13.25 11.7422 0.5
839 4.62581 5.11508 2.22145 0.5
840 7.51931 12.9458 13.5564 0.5
841 7.07394 10.9147 6.66422 0.5
842 12.3649 3.75638 10.727 0.5
843 12.2403 2.8415 12.211 0.5
844 5.36101 2.9514 12.564 0.5
845 10.0787 5.7248 5.60094 0.5
846 5.94819 12.2644 10.0857 0.5
847 4.37196 7.54669 6.72231 0.5
848 5.12262 6.72848 12.7981 0.5
849 1.42729 12.3609 6.03298 0.5
850 10.6425 10.4568 12.0488 0.5
851 6.58467 10.0281 6.61742 0.5
852 7.31645 10.2448 7.43238 0.5
853 4.20354 7.91107 9.16866 0.5
854 9.92839 6.16667 3.80662 0.5
855 9.67428 10.4395 2.6889 0.5
856 2.02154 0.182635 3.67903 0.5
857 10.0491 5.02007 10.4174 0.5
858 7.68658 10.2674 8.4031 0.5
859 11.6109 5.26515 5.40474 0.5
860 10.7574 5.00751 5.79075 0.5
861 11.4183 13.1 5.98976 0.5
862 11.0055 7.52269 10.4273 0.5
863 8.09622 8.51297 5.28658 0.5
864 8.28105 6.97146 7.66962 0.5
865 12.0245 3.84816 12.4255 0.5
866 5.3482 13.0721 2.07465 0.5
867 12.3133 4.07297 13.3734 0.5
868 9.23451 9.55733 9.13576 0.5
869 4.37526 13.49 12.6921 0.5
870 3.71801 8.31754 6.71745 0.5
871 13.1412 9.09292 4.47345 0.5
872 0.661137 5.50576 12.8455 0.5
873 13.0702 0.543102 2.31596 0.5
874 7.37734 4.92499 12.3633 0.5
875 7.13295 11.9133 4.30054 0.5
876 2.27257 5.98676 8.7074 0.5
877 10.5808 7.69664 6.81142 0.5
878 2.39285 11.5147 0.430577 0.5
879 1.50474 3.68782 8.01863 0.5
880 12.0233 0.787177 2.51984 0.5
881 10.8279 10.3466 12.998 0.5
882 1.83341 9.7938 3.99951 0.5
883 11.0065 12.0627 0.44671 0.5
884 12.9744 3.27058 0.064931 0.5
885 7.15493 10.8276 10.5835 0.5
886 0.220333 2.91801 7.35051 0.5
887 0.0233053 0.0451724 12.2926 0.5
888 4.69353 4.09241 2.20659 0.5
889 11.187 5.17588 8.91722 0.5
890 11.4039 8.67736 5.72254 0.5
891 1.94852 6.27761 3.32946 0.5
892 9.60753 0.803193 9.58287 0.5
893 10.2389 4.79925 8.76449 0.5
894 7.42597 7.55146 1.13619 0.5
895 11.912 8.66838 1.05641 0.5
896 7.04158 12.2958 0.592799 0.5
897 6.59148 13.4565 3.14081 0.5
898 5.0504 12.8501 3.00547 0.5
899 10.8713 5.34301 8.03067 0.5
900 11.9255 11.0105 9.66241 0.5
901 12.9773 5.3698 10.3243 0.5
902 11.5049 6.92947 8.0257 0.5
903 9.66938 8.42178 2.76866 0.5
904 8.50606 3.82896 5.51061 0.5
905 13.1576 6.82116 6.1763 0.5
906 12.8687 5.35811 3.46269 0.5
907 7.53527 3.20109 10.2722 0.5
908 8.85462 0.549645 5.45951 0.5
909 10.2155 3.19995 2.77325 0.5
910 7.93282 2.98686 7.69026 0.5
911 6.03992 7.14938 12.6996 0.5
912 8.52193 9.49018 11.4632 0.5
913 11.133 5.66713 12.6535 0.5
914 5.21421 12.9865 13.0089 0.5
915 8.15079 2.29771 5.21607 0.5
916 10.5337 8.33173 5.99559 0.5
917 11.9752 13.3574 12.0805 0.5
918 7.52093 6.83311 8.25604 0.5
919 13.0814 12.0595 1.9007 0.5
920 0.425998 11.5452 10.3905 0.5
921 5.66017 6.08743 7.31358 0.5
922 12.252 2.77822 11.0903 0.5
923 0.895875 2.21551 7.95968 0.5
924 11.597 11.5863 10.5044 0.5
925 10.8795 3.62294 2.12642 0.5
926 5.60357 10.576 13.4277 0.5
927 1.97539 7.57175 6.08595 0.5
928 0.423321 6.32645 6.02894 0.5
929 1.42225 2.69045 10.9661 0.5
930 10.1654 9.99076 9.38659 0.5
931 4.59991 9.57839 12.4206 0.5
932 3.75164 9.03235 3.64172 0.5