ITEM: TIMESTEP
250000
ITEM: NUMBER OF ATOMS
1000
ITEM: BOX BOUNDS xy xz yz pp pp pp
0.0000000000000000e+00 1.3572088000000001e+01 0.0000000000000000e+00
0.0000000000000000e+00 1.3572088000000001e+01 0.0000000000000000e+00
0.0000000000000000e+00 1.3572088000000001e+01 0.0000000000000000e+00
ITEM: ATOMS id x y z radius
1 4.13534 4.25146 11.9204 0.5
2 5.87673 10.5845 3.17491 0.5
3 8.5199 10.0462 3.01317 0.5
4 10.4501 5.20742 2.04724 0.5
5 9.15052 7.17882 10.0478 0.5
6 3.62838 13.3104 5.32417 0.5
7 3.09037 8.74394 0.712732 0.5
8 0.192466 11.993 1.7562 0.5
9 1.96609 8.03973 5.65426 0.5
10 3.47689 13.2657 10.2723 0.5
11 0.428779 8.95878 8.85412 0.5
12 11.1087 5.61136 1.17322 0.5
13 9.0554 11.0052 6.00116 0.5
14 10.8485 2.15922 4.22303 0.5
15 5.33561 0.771175 4.60995 0.5
16 7.9997 6.81318 8.46572 0.5
17 7.25317 12.0767 10.6756 0.5
18 2.56617 8.78945 5.93053 0.5
19 9.63075 4.93676 2.40992 0.5
20 9.62026 11.622 3.52376 0.5
21 1.89534 4.80861 1.04054 0.5
22 2.2582 6.53794 11.9955 0.5
23 1.84725 1.14317 9.89494 0.5
24 7.36321 7.36711 2.3243 0.5
25 1.03356 5.85804 2.75045 0.5
26 10.4155 9.53258 6.28786 0.5
27 11.3035 6.73406 12.9396 0.5
28 5.2389 11.2897 11.6734 0.5
29 0.474401 6.21435 1.12727 0.5
30 7.75457 11.0172 1.60203 0.5
31 0.364408 13.3395 8.56935 0.5
32 9.73614 2.477 12.635 0.5
33 0.64179 5.5566 9.87972 0.5
34 3.40562 9.48986 5.81683 0.5
35 11.3546 7.14362 0.31885 0.5
36 9.07047 1.85618 6.5027 0.5
37 13.2026 0.642208 2.52406 0.5
38 2.68282 1.58426 1.87046 0.5
39 10.0473 4.25755 1.7456 0.5
40 6.07691 6.04599 6.89746 0.5
41 8.31752 10.6653 5.43221 0.5
42 6.70713 5.07757 3.30553 0.5
43 5.26747 5.34953 9.68357 0.5
44 4.11228 11.5099 8.279 0.5
45 7.30085 6.29582 2.30354 0.5
46 10.4745 11.1794 0.0120727 0.5
47 2.47313 9.72658 5.39973 0.5
48 8.30259 10.8916 0.616517 0.5
49 6.25956 12.7623 9.2964 0.5
50 6.28077 1.13823 10.6279 0.5
51 13.4569 10.0714 6.63407 0.5
52 5.15461 10.645 6.47549 0.5
53 9.56491 3.45307 1.67595 0.5
54 11.6599 11.2838 3.95329 0.5
55 0.85169 1.60777 6.18265 0.5
56 12.3647 4.80912 2.67362 0.5
57 0.316376 11.2556 11.382 0.5
58 4.98411 8.50511 10.2899 0.5
59 1.70781 10.2029 10.8756 0.5
60 7.33442 5.91572 8.752 0.5
61 4.10345 12.5263 10.7479 0.5
62 1.08685 8.94213 1.28342 0.5
63 12.0407 8.91334 2.41404 0.5
64 12.7877 1.94206 10.4984 0.5
65 12.8331 1.36879 5.44234 0.5
66 12.834 1.93253 1.61121 0.5
67 8.64074 3.00746 7.67395 0.5
68 2.79162 1.65462 2.74821 0.5
69 12.7522 2.41407 11.4728 0.5
70 12.4324 3.88849 10.6336 0.5
71 2.33104 6.65074 8.68153 0.5
72 7.60833 2.74402 10.9264 0.5
73 8.93506 6.43817 8.29665 0.5
74 5.87802 4.5861 10.123 0.5
75 8.65732 0.523912 10.4352 0.5
76 12.6139 3.01899 0.116504 0.5
77 10.3949 2.37931 3.23047 0.5
78 8.689 2.64014 4.67335 0.5
79 4.24985 12.8466 5.88727 0.5
80 5.10156 2.76353 7.57166 0.5
81 1.72159 3.17032 11.5472 0.5
82 1.53488 9.25138 0.350563 0.5
83 3.23279 0.72885 6.87042 0.5
84 12.9695 8.73402 9.03202 0.5
85 13.5053 3.60427 7.07237 0.5
86 2.71756 0.830544 0.364832 0.5
87 4.42602 5.88069 6.49501 0.5
88 6.39085 5.10616 4.27754 0.5
89 11.3063 12.6176 7.40505 0.5
90 4.55221 6.00548 4.34425 0.5
91 11.481 7.64353 12.1903 0.5
92 0.00952028 1.4676 2.12657 0.5
93 12.8853 13.5322 13.1305 0.5
94 4.81178 9.92115 12.4611 0.5
95 12.272 1.85468 8.32495 0.5
96 11.6984 2.63131 4.23588 0.5
97 12.1201 2.85662 5.19021 0.5
98 11.5417 9.95934 0.25145 0.5
99 6.4849 8.56271 9.2654 0.5
100 0.760157 7.22477 5.24827 0.5
101 4.60406 11.7706 2.46138 0.5
102 8.6225 6.8521 10.8108 0.5
103 4.30752 5.58333 10.3318 0.5
104 6.46255 11.309 5.65543 0.5
105 11.3479 12.8903 6.41757 0.5
106 6.0451 1.99545 11.0422 0.5
107 13.57 4.83442 8.20004 0.5
108 13.5047 11.2592 5.39393 0.5
109 0.563715 12.3189 9.96825 0.5
110 8.14364 9.07057 8.6457 0.5
111 8.61223 13.5087 3.51229 0.5
112 5.79663 0.25232 5.34347 0.5
113 0.873166 0.652734 6.49869 0.5
114 7.12508 6.78609 3.18395 0.5
115 6.30419 6.08779 12.4646 0.5
116 0.355802 5.56304 2.05285 0.5
117 1.30073 0.0457555 5.7319 0.5
118 11.0861 8.87511 6.43018 0.5
119 12.0432 7.9995 1.98615 0.5
120 4.96825 9.23824 3.87024 0.5
121 11.0082 0.561105 11.472 0.5
122 2.25608 3.58433 2.24494 0.5
123 12.0149 1.95085 11.0185 0.5
124 11.0727 10.7104 12.0202 0.5
125 5.94791 11.4905 3.83411 0.5
126 11.4007 10.999 0.174758 0.5
127 7.57412 10.0686 11.2756 0.5
128 5.64296 2.59031 6.68162 0.5
129 1.78287 6.65635 11.129 0.5
130 0.876032 11.8088 10.8122 0.5
131 7.63861 2.23785 1.21845 0.5
132 5.37273 12.1913 2.01033 0.5
133 0.812396 10.753 10.5945 0.5
134 10.6991 11.5142 3.78617 0.5
135 12.1287 2.06661 5.76389 0.5
136 7.95842 4.44807 4.22655 0.5
137 3.29501 12.8032 6.11801 0.5
138 7.48559 12.2485 12.9774 0.5
139 5.29057 0.783113 13.1649 0.5
140 5.50247 2.4489 3.29838 0.5
141 1.30401 4.22024 4.88986 0.5
142 9.57014 3.37151 12.9701 0.5
143 0.733709 0.0350185 12.2229 0.5
144 9.57704 13.0261 8.80322 0.5
145 6.49961 6.90691 2.30975 0.5
146 10.1374 8.86196 8.66654 0.5
147 4.62311 6.76384 0.607518 0.5
148 11.6683 0.24425 10.8603 0.5
149 7.7206 6.63763 9.38564 0.5
150 12.1832 11.3782 3.05855 0.5
151 6.88328 11.9871 9.55829 0.5
152 3.47695 4.41184 11.164 0.5
153 11.1132 6.21803 7.90091 0.5
154 2.41829 2.52603 2.18818 0.5
155 2.07156 8.43026 11.2705 0.5
156 7.98124 12.5287 0.202757 0.5
157 1.36324 0.427764 3.41488 0.5
158 1.29651 9.11386 8.47455 0.5
159 3.98384 1.96913 9.08815 0.5
160 9.26799 0.594912 11.2966 0.5
161 13.0985 3.32882 11.0745 0.5
162 7.03182 2.48688 7.79601 0.5
163 11.9506 9.25607 0.765627 0.5
164 9.15349 3.47274 11.4138 0.5
165 7.35032 11.075 10.8999 0.5
166 10.967 13.4993 7.15338 0.5
167 11.6373 6.93381 8.20695 0.5
168 1.8085 3.30386 7.47663 0.5
169 10.9865 11.3905 12.8319 0.5
170 3.81756 6.28569 0.248402 0.5
171 10.4325 4.94733 1.02482 0.5
172 11.4775 7.38116 10.51 0.5
173 9.13063 10.3102 2.27155 0.5
174 3.76275 0.699483 12.4802 0.5
175 2.93718 6.5158 4.22524 0.5
176 4.25477 6.0788 3.29368 0.5
177 8.96756 3.53283 5.26663 0.5
178 5.52407 1.50655 3.78405 0.5
179 13.2857 6.34661 1.84807 0.5
180 8.87396 3.08795 12.27 0.5
181 10.8448 11.2781 9.39655 0.5
182 2.9723 11.961 1.10948 0.5
183 8.4271 7.3638 5.92878 0.5
184 10.5803 4.29209 9.33854 0.5
185 8.36439 1.01172 11.2584 0.5
186 4.00676 8.75949 2.75514 0.5
187 4.51463 0.116817 13.0095 0.5
188 5.12306 6.16139 7.14086 0.5
189 0.382678 10.8773 6.25424 0.5
190 9.32729 12.6524 3.3416 0.5
191 9.42005 7.34465 3.57028 0.5
192 10.194 0.9412 13.3848 0.5
193 12.841 1.40326 11.3211 0.5
194 9.20317 13.2504 10.7967 0.5
195 13.0461 9.87179 12.5478 0.5
196 8.92419 0.536652 4.26332 0.5
197 2.7396 6.73625 7.80958 0.5
198 7.30499 6.07273 12.5452 0.5
199 11.3592 1.84623 8.70808 0.5
200 6.97729 6.86885 1.47543 0.5
201 0.256235 3.8583 8.00499 0.5
202 6.37046 0.387472 7.81436 0.5
203 1.65882 4.06136 1.65498 0.5
204 1.65713 8.11644 8.37548 0.5
205 12.7841 12.9724 3.70815 0.5
206 0.915422 0.952759 10.1117 0.5
207 5.33237 12.3807 7.909 0.5
208 9.50699 5.51629 6.54241 0.5
209 4.87821 2.23736 3.9966 0.5
210 4.2938 6.73648 5.92207 0.5
211 3.81821 4.77389 10.33 0.5
212 3.63463 5.68023 3.96047 0.5
213 3.2073 1.88234 5.27607 0.5
214 10.0154 4.26671 11.584 0.5
215 7.84366 6.81268 1.70482 0.5
216 6.36701 8.46826 0.279402 0.5
217 4.20138 11.6853 4.70379 0.5
218 6.18505 8.1398 4.30065 0.5
219 9.16891 0.742253 3.22152 0.5
220 6.27297 2.01723 9.96424 0.5
221 3.21909 3.7894 4.76366 0.5
222 7.3044 11.8311 5.34824 0.5
223 4.4042 9.59869 3.05884 0.5
224 12.4586 9.21574 4.22313 0.5
225 8.18914 11.6409 10.955 0.5
226 10.4683 6.63601 0.0349447 0.5
227 13.2253 8.33407 10.7713 0.5
228 4.52667 11.9734 5.53305 0.5
229 5.72835 4.28331 6.43246 0.5
230 6.20248 9.43577 8.97639 0.5
231 8.33616 6.03111 8.93412 0.5
232 6.61878 5.12098 12.8033 0.5
233 1.59269 0.179906 9.5549 0.5
234 11.4143 2.05099 5.08367 0.5
235 1.44884 11.2301 3.08828 0.5
236 10.0846 5.91536 1.30711 0.5
237 4.90055 7.80132 6.93309 0.5
238 0.912624 12.7863 5.62496 0.5
239 10.1521 7.63434 4.15834 0.5
240 1.37889 5.23931 12.7784 0.5
241 4.6827 5.83348 0.377873 0.5
242 2.72292 0.775909 2.37229 0.5
243 2.53905 9.91978 3.19192 0.5
244 3.89033 12.0297 6.27652 0.5
245 1.35715 11.1384 11.3991 0.5
246 9.63803 9.48431 8.13766 0.5
247 3.87796 0.650752 10.2572 0.5
248 7.07706 2.8384 1.74564 0.5
249 10.4316 1.91042 13.1358 0.5
250 10.09 1.7957 0.416807 0.5
251 5.10802 9.65596 11.5894 0.5
252 8.6818 8.62853 13.2764 0.5
253 2.16867 8.87979 1.04657 0.5
254 10.8273 2.55627 2.39285 0.5
255 8.99075 9.38151 2.43829 0.5
256 1.50614 12.9455 3.24489 0.5
257 1.10288 4.05414 7.43239 0.5
258 0.713594 5.8162 6.17424 0.5
259 4.39855 4.91381 9.45722 0.5
260 6.61353 11.4285 10.3079 0.5
261 11.4348 3.61213 5.44645 0.5
262 7.35565 10.8604 5.52206 0.5
263 2.95103 4.26643 8.28603 0.5
264 10.6056 10.8276 8.53981 0.5
265 1.78652 4.65451 4.24082 0.5
266 3.75864 0.0540743 6.34015 0.5
267 5.21625 7.56071 8.98123 0.5
268 6.61788 1.99372 1.26464 0.5
269 9.12643 0.35141 8.77184 0.5
270 6.75651 9.64646 8.02098 0.5
271 10.5323 12.4637 6.94572 0.5
272 6.31214 9.42221 0.780131 0.5
273 7.47256 4.51711 3.32256 0.5
274 10.1921 3.44985 8.97034 0.5
275 2.80463 11.1203 0.622796 0.5
276 4.37907 0.0384847 12.0251 0.5
277 7.30234 4.49181 13.1894 0.5
278 10.7703 10.4057 0.648597 0.5
279 9.86455 10.6654 5.43564 0.5
280 4.45199 12.5173 1.84987 0.5
281 6.58694 2.82551 10.5414 0.5
282 0.205355 11.3959 0.919407 0.5
283 4.95689 5.77105 1.93896 0.5
284 2.02103 11.1289 13.5612 0.5
285 3.10787 10.467 5.59249 0.5
286 2.78503 0.687862 12.9319 0.5
287 7.79731 7.11308 6.64836 0.5
288 6.62874 13.3738 5.68406 0.5
289 2.46514 10.9638 3.24799 0.5
290 1.00645 13.2126 6.58742 0.5
291 6.67887 0.699472 5.17278 0.5
292 3.94156 3.50333 12.5747 0.5
293 11.2611 5.79188 4.21538 0.5
294 2.19929 10.4684 5.92808 0.5
295 3.21875 1.30158 6.07379 0.5
296 0.195478 4.52502 7.27546 0.5
297 10.6134 11.5435 11.7653 0.5
298 10.184 4.11589 12.5766 0.5
299 1.84527 0.654627 13.2155 0.5
300 9.05588 4.34026 1.95864 0.5
301 6.1933 7.40023 11.3316 0.5
302 2.39143 8.96858 3.31514 0.5
303 12.748 8.94354 3.17878 0.5
304 1.25831 6.50443 5.805 0.5
305 8.21831 12.988 7.78213 0.5
306 11.4498 8.76494 1.54209 0.5
307 3.01537 7.39262 3.68152 0.5
308 13.4921 9.71785 11.6104 0.5
309 12.7604 13.3981 12.1292 0.5
310 8.97891 13.137 4.39344 0.5
311 0.0933112 5.13217 6.51693 0.5
312 7.61721 11.4827 10.023 0.5
313 0.807221 10.9956 3.84001 0.5
314 5.92008 11.7139 9.56974 0.5
315 12.9179 5.57185 2.48009 0.5
316 8.88427 5.97283 7.32848 0.5
317 12.8583 8.53788 4.80767 0.5
318 12.7423 5.37336 6.45961 0.5
319 10.8572 11.4918 0.906226 0.5
320 6.22412 3.32707 6.4949 0.5
321 2.44575 12.8358 3.14103 0.5
322 9.93417 12.904 1.08437 0.5
323 3.63235 1.35981 2.20609 0.5
324 10.6234 3.25477 2.98406 0.5
325 0.885439 5.95966 13.3491 0.5
326 10.6852 12.9337 0.319009 0.5
327 9.05396 2.43252 8.32258 0.5
328 11.9224 7.4643 13.1539 0.5
329 7.671 3.34775 7.97665 0.5
330 8.33836 1.12671 4.9642 0.5
331 5.37634 3.17324 3.9621 0.5
332 11.9604 2.53751 9.04388 0.5
333 12.6701 1.39924 2.41194 0.5
334 4.21468 5.94243 1.17607 0.5
335 9.7387 0.183677 4.71069 0.5
336 4.45524 1.46364 8.4324 0.5
337 12.1434 1.09528 10.4985 0.5
338 7.8199 5.64517 9.72334 0.5
339 9.81972 3.85063 2.61732 0.5
340 13.0147 4.22659 12.5518 0.5
341 8.26166 0.410595 9.38885 0.5
342 6.3462 0.689606 6.13827 0.5
343 6.89151 5.44078 9.5081 0.5
344 5.54388 6.96572 6.95259 0.5
345 8.34556 8.42346 5.81715 0.5
346 1.20848 7.51913 6.08577 0.5
347 13.0996 11.8619 0.233254 0.5
348 1.63182 4.67223 0.0502148 0.5
349 8.17385 6.4195 5.90562 0.5
350 8.12555 7.25463 10.1066 0.5
351 2.98709 8.93652 11.4927 0.5
352 8.91456 12.5764 7.3075 0.5
353 8.25244 7.74132 2.06335 0.5
354 2.60646 3.39867 5.52318 0.5
355 2.4868 6.98921 2.95519 0.5
356 12.0204 12.9683 4.44363 0.5
357 6.56992 11.9846 3.10587 0.5
358 4.24753 1.63743 10.1253 0.5
359 7.18018 9.21484 8.77927 0.5
360 13.0356 4.43665 6.66674 0.5
361 3.83292 1.17445 7.63801 0.5
362 1.20152 1.12197 9.17951 0.5
363 10.1728 12.1066 0.541756 0.5
364 3.53407 7.81677 0.91371 0.5
365 2.5643 7.93706 0.742473 0.5
366 6.46145 8.75581 8.22261 0.5
367 11.0345 12.0032 0.141836 0.5
368 5.26233 4.37514 9.43339 0.5
369 1.61696 3.37286 5.1796 0.5
370 12.9629 10.7798 6.12326 0.5
371 9.6673 13.5637 3.71317 0.5
372 13.4059 4.65635 3.75695 0.5
373 4.97991 2.95151 12.7081 0.5
374 0.83827 9.12403 13.0395 0.5
375 0.380287 9.4101 7.93312 0.5
376 1.81647 11.4118 3.95694 0.5
377 7.35843 5.2248 4.04189 0.5
378 6.0095 9.29037 13.3952 0.5
379 5.24553 6.05759 1.0776 0.5
380 6.30336 4.36069 13.4308 0.5
381 10.0512 2.67904 8.41774 0.5
382 9.35789 2.75365 9.17259 0.5
383 1.27929 5.57035 0.739991 0.5
384 5.509 10.1869 13.0395 0.5
385 12.9672 11.9136 1.22232 0.5
386 0.29434 4.38345 4.65845 0.5
387 2.56256 5.85189 11.2983 0.5
388 1.22772 1.96164 9.947 0.5
389 5.2216 9.50701 10.5811 0.5
390 4.82632 4.64402 10.2743 0.5
391 7.71853 1.0101 2.20461 0.5
392 0.187252 5.23387 3.00971 0.5
393 2.99775 5.21517 8.87805 0.5
394 9.10478 8.91579 8.6187 0.5
395 1.1921 0.191919 8.69756 0.5
396 13.5165 1.53139 3.12916 0.5
397 7.27455 1.27038 1.34209 0.5
398 8.68207 11.7535 2.95805 0.5
399 0.854088 4.28763 3.91066 0.5
400 6.61442 8.81671 4.97433 0.5
401 9.70403 2.54828 0.025814 0.5
402 5.1265 7.33668 6.03834 0.5
403 7.21226 13.3513 7.64831 0.5
404 10.5254 9.93483 12.1737 0.5
405 11.8662 6.49612 0.962554 0.5
406 6.25182 2.4222 0.469652 0.5
407 2.10064 11.9541 3.17491 0.5
408 2.27212 4.11066 4.94652 0.5
409 3.47422 5.48385 11.0738 0.5
410 11.3092 2.57458 3.30572 0.5
411 4.57415 6.44532 13.1015 0.5
412 4.74581 0.933056 12.3479 0.5
413 3.30781 6.89764 8.6803 0.5
414 2.85415 8.45927 10.5908 0.5
415 8.56369 9.96339 11.1059 0.5
416 9.12276 9.94241 5.69031 0.5
417 1.03448 12.9582 9.26508 0.5
418 9.27446 1.3001 10.6049 0.5
419 3.21982 12.8729 11.0945 0.5
420 3.97382 0.23688 7.26739 0.5
421 13.4158 5.42017 10.5616 0.5
422 8.23728 4.17088 5.15667 0.5
423 12.5257 13.3752 2.88063 0.5
424 2.4195 3.2027 4.55012 0.5
425 8.56075 7.90752 10.6853 0.5
426 0.885983 12.5308 7.34315 0.5
427 7.03221 2.84978 0.742733 0.5
428 0.0808783 8.05363 8.7838 0.5
429 10.0616 5.19328 9.12882 0.5
430 8.45995 13.5683 11.3472 0.5
431 2.40644 5.14175 8.08028 0.5
432 13.0933 2.27357 2.56725 0.5
433 7.87782 11.4987 13.5683 0.5
434 13.2989 4.27784 0.937787 0.5
435 11.8647 9.69777 1.76113 0.5
436 6.89603 4.47127 9.80091 0.5
437 4.33724 9.25918 6.2743 0.5
438 6.09548 3.03737 7.50174 0.5
439 11.0708 10.5525 10.1123 0.5
440 9.76864 10.3443 6.38561 0.5
441 5.78163 13.3818 6.24303 0.5
442 1.75006 7.10875 5.28544 0.5
443 1.03968 11.9423 1.08943 0.5
444 9.65092 8.80656 13.5008 0.5
445 4.88099 8.64376 3.08587 0.5
446 3.66597 6.16686 4.88387 0.5
447 1.71503 9.48469 6.04933 0.5
448 5.37659 9.87589 0.483136 0.5
449 3.92731 13.5691 11.0364 0.5
450 2.77132 2.38618 1.28831 0.5
451 6.31326 3.51062 0.478906 0.5
452 2.274 8.63191 0.0495808 0.5
453 5.05444 10.2337 3.56881 0.5
454 3.00746 0.0729659 3.16287 0.5
455 2.08361 2.19826 11.3106 0.5
456 8.54738 13.1172 8.81513 0.5
457 12.401 11.7927 8.97777 0.5
458 4.03678 1.0277 9.31049 0.5
459 12.9937 2.35866 5.30263 0.5
460 12.3345 7.28586 0.508301 0.5
461 11.5372 8.09051 11.2509 0.5
462 10.7784 2.25414 7.80812 0.5
463 6.91661 3.40434 7.27418 0.5
464 12.2844 8.74623 10.9468 0.5
465 5.62976 10.3842 12.01 0.5
466 2.99689 13.402 7.01986 0.5
467 1.57435 8.26692 0.704813 0.5
468 13.376 8.12092 9.81019 0.5
469 2.3926 2.93151 10.7324 0.5
470 1.66517 5.74681 11.8734 0.5
471 4.85589 0.791221 9.88688 0.5
472 10.857 6.76068 4.23318 0.5
473 11.7701 6.65527 7.26926 0.5
474 1.73588 7.37699 8.92045 0.5
475 6.83948 4.18177 6.39927 0.5
476 6.74161 1.44698 11.4607 0.5
477 5.61288 8.05538 9.69994 0.5
478 3.07712 12.721 0.498096 0.5
479 8.4993 7.71784 0.173296 0.5
480 3.9215 10.4553 8.18223 0.5
481 2.0396 3.85789 0.730093 0.5
482 10.6277 13.5622 1.19438 0.5
483 8.35019 10.9539 2.44634 0.5
484 9.78759 6.75393 4.25923 0.5
485 4.06319 5.26976 1.98249 0.5
486 3.34553 10.9942 8.79774 0.5
487 4.50565 2.54266 8.39283 0.5
488 6.2707 4.94306 6.8626 0.5
489 3.49912 0.913561 3.08447 0.5
490 0.291902 12.3736 8.86083 0.5
491 2.73931 6.85977 11.1885 0.5
492 0.745077 5.8762 12.3584 0.5
493 11.5424 8.39653 10.3684 0.5
494 7.06709 4.22944 0.441982 0.5
495 6.60436 7.61878 0.836516 0.5
496 6.2495 13.317 12.9826 0.5
497 5.47333 4.591 7.36836 0.5
498 3.64084 12.2846 5.31979 0.5
499 6.8413 2.43201 11.4721 0.5
500 10.5285 8.80728 5.53127 0.5
501 5.23204 1.66721 4.77818 0.5
502 9.69385 10.4357 8.63878 0.5
503 8.32944 4.88678 13.1212 0.5
504 2.31968 1.53897 13.2787 0.5
505 4.57688 3.35421 11.7614 0.5
506 3.76531 11.193 1.15834 0.5
507 7.70064 3.61561 3.74607 0.5
508 0.271663 1.61088 5.31931 0.5
509 5.39152 5.3098 6.57589 0.5
510 8.25438 10.7528 11.4767 0.5
511 6.58909 13.5504 6.83515 0.5
512 8.18885 10.9474 3.33621 0.5
513 4.69451 3.78935 2.65123 0.5
514 5.99579 8.52926 1.18452 0.5
515 1.88167 10.4554 2.5853 0.5
516 5.52056 9.53695 2.96627 0.5
517 0.825736 3.44888 4.55379 0.5
518 1.76625 7.12517 7.9499 0.5
519 4.65924 7.65014 9.91633 0.5
520 1.66903 1.2998 0.444717 0.5
521 11.154 5.55598 5.13119 0.5
522 2.23411 9.31667 10.9277 0.5
523 13.343 7.8418 4.27014 0.5
524 0.943149 0.876933 5.48009 0.5
525 11.0342 9.44441 1.1092 0.5
526 8.94545 12.3383 8.27172 0.5
527 7.89129 10.1683 1.05505 0.5
528 0.849823 0.864991 0.104358 0.5
529 13.5056 12.8319 13.5736 0.5
530 12.3603 2.81824 10.531 0.5
531 10.6619 8.08056 10.6485 0.5
532 5.73905 8.99272 4.53433 0.5
533 5.41139 7.72034 10.6962 0.5
534 1.67069 12.1532 11.3406 0.5
535 7.92089 13.2262 13.0571 0.5
536 1.9531 12.4657 3.99904 0.5
537 2.57757 10.4563 9.16182 0.5
538 8.73751 10.7459 1.52862 0.5
539 2.37317 7.97728 3.1411 0.5
540 1.20359 3.62869 8.32762 0.5
541 3.68258 11.8381 1.90024 0.5
542 7.18102 0.384419 12.8665 0.5
543 13.5058 6.0729 6.85867 0.5
544 8.00031 2.44722 8.26428 0.5
545 1.66413 6.60113 2.44111 0.5
546 0.969807 0.832179 12.6706 0.5
547 10.3462 4.92195 5.17174 0.5
548 12.0052 13.3344 7.05512 0.5
549 13.3928 10.2587 7.61739 0.5
550 12.4905 12.3438 3.05218 0.5
551 6.77287 0.862515 2.19314 0.5
552 3.97261 7.22373 13.5695 0.5
553 11.0701 5.24563 9.45492 0.5
554 3.86131 12.8299 6.94269 0.5
555 0.0705404 3.67752 3.98873 0.5
556 7.01708 13.0258 12.5601 0.5
557 7.33436 11.0202 0.650163 0.5
558 4.90904 1.61548 9.34026 0.5
559 2.96655 10.226 8.27527 0.5
560 7.042 3.44257 11.1978 0.5
561 8.57159 8.26464 11.6745 0.5
562 13.4278 3.39107 0.40026 0.5
563 8.70992 6.67145 6.63877 0.5
564 7.88954 4.92501 0.391591 0.5
565 9.57406 4.31101 5.51727 0.5
566 7.05341 1.93196 10.6925 0.5
567 11.8296 5.46798 3.34284 0.5
568 7.72183 1.91332 11.4448 0.5
569 11.3662 6.60792 11.9494 0.5
570 13.2636 8.09553 3.28814 0.5
571 2.40686 0.894066 3.32188 0.5
572 3.55073 3.62501 13.5014 0.5
573 0.343307 13.548 5.88197 0.5
574 9.09639 8.08753 3.09294 0.5
575 8.54936 12.8479 2.759 0.5
576 3.23136 11.0878 7.89028 0.5
577 3.36424 9.35354 3.21632 0.5
578 2.00176 11.6428 0.924719 0.5
579 0.134157 8.98551 12.4323 0.5
580 2.76427 5.692 7.38976 0.5
581 1.15023 12.8283 8.34819 0.5
582 3.2789 11.9125 11.1167 0.5
583 2.9278 11.1234 13.2064 0.5
584 10.3776 5.90553 4.69206 0.5
585 13.092 5.26607 7.39038 0.5
586 13.2361 5.50919 9.56763 0.5
587 12.797 2.91823 1.8581 0.5
588 0.0334087 13.0633 12.5684 0.5
589 13.2454 9.59934 8.52697 0.5
590 3.09279 11.8875 8.48293 0.5
591 3.63299 3.53955 11.6303 0.5
592 10.9291 11.0814 11.0172 0.5
593 5.33566 9.71791 6.26441 0.5
594 13.3534 11.7305 6.30716 0.5
595 12.4579 11.3982 6.71609 0.5
596 9.56405 9.87811 3.11687 0.5
597 2.54273 9.5058 8.87852 0.5
598 8.04545 11.448 4.83899 0.5
599 11.5628 11.3259 8.63007 0.5
600 12.1418 6.49236 13.4852 0.5
601 3.57821 5.49342 2.94729 0.5
602 0.380137 5.14506 9.06748 0.5
603 2.21948 7.58818 10.7372 0.5
604 5.38254 1.576 10.3284 0.5
605 7.68969 2.82769 11.8801 0.5
606 11.4751 8.67092 5.58903 0.5
607 8.79043 9.98429 8.64105 0.5
608 7.85703 0.0514091 12.1819 0.5
609 1.5065 12.0032 0.111643 0.5
610 0.707579 8.4559 8.01253 0.5
611 13.2767 8.68195 8.12699 0.5
612 5.50684 13.3178 3.22189 0.5
613 4.18218 5.28394 4.79292 0.5
614 4.50956 13.4367 10.1842 0.5
615 3.5576 10.0297 9.09948 0.5
616 0.742453 6.62287 2.07558 0.5
617 6.55583 6.03596 2.87682 0.5
618 10.6788 7.03128 8.44893 0.5
619 12.2196 4.51288 13.0817 0.5
620 0.682433 10.424 11.507 0.5
621 1.64871 3.6972 4.17418 0.5
622 5.6828 8.53386 8.79329 0.5
623 12.4398 7.67926 4.74241 0.5
624 0.113405 6.20289 2.72123 0.5
625 1.69144 3.57688 10.6956 0.5
626 2.55318 4.03764 1.44383 0.5
627 10.4187 5.73791 0.425609 0.5
628 13.2874 4.34898 10.7609 0.5
629 5.20785 2.91423 2.50541 0.5
630 2.90113 3.36206 0.735108 0.5
631 9.36362 0.947165 0.331536 0.5
632 6.51115 12.3932 13.199 0.5
633 10.3043 0.883969 0.799681 0.5
634 10.3061 10.4654 9.43737 0.5
635 9.47562 1.65068 13.1985 0.5
636 9.86691 3.28228 12.0473 0.5
637 13.3578 11.0907 7.09486 0.5
638 5.92213 1.26312 5.45285 0.5
639 8.56314 6.43659 9.84063 0.5
640 2.75343 4.61275 7.23533 0.5
641 7.46471 7.11715 5.6382 0.5
642 10.8354 6.58097 0.925695 0.5
643 11.5237 1.59708 7.59486 0.5
644 7.3885 3.48093 10.2406 0.5
645 0.693753 11.802 5.82424 0.5
646 9.24595 8.57726 12.5093 0.5
647 8.6351 4.92632 12.1685 0.5
648 8.18068 9.84287 11.9888 0.5
649 5.25537 7.2595 11.6688 0.5
650 3.14078 0.462357 7.83351 0.5
651 13.3259 5.84541 5.87374 0.5
652 5.36695 3.56206 6.95774 0.5
653 1.25862 5.97725 1.75841 0.5
654 4.38112 10.0363 10.8983 0.5
655 11.5375 12.0169 9.29019 0.5
656 1.16746 11.0718 0.509586 0.5
657 11.6608 0.560072 7.41055 0.5
658 10.0235 9.68548 5.45481 0.5
659 0.95784 10.3131 3.01085 0.5
660 0.584718 0.352101 9.43655 0.5
661 0.865803 7.48257 8.28602 0.5
662 3.65593 11.3213 5.60238 0.5
663 5.80996 12.4335 3.55598 0.5
664 5.22749 6.28815 6.14879 0.5
665 10.2213 10.7431 3.37926 0.5
666 6.38347 12.4135 10.2011 0.5
667 9.96741 4.25946 8.47621 0.5
668 4.65811 3.06096 3.32414 0.5
669 8.15222 10.0853 2.02922 0.5
670 8.99041 13.3731 7.97024 0.5
671 7.00238 8.52323 1.0966 0.5
672 3.24302 2.80127 5.03125 0.5
673 5.36079 8.87345 0.498065 0.5
674 3.21193 7.47696 10.6072 0.5
675 2.59344 3.80471 11.2656 0.5
676 1.99145 0.106679 2.80267 0.5
677 3.28844 8.37664 3.29753 0.5
678 12.364 7.81336 10.6234 0.5
679 10.4743 13.3509 6.3242 0.5
680 4.57573 11.7078 1.43312 0.5
681 3.45117 1.25776 8.52976 0.5
682 1.77331 2.80818 9.93262 0.5
683 1.29349 6.65556 11.8889 0.5
684 11.7748 12.9434 3.5488 0.5
685 12.2753 12.0621 4.00505 0.5
686 10.9631 7.27778 11.3137 0.5
687 4.96667 9.39467 13.2336 0.5
688 1.16088 8.59837 5.89834 0.5
689 3.05468 3.17821 1.7565 0.5
690 4.22362 8.43212 6.98225 0.5
691 13.3073 10.5894 11.8563 0.5
692 4.30461 1.1604 13.1731 0.5
693 11.9472 6.02147 12.5593 0.5
694 5.63286 9.01977 9.69644 0.5
695 12.2844 8.06659 2.93242 0.5
696 11.0291 2.85529 8.69677 0.5
697 12.9964 9.42734 7.45456 0.5
698 5.93624 10.5158 5.90525 0.5
699 3.28487 8.03714 0.0393552 0.5
700 12.5402 8.27858 3.92042 0.5
701 9.33043 7.83853 13.2397 0.5
702 3.7282 2.14409 8.15993 0.5
703 1.91588 5.65416 13.4995 0.5
704 8.48599 3.20952 8.69677 0.5
705 11.2079 7.83284 8.18411 0.5
706 7.25522 11.5513 6.29067 0.5
707 3.82596 4.60432 8.69546 0.5
708 0.0759992 2.38303 1.78657 0.5
709 9.94026 0.0760498 0.398863 0.5
710 6.80364 6.00516 3.88908 0.5
711 0.346964 0.111481 13.2168 0.5
712 11.9412 2.01222 9.98048 0.5
713 8.54788 9.36565 7.8689 0.5
714 12.9479 4.19861 7.63319 0.5
715 13.3346 8.88018 3.95705 0.5
716 2.1972 2.02712 10.3604 0.5
717 3.03863 7.09044 0.498167 0.5
718 11.7802 0.886601 8.34717 0.5
719 4.61357 10.5401 11.6926 0.5
720 12.8916 11.7728 2.21561 0.5
721 10.7421 4.88185 8.51361 0.5
722 5.41188 13.526 13.559 0.5
723 2.67504 11.5745 9.26751 0.5
724 9.06587 13.4449 9.73236 0.5
725 2.3635 1.77465 5.92951 0.5
726 7.79824 2.66212 7.16097 0.5
727 4.58656 3.48232 13.4521 0.5
728 12.2699 1.94664 4.74933 0.5
729 9.58381 5.06459 1.45636 0.5
730 8.52986 5.59443 6.47822 0.5
731 10.8889 0.340226 0.253692 0.5
732 2.31235 3.48445 8.35972 0.5
733 7.85428 11.7892 0.929406 0.5
734 10.0572 11.2769 6.16442 0.5
735 3.0252 5.9968 8.30001 0.5
736 4.32363 4.92725 11.2093 0.5
737 5.54883 3.56695 3.138 0.5
738 2.0326 7.4366 11.6427 0.5
739 7.1136 0.508441 8.42206 0.5
740 12.0617 1.43548 9.17527 0.5
741 7.44894 3.67759 4.75612 0.5
742 5.42471 9.32262 1.42955 0.5
743 6.8875 7.99366 5.50103 0.5
744 4.83399 3.92626 12.521 0.5
745 8.26678 5.82171 12.7096 0.5
746 4.7809 8.37981 9.3345 0.5
747 12.05 12.9598 11.0855 0.5
748 7.50468 8.89894 7.96887 0.5
749 5.96362 9.72814 3.81097 0.5
750 1.31479 1.59391 13.1432 0.5
751 0.174829 8.40843 13.2184 0.5
752 1.9695 1.07567 12.4173 0.5
753 7.10869 1.83413 0.446801 0.5
754 2.62684 12.3069 11.7156 0.5
755 5.38997 2.99524 0.515523 0.5
756 6.63643 7.79113 1.79127 0.5
757 12.2113 6.89847 12.4411 0.5
758 4.38241 12.6736 4.89037 0.5
759 12.9566 8.38978 2.31646 0.5
760 6.93183 4.28382 4.08278 0.5
761 3.48553 11.7543 0.23978 0.5
762 0.0755188 3.36023 1.45518 0.5
763 12.2024 0.216493 3.80711 0.5
764 8.88037 9.12336 3.39583 0.5
765 13.0673 2.59238 0.912945 0.5
766 7.74413 2.8269 4.39246 0.5
767 3.72349 6.81386 1.05426 0.5
768 11.1085 13.118 11.2361 0.5
769 11.3201 2.7016 5.7814 0.5
770 11.2887 7.25609 6.5771 0.5
771 7.67677 7.93635 6.21019 0.5
772 1.44836 1.53382 10.7659 0.5
773 9.39372 3.37065 8.30967 0.5
774 9.35592 13.5081 2.74387 0.5
775 10.2295 0.0502531 11.1487 0.5
776 2.69653 9.6513 6.31308 0.5
777 11.312 12.1714 4.2267 0.5
778 11.5067 11.9796 3.2997 0.5
779 7.86291 7.85622 5.22293 0.5
780 2.42265 11.0795 8.48191 0.5
781 13.467 1.90178 6.14188 0.5
782 10.7723 3.01644 3.91455 0.5
783 0.348072 9.89241 12.3905 0.5
784 2.31302 2.43653 5.21489 0.5
785 11.1136 9.54281 5.6422 0.5
786 8.40919 3.58288 4.4253 0.5
787 5.97774 12.6604 2.59229 0.5
788 11.9388 7.20309 11.4176 0.5
789 8.87919 3.39259 2.49669 0.5
790 8.35548 0.360217 2.68878 0.5
791 6.18378 7.10253 12.2557 0.5
792 6.68155 2.51029 6.92983 0.5
793 6.57995 9.03859 4.0092 0.5
794 12.2818 0.524184 2.36874 0.5
795 7.18951 8.24482 4.5432 0.5
796 4.337 10.8323 9.03871 0.5
797 4.39843 4.04767 10.9296 0.5
798 1.61635 2.69747 4.41843 0.5
799 0.0666393 0.92626 6.00139 0.5
800 1.26385 8.26149 13.4195 0.5
801 7.52156 5.69882 3.20832 0.5
802 4.9612 10.8872 12.5823 0.5
803 10.1234 10.7286 11.5182 0.5
804 0.0550038 6.33966 10.1014 0.5
805 9.73456 8.89762 2.84802 0.5
806 2.52876 7.59895 8.40356 0.5
807 3.38297 5.11632 7.892 0.5
808 1.60614 9.55951 3.01524 0.5
809 9.61527 4.94675 12.0823 0.5
810 2.47276 12.343 10.7509 0.5
811 10.3202 6.9897 3.37186 0.5
812 2.87367 7.92103 11.4883 0.5
813 7.66598 5.09345 12.3857 0.5
814 9.69043 0.295328 5.74401 0.5
815 11.8492 12.3101 8.25245 0.5
816 8.52563 7.50588 1.1386 0.5
817 11.2126 10.9924 3.09035 0.5
818 3.71071 10.771 0.279925 0.5
819 6.32886 12.8065 7.55511 0.5
820 0.0358963 13.0902 9.51579 0.5
821 11.0747 2.99126 4.87558 0.5
822 9.31382 0.969282 5.04543 0.5
823 9.69597 0.485964 10.3879 0.5
824 1.83783 8.96942 5.20586 0.5
825 8.18132 1.58425 1.69773 0.5
826 6.63154 13.1747 8.42845 0.5
827 11.2779 0.678524 1.14434 0.5
828 4.81088 4.02899 3.63765 0.5
829 4.48763 1.94496 7.54436 0.5
830 5.44046 12.256 8.95558 0.5
831 11.5841 13.3501 8.00419 0.5
832 13.121 4.59329 9.138 0.5
833 2.33335 11.5186 11.3616 0.5
834 9.14322 1.88429 0.646997 0.5
835 1.55517 6.25018 12.7094 0.5
836 7.97452 9.09915 11.3417 0.5
837 5.57564 3.6464 13.3021 0.5
838 11.8387 0.000892609 11.8219 0.5
839 4.74317 5.10125 1.22854 0.5
840 7.13677 13.0346 0.00338429 0.5
841 6.17497 11.1584 6.62145 0.5
842 12.8295 4.00925 11.5939 0.5
843 13.3984 3.45094 12.9286 0.5
844 4.10582 4.3401 13.0604 0.5
845 10.0757 4.8188 6.30503 0.5
846 6.30745 12.3061 8.41874 0.5
847 4.1214 7.60636 6.29778 0.5
848 5.32219 6.5645 12.4265 0.5
849 0.321532 12.5196 6.46067 0.5
850 10.2689 10.8469 12.5198 0.5
851 6.81417 10.5877 6.35736 0.5
852 6.0084 10.2304 6.88518 0.5
853 4.13804 7.60488 9.07239 0.5
854 10.3693 6.06799 3.75943 0.5
855 9.17042 10.8027 3.17463 0.5
856 2.13941 13.5301 3.78542 0.5
857 9.8833 5.14705 11.141 0.5
858 7.80587 9.92585 8.20145 0.5
859 11.0577 5.08753 5.99183 0.5
860 10.6436 4.11216 5.83938 0.5
861 11.3975 0.337722 6.43653 0.5
862 11.4152 6.45993 10.913 0.5
863 7.4586 8.72708 5.48189 0.5
864 8.3214 6.78568 7.53216 0.5
865 12.3889 3.50473 12.8929 0.5
866 5.24991 13.1629 2.17816 0.5
867 11.9264 3.78927 0.228595 0.5
868 9.65835 9.61893 9.12037 0.5
869 3.64587 0.523106 13.559 0.5
870 3.67101 8.61289 6.15361 0.5
871 11.8979 8.53669 4.68451 0.5
872 0.599477 6.82612 12.7342 0.5
873 12.9586 0.846816 1.61783 0.5
874 7.50105 5.51427 13.2749 0.5
875 8.14946 11.4934 5.84289 0.5
876 2.0205 6.00949 7.98575 0.5
877 11.8529 7.70194 7.43504 0.5
878 2.51641 11.9745 0.0990905 0.5
879 2.77675 3.67041 7.40153 0.5
880 12.0189 1.28412 1.68768 0.5
881 10.9355 10.3606 13.0395 0.5
882 1.70013 10.4233 3.63566 0.5
883 10.8256 12.4935 1.1984 0.5
884 12.7018 3.56881 1.02943 0.5
885 8.16156 10.6758 10.5284 0.5
886 0.773956 3.09576 7.5896 0.5
887 13.4711 0.538032 12.4474 0.5
888 4.78679 4.81835 2.31398 0.5
889 11.0474 3.90315 8.57358 0.5
890 11.7096 8.0693 6.44516 0.5
891 3.30072 6.39359 3.33352 0.5
892 9.17177 0.868194 9.63979 0.5
893 10.3965 3.42456 7.97379 0.5
894 7.50616 7.72633 1.3803 0.5
895 12.4282 8.83828 1.53846 0.5
896 7.09603 12.0199 0.363555 0.5
897 6.59072 13.089 3.23261 0.5
898 5.00239 12.514 2.87426 0.5
899 10.3628 4.96381 10.1929 0.5
900 11.851 11.0513 9.59173 0.5
901 0.147805 4.70808 9.92471 0.5
902 10.7998 5.98171 8.74986 0.5
903 9.65571 8.473 3.79738 0.5
904 8.10148 3.10609 5.22936 0.5
905 0.521402 6.22399 5.27576 0.5
906 12.7377 5.33596 3.42387 0.5
907 6.56646 3.92499 10.4922 0.5
908 8.80344 0.173994 5.22594 0.5
909 9.8685 2.84251 2.36624 0.5
910 8.54266 2.04101 7.47757 0.5
911 6.86702 6.69623 11.8382 0.5
912 8.92352 9.21544 11.6619 0.5
913 11.2496 6.14611 0.244269 0.5
914 4.68069 0.603676 0.352586 0.5
915 8.03968 2.09537 5.18354 0.5
916 11.0003 8.11017 7.18606 0.5
917 11.9214 0.97798 11.5551 0.5
918 8.09637 5.94606 7.93387 0.5
919 0.140549 12.3084 0.839966 0.5
920 0.133683 11.4118 10.329 0.5
921 5.83955 6.62235 7.6741 0.5
922 12.9846 3.189 12.0641 0.5
923 1.54137 2.73213 8.18482 0.5
924 11.2938 11.6042 10.1812 0.5
925 10.5933 3.47905 1.9973 0.5
926 4.65653 10.3602 13.4577 0.5
927 1.27729 8.02141 5.05025 0.5
928 0.418139 6.71251 6.13719 0.5
929 1.38038 2.53345 10.7761 0.5
930 10.5638 9.85591 8.61609 0.5
931 5.62583 9.41847 12.4408 0.5
932 4.03713 8.82528 3.65537 0.5