ITEM: TIMESTEP
910000
ITEM: NUMBER OF ATOMS
1000
ITEM: BOX BOUNDS xy xz yz pp pp pp
0.0000000000000000e+00 1.3572088000000001e+01 0.0000000000000000e+00
0.0000000000000000e+00 1.3572088000000001e+01 0.0000000000000000e+00
0.0000000000000000e+00 1.3572088000000001e+01 0.0000000000000000e+00
ITEM: ATOMS id x y z radius
1 4.29656 3.24223 12.3882 0.5
2 4.49838 11.8562 4.70996 0.5
3 9.47391 10.5854 3.44948 0.5
4 10.1341 5.78038 0.9259 0.5
5 8.61809 7.24003 10.0629 0.5
6 3.41576 12.9654 5.99568 0.5
7 3.16394 8.34853 1.18543 0.5
8 12.4111 11.6031 2.27075 0.5
9 2.18891 8.43525 6.61952 0.5
10 3.54582 13.5242 11.9466 0.5
11 0.0833082 8.92014 8.88432 0.5
12 10.3623 5.95569 13.4401 0.5
13 7.41531 10.8929 4.83377 0.5
14 10.31 2.87221 4.03011 0.5
15 6.30627 0.898699 5.23261 0.5
16 7.39275 6.48284 9.10808 0.5
17 6.46879 11.485 10.3871 0.5
18 3.16338 8.53697 6.27284 0.5
19 10.5103 5.00669 1.3161 0.5
20 10.8587 12.1786 3.4816 0.5
21 2.09529 4.85642 1.19167 0.5
22 1.2499 6.48109 12.3832 0.5
23 1.71324 1.70051 10.0601 0.5
24 7.473 7.71123 1.92732 0.5
25 0.30238 6.38094 2.45596 0.5
26 10.75 10.448 5.99507 0.5
27 11.3584 5.95818 11.1887 0.5
28 4.67619 11.5229 11.9642 0.5
29 12.6417 5.83509 1.23833 0.5
30 8.94333 10.957 1.90781 0.5
31 0.650549 0.0399099 8.29267 0.5
32 9.29331 2.57518 12.347 0.5
33 0.0990846 5.87985 9.3528 0.5
34 4.02834 8.9403 5.97072 0.5
35 12.3579 6.23987 13.12 0.5
36 8.60878 2.20054 5.02765 0.5
37 13.5291 1.32195 2.57187 0.5
38 2.24877 1.60941 2.25529 0.5
39 10.1294 4.14081 0.903932 0.5
40 5.83142 5.5564 5.46427 0.5
41 6.81999 10.8061 5.62425 0.5
42 7.54744 5.42235 2.7834 0.5
43 5.6568 5.204 10.7036 0.5
44 3.87451 10.9742 8.36061 0.5
45 7.89392 6.75375 1.84451 0.5
46 9.89159 10.9884 0.090477 0.5
47 3.20916 9.4763 5.79391 0.5
48 8.25376 10.4757 1.27564 0.5
49 6.3806 11.7585 9.37156 0.5
50 4.99975 0.307848 11.1431 0.5
51 13.5086 9.94438 7.22478 0.5
52 6.04516 9.56709 7.51539 0.5
53 9.26317 4.20554 1.72053 0.5
54 11.7522 12.035 3.83507 0.5
55 13.1995 0.47795 5.16391 0.5
56 13.0207 3.38992 3.82968 0.5
57 0.199144 10.5256 11.8673 0.5
58 5.90186 8.71277 10.821 0.5
59 1.65533 10.9441 11.4039 0.5
60 6.64131 5.00188 9.17528 0.5
61 4.03762 0.529798 11.2907 0.5
62 1.3793 8.07324 0.353783 0.5
63 11.8757 8.79624 1.90179 0.5
64 11.944 2.07343 9.5723 0.5
65 0.562103 1.80048 5.35677 0.5
66 12.2576 1.49986 1.50221 0.5
67 7.98412 2.34868 8.71346 0.5
68 2.69544 1.23441 3.06066 0.5
69 11.4936 2.53463 10.3315 0.5
70 12.6902 3.56989 9.75743 0.5
71 3.70644 6.16999 8.23086 0.5
72 7.23133 1.98624 11.1092 0.5
73 7.9129 6.22566 8.27471 0.5
74 5.69654 4.67266 9.80161 0.5
75 8.53483 0.424166 10.5103 0.5
76 12.1047 3.52294 12.9195 0.5
77 9.8641 3.29585 3.21723 0.5
78 8.74514 3.10704 5.55121 0.5
79 4.17728 12.4377 6.21556 0.5
80 4.61333 2.14889 9.14479 0.5
81 1.65518 3.59367 11.5822 0.5
82 1.23949 8.90413 13.4222 0.5
83 3.53992 0.402837 6.13494 0.5
84 0.41711 8.18963 8.28903 0.5
85 13.3229 4.50024 6.19919 0.5
86 2.46523 1.23435 12.9836 0.5
87 4.15562 6.04412 5.12246 0.5
88 7.13947 6.18437 3.23845 0.5
89 11.8374 12.9439 7.60462 0.5
90 3.44468 5.87683 4.3678 0.5
91 11.6119 6.77735 10.8111 0.5
92 13.1901 1.70913 1.62111 0.5
93 13.1075 0.634916 11.9292 0.5
94 4.78299 10.8532 12.7327 0.5
95 11.9115 1.8507 7.9294 0.5
96 11.269 2.62728 3.9221 0.5
97 11.6561 2.73433 4.94953 0.5
98 10.5901 9.50042 0.309739 0.5
99 6.82688 8.73549 9.68674 0.5
100 1.00989 7.50474 6.26977 0.5
101 4.48064 11.7343 2.76202 0.5
102 8.35095 6.76158 9.22594 0.5
103 4.31823 4.60738 11.2606 0.5
104 7.24001 10.8174 6.50976 0.5
105 11.8095 12.73 6.6336 0.5
106 5.81867 1.02074 10.9693 0.5
107 13.1814 6.02126 6.62616 0.5
108 13.1486 10.9149 5.84251 0.5
109 0.817122 12.2771 9.33683 0.5
110 8.45574 9.14201 8.70354 0.5
111 8.25822 13.4103 3.26942 0.5
112 5.32155 0.877792 5.25919 0.5
113 1.15026 0.388714 5.75429 0.5
114 7.39752 7.00288 2.68955 0.5
115 5.58815 6.6522 12.3576 0.5
116 12.3205 5.47716 2.14431 0.5
117 0.836914 1.22639 6.12844 0.5
118 11.5388 10.1992 5.4568 0.5
119 12.8304 8.58521 1.60186 0.5
120 5.71826 9.079 4.10459 0.5
121 12.0413 13.0961 10.6682 0.5
122 1.59961 3.49811 2.32457 0.5
123 11.8341 2.52324 8.70787 0.5
124 10.1741 11.5746 11.2925 0.5
125 4.71539 12.0798 3.70744 0.5
126 10.9526 10.9333 13.3282 0.5
127 8.06592 10.2902 10.933 0.5
128 6.5365 2.94037 7.44689 0.5
129 2.1882 6.63735 12.7888 0.5
130 0.213675 11.4852 11.8056 0.5
131 8.16397 2.13203 1.81144 0.5
132 5.32114 11.4814 3.23463 0.5
133 0.703262 10.9324 11.0588 0.5
134 11.6057 12.0442 2.78618 0.5
135 11.7719 3.10746 5.89698 0.5
136 7.2943 4.81613 4.35928 0.5
137 3.39113 12.3942 6.87003 0.5
138 7.41453 11.9468 13.5173 0.5
139 5.52679 13.1586 0.789158 0.5
140 5.48282 3.19123 3.39492 0.5
141 1.43061 3.38989 4.28262 0.5
142 10.0469 3.30151 12.1183 0.5
143 13.3694 11.7357 13.4787 0.5
144 9.12968 12.8125 8.84096 0.5
145 6.94628 6.96886 1.72197 0.5
146 10.2617 8.77527 8.56569 0.5
147 4.51858 6.09683 0.103663 0.5
148 12.582 0.1248 11.282 0.5
149 7.87333 6.41014 10.0099 0.5
150 12.8299 11.8626 3.88183 0.5
151 6.90931 12.3753 9.96063 0.5
152 3.85169 3.73391 11.6021 0.5
153 11.5442 7.48317 7.42608 0.5
154 1.94164 2.51837 2.3152 0.5
155 2.6201 7.90303 10.6501 0.5
156 8.34269 12.0582 0.426056 0.5
157 1.08906 0.159688 3.28102 0.5
158 1.35996 10.039 8.47937 0.5
159 3.08621 1.31949 9.48749 0.5
160 9.25221 0.616372 11.0932 0.5
161 12.516 2.63529 10.1639 0.5
162 7.50476 2.63575 9.56727 0.5
163 11.3736 9.92279 13.4782 0.5
164 8.97954 3.40677 10.8393 0.5
165 7.23199 10.8188 10.5189 0.5
166 11.0997 13.2256 7.13355 0.5
167 10.934 8.07813 8.093 0.5
168 0.766105 3.25 6.75682 0.5
169 10.2715 10.9649 12.6861 0.5
170 4.01296 6.41572 0.864842 0.5
171 11.0632 5.49547 0.514713 0.5
172 12.5263 8.36116 10.768 0.5
173 9.40133 10.2405 2.50894 0.5
174 5.16953 1.2046 0.606413 0.5
175 2.5921 6.83599 3.3744 0.5
176 2.50889 5.44028 4.3218 0.5
177 8.46803 5.13306 5.9361 0.5
178 4.95705 1.47441 4.48685 0.5
179 12.9155 6.44886 2.00421 0.5
180 9.63112 2.78367 11.4327 0.5
181 10.8542 11.2108 9.29593 0.5
182 3.22333 11.719 1.52191 0.5
183 8.9628 6.97695 5.97587 0.5
184 10.6539 5.52129 7.82935 0.5
185 8.47082 13.5438 11.4418 0.5
186 4.89322 8.49031 2.73059 0.5
187 5.66152 0.342719 0.24207 0.5
188 5.10896 5.93022 6.18083 0.5
189 0.990756 11.2944 6.60599 0.5
190 9.00237 12.5398 3.51551 0.5
191 10.4665 8.06506 2.58122 0.5
192 9.93698 1.0138 13.3853 0.5
193 10.9512 2.39388 9.43416 0.5
194 9.12784 13.1348 10.722 0.5
195 13.039 9.07632 12.2271 0.5
196 8.41487 1.15578 4.72738 0.5
197 2.81144 6.66687 8.22494 0.5
198 6.21941 5.83682 12.4886 0.5
199 12.0956 0.962901 8.37929 0.5
200 7.36495 7.3472 0.907959 0.5
201 13.3067 4.44076 7.16313 0.5
202 5.4152 13.0234 8.55069 0.5
203 1.40775 3.89713 1.32252 0.5
204 3.61668 8.19577 8.6426 0.5
205 10.9546 0.220921 4.62702 0.5
206 0.76719 1.52321 9.8108 0.5
207 3.43069 11.7683 8.81023 0.5
208 8.74526 4.14264 5.74794 0.5
209 5.66189 1.53839 3.77594 0.5
210 4.52333 6.98935 4.95324 0.5
211 4.11852 4.8045 10.3352 0.5
212 2.62713 6.40055 4.29937 0.5
213 3.18044 1.14128 5.67895 0.5
214 9.84382 3.74115 11.1429 0.5
215 8.30067 7.41561 1.3374 0.5
216 6.40226 9.04011 0.230844 0.5
217 3.63434 11.4855 4.9988 0.5
218 7.05031 8.00309 4.60203 0.5
219 8.40798 0.493112 3.90951 0.5
220 7.1142 1.86761 10.1366 0.5
221 3.56277 3.14381 5.55316 0.5
222 6.89836 11.653 6.35116 0.5
223 5.01202 9.28706 3.40507 0.5
224 12.5555 9.54307 3.90597 0.5
225 7.82085 11.2007 11.2515 0.5
226 10.6222 7.01707 13.4453 0.5
227 13.4998 6.99946 9.47859 0.5
228 4.47713 11.6376 5.70123 0.5
229 5.83285 4.11455 6.27543 0.5
230 6.48385 9.48102 9.15875 0.5
231 7.30613 5.51474 8.6168 0.5
232 7.94371 4.69006 12.673 0.5
233 1.26638 0.706722 9.79715 0.5
234 10.7606 2.46095 4.84526 0.5
235 1.57858 10.4504 3.41755 0.5
236 10.8063 6.42779 0.661429 0.5
237 5.61835 7.88099 6.63329 0.5
238 1.13188 12.9344 5.7912 0.5
239 9.60806 7.68668 3.0465 0.5
240 1.50541 5.15136 13.2472 0.5
241 4.42181 6.10156 1.77256 0.5
242 2.7096 0.673308 2.21847 0.5
243 3.1007 9.90092 3.31584 0.5
244 4.01937 11.5104 6.60595 0.5
245 1.03244 11.1012 12.1855 0.5
246 9.98872 9.67823 8.26822 0.5
247 3.24845 13.5266 10.9192 0.5
248 7.7037 2.67732 2.54103 0.5
249 10.4636 1.72837 12.9535 0.5
250 10.0223 1.95341 0.186593 0.5
251 4.31752 9.89596 11.4612 0.5
252 8.5802 8.35446 12.4536 0.5
253 1.63118 8.99867 0.798569 0.5
254 10.0429 2.79027 2.2733 0.5
255 8.65092 9.97961 3.18886 0.5
256 1.60619 13.0112 3.95284 0.5
257 0.571483 4.30362 6.92393 0.5
258 13.4717 7.30219 4.96258 0.5
259 4.69049 5.37067 10.8063 0.5
260 7.31468 11.4436 9.7072 0.5
261 10.7804 3.19416 5.50897 0.5
262 7.66766 11.3296 5.7326 0.5
263 1.98966 4.26404 8.20893 0.5
264 10.7522 10.4746 8.59829 0.5
265 1.53771 4.30561 4.39545 0.5
266 3.96886 13.1819 6.80682 0.5
267 5.37307 7.75564 9.48315 0.5
268 7.17499 2.2914 1.79071 0.5
269 9.54163 0.185315 9.15426 0.5
270 6.85844 9.57927 8.21715 0.5
271 11.2891 12.2198 7.22351 0.5
272 6.1209 9.56673 0.962876 0.5
273 7.7819 5.59437 3.77771 0.5
274 11.4464 5.12871 8.38511 0.5
275 2.93965 10.8408 1.07503 0.5
276 4.75416 2.18483 0.660428 0.5
277 7.41338 5.18301 13.4084 0.5
278 10.6542 10.3919 0.575171 0.5
279 9.36082 11.4399 5.99481 0.5
280 5.12302 12.4457 2.88352 0.5
281 6.2937 1.99744 10.5927 0.5
282 0.270777 12.3656 1.44341 0.5
283 4.59752 5.06671 1.87619 0.5
284 1.35991 11.2311 0.743347 0.5
285 4.12726 9.95784 6.08949 0.5
286 1.70738 1.74247 12.6931 0.5
287 8.30083 7.00345 6.74127 0.5
288 6.73755 0.0240242 6.80845 0.5
289 2.50609 10.6329 3.33908 0.5
290 0.533984 13.294 6.43211 0.5
291 5.96016 1.48223 5.93415 0.5
292 4.76269 2.69315 13.2952 0.5
293 11.0191 5.83962 3.66312 0.5
294 3.31711 10.1551 6.50344 0.5
295 2.64989 1.67699 6.21231 0.5
296 0.208091 5.26658 6.70298 0.5
297 10.4999 10.7044 10.9208 0.5
298 9.7213 4.27764 11.9296 0.5
299 1.62285 0.767652 12.9822 0.5
300 9.5946 4.958 1.19098 0.5
301 6.17044 7.4827 12.0951 0.5
302 3.44314 8.94161 3.26768 0.5
303 12.1524 9.3125 2.88345 0.5
304 0.750691 7.84601 5.35116 0.5
305 8.40768 12.9922 7.97975 0.5
306 12.075 8.35485 0.932594 0.5
307 2.0458 6.28048 2.77897 0.5
308 0.377955 9.46511 11.933 0.5
309 12.8017 0.654877 12.8472 0.5
310 7.98977 0.209363 4.71367 0.5
311 0.356495 6.67314 6.54573 0.5
312 7.39281 11.8646 10.5449 0.5
313 1.48445 10.3247 4.44805 0.5
314 6.10676 12.8555 9.31328 0.5
315 12.1826 6.28115 2.67801 0.5
316 7.38417 5.7643 7.52268 0.5
317 13.3984 8.84972 4.00304 0.5
318 0.575341 5.92252 5.9013 0.5
319 10.6754 11.3887 0.519529 0.5
320 5.92833 3.78721 7.33317 0.5
321 2.65536 13.1859 3.77912 0.5
322 10.0423 0.14055 1.26628 0.5
323 3.15799 1.47988 2.13666 0.5
324 10.638 3.54298 2.41335 0.5
325 1.66798 5.5453 0.602759 0.5
326 9.97372 12.9995 0.482654 0.5
327 8.27918 3.24636 9.04501 0.5
328 12.6348 5.47013 0.234029 0.5
329 8.23791 2.26508 7.78256 0.5
330 8.15919 1.4902 5.64597 0.5
331 4.74713 1.7346 3.48243 0.5
332 12.4659 1.76982 8.84312 0.5
333 12.5472 1.67251 2.45776 0.5
334 5.30599 5.67473 1.64683 0.5
335 9.08269 0.378536 4.66362 0.5
336 3.61327 2.26885 9.38564 0.5
337 12.0596 0.609459 12.0136 0.5
338 7.1838 5.64763 9.73659 0.5
339 10.2274 4.34407 1.88854 0.5
340 11.9927 3.95048 11.3173 0.5
341 8.62261 13.5925 8.73267 0.5
342 6.38533 1.06524 6.75897 0.5
343 6.47646 5.95575 8.97486 0.5
344 5.68493 6.53328 5.70751 0.5
345 9.2368 7.92793 5.59991 0.5
346 1.65346 7.2887 5.60093 0.5
347 12.8183 12.183 1.50097 0.5
348 1.33538 4.64826 0.583899 0.5
349 8.50286 6.07531 6.28452 0.5
350 8.60211 6.60031 10.8477 0.5
351 2.51496 8.85833 11.0429 0.5
352 8.65783 12.004 7.42786 0.5
353 9.70568 6.719 13.021 0.5
354 2.65053 2.84344 5.4866 0.5
355 1.62753 6.9314 3.34272 0.5
356 11.2447 12.8551 4.19527 0.5
357 6.41362 11.1618 4.66712 0.5
358 3.90995 0.719142 9.55052 0.5
359 7.47753 9.3326 9.00697 0.5
360 12.5738 4.07681 6.69507 0.5
361 3.65373 1.40967 6.52177 0.5
362 1.419 1.26127 9.0458 0.5
363 10.8673 12.4668 0.376858 0.5
364 3.70445 7.46115 1.15903 0.5
365 2.30859 8.87046 1.45169 0.5
366 6.77539 8.64631 8.68308 0.5
367 10.5407 11.8459 13.1889 0.5
368 4.94215 5.29919 9.8554 0.5
369 2.09292 3.57732 4.9843 0.5
370 0.573471 10.7981 5.88029 0.5
371 8.62281 13.1231 4.23257 0.5
372 13.5253 4.11639 3.22593 0.5
373 4.46154 3.1407 0.451464 0.5
374 0.495043 8.94847 12.6925 0.5
375 0.346375 9.88293 8.58255 0.5
376 2.07075 11.0118 4.14365 0.5
377 6.93064 5.26896 3.55394 0.5
378 5.90564 10.0554 0.156962 0.5
379 4.97358 5.63216 2.5351 0.5
380 7.74118 4.19443 0.0406205 0.5
381 9.73103 3.23706 8.0746 0.5
382 8.93464 2.95004 7.60157 0.5
383 2.30128 4.92835 0.206835 0.5
384 5.65385 10.2837 12.6646 0.5
385 13.3436 11.6059 2.0322 0.5
386 13.3328 4.26282 4.25109 0.5
387 1.77071 7.41777 12.0738 0.5
388 0.943531 2.09691 10.5478 0.5
389 3.40489 9.44011 11.1889 0.5
390 4.96712 4.45885 10.5257 0.5
391 8.36809 1.11644 2.19393 0.5
392 12.3732 5.32871 3.18088 0.5
393 2.80035 4.64463 8.72319 0.5
394 9.33831 8.83821 8.14783 0.5
395 1.44029 0.325402 8.67905 0.5
396 13.3492 2.28981 2.36447 0.5
397 7.52779 1.44984 1.45138 0.5
398 9.80758 12.1645 3.05384 0.5
399 0.590318 4.4101 3.91566 0.5
400 7.47908 8.69595 5.03717 0.5
401 10.027 2.62642 12.9561 0.5
402 5.42467 7.48011 5.73834 0.5
403 5.4718 0.321099 7.95094 0.5
404 11.0074 10.2949 12.4948 0.5
405 11.9403 6.21218 0.536216 0.5
406 6.8794 2.97777 1.03185 0.5
407 1.90613 11.4498 3.42217 0.5
408 2.85611 3.87037 5.58449 0.5
409 3.43474 4.41414 10.9243 0.5
410 10.6961 2.70839 2.99406 0.5
411 4.52484 5.46553 0.954653 0.5
412 5.64273 0.500968 1.25969 0.5
413 2.97867 5.83999 7.64549 0.5
414 3.38033 8.33628 11.2258 0.5
415 8.1273 10.366 11.9884 0.5
416 8.99773 10.4913 6.06249 0.5
417 0.822055 13.3744 9.25921 0.5
418 9.01546 1.21992 10.2762 0.5
419 2.52136 13.3 12.0278 0.5
420 3.55661 0.48396 7.18198 0.5
421 0.439109 4.8934 9.37859 0.5
422 7.93279 4.56861 5.15585 0.5
423 11.4274 0.977772 3.85189 0.5
424 3.10254 3.42708 4.71933 0.5
425 8.56974 7.67541 11.0632 0.5
426 0.287078 12.7791 8.68829 0.5
427 7.67931 2.32251 0.897527 0.5
428 0.942689 8.44883 9.0783 0.5
429 11.5943 5.61128 7.56681 0.5
430 9.3987 13.4424 11.7269 0.5
431 2.46928 5.10823 7.99241 0.5
432 12.4999 2.43803 1.80542 0.5
433 7.99909 11.0571 0.410924 0.5
434 0.176775 3.23156 13.2856 0.5
435 11.4524 9.80135 0.946896 0.5
436 6.01881 5.54075 9.81473 0.5
437 4.63315 9.23755 6.66633 0.5
438 5.47476 2.82433 7.57951 0.5
439 11.2167 10.9046 10.2494 0.5
440 9.8449 10.7349 6.50123 0.5
441 6.0448 0.459934 6.0468 0.5
442 1.94499 7.43015 6.44148 0.5
443 0.621154 12.0311 0.463136 0.5
444 8.89697 9.02301 13.1002 0.5
445 5.28525 8.23818 3.63033 0.5
446 3.51143 6.67479 3.75715 0.5
447 2.66999 9.35769 6.68918 0.5
448 5.25957 10.1283 0.919851 0.5
449 3.29696 12.6957 11.3826 0.5
450 2.77198 2.33877 1.73426 0.5
451 7.26638 3.89237 0.968695 0.5
452 2.28978 8.21428 0.663209 0.5
453 5.23363 9.34255 2.45021 0.5
454 2.7644 0.25154 3.10368 0.5
455 1.55315 2.60983 12.0284 0.5
456 9.27939 13.4152 8.00868 0.5
457 12.4917 11.5652 8.81298 0.5
458 4.15982 0.0619861 10.3617 0.5
459 10.9935 2.8736 6.46474 0.5
460 12.8736 6.50291 0.449785 0.5
461 12.1462 7.57012 11.2201 0.5
462 9.71799 4.05411 8.52401 0.5
463 5.03089 3.7134 7.80571 0.5
464 0.0351594 8.08653 9.336 0.5
465 5.06147 10.6125 11.8435 0.5
466 2.95793 13.3273 6.84287 0.5
467 1.55382 8.23683 1.3168 0.5
468 0.634021 7.46553 8.95425 0.5
469 2.25191 2.87528 11.1512 0.5
470 2.09194 6.43807 11.8204 0.5
471 3.51297 0.877715 10.4093 0.5
472 10.8765 6.71283 3.64238 0.5
473 11.6331 8.46262 7.41166 0.5
474 3.71272 7.1425 8.44052 0.5
475 5.22268 4.44258 7.07775 0.5
476 6.37338 0.567351 11.6473 0.5
477 6.11635 8.1264 10.1075 0.5
478 2.7534 12.5243 1.076 0.5
479 9.15803 7.49038 12.5384 0.5
480 4.39782 10.443 9.08577 0.5
481 2.26155 3.96873 0.815047 0.5
482 10.8201 13.2563 1.06078 0.5
483 9.62122 11.2248 2.6856 0.5
484 9.86809 6.96423 3.58949 0.5
485 4.67283 4.10983 2.31051 0.5
486 3.58897 11.025 9.37056 0.5
487 4.18749 3.05515 9.02292 0.5
488 5.55827 4.56821 5.38065 0.5
489 3.5631 0.785352 2.79351 0.5
490 0.0274575 12.8561 9.6894 0.5
491 2.73817 7.16791 12.0343 0.5
492 0.827292 5.60796 12.5939 0.5
493 12.2999 8.95396 11.5424 0.5
494 6.84365 4.55154 0.397841 0.5
495 6.8815 8.18992 0.465467 0.5
496 7.07565 0.0140132 13.4958 0.5
497 4.90248 4.28711 6.06346 0.5
498 3.41571 11.8897 5.88854 0.5
499 6.33919 1.63643 11.6156 0.5
500 10.9033 9.48088 5.91239 0.5
501 4.94448 0.776852 3.70531 0.5
502 9.66996 10.2104 8.96049 0.5
503 6.99874 5.98068 13.0649 0.5
504 1.7544 1.48408 0.118857 0.5
505 4.54869 3.75793 13.2322 0.5
506 3.81731 11.164 0.94709 0.5
507 8.27911 4.68302 4.25235 0.5
508 13.325 1.39715 5.74616 0.5
509 4.78011 5.26877 5.53206 0.5
510 7.2997 10.3185 11.391 0.5
511 5.77811 0.344137 7.0222 0.5
512 10.6039 11.6638 2.69206 0.5
513 5.4272 3.99097 2.88868 0.5
514 5.93919 8.53733 0.989068 0.5
515 2.08062 9.81871 2.91367 0.5
516 5.81916 8.7619 3.06971 0.5
517 0.657399 3.94648 4.82333 0.5
518 3.28659 6.49571 9.06462 0.5
519 5.29012 7.83115 10.6615 0.5
520 2.29051 0.595166 0.21183 0.5
521 11.1845 6.27072 4.58146 0.5
522 2.97456 8.95507 11.9038 0.5
523 13.332 8.22935 3.20471 0.5
524 0.112486 0.517301 6.03016 0.5
525 11.5319 8.96031 0.396337 0.5
526 8.44721 12.0899 8.43268 0.5
527 7.99107 11.0214 2.08123 0.5
528 2.50254 0.227064 12.9002 0.5
529 13.3624 12.5087 0.62854 0.5
530 11.7459 3.07668 9.53032 0.5
531 11.5848 8.42356 11.1583 0.5
532 6.5327 8.8796 4.63793 0.5
533 6.18796 7.76028 11.0504 0.5
534 2.57953 12.2369 12.1315 0.5
535 8.14481 12.2602 13.0061 0.5
536 2.06721 12.4222 3.36886 0.5
537 1.61688 10.2112 9.40401 0.5
538 8.47453 10.1805 2.17527 0.5
539 2.11732 7.29576 2.46872 0.5
540 0.336666 3.65256 7.58181 0.5
541 4.33663 11.7474 1.73405 0.5
542 7.92408 13.2754 12.9614 0.5
543 13.368 6.4853 5.70916 0.5
544 7.99822 3.15755 8.11097 0.5
545 1.28759 6.81976 2.35523 0.5
546 0.790942 0.309048 13.1653 0.5
547 10.8547 5.35693 4.65301 0.5
548 12.0209 0.0797173 6.99832 0.5
549 12.4036 10.4963 8.97951 0.5
550 11.7724 0.118728 4.09398 0.5
551 7.41081 0.717665 2.17884 0.5
552 4.51557 7.10686 0.378949 0.5
553 10.3974 6.4504 8.28184 0.5
554 3.47702 13.1175 7.67535 0.5
555 0.356808 3.44889 3.93759 0.5
556 7.17695 12.7099 12.969 0.5
557 7.30658 11.0397 1.24203 0.5
558 4.06855 1.53421 9.84449 0.5
559 2.40261 10.0313 8.72768 0.5
560 6.49848 2.64371 11.362 0.5
561 8.30967 8.62044 11.5068 0.5
562 12.8697 2.88903 12.8643 0.5
563 8.32173 6.13545 7.34344 0.5
564 6.40988 5.15941 13.3589 0.5
565 8.87538 4.90149 5.0915 0.5
566 6.73543 1.10428 10.8551 0.5
567 12.651 4.33851 3.59222 0.5
568 7.20461 1.15939 11.7735 0.5
569 10.8831 7.22638 10.2647 0.5
570 0.00741832 8.6793 2.35596 0.5
571 1.80017 0.790459 2.92632 0.5
572 4.55806 1.64087 13.4084 0.5
573 0.398502 13.4012 5.35785 0.5
574 9.55485 8.47678 2.31644 0.5
575 8.86831 0.572849 2.99218 0.5
576 3.38273 10.1801 8.90312 0.5
577 4.23878 9.31935 2.77809 0.5
578 1.33106 12.109 1.21656 0.5
579 13.2515 9.05448 11.2756 0.5
580 2.98871 5.06332 7.18855 0.5
581 1.32922 12.8323 8.54266 0.5
582 2.126 11.8665 11.3014 0.5
583 2.23159 10.9952 0.377296 0.5
584 10.2307 6.11652 4.20347 0.5
585 13.2458 5.40798 5.7965 0.5
586 0.930227 5.648 9.80632 0.5
587 12.5959 3.14662 0.994697 0.5
588 12.5153 12.0491 0.418228 0.5
589 0.108695 9.08452 7.8632 0.5
590 2.87141 10.8841 8.58489 0.5
591 4.51463 4.20857 12.2057 0.5
592 10.4363 11.4353 10.2488 0.5
593 5.97054 9.84031 6.60339 0.5
594 0.0596802 10.8373 6.78599 0.5
595 13.3523 10.0828 6.17806 0.5
596 8.92624 9.30591 2.42597 0.5
597 1.76153 9.23242 8.97159 0.5
598 8.74238 11.1135 5.38225 0.5
599 11.607 11.041 8.69175 0.5
600 10.5365 5.59767 10.9918 0.5
601 1.88437 6.10727 3.77701 0.5
602 0.346165 6.36942 10.1805 0.5
603 3.26398 7.4414 11.3392 0.5
604 4.4597 0.946514 10.4351 0.5
605 7.15226 2.18232 12.0754 0.5
606 12.4004 9.64843 5.07137 0.5
607 9.03696 9.75931 8.25237 0.5
608 8.54115 12.9644 12.2266 0.5
609 0.395725 11.0401 0.358767 0.5
610 0.905038 9.43648 9.31661 0.5
611 0.953557 9.10558 8.31255 0.5
612 6.67449 12.3877 3.48472 0.5
613 3.48731 6.724 4.69336 0.5
614 4.21724 13.1433 11.2722 0.5
615 4.39635 10.8902 9.93658 0.5
616 13.3571 5.55054 1.88682 0.5
617 8.17977 5.81796 2.01488 0.5
618 11.2687 7.08313 8.41755 0.5
619 13.032 3.97801 11.669 0.5
620 1.11277 10.1998 11.625 0.5
621 2.63635 4.4324 4.79643 0.5
622 5.92546 8.64054 9.23073 0.5
623 13.0891 7.90808 4.21271 0.5
624 13.0727 5.80793 2.77987 0.5
625 1.76029 3.56679 10.6137 0.5
626 2.26896 4.05584 1.80779 0.5
627 9.76314 6.60414 0.382278 0.5
628 13.4496 4.37145 9.89271 0.5
629 4.92671 3.10941 2.5567 0.5
630 3.02322 3.61927 1.37607 0.5
631 9.145 1.41402 0.268029 0.5
632 6.90286 12.7998 0.463407 0.5
633 10.0024 1.05085 0.821945 0.5
634 10.4116 10.4213 9.83924 0.5
635 10.1207 2.10704 12.0853 0.5
636 9.16854 3.46782 11.7859 0.5
637 0.79376 10.1755 6.6605 0.5
638 5.73606 0.77261 4.3359 0.5
639 8.81268 6.24786 9.94485 0.5
640 2.2187 4.41698 7.192 0.5
641 8.02 6.8289 5.82048 0.5
642 11.3328 6.32098 13.3594 0.5
643 11.1815 1.15299 7.94808 0.5
644 6.81421 2.76719 10.3664 0.5
645 0.22371 11.6282 6.25611 0.5
646 9.13629 8.91915 12.0259 0.5
647 8.82876 4.43728 12.2313 0.5
648 7.80011 9.52577 11.5683 0.5
649 5.44872 8.16027 11.5901 0.5
650 2.81498 0.76388 6.59874 0.5
651 1.35415 6.58263 6.38443 0.5
652 5.9855 3.13459 6.65218 0.5
653 13.1148 4.85477 2.64866 0.5
654 3.62112 9.75351 12.095 0.5
655 11.5831 11.9697 8.93526 0.5
656 0.617369 11.3819 1.35166 0.5
657 11.2131 0.760993 6.96753 0.5
658 9.91204 9.83786 5.94274 0.5
659 1.51086 9.49506 3.65617 0.5
660 0.533914 0.772237 9.08108 0.5
661 3.74891 7.39797 9.34314 0.5
662 3.71198 10.9249 5.88148 0.5
663 6.26051 12.1459 4.47098 0.5
664 5.12287 6.16174 5.05765 0.5
665 9.11672 11.476 3.5517 0.5
666 5.47522 12.0344 9.18495 0.5
667 10.5091 3.84872 7.84101 0.5
668 5.46828 2.24587 3.02426 0.5
669 8.67901 10.8289 2.90283 0.5
670 9.28273 12.3453 8.04076 0.5
671 6.83957 8.8977 1.2153 0.5
672 3.35765 2.53431 4.89667 0.5
673 5.39444 9.24319 0.409913 0.5
674 3.31654 7.95891 12.1617 0.5
675 3.61358 4.67289 11.9414 0.5
676 1.9099 13.3084 2.93299 0.5
677 4.0902 9.69895 3.64701 0.5
678 13.2425 7.52744 8.59848 0.5
679 10.8239 12.6067 6.34881 0.5
680 5.25749 11.7389 2.24368 0.5
681 3.91564 1.4481 8.83708 0.5
682 1.79845 2.62174 10.2608 0.5
683 1.88402 5.66702 12.4328 0.5
684 10.9467 0.0609871 3.64392 0.5
685 12.3247 12.7055 4.06733 0.5
686 11.0687 7.56722 11.1408 0.5
687 5.00817 10.1158 13.4493 0.5
688 1.60811 8.25913 5.85762 0.5
689 2.62995 3.32321 2.31131 0.5
690 4.87311 8.32141 7.16577 0.5
691 12.9981 9.98357 11.7593 0.5
692 4.8014 0.222943 0.764436 0.5
693 10.5943 6.65865 11.0436 0.5
694 6.09924 9.20345 9.96519 0.5
695 12.5412 8.45471 2.52637 0.5
696 9.45691 3.88655 7.46148 0.5
697 0.760132 9.85547 7.67022 0.5
698 6.73624 10.264 7.21896 0.5
699 2.45141 7.94828 1.68251 0.5
700 12.4573 8.56624 3.59578 0.5
701 9.56033 8.28959 12.715 0.5
702 2.95691 2.00627 8.818 0.5
703 2.31269 5.77444 13.3578 0.5
704 8.93317 2.61194 8.47743 0.5
705 10.5381 7.29527 7.67421 0.5
706 6.24109 10.8111 6.444 0.5
707 3.68873 5.38099 11.1591 0.5
708 12.5758 2.17418 0.88884 0.5
709 9.51398 0.359709 0.391954 0.5
710 7.2404 6.12935 2.17527 0.5
711 0.247158 0.984539 12.5525 0.5
712 12.6301 2.68758 9.21952 0.5
713 8.47677 9.09142 7.66055 0.5
714 12.7338 5.15121 6.6045 0.5
715 13.0671 9.09993 3.07039 0.5
716 1.68971 1.9957 11.1203 0.5
717 4.5627 7.16421 1.41448 0.5
718 12.0979 0.916005 7.44546 0.5
719 4.02194 10.7341 12.0767 0.5
720 13.1662 11.6053 2.98951 0.5
721 11.3565 6.12439 8.44186 0.5
722 6.1938 13.2836 13.3419 0.5
723 2.58445 11.5221 9.23754 0.5
724 8.79423 13.2924 9.68879 0.5
725 2.65284 1.83456 5.24079 0.5
726 7.25206 2.42576 7.99421 0.5
727 3.9406 2.37093 0.105477 0.5
728 0.29801 2.05486 6.37454 0.5
729 10.14 4.97128 0.384034 0.5
730 7.94477 5.39752 6.78026 0.5
731 10.4741 0.325917 0.32391 0.5
732 1.00532 2.90092 7.67359 0.5
733 8.29882 11.4916 1.20965 0.5
734 10.2894 11.4522 5.98441 0.5
735 3.45285 5.09007 8.05043 0.5
736 4.16768 3.85449 10.762 0.5
737 4.65241 2.71395 3.5913 0.5
738 2.27361 7.21027 11.1818 0.5
739 5.91158 13.1373 7.67598 0.5
740 12.4264 0.119892 7.94577 0.5
741 7.67154 3.84188 4.54378 0.5
742 5.34667 9.23013 1.38331 0.5
743 7.60123 7.78623 5.48688 0.5
744 3.83231 3.12303 13.2616 0.5
745 7.16113 6.0818 11.9487 0.5
746 5.26441 8.68455 9.98422 0.5
747 13.4295 13.2827 11.6105 0.5
748 7.61044 8.85366 8.17385 0.5
749 6.67037 9.18966 3.53492 0.5
750 1.30669 0.709915 0.425706 0.5
751 13.3299 8.21993 12.6765 0.5
752 0.871143 1.29222 13.2801 0.5
753 6.70806 2.01469 0.990257 0.5
754 1.70316 12.6394 11.7669 0.5
755 6.88273 3.55388 0.151342 0.5
756 6.75766 7.90952 1.37425 0.5
757 11.0516 6.17429 10.2765 0.5
758 3.88004 12.4814 5.24618 0.5
759 12.7161 9.37662 2.09946 0.5
760 7.68872 4.60766 3.44319 0.5
761 3.05486 11.6923 0.519624 0.5
762 13.2233 2.75456 0.30266 0.5
763 11.7054 0.398851 3.11899 0.5
764 9.6191 9.48374 3.19943 0.5
765 12.2689 2.90698 0.133032 0.5
766 8.08145 2.98096 4.81231 0.5
767 4.99561 6.33877 0.951255 0.5
768 13.0728 13.08 10.5739 0.5
769 11.2468 2.25014 5.77188 0.5
770 11.5468 7.80161 6.48282 0.5
771 8.35555 7.76194 6.10846 0.5
772 1.10934 1.18415 10.7277 0.5
773 8.86598 3.61188 8.26341 0.5
774 9.22812 13.5154 3.66996 0.5
775 10.0369 13.5512 10.9424 0.5
776 3.60881 9.2912 6.72801 0.5
777 11.6932 12.9318 3.36495 0.5
778 12.49 12.2751 3.09847 0.5
779 8.50224 7.47586 5.20261 0.5
780 2.58938 10.6261 9.47084 0.5
781 13.3938 1.46323 4.72942 0.5
782 10.7642 3.47278 3.51943 0.5
783 0.199745 8.47219 11.9214 0.5
784 2.34124 2.69694 4.54282 0.5
785 10.5274 10.0072 5.1494 0.5
786 8.52283 3.89696 4.85596 0.5
787 6.22605 11.4773 3.6019 0.5
788 11.738 7.7674 10.3717 0.5
789 8.7414 5.00254 1.71106 0.5
790 7.91828 0.752816 3.02946 0.5
791 5.16007 7.55646 12.2991 0.5
792 4.79722 2.76718 8.37792 0.5
793 7.30949 8.69012 4.03037 0.5
794 12.6396 0.834968 3.0017 0.5
795 8.10637 8.10735 4.55025 0.5
796 4.44192 11.5034 9.0539 0.5
797 3.65677 4.00721 12.6756 0.5
798 2.37867 3.73399 4.09217 0.5
799 0.510988 0.887816 5.27607 0.5
800 0.398711 8.23324 13.4044 0.5
801 8.08999 6.21664 2.8778 0.5
802 5.58082 11.2879 12.3678 0.5
803 11.0742 11.6398 10.9041 0.5
804 0.770055 5.7327 8.73601 0.5
805 9.0669 8.58973 3.16994 0.5
806 2.90945 7.42267 8.86984 0.5
807 3.04238 4.23229 7.8025 0.5
808 2.40426 9.08284 3.46564 0.5
809 9.21209 5.2147 11.6083 0.5
810 1.82756 11.6935 12.214 0.5
811 10.4456 7.11233 2.83939 0.5
812 2.50264 8.09142 11.6833 0.5
813 7.8799 5.75519 12.5587 0.5
814 9.57338 0.504922 5.97783 0.5
815 11.88 11.8059 7.92219 0.5
816 9.79198 7.525 13.436 0.5
817 12.2328 11.3672 3.30316 0.5
818 3.263 10.7908 0.208877 0.5
819 6.46221 0.445355 7.71501 0.5
820 13.4183 11.9363 9.13682 0.5
821 11.0309 3.39378 4.50758 0.5
822 9.08729 1.31968 5.35877 0.5
823 9.49645 0.365892 10.1182 0.5
824 2.47535 8.89194 5.74216 0.5
825 8.22695 0.0631542 2.3792 0.5
826 6.30776 13.4453 8.50521 0.5
827 10.9224 0.617673 1.15586 0.5
828 4.59488 3.82494 3.35452 0.5
829 3.84445 2.3669 8.41362 0.5
830 6.17118 12.444 8.46704 0.5
831 11.4654 0.304411 7.80171 0.5
832 0.850701 5.67887 10.8211 0.5
833 1.11951 11.7897 11.4975 0.5
834 9.5172 1.83697 13.0061 0.5
835 1.2399 5.67851 11.7307 0.5
836 9.19275 8.63725 10.9681 0.5
837 7.73892 3.24042 0.494102 0.5
838 12.642 12.7082 11.4866 0.5
839 5.42684 4.7359 2.09626 0.5
840 7.74442 12.8639 0.258289 0.5
841 5.78494 10.5974 7.28321 0.5
842 12.7902 4.09704 10.6664 0.5
843 12.4918 3.32642 11.9372 0.5
844 4.11332 2.22177 12.7073 0.5
845 9.85356 5.29136 4.90772 0.5
846 5.92301 12.2472 10.1125 0.5
847 4.68169 7.55631 6.54351 0.5
848 4.82654 6.84504 13.0471 0.5
849 0.866519 12.3358 6.63963 0.5
850 10.8951 11.1372 11.8209 0.5
851 6.61398 11.2593 7.28657 0.5
852 7.41864 9.43413 7.3959 0.5
853 4.51667 7.56964 8.72311 0.5
854 10.2167 6.16287 3.19254 0.5
855 10.0986 11.3661 3.58844 0.5
856 2.02483 0.333044 3.72845 0.5
857 9.88982 4.78452 10.9461 0.5
858 7.94806 9.76129 8.16049 0.5
859 11.2939 5.79666 5.47177 0.5
860 10.5965 5.21163 5.64683 0.5
861 11.3285 13.523 6.18292 0.5
862 10.8626 8.25401 10.4549 0.5
863 8.39069 8.44471 5.44346 0.5
864 7.6221 6.82226 7.50603 0.5
865 12.3115 4.28227 12.2575 0.5
866 6.00991 12.0783 2.67709 0.5
867 12.5181 4.54372 13.2327 0.5
868 9.41811 9.21274 9.05839 0.5
869 4.68558 0.694796 13.4237 0.5
870 4.07722 8.31149 6.63844 0.5
871 12.6526 8.80774 4.60727 0.5
872 1.36805 6.10627 13.3308 0.5
873 12.8937 0.886953 1.92634 0.5
874 7.01582 5.18371 12.4783 0.5
875 6.87656 11.7553 5.21969 0.5
876 2.91931 5.71139 8.65939 0.5
877 10.7811 8.00862 7.03898 0.5
878 2.25982 11.6236 1.14762 0.5
879 1.34659 3.82944 7.47023 0.5
880 11.9663 0.915025 2.29893 0.5
881 10.3727 10.065 13.188 0.5
882 2.28732 9.95405 3.97435 0.5
883 11.4906 11.7689 13.5116 0.5
884 12.8829 3.66386 0.0790986 0.5
885 8.17158 11.0915 10.2753 0.5
886 13.4114 3.58084 6.71207 0.5
887 0.00546937 0.0165676 12.5621 0.5
888 4.75833 4.72818 2.88503 0.5
889 10.9577 4.6954 7.53285 0.5
890 11.9903 9.35939 5.93076 0.5
891 1.13876 6.08871 3.06995 0.5
892 8.6911 0.709809 9.5803 0.5
893 10.5724 4.61389 8.42117 0.5
894 7.64837 8.24625 1.1092 0.5
895 12.236 9.28666 1.10236 0.5
896 7.46212 11.9793 0.887031 0.5
897 7.12433 11.7209 4.24882 0.5
898 5.66601 12.2937 3.7505 0.5
899 9.89909 4.70996 7.72787 0.5
900 11.8452 11.2072 9.51191 0.5
901 0.0211756 5.44744 10.2569 0.5
902 11.12 6.51856 7.64677 0.5
903 9.99236 8.54541 3.29026 0.5
904 7.84181 3.59499 5.51057 0.5
905 13.5606 7.47123 5.98497 0.5
906 13.3336 5.10452 3.62422 0.5
907 5.84804 2.84334 10.642 0.5
908 8.56896 0.513402 5.53379 0.5
909 9.60325 3.77695 2.47297 0.5
910 7.22268 3.14001 8.74836 0.5
911 6.55393 6.75021 12.6767 0.5
912 8.71618 9.59493 11.4344 0.5
913 11.8075 5.4245 13.3888 0.5
914 5.06882 13.2901 13.4206 0.5
915 7.95185 2.51359 5.71089 0.5
916 11.4093 8.75111 6.51962 0.5
917 11.799 13.2735 11.6212 0.5
918 7.00035 6.43128 8.19218 0.5
919 13.2718 12.3998 2.43758 0.5
920 13.2396 10.9082 11.2309 0.5
921 5.40698 6.84816 6.6083 0.5
922 12.7842 3.18428 10.9592 0.5
923 0.139766 2.6714 7.19645 0.5
924 11.2989 11.9348 9.96945 0.5
925 10.0704 3.45813 1.59839 0.5
926 5.54338 11.022 13.3681 0.5
927 2.52334 7.85259 5.86147 0.5
928 0.692236 6.90566 5.62797 0.5
929 1.2246 2.86078 11.0806 0.5
930 10.499 9.57347 9.15404 0.5
931 4.59135 9.95189 12.4217 0.5
932 4.30691 8.66086 3.57071 0.5