ITEM: TIMESTEP
420000
ITEM: NUMBER OF ATOMS
1000
ITEM: BOX BOUNDS xy xz yz pp pp pp
0.0000000000000000e+00 1.3572088000000001e+01 0.0000000000000000e+00
0.0000000000000000e+00 1.3572088000000001e+01 0.0000000000000000e+00
0.0000000000000000e+00 1.3572088000000001e+01 0.0000000000000000e+00
ITEM: ATOMS id x y z radius
1 4.33716 3.72458 12.1792 0.5
2 5.27505 11.1168 3.07585 0.5
3 8.90396 10.3228 2.80255 0.5
4 9.58583 5.57425 0.908751 0.5
5 9.44889 7.14401 10.2779 0.5
6 3.9168 12.8154 4.95848 0.5
7 2.49831 8.79149 0.920609 0.5
8 12.8514 11.3029 1.97085 0.5
9 1.62578 8.4171 6.21556 0.5
10 2.56808 12.9225 10.7352 0.5
11 0.50001 9.31727 9.0248 0.5
12 10.2568 5.63219 0.175799 0.5
13 8.32657 11.4765 6.22411 0.5
14 10.9852 2.32526 4.4291 0.5
15 5.95296 1.62187 4.25034 0.5
16 7.6378 6.50695 9.32753 0.5
17 6.64565 12.37 10.7498 0.5
18 2.67945 8.49819 6.07938 0.5
19 10.0471 5.39826 1.75446 0.5
20 9.95442 11.9516 3.47544 0.5
21 2.42366 4.65009 1.26996 0.5
22 1.89661 5.67793 12.0503 0.5
23 1.571 1.28088 10.1082 0.5
24 7.70191 7.26099 2.04306 0.5
25 1.12639 6.81223 3.25288 0.5
26 9.92573 10.3586 6.36674 0.5
27 11.0151 6.42755 12.6047 0.5
28 4.47936 11.4909 11.9102 0.5
29 13.4912 6.12374 1.27207 0.5
30 8.3113 10.9574 1.33357 0.5
31 0.662126 13.2381 8.32757 0.5
32 9.36927 3.01559 13.078 0.5
33 12.9372 6.07062 9.7809 0.5
34 3.69099 8.84862 5.72837 0.5
35 11.8328 6.29673 13.306 0.5
36 9.12682 2.23285 5.39826 0.5
37 0.317646 0.943176 3.03858 0.5
38 3.20735 1.36108 1.85336 0.5
39 10.4348 4.55078 1.88343 0.5
40 5.78026 6.01625 6.63065 0.5
41 8.16973 11.581 5.21092 0.5
42 7.01987 5.4019 3.45339 0.5
43 4.82584 5.35241 9.98111 0.5
44 4.26992 10.8933 8.15036 0.5
45 7.52158 6.32526 2.07283 0.5
46 10.3542 10.8996 0.144321 0.5
47 2.81736 9.34471 5.52489 0.5
48 7.41781 10.5694 0.743238 0.5
49 5.91674 12.7138 9.17361 0.5
50 6.46294 1.23671 10.1012 0.5
51 0.18477 10.1171 7.45835 0.5
52 5.763 11.2454 6.78688 0.5
53 9.79158 3.873 2.07452 0.5
54 11.6971 11.3887 4.36693 0.5
55 0.815326 1.34524 6.39542 0.5
56 13.4916 4.32512 2.99103 0.5
57 0.497198 11.5315 11.4018 0.5
58 5.60086 8.49113 10.4971 0.5
59 1.83514 10.6121 11.2977 0.5
60 7.25001 4.90721 9.35084 0.5
61 4.16022 13.4498 10.5763 0.5
62 0.503 8.14684 0.566354 0.5
63 11.7365 8.39397 2.06742 0.5
64 11.9919 2.33941 10.6571 0.5
65 13.0752 1.37511 5.32668 0.5
66 12.5514 1.25041 2.17087 0.5
67 8.293 3.22156 8.28556 0.5
68 2.7904 1.60307 2.87064 0.5
69 11.7657 3.19367 11.0235 0.5
70 13.0229 3.52709 10.0554 0.5
71 2.61037 6.52942 8.91119 0.5
72 7.41792 2.79593 10.9648 0.5
73 8.46219 6.57453 8.7161 0.5
74 5.77102 4.84929 10.2521 0.5
75 9.17408 0.152652 10.6482 0.5
76 12.4182 3.2025 0.0868807 0.5
77 10.4142 2.72371 3.71357 0.5
78 8.98584 3.1166 5.1971 0.5
79 4.11774 12.4035 5.78453 0.5
80 5.23101 2.69393 8.19342 0.5
81 1.1402 2.74721 12.13 0.5
82 0.931094 8.68436 13.4844 0.5
83 3.51321 0.688056 6.20997 0.5
84 13.1782 8.99017 9.1745 0.5
85 13.5295 3.40214 7.21652 0.5
86 3.05483 0.518653 0.288673 0.5
87 4.25453 5.51064 5.78991 0.5
88 6.63106 5.81222 4.34223 0.5
89 11.917 12.4205 7.64052 0.5
90 4.29382 5.95055 4.18834 0.5
91 11.4095 7.14907 11.8176 0.5
92 13.5337 1.26722 2.13678 0.5
93 13.1824 0.745166 12.7123 0.5
94 4.7159 9.94596 12.3785 0.5
95 12.0164 1.53456 8.12654 0.5
96 11.9359 2.75934 4.37349 0.5
97 12.3635 2.87221 5.38766 0.5
98 10.5114 8.94013 0.392384 0.5
99 6.31103 8.36325 8.90882 0.5
100 0.860048 6.77714 6.22236 0.5
101 4.89948 11.8185 2.4503 0.5
102 8.57792 7.00438 9.68807 0.5
103 3.97962 4.98981 10.531 0.5
104 6.68884 11.1528 5.43162 0.5
105 11.7193 12.0698 6.64678 0.5
106 6.19809 1.66189 10.9219 0.5
107 12.9837 4.90298 7.78065 0.5
108 0.381437 10.4682 5.43827 0.5
109 0.392545 12.315 9.57929 0.5
110 8.02179 9.31333 8.69701 0.5
111 8.85307 0.0688964 3.45811 0.5
112 6.36444 0.89864 4.9465 0.5
113 1.0011 0.326103 6.21824 0.5
114 7.54062 6.90447 2.89053 0.5
115 5.61242 6.34749 11.7593 0.5
116 0.164101 5.6043 2.00983 0.5
117 0.735654 0.179209 5.26404 0.5
118 10.8204 9.62951 6.29154 0.5
119 12.6768 8.26315 1.72422 0.5
120 5.128 9.2564 3.93997 0.5
121 11.8316 13.0977 11.0976 0.5
122 2.1086 3.18156 2.02277 0.5
123 11.8965 2.11643 9.74568 0.5
124 10.2975 11.319 11.6869 0.5
125 5.05574 12.0641 3.41171 0.5
126 11.0552 11.4297 13.3217 0.5
127 7.4053 10.6282 11.4495 0.5
128 5.06937 3.09024 7.23577 0.5
129 1.60827 6.7155 11.8556 0.5
130 1.15749 12.1465 10.9256 0.5
131 7.96216 2.33345 2.15543 0.5
132 5.57365 12.2435 1.8532 0.5
133 1.07033 11.1106 10.6963 0.5
134 10.8317 11.6393 3.86409 0.5
135 12.4308 2.03283 5.89887 0.5
136 8.27262 4.92192 4.49071 0.5
137 3.09408 12.6624 5.69207 0.5
138 7.50042 12.2452 12.9006 0.5
139 6.0691 0.0581843 13.411 0.5
140 5.61981 3.36804 4.09031 0.5
141 1.06783 3.58702 4.45913 0.5
142 10.4496 2.75544 12.7659 0.5
143 0.565313 13.2202 0.00817988 0.5
144 9.04446 13.0528 9.16206 0.5
145 6.68649 6.99348 2.30157 0.5
146 9.69829 8.9115 8.63496 0.5
147 4.38863 6.98494 0.783008 0.5
148 12.3598 0.345982 11.1497 0.5
149 7.8575 6.58798 10.3107 0.5
150 12.4615 11.4473 3.88122 0.5
151 6.69129 12.7695 9.86802 0.5
152 3.4646 4.33387 11.8992 0.5
153 12.25 7.60856 7.57263 0.5
154 2.59527 2.21641 1.97856 0.5
155 2.65185 7.65369 10.3413 0.5
156 8.15212 12.0309 0.111003 0.5
157 1.26567 0.528247 3.04868 0.5
158 1.39199 9.61194 8.84682 0.5
159 3.98432 2.0146 9.0909 0.5
160 9.85685 0.0876357 11.4201 0.5
161 12.6662 2.98422 10.8145 0.5
162 6.29989 2.86324 8.20227 0.5
163 11.251 9.53105 0.738258 0.5
164 9.36126 3.0097 11.2818 0.5
165 7.30188 11.5766 11.0918 0.5
166 11.0916 12.7211 7.17126 0.5
167 11.3661 7.77677 7.96906 0.5
168 1.31188 2.83873 7.91994 0.5
169 10.2371 11.0091 12.7066 0.5
170 3.75857 6.81376 0.0615647 0.5
171 10.4457 5.02647 0.978336 0.5
172 10.9345 7.84084 10.4318 0.5
173 8.84455 10.299 1.87093 0.5
174 4.7541 1.08567 13.0493 0.5
175 2.61257 6.47516 4.026 0.5
176 4.00362 5.6091 3.26297 0.5
177 8.84502 3.80924 5.90761 0.5
178 5.86798 2.50097 4.70324 0.5
179 12.7824 5.85429 1.90181 0.5
180 9.50662 2.44113 12.2593 0.5
181 10.8598 11.1186 9.67814 0.5
182 3.17672 11.6486 1.34404 0.5
183 8.36862 7.35834 6.14926 0.5
184 10.8001 4.46211 8.32459 0.5
185 8.91974 0.470555 11.501 0.5
186 4.24973 8.74649 2.68158 0.5
187 5.56817 0.567336 12.8698 0.5
188 4.69996 5.73094 6.71977 0.5
189 0.307295 11.1351 7.0448 0.5
190 9.53371 12.8741 3.32099 0.5
191 9.25304 7.37299 3.62894 0.5
192 10.2371 1.32028 0.00402799 0.5
193 11.2266 2.75955 10.214 0.5
194 9.84678 12.8998 10.8354 0.5
195 0.254278 9.85541 12.2834 0.5
196 8.99133 0.665985 4.25086 0.5
197 2.54748 6.56509 7.93963 0.5
198 6.14373 5.77393 12.4718 0.5
199 11.0732 1.12341 8.2462 0.5
200 7.01427 6.82262 1.43523 0.5
201 0.0172471 3.89085 8.01996 0.5
202 6.6504 0.471168 8.33856 0.5
203 1.83148 3.75293 1.24279 0.5
204 2.01196 8.04932 8.40062 0.5
205 12.7991 13.215 4.01552 0.5
206 0.544669 1.02289 9.93119 0.5
207 4.18315 11.7798 8.75328 0.5
208 9.0946 4.77833 5.53671 0.5
209 5.37108 2.46196 3.80615 0.5
210 4.34528 6.39528 5.19181 0.5
211 3.94045 3.95406 10.3557 0.5
212 3.36005 5.69287 4.11302 0.5
213 3.42391 1.57689 5.81512 0.5
214 9.95059 3.69349 11.1682 0.5
215 8.04348 6.75674 1.33516 0.5
216 6.2499 8.30217 0.198149 0.5
217 4.00245 11.108 4.69468 0.5
218 6.33908 8.22127 4.64609 0.5
219 9.27719 1.06703 3.24485 0.5
220 6.12766 2.12344 10.0225 0.5
221 3.28293 3.44473 5.79739 0.5
222 7.3298 11.5157 4.8574 0.5
223 4.60216 9.49626 3.04117 0.5
224 12.3312 9.39943 3.83762 0.5
225 8.16751 11.7424 10.4242 0.5
226 10.8359 6.43431 0.113969 0.5
227 12.8709 7.33001 10.1261 0.5
228 4.28451 11.3991 5.59107 0.5
229 5.66119 4.28594 6.26169 0.5
230 5.89287 9.28013 8.67335 0.5
231 7.88876 5.7017 8.89112 0.5
232 6.41702 4.85501 12.7912 0.5
233 1.24723 0.349701 9.74732 0.5
234 11.6362 2.15503 5.21779 0.5
235 1.43451 10.8345 3.06484 0.5
236 10.5233 6.09388 1.01058 0.5
237 5.179 7.71423 6.52654 0.5
238 1.23608 12.1195 5.96664 0.5
239 9.85506 8.21583 3.82701 0.5
240 1.61372 4.76687 13.2745 0.5
241 4.0361 6.11865 0.814586 0.5
242 2.97135 0.704713 2.60825 0.5
243 2.71792 9.9829 3.43013 0.5
244 3.55007 11.7367 6.18539 0.5
245 1.48984 11.3769 11.6433 0.5
246 9.57241 9.95727 8.43989 0.5
247 3.60431 0.66535 10.6209 0.5
248 7.42386 2.68973 2.94913 0.5
249 10.7893 2.13042 13.5061 0.5
250 10.1535 2.01237 0.702702 0.5
251 5.49959 10.1835 11.7673 0.5
252 8.31801 8.45708 12.9063 0.5
253 1.4197 8.50663 0.844909 0.5
254 10.8285 2.59012 2.77608 0.5
255 8.29528 9.58519 2.36323 0.5
256 1.31014 13.1063 2.79391 0.5
257 0.832351 3.71314 7.45009 0.5
258 12.8063 6.52476 5.71328 0.5
259 4.15936 4.59518 9.57586 0.5
260 6.13503 11.9606 9.86167 0.5
261 11.7739 3.6057 5.60396 0.5
262 7.3355 11.772 5.88616 0.5
263 2.58371 4.07546 8.44116 0.5
264 10.2868 10.5672 8.84342 0.5
265 1.46846 4.27028 5.16909 0.5
266 3.85891 13.4089 5.9653 0.5
267 4.8618 7.53725 9.42987 0.5
268 7.02884 2.65777 2.03341 0.5
269 9.55706 0.315882 9.02437 0.5
270 6.63925 9.88171 8.02845 0.5
271 11.2795 11.6691 7.48832 0.5
272 6.39308 9.2321 0.607495 0.5
273 7.83819 4.93652 3.55533 0.5
274 10.2811 3.61745 7.99966 0.5
275 3.05145 10.7839 0.713193 0.5
276 5.57817 1.62907 13.1972 0.5
277 7.36792 4.49178 12.8213 0.5
278 11.1974 10.5442 0.312376 0.5
279 9.21604 11.5601 5.63087 0.5
280 4.61115 12.6125 1.87185 0.5
281 6.39343 2.70946 10.793 0.5
282 13.4435 11.1896 1.16803 0.5
283 5.40013 5.72247 1.71289 0.5
284 2.11838 10.7185 0.293503 0.5
285 3.65834 9.84003 5.87318 0.5
286 3.05966 0.680127 12.7774 0.5
287 7.75175 7.183 6.92734 0.5
288 6.26175 0.64888 6.68791 0.5
289 2.36903 10.9321 3.21229 0.5
290 1.1775 13.0614 5.73831 0.5
291 5.68842 0.740367 5.68613 0.5
292 4.21649 2.96108 12.9365 0.5
293 10.7777 5.90656 3.74496 0.5
294 2.6585 10.1899 6.13952 0.5
295 2.9838 1.49059 6.68153 0.5
296 0.0671272 4.45229 7.14355 0.5
297 10.336 10.3958 11.012 0.5
298 9.90559 4.45643 11.8454 0.5
299 2.19209 0.169448 13.3366 0.5
300 9.6564 4.75299 2.43333 0.5
301 6.08773 7.32758 11.691 0.5
302 2.63557 9.11407 2.8838 0.5
303 11.9872 8.92103 2.99569 0.5
304 0.0111148 7.23317 5.97216 0.5
305 8.44684 12.984 8.32575 0.5
306 11.7406 7.91294 1.26725 0.5
307 2.78933 6.96082 3.11785 0.5
308 13.6005 9.97929 11.3828 0.5
309 12.7997 13.4868 12.7522 0.5
310 9.45286 13.3255 4.27092 0.5
311 0.0365602 5.44372 7.034 0.5
312 7.14576 11.9264 10.1356 0.5
313 0.902993 10.7548 3.89778 0.5
314 6.80769 12.0787 9.1923 0.5
315 13.0179 5.02867 2.33412 0.5
316 8.35192 5.94653 7.90166 0.5
317 13.2955 9.05678 3.94594 0.5
318 13.5213 4.83424 6.18345 0.5
319 10.85 11.5097 0.82163 0.5
320 5.77559 3.45211 6.74111 0.5
321 2.28865 12.6932 3.04659 0.5
322 10.2741 13.5012 1.04847 0.5
323 3.72315 1.24593 2.7139 0.5
324 10.9628 3.4744 3.2149 0.5
325 1.80163 5.34945 0.613729 0.5
326 10.4607 13.0317 0.258037 0.5
327 9.01543 2.50436 8.11552 0.5
328 12.0646 6.54745 12.3237 0.5
329 7.7857 2.97963 9.03952 0.5
330 8.38524 0.634189 5.12818 0.5
331 4.62555 3.30409 3.80962 0.5
332 11.7858 1.41742 8.99889 0.5
333 13.1101 1.42064 2.99904 0.5
334 4.59514 6.51369 1.6659 0.5
335 9.9625 0.581735 4.62614 0.5
336 4.8344 1.84653 8.47609 0.5
337 11.7012 1.07505 11.4829 0.5
338 7.53306 5.71813 9.91555 0.5
339 10.2949 4.18826 2.83339 0.5
340 12.704 4.16223 12.4139 0.5
341 8.77263 0.378613 9.66308 0.5
342 6.47954 0.207783 5.64851 0.5
343 6.93798 5.83032 9.04592 0.5
344 4.98817 6.69415 6.72224 0.5
345 8.61862 8.23296 5.92778 0.5
346 0.743135 7.18407 5.36481 0.5
347 13.2495 11.6837 0.382369 0.5
348 1.82043 4.33339 0.51973 0.5
349 7.88525 6.43173 6.31015 0.5
350 8.51338 7.35731 10.6928 0.5
351 2.59594 8.62746 10.3855 0.5
352 8.9771 12.6942 7.5756 0.5
353 8.57559 7.38112 0.684382 0.5
354 2.48445 2.95292 5.72125 0.5
355 2.03283 7.30649 3.64758 0.5
356 12.0258 13.2859 4.72163 0.5
357 6.7704 12.3002 3.13269 0.5
358 3.89838 1.42728 9.88174 0.5
359 6.90928 9.28671 8.83583 0.5
360 13.1138 3.98564 6.44148 0.5
361 3.48746 0.755846 8.01878 0.5
362 1.13057 1.16562 9.12468 0.5
363 10.502 12.5153 1.07903 0.5
364 2.99872 7.96242 1.11703 0.5
365 2.13226 7.90725 0.701169 0.5
366 6.34912 8.92559 8.03093 0.5
367 10.3135 12.0378 0.122995 0.5
368 5.24581 4.4024 9.53465 0.5
369 1.76636 3.3203 5.04072 0.5
370 0.423771 10.2388 6.41744 0.5
371 9.83797 0.425172 3.64503 0.5
372 0.307963 4.77831 3.86036 0.5
373 4.75834 2.1715 12.6813 0.5
374 0.331513 8.87553 12.6026 0.5
375 0.712867 9.52427 8.04322 0.5
376 1.69768 11.4629 3.89695 0.5
377 7.70728 5.78462 4.14872 0.5
378 6.03451 9.05299 13.2032 0.5
379 5.04349 6.25835 0.858945 0.5
380 6.64648 4.04735 13.4086 0.5
381 9.75062 2.71558 7.47033 0.5
382 9.91552 2.70131 8.50679 0.5
383 2.55735 4.89254 0.144814 0.5
384 4.91056 10.4035 13.237 0.5
385 12.4596 11.2686 1.06855 0.5
386 0.52679 3.82683 3.65923 0.5
387 2.47297 6.44496 11.5397 0.5
388 1.81454 2.35141 10.2014 0.5
389 5.08798 9.28867 10.2339 0.5
390 4.77848 4.50968 10.3586 0.5
391 6.94575 1.06418 1.83248 0.5
392 0.225542 5.19595 2.93359 0.5
393 3.1998 4.82988 8.94502 0.5
394 8.88911 9.20879 8.25381 0.5
395 1.41996 0.213701 8.77784 0.5
396 0.398556 1.95925 2.65729 0.5
397 7.37717 1.92112 1.49604 0.5
398 9.15557 12.1031 2.77138 0.5
399 1.20361 4.47714 4.23898 0.5
400 6.87393 9.01906 4.97029 0.5
401 10.1442 2.85681 0.200137 0.5
402 4.76899 7.17068 5.81876 0.5
403 6.74539 13.1941 7.8113 0.5
404 11.1152 11.342 12.2956 0.5
405 12.0571 5.39274 13.5494 0.5
406 6.82541 3.51257 1.50115 0.5
407 1.81651 11.7517 3.02673 0.5
408 2.44498 3.97673 5.46776 0.5
409 3.26339 4.43104 10.9502 0.5
410 11.5132 2.56517 3.59911 0.5
411 4.54804 6.18581 13.556 0.5
412 5.4932 0.842244 0.208266 0.5
413 3.46346 6.6307 8.44325 0.5
414 3.3259 8.20543 10.7842 0.5
415 7.91312 9.98948 10.9202 0.5
416 8.64981 10.76 5.55003 0.5
417 0.992315 13.0505 9.27975 0.5
418 9.71829 0.947313 10.9927 0.5
419 3.57739 12.5849 10.7696 0.5
420 3.80442 13.5588 6.94225 0.5
421 13.424 5.1084 9.56196 0.5
422 8.11243 4.55361 5.55203 0.5
423 12.4597 13.3884 3.01141 0.5
424 2.72405 3.26111 4.8035 0.5
425 8.54102 8.20105 11.2423 0.5
426 0.889823 12.4957 7.68781 0.5
427 7.66873 2.90884 1.21919 0.5
428 0.378918 8.26425 9.17471 0.5
429 10.3424 5.33426 8.15774 0.5
430 9.02301 13.0784 11.5227 0.5
431 2.36695 4.9376 8.40085 0.5
432 13.0369 2.17672 2.33692 0.5
433 7.52617 11.2459 13.4257 0.5
434 0.408332 3.37718 0.216546 0.5
435 10.9952 8.71633 1.31912 0.5
436 6.57392 5.40794 9.93026 0.5
437 4.12054 9.0297 6.58534 0.5
438 5.77818 3.57531 7.70451 0.5
439 11.0963 10.4495 10.3502 0.5
440 9.07509 11.0088 6.38811 0.5
441 6.45093 1.18843 5.92482 0.5
442 0.73855 7.77754 6.23945 0.5
443 0.786094 10.9715 1.37358 0.5
444 9.13626 8.97779 13.0659 0.5
445 5.00261 8.50638 3.25358 0.5
446 3.51985 6.52315 4.62725 0.5
447 2.10865 9.29381 6.29933 0.5
448 5.56384 9.8316 0.255866 0.5
449 3.30496 13.3804 11.1703 0.5
450 3.46628 2.39043 1.3633 0.5
451 7.72471 3.92764 1.09766 0.5
452 1.97072 8.71071 0.0507989 0.5
453 5.26698 10.1386 3.44568 0.5
454 2.80484 0.044609 3.49342 0.5
455 0.790119 2.03999 11.6093 0.5
456 8.55781 0.263618 8.71431 0.5
457 12.2712 10.9087 8.84336 0.5
458 3.90024 0.41697 9.66526 0.5
459 13.2925 2.3493 5.63176 0.5
460 12.6743 5.84488 12.8328 0.5
461 11.628 7.78096 11.1005 0.5
462 10.2803 1.95231 7.93016 0.5
463 6.7269 3.37994 7.35235 0.5
464 12.5456 8.13265 10.6703 0.5
465 5.14516 10.8618 12.4176 0.5
466 2.97185 13.39 6.35068 0.5
467 1.33997 7.77663 0.0946366 0.5
468 13.3166 8.32024 10.0125 0.5
469 1.79903 2.05705 11.8748 0.5
470 1.58516 6.09932 11.1103 0.5
471 4.58462 0.759757 10.3366 0.5
472 10.9531 6.89509 3.92416 0.5
473 11.4452 8.22212 7.11481 0.5
474 2.26414 7.45719 9.27968 0.5
475 6.61648 3.79748 6.3751 0.5
476 7.08452 1.19957 10.8913 0.5
477 5.76886 7.95217 9.76116 0.5
478 3.03559 12.4906 0.687589 0.5
479 8.52765 7.46943 13.1714 0.5
480 3.80603 9.95704 8.36218 0.5
481 2.68274 3.84701 0.686126 0.5
482 11.2051 13.2604 0.941808 0.5
483 8.89176 11.2446 2.16988 0.5
484 10.1018 7.34132 4.26801 0.5
485 4.65302 5.68884 2.41483 0.5
486 3.60258 10.8514 8.81009 0.5
487 4.22139 2.63484 8.39335 0.5
488 5.45152 5.05322 6.99547 0.5
489 3.22091 0.893582 3.56802 0.5
490 0.544842 12.3461 8.64821 0.5
491 2.34169 7.4206 11.8559 0.5
492 1.30481 5.17359 12.4963 0.5
493 11.655 8.47751 10.2846 0.5
494 7.6658 4.23564 0.168661 0.5
495 6.60157 7.51792 0.743328 0.5
496 7.11356 0.263923 13.325 0.5
497 4.58998 4.75078 6.46012 0.5
498 3.47948 11.9294 5.20424 0.5
499 6.92468 2.09559 11.5092 0.5
500 9.8394 9.34534 6.546 0.5
501 5.07877 1.89638 4.66927 0.5
502 9.32482 10.3346 9.35717 0.5
503 7.96254 5.12472 12.3692 0.5
504 2.56964 1.21369 13.438 0.5
505 4.34188 2.75864 11.9498 0.5
506 3.97309 11.2007 1.03343 0.5
507 8.29274 4.05017 3.97029 0.5
508 0.464775 1.73226 5.54076 0.5
509 5.28256 5.29276 5.97492 0.5
510 8.26081 10.9858 11.1907 0.5
511 6.95946 0.41765 7.34375 0.5
512 8.62316 11.2247 3.16206 0.5
513 4.73314 4.87998 2.94141 0.5
514 6.02766 8.35847 1.15754 0.5
515 1.98267 10.0674 2.79952 0.5
516 5.58265 9.25066 3.01789 0.5
517 1.57961 3.76478 3.52232 0.5
518 1.84378 6.95332 8.50801 0.5
519 4.99758 7.63885 10.4097 0.5
520 2.14259 0.720656 0.604941 0.5
521 11.6156 6.12501 4.32014 0.5
522 2.84599 8.94771 11.3295 0.5
523 13.5167 8.31454 3.272 0.5
524 1.13711 0.996791 5.48831 0.5
525 11.3808 8.50807 0.422829 0.5
526 9.17098 12.3276 8.40898 0.5
527 7.34793 10.9226 1.68326 0.5
528 1.34726 0.123235 0.376722 0.5
529 0.129829 12.6208 0.730181 0.5
530 12.1034 3.10207 10.0432 0.5
531 11.0105 8.55484 11.0685 0.5
532 5.95465 9.14675 4.59959 0.5
533 6.02271 7.54028 10.6698 0.5
534 2.00375 12.2008 11.3981 0.5
535 8.37315 12.7599 12.9563 0.5
536 1.56911 12.5234 3.7331 0.5
537 2.68351 10.7303 9.31088 0.5
538 7.90238 10.0886 1.55616 0.5
539 2.60209 7.92642 3.10527 0.5
540 0.87409 3.52254 8.49864 0.5
541 4.0155 11.7012 1.97074 0.5
542 8.18836 0.127726 13.1498 0.5
543 13.0725 5.63963 6.10396 0.5
544 8.07684 2.24517 8.31636 0.5
545 1.79736 7.18561 2.68828 0.5
546 1.28845 0.10761 12.9239 0.5
547 10.8702 5.53285 4.65559 0.5
548 11.9128 13.0626 6.75838 0.5
549 12.7464 9.77743 7.47969 0.5
550 12.5687 12.3965 3.47908 0.5
551 6.44888 1.93313 1.84634 0.5
552 3.76998 7.76099 0.475677 0.5
553 11.13 5.21946 8.74949 0.5
554 3.64262 12.6191 6.60647 0.5
555 0.947589 4.44834 3.17195 0.5
556 7.4956 13.2272 12.6203 0.5
557 7.58186 11.5834 0.828392 0.5
558 4.82346 1.32865 9.45409 0.5
559 2.94133 10.131 8.49799 0.5
560 6.79239 3.14424 11.6178 0.5
561 7.95084 8.62284 11.9714 0.5
562 13.1726 2.76433 13.4526 0.5
563 8.57957 6.59332 7.00541 0.5
564 7.97692 5.09383 13.4011 0.5
565 10.108 5.06842 5.18739 0.5
566 7.04691 2.04859 10.4682 0.5
567 12.4987 4.30576 2.80301 0.5
568 7.79561 1.851 11.2251 0.5
569 10.6799 6.49984 11.5192 0.5
570 13.4168 8.76467 2.30962 0.5
571 2.21744 0.841601 3.28835 0.5
572 4.18139 3.37476 0.290656 0.5
573 0.148577 13.3045 5.85949 0.5
574 8.90163 8.40513 3.61576 0.5
575 8.7661 13.0851 2.60708 0.5
576 3.38506 10.6976 7.79761 0.5
577 3.5268 9.50626 2.99813 0.5
578 2.22598 11.0301 1.16515 0.5
579 12.7756 9.95158 12.0387 0.5
580 2.45242 5.51294 7.61783 0.5
581 1.46093 12.7731 8.48791 0.5
582 2.79313 11.9999 10.756 0.5
583 2.91659 11.1531 13.2941 0.5
584 10.643 6.45443 4.62776 0.5
585 12.7499 4.84916 6.81286 0.5
586 0.37624 5.94797 9.77576 0.5
587 13.0448 2.851 1.60283 0.5
588 13.3177 0.22716 0.0201885 0.5
589 13.3971 9.70592 8.3269 0.5
590 3.48825 11.5861 8.08232 0.5
591 3.47323 3.24862 12.224 0.5
592 10.3999 11.2086 10.5944 0.5
593 5.7662 10.3018 6.47338 0.5
594 13.478 11.0754 6.11374 0.5
595 13.1068 10.1554 5.80194 0.5
596 9.28796 9.50353 2.3732 0.5
597 2.42346 9.67002 9.35525 0.5
598 7.6205 10.8715 5.61252 0.5
599 11.3003 11.0503 8.82385 0.5
600 11.7804 5.68027 12.4445 0.5
601 2.93118 5.91735 3.14497 0.5
602 13.5012 6.45542 10.5264 0.5
603 2.94175 7.23455 11.1398 0.5
604 5.47613 1.32453 10.3128 0.5
605 7.66734 2.58676 11.9039 0.5
606 11.03 9.29782 5.39493 0.5
607 8.56154 10.0871 8.68094 0.5
608 8.35891 13.459 12.1998 0.5
609 1.43744 11.2955 0.705582 0.5
610 1.15483 8.68244 8.62136 0.5
611 0.108891 8.77043 8.33458 0.5
612 5.67569 13.5837 2.89705 0.5
613 3.80631 5.56799 4.93051 0.5
614 3.28132 13.2994 10.1174 0.5
615 3.41531 10.0536 9.36421 0.5
616 13.3848 6.64235 2.06151 0.5
617 6.82396 6.12568 2.77016 0.5
618 11.6412 6.69433 7.79763 0.5
619 12.8362 4.78596 13.2221 0.5
620 0.79034 10.5862 11.5684 0.5
621 2.11544 3.97097 4.40375 0.5
622 5.26887 8.3875 8.8026 0.5
623 13.1331 8.03013 4.23531 0.5
624 13.1812 5.92945 2.77665 0.5
625 2.02354 3.04046 11.7614 0.5
626 2.83971 3.86327 1.62077 0.5
627 9.87285 6.5197 0.301466 0.5
628 13.3388 4.49064 10.3742 0.5
629 5.26415 4.10629 2.70226 0.5
630 3.56736 3.36395 1.15762 0.5
631 9.39258 1.44237 0.469192 0.5
632 6.66762 12.8752 13.1453 0.5
633 10.1647 0.983074 0.965262 0.5
634 10.187 10.4727 9.95735 0.5
635 9.80603 2.16703 13.316 0.5
636 9.86931 3.37927 12.1624 0.5
637 13.0947 10.558 6.76969 0.5
638 5.28373 0.884046 4.77952 0.5
639 8.81397 6.4764 10.4774 0.5
640 2.36502 4.48987 7.50804 0.5
641 7.48112 7.22722 5.77722 0.5
642 11.2745 5.69457 0.562992 0.5
643 11.193 1.78046 7.51086 0.5
644 6.9126 3.50015 10.6409 0.5
645 0.797035 11.1584 6.20412 0.5
646 8.96786 8.69165 12.0976 0.5
647 8.92681 4.94208 11.9226 0.5
648 8.33059 10.2567 11.8805 0.5
649 5.43706 8.00076 11.4004 0.5
650 2.98938 0.536742 7.12724 0.5
651 0.556036 5.7609 6.2382 0.5
652 5.17196 4.09839 7.15736 0.5
653 0.51345 6.21583 2.6839 0.5
654 4.99196 10.2126 10.9216 0.5
655 11.8858 11.6211 9.44829 0.5
656 0.528089 11.0747 0.398685 0.5
657 11.1276 0.0952334 6.78202 0.5
658 9.1008 9.9833 5.98935 0.5
659 1.16472 9.86606 3.33417 0.5
660 0.508746 0.333122 9.15064 0.5
661 1.27332 7.77974 9.02674 0.5
662 3.38577 10.8013 5.54157 0.5
663 5.97753 12.7092 3.4811 0.5
664 5.01119 6.17564 5.8495 0.5
665 10.4668 11.0767 3.20637 0.5
666 5.95306 11.6292 8.89802 0.5
667 9.8278 4.42082 8.27434 0.5
668 5.22863 3.18585 3.12837 0.5
669 8.03408 10.6493 2.39147 0.5
670 9.36176 13.3061 8.26291 0.5
671 7.08869 8.41083 0.848858 0.5
672 3.21566 2.45335 5.31092 0.5
673 5.39422 8.80888 0.430052 0.5
674 3.18793 7.9933 11.7005 0.5
675 2.69964 3.80579 11.5602 0.5
676 2.08338 0.0779385 2.58399 0.5
677 3.47726 8.46261 3.01942 0.5
678 11.8622 7.49405 10.2006 0.5
679 10.7573 11.9123 6.72794 0.5
680 4.84721 11.6824 1.42437 0.5
681 4.12273 1.03709 8.80906 0.5
682 2.3739 2.23387 11.0618 0.5
683 0.937707 5.84387 11.7516 0.5
684 11.8201 13.0119 3.69081 0.5
685 12.2798 12.363 4.44737 0.5
686 10.7006 7.5411 11.3354 0.5
687 4.94222 9.34001 13.2139 0.5
688 1.21161 8.0486 5.34701 0.5
689 3.1397 3.07712 2.03628 0.5
690 4.43831 8.23182 6.99952 0.5
691 13.3835 10.7369 11.8854 0.5
692 4.95318 0.0609111 13.4578 0.5
693 10.7702 5.60703 12.0759 0.5
694 5.77908 8.8788 9.6217 0.5
695 12.5839 8.22791 2.71867 0.5
696 10.7902 2.73898 7.81107 0.5
697 13.4641 9.12941 7.42407 0.5
698 5.74149 11.0551 5.75538 0.5
699 2.9886 8.31052 0.241629 0.5
700 12.5862 8.48073 3.66193 0.5
701 9.2646 8.04224 12.8546 0.5
702 3.9108 1.70468 8.09749 0.5
703 2.05451 5.58443 13.1081 0.5
704 8.8564 2.85237 8.94006 0.5
705 10.8015 7.09362 7.99545 0.5
706 6.6404 12.1267 5.17717 0.5
707 3.25529 4.67079 9.9271 0.5
708 13.0214 1.8078 1.4368 0.5
709 9.86608 0.363745 0.281467 0.5
710 7.03719 6.36246 3.69551 0.5
711 0.598914 0.699096 13.385 0.5
712 12.8015 2.37165 10.0122 0.5
713 8.25446 9.65509 7.8018 0.5
714 12.7414 4.02841 7.35447 0.5
715 12.9187 9.1441 2.98552 0.5
716 1.62792 1.60192 10.9966 0.5
717 2.8578 7.25671 0.317604 0.5
718 11.7303 0.763899 7.44075 0.5
719 4.5211 10.5669 11.6617 0.5
720 12.2547 11.5549 2.89841 0.5
721 11.2167 5.21918 7.70734 0.5
722 6.50657 0.0899631 12.4686 0.5
723 3.22821 11.7065 9.09187 0.5
724 9.65224 13.4375 9.92424 0.5
725 2.43784 1.96566 5.81699 0.5
726 7.38111 2.93349 8.00065 0.5
727 5.04701 2.87028 13.4958 0.5
728 12.6065 2.09657 4.85536 0.5
729 9.50383 4.69218 1.40873 0.5
730 8.38022 5.69825 6.80642 0.5
731 10.8377 0.410202 0.302374 0.5
732 1.8261 3.24766 8.72764 0.5
733 8.26424 11.0862 0.305601 0.5
734 10.0121 11.4157 6.1133 0.5
735 2.94889 5.75014 8.42165 0.5
736 4.27591 4.37788 11.2931 0.5
737 5.06354 4.13096 3.63402 0.5
738 1.9869 7.16532 11.0115 0.5
739 7.6797 0.103624 8.04855 0.5
740 11.9513 0.508441 8.41885 0.5
741 7.63646 4.10637 4.74055 0.5
742 5.63008 9.46255 1.22467 0.5
743 7.01091 8.12404 5.43727 0.5
744 5.06731 3.05106 12.4851 0.5
745 6.97583 6.25194 12.1753 0.5
746 4.93076 8.42169 9.71254 0.5
747 13.1175 0.147318 11.7816 0.5
748 7.33902 9.21855 7.98169 0.5
749 6.1551 9.58669 3.71749 0.5
750 1.58777 1.04283 13.448 0.5
751 13.0526 8.32238 12.7504 0.5
752 2.07338 0.72404 12.6051 0.5
753 6.76054 2.61592 1.0469 0.5
754 2.51326 11.4299 11.5555 0.5
755 6.85485 4.268 0.802204 0.5
756 6.91592 7.85903 1.66971 0.5
757 11.4933 6.17391 11.6132 0.5
758 4.46483 11.9729 4.77832 0.5
759 12.4816 9.06117 2.11927 0.5
760 7.26474 4.96966 4.40905 0.5
761 3.46588 11.6664 0.410138 0.5
762 0.0533908 2.48408 0.803926 0.5
763 12.0444 0.329897 3.88971 0.5
764 8.87666 9.44381 3.34036 0.5
765 12.6506 2.46325 0.776878 0.5
766 8.24255 3.2337 4.54353 0.5
767 3.46385 6.99125 1.0322 0.5
768 12.8205 13.041 10.9773 0.5
769 11.6133 2.71589 6.04246 0.5
770 10.8576 7.84785 6.39354 0.5
771 7.668 8.04553 6.23082 0.5
772 0.896981 1.91112 10.5353 0.5
773 9.28937 3.4505 8.18408 0.5
774 9.50958 0.226612 2.66211 0.5
775 10.8186 13.2718 11.2196 0.5
776 3.10829 9.24284 6.41785 0.5
777 11.33 12.4271 4.38929 0.5
778 11.7019 12.0067 3.53802 0.5
779 8.03695 7.8414 5.29212 0.5
780 2.71459 11.1641 8.41459 0.5
781 13.3217 1.62443 6.37035 0.5
782 11.1804 3.30422 4.15317 0.5
783 13.3035 9.0843 11.9624 0.5
784 2.28361 2.43349 4.98788 0.5
785 10.0802 9.73454 5.64643 0.5
786 8.69605 4.11699 4.89263 0.5
787 6.17126 12.802 2.47838 0.5
788 11.2901 6.82768 10.8484 0.5
789 9.21344 3.97509 2.8377 0.5
790 8.51188 0.651649 2.60121 0.5
791 5.29658 7.25395 12.269 0.5
792 5.8891 2.55336 7.35116 0.5
793 6.84335 8.8731 4.06223 0.5
794 13.0363 0.480585 3.55173 0.5
795 7.45286 8.22019 4.58877 0.5
796 4.3869 10.3605 9.07244 0.5
797 3.6745 3.64033 11.328 0.5
798 1.8711 2.94894 4.22349 0.5
799 0.196756 0.80106 5.82884 0.5
800 0.358461 8.00582 13.1805 0.5
801 7.74008 5.94176 3.09429 0.5
802 4.19433 10.7972 12.5802 0.5
803 11.115 10.9788 11.2247 0.5
804 13.4644 5.92967 8.95181 0.5
805 8.74625 8.68275 2.69949 0.5
806 2.82845 7.38901 8.3603 0.5
807 3.18402 4.92094 7.86726 0.5
808 1.93726 9.41166 3.58027 0.5
809 9.48019 4.72178 11.0351 0.5
810 2.95232 12.4625 11.6013 0.5
811 10.2476 7.42875 3.30758 0.5
812 2.39849 8.09976 11.2029 0.5
813 7.01082 5.15813 12.0337 0.5
814 9.95208 0.654573 5.68969 0.5
815 11.8598 11.7751 8.3967 0.5
816 9.40693 7.37259 0.141495 0.5
817 11.5641 11.057 3.387 0.5
818 3.91061 10.8284 0.0206555 0.5
819 6.04802 0.321376 7.57576 0.5
820 13.5365 13.0327 9.11391 0.5
821 11.2449 2.97149 5.14064 0.5
822 9.29491 1.14555 5.09027 0.5
823 10.287 0.265023 10.5924 0.5
824 1.92922 8.90085 5.47129 0.5
825 7.92795 1.27113 2.03963 0.5
826 6.73534 13.1527 8.87014 0.5
827 11.0136 0.644045 1.34946 0.5
828 4.38949 3.82858 3.07376 0.5
829 4.58275 2.21886 7.57394 0.5
830 5.20118 12.177 8.58553 0.5
831 11.5539 13.4159 7.70385 0.5
832 0.635736 5.78932 10.7948 0.5
833 1.96834 11.4824 10.7588 0.5
834 9.24076 2.55709 0.443579 0.5
835 1.19713 6.16497 12.6636 0.5
836 7.57714 9.60324 11.8072 0.5
837 7.19785 3.407 0.490822 0.5
838 12.356 13.2113 11.8811 0.5
839 4.51506 5.45969 1.3974 0.5
840 7.63527 12.9219 0.0149318 0.5
841 6.33838 11.7808 6.13156 0.5
842 13.2989 3.79697 11.0671 0.5
843 12.6908 3.20702 12.6869 0.5
844 4.69177 3.83277 13.131 0.5
845 10.3874 5.95941 5.43174 0.5
846 6.27685 12.4233 8.35366 0.5
847 4.22724 7.3738 6.6633 0.5
848 5.21729 6.32485 12.6324 0.5
849 0.756074 12.8085 6.59332 0.5
850 10.7569 10.4392 11.9877 0.5
851 6.67713 10.9406 6.36432 0.5
852 6.27728 10.6184 7.31108 0.5
853 4.17893 8.25284 8.94745 0.5
854 9.97251 6.54587 3.78219 0.5
855 9.60533 11.1611 2.81641 0.5
856 1.88895 13.4697 3.54196 0.5
857 10.0189 4.30357 10.3161 0.5
858 7.48786 10.0856 8.42352 0.5
859 11.8463 5.38031 4.88752 0.5
860 11.043 5.20158 5.48451 0.5
861 11.1107 12.7987 6.17675 0.5
862 10.3876 7.00748 10.5062 0.5
863 7.75804 8.71244 5.42541 0.5
864 8.10664 6.97977 7.83566 0.5
865 12.1466 3.97448 13.12 0.5
866 5.41663 13.3366 1.95183 0.5
867 12.6669 4.1605 0.444145 0.5
868 9.0893 9.36968 9.21294 0.5
869 4.68562 0.256762 12.5814 0.5
870 3.49422 8.27909 6.54233 0.5
871 12.5778 8.76794 4.59623 0.5
872 1.07819 5.55875 13.4839 0.5
873 13.0106 0.488249 2.51284 0.5
874 7.15374 5.51501 12.8907 0.5
875 7.60381 12.4357 5.06433 0.5
876 1.91641 5.92707 8.43296 0.5
877 10.5552 7.86858 7.32581 0.5
878 2.46973 11.6114 0.530523 0.5
879 1.6677 3.85118 7.94774 0.5
880 12.2602 0.84311 3.09979 0.5
881 11.0682 10.6317 12.9593 0.5
882 1.88314 10.4151 3.8772 0.5
883 11.1901 12.3496 0.446895 0.5
884 13.1812 3.41219 0.724276 0.5
885 7.52489 10.951 10.4541 0.5
886 0.337851 2.91266 7.93206 0.5
887 0.281019 13.5546 12.665 0.5
888 5.02772 4.82328 1.98667 0.5
889 10.3265 4.64662 7.44152 0.5
890 11.4298 8.75419 6.21918 0.5
891 1.97531 6.34091 3.224 0.5
892 9.68565 0.881488 10.0108 0.5
893 9.65984 3.82637 7.34828 0.5
894 7.5995 7.55351 0.969105 0.5
895 11.9385 8.77268 1.25094 0.5
896 7.07873 12.1119 0.251684 0.5
897 6.61962 13.454 3.15416 0.5
898 5.24408 12.6777 2.65199 0.5
899 10.3551 4.86651 9.10784 0.5
900 11.7869 10.704 9.64847 0.5
901 13.3055 5.49886 10.4373 0.5
902 10.9302 6.0765 8.23284 0.5
903 9.65388 8.90463 3.06982 0.5
904 8.07708 3.5379 5.50573 0.5
905 13.522 6.43639 6.59086 0.5
906 12.9749 5.08505 3.41113 0.5
907 6.80184 4.43221 10.1379 0.5
908 9.21286 0.192254 5.19516 0.5
909 9.94937 3.25264 2.93788 0.5
910 8.16755 2.76541 7.45295 0.5
911 6.14393 6.77432 12.5459 0.5
912 8.42617 9.27345 11.4334 0.5
913 11.0907 5.54574 13.0751 0.5
914 5.66656 13.1086 12.7186 0.5
915 8.22165 2.49939 5.33002 0.5
916 10.685 8.76488 6.80872 0.5
917 11.5171 0.159212 11.7926 0.5
918 7.48042 6.41098 8.34075 0.5
919 13.1179 12.1343 1.31808 0.5
920 0.336047 11.6098 10.3391 0.5
921 5.3523 6.0448 7.53281 0.5
922 12.4963 3.51094 11.6799 0.5
923 0.925218 2.60182 8.82638 0.5
924 11.5337 11.3856 10.3462 0.5
925 10.676 3.53168 2.26515 0.5
926 4.0141 9.89121 13.0188 0.5
927 1.63387 7.41592 5.92156 0.5
928 0.198605 6.33713 5.56501 0.5
929 1.38521 2.64304 11.1346 0.5
930 10.0489 9.62607 9.27614 0.5
931 5.63141 9.87621 12.7787 0.5
932 4.15441 8.8495 3.66461 0.5