ITEM: TIMESTEP
440000
ITEM: NUMBER OF ATOMS
1000
ITEM: BOX BOUNDS xy xz yz pp pp pp
0.0000000000000000e+00 1.3572088000000001e+01 0.0000000000000000e+00
0.0000000000000000e+00 1.3572088000000001e+01 0.0000000000000000e+00
0.0000000000000000e+00 1.3572088000000001e+01 0.0000000000000000e+00
ITEM: ATOMS id x y z radius
1 4.3075 3.8856 12.2097 0.5
2 4.992 10.9407 3.97717 0.5
3 8.9811 10.3075 2.82747 0.5
4 9.51211 5.96424 1.19241 0.5
5 9.39009 7.65114 10.2021 0.5
6 3.56221 12.7878 5.19319 0.5
7 2.72238 8.73554 1.03643 0.5
8 13.0044 11.217 1.75496 0.5
9 1.94722 8.32642 6.15429 0.5
10 3.15369 13.3349 10.3428 0.5
11 0.416027 9.52553 9.01209 0.5
12 10.1203 5.64981 0.452413 0.5
13 8.58342 11.4051 6.06974 0.5
14 10.9156 2.37069 4.23958 0.5
15 5.91254 1.75889 4.64291 0.5
16 7.79534 6.49601 9.71718 0.5
17 6.68726 12.4365 10.6673 0.5
18 2.89647 8.51583 6.0314 0.5
19 9.77886 5.21665 2.01874 0.5
20 10.0688 11.8877 3.31194 0.5
21 2.29528 4.54276 1.3754 0.5
22 1.85444 5.70265 12.3669 0.5
23 1.91292 1.39498 10.3486 0.5
24 7.59689 7.564 2.1898 0.5
25 1.12326 6.64607 3.11335 0.5
26 10.3522 10.3415 6.1975 0.5
27 11.0204 6.63024 12.5936 0.5
28 4.70308 11.5431 11.9031 0.5
29 13.5136 6.6043 0.873242 0.5
30 8.29145 11.0329 1.39354 0.5
31 0.86471 0.094409 8.43066 0.5
32 9.12766 2.61891 13.0686 0.5
33 12.9112 6.09041 9.82066 0.5
34 3.83821 8.8203 5.73237 0.5
35 11.5355 6.22724 13.3812 0.5
36 9.15265 2.08359 5.23727 0.5
37 0.461043 0.864246 2.49612 0.5
38 3.28265 1.28794 2.05951 0.5
39 10.3068 4.43433 1.73261 0.5
40 5.92251 6.07614 6.47565 0.5
41 8.30114 11.2627 5.14468 0.5
42 6.88929 5.39757 3.40818 0.5
43 4.71074 5.562 9.62259 0.5
44 4.31 10.7811 8.30399 0.5
45 7.51955 6.5431 2.23202 0.5
46 10.3407 10.8773 13.561 0.5
47 2.98873 9.33156 5.44462 0.5
48 7.69412 10.6098 0.726878 0.5
49 5.8423 12.6062 9.17496 0.5
50 6.51292 1.16101 10.185 0.5
51 0.310999 10.0023 7.09538 0.5
52 6.38806 10.1298 7.33352 0.5
53 9.79235 3.58987 1.74409 0.5
54 11.8446 11.6175 4.22167 0.5
55 0.271284 1.14034 6.47484 0.5
56 12.9659 4.4198 2.80489 0.5
57 0.470796 11.5609 11.4793 0.5
58 5.4702 8.29947 10.5662 0.5
59 1.81425 10.7202 11.2337 0.5
60 7.37855 4.84749 9.41436 0.5
61 4.61667 0.57599 10.8112 0.5
62 0.69903 8.28097 0.733295 0.5
63 11.4699 8.68007 1.83477 0.5
64 12.254 2.41844 10.1143 0.5
65 13.1517 1.50084 5.04291 0.5
66 12.6088 1.41249 1.87741 0.5
67 8.3821 3.42585 8.18323 0.5
68 3.05776 1.35594 3.01267 0.5
69 11.7226 3.23223 10.4366 0.5
70 13.3704 3.58992 10.2391 0.5
71 2.59804 6.90846 8.95291 0.5
72 7.37815 2.65407 11.2308 0.5
73 8.49952 6.64562 9.01695 0.5
74 5.97113 4.69172 10.4593 0.5
75 9.28779 0.329436 10.2611 0.5
76 12.0371 3.24417 13.3055 0.5
77 10.294 2.59311 3.40965 0.5
78 8.9199 2.95396 4.74138 0.5
79 4.32837 12.7361 5.74025 0.5
80 5.40364 2.8052 8.28942 0.5
81 1.18401 2.86774 12.1445 0.5
82 1.18712 8.89465 0.135881 0.5
83 3.161 0.650185 6.46859 0.5
84 13.1887 8.90748 9.195 0.5
85 13.3644 3.46637 6.8631 0.5
86 2.8341 0.340667 0.620564 0.5
87 4.36141 5.64463 5.98662 0.5
88 6.74526 5.61484 4.42829 0.5
89 11.9663 12.6343 7.38623 0.5
90 4.10486 6.04021 4.54925 0.5
91 11.5663 7.39664 11.9878 0.5
92 13.5949 1.35306 1.60065 0.5
93 13.2098 0.590849 12.7753 0.5
94 4.77802 10.0097 12.3552 0.5
95 11.972 1.47652 7.81025 0.5
96 11.7598 2.85771 4.29758 0.5
97 12.1419 2.77754 5.19889 0.5
98 10.5966 9.84848 0.0348249 0.5
99 6.62881 8.61576 9.3368 0.5
100 0.164073 7.25795 6.07095 0.5
101 4.8861 11.3558 2.99957 0.5
102 8.65685 7.10434 9.86553 0.5
103 4.00746 5.05952 10.2267 0.5
104 6.83073 11.0745 6.07111 0.5
105 11.8693 12.3549 6.5557 0.5
106 6.07467 1.65049 10.898 0.5
107 13.1154 4.80376 7.5928 0.5
108 0.368662 10.6084 5.16435 0.5
109 0.206521 12.7517 9.73339 0.5
110 8.19994 9.29292 8.88652 0.5
111 8.8746 13.5639 3.3663 0.5
112 6.35746 1.08328 5.25782 0.5
113 0.613543 0.167022 6.2527 0.5
114 7.33034 7.01472 3.08056 0.5
115 5.92195 6.24398 12.1062 0.5
116 13.5536 5.87157 1.71594 0.5
117 0.767874 0.102193 5.308 0.5
118 11.0168 9.50526 6.22177 0.5
119 12.0785 8.03042 1.44819 0.5
120 5.36144 9.21387 3.8478 0.5
121 11.7451 13.5149 10.8635 0.5
122 2.35928 3.09358 2.43379 0.5
123 12.4935 2.45663 9.14979 0.5
124 10.5009 11.4608 11.514 0.5
125 4.97106 12.0224 3.92376 0.5
126 11.1043 11.401 13.1615 0.5
127 7.55213 10.7943 11.448 0.5
128 5.00586 3.19652 7.43989 0.5
129 1.70617 6.63284 12.2482 0.5
130 1.2615 12.2065 10.981 0.5
131 7.5173 1.77339 2.20142 0.5
132 5.71338 11.5557 2.4322 0.5
133 1.05762 11.1749 10.8258 0.5
134 11.0784 11.8611 3.61311 0.5
135 12.1817 1.71885 5.47712 0.5
136 8.20682 4.79652 4.27951 0.5
137 3.32103 12.4562 6.04737 0.5
138 7.23361 12.2064 13.0554 0.5
139 5.69051 13.5735 13.4877 0.5
140 5.65674 3.38057 4.13933 0.5
141 0.680976 3.6694 4.33066 0.5
142 10.1526 2.87868 13.2193 0.5
143 0.650986 12.9745 13.2731 0.5
144 9.22922 12.8682 8.71192 0.5
145 6.73752 7.1567 2.23483 0.5
146 10.0352 8.98956 8.64858 0.5
147 4.5942 6.83222 0.669739 0.5
148 12.3977 0.659443 11.2407 0.5
149 8.34809 6.45021 10.6158 0.5
150 12.5818 11.4208 3.59873 0.5
151 6.67358 12.7909 9.73699 0.5
152 3.43128 4.3262 11.8518 0.5
153 12.2617 7.26962 7.54808 0.5
154 2.79618 2.11547 2.30389 0.5
155 2.30193 7.71338 10.6774 0.5
156 7.89879 12.2746 0.184318 0.5
157 1.48864 0.0767326 3.32739 0.5
158 1.15691 10.0535 8.89122 0.5
159 3.81339 2.2774 8.89437 0.5
160 9.87738 0.475478 11.089 0.5
161 12.7414 3.06115 10.6682 0.5
162 6.50528 2.84021 8.16989 0.5
163 11.523 9.80391 0.614856 0.5
164 9.73455 2.96136 11.5202 0.5
165 7.48085 11.8465 11.0238 0.5
166 11.1211 12.8428 6.93614 0.5
167 11.5251 7.60666 7.96248 0.5
168 1.43275 3.03411 7.33978 0.5
169 10.2132 11.3675 12.5878 0.5
170 3.68058 6.65367 0.158381 0.5
171 10.5335 5.37135 1.28913 0.5
172 11.0987 8.14136 10.5686 0.5
173 8.8951 10.3416 1.82642 0.5
174 4.17334 0.658024 13.3677 0.5
175 2.58105 6.37373 4.10135 0.5
176 3.8011 5.58673 3.23746 0.5
177 9.02448 4.11421 6.08826 0.5
178 5.85885 2.72528 4.87053 0.5
179 12.755 6.21274 1.50697 0.5
180 9.87143 2.39394 12.3683 0.5
181 11.0518 11.2573 9.47421 0.5
182 3.24479 11.2051 1.43564 0.5
183 8.41008 7.17792 6.37709 0.5
184 11.0263 4.70701 8.82538 0.5
185 8.96919 0.713974 11.0623 0.5
186 4.5229 8.13139 2.88709 0.5
187 4.98708 0.143293 12.8568 0.5
188 5.04461 5.85923 6.76176 0.5
189 0.359122 11.0481 6.78815 0.5
190 9.62448 12.8437 3.26661 0.5
191 9.25048 7.26429 3.54928 0.5
192 10.3764 1.14821 0.0754638 0.5
193 11.7348 2.91402 9.43349 0.5
194 9.9537 13.2187 10.5089 0.5
195 0.325262 9.96534 12.3528 0.5
196 8.99714 0.607829 4.12128 0.5
197 2.61919 6.809 7.94727 0.5
198 6.25127 6.03884 12.9535 0.5
199 11.3281 1.40264 8.50771 0.5
200 7.08915 7.10503 1.36125 0.5
201 0.0555735 3.98869 7.67978 0.5
202 6.69134 0.238834 8.15001 0.5
203 1.87311 3.64347 1.65239 0.5
204 2.05969 8.31623 8.27327 0.5
205 13.0249 13.0923 3.61554 0.5
206 0.951271 1.33884 10.074 0.5
207 4.15229 11.8176 8.32876 0.5
208 9.32846 3.76136 5.15066 0.5
209 5.35542 2.37499 4.02072 0.5
210 4.18225 6.46133 5.39793 0.5
211 4.23139 4.13476 10.3604 0.5
212 3.27952 5.62248 4.28468 0.5
213 3.22328 1.8497 5.40985 0.5
214 9.94114 3.9993 11.5659 0.5
215 8.00933 6.98528 1.33654 0.5
216 6.47262 8.48556 0.17334 0.5
217 4.37901 11.4156 4.56813 0.5
218 6.48788 8.19546 4.84952 0.5
219 9.09604 0.846069 3.11217 0.5
220 6.39856 2.16819 9.8956 0.5
221 3.04891 3.58446 5.31593 0.5
222 7.2612 11.0502 5.20794 0.5
223 4.65792 9.14116 3.17327 0.5
224 11.9836 9.59717 3.51749 0.5
225 7.89436 11.5923 10.1646 0.5
226 10.5892 6.42968 0.00929463 0.5
227 13.2788 7.59065 10.1829 0.5
228 4.69901 11.7749 5.43518 0.5
229 5.69192 4.36101 6.35313 0.5
230 6.07773 9.31467 8.88522 0.5
231 8.10257 5.72095 9.13108 0.5
232 6.90349 4.0471 13.0738 0.5
233 1.55565 0.559001 9.84015 0.5
234 11.4566 1.99255 4.81386 0.5
235 1.27795 10.7911 3.29799 0.5
236 10.4934 6.42417 1.01721 0.5
237 5.31553 7.83236 6.79458 0.5
238 1.13601 12.0619 6.25426 0.5
239 9.89265 8.00993 3.72978 0.5
240 1.29922 4.63895 0.020494 0.5
241 4.00576 5.9179 0.725488 0.5
242 3.10334 0.48014 2.57507 0.5
243 2.42593 9.55483 3.52916 0.5
244 4.23504 11.9139 6.29507 0.5
245 1.55123 11.5113 11.6728 0.5
246 9.74262 9.91647 8.45955 0.5
247 3.61808 0.707732 10.2878 0.5
248 6.94474 2.06421 2.97506 0.5
249 10.5158 2.12705 0.364847 0.5
250 9.82047 1.60532 0.711656 0.5
251 5.57911 10.1132 11.7019 0.5
252 8.32101 8.64452 12.9169 0.5
253 1.6321 8.67318 1.04378 0.5
254 10.874 2.65049 2.52999 0.5
255 8.48888 9.62678 2.25044 0.5
256 1.65032 12.6387 3.18207 0.5
257 0.738657 3.71585 6.97786 0.5
258 12.8698 6.71576 4.68233 0.5
259 4.38302 4.59911 9.48808 0.5
260 6.0593 12.0601 9.97516 0.5
261 11.6009 3.26988 5.96594 0.5
262 7.65555 11.7972 5.80547 0.5
263 2.61735 4.35052 8.27197 0.5
264 10.4656 10.646 8.78142 0.5
265 1.06262 4.3427 4.99066 0.5
266 3.70125 13.4084 6.05146 0.5
267 5.35163 7.4106 9.23085 0.5
268 6.50289 2.01454 2.12686 0.5
269 9.59708 0.219496 8.66548 0.5
270 6.63384 9.74227 8.19484 0.5
271 11.3116 11.8317 7.20895 0.5
272 6.29717 9.37235 0.632298 0.5
273 7.74392 4.87479 3.38398 0.5
274 10.6081 3.81776 8.2234 0.5
275 2.89653 10.7616 0.539148 0.5
276 4.91472 1.20759 12.7846 0.5
277 7.60212 4.43724 0.0488819 0.5
278 11.2457 10.6227 0.0736892 0.5
279 9.37172 11.3621 5.33352 0.5
280 4.91063 11.9448 2.11825 0.5
281 6.42601 2.58191 10.8948 0.5
282 0.323188 11.2045 1.35022 0.5
283 5.24112 5.65823 1.77909 0.5
284 2.01921 11.0624 0.229919 0.5
285 3.86896 9.77592 5.78872 0.5
286 3.12142 0.52591 13.2552 0.5
287 7.73032 7.22834 7.14323 0.5
288 6.15691 0.0171744 6.5299 0.5
289 2.31376 10.6403 3.3771 0.5
290 1.29841 13.0607 6.03005 0.5
291 5.81902 0.351981 5.61892 0.5
292 4.05119 3.04965 12.7804 0.5
293 10.316 5.61341 4.13027 0.5
294 2.90462 10.1504 6.09051 0.5
295 3.1018 1.69043 6.34982 0.5
296 13.4902 4.41517 6.79931 0.5
297 10.6151 10.5847 10.8756 0.5
298 9.30874 4.39679 12.2643 0.5
299 2.11483 0.205219 13.5103 0.5
300 9.3212 4.41253 1.85686 0.5
301 6.0084 7.27292 11.9068 0.5
302 2.06687 8.918 2.9487 0.5
303 11.776 9.23143 2.53682 0.5
304 13.3388 7.52708 5.14199 0.5
305 8.51901 12.7263 7.96358 0.5
306 11.2715 8.1664 0.971144 0.5
307 2.76144 6.92545 3.2877 0.5
308 13.5276 10.0411 11.4679 0.5
309 12.8123 13.2958 12.6396 0.5
310 9.44531 13.1766 4.20246 0.5
311 12.6504 5.91956 6.22117 0.5
312 7.03757 11.8178 10.0253 0.5
313 0.969512 10.8129 4.29054 0.5
314 6.60668 11.9453 9.15239 0.5
315 12.7973 5.22729 2.0141 0.5
316 8.28674 6.00355 8.10243 0.5
317 12.6929 8.95668 3.97978 0.5
318 13.3728 5.17232 6.06668 0.5
319 11.0166 11.4302 0.556889 0.5
320 5.79561 3.48585 6.75294 0.5
321 2.67591 12.3951 3.19647 0.5
322 10.299 13.2646 0.82563 0.5
323 3.96596 1.01967 2.77587 0.5
324 10.6807 3.48785 3.07592 0.5
325 1.62011 5.18737 0.865544 0.5
326 10.6944 12.9507 0.00246274 0.5
327 9.15386 2.74642 7.84823 0.5
328 12.0206 6.64347 12.6421 0.5
329 8.15264 2.87457 9.16845 0.5
330 8.29686 0.891527 4.88424 0.5
331 4.86573 3.16202 3.48681 0.5
332 12.2473 1.52839 8.78551 0.5
333 13.2528 1.38136 2.61227 0.5
334 4.40463 6.29378 1.60523 0.5
335 9.82642 0.439837 4.58829 0.5
336 4.83348 2.02955 8.67348 0.5
337 11.9327 1.34674 11.8136 0.5
338 7.85285 5.60486 10.1896 0.5
339 9.93031 4.09609 2.59857 0.5
340 12.7671 4.18075 11.9935 0.5
341 8.837 0.133322 9.26463 0.5
342 6.81761 0.338541 5.7081 0.5
343 7.17832 5.7644 9.50375 0.5
344 5.1732 6.83272 6.80054 0.5
345 8.81195 8.05332 5.97897 0.5
346 1.17069 6.94344 5.66942 0.5
347 0.164303 11.3343 0.287834 0.5
348 1.55473 4.15771 0.808855 0.5
349 7.80341 6.3822 6.59077 0.5
350 8.64265 7.46369 10.8526 0.5
351 2.40379 8.76261 10.8877 0.5
352 9.03754 12.5821 7.08043 0.5
353 8.47192 7.64348 0.693568 0.5
354 2.2532 3.08335 5.42772 0.5
355 1.80841 7.09742 3.54228 0.5
356 12.3994 13.2932 4.37339 0.5
357 6.66732 11.8997 3.97503 0.5
358 3.65281 1.57817 9.73922 0.5
359 7.08886 9.32187 8.9885 0.5
360 12.8084 4.16377 6.2483 0.5
361 3.56471 1.30144 7.19524 0.5
362 1.6381 1.41567 9.26111 0.5
363 10.6851 12.3546 0.835472 0.5
364 3.33198 7.89712 1.21042 0.5
365 2.26842 7.91834 0.956873 0.5
366 6.50815 8.74934 8.27181 0.5
367 10.3275 11.9552 13.4907 0.5
368 5.40906 4.73428 9.53515 0.5
369 1.43197 3.36466 4.85531 0.5
370 0.436229 10.2618 6.15392 0.5
371 9.83317 0.239869 3.60956 0.5
372 13.28 4.93799 3.6261 0.5
373 4.70628 2.20763 12.6581 0.5
374 0.590602 9.09299 12.8922 0.5
375 0.708872 9.56644 8.01301 0.5
376 1.93148 11.0717 4.13405 0.5
377 7.66899 5.62812 4.1058 0.5
378 5.95375 9.32814 13.1973 0.5
379 5.04579 5.96335 0.868917 0.5
380 7.11061 3.52803 0.313354 0.5
381 10.0336 3.33856 7.53656 0.5
382 10.0011 2.78985 8.36171 0.5
383 2.23755 4.67873 0.352241 0.5
384 4.85566 10.4401 13.2555 0.5
385 13.057 10.8619 0.866628 0.5
386 13.5638 3.91094 3.61284 0.5
387 2.5388 6.2295 11.7962 0.5
388 1.35016 2.27382 10.3604 0.5
389 4.88562 9.18938 10.3318 0.5
390 4.94184 4.81849 10.3208 0.5
391 6.75997 0.350349 2.02037 0.5
392 13.5328 5.33073 2.65564 0.5
393 3.06088 5.04826 8.94895 0.5
394 9.088 9.19479 8.29751 0.5
395 1.76022 0.267079 8.90585 0.5
396 0.43504 1.94935 2.35723 0.5
397 6.87683 1.26808 1.61131 0.5
398 9.11357 11.947 2.90525 0.5
399 0.642407 4.58604 3.97115 0.5
400 7.27839 8.91529 5.04416 0.5
401 9.54571 2.52504 0.33649 0.5
402 4.79866 7.31365 5.88803 0.5
403 6.60646 12.8492 7.66742 0.5
404 11.1931 11.2193 12.0869 0.5
405 11.7055 5.27352 13.4791 0.5
406 6.42728 2.79695 1.55678 0.5
407 2.06387 11.6249 3.21328 0.5
408 2.08896 4.11557 5.11714 0.5
409 3.365 4.5041 10.8621 0.5
410 11.2964 2.68651 3.42413 0.5
411 4.52757 6.14866 13.4973 0.5
412 5.11438 0.850794 0.143423 0.5
413 3.47691 6.77364 8.48332 0.5
414 3.16826 8.13748 10.9902 0.5
415 7.9281 10.1391 10.8283 0.5
416 8.87992 10.5849 5.44002 0.5
417 1.00364 13.3476 9.47186 0.5
418 9.60301 1.25601 10.4448 0.5
419 3.80306 12.6891 10.8029 0.5
420 3.81258 0.336791 6.98312 0.5
421 13.4738 5.20943 9.60942 0.5
422 8.63493 4.59349 5.25107 0.5
423 12.7227 13.3824 2.66251 0.5
424 2.35553 3.42124 4.51864 0.5
425 8.57931 8.36145 11.2666 0.5
426 0.967009 12.8882 7.62453 0.5
427 7.14157 2.1895 1.41105 0.5
428 0.662228 8.65568 9.33239 0.5
429 10.4186 5.46137 8.82821 0.5
430 9.1811 13.31 11.1258 0.5
431 2.22833 5.3025 8.4055 0.5
432 13.1033 2.28598 2.0608 0.5
433 7.28041 11.3654 0.125899 0.5
434 0.0295797 3.51497 13.4669 0.5
435 10.8976 9.08894 1.10602 0.5
436 6.9149 5.11302 10.3277 0.5
437 4.3316 9.19842 6.54786 0.5
438 5.85921 3.55509 7.78059 0.5
439 11.388 10.7279 10.2597 0.5
440 9.49835 10.898 6.19307 0.5
441 6.35857 0.991846 6.3259 0.5
442 0.986367 7.88571 5.84843 0.5
443 1.2879 11.4207 1.54308 0.5
444 9.12416 9.13965 13.0081 0.5
445 4.83415 8.35575 3.79634 0.5
446 3.25221 6.31077 4.91454 0.5
447 2.31806 9.34591 6.13171 0.5
448 5.51288 9.90323 0.22581 0.5
449 3.73713 0.0323949 11.0737 0.5
450 3.35858 2.10109 1.47249 0.5
451 7.30111 3.16753 1.35577 0.5
452 2.2203 8.71817 0.16723 0.5
453 5.55397 9.43769 2.86084 0.5
454 3.16645 13.3067 3.27814 0.5
455 1.56442 2.04164 11.9405 0.5
456 8.57079 0.0901557 8.37282 0.5
457 12.4303 11.389 8.78807 0.5
458 4.49584 0.827851 9.84131 0.5
459 13.0005 2.33642 5.48825 0.5
460 12.4968 5.76387 13.1364 0.5
461 11.892 8.09695 11.233 0.5
462 10.0734 2.29413 7.54637 0.5
463 6.66075 3.19029 7.18124 0.5
464 12.7733 8.22816 10.7636 0.5
465 5.31674 10.8538 12.3401 0.5
466 3.09039 13.2117 6.83389 0.5
467 1.48441 7.99609 0.194603 0.5
468 13.5449 8.64245 10.1296 0.5
469 2.07978 2.96192 11.6229 0.5
470 1.57118 6.13511 11.3877 0.5
471 4.39381 1.47142 10.4898 0.5
472 10.7029 6.55422 4.08724 0.5
473 11.6922 8.00474 6.94753 0.5
474 2.19345 7.80228 9.14862 0.5
475 6.70225 3.92804 6.40396 0.5
476 6.9699 1.02741 11.1271 0.5
477 6.00574 7.97667 9.82504 0.5
478 3.5328 12.1157 1.18948 0.5
479 8.39188 7.71904 13.2496 0.5
480 3.71445 10.1196 8.92502 0.5
481 2.53339 3.69909 0.961507 0.5
482 11.3763 13.1209 0.677803 0.5
483 8.99123 11.1867 2.31259 0.5
484 9.98226 7.21221 4.31954 0.5
485 4.4135 5.61116 2.37677 0.5
486 3.36806 10.9886 8.59844 0.5
487 4.41708 2.84083 8.20687 0.5
488 5.79426 5.13381 7.00204 0.5
489 3.41731 0.703474 3.57301 0.5
490 0.525138 12.7507 8.74157 0.5
491 2.53243 7.2274 12.1471 0.5
492 1.09357 5.23403 12.8051 0.5
493 11.9381 8.80413 10.5055 0.5
494 7.43585 4.13154 1.04135 0.5
495 6.66469 7.76588 0.746041 0.5
496 6.71038 0.304586 13.1432 0.5
497 4.78898 4.87929 6.60904 0.5
498 3.75905 11.8814 5.33873 0.5
499 6.63889 2.02108 11.586 0.5
500 10.0544 9.37698 6.46091 0.5
501 5.03456 1.98424 4.89724 0.5
502 9.60241 10.4786 9.21576 0.5
503 7.79081 5.42927 13.3293 0.5
504 2.4411 1.24402 0.091849 0.5
505 4.40449 2.95198 11.8352 0.5
506 3.84386 10.5465 0.947215 0.5
507 7.75441 4.02327 3.90191 0.5
508 0.293029 1.78689 5.72192 0.5
509 5.34406 5.27813 5.9928 0.5
510 8.25955 11.1328 10.9692 0.5
511 6.74172 0.57197 7.15125 0.5
512 8.51414 11.1378 3.14372 0.5
513 4.46743 4.81573 2.97594 0.5
514 6.01774 8.59648 1.16856 0.5
515 1.67745 9.90832 3.03797 0.5
516 5.40084 8.55525 3.08496 0.5
517 0.954858 3.72319 3.4008 0.5
518 1.84488 7.32075 8.33819 0.5
519 5.31642 7.36241 10.2635 0.5
520 1.89486 0.573836 0.845926 0.5
521 11.0949 6.04801 4.87321 0.5
522 2.88545 8.86321 11.7185 0.5
523 12.8331 8.25433 3.33473 0.5
524 0.978213 0.970592 5.77425 0.5
525 11.2109 8.88068 0.169022 0.5
526 9.34969 12.2353 7.97387 0.5
527 7.34028 10.8911 1.67436 0.5
528 1.22286 0.0058507 0.314316 0.5
529 0.0319839 12.3253 0.135702 0.5
530 12.506 3.30209 9.72574 0.5
531 11.1594 8.87527 11.1829 0.5
532 6.22171 9.10837 4.48261 0.5
533 6.10722 7.62918 10.8728 0.5
534 2.16461 12.3447 11.5217 0.5
535 8.06198 12.8771 12.9562 0.5
536 2.02181 12.1743 4.06031 0.5
537 2.4428 11.2151 9.01163 0.5
538 7.91577 10.1076 1.55193 0.5
539 2.31168 7.86998 3.0716 0.5
540 1.08441 3.7014 7.86469 0.5
541 3.94604 10.571 1.97973 0.5
542 7.70921 0.226222 12.7797 0.5
543 13.1994 5.96294 5.3738 0.5
544 8.50006 2.31607 8.40507 0.5
545 1.9128 7.04038 2.62718 0.5
546 1.34834 0.119694 12.7756 0.5
547 10.3188 5.32352 5.08091 0.5
548 11.9207 13.3465 6.67008 0.5
549 12.858 9.7586 7.28804 0.5
550 12.8057 12.2999 2.94866 0.5
551 5.95973 1.10652 1.91323 0.5
552 3.90387 7.61331 0.398948 0.5
553 11.1159 5.56593 9.44449 0.5
554 3.99094 12.8399 6.73216 0.5
555 0.371015 4.53948 2.9336 0.5
556 7.05018 13.0743 12.5695 0.5
557 7.56873 11.6596 1.03401 0.5
558 4.59527 1.80107 9.58531 0.5
559 2.69154 10.2735 8.679 0.5
560 6.65153 2.97366 11.8379 0.5
561 7.92232 8.75313 11.9169 0.5
562 12.9475 2.89222 13.2484 0.5
563 8.4432 6.56036 7.21223 0.5
564 7.38042 5.16337 0.658195 0.5
565 9.46044 4.77754 5.53438 0.5
566 7.02383 1.91658 10.6358 0.5
567 12.0317 4.62695 2.71644 0.5
568 7.63633 1.70232 11.5311 0.5
569 10.6219 6.8928 11.6937 0.5
570 13.1499 8.45454 2.23418 0.5
571 2.37564 0.600763 3.34305 0.5
572 4.06651 3.37734 0.193848 0.5
573 0.430575 12.799 5.76541 0.5
574 8.97607 8.39054 3.44276 0.5
575 8.80391 12.8265 2.61002 0.5
576 3.47204 10.228 7.91738 0.5
577 3.83823 8.77275 2.52028 0.5
578 2.1537 10.9328 1.18957 0.5
579 12.9534 10.173 12.2921 0.5
580 2.37988 5.88114 7.64945 0.5
581 1.48097 12.9139 8.57264 0.5
582 2.83367 12.1456 10.8214 0.5
583 2.91819 11.3825 13.382 0.5
584 10.1699 6.37844 4.80965 0.5
585 12.6101 4.99918 6.80505 0.5
586 0.403983 6.01658 9.89705 0.5
587 13.0228 2.95591 1.33166 0.5
588 13.3203 13.3058 13.4301 0.5
589 13.3038 9.43536 8.27282 0.5
590 3.64648 11.2968 7.72114 0.5
591 3.45839 3.36951 12.068 0.5
592 10.7184 11.4548 10.455 0.5
593 6.75557 9.19 7.34499 0.5
594 13.3501 11.1116 5.85291 0.5
595 13.1185 10.0892 5.60868 0.5
596 9.4004 9.53692 2.27073 0.5
597 2.04348 10.3446 9.35171 0.5
598 7.8414 10.8231 5.96688 0.5
599 11.53 10.8815 8.63297 0.5
600 11.664 5.735 12.5498 0.5
601 2.89158 5.88246 3.26351 0.5
602 13.5396 6.59136 10.5322 0.5
603 3.00425 7.16961 11.3274 0.5
604 5.36888 1.2164 10.2356 0.5
605 7.36071 2.27347 12.2674 0.5
606 11.1456 9.1434 5.21882 0.5
607 8.73064 10.1482 8.74605 0.5
608 8.02589 13.3146 12.0054 0.5
609 1.70998 11.725 0.866976 0.5
610 1.29284 9.09129 8.65245 0.5
611 0.367771 8.63352 8.41061 0.5
612 6.04917 13.1247 2.87429 0.5
613 3.66708 5.47605 5.2098 0.5
614 4.16603 13.4609 10.1788 0.5
615 3.14703 10.6463 9.53069 0.5
616 13.3317 6.90209 1.86054 0.5
617 6.6959 6.28205 2.83964 0.5
618 11.6492 6.6521 8.13572 0.5
619 12.2795 4.82707 12.7159 0.5
620 0.870668 10.6029 11.6059 0.5
621 1.57538 4.03905 4.14123 0.5
622 5.76612 8.42748 8.98629 0.5
623 12.1396 8.12036 4.16357 0.5
624 12.9868 6.20978 2.43044 0.5
625 1.29984 3.52434 11.3422 0.5
626 2.82277 3.76568 1.85392 0.5
627 9.70529 6.57807 0.416471 0.5
628 13.2314 4.6116 10.3471 0.5
629 5.48691 4.50414 2.83005 0.5
630 3.3902 3.19955 1.15623 0.5
631 9.3762 0.995025 0.187923 0.5
632 6.48624 12.8167 13.4472 0.5
633 10.0802 0.700489 0.879382 0.5
634 10.3705 10.6394 9.84149 0.5
635 9.75245 1.94987 13.2702 0.5
636 9.70923 3.41658 12.4612 0.5
637 13.1371 10.4587 6.55724 0.5
638 5.29571 0.945892 4.88881 0.5
639 9.36022 6.73882 10.5911 0.5
640 2.19601 4.88006 7.51539 0.5
641 7.43438 7.21503 6.17631 0.5
642 11.0829 5.75426 0.569649 0.5
643 11.0412 1.88543 7.67121 0.5
644 6.84675 3.52301 10.8773 0.5
645 0.884729 11.1557 5.95187 0.5
646 8.91178 8.80307 12.1403 0.5
647 8.36496 4.58121 11.9069 0.5
648 8.41566 10.3575 11.6774 0.5
649 5.1276 7.53041 11.2094 0.5
650 2.83003 0.614373 7.39354 0.5
651 0.0753174 6.24391 6.09386 0.5
652 5.33661 4.24365 7.22945 0.5
653 0.415813 6.23904 2.52024 0.5
654 5.16083 10.2472 10.7646 0.5
655 11.6066 11.827 8.91531 0.5
656 1.04744 10.9719 0.671521 0.5
657 11.1321 0.186269 6.74698 0.5
658 9.36834 10.0301 6.15688 0.5
659 0.802535 9.86083 3.7603 0.5
660 0.830652 0.808618 9.20046 0.5
661 1.2432 8.10424 8.6967 0.5
662 4.1725 10.8783 5.39258 0.5
663 5.89273 12.5066 3.79321 0.5
664 5.0757 6.30729 5.81452 0.5
665 10.5449 11.1175 3.17545 0.5
666 5.60765 11.6709 9.04078 0.5
667 9.98161 4.53886 8.62673 0.5
668 5.71608 3.58124 3.18641 0.5
669 8.2018 10.6521 2.32038 0.5
670 9.33056 13.2319 7.79216 0.5
671 6.95725 8.7566 1.0216 0.5
672 2.97074 2.60331 4.94423 0.5
673 5.43073 8.92582 0.379578 0.5
674 3.2274 7.92467 11.995 0.5
675 2.86907 3.6825 11.2834 0.5
676 2.37698 13.3277 2.73771 0.5
677 3.01182 8.6924 3.02861 0.5
678 12.0794 7.72478 10.4158 0.5
679 10.9682 12.0625 6.30817 0.5
680 4.917 10.9333 2.08737 0.5
681 4.18995 1.26427 8.90809 0.5
682 1.85788 3.11413 10.641 0.5
683 0.889703 5.99068 12.1247 0.5
684 12.0786 13.0342 3.45583 0.5
685 12.5189 12.3546 3.9922 0.5
686 10.8295 7.94885 11.4902 0.5
687 4.9862 9.33898 13.1351 0.5
688 1.89605 7.6773 5.42046 0.5
689 3.37446 2.96082 2.05998 0.5
690 4.50368 8.50636 7.1998 0.5
691 13.4906 10.8454 11.9521 0.5
692 4.6816 13.4654 0.24704 0.5
693 10.7079 5.92582 12.0992 0.5
694 5.85375 9.00518 9.79923 0.5
695 12.1004 8.24885 2.52788 0.5
696 10.9087 2.89133 7.91704 0.5
697 13.5509 9.13645 7.39494 0.5
698 6.04851 10.6457 6.69638 0.5
699 3.13249 8.25747 0.321855 0.5
700 11.9683 8.71002 3.39201 0.5
701 9.22851 8.17475 12.8555 0.5
702 3.92348 1.86356 7.98364 0.5
703 1.85569 5.48807 13.3564 0.5
704 9.13547 2.9423 8.86749 0.5
705 10.707 7.0681 8.02676 0.5
706 6.79258 11.9128 5.44617 0.5
707 3.43775 4.44896 9.74983 0.5
708 12.9048 2.00984 1.05358 0.5
709 10.0588 0.224692 0.0291406 0.5
710 7.00573 6.40824 3.80827 0.5
711 0.482451 0.484871 13.2705 0.5
712 13.1382 2.60801 9.94589 0.5
713 8.27934 9.75011 7.98974 0.5
714 12.6161 4.08161 7.18325 0.5
715 12.7212 9.19622 2.89625 0.5
716 2.05114 2.15542 11.0307 0.5
717 2.89566 7.26778 0.514658 0.5
718 11.2737 0.901248 7.51204 0.5
719 4.65207 10.5921 11.5842 0.5
720 12.4352 11.3975 2.62196 0.5
721 11.3452 5.68161 8.46205 0.5
722 5.95632 13.2514 12.7172 0.5
723 3.10148 11.9151 8.51508 0.5
724 9.7231 13.2843 9.55056 0.5
725 2.32494 2.10486 5.56954 0.5
726 7.5401 2.76766 8.29884 0.5
727 4.75797 2.79843 13.4361 0.5
728 12.5098 2.12326 4.55924 0.5
729 9.63949 4.98447 1.0454 0.5
730 8.04031 5.57228 7.21163 0.5
731 10.8837 0.343915 0.338601 0.5
732 2.07107 3.46605 8.03657 0.5
733 8.26633 11.3495 0.367582 0.5
734 10.3444 11.3084 5.86344 0.5
735 2.89227 5.96876 8.54847 0.5
736 4.24726 4.69539 11.192 0.5
737 4.98288 4.13957 3.70702 0.5
738 2.03052 6.96006 11.3592 0.5
739 7.61158 13.2737 7.87742 0.5
740 11.9202 0.600984 8.24096 0.5
741 7.77465 4.16042 4.92112 0.5
742 5.60386 9.58137 1.23864 0.5
743 7.21259 8.05812 5.64477 0.5
744 5.00125 3.17674 12.5832 0.5
745 6.71436 6.773 12.5434 0.5
746 5.04854 8.25683 9.7186 0.5
747 13.1747 0.309303 11.7518 0.5
748 7.49898 9.15047 8.14071 0.5
749 6.31892 9.05549 3.46877 0.5
750 1.37088 0.936179 13.4357 0.5
751 13.2534 8.71218 12.8596 0.5
752 2.10293 0.882515 12.7554 0.5
753 6.188 1.83545 1.21508 0.5
754 2.58523 11.4447 11.4964 0.5
755 6.47162 3.66015 1.03938 0.5
756 6.78329 7.94897 1.64097 0.5
757 11.4956 6.50834 11.8062 0.5
758 4.44584 12.4136 4.70545 0.5
759 12.3803 8.93533 1.87711 0.5
760 7.22651 4.82335 4.23001 0.5
761 3.67438 11.3935 0.515117 0.5
762 13.4199 2.6603 0.502849 0.5
763 12.4769 0.287617 3.54635 0.5
764 8.85505 9.39945 3.11658 0.5
765 12.4061 2.60626 0.512262 0.5
766 8.00105 3.17916 4.49043 0.5
767 3.62995 6.93381 1.01585 0.5
768 12.8405 13.447 10.8607 0.5
769 11.4018 2.34211 5.73385 0.5
770 10.9369 7.89844 6.40842 0.5
771 7.90317 8.03177 6.30567 0.5
772 1.20877 1.57565 11.0289 0.5
773 9.39338 3.70715 8.25007 0.5
774 9.48882 0.0711354 2.55736 0.5
775 10.8076 0.186311 10.924 0.5
776 3.29837 9.2673 6.45796 0.5
777 11.6412 12.5967 4.20422 0.5
778 11.9362 12.0733 3.33596 0.5
779 8.08712 7.49838 5.42578 0.5
780 2.668 10.9992 7.9406 0.5
781 12.9582 1.43889 5.99983 0.5
782 10.8607 3.32405 4.04696 0.5
783 13.4172 9.28549 12.0469 0.5
784 1.96067 2.48316 4.63383 0.5
785 10.2254 9.5279 5.50403 0.5
786 8.66189 3.88533 4.50763 0.5
787 6.31676 12.2178 2.97552 0.5
788 11.3296 7.22531 11.0386 0.5
789 9.0731 3.63942 2.45311 0.5
790 8.55149 0.243728 2.44585 0.5
791 5.10792 6.80684 12.0266 0.5
792 5.80756 2.6264 7.32252 0.5
793 6.94931 8.54638 4.03347 0.5
794 13.3451 0.384778 3.10824 0.5
795 7.51953 8.06307 4.66127 0.5
796 4.15528 10.8077 9.37508 0.5
797 3.91044 3.71999 11.261 0.5
798 1.56477 3.10161 3.90298 0.5
799 0.0235062 0.779786 5.58313 0.5
800 0.514463 8.17194 13.2788 0.5
801 7.65591 6.04153 3.13899 0.5
802 4.25045 10.7948 12.5222 0.5
803 11.3904 11.3001 11.1002 0.5
804 0.0256667 6.00616 8.93974 0.5
805 8.99412 8.55681 2.5205 0.5
806 2.85363 7.63534 8.30663 0.5
807 3.07458 5.20187 7.93507 0.5
808 1.49747 9.13248 3.73886 0.5
809 9.14555 4.50316 11.1729 0.5
810 3.00491 12.9825 11.3577 0.5
811 10.2191 7.09943 3.34521 0.5
812 2.26428 7.99777 11.6157 0.5
813 7.6086 4.79536 12.6756 0.5
814 9.7731 0.363488 5.6361 0.5
815 11.9471 11.6262 7.96111 0.5
816 9.30606 7.4947 0.106944 0.5
817 11.6576 11.1309 3.27943 0.5
818 3.71416 10.6923 13.4357 0.5
819 5.91096 0.125208 7.49847 0.5
820 0.119253 -0.00663607 9.11838 0.5
821 11.108 3.03867 5.02032 0.5
822 9.21967 1.05945 5.05285 0.5
823 10.3119 0.498335 10.0369 0.5
824 2.24295 8.6817 5.26729 0.5
825 7.62028 0.757704 2.1372 0.5
826 6.65258 12.8886 8.71925 0.5
827 11.0207 0.308077 1.31591 0.5
828 4.8479 3.84663 2.65354 0.5
829 4.90915 2.14867 7.66545 0.5
830 5.05327 12.3142 8.47936 0.5
831 11.5649 13.5026 7.60442 0.5
832 0.688885 5.81948 10.9438 0.5
833 1.97873 11.6604 10.7076 0.5
834 8.92774 1.83659 0.189754 0.5
835 1.2344 6.25675 13.0118 0.5
836 7.54885 9.70506 11.6798 0.5
837 6.65985 2.6435 0.617268 0.5
838 12.2609 13.3319 11.7336 0.5
839 4.44948 5.30351 1.4406 0.5
840 7.36367 13.151 13.5104 0.5
841 6.91496 10.933 7.14557 0.5
842 13.1369 3.96964 11.1463 0.5
843 12.497 3.12511 12.3149 0.5
844 4.58059 3.80365 13.1993 0.5
845 9.59969 5.78926 5.51387 0.5
846 6.06319 12.178 8.22535 0.5
847 4.38872 7.48954 6.83208 0.5
848 5.20901 6.09069 12.7714 0.5
849 0.652743 12.7929 6.68534 0.5
850 10.3117 10.6551 11.9088 0.5
851 6.95782 10.22 6.48979 0.5
852 7.31688 10.0349 7.60071 0.5
853 4.59326 7.93136 8.81836 0.5
854 9.77778 6.40015 3.80345 0.5
855 9.52363 11.1376 3.20009 0.5
856 2.27621 13.1917 3.73735 0.5
857 9.99608 4.4605 10.5909 0.5
858 7.63743 10.0595 8.61717 0.5
859 11.183 5.25139 5.54065 0.5
860 10.3047 5.25962 6.02967 0.5
861 11.3695 12.9928 5.89571 0.5
862 10.3226 7.41273 10.7468 0.5
863 8.04292 8.43435 5.4183 0.5
864 8.08839 7.05201 8.04202 0.5
865 11.9201 3.88223 12.3922 0.5
866 5.7406 12.4673 2.12909 0.5
867 11.8618 4.21177 13.4808 0.5
868 9.29675 9.36639 9.21633 0.5
869 3.97966 13.4216 13.0045 0.5
870 3.74722 8.30976 6.54601 0.5
871 11.6964 9.037 4.39681 0.5
872 0.914104 5.50859 0.275904 0.5
873 13.1175 0.555666 2.02926 0.5
874 6.82239 5.08742 13.2751 0.5
875 7.51623 11.8924 4.70668 0.5
876 2.00775 6.33307 8.41743 0.5
877 10.7426 7.87316 7.34211 0.5
878 2.72142 11.7229 0.634576 0.5
879 1.80047 3.97621 7.25015 0.5
880 12.4493 0.797436 2.7355 0.5
881 10.8005 10.5155 12.7476 0.5
882 1.7254 10.1111 3.95712 0.5
883 11.3393 12.1588 0.101621 0.5
884 12.7386 3.52042 0.440756 0.5
885 7.28745 10.9355 10.4939 0.5
886 0.438519 3.02504 7.64343 0.5
887 0.268619 13.4642 12.5277 0.5
888 4.88411 4.74988 2.13752 0.5
889 10.7143 4.81373 7.89568 0.5
890 11.5772 8.59358 6.05297 0.5
891 1.99406 6.19986 3.13272 0.5
892 9.42801 0.853738 9.51677 0.5
893 9.86221 4.27939 7.55229 0.5
894 7.62153 7.94761 1.12491 0.5
895 11.8851 8.96881 0.953468 0.5
896 6.94245 12.1936 0.414882 0.5
897 6.78353 12.8968 3.47065 0.5
898 5.29065 12.2804 2.97846 0.5
899 10.418 4.62317 9.5874 0.5
900 12.028 10.954 9.52205 0.5
901 13.338 5.61372 10.5615 0.5
902 10.8472 6.30524 8.79769 0.5
903 9.67972 8.88405 3.13749 0.5
904 8.41631 3.53522 5.45537 0.5
905 12.8931 6.82583 5.69393 0.5
906 12.5495 5.44046 3.01472 0.5
907 6.80113 4.14648 9.99817 0.5
908 8.8899 0.0878434 4.9781 0.5
909 9.92076 3.08469 2.63376 0.5
910 8.23437 2.67479 7.6262 0.5
911 5.72423 6.92192 12.789 0.5
912 8.38681 9.38531 11.3308 0.5
913 10.732 5.66428 13.1267 0.5
914 5.15071 12.7818 13.0777 0.5
915 8.22414 2.51847 5.3812 0.5
916 10.8226 8.74867 6.80842 0.5
917 11.5394 0.388045 11.7447 0.5
918 7.56893 6.45857 8.68127 0.5
919 13.2413 11.8713 0.971023 0.5
920 0.417015 11.8932 10.5002 0.5
921 5.77004 6.19539 7.39743 0.5
922 12.241 3.57118 11.4109 0.5
923 1.32591 2.88353 8.35804 0.5
924 11.666 11.6103 10.2282 0.5
925 10.7017 3.64601 2.18394 0.5
926 3.95349 9.84224 12.9433 0.5
927 1.74198 7.42965 6.45834 0.5
928 0.25447 6.65395 5.2531 0.5
929 1.17601 2.61195 11.2142 0.5
930 10.3426 9.77289 9.24334 0.5
931 5.68242 10.049 12.7491 0.5
932 3.91299 8.68242 3.43853 0.5