ITEM: TIMESTEP
630000
ITEM: NUMBER OF ATOMS
1000
ITEM: BOX BOUNDS xy xz yz pp pp pp
0.0000000000000000e+00 1.3572088000000001e+01 0.0000000000000000e+00
0.0000000000000000e+00 1.3572088000000001e+01 0.0000000000000000e+00
0.0000000000000000e+00 1.3572088000000001e+01 0.0000000000000000e+00
ITEM: ATOMS id x y z radius
1 4.50455 3.58993 12.0611 0.5
2 5.43895 11.2539 3.79857 0.5
3 8.89917 10.2189 2.91466 0.5
4 10.066 5.89251 1.07886 0.5
5 8.13062 7.98659 10.5447 0.5
6 3.62699 12.7579 4.90069 0.5
7 2.7807 8.49469 0.976654 0.5
8 13.4095 11.1761 2.29525 0.5
9 1.67224 8.03241 6.94982 0.5
10 3.56128 0.306714 11.0793 0.5
11 0.632103 9.27252 9.30706 0.5
12 10.1468 5.49877 0.158923 0.5
13 8.47731 11.7926 5.56196 0.5
14 10.9949 2.32457 4.09787 0.5
15 5.95159 1.67976 5.45659 0.5
16 7.46432 6.71273 9.48214 0.5
17 6.94737 12.2615 10.952 0.5
18 2.46753 8.41808 6.28307 0.5
19 10.2913 5.05832 1.71239 0.5
20 10.738 10.947 2.83789 0.5
21 2.17926 4.51736 1.28475 0.5
22 0.987921 5.78981 12.7359 0.5
23 1.65311 1.03775 10.0613 0.5
24 7.50335 7.30446 2.09082 0.5
25 0.696514 5.7024 2.05956 0.5
26 10.2685 10.2028 6.34722 0.5
27 11.3928 6.55428 12.4283 0.5
28 5.11028 10.8246 11.2371 0.5
29 0.158982 5.93509 1.24799 0.5
30 8.54001 11.058 1.53695 0.5
31 0.623922 0.24963 7.83008 0.5
32 9.00306 2.40146 12.7631 0.5
33 12.8672 5.94857 9.51825 0.5
34 3.02715 9.08856 5.83338 0.5
35 11.5895 6.40988 13.419 0.5
36 8.91808 1.97871 4.82656 0.5
37 0.624586 0.927522 2.56294 0.5
38 3.14443 1.28892 1.84535 0.5
39 10.055 4.13067 1.32455 0.5
40 5.91514 6.12588 6.53812 0.5
41 8.15337 11.3497 4.67066 0.5
42 6.74554 5.36371 3.76321 0.5
43 5.69174 5.08911 10.388 0.5
44 4.59664 11.6916 8.24872 0.5
45 7.2483 6.24919 2.14963 0.5
46 10.4331 10.7382 0.202832 0.5
47 2.0852 9.38475 5.98281 0.5
48 8.01786 10.6475 0.691646 0.5
49 5.83155 11.6777 9.88509 0.5
50 6.03906 1.49061 9.87257 0.5
51 13.1303 10.3453 7.77308 0.5
52 6.37159 10.8108 7.24079 0.5
53 9.49642 3.44761 2.03311 0.5
54 11.6722 11.6771 4.08667 0.5
55 13.45 0.354703 5.64516 0.5
56 13.4855 3.76965 3.31297 0.5
57 0.446663 11.6112 11.3695 0.5
58 5.34393 8.54706 10.426 0.5
59 1.90761 10.7859 11.1315 0.5
60 7.51679 4.90914 9.47185 0.5
61 4.31877 0.956573 10.8194 0.5
62 0.808936 8.47709 1.05864 0.5
63 11.7493 8.55235 2.13398 0.5
64 12.4009 2.17187 9.82547 0.5
65 0.116294 1.86832 5.02772 0.5
66 12.6931 1.5006 2.31551 0.5
67 8.43517 2.76855 8.91867 0.5
68 3.03081 1.48539 2.83398 0.5
69 11.6691 2.2846 10.6008 0.5
70 12.1344 3.73531 10.0593 0.5
71 3.28041 6.23201 8.5718 0.5
72 7.38423 2.03204 11.4383 0.5
73 8.28371 6.83009 8.88611 0.5
74 5.94954 4.51074 9.6559 0.5
75 8.79923 0.391701 10.412 0.5
76 12.0949 3.22227 13.4031 0.5
77 10.4813 2.81676 3.51132 0.5
78 8.79207 2.88885 5.20408 0.5
79 4.37499 12.728 5.54599 0.5
80 5.36502 2.82381 8.23937 0.5
81 1.36122 3.2926 11.2989 0.5
82 1.39165 8.84302 0.258444 0.5
83 2.686 0.290808 6.32204 0.5
84 13.4777 8.73232 8.9339 0.5
85 13.0931 3.71363 6.78532 0.5
86 2.70948 0.693659 13.4648 0.5
87 4.39023 5.80245 6.0617 0.5
88 6.89228 5.76198 4.71088 0.5
89 11.5043 12.6662 7.78061 0.5
90 4.16459 6.37444 4.40936 0.5
91 11.2512 7.46093 12.0387 0.5
92 13.4796 1.38849 1.84397 0.5
93 13.5217 1.08949 12.4244 0.5
94 4.58933 10.1925 12.7912 0.5
95 11.9244 1.59801 8.08181 0.5
96 11.8994 2.77013 4.43782 0.5
97 12.0361 2.6696 5.45434 0.5
98 10.9412 9.46317 13.5475 0.5
99 6.43257 8.85852 9.15434 0.5
100 0.446359 6.94905 6.55968 0.5
101 4.95894 11.7052 2.92326 0.5
102 8.26496 7.38092 9.71007 0.5
103 4.68693 4.99296 10.7441 0.5
104 6.89959 11.6337 5.70414 0.5
105 11.5629 12.4637 6.86272 0.5
106 5.8559 2.05085 10.7739 0.5
107 12.978 5.34047 7.01106 0.5
108 12.9201 10.3285 5.92238 0.5
109 1.09908 12.525 8.806 0.5
110 8.11553 9.46303 8.57745 0.5
111 8.7666 0.227137 3.42426 0.5
112 6.6511 1.00364 5.61296 0.5
113 0.544989 13.4663 4.99781 0.5
114 7.43367 6.67594 2.95706 0.5
115 5.59123 6.59588 11.7558 0.5
116 13.4793 5.09249 1.87592 0.5
117 1.01788 1.44065 5.38782 0.5
118 10.9142 9.41926 6.13283 0.5
119 12.3426 7.72195 1.84543 0.5
120 5.45604 9.33526 4.05579 0.5
121 12.2902 12.9468 11.0957 0.5
122 2.32052 3.14195 2.40044 0.5
123 11.9575 2.27734 8.90685 0.5
124 10.4245 11.301 11.7335 0.5
125 5.30379 12.1906 3.89389 0.5
126 11.2459 11.2418 13.3916 0.5
127 7.97954 9.86102 11.0005 0.5
128 4.91829 3.34946 7.44197 0.5
129 1.98955 6.18038 12.7661 0.5
130 1.07413 12.1409 10.8491 0.5
131 7.98578 2.09124 1.8293 0.5
132 5.60091 12.0839 2.27817 0.5
133 1.12951 11.1738 10.6951 0.5
134 10.8039 11.7133 3.45318 0.5
135 12.1097 1.78558 5.70129 0.5
136 8.02924 4.61597 4.42751 0.5
137 3.33231 12.3301 5.67953 0.5
138 7.48848 12.1565 13.0702 0.5
139 5.26244 12.8334 13.4949 0.5
140 5.22658 3.02782 4.55277 0.5
141 1.78434 4.09345 4.17722 0.5
142 9.59349 3.16551 12.7215 0.5
143 0.602787 12.953 0.414353 0.5
144 8.60761 12.8773 8.9608 0.5
145 6.62846 7.00457 2.45952 0.5
146 9.84788 9.03073 8.49785 0.5
147 4.5858 6.61793 0.977482 0.5
148 12.3712 0.381637 11.3821 0.5
149 7.76817 6.9841 10.4307 0.5
150 12.6439 11.7501 3.64678 0.5
151 6.75105 12.1354 9.9253 0.5
152 4.32686 4.49296 11.6716 0.5
153 11.7345 8.45047 7.67641 0.5
154 2.64707 2.14285 2.02847 0.5
155 2.29587 7.52457 10.5497 0.5
156 8.35158 12.3305 0.0198696 0.5
157 1.51035 0.761211 3.25117 0.5
158 1.84522 9.98727 9.11441 0.5
159 3.88348 2.23737 8.89906 0.5
160 9.54128 0.401932 11.1897 0.5
161 12.3983 2.8788 10.4598 0.5
162 7.5159 2.4302 8.84424 0.5
163 11.8069 9.28952 0.497117 0.5
164 9.53118 3.43317 10.9354 0.5
165 7.27929 11.347 11.2714 0.5
166 10.8264 13.0309 7.12929 0.5
167 10.7903 8.28601 7.76496 0.5
168 1.02593 2.77966 7.12911 0.5
169 10.3065 11.0851 12.7951 0.5
170 3.72383 6.20682 0.454728 0.5
171 10.6097 4.97335 0.789774 0.5
172 12.0362 8.07168 10.2001 0.5
173 9.12109 10.3226 1.95212 0.5
174 4.57795 0.706783 13.4707 0.5
175 2.50187 6.41552 4.0223 0.5
176 4.00984 5.9185 3.50478 0.5
177 9.12026 4.34599 6.12045 0.5
178 5.8483 2.24733 4.67352 0.5
179 12.7651 5.71449 1.50378 0.5
180 9.36445 2.70729 11.8636 0.5
181 10.7278 11.2082 9.66897 0.5
182 3.0837 11.8848 1.31998 0.5
183 8.48023 7.30271 6.31817 0.5
184 10.3207 5.90149 8.63021 0.5
185 8.69597 0.0600633 11.3358 0.5
186 4.6753 8.44671 2.85149 0.5
187 5.31073 0.151277 13.008 0.5
188 4.95069 6.09629 6.87193 0.5
189 0.231801 11.5055 6.60154 0.5
190 9.2467 13.0627 3.57493 0.5
191 9.43427 7.21262 3.39057 0.5
192 10.1626 0.916703 13.4619 0.5
193 11.3276 1.91844 9.64604 0.5
194 9.37706 13.1865 10.6816 0.5
195 0.570829 10.0622 12.3801 0.5
196 9.05416 0.909273 4.44897 0.5
197 2.96602 6.94338 7.93892 0.5
198 5.94714 6.09749 12.4737 0.5
199 11.7327 0.737948 8.50472 0.5
200 6.87044 6.87267 1.46924 0.5
201 13.3358 3.77798 7.69289 0.5
202 6.25221 13.0933 8.27364 0.5
203 1.87686 3.64301 1.64862 0.5
204 3.30251 8.04179 9.17137 0.5
205 12.4659 13.5193 3.71948 0.5
206 0.787822 1.16682 9.69837 0.5
207 4.18621 12.2715 8.95076 0.5
208 9.26454 3.84287 5.29859 0.5
209 5.99208 1.84976 3.7983 0.5
210 4.17367 6.5818 5.44391 0.5
211 4.32759 4.41678 9.93392 0.5
212 3.35855 5.86507 4.15927 0.5
213 3.56148 1.6199 5.58429 0.5
214 9.95608 4.30046 11.0963 0.5
215 7.73329 6.69784 1.27826 0.5
216 6.30535 8.51231 0.153907 0.5
217 4.77107 11.531 4.49797 0.5
218 6.67333 8.27381 4.78333 0.5
219 9.17202 1.11667 3.49118 0.5
220 7.39648 2.64107 10.5927 0.5
221 3.36606 3.38709 5.92078 0.5
222 7.15998 11.3699 4.73263 0.5
223 4.64245 9.2675 3.36722 0.5
224 12.9564 9.17313 3.79296 0.5
225 8.14394 10.9316 11.0748 0.5
226 10.6976 6.12004 13.1169 0.5
227 13.4268 7.53614 10.0069 0.5
228 4.96911 11.9844 5.34042 0.5
229 5.42227 4.46725 6.22734 0.5
230 6.05408 9.76279 9.0411 0.5
231 7.8711 5.8089 9.06308 0.5
232 7.90328 4.73438 12.7908 0.5
233 1.44457 0.336063 9.37879 0.5
234 11.5803 2.02811 4.99551 0.5
235 1.59929 10.5914 3.30619 0.5
236 10.8482 6.03175 0.578045 0.5
237 5.0752 8.58425 5.96261 0.5
238 0.437852 12.4004 5.14873 0.5
239 9.95012 8.07589 3.74265 0.5
240 1.30891 4.35889 13.4188 0.5
241 3.98817 5.76554 1.27944 0.5
242 3.09065 0.460061 2.42732 0.5
243 2.74031 9.69679 3.8019 0.5
244 4.21725 11.7907 6.04087 0.5
245 1.44608 11.5431 11.5882 0.5
246 9.58245 10.0106 8.4658 0.5
247 3.45375 0.916658 10.3608 0.5
248 7.55803 2.48729 2.63388 0.5
249 10.4815 1.75366 13.2215 0.5
250 10.0597 1.76689 0.560261 0.5
251 3.75007 9.99539 12.0336 0.5
252 8.35572 8.54002 13.0399 0.5
253 1.78077 8.53665 1.10641 0.5
254 10.6464 2.49648 2.55116 0.5
255 8.58707 9.57777 2.33507 0.5
256 1.21756 13.2801 3.35272 0.5
257 0.459326 3.66103 6.92289 0.5
258 13.0988 6.44302 5.3443 0.5
259 4.981 5.13928 9.69409 0.5
260 6.65234 11.3649 10.501 0.5
261 11.5726 3.30907 5.93078 0.5
262 7.61125 12.0946 5.11606 0.5
263 1.72222 4.15432 8.37594 0.5
264 10.2978 10.6031 8.928 0.5
265 1.64408 4.37436 5.1584 0.5
266 3.44812 13.3418 5.80308 0.5
267 5.12034 7.69731 9.00298 0.5
268 6.9119 2.32406 1.83907 0.5
269 8.99614 0.294518 8.8328 0.5
270 6.67628 10.1741 8.2011 0.5
271 10.8201 11.9751 7.24171 0.5
272 6.2489 9.26223 0.771088 0.5
273 7.49694 4.72357 3.64166 0.5
274 10.2416 5.50027 9.53819 0.5
275 2.57527 10.9873 1.08121 0.5
276 4.20642 3.23206 0.550081 0.5
277 7.46959 5.38972 13.3477 0.5
278 11.4186 10.3149 0.257371 0.5
279 9.85417 11.9308 5.9333 0.5
280 4.61415 12.3558 2.23295 0.5
281 6.56371 2.66338 11.1623 0.5
282 0.261197 11.4275 1.31496 0.5
283 4.94194 5.07068 2.30715 0.5
284 1.99326 11.3102 0.331028 0.5
285 2.86695 10.0295 5.91336 0.5
286 2.49002 1.1158 12.5788 0.5
287 7.7253 7.38728 7.00854 0.5
288 5.76656 13.5846 6.70511 0.5
289 2.35209 10.5301 3.92972 0.5
290 1.21822 12.9222 5.483 0.5
291 6.25301 0.0861907 5.77082 0.5
292 4.33273 3.48934 12.9798 0.5
293 10.4949 5.64475 3.77314 0.5
294 2.24259 10.0198 6.6613 0.5
295 2.70578 1.34284 6.019 0.5
296 13.5785 4.58948 7.09405 0.5
297 10.2926 10.4237 11.217 0.5
298 9.73078 4.78374 12.0426 0.5
299 1.84376 0.575324 13.0951 0.5
300 9.41072 4.61098 1.97836 0.5
301 5.75901 7.56364 11.7052 0.5
302 3.06918 9.13314 3.16224 0.5
303 12.2707 8.95342 2.95565 0.5
304 0.362112 7.14447 5.58659 0.5
305 7.81051 12.7974 8.21961 0.5
306 11.4498 7.90375 1.40474 0.5
307 2.66929 7.01826 3.28954 0.5
308 0.230213 9.88326 11.4453 0.5
309 12.9276 13.1068 12.7505 0.5
310 8.94803 13.5008 4.43004 0.5
311 13.4672 6.19509 6.81605 0.5
312 7.655 11.6519 10.4634 0.5
313 0.719921 10.2205 3.60446 0.5
314 5.90796 12.6448 9.68951 0.5
315 12.5316 4.72655 1.84038 0.5
316 8.37828 6.24774 8.02988 0.5
317 13.408 8.34318 4.03096 0.5
318 0.251571 5.26146 6.33574 0.5
319 11.0271 11.3438 0.757416 0.5
320 5.5134 3.52671 6.72506 0.5
321 2.01901 12.7629 2.97653 0.5
322 10.2505 13.2648 1.12324 0.5
323 3.86745 1.03421 2.52411 0.5
324 10.9008 3.54637 2.93724 0.5
325 1.44527 5.02594 0.657729 0.5
326 10.2949 12.7333 0.232223 0.5
327 8.58691 3.50294 8.2087 0.5
328 12.1112 7.18637 12.6873 0.5
329 9.16574 2.16569 8.87366 0.5
330 8.39197 1.20791 5.13131 0.5
331 5.33283 2.2704 3.11396 0.5
332 12.0795 1.42078 9.10884 0.5
333 13.4639 1.55269 2.90524 0.5
334 4.91081 5.84894 1.65441 0.5
335 9.68399 0.313546 5.04814 0.5
336 4.81876 2.04667 8.51866 0.5
337 11.6292 0.539348 12.0219 0.5
338 7.47383 5.80039 10.0035 0.5
339 10.1671 4.20716 2.43048 0.5
340 11.6846 3.55031 11.7922 0.5
341 8.37295 0.22934 9.44901 0.5
342 6.57134 0.581533 6.58995 0.5
343 6.84753 5.78988 9.14376 0.5
344 5.3921 6.91257 6.94289 0.5
345 8.87308 8.17405 5.93941 0.5
346 1.19001 6.67443 5.99294 0.5
347 13.015 11.6653 0.744416 0.5
348 1.54513 4.04112 0.793201 0.5
349 7.95779 6.47771 6.45555 0.5
350 8.26485 7.29999 11.3015 0.5
351 2.26814 8.55883 10.7216 0.5
352 8.4203 12.4461 7.36941 0.5
353 8.41713 7.37623 0.759644 0.5
354 2.52176 2.96814 5.48803 0.5
355 1.71423 7.05027 3.77402 0.5
356 11.6024 13.4817 4.14496 0.5
357 6.9106 12.3479 3.44207 0.5
358 3.61501 1.54962 9.55804 0.5
359 7.06877 9.61666 8.80206 0.5
360 12.2142 3.96935 6.44256 0.5
361 3.49325 0.739172 6.10518 0.5
362 1.51468 1.28076 9.08006 0.5
363 10.5682 12.2296 1.03992 0.5
364 3.2722 7.58134 1.33156 0.5
365 2.33414 7.591 0.968498 0.5
366 6.31811 9.16716 8.20976 0.5
367 10.3825 11.7311 0.0704677 0.5
368 5.87638 5.48226 9.37782 0.5
369 2.11655 3.48557 4.86494 0.5
370 0.118278 10.6483 6.19962 0.5
371 9.70317 0.304605 3.93689 0.5
372 0.227184 4.71196 3.56185 0.5
373 3.83626 2.58271 13.2207 0.5
374 0.762532 9.14312 13.0224 0.5
375 0.976404 9.90129 8.49244 0.5
376 1.49696 10.5942 4.40858 0.5
377 7.7449 5.52986 4.06753 0.5
378 5.84396 9.32472 13.2344 0.5
379 4.54355 4.92824 1.41133 0.5
380 7.72422 4.58756 0.221097 0.5
381 10.0495 3.84409 8.54516 0.5
382 9.51955 3.54443 7.72999 0.5
383 2.23916 4.5805 0.259162 0.5
384 5.29213 9.57474 12.4655 0.5
385 13.1281 10.8569 1.37872 0.5
386 0.173457 4.03621 4.32834 0.5
387 2.38188 6.1298 11.8561 0.5
388 1.40311 2.04 9.68571 0.5
389 3.27306 9.89477 11.131 0.5
390 5.22414 4.20465 10.2669 0.5
391 6.86946 0.715259 1.81445 0.5
392 13.185 4.66625 2.81307 0.5
393 2.19747 4.72194 8.96853 0.5
394 8.99421 9.41103 8.05199 0.5
395 1.43626 0.552414 8.29674 0.5
396 0.619862 1.98536 2.31785 0.5
397 7.35332 1.58342 1.28151 0.5
398 9.11851 12.2549 2.83356 0.5
399 1.00589 4.57046 4.40573 0.5
400 7.32254 9.08692 4.91882 0.5
401 9.87353 2.56756 13.459 0.5
402 5.3013 7.51763 6.26278 0.5
403 6.22517 0.445919 8.21742 0.5
404 11.2254 11.1787 12.3141 0.5
405 12.2345 5.71025 13.4622 0.5
406 6.92148 3.2046 1.26911 0.5
407 1.84111 11.455 3.87851 0.5
408 2.51654 3.94341 5.66538 0.5
409 3.75559 4.72054 10.7841 0.5
410 11.4947 2.69351 3.29739 0.5
411 4.616 5.74451 0.638004 0.5
412 5.04857 0.11561 0.466313 0.5
413 2.64428 5.90792 7.88945 0.5
414 2.98215 8.08978 11.0889 0.5
415 8.24206 10.2421 11.8958 0.5
416 9.17692 11.1625 5.60665 0.5
417 0.905049 13.5313 8.80889 0.5
418 9.5333 1.20671 10.4548 0.5
419 3.13486 13.5325 10.2881 0.5
420 3.50515 0.0541773 6.75208 0.5
421 13.3517 5.0262 9.44751 0.5
422 8.64636 4.54622 5.28527 0.5
423 12.4352 0.0842719 2.79432 0.5
424 3.11783 3.53115 4.95717 0.5
425 8.58019 8.24243 11.4009 0.5
426 0.446325 12.7974 8.06794 0.5
427 7.60302 2.49527 0.97464 0.5
428 0.887802 8.39383 8.99874 0.5
429 11.3679 5.89694 8.39524 0.5
430 9.5347 13.1169 11.7198 0.5
431 2.03879 5.10343 8.14119 0.5
432 13.1998 2.29724 2.16404 0.5
433 7.95074 11.3781 13.5732 0.5
434 0.151983 3.19412 13.4727 0.5
435 11.2809 8.85255 1.28022 0.5
436 6.62831 5.19967 9.96479 0.5
437 3.71147 9.68696 6.35878 0.5
438 5.72998 3.75244 7.73262 0.5
439 10.9482 10.5178 10.3962 0.5
440 9.62661 11.0745 6.44038 0.5
441 5.79392 0.913225 6.15642 0.5
442 1.37208 7.03547 6.93737 0.5
443 0.920314 12.192 1.20081 0.5
444 9.25702 8.91654 13.2767 0.5
445 4.88067 8.43347 3.87169 0.5
446 3.24665 6.65875 4.84419 0.5
447 1.83622 9.00121 6.88182 0.5
448 5.38986 9.79002 0.53644 0.5
449 3.60743 12.8834 10.8225 0.5
450 3.34314 2.20724 1.31312 0.5
451 7.8463 3.45835 0.847287 0.5
452 2.21678 8.23687 0.164654 0.5
453 4.96026 9.2215 2.34529 0.5
454 2.85264 13.3371 3.03243 0.5
455 1.30044 2.23101 11.3424 0.5
456 8.12041 0.159586 8.48153 0.5
457 12.3381 11.3104 8.9753 0.5
458 4.33224 0.94182 9.81033 0.5
459 12.9915 2.1416 5.80883 0.5
460 12.6978 6.65676 13.3715 0.5
461 11.4829 8.3667 11.6701 0.5
462 10.0136 4.45092 7.80373 0.5
463 6.46083 3.44132 7.12811 0.5
464 0.145393 8.50443 9.78981 0.5
465 4.70835 9.94519 11.7012 0.5
466 2.90636 12.8292 6.52758 0.5
467 1.3775 7.81874 0.473148 0.5
468 -0.0262245 7.74937 9.06197 0.5
469 2.11077 2.83646 11.0067 0.5
470 1.39685 6.2694 11.903 0.5
471 4.10399 1.77073 10.4148 0.5
472 10.821 6.66447 3.91347 0.5
473 11.2949 8.62974 6.84587 0.5
474 3.39307 7.20236 8.83918 0.5
475 6.2343 3.67838 6.16594 0.5
476 6.15761 1.11532 10.7632 0.5
477 5.73057 8.12131 9.57723 0.5
478 3.80337 12.2466 0.642644 0.5
479 8.49236 7.50456 13.2749 0.5
480 4.4555 10.7026 8.33859 0.5
481 2.46182 3.69941 0.815438 0.5
482 11.0781 12.9629 0.783182 0.5
483 8.95088 11.1904 2.53074 0.5
484 10.043 7.19392 4.14272 0.5
485 5.35792 4.29534 2.89362 0.5
486 3.67412 11.371 8.69682 0.5
487 4.31655 2.87247 8.20882 0.5
488 5.55257 5.30017 6.9526 0.5
489 3.57072 0.673814 3.37818 0.5
490 0.148575 12.8668 9.01914 0.5
491 2.13689 7.03438 12.1123 0.5
492 0.920494 4.88218 12.6076 0.5
493 12.1768 8.46913 11.0656 0.5
494 6.80169 5.08457 0.471815 0.5
495 6.49109 7.55205 0.712949 0.5
496 6.85972 0.0689315 13.2026 0.5
497 4.58884 4.99364 6.63517 0.5
498 3.99255 11.8278 5.05787 0.5
499 6.40055 1.784 11.5782 0.5
500 10.0323 9.26113 5.75715 0.5
501 5.42984 1.32726 4.45972 0.5
502 9.33333 10.4293 9.28271 0.5
503 6.95906 6.08847 12.7583 0.5
504 2.21392 1.48575 13.4676 0.5
505 3.63743 3.07137 12.3308 0.5
506 3.50019 10.9674 1.6042 0.5
507 7.45986 3.80462 4.23546 0.5
508 0.16482 1.38534 5.87302 0.5
509 5.29584 5.49848 6.07497 0.5
510 7.33846 10.4031 11.4733 0.5
511 5.83098 0.803942 7.28296 0.5
512 9.90911 11.6562 2.922 0.5
513 4.55087 3.85321 3.15101 0.5
514 5.98192 8.3217 1.12417 0.5
515 2.23482 9.93927 3.04866 0.5
516 5.57811 8.8519 3.18455 0.5
517 1.06556 3.60354 4.71984 0.5
518 2.48426 6.6941 8.79772 0.5
519 5.00571 7.65936 10.0869 0.5
520 1.8871 0.79802 0.542557 0.5
521 11.2361 5.91226 4.3663 0.5
522 2.53193 8.69353 11.6591 0.5
523 13.064 7.58863 3.45329 0.5
524 0.751693 0.55646 5.75695 0.5
525 11.4634 8.26796 0.48016 0.5
526 8.61736 12.1147 8.218 0.5
527 7.65561 10.9083 1.54228 0.5
528 1.0011 0.297422 0.212008 0.5
529 13.4934 12.4263 1.0176 0.5
530 11.6716 2.81771 9.75524 0.5
531 11.2593 8.45778 10.7609 0.5
532 6.30736 9.15183 4.57959 0.5
533 5.93577 7.76879 10.6075 0.5
534 2.78231 13.2305 11.2955 0.5
535 8.19939 12.714 12.6709 0.5
536 1.70753 12.6017 3.89991 0.5
537 2.92503 10.9339 9.0213 0.5
538 8.3466 10.0813 1.43132 0.5
539 2.03905 7.9234 3.40271 0.5
540 0.47141 3.19308 7.948 0.5
541 4.0106 11.5324 2.42218 0.5
542 7.83898 13.5789 12.7607 0.5
543 12.9309 5.76749 6.06281 0.5
544 8.928 2.52265 8.00804 0.5
545 1.76138 7.17921 2.71339 0.5
546 0.835935 0.759097 12.8492 0.5
547 10.4486 5.27165 4.78712 0.5
548 11.7929 13.3691 7.15451 0.5
549 11.9189 10.4249 8.94066 0.5
550 12.6065 12.6796 3.11902 0.5
551 6.3814 1.56194 1.62444 0.5
552 3.90306 7.17824 0.579483 0.5
553 10.7052 6.21988 7.709 0.5
554 3.92821 12.7351 6.45891 0.5
555 0.85141 3.89357 3.66723 0.5
556 7.15118 12.8777 12.6079 0.5
557 7.15174 11.2531 0.639687 0.5
558 4.64314 1.87115 9.5691 0.5
559 3.44653 10.5175 8.31226 0.5
560 6.86446 2.57872 12.1165 0.5
561 8.08887 8.63273 12.0516 0.5
562 12.8927 2.7112 13.3164 0.5
563 8.44339 6.82728 7.21521 0.5
564 6.44045 5.39635 13.1385 0.5
565 9.60867 4.81904 5.31459 0.5
566 6.79544 1.87133 10.6605 0.5
567 12.8885 4.39428 3.8246 0.5
568 7.04507 1.11825 11.3281 0.5
569 11.1711 6.72165 11.3773 0.5
570 13.2227 7.79597 2.48721 0.5
571 2.55052 0.699684 3.21779 0.5
572 5.13975 3.53704 0.0682386 0.5
573 0.416524 13.1484 5.98882 0.5
574 9.08009 8.12177 3.24699 0.5
575 8.96945 13.2876 2.57107 0.5
576 3.8662 11.224 7.71278 0.5
577 4.02736 9.23407 2.67611 0.5
578 2.01462 11.8849 1.09726 0.5
579 13.126 9.9665 12.222 0.5
580 2.84839 4.89511 7.51395 0.5
581 1.37494 13.1824 8.04678 0.5
582 2.9194 12.2752 11.1502 0.5
583 2.81593 10.8184 0.213474 0.5
584 10.2715 6.2333 4.57099 0.5
585 12.9379 4.7063 6.36122 0.5
586 0.267854 5.8012 9.78901 0.5
587 13.0851 2.85649 1.38341 0.5
588 13.2041 12.621 0.0988153 0.5
589 13.5141 9.74167 8.57583 0.5
590 3.6606 12.19 8.02601 0.5
591 3.70874 4.09726 12.3662 0.5
592 10.3688 11.2184 10.6615 0.5
593 6.41366 9.776 7.34098 0.5
594 12.9436 10.8481 6.86441 0.5
595 13.42 9.90738 6.81614 0.5
596 9.57116 9.53707 2.44547 0.5
597 2.95685 9.9374 9.00397 0.5
598 7.69005 11.1919 5.61724 0.5
599 11.2404 11.1107 8.83574 0.5
600 12.3561 6.19176 12.619 0.5
601 2.98146 6.1145 3.23112 0.5
602 13.3248 6.47652 10.2609 0.5
603 2.76855 7.07747 11.3681 0.5
604 5.16405 1.37149 10.3357 0.5
605 7.09839 1.57859 12.2849 0.5
606 11.5222 9.66026 5.37698 0.5
607 8.60316 10.2557 8.54825 0.5
608 8.80418 13.4711 12.3462 0.5
609 1.36458 12.2215 0.293186 0.5
610 1.50439 9.10666 8.81126 0.5
611 0.64262 9.1407 8.35352 0.5
612 5.74396 13.5312 2.86022 0.5
613 3.73 5.79962 5.10442 0.5
614 4.13109 0.0504442 10.2463 0.5
615 3.85308 10.5319 9.23017 0.5
616 13.3767 6.1471 2.11842 0.5
617 6.6472 6.10103 3.04398 0.5
618 11.4437 7.66226 8.20384 0.5
619 12.6598 3.56525 11.9873 0.5
620 0.908502 10.6055 11.4966 0.5
621 2.58426 4.34844 4.70133 0.5
622 5.52684 8.73317 8.7559 0.5
623 12.7713 7.6121 4.38499 0.5
624 12.6666 5.45492 2.48027 0.5
625 1.80419 3.61476 10.4586 0.5
626 2.81196 3.83451 1.78284 0.5
627 9.94446 6.45921 0.211637 0.5
628 12.9508 4.39878 10.3201 0.5
629 5.37394 3.80126 3.83697 0.5
630 3.46317 3.2855 1.15155 0.5
631 9.33194 1.03281 0.512112 0.5
632 6.71159 12.7589 13.5104 0.5
633 10.1937 0.737049 0.921041 0.5
634 10.0958 10.5737 9.89881 0.5
635 9.86297 2.13829 12.5344 0.5
636 9.67237 3.69852 11.9345 0.5
637 0.363576 10.5845 7.1588 0.5
638 6.4514 1.40139 4.70075 0.5
639 8.82575 7.14234 10.4682 0.5
640 2.0797 4.20781 7.50403 0.5
641 7.41345 7.31991 6.06445 0.5
642 11.2094 5.33147 0.000764856 0.5
643 11.0411 1.15833 7.76848 0.5
644 7.36043 3.06043 11.5059 0.5
645 13.056 11.3397 5.86416 0.5
646 9.03198 8.575 12.2923 0.5
647 8.698 5.05236 12.114 0.5
648 7.71116 9.52064 11.8511 0.5
649 4.93807 7.91691 11.1522 0.5
650 2.98499 0.980723 6.90216 0.5
651 0.876138 6.08389 6.65038 0.5
652 5.10644 4.34076 7.19485 0.5
653 0.0389159 5.52562 2.84463 0.5
654 3.3734 10.8776 11.5772 0.5
655 11.5775 11.8853 9.48926 0.5
656 1.11052 11.3725 0.762872 0.5
657 11.0744 0.391401 6.90406 0.5
658 9.52372 10.1807 5.74034 0.5
659 1.31126 9.67272 2.86605 0.5
660 0.643263 0.884645 8.78603 0.5
661 2.6595 7.33564 9.54531 0.5
662 4.60301 11.1001 5.39078 0.5
663 6.08031 12.9207 3.71203 0.5
664 5.13229 6.46713 5.94992 0.5
665 10.2285 10.9573 3.6164 0.5
666 5.14888 12.2727 10.2455 0.5
667 10.8268 4.3343 8.37117 0.5
668 5.73404 2.83443 3.85733 0.5
669 8.20801 10.5434 2.3385 0.5
670 8.80969 13.0702 8.15203 0.5
671 6.86816 8.46806 0.896672 0.5
672 3.45589 2.64758 5.23806 0.5
673 5.35937 8.79007 0.421871 0.5
674 2.79291 7.7665 12.0962 0.5
675 3.47346 4.83968 11.8135 0.5
676 2.00026 0.128369 2.65311 0.5
677 3.77532 9.61324 3.659 0.5
678 13.011 8.27062 10.5012 0.5
679 10.7184 12.3844 6.36133 0.5
680 4.88724 11.536 1.8942 0.5
681 4.27653 1.23641 8.8409 0.5
682 2.13969 2.85777 9.97823 0.5
683 1.75719 5.38839 12.21 0.5
684 11.6745 13.0746 3.19759 0.5
685 12.1898 12.5747 3.99267 0.5
686 10.6684 7.73446 11.2596 0.5
687 4.81832 9.44144 13.3451 0.5
688 0.933306 7.69653 6.24516 0.5
689 3.28746 2.9489 2.06559 0.5
690 4.43719 9.00296 6.79233 0.5
691 -0.0493046 10.7411 11.8133 0.5
692 4.4241 13.3172 13.3059 0.5
693 11.8082 5.90827 11.7696 0.5
694 5.65599 9.16017 9.67776 0.5
695 12.3349 7.91972 2.83723 0.5
696 10.537 3.64205 7.65192 0.5
697 0.39923 9.86373 7.72708 0.5
698 6.13823 11.1609 6.33153 0.5
699 3.13751 7.67947 0.354051 0.5
700 12.463 8.32757 3.74823 0.5
701 9.26011 7.99498 12.958 0.5
702 3.91423 1.82017 8.06792 0.5
703 1.71449 5.263 13.2103 0.5
704 9.32845 3.16768 8.75536 0.5
705 10.6404 7.27493 7.74883 0.5
706 6.75068 10.6772 5.54846 0.5
707 4.08939 5.42682 10.133 0.5
708 12.9214 1.98928 1.33186 0.5
709 9.7607 0.0953255 0.286436 0.5
710 7.27432 6.31057 3.88277 0.5
711 0.23088 13.3893 13.2802 0.5
712 12.5894 3.02527 9.40599 0.5
713 8.17811 9.86953 7.60395 0.5
714 12.6106 4.35722 7.36465 0.5
715 13.1676 8.54152 3.02819 0.5
716 1.98807 1.95713 10.5348 0.5
717 2.96863 6.79573 0.737559 0.5
718 11.9382 0.70016 7.54788 0.5
719 4.38005 10.8904 12.0308 0.5
720 12.6922 11.645 2.68821 0.5
721 10.9943 6.81501 8.57674 0.5
722 6.10049 13.1303 12.8011 0.5
723 3.16466 12.0738 8.85769 0.5
724 9.20203 13.3788 9.73607 0.5
725 2.70877 1.97838 5.32089 0.5
726 8.21011 1.90996 8.40692 0.5
727 4.81743 2.64793 13.46 0.5
728 12.6474 2.03877 4.84966 0.5
729 9.61229 5.01942 0.959916 0.5
730 8.29945 5.77267 7.121 0.5
731 10.7389 0.165277 0.254547 0.5
732 1.34099 2.63347 8.00937 0.5
733 8.01188 11.6546 0.903533 0.5
734 10.6223 11.3937 6.38834 0.5
735 3.07054 5.11839 8.55878 0.5
736 4.27852 3.98251 10.7561 0.5
737 4.72353 2.97916 3.64635 0.5
738 1.8852 6.73996 11.117 0.5
739 5.58974 13.5235 7.73884 0.5
740 12.148 13.4767 8.11548 0.5
741 7.68879 4.18884 5.17307 0.5
742 5.50139 9.24975 1.37827 0.5
743 7.21627 8.24616 5.55024 0.5
744 4.53168 2.63395 12.5112 0.5
745 6.45381 6.99239 12.2249 0.5
746 4.82123 8.52251 9.51449 0.5
747 13.2565 0.602273 11.5669 0.5
748 7.29466 9.47939 7.8698 0.5
749 6.33033 9.27039 3.62573 0.5
750 1.2049 1.35439 0.0609909 0.5
751 13.5032 8.70267 12.9044 0.5
752 1.54196 1.46984 12.6977 0.5
753 6.61286 2.32212 0.869894 0.5
754 1.93726 12.4835 11.3929 0.5
755 7.02453 3.97351 0.574713 0.5
756 6.73192 7.819 1.67413 0.5
757 12.0608 6.79496 11.7669 0.5
758 4.5366 12.5428 4.49863 0.5
759 12.7036 8.61924 2.14264 0.5
760 7.10777 4.83812 4.5614 0.5
761 3.58138 11.2441 0.702214 0.5
762 13.4927 2.41891 0.569157 0.5
763 11.648 0.493102 3.41224 0.5
764 8.87125 9.20538 3.17622 0.5
765 12.4321 2.5985 0.639043 0.5
766 7.76437 3.14929 5.02379 0.5
767 3.70609 6.68833 1.40617 0.5
768 12.9194 0.00782367 10.6991 0.5
769 11.2327 2.38921 5.92616 0.5
770 11.4193 7.81293 6.21577 0.5
771 7.83805 8.1645 6.32465 0.5
772 1.05175 1.68041 10.5584 0.5
773 9.2382 4.21782 8.44384 0.5
774 9.63968 0.330467 2.9721 0.5
775 10.3319 13.415 11.021 0.5
776 2.86658 9.38849 6.69335 0.5
777 11.258 12.5453 4.00275 0.5
778 11.8107 12.1132 3.21155 0.5
779 8.05169 7.62346 5.38096 0.5
780 2.92384 11.407 8.07697 0.5
781 13.0207 1.27921 5.34876 0.5
782 11.1305 3.33686 4.03026 0.5
783 0.184244 9.19739 12.1574 0.5
784 2.75074 2.68463 4.4835 0.5
785 10.5363 10.0458 5.43212 0.5
786 8.46733 3.76497 4.61803 0.5
787 6.2239 12.6471 2.65984 0.5
788 11.7355 7.55499 11.0882 0.5
789 9.22593 4.04846 2.82089 0.5
790 8.79298 0.765669 2.5289 0.5
791 4.80803 7.1467 11.938 0.5
792 5.73596 2.81602 7.36032 0.5
793 7.04879 8.74669 4.00405 0.5
794 12.61 0.905146 3.21918 0.5
795 7.65288 8.13002 4.66285 0.5
796 4.54741 11.2133 9.0701 0.5
797 3.58082 3.81361 11.4635 0.5
798 2.65958 3.54186 4.03492 0.5
799 0.263965 0.905767 4.9524 0.5
800 0.638097 8.19472 0.0370365 0.5
801 7.54815 5.7029 3.08879 0.5
802 5.31334 10.5935 12.285 0.5
803 11.1226 10.9305 11.2611 0.5
804 0.117934 5.74021 8.73503 0.5
805 9.05686 8.62027 2.34741 0.5
806 2.65999 7.66476 8.52155 0.5
807 2.69642 4.2244 8.27513 0.5
808 2.05641 8.99375 3.32831 0.5
809 9.3183 5.14004 11.2008 0.5
810 2.46055 11.4905 11.7028 0.5
811 10.3992 7.21454 3.18106 0.5
812 2.01583 7.79316 11.4057 0.5
813 7.90097 5.65595 12.4341 0.5
814 9.37863 0.45377 6.02814 0.5
815 11.6183 12.0201 8.57666 0.5
816 9.40541 7.32125 0.124775 0.5
817 11.885 11.162 3.08949 0.5
818 3.22909 10.2496 0.86967 0.5
819 6.43546 13.508 7.39492 0.5
820 0.258611 11.932 8.74388 0.5
821 11.0651 2.89414 5.04193 0.5
822 9.29274 1.19445 5.41764 0.5
823 9.8242 0.359241 10.2217 0.5
824 1.56762 8.45988 6.00733 0.5
825 7.89258 1.02125 1.9414 0.5
826 7.10749 13.5127 8.16003 0.5
827 11.2324 0.36947 1.07895 0.5
828 5.36843 3.24265 2.96145 0.5
829 4.83421 2.31497 7.54768 0.5
830 5.15333 12.1171 9.20575 0.5
831 11.2104 0.145005 7.8444 0.5
832 0.358244 5.77753 10.783 0.5
833 2.07078 11.7251 10.7804 0.5
834 9.45061 1.74293 13.3915 0.5
835 0.754673 5.53545 11.8188 0.5
836 7.93745 8.85824 11.0452 0.5
837 6.98795 3.0202 0.390831 0.5
838 13.0385 13.2251 11.6935 0.5
839 4.66957 4.21426 2.20022 0.5
840 7.68011 13.0382 -0.0166776 0.5
841 7.15807 10.9768 6.4636 0.5
842 12.4381 3.74047 11.0238 0.5
843 12.3329 2.87556 12.5191 0.5
844 5.2245 3.32141 12.745 0.5
845 9.8704 5.84831 5.4792 0.5
846 6.08341 12.3083 10.6115 0.5
847 4.43128 8.0508 6.39272 0.5
848 4.96719 6.23405 12.4742 0.5
849 0.791981 12.1469 6.05833 0.5
850 10.5889 10.4981 12.1061 0.5
851 6.55176 10.2151 6.42765 0.5
852 7.31461 10.2955 7.29014 0.5
853 4.21064 7.7194 9.34533 0.5
854 9.95839 6.38611 3.52004 0.5
855 9.757 10.6831 2.716 0.5
856 2.03622 13.4907 3.65001 0.5
857 10.0094 5.09407 10.4268 0.5
858 7.60012 10.3879 8.40826 0.5
859 11.3345 5.14488 5.00751 0.5
860 10.5331 5.06258 5.68846 0.5
861 11.3335 13.2081 6.23534 0.5
862 11.1306 7.62696 10.2501 0.5
863 8.14304 8.65206 5.37502 0.5
864 8.03489 7.26353 7.94018 0.5
865 11.96 3.87909 12.6018 0.5
866 5.40929 13.0344 2.0314 0.5
867 12.3948 4.14426 13.4854 0.5
868 9.05446 9.40872 9.06754 0.5
869 4.52127 0.366522 12.5419 0.5
870 3.50485 8.62666 6.59105 0.5
871 12.6912 8.61785 4.60184 0.5
872 0.760346 5.28129 0.0144047 0.5
873 13.2007 0.631764 2.39146 0.5
874 7.11023 5.13886 12.4099 0.5
875 7.61259 12.011 4.12032 0.5
876 2.37365 5.69447 8.82832 0.5
877 10.5648 7.8715 6.8961 0.5
878 2.83936 11.8318 0.409094 0.5
879 1.27197 3.63904 7.53649 0.5
880 11.9458 0.841026 2.47607 0.5
881 11.0292 10.3515 12.9596 0.5
882 1.65102 9.77598 3.85472 0.5
883 11.2744 12.1927 0.278937 0.5
884 12.9213 3.36563 0.424087 0.5
885 7.35274 10.6642 10.4749 0.5
886 13.4683 2.87925 7.17487 0.5
887 0.0238028 0.173609 12.3508 0.5
888 5.51298 4.43703 1.7927 0.5
889 10.9194 5.13438 8.94872 0.5
890 11.6081 8.81479 5.91424 0.5
891 2.0066 6.29702 3.13252 0.5
892 9.21965 0.905641 9.61554 0.5
893 10.0395 4.81164 8.79712 0.5
894 7.43466 7.59048 1.00841 0.5
895 12.2202 8.43232 1.12173 0.5
896 7.44845 12.2101 0.455419 0.5
897 6.68928 13.3388 3.0493 0.5
898 5.27599 12.6685 2.98695 0.5
899 10.6169 5.22114 7.96589 0.5
900 11.6755 10.9496 9.76951 0.5
901 13.12 5.45638 10.3167 0.5
902 11.5548 6.73713 7.80479 0.5
903 9.75261 8.76463 2.9614 0.5
904 8.35369 3.65759 5.68469 0.5
905 13.1524 6.85471 6.22559 0.5
906 12.9118 5.3189 3.51527 0.5
907 7.03197 3.54984 10.7368 0.5
908 8.82028 0.3661 5.2406 0.5
909 9.93414 3.27773 2.84785 0.5
910 7.93532 2.82705 7.9303 0.5
911 5.55704 7.07941 12.6194 0.5
912 8.6104 9.34586 11.5484 0.5
913 11.5147 5.58314 12.6182 0.5
914 5.05497 12.9499 12.542 0.5
915 8.04444 2.11851 5.0582 0.5
916 10.5666 8.40098 6.00121 0.5
917 12.1175 13.198 12.0454 0.5
918 7.46769 6.51844 8.47595 0.5
919 12.9392 11.7907 1.65417 0.5
920 0.34202 11.6442 10.2805 0.5
921 5.73652 6.14757 7.53712 0.5
922 12.1913 2.74746 11.4531 0.5
923 0.379298 2.22917 7.70028 0.5
924 11.3211 11.465 10.4047 0.5
925 10.4876 3.34511 2.01407 0.5
926 5.46178 10.2553 13.2299 0.5
927 1.89006 7.54746 6.11177 0.5
928 0.298477 6.18807 5.87897 0.5
929 1.27577 2.70534 10.4763 0.5
930 10.0514 9.73491 9.22074 0.5
931 4.3595 9.3159 12.4178 0.5
932 3.9703 8.56916 3.45432 0.5
933 0.388135 11.948 0.405896 0.5