ITEM: TIMESTEP
540000
ITEM: NUMBER OF ATOMS
1000
ITEM: BOX BOUNDS xy xz yz pp pp pp
0.0000000000000000e+00 1.3572088000000001e+01 0.0000000000000000e+00
0.0000000000000000e+00 1.3572088000000001e+01 0.0000000000000000e+00
0.0000000000000000e+00 1.3572088000000001e+01 0.0000000000000000e+00
ITEM: ATOMS id x y z radius
1 4.17782 3.85905 12.5062 0.5
2 4.90863 11.4942 3.95071 0.5
3 9.00347 10.0867 2.66033 0.5
4 9.59387 5.73267 1.01629 0.5
5 8.33216 7.8735 10.4256 0.5
6 3.70195 12.9622 4.85297 0.5
7 2.74542 8.45917 1.28171 0.5
8 13.4188 11.3289 2.28618 0.5
9 1.49104 8.51124 6.34968 0.5
10 3.20709 0.236481 11.1088 0.5
11 0.839576 9.55877 9.16377 0.5
12 10.3556 5.62422 0.203104 0.5
13 9.00159 11.4625 5.14418 0.5
14 10.854 2.13165 4.34129 0.5
15 6.10114 1.81903 3.99897 0.5
16 7.67587 6.63263 9.465 0.5
17 6.62423 11.9384 10.7928 0.5
18 2.47859 8.49884 6.20838 0.5
19 9.84261 5.1117 1.78852 0.5
20 10.1163 11.7722 2.93711 0.5
21 2.09609 4.67042 1.1759 0.5
22 1.77045 6.08087 12.464 0.5
23 1.30885 1.01583 10.6318 0.5
24 7.53556 7.20879 1.70408 0.5
25 0.650002 6.12587 2.68939 0.5
26 10.5334 10.4246 5.80458 0.5
27 11.2117 6.85098 12.6897 0.5
28 5.19074 11.6237 12.0068 0.5
29 0.364497 6.14946 1.74254 0.5
30 8.31957 10.841 1.29225 0.5
31 1.00635 13.4411 8.47444 0.5
32 9.10494 2.65498 12.8706 0.5
33 12.9413 6.07065 9.73302 0.5
34 3.41961 8.82725 5.61531 0.5
35 11.6617 6.78903 13.5549 0.5
36 8.30067 1.85611 4.88353 0.5
37 0.243177 0.989632 2.63142 0.5
38 2.82863 1.40685 1.80552 0.5
39 10.6295 4.43174 1.66833 0.5
40 5.81404 6.17246 6.31279 0.5
41 8.01782 11.4041 4.66296 0.5
42 6.91897 5.50822 3.65972 0.5
43 5.1901 5.04765 10.2887 0.5
44 4.38857 11.7549 8.13549 0.5
45 7.20774 6.14329 1.78125 0.5
46 10.3119 10.7778 0.258279 0.5
47 2.56566 9.34683 5.46489 0.5
48 7.54727 10.6012 0.666953 0.5
49 5.74827 11.5725 9.20022 0.5
50 6.07327 0.610995 10.6935 0.5
51 12.8829 10.2406 7.21085 0.5
52 6.1774 10.7131 7.48902 0.5
53 10.4769 3.46133 1.91734 0.5
54 11.8446 11.5925 4.14788 0.5
55 -0.00705176 0.517924 6.31584 0.5
56 0.262823 3.95444 3.02118 0.5
57 0.559034 11.5562 11.3853 0.5
58 5.27562 8.48898 10.4211 0.5
59 1.90399 10.6369 11.6746 0.5
60 7.77532 4.88972 9.82881 0.5
61 4.57722 0.814965 11.0143 0.5
62 1.09814 8.76692 0.731426 0.5
63 11.5384 8.63295 1.99904 0.5
64 12.3405 2.19061 9.67877 0.5
65 0.026698 1.9334 5.30026 0.5
66 12.3248 1.47924 1.99558 0.5
67 8.21683 3.22715 8.70259 0.5
68 2.84802 1.47768 2.77048 0.5
69 11.6408 2.33326 10.5293 0.5
70 12.1867 3.81466 9.93393 0.5
71 2.80499 6.57457 8.99058 0.5
72 7.38549 2.54379 11.1488 0.5
73 8.39692 6.65834 8.81066 0.5
74 6.03524 4.51269 10.1599 0.5
75 8.84311 0.218882 10.3469 0.5
76 11.992 3.48764 13.4921 0.5
77 10.4235 2.69272 3.50476 0.5
78 8.77213 3.06816 4.93648 0.5
79 4.14637 12.4355 5.59341 0.5
80 5.4693 2.60104 8.08757 0.5
81 1.02355 3.51899 11.2437 0.5
82 1.19176 8.65218 13.3179 0.5
83 3.29191 0.636686 6.24081 0.5
84 0.552724 8.63599 9.48384 0.5
85 -0.0240302 3.5612 6.95816 0.5
86 2.74175 0.656269 13.2538 0.5
87 4.2222 5.66619 5.83353 0.5
88 6.84523 6.14268 4.42693 0.5
89 11.6177 12.5197 7.96546 0.5
90 3.9627 6.24946 4.1322 0.5
91 11.3158 7.65918 12.0723 0.5
92 13.2593 1.46314 1.83136 0.5
93 13.253 0.58213 12.6333 0.5
94 4.671 10.1689 12.5062 0.5
95 11.9653 1.46228 8.16164 0.5
96 11.7655 2.50577 4.59035 0.5
97 11.9544 2.68755 5.55205 0.5
98 10.7878 9.81989 0.378482 0.5
99 6.26381 8.51341 8.88519 0.5
100 0.925753 6.63574 6.26327 0.5
101 4.72066 11.7621 2.96391 0.5
102 8.46678 7.30583 9.57901 0.5
103 4.26506 4.80706 10.7071 0.5
104 7.08497 11.541 6.14166 0.5
105 11.7093 12.2153 7.0365 0.5
106 6.25102 1.53485 10.4573 0.5
107 13.1678 4.97869 7.75948 0.5
108 12.9523 10.7415 5.4818 0.5
109 0.654725 12.0435 9.2469 0.5
110 7.96278 9.37637 8.55447 0.5
111 8.7167 13.5635 3.58215 0.5
112 6.4424 1.12864 4.76429 0.5
113 0.452701 13.4468 5.51327 0.5
114 7.55535 6.72368 2.6156 0.5
115 5.76234 6.24219 11.5844 0.5
116 0.0120758 5.43168 2.26629 0.5
117 0.959339 1.46847 5.2822 0.5
118 11.1282 9.56485 6.07102 0.5
119 12.0743 7.90471 1.72191 0.5
120 5.85793 9.3308 3.8083 0.5
121 11.7036 12.9376 11.0874 0.5
122 2.0405 3.17223 2.23354 0.5
123 11.8475 2.28867 8.81594 0.5
124 10.364 11.2479 11.8049 0.5
125 4.92968 12.4979 3.72398 0.5
126 11.1275 11.2735 13.4089 0.5
127 7.34816 10.5069 11.2216 0.5
128 4.98763 3.08753 7.38898 0.5
129 2.26157 6.06178 11.5428 0.5
130 1.42913 12.0342 10.9855 0.5
131 8.20071 2.29295 2.20106 0.5
132 5.4864 11.7747 2.32001 0.5
133 1.34395 11.0617 10.9558 0.5
134 10.9771 11.6734 3.65964 0.5
135 12.1433 1.70654 5.90899 0.5
136 8.30179 5.03307 4.51813 0.5
137 3.17054 12.5643 5.65282 0.5
138 7.04238 12.2841 13.1675 0.5
139 5.71409 0.0791081 0.260286 0.5
140 5.15216 3.54988 4.43154 0.5
141 1.81948 4.13853 3.8816 0.5
142 10.082 2.71875 12.6901 0.5
143 0.77035 12.7823 0.288676 0.5
144 8.78123 12.948 8.82066 0.5
145 6.63146 6.91504 2.1884 0.5
146 9.69106 9.00018 8.6597 0.5
147 4.48503 6.55171 0.70067 0.5
148 12.2443 0.202811 11.2255 0.5
149 8.07194 6.86618 10.3757 0.5
150 12.5915 11.5998 3.4982 0.5
151 6.68856 12.7399 10.0733 0.5
152 3.2974 4.2914 12.0201 0.5
153 12.2501 7.74166 7.84908 0.5
154 2.46051 2.24867 2.12762 0.5
155 2.1922 8.56654 10.8534 0.5
156 7.85109 12.1414 0.226926 0.5
157 1.541 0.609706 3.49569 0.5
158 1.77885 9.58162 8.71003 0.5
159 4.13094 2.08534 8.81359 0.5
160 9.4237 0.373263 11.1657 0.5
161 12.4587 2.96242 10.3271 0.5
162 6.57823 2.79446 7.8272 0.5
163 11.8149 9.67865 0.756454 0.5
164 9.9681 3.37058 11.3321 0.5
165 6.98623 11.1521 10.4605 0.5
166 10.9528 12.8513 7.20017 0.5
167 11.4977 8.10678 8.1736 0.5
168 1.17487 2.80335 7.44832 0.5
169 10.2361 11.0345 12.8243 0.5
170 3.71971 6.57611 0.0246319 0.5
171 10.6693 5.50023 1.27457 0.5
172 12.0346 7.38263 10.3029 0.5
173 8.78277 9.97375 1.70199 0.5
174 4.24202 0.921941 13.4554 0.5
175 2.30106 6.35628 3.95867 0.5
176 3.71925 5.78705 3.16382 0.5
177 9.31517 4.11609 6.13321 0.5
178 5.51617 2.62603 4.3494 0.5
179 12.9799 5.78599 1.66411 0.5
180 9.52349 2.96779 12.0016 0.5
181 10.9037 10.9773 9.73689 0.5
182 3.04839 11.8307 1.35146 0.5
183 8.58196 7.14513 6.46011 0.5
184 10.6774 5.43631 8.86851 0.5
185 8.66745 13.021 11.051 0.5
186 5.03409 8.33311 2.84178 0.5
187 5.08651 0.556886 13.1212 0.5
188 4.80408 6.00925 6.56831 0.5
189 0.771053 10.8661 6.27302 0.5
190 9.55854 12.8267 3.46997 0.5
191 9.29743 7.48261 3.7369 0.5
192 10.2922 1.05707 13.3252 0.5
193 11.4536 1.81774 9.63802 0.5
194 9.5875 13.1062 10.6565 0.5
195 0.25552 10.1309 12.3407 0.5
196 8.87535 0.607847 4.28853 0.5
197 2.73341 6.36802 7.94115 0.5
198 6.07666 5.75188 12.4595 0.5
199 11.7643 0.536429 8.51549 0.5
200 6.78297 6.83651 1.16868 0.5
201 0.00841217 3.89836 7.88956 0.5
202 6.02833 0.315558 7.10238 0.5
203 1.60742 3.70937 1.44445 0.5
204 2.38761 7.71598 7.93011 0.5
205 12.7966 13.338 3.86508 0.5
206 0.6253 1.1055 10.0218 0.5
207 4.22198 12.1642 9.1362 0.5
208 9.35815 3.89815 5.1199 0.5
209 5.54129 2.41464 3.39514 0.5
210 4.07848 6.53954 5.20307 0.5
211 4.18567 3.85396 10.8451 0.5
212 3.14712 5.66169 4.00889 0.5
213 3.4064 1.69045 5.93086 0.5
214 10.1043 4.45211 11.5076 0.5
215 7.82635 6.58768 1.03527 0.5
216 6.06793 8.35598 0.0803184 0.5
217 4.20217 11.1966 4.57135 0.5
218 6.80923 8.22177 4.85081 0.5
219 8.93409 0.85589 3.17222 0.5
220 7.51554 2.56383 10.143 0.5
221 2.93085 3.45036 6.00011 0.5
222 7.15131 11.0587 5.1549 0.5
223 4.96944 9.17553 3.27642 0.5
224 12.7925 9.35547 3.54664 0.5
225 7.44276 11.5338 11.2644 0.5
226 10.5814 6.67853 -0.0228581 0.5
227 12.9632 7.08775 10.0663 0.5
228 4.41824 11.4703 5.52556 0.5
229 5.50461 4.48323 6.26886 0.5
230 5.78227 9.39713 8.67778 0.5
231 8.20919 5.75593 9.11198 0.5
232 8.16372 4.50359 13.1503 0.5
233 0.919159 0.197319 10.0346 0.5
234 11.5008 1.82948 5.13268 0.5
235 1.67585 10.6706 2.94855 0.5
236 10.3348 6.43997 0.912753 0.5
237 5.13049 8.02044 6.29887 0.5
238 0.267414 12.5349 6.01598 0.5
239 10.11 8.25952 3.63052 0.5
240 1.24004 4.70968 13.3523 0.5
241 3.93064 5.70775 0.600519 0.5
242 2.73164 0.584146 2.50405 0.5
243 3.08238 9.65462 3.16349 0.5
244 3.6777 11.7436 6.08455 0.5
245 1.40677 11.4922 11.9116 0.5
246 9.53812 9.98723 8.62114 0.5
247 3.5468 0.976077 10.5186 0.5
248 7.8613 2.69009 3.09516 0.5
249 10.6308 2.03993 13.3043 0.5
250 9.87515 1.69518 0.342111 0.5
251 5.05917 10.0197 11.6133 0.5
252 8.33637 8.61394 12.9403 0.5
253 1.75424 8.30583 1.36626 0.5
254 10.8787 2.89426 2.60854 0.5
255 8.33023 9.40591 2.31961 0.5
256 1.30054 13.2079 3.51576 0.5
257 0.845102 3.83193 7.26123 0.5
258 12.9428 7.00797 5.94061 0.5
259 4.38547 4.86352 9.72893 0.5
260 6.63402 11.7543 9.69996 0.5
261 11.2088 3.15229 6.05143 0.5
262 7.40418 11.9931 5.19649 0.5
263 2.96328 4.02473 8.63389 0.5
264 10.2685 10.5178 9.1006 0.5
265 1.34311 4.27908 4.81834 0.5
266 3.815 13.4028 5.8999 0.5
267 5.14687 7.49092 9.05807 0.5
268 7.2116 2.34748 2.2263 0.5
269 9.29239 0.222464 8.6643 0.5
270 6.53587 10.0474 8.20164 0.5
271 11.0012 11.8085 7.60096 0.5
272 6.14496 9.26037 0.68926 0.5
273 7.71175 4.90146 3.61889 0.5
274 10.3923 4.33421 8.82735 0.5
275 2.83023 10.9775 0.873246 0.5
276 4.8166 1.89485 0.267866 0.5
277 7.47199 5.10038 13.3472 0.5
278 11.2935 10.6264 0.549226 0.5
279 9.52096 11.6017 5.98732 0.5
280 4.68027 12.284 2.01302 0.5
281 6.60401 2.57854 10.5966 0.5
282 0.331112 11.5103 1.30418 0.5
283 5.15346 5.49715 1.82867 0.5
284 1.93074 11.0474 0.197045 0.5
285 3.50548 9.80793 5.51697 0.5
286 2.35924 1.32528 12.6193 0.5
287 7.88403 7.15145 7.05356 0.5
288 5.69686 0.538429 6.08677 0.5
289 2.62862 10.6105 2.98066 0.5
290 1.24943 12.7255 5.84347 0.5
291 5.58332 0.841066 5.1031 0.5
292 4.05013 3.13471 13.1756 0.5
293 10.5957 5.89633 4.01487 0.5
294 2.67183 10.1691 5.9151 0.5
295 2.72252 1.43565 6.65671 0.5
296 0.0256329 4.55446 7.04576 0.5
297 10.355 10.309 11.203 0.5
298 9.50282 4.69686 12.3391 0.5
299 1.74011 0.69195 13.0504 0.5
300 9.70466 4.10246 1.55863 0.5
301 6.0621 7.31958 11.5717 0.5
302 3.46374 8.686 3.28306 0.5
303 12.075 9.12755 2.89141 0.5
304 0.296028 7.44514 6.1789 0.5
305 8.12651 12.6999 8.11259 0.5
306 11.1865 8.23929 1.1798 0.5
307 2.41959 6.9787 3.20579 0.5
308 0.10239 10.0516 11.335 0.5
309 12.9912 13.1936 12.7271 0.5
310 9.29083 13.2667 4.36928 0.5
311 13.5155 5.59457 6.96147 0.5
312 7.45143 11.9869 10.3808 0.5
313 1.23917 10.2058 3.92894 0.5
314 5.87797 12.6425 9.33855 0.5
315 12.911 4.7926 1.77737 0.5
316 8.25387 5.91218 8.02483 0.5
317 13.4249 8.66057 3.67459 0.5
318 13.3824 4.98059 6.11808 0.5
319 10.8194 11.4274 0.790387 0.5
320 5.66473 3.54218 6.63271 0.5
321 2.08778 12.6285 3.23244 0.5
322 10.2323 13.3492 0.909488 0.5
323 3.60261 1.05843 2.24074 0.5
324 11.1675 3.46264 3.37607 0.5
325 1.53431 5.25585 0.554543 0.5
326 10.3841 12.8658 0.0293836 0.5
327 8.5795 2.4958 7.88044 0.5
328 12.216 7.25535 12.8031 0.5
329 8.43746 2.73627 9.56069 0.5
330 8.1303 0.965313 5.26483 0.5
331 4.99559 3.02211 2.82708 0.5
332 12.2751 1.32967 9.01821 0.5
333 13.0059 1.55129 2.79693 0.5
334 4.30807 6.08586 1.59875 0.5
335 9.81551 0.600421 4.76148 0.5
336 5.00574 1.65876 8.44797 0.5
337 11.8054 0.938631 11.5988 0.5
338 7.77978 5.89213 10.0813 0.5
339 10.0871 4.35499 2.44022 0.5
340 12.7126 3.78256 11.8906 0.5
341 8.55975 0.259692 9.35041 0.5
342 6.46217 0.271817 5.39744 0.5
343 7.2082 5.7113 9.30788 0.5
344 5.13783 7.03251 6.49193 0.5
345 8.83985 8.16967 6.38238 0.5
346 1.03428 7.10644 5.40762 0.5
347 13.1618 11.6393 0.602794 0.5
348 1.36111 4.20795 0.639038 0.5
349 7.85801 6.32521 6.50893 0.5
350 8.51925 7.50506 11.2773 0.5
351 2.6598 9.18124 11.5366 0.5
352 8.60911 12.5522 7.23322 0.5
353 8.32607 7.38161 0.496 0.5
354 2.36516 2.89011 5.42154 0.5
355 1.58122 7.15768 3.78915 0.5
356 11.9643 13.3049 4.5081 0.5
357 6.63518 12.1843 3.55574 0.5
358 3.74449 1.51718 9.62869 0.5
359 6.85761 9.37324 8.7864 0.5
360 12.8802 4.10667 6.39028 0.5
361 3.5999 0.994139 7.20558 0.5
362 1.48928 0.904398 9.61836 0.5
363 10.5627 12.381 0.852011 0.5
364 3.25317 7.60509 1.2685 0.5
365 2.33373 7.65071 0.924906 0.5
366 6.42912 8.98736 7.92733 0.5
367 10.2714 11.7821 0.0265542 0.5
368 5.37733 4.77866 9.38391 0.5
369 1.99029 3.43727 4.66575 0.5
370 0.188433 10.3438 5.78073 0.5
371 9.70104 0.2851 3.7189 0.5
372 13.5126 4.67897 3.72319 0.5
373 4.41549 2.20917 12.9249 0.5
374 0.749276 9.37025 12.7202 0.5
375 0.914448 9.70108 8.2231 0.5
376 2.06887 10.7442 3.99139 0.5
377 7.76472 5.87207 4.04842 0.5
378 5.9194 9.31487 13.2478 0.5
379 4.90172 5.69989 0.8211 0.5
380 7.68962 4.25822 0.518268 0.5
381 9.90059 3.51869 8.41597 0.5
382 9.57468 2.78535 7.74994 0.5
383 2.15187 4.49556 0.139989 0.5
384 5.49522 10.3227 13.1237 0.5
385 13.1714 10.9025 1.33275 0.5
386 0.139637 3.6699 3.95665 0.5
387 2.0163 6.86215 10.8219 0.5
388 1.42111 1.83599 10.0377 0.5
389 5.29302 10.0918 10.6475 0.5
390 4.92874 4.10703 10.1084 0.5
391 7.60472 0.76542 2.29455 0.5
392 13.1585 4.73843 2.8106 0.5
393 3.42119 4.77461 9.19041 0.5
394 8.88051 9.36195 8.17569 0.5
395 1.53729 13.5229 9.28227 0.5
396 0.417717 1.93024 2.36178 0.5
397 7.58743 1.59855 1.73593 0.5
398 9.06722 11.818 2.64257 0.5
399 0.262066 4.28148 4.64962 0.5
400 7.46647 9.01091 5.08687 0.5
401 9.77113 2.64109 0.0936637 0.5
402 4.59088 7.35375 5.68882 0.5
403 6.58358 13.1172 7.37104 0.5
404 11.1638 11.0933 12.4223 0.5
405 12.1712 5.99148 0.221533 0.5
406 6.92413 3.07869 1.49983 0.5
407 2.08017 11.5433 3.35349 0.5
408 2.143 3.85688 5.50934 0.5
409 3.34581 4.28955 11.0241 0.5
410 11.4363 2.54448 3.58185 0.5
411 4.5601 5.96806 13.4076 0.5
412 5.07197 0.902531 0.396823 0.5
413 3.72801 6.62784 8.67391 0.5
414 3.1849 8.49227 11.0388 0.5
415 8.34794 10.2147 10.9538 0.5
416 8.90604 10.6784 5.77934 0.5
417 0.669625 13.0642 9.30435 0.5
418 9.36312 1.12826 10.563 0.5
419 3.07192 12.8596 10.5507 0.5
420 3.74009 0.0105138 6.93324 0.5
421 13.1806 5.08694 9.53944 0.5
422 8.91769 4.68225 5.31443 0.5
423 12.4779 0.043019 2.95413 0.5
424 2.98076 3.63474 5.07133 0.5
425 8.31743 8.5205 11.2265 0.5
426 1.28382 12.7322 7.72547 0.5
427 7.83449 2.56054 1.32242 0.5
428 0.399416 8.01247 8.73402 0.5
429 11.2559 5.59019 8.17381 0.5
430 9.46904 13.0853 11.6613 0.5
431 2.42757 4.81581 8.69448 0.5
432 13.0282 2.34425 2.15651 0.5
433 7.30986 11.3684 0.0625916 0.5
434 13.5476 2.90941 13.2925 0.5
435 11.1884 9.29415 1.27731 0.5
436 6.90742 5.29511 10.2813 0.5
437 4.1149 9.33843 6.25747 0.5
438 5.85279 3.51803 7.6743 0.5
439 11.1281 10.3444 10.565 0.5
440 9.79743 10.6397 6.31444 0.5
441 6.25961 1.30779 5.6707 0.5
442 1.21709 7.57606 6.44483 0.5
443 1.16387 12.2384 1.06395 0.5
444 9.20918 8.89155 13.0911 0.5
445 5.34716 8.50036 3.86579 0.5
446 3.16736 6.38605 4.6574 0.5
447 1.93306 9.37488 6.18661 0.5
448 5.24633 9.79941 0.428406 0.5
449 3.80734 12.9005 11.2077 0.5
450 3.03891 2.29587 1.25906 0.5
451 7.65165 3.54608 1.13491 0.5
452 2.15619 8.6229 0.465129 0.5
453 5.19333 9.1426 2.30331 0.5
454 2.92425 13.4085 3.26658 0.5
455 0.924429 2.53334 11.4123 0.5
456 8.2208 0.144695 8.35757 0.5
457 12.4211 10.8937 8.99819 0.5
458 4.38928 0.763878 9.90422 0.5
459 12.8771 2.37674 5.9559 0.5
460 12.7146 6.83213 13.4724 0.5
461 11.327 8.4427 11.3305 0.5
462 9.64498 3.77303 7.41939 0.5
463 6.64546 3.37169 7.03388 0.5
464 0.0648813 8.42033 10.2881 0.5
465 5.47951 10.719 12.1919 0.5
466 2.9674 13.3338 6.38404 0.5
467 1.43842 7.95562 0.459548 0.5
468 0.131218 7.71665 9.5818 0.5
469 1.90002 2.98031 11.2969 0.5
470 1.58292 6.79297 11.8317 0.5
471 4.35035 1.66594 10.3955 0.5
472 10.8068 6.80338 3.9446 0.5
473 11.5483 8.37367 7.28928 0.5
474 2.38692 7.55649 8.8646 0.5
475 6.40779 4.06262 6.21745 0.5
476 6.86319 0.968755 11.2521 0.5
477 5.7255 8.06291 9.64687 0.5
478 3.45139 12.4739 0.667423 0.5
479 8.24033 7.58062 13.0543 0.5
480 4.3148 10.6343 8.22026 0.5
481 2.2978 3.82007 0.742822 0.5
482 11.1818 13.1163 0.595495 0.5
483 8.9222 10.9362 2.0719 0.5
484 10.217 7.37254 4.39858 0.5
485 4.36835 5.47817 2.41914 0.5
486 3.76832 11.1821 8.76654 0.5
487 4.46686 2.48089 8.0225 0.5
488 5.5219 5.17228 6.90735 0.5
489 3.5182 0.639955 3.16178 0.5
490 0.462808 12.5874 8.36527 0.5
491 2.55009 7.13301 11.6558 0.5
492 1.05131 5.4072 12.4832 0.5
493 12.0901 8.27626 10.7195 0.5
494 6.79245 4.66881 0.476392 0.5
495 6.35808 7.48428 0.573125 0.5
496 6.69114 0.295481 13.5331 0.5
497 4.53074 4.90709 6.40998 0.5
498 3.64704 11.8723 4.9879 0.5
499 6.65627 1.93643 11.3915 0.5
500 10.1592 9.6687 6.40746 0.5
501 5.02884 1.84928 4.05092 0.5
502 9.27234 10.3525 9.52372 0.5
503 7.08353 5.75019 12.5872 0.5
504 2.16029 1.52658 13.5692 0.5
505 4.07456 2.86233 12.2274 0.5
506 3.62783 10.9985 1.42845 0.5
507 7.57204 4.19547 4.33873 0.5
508 0.458923 1.48306 6.07167 0.5
509 5.26269 5.40457 5.88653 0.5
510 8.12224 10.9322 11.6443 0.5
511 6.71604 0.585138 6.34998 0.5
512 8.51975 10.9207 2.93603 0.5
513 5.07264 4.84456 2.99922 0.5
514 5.84944 8.26456 1.01331 0.5
515 2.1081 9.72459 2.55825 0.5
516 5.83352 8.8115 3.06908 0.5
517 1.00998 3.50105 4.36395 0.5
518 2.04851 6.8959 8.43812 0.5
519 5.07919 7.56711 10.1246 0.5
520 2.07302 0.562878 0.463679 0.5
521 11.3543 6.1527 4.67377 0.5
522 3.30446 8.58224 12.0334 0.5
523 13.0159 7.78736 3.23631 0.5
524 0.904054 0.681125 5.92876 0.5
525 11.3936 8.88629 0.322294 0.5
526 9.00068 12.3031 7.98922 0.5
527 7.3343 10.8137 1.64109 0.5
528 1.14771 0.25256 0.128897 0.5
529 0.090927 12.417 0.959586 0.5
530 11.6479 2.89429 9.72386 0.5
531 11.2452 8.0031 10.3612 0.5
532 6.68951 9.22601 4.44835 0.5
533 5.97226 7.71757 10.5485 0.5
534 2.25912 12.5206 10.8594 0.5
535 7.92617 12.7607 13.066 0.5
536 1.25589 12.1481 3.32279 0.5
537 3.01227 10.712 9.25679 0.5
538 7.73114 9.91088 1.45512 0.5
539 2.12799 7.96905 3.49082 0.5
540 0.958556 3.49665 8.24369 0.5
541 3.8219 11.7147 2.21535 0.5
542 7.75223 0.171004 13.2039 0.5
543 13.1541 6.02048 5.99711 0.5
544 8.30606 2.18726 8.6932 0.5
545 1.48302 7.4134 2.8687 0.5
546 0.682123 0.718075 12.8679 0.5
547 10.6897 5.38558 4.96227 0.5
548 11.8725 13.1355 7.19516 0.5
549 12.9125 10.4285 8.23616 0.5
550 12.6746 12.5482 3.21097 0.5
551 6.77559 1.45088 2.22508 0.5
552 3.95465 7.44244 0.50755 0.5
553 10.3871 6.17363 8.12633 0.5
554 3.63141 12.6304 6.46864 0.5
555 0.892071 4.28562 3.76079 0.5
556 7.02561 13.2591 12.8345 0.5
557 7.58657 11.5174 1.03772 0.5
558 4.74085 1.60363 9.46447 0.5
559 3.31667 10.3942 8.31441 0.5
560 6.53921 3.06604 11.4323 0.5
561 7.90503 9.01405 12.0491 0.5
562 12.5519 2.6609 13.3195 0.5
563 8.53839 6.35698 7.18346 0.5
564 6.51755 4.93043 13.0569 0.5
565 9.98842 4.70748 5.52906 0.5
566 7.27844 1.73541 10.6089 0.5
567 12.8933 4.00408 3.44312 0.5
568 7.5451 1.66172 11.6226 0.5
569 10.9659 6.81053 11.5587 0.5
570 13.063 7.95328 2.16406 0.5
571 2.53235 0.727492 3.46275 0.5
572 4.17682 3.3023 0.545031 0.5
573 0.681128 13.4004 6.47642 0.5
574 9.12848 8.35262 3.46496 0.5
575 8.84037 12.8732 2.76176 0.5
576 3.5584 11.2346 7.77131 0.5
577 4.20387 8.84111 2.70805 0.5
578 2.03517 11.6863 1.11 0.5
579 12.9417 10.0015 12.0049 0.5
580 2.56853 5.37423 7.77205 0.5
581 1.43926 12.5674 8.76371 0.5
582 3.01903 12.1729 11.3192 0.5
583 2.93145 11.044 13.4759 0.5
584 10.4204 6.4186 4.87573 0.5
585 12.7136 4.9243 6.86916 0.5
586 0.372131 5.72586 9.82363 0.5
587 13.0048 2.99831 1.27153 0.5
588 13.4607 12.4896 13.487 0.5
589 0.0270458 9.98209 8.67725 0.5
590 3.47629 12.1147 8.37657 0.5
591 3.12027 3.36816 12.4574 0.5
592 10.4937 11.1998 10.7033 0.5
593 6.50653 9.79768 7.17692 0.5
594 13.312 10.8726 6.42908 0.5
595 12.9833 10.0005 6.22858 0.5
596 9.31188 9.31791 2.13308 0.5
597 2.86435 9.78044 9.0648 0.5
598 8.06703 11.3463 5.64441 0.5
599 11.3429 10.7327 8.94385 0.5
600 12.0808 6.25632 12.8155 0.5
601 2.60713 5.94811 3.1456 0.5
602 0.0778168 6.40136 10.4321 0.5
603 2.68342 7.64315 10.7643 0.5
604 5.21044 1.13678 10.2991 0.5
605 7.1254 2.4888 12.0669 0.5
606 11.2527 8.92306 5.32815 0.5
607 8.54342 10.2036 8.80611 0.5
608 7.93293 13.4914 12.3724 0.5
609 1.56329 11.9836 0.18357 0.5
610 1.21394 8.74333 8.78886 0.5
611 0.279694 8.96244 8.54391 0.5
612 6.0971 13.2839 2.30105 0.5
613 3.66151 5.63444 4.91396 0.5
614 3.95717 0.0403711 10.5048 0.5
615 3.82236 10.2237 9.00572 0.5
616 13.162 6.25684 2.47501 0.5
617 6.75959 6.08124 2.77561 0.5
618 11.7717 7.03552 8.2956 0.5
619 13.0865 4.4553 12.5779 0.5
620 0.854838 10.6787 11.6947 0.5
621 2.33985 4.34251 4.70212 0.5
622 5.26688 8.40666 8.71977 0.5
623 13.0311 7.97169 4.13457 0.5
624 12.5781 5.41433 2.56192 0.5
625 1.91121 3.60065 10.6954 0.5
626 2.6123 3.91068 1.72523 0.5
627 9.58492 6.30555 0.175024 0.5
628 12.8428 4.54423 10.3145 0.5
629 5.4836 4.28912 3.80619 0.5
630 3.19997 3.31091 0.948596 0.5
631 9.3008 1.00776 13.537 0.5
632 6.29205 12.9239 13.4667 0.5
633 10.0418 0.770803 0.733981 0.5
634 10.1864 10.4386 10.0674 0.5
635 9.66081 1.83827 12.9458 0.5
636 9.99183 3.79529 12.3369 0.5
637 0.22783 9.99936 6.71815 0.5
638 5.66494 1.10259 4.17984 0.5
639 9.01024 7.01162 10.5691 0.5
640 2.4796 4.39722 7.77201 0.5
641 7.66207 7.15959 6.04554 0.5
642 11.2073 6.15143 0.609391 0.5
643 11.2575 1.0371 7.7697 0.5
644 7.2248 3.39783 10.6877 0.5
645 0.112885 11.481 5.72068 0.5
646 8.85645 8.70374 12.1635 0.5
647 8.53408 4.60108 12.1274 0.5
648 7.84442 10.034 11.9253 0.5
649 5.20579 7.83037 11.1782 0.5
650 2.85624 0.388333 7.08345 0.5
651 0.543934 5.72902 6.1575 0.5
652 5.21047 4.22799 7.23317 0.5
653 13.4503 5.57686 3.19543 0.5
654 4.37727 10.477 10.8904 0.5
655 11.8708 11.4119 9.52719 0.5
656 1.14715 11.258 0.779256 0.5
657 11.1279 0.316583 6.98719 0.5
658 9.59192 10.0629 5.46768 0.5
659 1.2583 9.76381 3.01284 0.5
660 0.667029 0.523562 9.07366 0.5
661 1.41639 7.7423 8.46621 0.5
662 3.57802 10.9321 5.44748 0.5
663 5.95124 12.8779 3.35502 0.5
664 4.98884 6.41374 5.70151 0.5
665 10.6314 10.8999 3.06615 0.5
666 4.99576 12.015 9.66424 0.5
667 10.5123 4.06497 7.87459 0.5
668 5.59628 3.33483 3.60501 0.5
669 8.13409 10.3546 2.25718 0.5
670 8.85135 13.2656 7.8505 0.5
671 6.78817 8.40578 0.736478 0.5
672 3.32596 2.75909 5.45255 0.5
673 5.19629 8.81336 0.308981 0.5
674 3.39953 7.7243 11.524 0.5
675 2.68395 3.5799 11.5705 0.5
676 1.98453 13.5521 2.86136 0.5
677 3.95125 9.5243 3.37553 0.5
678 12.7928 7.66537 10.9495 0.5
679 10.6772 12.2413 6.5731 0.5
680 4.67355 11.2854 1.89763 0.5
681 4.1277 1.01213 8.88861 0.5
682 2.12055 2.62034 10.3606 0.5
683 1.17976 5.94556 11.6119 0.5
684 11.8087 13.1653 3.5197 0.5
685 12.3588 12.4762 4.12181 0.5
686 10.5959 7.77905 11.1987 0.5
687 4.94088 9.42311 13.1162 0.5
688 0.99677 8.06474 5.5773 0.5
689 3.01518 2.96729 1.94649 0.5
690 4.48896 8.52126 6.76044 0.5
691 13.4106 10.9451 11.6972 0.5
692 4.60052 0.0468382 0.308259 0.5
693 11.384 6.0871 12.1584 0.5
694 5.61856 8.96792 9.56694 0.5
695 12.1706 8.12427 2.66719 0.5
696 10.4523 3.19727 7.48087 0.5
697 13.5104 9.65146 7.70827 0.5
698 6.25112 11.3896 6.64543 0.5
699 3.06731 8.15176 0.398531 0.5
700 12.361 8.50438 3.61157 0.5
701 9.10391 7.93027 12.6803 0.5
702 4.15221 1.50459 7.90809 0.5
703 1.94448 5.32378 13.1306 0.5
704 9.21422 2.72846 8.77298 0.5
705 10.7524 7.28684 8.23296 0.5
706 6.36031 10.8742 5.80135 0.5
707 3.76465 4.24907 10.0441 0.5
708 12.6804 2.09274 1.29383 0.5
709 9.80072 0.112674 0.0501861 0.5
710 7.16855 6.51967 3.5885 0.5
711 0.208435 13.4883 13.3489 0.5
712 12.4337 3.12028 9.2018 0.5
713 8.10073 10.0191 7.87999 0.5
714 12.7663 4.10362 7.41096 0.5
715 13.0133 8.69373 2.86616 0.5
716 1.60034 1.98058 10.9781 0.5
717 2.94306 7.14738 0.409472 0.5
718 12.0698 0.572642 7.55385 0.5
719 4.56687 10.9413 11.8047 0.5
720 12.495 11.6699 2.53265 0.5
721 11.1149 6.42309 8.77151 0.5
722 6.02715 0.0460929 12.8198 0.5
723 3.1662 11.8489 9.25587 0.5
724 9.33554 13.3315 9.63781 0.5
725 2.75084 1.98585 5.25868 0.5
726 7.48851 2.60349 9.1215 0.5
727 4.89794 2.79805 13.5587 0.5
728 12.4919 2.0708 5.11969 0.5
729 10.1406 4.84002 0.868682 0.5
730 7.98087 5.45036 7.21541 0.5
731 10.7139 0.313244 0.169148 0.5
732 1.7724 2.82833 8.24092 0.5
733 8.2794 11.1427 0.221958 0.5
734 10.4871 11.4079 6.0176 0.5
735 3.12881 5.61611 8.64792 0.5
736 4.28176 4.51488 11.6449 0.5
737 4.75851 3.82739 3.43924 0.5
738 1.76209 7.64946 11.2259 0.5
739 7.04351 0.354207 7.37031 0.5
740 12.2168 13.3316 8.13107 0.5
741 7.86376 4.56738 5.22923 0.5
742 5.2557 9.25181 1.27523 0.5
743 7.34795 8.033 5.67869 0.5
744 4.94062 3.12401 12.6354 0.5
745 6.65029 6.47683 11.9718 0.5
746 4.72674 8.24815 9.56376 0.5
747 13.1456 13.5648 11.7612 0.5
748 7.28745 9.49523 7.85664 0.5
749 6.78964 9.20794 3.37288 0.5
750 1.2244 1.20027 0.207208 0.5
751 0.259848 8.54647 12.8392 0.5
752 1.35527 1.59319 12.8527 0.5
753 6.90851 2.13908 1.39026 0.5
754 2.10989 12.2471 11.7976 0.5
755 6.83098 3.66911 0.606175 0.5
756 6.64074 7.69257 1.47629 0.5
757 11.9274 6.87755 11.8937 0.5
758 4.50997 12.1668 4.688 0.5
759 12.5495 8.7479 1.96818 0.5
760 7.33347 5.14372 4.58435 0.5
761 3.53428 11.5336 0.586463 0.5
762 13.1964 2.49686 0.496853 0.5
763 12.1352 0.505872 3.7912 0.5
764 9.10143 9.31231 3.17926 0.5
765 12.1679 2.7579 0.678445 0.5
766 7.84255 3.48332 5.03716 0.5
767 3.59425 6.67845 1.07618 0.5
768 12.7203 12.9164 11.1002 0.5
769 11.276 2.19359 6.14914 0.5
770 10.7957 7.9234 6.69095 0.5
771 7.91501 8.00665 6.5208 0.5
772 0.70482 1.75917 10.6862 0.5
773 8.9648 3.52676 8.08903 0.5
774 9.42182 0.0351376 2.84271 0.5
775 10.3745 -0.0268798 11.2572 0.5
776 3.02874 9.44036 6.38636 0.5
777 11.3183 12.5823 4.15869 0.5
778 11.758 12.0708 3.25492 0.5
779 8.27168 7.84973 5.64365 0.5
780 2.8008 11.3573 8.435 0.5
781 13.0145 1.37867 6.09079 0.5
782 11.0292 3.0976 4.25628 0.5
783 0.0931736 9.27754 11.9935 0.5
784 2.87146 2.87101 4.63017 0.5
785 10.4235 9.45434 5.42726 0.5
786 8.56097 4.07299 4.63536 0.5
787 6.30503 12.2971 2.61759 0.5
788 11.6758 7.58818 11.2209 0.5
789 9.55933 3.49846 2.25209 0.5
790 8.45293 0.274919 2.57464 0.5
791 5.16393 7.02167 11.7815 0.5
792 5.93546 2.65738 7.12687 0.5
793 7.43334 8.70528 4.06419 0.5
794 13.044 0.673936 3.30477 0.5
795 7.81505 8.11642 4.82411 0.5
796 4.79501 11.3264 8.9865 0.5
797 3.69545 3.52802 11.6035 0.5
798 2.72227 3.65812 4.0587 0.5
799 13.5895 0.822114 5.34676 0.5
800 0.488915 8.25157 0.287922 0.5
801 7.70125 5.75891 3.00418 0.5
802 4.82337 11.0899 12.8332 0.5
803 11.1832 10.8973 11.3318 0.5
804 13.556 5.67881 8.96066 0.5
805 8.83259 8.48984 2.49154 0.5
806 3.1159 7.29866 8.33373 0.5
807 3.3267 4.77218 8.05768 0.5
808 2.38827 8.9216 3.14765 0.5
809 9.09797 4.86338 11.4051 0.5
810 2.77449 13.0433 11.5556 0.5
811 10.2907 7.36575 3.40096 0.5
812 2.50403 8.10432 11.6669 0.5
813 8.09314 5.38707 12.6094 0.5
814 9.82833 0.580216 5.74046 0.5
815 11.5148 11.5272 8.4595 0.5
816 9.10842 7.2374 13.3883 0.5
817 11.6977 11.1528 3.16482 0.5
818 3.59406 10.5351 0.572382 0.5
819 6.25197 13.2412 6.34578 0.5
820 13.3817 12.5259 9.17515 0.5
821 10.9204 2.66925 5.24536 0.5
822 9.13615 1.27554 5.13563 0.5
823 9.93374 0.346668 10.2917 0.5
824 1.75878 8.74829 5.38816 0.5
825 8.52799 1.21668 2.28879 0.5
826 7.29235 13.2676 8.11212 0.5
827 10.9312 0.373739 1.06239 0.5
828 5.4606 3.93965 2.7642 0.5
829 5.086 2.0188 7.44643 0.5
830 5.17568 12.1802 8.73969 0.5
831 11.2767 13.5308 7.94836 0.5
832 0.59658 5.50421 10.8331 0.5
833 2.27604 11.4793 11.2763 0.5
834 8.93096 1.96332 0.0842077 0.5
835 0.872673 6.36628 12.5462 0.5
836 7.72976 9.45409 11.1006 0.5
837 7.21731 2.78006 0.630633 0.5
838 12.3136 13.012 11.8966 0.5
839 4.3327 5.11815 1.42838 0.5
840 7.25171 13.1001 0.215717 0.5
841 6.84375 10.6926 6.63436 0.5
842 12.5734 3.7573 10.8913 0.5
843 12.0675 3.11214 12.5387 0.5
844 4.79013 3.77727 13.3881 0.5
845 10.0151 5.73323 5.59737 0.5
846 5.85929 12.1038 10.1183 0.5
847 4.20308 7.64924 6.6017 0.5
848 5.1269 6.15153 12.4476 0.5
849 1.00478 12.3717 6.78634 0.5
850 10.5232 10.2672 12.2121 0.5
851 5.94137 10.4117 6.57409 0.5
852 7.24696 10.4489 7.53726 0.5
853 4.05008 7.60829 8.8456 0.5
854 9.87584 6.57013 3.9209 0.5
855 9.56924 10.9669 2.90275 0.5
856 2.19894 13.4495 3.87096 0.5
857 9.81581 5.11925 10.6501 0.5
858 7.41413 10.2611 8.59839 0.5
859 11.6451 5.38953 5.17674 0.5
860 10.8838 5.13932 5.92252 0.5
861 11.2908 13.0221 6.33506 0.5
862 11.1383 6.99705 10.5505 0.5
863 8.18371 8.74436 5.8548 0.5
864 8.2239 6.85115 7.90545 0.5
865 12.1522 4.14763 12.6284 0.5
866 5.71688 12.5387 1.78059 0.5
867 12.6766 4.32696 13.4961 0.5
868 8.93567 9.35796 9.18056 0.5
869 4.25082 13.3985 13.1044 0.5
870 3.50651 8.54144 6.54526 0.5
871 12.7756 9.00994 4.48155 0.5
872 1.2448 5.81187 13.3394 0.5
873 12.9186 0.701093 2.26772 0.5
874 7.37738 4.80548 12.4504 0.5
875 7.11807 11.7106 4.29943 0.5
876 2.12006 5.86137 8.58991 0.5
877 10.6653 8.15409 7.66558 0.5
878 2.61539 11.8569 0.332669 0.5
879 1.82433 3.61078 7.6766 0.5
880 12.185 1.05958 2.93621 0.5
881 10.9148 10.3384 13.1535 0.5
882 2.14234 9.87593 3.47586 0.5
883 11.1958 12.2281 0.177717 0.5
884 12.8761 3.41702 0.383879 0.5
885 7.95863 11.0648 10.5871 0.5
886 0.275296 2.93065 7.74272 0.5
887 0.336329 13.564 12.3453 0.5
888 4.77284 4.57109 2.12325 0.5
889 11.2783 4.66167 8.43372 0.5
890 11.5297 8.57311 6.21753 0.5
891 1.55737 6.43966 3.22308 0.5
892 9.4351 0.738542 9.55707 0.5
893 9.5545 4.48416 8.22636 0.5
894 7.3463 7.59387 0.79341 0.5
895 11.9389 8.80239 1.14853 0.5
896 6.91893 12.2013 0.588123 0.5
897 6.82138 13.0758 2.92909 0.5
898 5.28753 12.6304 2.67253 0.5
899 10.4665 5.00059 8.02113 0.5
900 11.8181 10.3976 9.75847 0.5
901 13.2347 5.48659 10.5226 0.5
902 11.2398 6.48354 7.72024 0.5
903 9.87943 8.824 2.76993 0.5
904 8.46631 3.84319 5.65759 0.5
905 13.528 6.60535 6.66605 0.5
906 12.6192 5.048 3.51875 0.5
907 7.01195 4.24936 10.3012 0.5
908 8.95401 0.340855 5.14013 0.5
909 10.2192 3.49154 3.01703 0.5
910 7.63417 2.63835 8.03669 0.5
911 5.87985 6.74444 12.4203 0.5
912 8.6343 9.48347 11.5941 0.5
913 11.1924 5.98104 13.1779 0.5
914 5.15595 13.1458 13.247 0.5
915 7.90882 2.46964 5.44038 0.5
916 10.7908 8.93481 6.96269 0.5
917 11.3673 13.5111 11.7715 0.5
918 7.49987 6.3434 8.50465 0.5
919 13.0453 11.9355 1.62537 0.5
920 0.773731 11.7317 10.2722 0.5
921 5.44367 6.10851 7.33054 0.5
922 12.3054 2.99351 11.4041 0.5
923 0.894604 2.39653 8.44633 0.5
924 11.544 11.2104 10.4383 0.5
925 10.9867 3.96738 2.60414 0.5
926 4.56098 10.3613 13.4577 0.5
927 1.93535 7.80758 5.6703 0.5
928 0.18528 6.54814 5.56191 0.5
929 1.19994 2.76323 10.5043 0.5
930 9.95163 9.67857 9.41086 0.5
931 5.55459 9.60664 12.4347 0.5
932 4.3707 8.58119 3.65492 0.5