ITEM: TIMESTEP
710000
ITEM: NUMBER OF ATOMS
1000
ITEM: BOX BOUNDS xy xz yz pp pp pp
0.0000000000000000e+00 1.3572088000000001e+01 0.0000000000000000e+00
0.0000000000000000e+00 1.3572088000000001e+01 0.0000000000000000e+00
0.0000000000000000e+00 1.3572088000000001e+01 0.0000000000000000e+00
ITEM: ATOMS id x y z radius
1 4.06086 3.29296 12.014 0.5
2 4.81879 11.863 4.71293 0.5
3 8.90612 10.1197 2.83505 0.5
4 10.0565 5.80185 1.16382 0.5
5 9.04194 8.05778 10.3235 0.5
6 3.19855 12.7784 5.21447 0.5
7 3.34923 7.41192 1.01835 0.5
8 13.1411 11.4458 2.40266 0.5
9 2.10057 8.39775 6.77627 0.5
10 2.83961 13.5344 11.6447 0.5
11 0.417802 9.24322 9.43728 0.5
12 10.3135 5.42629 0.223569 0.5
13 7.66083 11.5732 4.18889 0.5
14 10.7801 2.34134 4.29276 0.5
15 5.47497 0.537698 5.34222 0.5
16 7.83644 6.76988 9.4629 0.5
17 6.74879 11.916 10.6231 0.5
18 3.091 8.44081 6.36543 0.5
19 10.0611 5.09162 1.82323 0.5
20 10.551 10.8398 3.16424 0.5
21 2.00162 4.85951 0.969499 0.5
22 1.31808 6.06939 12.1867 0.5
23 1.54218 1.2662 10.1666 0.5
24 7.57014 7.31722 1.6205 0.5
25 0.807647 6.16626 3.23799 0.5
26 10.4823 10.4411 6.0469 0.5
27 11.5856 6.82476 12.3733 0.5
28 4.62346 11.8969 12.1704 0.5
29 0.377973 6.13237 1.53374 0.5
30 8.61766 10.9415 1.46049 0.5
31 0.449914 0.320736 8.13795 0.5
32 9.48838 3.04132 12.7673 0.5
33 13.5273 6.71058 9.90813 0.5
34 3.93557 8.7385 5.69012 0.5
35 11.5544 6.52209 13.4264 0.5
36 8.83782 2.3152 4.98441 0.5
37 0.216538 1.21704 2.47675 0.5
38 2.26323 1.772 2.36498 0.5
39 10.3217 4.20974 1.39277 0.5
40 5.95523 6.00922 6.37709 0.5
41 7.22831 11.0218 4.93316 0.5
42 6.73874 5.69741 3.2197 0.5
43 5.76329 4.99505 10.5224 0.5
44 4.60073 11.258 8.7414 0.5
45 7.56561 6.30831 1.43501 0.5
46 10.5023 10.7746 13.3029 0.5
47 3.10344 9.42008 5.88873 0.5
48 8.04144 10.5535 0.695865 0.5
49 5.8533 11.6713 10.2174 0.5
50 5.75855 0.366639 10.5964 0.5
51 13.4727 9.51508 7.46373 0.5
52 6.42312 10.6695 7.30618 0.5
53 9.74389 3.3192 1.546 0.5
54 11.5775 11.9081 4.17688 0.5
55 0.559168 0.540445 4.70745 0.5
56 13.3288 3.95452 3.508 0.5
57 13.5791 11.1157 11.9308 0.5
58 5.58986 8.64398 10.4206 0.5
59 1.5541 10.9669 11.3761 0.5
60 7.5791 5.10024 9.15128 0.5
61 3.67782 0.552634 11.3089 0.5
62 1.35579 7.97577 0.989767 0.5
63 11.541 8.70707 1.66332 0.5
64 12.0244 2.02522 9.62744 0.5
65 0.544184 1.62644 5.97491 0.5
66 12.4917 1.94729 1.99854 0.5
67 8.23059 2.70285 8.48784 0.5
68 3.0744 1.51289 3.03184 0.5
69 11.4971 2.37246 10.4656 0.5
70 12.2166 3.57472 9.59557 0.5
71 3.27214 6.12407 7.81819 0.5
72 7.1572 1.83794 11.073 0.5
73 8.51116 6.9544 8.79575 0.5
74 6.33975 4.4953 9.89808 0.5
75 8.94942 0.420544 10.3264 0.5
76 12.1991 3.62974 13.0618 0.5
77 10.1749 2.58363 3.37079 0.5
78 8.78136 3.29273 5.53358 0.5
79 3.79334 12.5238 5.97889 0.5
80 5.24264 2.06109 8.49418 0.5
81 1.05343 3.46125 11.4258 0.5
82 2.18353 8.6068 0.792944 0.5
83 2.86484 0.608655 6.20225 0.5
84 0.526937 8.44893 8.90961 0.5
85 13.4682 4.34459 6.56949 0.5
86 2.95998 0.841637 12.9499 0.5
87 4.60059 5.58143 5.48078 0.5
88 7.01303 6.44573 3.81566 0.5
89 11.7572 12.7002 7.41629 0.5
90 4.14977 6.35951 4.05369 0.5
91 11.9256 7.72938 11.8187 0.5
92 13.3962 1.76764 1.73888 0.5
93 13.547 0.773629 12.8628 0.5
94 4.5973 10.3923 12.853 0.5
95 11.6066 1.65013 7.96945 0.5
96 11.3235 3.07867 4.51596 0.5
97 11.752 3.09728 5.45282 0.5
98 10.993 9.87515 0.0386554 0.5
99 6.21146 8.47244 8.8181 0.5
100 0.572998 7.41755 6.35572 0.5
101 4.6422 11.2678 2.85074 0.5
102 8.48803 7.43381 9.84912 0.5
103 4.74354 4.79679 10.6527 0.5
104 7.44582 11.3343 5.89414 0.5
105 11.468 12.6077 6.4388 0.5
106 5.54618 1.37028 10.991 0.5
107 13.008 5.93448 6.88919 0.5
108 13.2997 10.2992 5.5442 0.5
109 0.554899 12.328 8.95818 0.5
110 8.09028 9.17035 8.52862 0.5
111 8.0209 13.3736 3.3786 0.5
112 6.45272 0.857379 5.62076 0.5
113 0.504696 13.548 6.22382 0.5
114 7.74296 6.5834 2.32069 0.5
115 5.88085 6.62678 11.9646 0.5
116 13.5505 5.37605 2.09869 0.5
117 13.4674 0.864162 6.13102 0.5
118 11.2931 9.73604 5.75863 0.5
119 12.2368 8.08029 1.3618 0.5
120 5.3869 9.0657 3.70557 0.5
121 12.0849 13.4024 11.0517 0.5
122 2.11943 3.78585 2.48054 0.5
123 11.4752 2.30364 8.74591 0.5
124 10.4967 11.5456 11.5035 0.5
125 5.10902 11.4244 3.8082 0.5
126 11.2027 11.4886 13.1308 0.5
127 8.17299 9.74245 10.8668 0.5
128 5.66641 2.95065 8.36991 0.5
129 2.44131 5.83276 12.1668 0.5
130 0.289036 11.8787 11.2626 0.5
131 7.53514 2.65507 2.24695 0.5
132 5.35391 11.2792 2.19668 0.5
133 0.546353 10.8961 11.0897 0.5
134 11.0822 11.8038 3.32928 0.5
135 12.1102 2.22106 5.83172 0.5
136 7.75251 4.85587 4.73301 0.5
137 2.74997 12.2615 6.05503 0.5
138 7.65203 12.05 12.9942 0.5
139 4.85442 13.2341 13.5347 0.5
140 5.81641 2.99321 4.02962 0.5
141 1.3194 3.41406 4.52555 0.5
142 10.1511 3.04839 11.9933 0.5
143 0.934193 13.0798 0.707047 0.5
144 8.54293 12.823 8.96689 0.5
145 6.83252 6.69446 1.88357 0.5
146 9.98689 9.05152 8.37075 0.5
147 4.77071 6.16015 1.5587 0.5
148 12.2588 0.585121 11.6876 0.5
149 8.0937 6.7465 10.45 0.5
150 12.5343 12.3058 4.03448 0.5
151 6.79379 11.7721 9.68697 0.5
152 4.36153 3.88433 11.1339 0.5
153 12.0699 7.7066 7.68653 0.5
154 2.20863 2.79222 2.46465 0.5
155 3.16213 8.19426 10.7543 0.5
156 8.18685 12.1678 0.24855 0.5
157 1.40046 0.412234 3.25928 0.5
158 1.47808 10.1789 8.44009 0.5
159 3.62059 2.00149 9.79271 0.5
160 9.65198 0.393766 11.1136 0.5
161 12.4486 2.82753 10.142 0.5
162 7.64034 2.00534 8.12586 0.5
163 11.8644 9.85054 0.553454 0.5
164 9.84427 3.62409 11.2977 0.5
165 7.17351 11.1575 11.1888 0.5
166 10.8817 13.0188 7.06739 0.5
167 11.2843 8.31169 7.77068 0.5
168 1.08653 3.392 7.3956 0.5
169 10.4245 11.3552 12.459 0.5
170 4.95569 6.20981 0.59489 0.5
171 10.7901 5.20471 1.10802 0.5
172 12.5138 8.37511 10.3466 0.5
173 9.13657 10.2044 1.85927 0.5
174 5.27142 0.683829 1.20183 0.5
175 2.43023 6.11775 4.02492 0.5
176 3.81107 6.1476 3.11398 0.5
177 8.0493 5.30883 6.24823 0.5
178 4.93295 1.19391 4.70666 0.5
179 12.9883 6.07907 1.748 0.5
180 9.11561 3.04164 11.7835 0.5
181 10.8979 11.2024 9.50727 0.5
182 2.92985 11.7678 1.60033 0.5
183 8.56744 7.29623 6.17202 0.5
184 10.5091 5.96904 8.8913 0.5
185 8.67983 0.220389 11.3754 0.5
186 4.47689 7.97735 2.83319 0.5
187 5.28548 0.532251 0.187889 0.5
188 4.9693 5.77328 6.46565 0.5
189 0.603065 11.1221 6.69091 0.5
190 8.59836 12.9225 2.64548 0.5
191 9.54664 7.16457 3.75089 0.5
192 9.78516 1.17496 0.135414 0.5
193 11.0002 2.0516 9.53434 0.5
194 9.13447 13.1518 10.7619 0.5
195 0.0536006 9.34454 12.9621 0.5
196 8.72084 1.46928 4.31709 0.5
197 2.55431 6.46022 8.49216 0.5
198 6.25484 5.93578 12.6513 0.5
199 12.0633 0.764911 8.25497 0.5
200 6.97157 6.90966 0.858309 0.5
201 13.1219 4.13708 7.48805 0.5
202 6.45655 12.6463 8.07412 0.5
203 1.47027 4.19704 1.61282 0.5
204 3.39994 8.06735 8.52528 0.5
205 11.9729 0.35398 4.15616 0.5
206 0.613097 1.37185 9.81753 0.5
207 4.09168 12.0472 9.11065 0.5
208 8.57045 4.23659 6.04964 0.5
209 5.44805 1.24082 3.77829 0.5
210 4.35804 6.4549 5.12988 0.5
211 4.12565 4.96372 9.88741 0.5
212 3.34269 5.73349 3.87579 0.5
213 3.35277 1.53532 5.80476 0.5
214 9.78664 4.60321 11.6926 0.5
215 7.94849 6.95506 0.772764 0.5
216 6.42417 8.78111 0.0325116 0.5
217 4.02664 11.2987 4.81338 0.5
218 6.54582 7.98956 4.49751 0.5
219 8.38865 0.637316 3.73876 0.5
220 6.96471 1.87193 10.0714 0.5
221 3.58368 3.22682 5.7693 0.5
222 6.55866 11.6264 5.37668 0.5
223 4.53926 9.01764 3.1299 0.5
224 12.5101 9.54813 3.30313 0.5
225 8.08033 10.7543 11.1219 0.5
226 10.6025 6.14537 13.2241 0.5
227 0.652855 7.31959 10.2499 0.5
228 4.32836 11.671 5.69029 0.5
229 6.07108 3.95529 7.04043 0.5
230 5.98611 9.41438 8.70677 0.5
231 8.20849 5.92624 9.00333 0.5
232 8.08063 4.33789 12.6885 0.5
233 1.11242 0.468193 9.68347 0.5
234 11.3335 2.30316 5.14483 0.5
235 1.54022 10.5531 3.28757 0.5
236 10.8891 6.23936 0.676458 0.5
237 5.55221 7.6181 6.15588 0.5
238 0.842773 12.6376 6.14456 0.5
239 10.2488 7.90815 3.61442 0.5
240 0.898799 4.94355 13.2549 0.5
241 4.9588 5.33183 1.11369 0.5
242 2.75864 0.884153 2.35516 0.5
243 2.70668 9.57389 3.83108 0.5
244 3.43598 11.591 6.36871 0.5
245 1.03163 11.5558 11.8599 0.5
246 9.65209 9.99788 8.35344 0.5
247 2.95976 0.555935 10.6703 0.5
248 6.67834 2.51186 2.59985 0.5
249 10.1253 1.54868 12.7664 0.5
250 10.385 1.98558 0.107177 0.5
251 3.869 10.4529 12.0413 0.5
252 8.68764 8.30734 12.9049 0.5
253 2.5092 7.73378 1.16615 0.5
254 10.814 2.62367 2.55169 0.5
255 8.67074 9.35518 2.17465 0.5
256 1.79344 13.1133 3.42845 0.5
257 0.569323 4.30182 7.41235 0.5
258 13.4295 6.78604 5.08276 0.5
259 4.9934 5.44393 9.95933 0.5
260 6.59672 10.9703 10.3778 0.5
261 11.1331 3.4449 6.16755 0.5
262 7.47461 11.9205 5.10893 0.5
263 1.94258 4.23687 8.5862 0.5
264 10.4473 10.532 8.7923 0.5
265 1.64119 4.42691 4.50912 0.5
266 3.02957 13.2389 6.09049 0.5
267 4.82834 7.60301 9.46564 0.5
268 6.89902 2.14075 1.62352 0.5
269 9.11168 13.5638 8.76339 0.5
270 6.6158 10.0731 8.116 0.5
271 10.9753 12.1008 7.06639 0.5
272 6.08031 9.34347 0.867061 0.5
273 8.23113 5.04605 3.37553 0.5
274 10.6434 5.46939 9.72891 0.5
275 2.5174 10.9131 1.10227 0.5
276 5.16241 3.39974 0.107372 0.5
277 7.38376 4.91438 13.2474 0.5
278 11.3632 10.7811 0.17102 0.5
279 9.80188 11.8729 5.7319 0.5
280 4.67528 11.9802 2.26923 0.5
281 6.20565 2.13138 10.7593 0.5
282 0.141072 11.8337 1.576 0.5
283 5.64623 4.53349 2.30638 0.5
284 1.73099 11.1766 0.61712 0.5
285 4.01407 9.79117 5.92847 0.5
286 2.49068 1.45777 12.4184 0.5
287 7.81873 7.35399 6.86509 0.5
288 5.84042 13.371 6.68056 0.5
289 2.42682 10.493 3.38127 0.5
290 13.569 12.7998 5.76717 0.5
291 6.07978 13.4993 5.74025 0.5
292 4.61613 3.37268 12.7989 0.5
293 10.7301 5.62963 4.04849 0.5
294 3.25003 10.169 6.48469 0.5
295 2.64561 1.57805 6.56958 0.5
296 13.4837 5.13706 7.14232 0.5
297 10.5894 10.6094 10.8896 0.5
298 8.90304 4.68557 12.219 0.5
299 1.93867 0.903525 13.0174 0.5
300 9.39128 4.27244 1.62383 0.5
301 6.2979 7.40458 11.6297 0.5
302 2.86987 8.93628 3.07317 0.5
303 12.0104 9.27671 2.51882 0.5
304 0.510541 7.59568 5.3085 0.5
305 7.97823 12.6274 8.1972 0.5
306 11.4205 8.2907 0.721775 0.5
307 2.28364 6.89634 3.42583 0.5
308 0.936887 9.94608 12.9 0.5
309 13.0604 0.0723614 13.349 0.5
310 8.50864 13.3089 4.26397 0.5
311 13.5279 6.79512 6.72762 0.5
312 7.54478 11.3068 10.332 0.5
313 0.878028 10.2751 3.93158 0.5
314 5.93412 12.1009 9.29939 0.5
315 12.6891 5.02689 1.87192 0.5
316 8.42826 6.33471 7.94077 0.5
317 13.1812 8.83438 3.6097 0.5
318 0.32574 5.84895 6.50407 0.5
319 10.7422 11.4349 0.493611 0.5
320 5.41585 3.31844 7.46749 0.5
321 2.70616 13.1099 3.21805 0.5
322 10.4883 0.321258 1.37351 0.5
323 3.25938 1.61537 2.0446 0.5
324 10.4473 3.44563 3.02627 0.5
325 1.59049 5.48227 0.256145 0.5
326 9.86253 13.3171 0.827163 0.5
327 8.97021 2.91829 7.83581 0.5
328 12.4433 6.84172 13.0298 0.5
329 8.73671 2.53653 9.38307 0.5
330 8.07926 1.59762 5.25106 0.5
331 4.69581 1.81719 3.85444 0.5
332 12.2835 1.76915 8.68494 0.5
333 13.2322 1.89701 2.74123 0.5
334 4.30904 5.26567 1.80904 0.5
335 9.17957 0.497918 4.34238 0.5
336 4.49775 2.00956 9.19817 0.5
337 11.6235 0.775649 12.4478 0.5
338 7.83185 5.88469 9.91053 0.5
339 9.98256 4.07653 2.32789 0.5
340 12.0183 3.88659 11.3826 0.5
341 8.44955 0.258687 9.41279 0.5
342 6.54173 0.50333 6.59962 0.5
343 7.21891 6.0077 9.18249 0.5
344 5.31901 6.68195 6.5139 0.5
345 8.81976 8.24237 5.73079 0.5
346 1.39746 7.17874 5.80496 0.5
347 13.0026 12.2478 0.811919 0.5
348 1.07956 4.66291 0.660684 0.5
349 8.03182 6.39175 6.4008 0.5
350 8.29591 7.66519 10.9093 0.5
351 2.97014 9.17312 11.0173 0.5
352 8.40856 12.1953 7.38322 0.5
353 8.40517 7.76906 0.279755 0.5
354 2.6444 3.06066 5.64983 0.5
355 1.81889 6.06149 3.11655 0.5
356 11.0532 0.208136 4.31715 0.5
357 6.9207 10.9045 3.93861 0.5
358 3.32327 1.021 9.75667 0.5
359 7.00791 9.24773 8.73964 0.5
360 12.7294 3.69673 6.82552 0.5
361 3.53451 1.17708 6.70411 0.5
362 1.36095 1.24912 9.19372 0.5
363 10.1493 12.3108 0.634208 0.5
364 3.33956 6.37407 0.641387 0.5
365 2.49497 6.99887 0.393989 0.5
366 6.38194 9.05083 7.93501 0.5
367 10.1711 11.8078 13.3036 0.5
368 5.6795 5.23567 9.41849 0.5
369 2.08678 3.82766 5.12527 0.5
370 0.451411 10.3112 6.19666 0.5
371 8.99975 13.542 3.45534 0.5
372 13.4999 4.78522 3.88334 0.5
373 4.08699 3.62504 0.0634687 0.5
374 0.706379 9.36698 0.185809 0.5
375 0.535881 10.1427 8.85543 0.5
376 1.75778 10.9405 4.15735 0.5
377 7.47765 5.49465 3.97036 0.5
378 6.01859 9.64323 13.4455 0.5
379 4.90399 4.5089 1.73015 0.5
380 7.66057 3.98369 0.0519919 0.5
381 9.98057 3.91066 8.65461 0.5
382 9.87046 3.08816 8.11098 0.5
383 1.82062 4.67113 13.4886 0.5
384 5.47815 10.3425 12.3428 0.5
385 12.8926 11.5014 1.3119 0.5
386 13.2054 4.0141 4.38761 0.5
387 2.82222 6.63878 11.5769 0.5
388 1.26308 2.17519 9.76328 0.5
389 3.84221 9.48146 11.5291 0.5
390 5.20198 4.41363 9.8228 0.5
391 7.84355 0.846324 2.03325 0.5
392 12.9555 4.74809 2.88424 0.5
393 2.92547 4.48382 8.48277 0.5
394 8.97537 9.2734 8.18275 0.5
395 1.33809 0.280427 8.62317 0.5
396 0.53817 2.22927 2.23806 0.5
397 7.82393 1.81326 1.71953 0.5
398 9.16812 11.9743 2.8044 0.5
399 0.642589 4.10809 4.24351 0.5
400 7.16755 8.88972 4.68724 0.5
401 10.3656 2.52087 12.843 0.5
402 4.85593 7.19663 5.60602 0.5
403 6.25757 0.0268697 8.1273 0.5
404 11.3632 11.4311 12.1433 0.5
405 12.1805 5.83471 13.301 0.5
406 6.8063 2.71132 0.803387 0.5
407 1.92068 11.4274 3.2827 0.5
408 3.00888 4.17104 5.67247 0.5
409 3.73537 4.68984 10.7353 0.5
410 11.1486 2.89304 3.47087 0.5
411 5.20663 5.32465 2.088 0.5
412 5.44723 13.3956 0.817868 0.5
413 2.3151 5.76029 7.64249 0.5
414 3.49593 8.49129 11.5828 0.5
415 8.25746 10.0694 11.8532 0.5
416 9.24925 11.0458 5.31415 0.5
417 0.636027 13.34 9.01508 0.5
418 9.85655 0.91344 10.3172 0.5
419 2.31438 13.3524 10.8018 0.5
420 3.58117 0.115166 6.8506 0.5
421 12.9221 6.13446 9.4003 0.5
422 7.67771 4.50312 5.60092 0.5
423 12.2482 0.605268 3.10328 0.5
424 3.00364 3.54711 4.90888 0.5
425 9.20726 7.81674 11.255 0.5
426 0.0693151 12.939 8.27096 0.5
427 7.64763 2.83018 1.34973 0.5
428 1.40384 8.75159 9.42861 0.5
429 11.3586 5.98561 8.37199 0.5
430 9.24291 13.0655 11.7318 0.5
431 2.18591 4.94257 8.19452 0.5
432 13.1948 2.7614 1.99527 0.5
433 7.81628 11.199 13.4893 0.5
434 0.133428 2.97274 13.1089 0.5
435 11.19 9.25022 0.899184 0.5
436 7.15096 5.12267 9.98053 0.5
437 4.69009 9.17078 6.31319 0.5
438 5.92314 2.40429 7.59143 0.5
439 11.3091 10.7717 10.2294 0.5
440 9.60655 10.9758 6.2366 0.5
441 5.7245 0.76312 6.28345 0.5
442 1.53833 7.45776 6.73244 0.5
443 1.07733 12.3936 1.47869 0.5
444 9.20105 9.12343 13.1096 0.5
445 4.83345 8.20429 3.69374 0.5
446 3.37806 6.44184 4.64542 0.5
447 2.62725 9.25907 6.72189 0.5
448 5.19249 9.70633 0.417672 0.5
449 2.75221 12.5141 11.2486 0.5
450 2.7895 2.41636 1.63998 0.5
451 7.31474 3.68882 0.88082 0.5
452 2.96234 7.97966 0.338954 0.5
453 4.69663 8.72007 2.15853 0.5
454 3.00039 0.508214 3.15516 0.5
455 1.2045 2.42723 11.3551 0.5
456 8.16599 -0.0126053 8.394 0.5
457 12.2694 11.4308 8.59392 0.5
458 3.9159 0.411996 10.3222 0.5
459 11.9929 3.03893 6.50013 0.5
460 12.427 6.38911 0.394223 0.5
461 12.0294 8.52899 11.2741 0.5
462 9.81817 4.75665 7.99808 0.5
463 5.1563 2.60792 6.81938 0.5
464 0.492184 8.25368 9.88837 0.5
465 4.73177 10.9318 11.9283 0.5
466 2.64134 13.5238 6.89086 0.5
467 2.0213 7.79736 0.337447 0.5
468 1.13806 7.74087 9.35859 0.5
469 1.9358 3.07933 11.1069 0.5
470 2.01972 6.00324 11.2687 0.5
471 3.66422 1.38378 10.6673 0.5
472 11.0798 6.48352 3.9156 0.5
473 11.6639 8.4945 6.93464 0.5
474 3.27306 7.11608 8.14609 0.5
475 5.32888 3.59183 6.44396 0.5
476 6.04012 0.661139 11.4808 0.5
477 5.74956 8.00281 9.71115 0.5
478 3.36161 12.3167 0.802134 0.5
479 9.26184 7.57379 13.3194 0.5
480 3.92166 10.3877 9.00627 0.5
481 1.94601 3.87506 0.786574 0.5
482 10.8331 13.1059 0.80184 0.5
483 9.08082 11.0419 2.32866 0.5
484 10.4496 7.12054 4.24066 0.5
485 5.41071 4.3227 3.25962 0.5
486 3.54015 11.3172 8.80436 0.5
487 4.63331 2.84031 8.54735 0.5
488 5.57783 5.25067 6.94869 0.5
489 3.70455 0.831732 2.46074 0.5
490 13.3031 12.9015 9.24081 0.5
491 2.21298 7.45657 11.916 0.5
492 0.802291 5.34804 12.2932 0.5
493 12.1151 9.28743 10.511 0.5
494 6.80338 4.37136 0.239143 0.5
495 6.50297 7.78228 0.323228 0.5
496 6.74966 0.00238019 13.2033 0.5
497 5.76444 4.56078 6.32942 0.5
498 3.40285 11.7836 5.39065 0.5
499 6.32224 1.55509 11.592 0.5
500 10.3201 9.4198 5.64256 0.5
501 5.35575 0.426124 4.37738 0.5
502 9.58584 10.4537 9.23005 0.5
503 7.23444 5.7484 12.7695 0.5
504 2.52897 1.61177 13.4666 0.5
505 3.71319 3.89338 12.6715 0.5
506 3.46963 10.8596 1.61838 0.5
507 8.32623 4.19038 4.0608 0.5
508 13.5255 1.22268 5.28868 0.5
509 5.48347 5.29966 5.91194 0.5
510 7.358 10.112 11.4254 0.5
511 5.82862 0.472089 7.38778 0.5
512 9.97017 11.4192 2.5698 0.5
513 4.40427 3.85808 3.26671 0.5
514 5.88906 8.22896 0.955199 0.5
515 2.08515 9.70634 3.00119 0.5
516 5.4031 8.48507 2.85934 0.5
517 0.288868 3.41123 4.92015 0.5
518 3.49697 6.35555 8.73211 0.5
519 5.09509 7.7639 10.4669 0.5
520 2.39631 0.626554 0.215261 0.5
521 11.387 5.98093 4.80847 0.5
522 2.88995 9.20379 12.0091 0.5
523 12.8849 7.93997 3.07365 0.5
524 13.5389 0.170753 5.38166 0.5
525 11.5761 8.99103 0.0358994 0.5
526 8.76621 12.016 8.35309 0.5
527 7.60603 10.6868 1.58575 0.5
528 1.36392 0.300111 0.0533143 0.5
529 0.102117 12.7778 1.36107 0.5
530 11.5225 2.85913 9.58231 0.5
531 11.4917 8.44383 10.3834 0.5
532 6.28341 9.0329 4.24075 0.5
533 6.09503 7.79771 10.6674 0.5
534 1.91268 12.9522 11.5865 0.5
535 8.30114 12.8744 13.2078 0.5
536 1.50753 12.1857 3.80087 0.5
537 2.50885 11.401 8.88486 0.5
538 8.33381 9.86365 1.41117 0.5
539 1.50257 6.65573 3.91645 0.5
540 0.302 3.40043 7.93851 0.5
541 3.75122 11.552 2.30493 0.5
542 7.85951 0.103716 13.1313 0.5
543 13.1674 6.21109 5.9075 0.5
544 9.21916 2.306 8.53457 0.5
545 1.44606 6.99446 2.97424 0.5
546 0.885929 1.12032 13.3064 0.5
547 10.5588 5.39363 5.06568 0.5
548 11.6413 13.5714 6.75085 0.5
549 11.9678 10.4088 8.68313 0.5
550 12.5086 13.2234 3.52206 0.5
551 7.05916 1.18781 1.49255 0.5
552 4.17059 6.79108 0.876845 0.5
553 10.6067 6.38122 7.89055 0.5
554 3.25018 12.6968 6.84056 0.5
555 0.351674 3.22438 3.98846 0.5
556 7.41079 12.9992 12.6266 0.5
557 7.22794 11.035 0.64864 0.5
558 4.24129 1.21942 9.76376 0.5
559 2.98732 10.5808 8.45244 0.5
560 6.66632 2.47973 11.6183 0.5
561 8.52886 8.33308 11.8154 0.5
562 12.8126 2.84979 12.8851 0.5
563 8.66931 6.77605 7.05788 0.5
564 6.50426 5.0009 12.9482 0.5
565 8.48308 4.96114 5.50024 0.5
566 6.5296 1.20784 10.7004 0.5
567 12.4822 4.38485 3.77362 0.5
568 7.11194 0.877691 11.4491 0.5
569 11.2814 7.08938 11.3303 0.5
570 13.1062 8.09 2.01951 0.5
571 2.12024 1.13887 3.06083 0.5
572 5.3673 2.68024 12.984 0.5
573 0.829217 13.2079 5.32562 0.5
574 9.24033 8.087 3.43246 0.5
575 7.68548 13.5075 2.45956 0.5
576 3.89449 10.7991 8.07934 0.5
577 3.80533 8.75306 2.53694 0.5
578 1.87146 11.7605 1.47638 0.5
579 0.431357 9.50451 12.1011 0.5
580 2.1702 4.94112 7.19658 0.5
581 1.02329 12.9509 8.19985 0.5
582 1.82392 12.522 10.6485 0.5
583 2.62706 10.9629 0.147315 0.5
584 10.4056 6.33303 4.76703 0.5
585 13.2262 5.23157 6.08445 0.5
586 0.409773 5.85813 9.51227 0.5
587 12.9139 3.18382 1.03901 0.5
588 0.0709999 12.9538 0.305354 0.5
589 0.0807707 9.24402 8.45255 0.5
590 4.01802 11.8582 8.09321 0.5
591 4.54956 4.099 12.1217 0.5
592 10.5848 11.4499 10.4685 0.5
593 6.75229 9.7886 7.15961 0.5
594 13.298 10.9255 6.34156 0.5
595 13.0972 9.95634 6.44708 0.5
596 9.62208 9.43175 2.50918 0.5
597 2.1601 10.5442 9.23333 0.5
598 8.2039 11.1619 4.99886 0.5
599 11.2622 11.0714 8.56464 0.5
600 12.3177 6.06372 12.4009 0.5
601 2.79102 5.99111 3.12515 0.5
602 0.696894 6.14986 10.4057 0.5
603 3.15585 7.60248 11.6552 0.5
604 4.52286 1.00002 10.7945 0.5
605 7.22132 1.7256 12.1314 0.5
606 12.0285 9.28586 5.16207 0.5
607 8.6692 10.0756 8.71445 0.5
608 8.45434 13.3517 12.3198 0.5
609 1.49861 12.1305 0.65049 0.5
610 1.35216 9.78728 9.37368 0.5
611 1.01228 9.30691 8.67134 0.5
612 6.26919 12.389 2.91828 0.5
613 3.98632 5.62272 4.65819 0.5
614 3.35668 13.2331 10.8229 0.5
615 3.12513 10.7667 9.44617 0.5
616 0.0746564 6.3014 2.46532 0.5
617 7.13585 5.76841 2.33458 0.5
618 11.4936 7.73269 8.58063 0.5
619 12.9838 3.77 11.5965 0.5
620 0.871403 10.5235 11.9686 0.5
621 2.67621 4.48908 4.74376 0.5
622 5.27475 8.24279 8.87992 0.5
623 12.6951 8.10266 4.03428 0.5
624 12.7783 5.66627 2.62857 0.5
625 1.61046 3.88271 10.568 0.5
626 2.51316 4.26483 1.66193 0.5
627 9.86447 6.40685 0.387209 0.5
628 12.9721 4.72536 10.2876 0.5
629 5.03564 3.76243 4.0737 0.5
630 2.87575 3.48314 1.07858 0.5
631 9.73584 1.83743 0.927246 0.5
632 6.76913 12.5818 13.2353 0.5
633 10.5503 1.24853 0.917564 0.5
634 10.3372 10.5284 9.88016 0.5
635 9.55194 2.19457 12.2554 0.5
636 9.50464 3.84999 12.2171 0.5
637 0.0464621 10.434 7.14128 0.5
638 5.84163 1.22584 4.86182 0.5
639 9.02492 6.97804 10.5454 0.5
640 1.63347 4.27941 7.65583 0.5
641 7.58512 7.15279 5.92955 0.5
642 11.2942 5.53105 0.0754354 0.5
643 11.1093 0.858766 8.11694 0.5
644 7.02163 2.65855 10.4998 0.5
645 0.415004 11.0829 5.61468 0.5
646 9.3221 8.77905 12.2326 0.5
647 8.12338 4.67595 11.6964 0.5
648 7.80779 9.12866 11.6428 0.5
649 5.61978 8.2484 11.3672 0.5
650 2.80674 0.797856 7.2746 0.5
651 1.00396 6.60562 6.59387 0.5
652 6.38249 3.28813 7.69594 0.5
653 0.0233065 5.52622 3.14525 0.5
654 3.037 10.0409 11.7013 0.5
655 11.4301 11.9634 9.06197 0.5
656 0.993302 11.4628 1.15197 0.5
657 10.7276 0.468481 7.20819 0.5
658 9.71543 10.2279 5.57936 0.5
659 1.10667 9.55995 3.27048 0.5
660 0.484847 0.853878 8.95059 0.5
661 4.0267 7.29057 8.89392 0.5
662 3.74856 10.818 5.75756 0.5
663 6.08693 11.6193 3.623 0.5
664 5.27601 6.22863 5.59566 0.5
665 9.41577 11.0332 3.21478 0.5
666 5.29725 12.5773 9.95078 0.5
667 10.8277 4.42378 8.30839 0.5
668 5.45938 2.25143 3.45736 0.5
669 8.27067 10.3947 2.26171 0.5
670 8.8879 12.9456 8.00871 0.5
671 6.82893 8.58342 1.00732 0.5
672 3.25802 2.50431 5.14093 0.5
673 5.43039 8.81585 0.28644 0.5
674 2.68055 8.29001 12.2847 0.5
675 4.2752 4.84291 11.5792 0.5
676 2.11588 0.147326 2.72724 0.5
677 3.62736 9.45198 3.38211 0.5
678 13.274 7.72079 10.0268 0.5
679 10.3989 12.5121 6.36001 0.5
680 4.44987 11.0249 1.82048 0.5
681 3.66432 1.39822 8.91276 0.5
682 2.0837 3.10851 10.1092 0.5
683 1.66731 5.21519 11.8348 0.5
684 11.4598 13.4784 3.40658 0.5
685 11.7552 13.009 4.26323 0.5
686 11.1637 8.12998 11.3048 0.5
687 5.24083 9.58687 12.9237 0.5
688 1.28243 8.15099 6.05118 0.5
689 2.91483 3.32616 2.04273 0.5
690 5.14936 8.30477 6.77437 0.5
691 13.5679 10.2889 12.5009 0.5
692 4.50935 0.149644 0.740045 0.5
693 11.569 6.09385 11.7439 0.5
694 5.69281 8.9483 9.48182 0.5
695 12.1333 8.24711 2.34494 0.5
696 10.1535 3.90014 7.67227 0.5
697 0.712429 9.86774 7.83219 0.5
698 7.21393 10.5506 6.61447 0.5
699 3.60261 7.25454 0.109608 0.5
700 12.2153 8.60552 3.35688 0.5
701 9.73845 8.34021 13.093 0.5
702 3.7067 2.48653 8.89361 0.5
703 1.68952 5.36135 12.8432 0.5
704 9.1009 3.26161 8.73046 0.5
705 10.743 7.50201 7.86608 0.5
706 6.7924 10.6829 5.7374 0.5
707 4.24806 5.64214 10.682 0.5
708 12.7351 2.32624 1.12505 0.5
709 9.70384 0.742979 1.02515 0.5
710 6.85381 6.57149 2.9127 0.5
711 0.451732 0.296526 0.10695 0.5
712 12.4434 2.7228 9.11203 0.5
713 8.26806 9.85709 7.79307 0.5
714 12.6176 4.77553 6.89805 0.5
715 12.9447 8.80735 2.71875 0.5
716 1.75708 2.24033 10.5894 0.5
717 4.13189 6.34639 13.5761 0.5
718 11.6062 0.961291 7.28495 0.5
719 4.08413 11.2136 12.6318 0.5
720 12.7702 12.3114 2.92625 0.5
721 10.8465 6.8733 8.69557 0.5
722 5.28486 0.187661 12.8554 0.5
723 3.18128 12.2612 8.58508 0.5
724 9.09509 13.2608 9.77733 0.5
725 2.52642 2.05879 5.56258 0.5
726 8.29666 1.79746 8.83125 0.5
727 4.49466 2.7113 13.5708 0.5
728 13.0987 1.78271 6.17278 0.5
729 9.85682 4.81204 0.863377 0.5
730 8.39342 5.7527 7.0911 0.5
731 10.3906 0.411118 0.337232 0.5
732 1.15415 2.8342 8.19114 0.5
733 7.93193 11.4962 1.01025 0.5
734 10.4893 11.5052 6.33117 0.5
735 3.04347 5.07974 7.71847 0.5
736 4.26428 3.96131 10.1663 0.5
737 4.91659 2.75006 4.08272 0.5
738 2.51088 7.45356 10.9415 0.5
739 5.55699 13.0504 7.56355 0.5
740 12.2761 0.164538 7.54128 0.5
741 7.42236 3.87099 4.68582 0.5
742 5.25386 9.05134 1.27148 0.5
743 7.20995 7.96128 5.27634 0.5
744 3.73466 2.99656 13.0412 0.5
745 6.81358 6.42787 12.0013 0.5
746 4.81402 8.57035 9.79787 0.5
747 13.2893 0.686948 11.8236 0.5
748 7.36387 9.42494 7.80511 0.5
749 6.23583 9.0111 3.16343 0.5
750 1.62616 1.30627 0.284908 0.5
751 0.370599 8.35157 13.4277 0.5
752 1.67209 1.8641 13.0141 0.5
753 7.48664 1.96429 0.795251 0.5
754 1.04598 12.5402 11.4464 0.5
755 6.94706 3.38819 13.5665 0.5
756 6.65105 7.7475 1.40191 0.5
757 12.2727 6.81048 11.58 0.5
758 3.97838 12.2815 4.92004 0.5
759 12.5986 8.92039 1.78881 0.5
760 7.42206 4.42233 3.86131 0.5
761 3.33623 11.35 0.701306 0.5
762 13.1613 2.54769 0.292048 0.5
763 11.3459 0.788267 3.45734 0.5
764 8.92981 9.02031 3.11366 0.5
765 12.2828 2.88013 0.216258 0.5
766 8.22815 3.21845 4.70976 0.5
767 4.14043 5.82198 0.869708 0.5
768 12.7822 0.53973 10.8691 0.5
769 11.0548 2.48091 6.03425 0.5
770 11.1442 8.07484 6.16586 0.5
771 7.89132 8.10916 6.08738 0.5
772 0.857637 2.02147 10.6396 0.5
773 9.21111 3.95221 8.0322 0.5
774 8.47635 0.466544 2.69132 0.5
775 10.0322 13.1225 11.1412 0.5
776 3.69068 9.23361 6.61079 0.5
777 10.9283 12.69 3.93109 0.5
778 11.7335 12.4667 3.3858 0.5
779 8.21817 7.72659 5.20818 0.5
780 3.04266 11.4762 7.99781 0.5
781 0.962223 1.42079 4.99958 0.5
782 10.466 3.27826 4.0711 0.5
783 0.921829 8.92703 12.8799 0.5
784 2.28234 2.81469 4.77204 0.5
785 10.5728 10.1459 5.03385 0.5
786 8.44987 4.10156 5.02698 0.5
787 6.32869 11.3875 2.60316 0.5
788 11.921 7.59127 10.8125 0.5
789 9.09174 3.70309 2.34628 0.5
790 7.62161 0.810135 3.0813 0.5
791 5.51751 7.51812 12.1171 0.5
792 4.89929 2.49216 7.74447 0.5
793 6.91848 8.57403 3.74689 0.5
794 13.2003 0.897152 3.23431 0.5
795 7.61547 8.1311 4.31973 0.5
796 4.18064 11.2001 9.63147 0.5
797 3.6106 4.13842 11.6624 0.5
798 2.25233 3.67054 4.15903 0.5
799 0.755446 0.671179 5.6573 0.5
800 1.34135 8.53507 0.162862 0.5
801 7.78656 6.00156 3.18994 0.5
802 5.11801 11.2992 12.7306 0.5
803 11.4114 11.2536 11.1063 0.5
804 0.133099 6.53691 8.82253 0.5
805 9.11576 8.40742 2.41623 0.5
806 2.96698 7.25599 8.98994 0.5
807 2.65008 4.12668 7.67393 0.5
808 1.92714 8.94034 3.58665 0.5
809 9.03352 5.13868 11.3683 0.5
810 1.98632 11.9834 11.5622 0.5
811 10.417 7.04627 3.234 0.5
812 2.45351 8.40961 11.4277 0.5
813 8.0914 5.35533 12.5922 0.5
814 9.28541 0.4665 5.3122 0.5
815 11.5271 11.8212 7.9887 0.5
816 8.94164 6.94227 0.529056 0.5
817 12.1076 11.4571 3.47719 0.5
818 3.24434 10.3493 0.837339 0.5
819 6.50211 13.3459 7.30362 0.5
820 13.0637 12.1941 8.62478 0.5
821 10.685 3.03992 5.22926 0.5
822 9.04574 1.30185 5.12966 0.5
823 9.91949 13.5348 10.2535 0.5
824 2.21566 8.72547 5.86404 0.5
825 6.9673 0.56449 2.33413 0.5
826 7.24275 13.3658 7.9764 0.5
827 11.2512 0.530758 0.69256 0.5
828 5.23851 3.22716 3.1716 0.5
829 4.2666 1.90904 8.24369 0.5
830 4.96325 11.7215 9.56595 0.5
831 11.3973 13.5527 7.77148 0.5
832 0.497156 5.09674 10.1389 0.5
833 1.17878 11.6605 10.882 0.5
834 9.49013 2.1806 13.2728 0.5
835 0.983051 5.68259 11.2859 0.5
836 8.4351 8.66879 10.9066 0.5
837 7.7486 2.92217 0.361953 0.5
838 12.8552 13.3058 11.6589 0.5
839 4.65037 4.72164 2.63354 0.5
840 7.48548 12.9324 0.0590812 0.5
841 6.24574 10.2075 6.46662 0.5
842 12.6557 3.70741 10.5788 0.5
843 12.3014 3.28476 12.1009 0.5
844 4.44517 2.40503 12.6 0.5
845 9.9137 5.95704 5.6395 0.5
846 6.31248 12.6058 10.0747 0.5
847 4.57011 7.43635 6.53013 0.5
848 5.12506 6.83953 12.7255 0.5
849 0.132704 11.9224 6.11434 0.5
850 10.7585 10.6625 11.8052 0.5
851 6.44387 11.1921 6.37978 0.5
852 7.43652 10.4053 7.52975 0.5
853 4.20096 8.21333 9.04712 0.5
854 10.0879 6.35351 3.80082 0.5
855 9.89272 10.4361 2.49978 0.5
856 2.23561 0.351304 3.72335 0.5
857 10.0472 5.38069 11.1388 0.5
858 7.57648 10.0525 8.50497 0.5
859 11.3936 5.3525 5.59938 0.5
860 10.4434 5.21085 6.01465 0.5
861 10.787 13.427 6.27243 0.5
862 10.8843 7.69024 10.5638 0.5
863 8.01761 8.64062 5.17479 0.5
864 8.10102 7.27844 7.86004 0.5
865 12.3971 4.26033 12.2306 0.5
866 5.71148 12.1203 2.02855 0.5
867 12.859 4.40256 13.2103 0.5
868 9.40861 9.39983 9.11492 0.5
869 4.63655 1.25149 0.630456 0.5
870 4.10943 8.34789 6.61804 0.5
871 12.3836 9.16815 4.17341 0.5
872 0.898066 5.88825 13.1575 0.5
873 12.8615 1.0576 2.29162 0.5
874 7.28316 4.91597 12.1874 0.5
875 6.6839 11.786 4.42642 0.5
876 2.85798 5.52668 8.57962 0.5
877 10.597 8.26549 7.03762 0.5
878 2.49736 11.8052 0.675484 0.5
879 1.09829 3.85641 8.30019 0.5
880 12.3502 1.5981 2.97329 0.5
881 11.2491 10.5339 12.7472 0.5
882 1.83783 9.85012 3.97076 0.5
883 10.9986 12.3211 0.133315 0.5
884 13.0182 3.51665 0.073177 0.5
885 7.4501 10.4078 10.4008 0.5
886 0.164292 3.4789 6.95568 0.5
887 13.522 13.4465 12.4382 0.5
888 4.93026 3.85084 2.48475 0.5
889 11.1542 5.21325 8.90216 0.5
890 11.8575 8.86294 6.06937 0.5
891 2.34365 6.66057 2.46915 0.5
892 9.36114 0.648607 9.53273 0.5
893 10.2698 4.94995 8.91104 0.5
894 7.42552 7.76546 0.650063 0.5
895 12.1881 8.96869 0.84315 0.5
896 7.21502 11.9316 0.239706 0.5
897 6.97999 11.7714 3.4405 0.5
898 5.41954 11.9062 2.95598 0.5
899 10.5826 5.39219 8.09023 0.5
900 11.8561 11.0935 9.43014 0.5
901 13.3818 5.71636 10.3299 0.5
902 11.4867 6.87196 7.95935 0.5
903 9.9117 8.65992 3.08484 0.5
904 7.90091 3.56163 5.62014 0.5
905 13.2429 7.2315 5.84395 0.5
906 12.6638 5.42097 3.58876 0.5
907 6.86192 3.62527 10.1977 0.5
908 8.34469 0.67179 4.8344 0.5
909 9.81656 3.02194 2.51155 0.5
910 8.61342 1.97855 7.78407 0.5
911 6.34958 7.10862 12.6083 0.5
912 8.81516 9.28601 11.5317 0.5
913 11.4152 5.88938 12.661 0.5
914 4.45727 0.584863 13.3804 0.5
915 7.98725 2.53743 5.45208 0.5
916 10.9399 9.03868 6.44783 0.5
917 12.0076 13.2512 12.018 0.5
918 7.60908 6.51503 8.3944 0.5
919 12.94 12.3455 1.89907 0.5
920 13.2021 11.2087 11.0509 0.5
921 5.46921 6.13018 7.30518 0.5
922 12.3233 2.98947 11.134 0.5
923 0.498502 2.5904 7.41669 0.5
924 11.5556 11.7538 10.1537 0.5
925 10.7016 3.45656 1.99532 0.5
926 5.34878 10.5105 13.3761 0.5
927 2.20076 7.77518 6.02801 0.5
928 0.488598 6.63907 5.83 0.5
929 1.18259 2.95683 10.4968 0.5
930 10.3337 9.72568 9.20741 0.5
931 4.63558 9.78033 11.9546 0.5
932 3.83916 8.40569 3.5262 0.5
933 0.484975 12.1356 0.693896 0.5