ITEM: TIMESTEP
920000
ITEM: NUMBER OF ATOMS
1000
ITEM: BOX BOUNDS xy xz yz pp pp pp
0.0000000000000000e+00 1.3572088000000001e+01 0.0000000000000000e+00
0.0000000000000000e+00 1.3572088000000001e+01 0.0000000000000000e+00
0.0000000000000000e+00 1.3572088000000001e+01 0.0000000000000000e+00
ITEM: ATOMS id x y z radius
1 4.52937 3.18151 12.4423 0.5
2 4.37424 11.7279 4.78419 0.5
3 9.50839 10.3151 3.28607 0.5
4 10.1913 5.95318 0.975622 0.5
5 8.40914 7.41666 10.066 0.5
6 3.25326 12.9787 6.12873 0.5
7 3.56049 8.28348 0.193666 0.5
8 12.5249 11.932 2.31179 0.5
9 2.25207 8.39452 6.66254 0.5
10 3.59089 0.116497 11.9447 0.5
11 0.335161 9.26863 8.99506 0.5
12 10.2974 6.07587 13.6133 0.5
13 7.33723 11.292 4.52661 0.5
14 10.3844 2.95021 4.22701 0.5
15 6.37852 0.242473 5.65512 0.5
16 7.39022 6.48544 9.17301 0.5
17 6.56863 11.6252 10.7077 0.5
18 3.15737 8.55042 6.15714 0.5
19 10.5767 5.03645 1.25111 0.5
20 10.6739 11.952 3.54346 0.5
21 2.3952 4.60677 0.907169 0.5
22 1.29573 6.37309 12.2802 0.5
23 1.72318 1.93488 9.6498 0.5
24 7.29845 7.54378 2.06135 0.5
25 0.466384 6.31484 2.06478 0.5
26 10.825 10.3877 6.00121 0.5
27 11.4692 6.07116 11.5783 0.5
28 4.83708 11.4652 12.2038 0.5
29 12.712 5.80414 1.02305 0.5
30 8.94678 10.99 1.71244 0.5
31 1.28803 13.212 8.40586 0.5
32 9.12671 2.78097 12.401 0.5
33 13.4382 6.15334 9.11874 0.5
34 4.06126 8.86521 5.77051 0.5
35 12.3142 6.32661 13.0435 0.5
36 8.53107 2.03083 5.19562 0.5
37 0.0348259 1.06885 2.29308 0.5
38 2.48145 1.57002 2.43175 0.5
39 9.98412 4.27238 1.06378 0.5
40 5.68246 5.45859 5.3377 0.5
41 6.72747 11.0938 5.28716 0.5
42 7.18889 5.18817 2.91666 0.5
43 5.69619 4.94378 10.6001 0.5
44 4.43908 10.8753 8.73387 0.5
45 7.61748 6.59455 2.08305 0.5
46 10.1687 11.1929 13.4019 0.5
47 3.07171 9.44309 5.82807 0.5
48 8.14464 10.6074 1.02611 0.5
49 6.31076 11.8157 9.66134 0.5
50 4.88195 0.798483 11.2254 0.5
51 13.5569 9.9663 7.0825 0.5
52 6.74431 9.44451 7.35148 0.5
53 9.41463 4.40802 1.87202 0.5
54 11.6385 11.7792 3.77658 0.5
55 13.41 0.736325 4.81997 0.5
56 13.2008 3.31324 3.72828 0.5
57 0.164782 10.5143 11.8757 0.5
58 6.10854 8.54021 10.7842 0.5
59 1.63264 11.0371 11.3703 0.5
60 6.67135 4.95432 9.24725 0.5
61 3.88577 0.781519 11.1976 0.5
62 1.49577 8.64573 0.464831 0.5
63 12.1984 8.48016 1.52415 0.5
64 11.7423 1.74847 9.53936 0.5
65 0.800216 1.92352 5.44174 0.5
66 12.2166 1.83303 1.8221 0.5
67 7.75801 2.07557 8.90007 0.5
68 2.80449 1.01257 3.26033 0.5
69 11.1406 2.36308 10.1853 0.5
70 12.5483 3.22024 9.9581 0.5
71 3.79786 5.81877 8.17618 0.5
72 7.10177 2.02381 11.211 0.5
73 8.06709 6.46065 8.40135 0.5
74 5.86069 4.5456 9.70177 0.5
75 8.63346 0.5203 10.3541 0.5
76 12.0313 3.51558 13.0959 0.5
77 9.92513 3.26069 3.35575 0.5
78 8.59704 3.01712 5.5948 0.5
79 4.04914 12.5806 6.30918 0.5
80 4.71367 2.26866 9.05819 0.5
81 1.72726 3.51534 11.5926 0.5
82 0.613838 9.19592 0.109298 0.5
83 3.44485 0.428782 6.32641 0.5
84 0.564877 8.50489 8.3386 0.5
85 13.4209 4.17716 6.45688 0.5
86 2.32811 1.14282 12.5085 0.5
87 4.05592 6.23502 5.21275 0.5
88 6.77031 6.00401 3.47249 0.5
89 11.8559 12.5947 7.62732 0.5
90 3.27091 6.07438 4.40465 0.5
91 11.7541 6.94557 10.9272 0.5
92 13.2524 1.67483 1.53061 0.5
93 12.9658 0.883091 11.9927 0.5
94 4.88262 10.7876 12.9974 0.5
95 12.0805 1.6395 7.87397 0.5
96 11.2114 2.52213 3.93729 0.5
97 11.9388 2.79249 5.29444 0.5
98 10.8306 9.4956 0.17236 0.5
99 6.61101 8.7599 9.24659 0.5
100 0.814569 7.47881 6.18214 0.5
101 4.19296 11.7449 2.53761 0.5
102 8.32852 6.99659 9.18219 0.5
103 4.59137 4.59684 11.2009 0.5
104 7.18764 10.966 6.22194 0.5
105 11.7991 12.4738 6.60962 0.5
106 5.5977 1.37622 11.0673 0.5
107 13.2814 5.88399 6.28279 0.5
108 13.1538 10.7749 5.63966 0.5
109 0.516653 12.2138 9.50088 0.5
110 8.32863 9.22359 8.72282 0.5
111 8.20937 0.184822 3.51391 0.5
112 5.47491 0.685496 5.44467 0.5
113 0.79715 0.443713 6.09484 0.5
114 7.1031 6.78176 2.92078 0.5
115 5.49767 6.79059 12.4238 0.5
116 12.7595 5.26739 2.03833 0.5
117 0.464105 1.41808 6.21574 0.5
118 11.6081 10.0128 5.35769 0.5
119 13.1692 8.46833 1.11699 0.5
120 5.7777 9.33804 3.94349 0.5
121 11.9593 13.4399 10.6236 0.5
122 1.899 3.6821 2.24831 0.5
123 11.8266 2.371 8.69841 0.5
124 10.1599 11.2016 11.5186 0.5
125 4.45327 11.8591 3.44224 0.5
126 11.218 11.1559 13.213 0.5
127 7.90349 10.2147 11.1717 0.5
128 6.98506 2.92586 7.57839 0.5
129 2.36389 6.1647 12.2906 0.5
130 0.180692 11.6252 11.4893 0.5
131 7.99722 2.26072 1.97065 0.5
132 5.13642 11.556 2.88488 0.5
133 0.709084 10.8814 11.1071 0.5
134 11.467 11.9588 2.81296 0.5
135 11.7678 3.24758 6.18516 0.5
136 7.2957 4.88154 4.58143 0.5
137 3.19029 12.3997 6.97249 0.5
138 7.2766 12.0339 13.4583 0.5
139 5.1746 13.1401 0.622238 0.5
140 5.59896 3.39686 3.75776 0.5
141 1.55153 3.34054 4.55807 0.5
142 9.85818 3.46025 12.39 0.5
143 13.5337 12.1951 0.156109 0.5
144 9.11989 12.7032 9.0482 0.5
145 6.57706 6.79936 2.06201 0.5
146 9.99275 8.76064 8.59548 0.5
147 4.63562 6.09003 0.0165309 0.5
148 12.5221 0.459374 11.3091 0.5
149 7.9348 6.43605 10.0421 0.5
150 12.575 11.6612 4.03075 0.5
151 6.89906 12.3641 10.3216 0.5
152 4.02208 3.86471 11.798 0.5
153 11.6277 7.53953 7.57673 0.5
154 2.00009 2.57058 2.33902 0.5
155 2.22265 7.97999 10.4685 0.5
156 8.23758 12.0384 0.288472 0.5
157 1.17567 0.534518 2.96297 0.5
158 1.5907 10.1234 8.41657 0.5
159 3.21681 1.51371 9.37172 0.5
160 9.19342 0.578987 11.2073 0.5
161 12.187 2.37925 10.3246 0.5
162 7.13911 2.54804 9.52686 0.5
163 11.6191 10.1223 13.2656 0.5
164 9.37326 3.62374 10.7989 0.5
165 7.18283 10.9514 10.9058 0.5
166 11.0249 12.8942 7.13425 0.5
167 10.7517 7.79897 7.89745 0.5
168 0.507917 3.36645 6.75765 0.5
169 10.7299 11.2153 12.4158 0.5
170 3.8184 6.31611 0.68208 0.5
171 11.069 5.59009 0.466928 0.5
172 12.6165 8.23834 10.6328 0.5
173 9.48498 10.1866 2.29186 0.5
174 4.65544 1.11604 0.743117 0.5
175 2.80896 6.90993 3.0397 0.5
176 2.33153 5.96205 4.28418 0.5
177 8.55557 5.05567 6.02238 0.5
178 5.29389 1.13512 4.50221 0.5
179 12.9807 6.25721 1.87901 0.5
180 9.7271 2.87846 11.4783 0.5
181 10.9077 11.1215 9.55617 0.5
182 2.95531 11.8807 1.07061 0.5
183 8.98767 7.26356 6.13772 0.5
184 10.5708 5.27253 8.25043 0.5
185 8.24383 0.085952 11.2481 0.5
186 4.9955 8.32242 2.76771 0.5
187 5.37859 0.462685 0.367261 0.5
188 5.23416 5.79569 6.06284 0.5
189 0.702178 11.4078 6.49501 0.5
190 8.70443 12.1526 3.35959 0.5
191 10.6459 8.03631 2.55083 0.5
192 9.79646 1.1216 -0.0142841 0.5
193 10.9805 2.22787 9.07623 0.5
194 9.11587 13.258 10.7927 0.5
195 13.0888 8.87963 12.0933 0.5
196 8.61297 1.03439 4.97249 0.5
197 3.18131 6.45848 7.76363 0.5
198 6.47051 6.28186 12.7089 0.5
199 12.1024 0.707022 8.37529 0.5
200 7.16394 6.98657 1.29201 0.5
201 12.9373 4.45302 7.33475 0.5
202 5.38055 12.9422 8.92577 0.5
203 1.49607 4.02705 1.40519 0.5
204 3.99099 7.95778 8.5548 0.5
205 10.95 13.5443 4.73344 0.5
206 0.673689 1.47501 9.34176 0.5
207 3.90021 11.7418 8.75643 0.5
208 8.67709 4.03647 5.82178 0.5
209 6.02532 1.77739 4.33891 0.5
210 4.77014 6.83176 4.85609 0.5
211 3.96539 4.67847 10.413 0.5
212 2.83521 6.84924 4.05366 0.5
213 3.2581 1.23088 5.7371 0.5
214 9.97026 3.92414 11.4698 0.5
215 8.16867 7.23315 1.56681 0.5
216 6.41593 8.73658 0.11511 0.5
217 3.56274 11.4983 5.13914 0.5
218 7.1122 8.06003 4.36864 0.5
219 9.24277 0.251367 3.44142 0.5
220 6.96844 1.77384 10.1606 0.5
221 3.44544 3.31145 6.05118 0.5
222 6.61975 11.8266 5.83075 0.5
223 4.96846 9.25883 3.21311 0.5
224 12.5188 9.41167 3.25013 0.5
225 7.99624 11.1477 11.4981 0.5
226 10.433 7.13409 13.3845 0.5
227 13.4762 7.17767 9.08855 0.5
228 4.24615 11.664 5.84598 0.5
229 6.11194 3.95256 6.31951 0.5
230 6.30399 9.65663 9.14676 0.5
231 7.49094 5.59847 8.75096 0.5
232 7.52012 4.37583 12.6509 0.5
233 0.755185 0.455741 9.75305 0.5
234 11.0412 2.57141 4.94672 0.5
235 1.57208 10.5826 3.35049 0.5
236 10.9506 6.61235 0.630795 0.5
237 5.68352 7.92754 6.42845 0.5
238 1.04686 12.9773 5.83735 0.5
239 9.76417 7.79002 2.96157 0.5
240 1.3376 5.01632 13.1633 0.5
241 4.1206 5.72943 1.64196 0.5
242 3.05371 0.733524 2.21443 0.5
243 3.13857 9.95358 3.17642 0.5
244 3.77463 11.6155 6.67812 0.5
245 0.975058 11.3089 12.0122 0.5
246 9.88059 9.69253 8.43786 0.5
247 3.49369 13.5188 10.9649 0.5
248 7.86015 2.95934 2.62754 0.5
249 10.3907 1.85304 13.2048 0.5
250 9.88448 2.07881 0.394654 0.5
251 4.05502 10.1319 11.6002 0.5
252 8.53372 8.39542 12.5804 0.5
253 2.15024 9.39193 0.42238 0.5
254 9.75728 2.85895 2.44196 0.5
255 8.78397 9.67006 2.94651 0.5
256 1.27867 13.4875 3.74749 0.5
257 0.253407 4.11626 7.41922 0.5
258 0.09667 7.25015 4.57836 0.5
259 4.78387 5.48047 10.6722 0.5
260 7.24068 11.391 10.0015 0.5
261 11.2679 3.45697 5.38188 0.5
262 7.59167 11.6454 5.49389 0.5
263 1.70948 4.55638 8.76459 0.5
264 10.3346 10.5345 8.94361 0.5
265 1.59148 4.29262 4.76105 0.5
266 3.83721 13.2242 6.95023 0.5
267 4.82368 8.20845 9.22759 0.5
268 6.96339 2.53581 1.9879 0.5
269 9.76395 13.4963 9.23927 0.5
270 6.85139 9.91684 8.29288 0.5
271 11.2642 11.9519 7.16667 0.5
272 6.35926 9.39182 0.792871 0.5
273 7.58875 5.45044 3.8076 0.5
274 11.1557 5.12431 9.04509 0.5
275 2.3529 11.0547 0.982605 0.5
276 4.97752 2.19983 0.546743 0.5
277 7.48826 5.0579 13.273 0.5
278 10.8384 10.5344 0.37868 0.5
279 9.3549 11.2458 6.10234 0.5
280 4.80532 12.4767 2.70947 0.5
281 6.23157 2.09981 10.8029 0.5
282 0.477489 12.2761 1.67004 0.5
283 4.32023 4.74414 1.88245 0.5
284 1.288 11.1774 0.657208 0.5
285 3.96924 9.94934 6.00872 0.5
286 1.44332 1.71446 12.5087 0.5
287 8.20407 7.17893 6.7865 0.5
288 6.32989 13.4038 7.07899 0.5
289 2.55308 10.8455 3.26458 0.5
290 0.119529 13.3063 6.10784 0.5
291 6.21758 1.11804 5.98457 0.5
292 4.71282 2.77561 13.3475 0.5
293 11.1499 5.7894 3.78615 0.5
294 3.15402 10.2518 6.46979 0.5
295 2.58239 1.83706 6.22552 0.5
296 13.5426 5.10807 6.9152 0.5
297 10.526 10.3894 10.9585 0.5
298 9.36192 4.3645 12.2587 0.5
299 1.50364 0.771643 12.7465 0.5
300 9.57363 5.2911 1.29964 0.5
301 5.90935 7.74764 12.2081 0.5
302 3.41723 9.0432 3.10878 0.5
303 12.2694 8.92669 2.39292 0.5
304 0.813083 7.8225 5.23859 0.5
305 8.46849 13.0872 8.28711 0.5
306 11.4249 8.91144 0.934314 0.5
307 2.03841 6.17207 2.69095 0.5
308 0.294495 9.44003 11.8937 0.5
309 12.4823 0.746335 12.8161 0.5
310 8.82292 0.26416 4.32842 0.5
311 0.197917 6.74215 6.24174 0.5
312 7.5955 11.8265 10.844 0.5
313 1.44411 10.0868 4.22248 0.5
314 6.22094 12.7884 9.73626 0.5
315 12.2936 6.09718 2.58152 0.5
316 7.60238 5.85395 7.73615 0.5
317 13.4218 8.94089 3.57811 0.5
318 0.573763 6.00222 5.7136 0.5
319 10.765 11.6814 0.453797 0.5
320 6.24574 3.71375 7.3216 0.5
321 2.25637 13.2273 4.01359 0.5
322 9.99749 0.324977 1.39558 0.5
323 3.41268 1.57401 2.68798 0.5
324 10.6355 3.41544 2.53967 0.5
325 2.04226 5.44496 0.300615 0.5
326 9.82796 13.1647 0.680838 0.5
327 7.89482 3.08589 9.13428 0.5
328 12.5878 5.50664 0.117949 0.5
329 8.29035 1.86885 8.05062 0.5
330 8.15764 1.32346 5.84812 0.5
331 5.3314 1.50472 3.56993 0.5
332 12.3589 1.53722 8.83827 0.5
333 12.9217 1.68894 2.51302 0.5
334 5.16392 5.36845 1.5002 0.5
335 9.46138 0.588817 5.16223 0.5
336 3.76841 2.49339 9.05129 0.5
337 11.9168 0.754477 12.0097 0.5
338 7.17053 5.64199 9.67268 0.5
339 10.4258 4.3091 1.97817 0.5
340 11.8842 3.71371 11.4202 0.5
341 8.89971 0.156831 8.87474 0.5
342 6.27307 0.90074 7.04364 0.5
343 6.53397 6.01452 9.00433 0.5
344 5.59344 6.50819 5.41094 0.5
345 9.27416 8.19372 5.74823 0.5
346 1.66119 7.34725 5.52643 0.5
347 13.1351 12.5951 1.69741 0.5
348 1.39355 4.61319 0.502064 0.5
349 8.54595 6.38761 6.40939 0.5
350 8.52599 6.79638 10.7617 0.5
351 2.33067 8.82201 11.0801 0.5
352 8.25912 12.3499 7.58126 0.5
353 9.44542 6.74817 13.2088 0.5
354 2.62071 2.86835 5.72961 0.5
355 1.82222 7.22626 2.70984 0.5
356 11.2276 12.7678 4.12624 0.5
357 6.32936 11.2355 4.28726 0.5
358 4.05907 0.976806 9.58317 0.5
359 7.31187 9.42681 8.99495 0.5
360 12.3897 4.02757 6.58389 0.5
361 3.31688 1.44711 6.71635 0.5
362 1.50592 1.01302 9.31044 0.5
363 10.5742 12.6155 0.262005 0.5
364 3.74156 7.34471 0.749528 0.5
365 3.10551 9.15561 0.726017 0.5
366 6.54636 9.04845 8.35801 0.5
367 10.5849 12.0918 12.9814 0.5
368 5.20293 5.24333 9.73093 0.5
369 2.10336 3.61701 5.31393 0.5
370 0.575246 10.8969 5.72166 0.5
371 8.76852 13.0239 3.98857 0.5
372 0.184832 4.06196 3.31002 0.5
373 4.87157 3.20903 0.557761 0.5
374 0.286004 8.73803 12.751 0.5
375 0.538484 10.0865 8.5529 0.5
376 1.94315 10.9805 4.2113 0.5
377 6.6364 5.15557 3.77091 0.5
378 6.11566 9.72583 13.5318 0.5
379 4.7145 5.5569 2.41836 0.5
380 7.57187 4.09137 0.0819637 0.5
381 9.54534 2.99733 8.60248 0.5
382 8.9064 2.78602 7.8462 0.5
383 2.19577 4.46276 13.5013 0.5
384 5.61903 10.0785 12.704 0.5
385 13.4664 11.5684 2.05473 0.5
386 13.4923 4.0903 4.22994 0.5
387 1.90061 7.04709 12.0511 0.5
388 0.885102 2.27708 10.088 0.5
389 3.41997 9.27259 11.2939 0.5
390 4.88008 4.42682 10.3316 0.5
391 8.096 1.22294 2.17274 0.5
392 12.6919 5.3155 3.14058 0.5
393 2.53549 4.99494 9.07544 0.5
394 9.12543 9.01179 8.06591 0.5
395 1.50815 13.5585 9.37333 0.5
396 0.21151 2.14276 2.20423 0.5
397 7.19999 1.53162 1.74163 0.5
398 9.73348 11.9798 3.07742 0.5
399 0.756235 4.52706 4.09496 0.5
400 7.4408 8.87588 4.93299 0.5
401 9.83885 2.79057 13.165 0.5
402 5.29867 7.44116 5.61117 0.5
403 5.60037 0.333163 8.46951 0.5
404 11.5514 10.6444 12.3539 0.5
405 11.9449 6.1521 0.480503 0.5
406 6.79408 3.05585 1.14307 0.5
407 1.66257 11.5525 3.47227 0.5
408 2.7405 3.91043 5.98799 0.5
409 3.52067 4.5626 11.2972 0.5
410 10.5572 2.55521 3.20432 0.5
411 4.35037 5.31894 0.720428 0.5
412 5.17695 0.290166 1.24798 0.5
413 2.94911 5.52165 7.4931 0.5
414 3.13158 8.32818 10.824 0.5
415 8.18016 10.299 12.051 0.5
416 9.15302 10.2208 6.08917 0.5
417 0.555235 13.2005 9.18218 0.5
418 9.44903 1.20276 10.4277 0.5
419 2.7387 13.2133 11.5974 0.5
420 3.37672 0.581662 7.34019 0.5
421 13.5682 5.14447 9.27422 0.5
422 7.99831 4.52353 5.28138 0.5
423 11.5378 0.854128 4.37047 0.5
424 3.13172 3.68773 5.11614 0.5
425 8.55712 7.81012 10.9806 0.5
426 0.646455 12.4381 8.55424 0.5
427 7.41835 2.25972 1.13416 0.5
428 1.10874 8.60236 9.13614 0.5
429 11.4543 5.58001 8.17101 0.5
430 9.07967 13.3553 11.7747 0.5
431 2.22606 5.04303 8.11559 0.5
432 12.9283 2.54796 1.90762 0.5
433 7.72424 11.2122 0.450685 0.5
434 0.0136695 3.47272 13.1224 0.5
435 11.641 9.90507 0.679281 0.5
436 6.14457 5.55927 9.86242 0.5
437 4.64166 9.20965 6.48251 0.5
438 6.02594 2.86922 7.64289 0.5
439 11.2994 10.5783 10.2926 0.5
440 9.97551 10.6622 6.5467 0.5
441 5.7159 0.330577 6.43329 0.5
442 1.74347 7.51443 6.56989 0.5
443 0.743241 12.0132 0.691 0.5
444 8.98117 9.2345 13.089 0.5
445 5.32584 8.50953 3.62931 0.5
446 3.62474 6.52093 3.58574 0.5
447 2.53798 9.40767 6.61857 0.5
448 5.74965 10.0869 0.759989 0.5
449 3.62382 12.7075 11.6543 0.5
450 2.77832 2.31998 1.7102 0.5
451 7.31871 3.99841 0.986394 0.5
452 2.46544 8.46736 0.231549 0.5
453 5.19975 9.0926 2.23878 0.5
454 2.84125 0.0733507 3.14002 0.5
455 1.81389 2.50594 11.7789 0.5
456 9.48457 13.1255 8.26138 0.5
457 12.1741 11.0401 8.54632 0.5
458 4.22456 0.417603 10.3688 0.5
459 10.7951 3.31241 6.29152 0.5
460 12.9461 6.43391 0.180217 0.5
461 12.0289 7.85507 11.3742 0.5
462 9.555 3.99879 8.65972 0.5
463 5.31926 3.60453 7.71106 0.5
464 0.00953799 8.27843 9.14771 0.5
465 4.94154 10.5609 11.9916 0.5
466 2.83728 13.4399 6.94157 0.5
467 2.32801 8.73563 1.16088 0.5
468 0.713507 7.65009 8.88555 0.5
469 2.14504 2.8631 10.8033 0.5
470 1.90619 6.14961 11.4791 0.5
471 3.51423 1.17123 10.3589 0.5
472 10.9183 6.83888 3.76912 0.5
473 11.4799 8.49065 7.57228 0.5
474 4.07963 6.86398 8.22701 0.5
475 5.49586 4.23357 6.95832 0.5
476 6.16618 0.835899 11.727 0.5
477 6.19546 8.06992 9.87817 0.5
478 2.86984 12.3203 0.156332 0.5
479 8.89867 7.46894 12.7925 0.5
480 4.54572 10.5804 9.72772 0.5
481 1.99186 3.66954 0.594683 0.5
482 10.8249 13.343 1.07543 0.5
483 9.61586 11.1474 2.62873 0.5
484 9.89707 6.88139 3.63992 0.5
485 4.67469 3.89741 2.48197 0.5
486 3.73437 11.0247 9.45846 0.5
487 4.37398 3.23098 8.79094 0.5
488 5.65706 4.40141 5.45224 0.5
489 3.63881 0.578524 3.03893 0.5
490 13.3482 12.672 8.93522 0.5
491 2.67802 6.82778 11.5397 0.5
492 0.734537 5.59831 12.5581 0.5
493 12.3891 8.92032 11.365 0.5
494 6.85865 4.78978 0.453232 0.5
495 6.66397 7.74274 0.580254 0.5
496 6.87366 0.106713 0.284512 0.5
497 5.00704 4.05347 6.148 0.5
498 3.26889 11.9544 6.01857 0.5
499 6.32244 1.83427 11.7325 0.5
500 10.9821 9.38751 6.04267 0.5
501 6.0851 0.852861 3.8813 0.5
502 9.50151 10.1368 9.24059 0.5
503 7.35627 5.98844 12.9372 0.5
504 1.8089 1.47742 13.436 0.5
505 5.05015 3.68271 13.1258 0.5
506 3.24951 10.9393 1.21628 0.5
507 8.26007 4.77956 4.37636 0.5
508 13.3985 1.54402 5.50193 0.5
509 4.83257 4.90837 5.5007 0.5
510 7.23719 10.5137 11.8197 0.5
511 5.57442 0.268311 7.47041 0.5
512 10.5775 11.642 2.63818 0.5
513 5.37564 4.14663 3.0881 0.5
514 5.86119 8.44681 0.915604 0.5
515 2.26845 9.94184 2.81778 0.5
516 5.85381 8.89937 3.01539 0.5
517 0.717292 3.88408 4.86913 0.5
518 3.31238 6.4587 8.79032 0.5
519 5.56021 7.74545 10.586 0.5
520 2.26268 0.56624 13.3765 0.5
521 11.2045 6.34307 4.66334 0.5
522 3.04739 8.58098 11.7765 0.5
523 13.4161 8.1246 2.90551 0.5
524 13.4315 0.632599 5.75981 0.5
525 11.7384 9.17074 -0.00897927 0.5
526 8.30834 12.1891 8.59267 0.5
527 7.99243 10.9362 1.99176 0.5
528 2.31319 0.130818 12.4501 0.5
529 0.135159 12.7814 0.929715 0.5
530 11.7148 2.82212 9.65996 0.5
531 11.5432 8.56499 10.9103 0.5
532 6.67303 9.10447 4.49704 0.5
533 6.28996 7.6875 11.345 0.5
534 2.83007 12.1533 11.5972 0.5
535 7.92072 12.6629 12.97 0.5
536 1.61658 12.5995 3.56569 0.5
537 2.01918 10.2528 9.35396 0.5
538 8.50999 10.0034 1.88259 0.5
539 2.49511 6.83056 2.04674 0.5
540 0.235715 3.10911 7.76597 0.5
541 3.84776 11.7495 1.57043 0.5
542 7.75058 0.0380877 13.1988 0.5
543 13.3127 6.4782 5.3925 0.5
544 7.89013 2.76632 8.07756 0.5
545 1.50026 6.53408 1.93557 0.5
546 0.648084 0.353824 13.0863 0.5
547 10.9008 5.41949 4.67094 0.5
548 12.0212 13.3612 6.95195 0.5
549 11.9931 10.0107 8.89715 0.5
550 11.8297 13.5125 4.32654 0.5
551 7.18379 0.901154 2.53433 0.5
552 4.55901 7.01479 0.575909 0.5
553 10.6911 6.2038 7.89135 0.5
554 3.1223 13.2014 7.79247 0.5
555 0.629546 3.48037 3.96281 0.5
556 6.99945 12.9485 13.0416 0.5
557 7.28914 11.1649 1.34647 0.5
558 4.08795 1.91356 9.79683 0.5
559 2.69278 9.86318 8.70068 0.5
560 6.63614 2.72876 11.587 0.5
561 8.32368 8.65693 11.6269 0.5
562 12.7965 2.91347 13.1101 0.5
563 8.50415 6.41213 7.41629 0.5
564 6.6084 5.50452 13.435 0.5
565 9.00991 4.74643 5.12141 0.5
566 6.66695 1.17825 10.9238 0.5
567 12.7958 4.29256 3.52014 0.5
568 7.09966 1.24147 11.9067 0.5
569 10.9568 7.01499 10.3326 0.5
570 0.211963 8.69184 1.93685 0.5
571 2.09299 0.678423 2.61501 0.5
572 4.27191 1.72215 -0.0740488 0.5
573 0.47674 13.6182 5.19874 0.5
574 9.90813 8.57225 2.32503 0.5
575 8.71268 0.586229 2.71342 0.5
576 3.90909 10.1194 9.09688 0.5
577 4.24267 8.91865 2.46071 0.5
578 1.46379 11.8769 1.49069 0.5
579 13.2719 8.87794 11.0791 0.5
580 2.59546 4.57917 7.42579 0.5
581 1.37765 12.6246 9.21348 0.5
582 2.16232 11.6304 10.9178 0.5
583 2.0376 10.9085 0.030193 0.5
584 10.2395 6.10103 4.26407 0.5
585 0.0372207 5.1279 5.96425 0.5
586 0.558083 5.8005 9.8257 0.5
587 12.885 3.25882 1.07893 0.5
588 12.7203 12.6065 0.798159 0.5
589 0.143515 9.3707 7.94703 0.5
590 3.40373 10.8286 8.48383 0.5
591 4.94807 3.97681 12.0439 0.5
592 10.5218 11.2374 10.4935 0.5
593 6.11024 9.94705 6.54987 0.5
594 13.4241 10.8598 6.60641 0.5
595 0.0896904 10.0068 6.04181 0.5
596 9.12312 9.23299 2.05281 0.5
597 1.95726 9.20313 8.91734 0.5
598 8.85292 10.7882 5.3199 0.5
599 11.2821 10.8151 8.65515 0.5
600 10.5349 5.7702 11.2675 0.5
601 1.96512 6.62033 3.60114 0.5
602 13.3791 6.58156 9.91534 0.5
603 2.91084 7.31034 10.6689 0.5
604 4.37559 1.43238 10.5403 0.5
605 7.10688 2.24173 12.3087 0.5
606 12.2207 9.45113 4.84872 0.5
607 8.9091 9.85641 8.4796 0.5
608 8.28185 13.2481 12.3347 0.5
609 0.346599 11.1583 0.441511 0.5
610 1.21776 9.67853 9.2722 0.5
611 1.15444 9.31919 8.28965 0.5
612 6.38292 12.5193 3.20126 0.5
613 3.78618 6.9752 4.52199 0.5
614 4.3895 13.4755 11.2452 0.5
615 4.09748 11.1582 10.4291 0.5
616 0.000904644 5.46597 1.54898 0.5
617 7.84262 5.54622 2.20185 0.5
618 11.1221 7.0434 8.39448 0.5
619 12.8413 3.81937 11.5593 0.5
620 1.08014 10.2118 11.7969 0.5
621 2.41707 4.5815 5.18977 0.5
622 5.75855 8.80805 9.20662 0.5
623 13.2138 8.01502 3.95993 0.5
624 13.4771 5.64766 2.60842 0.5
625 1.80102 3.73654 10.5627 0.5
626 2.47864 3.891 1.46325 0.5
627 9.97842 6.88463 0.642337 0.5
628 13.1353 4.68507 10.1109 0.5
629 5.24745 3.11306 2.94264 0.5
630 2.81152 3.08818 1.00047 0.5
631 9.06278 1.47595 0.535748 0.5
632 6.69828 12.719 0.491952 0.5
633 9.88358 1.28151 1.01949 0.5
634 10.273 10.386 9.96397 0.5
635 9.95908 2.29371 12.2708 0.5
636 9.02603 3.51475 11.7357 0.5
637 0.794331 10.3596 6.62849 0.5
638 6.25234 0.956209 4.85937 0.5
639 9.00871 6.61537 9.8489 0.5
640 1.81628 4.18177 7.78536 0.5
641 8.06607 7.05542 5.72132 0.5
642 11.2638 6.30583 13.2694 0.5
643 11.2818 0.973524 7.81303 0.5
644 6.92282 2.73728 10.5878 0.5
645 13.5697 11.648 5.91245 0.5
646 9.19158 8.94326 12.0475 0.5
647 8.40558 4.5376 12.0318 0.5
648 7.61545 9.48994 11.7582 0.5
649 5.39738 8.19097 11.5128 0.5
650 2.65661 0.873878 6.52792 0.5
651 1.24661 6.66067 6.1677 0.5
652 6.4887 2.94415 6.67678 0.5
653 13.2584 4.73137 2.69302 0.5
654 3.51441 9.48443 12.2103 0.5
655 11.7186 11.6397 9.12237 0.5
656 0.527632 11.3045 1.40727 0.5
657 11.2138 0.32322 7.02685 0.5
658 10.1221 9.78643 6.03235 0.5
659 1.53788 9.5858 3.39396 0.5
660 0.82379 0.547106 8.80876 0.5
661 3.95087 7.20201 9.09016 0.5
662 3.52173 10.955 5.91303 0.5
663 6.08008 12.2291 4.13579 0.5
664 4.94384 5.86076 5.02272 0.5
665 9.08221 11.2424 3.54755 0.5
666 5.50073 12.2049 9.65398 0.5
667 10.3891 3.6039 8.32222 0.5
668 5.74003 2.41496 3.66005 0.5
669 8.72586 10.724 2.671 0.5
670 9.17588 12.2657 8.15095 0.5
671 6.86628 8.61249 1.06816 0.5
672 3.4043 2.78231 5.12472 0.5
673 5.53448 9.09855 0.265914 0.5
674 3.44256 7.58276 11.5304 0.5
675 4.13731 4.79599 12.0102 0.5
676 1.90979 13.3432 2.94433 0.5
677 4.0583 9.60271 3.30286 0.5
678 13.4318 7.76515 8.29184 0.5
679 10.8134 12.3339 6.34737 0.5
680 4.86684 11.7896 1.92949 0.5
681 4.04835 1.57359 8.78688 0.5
682 1.64216 2.90096 10.0021 0.5
683 1.67212 5.43011 12.2019 0.5
684 11.0583 0.190615 3.84258 0.5
685 12.259 12.6293 4.21613 0.5
686 11.0236 7.67953 11.1087 0.5
687 5.12402 9.9466 13.473 0.5
688 1.4277 8.21674 5.94689 0.5
689 2.78029 3.25369 2.08628 0.5
690 5.00876 8.41903 7.04795 0.5
691 13.0531 9.80991 11.4892 0.5
692 4.38502 0.156123 0.492379 0.5
693 10.8394 6.72316 11.2225 0.5
694 6.18898 9.17705 10.1155 0.5
695 12.8817 8.28828 2.1171 0.5
696 9.41313 3.58873 7.79076 0.5
697 0.807344 10.0885 7.65514 0.5
698 6.72818 10.4864 6.97552 0.5
699 3.02031 8.038 1.01842 0.5
700 12.5813 8.40512 3.21887 0.5
701 9.47912 8.27926 12.7252 0.5
702 3.266 1.89619 8.2794 0.5
703 2.36036 5.38203 12.9548 0.5
704 8.74493 2.51796 8.79936 0.5
705 10.8878 6.94728 7.2857 0.5
706 6.14129 10.9467 6.19065 0.5
707 3.97332 5.36733 11.201 0.5
708 12.6537 2.35678 1.01602 0.5
709 9.37551 0.548769 0.553885 0.5
710 6.92329 5.91945 2.48345 0.5
711 13.4402 1.08176 12.8673 0.5
712 12.5252 2.40186 9.35291 0.5
713 8.32324 9.58914 7.75825 0.5
714 12.7479 5.00639 6.42256 0.5
715 13.2449 9.11953 2.65465 0.5
716 1.53202 2.11368 10.7228 0.5
717 4.08981 6.77906 1.47384 0.5
718 12.0915 0.785482 7.3797 0.5
719 4.07591 10.8627 12.3652 0.5
720 13.106 11.5261 3.05104 0.5
721 10.8625 6.07435 8.78258 0.5
722 5.94214 13.2213 13.4827 0.5
723 2.88194 11.5981 8.89174 0.5
724 8.97406 13.2975 9.82826 0.5
725 2.8135 2.04615 5.24617 0.5
726 7.27423 1.93445 8.08845 0.5
727 3.99782 2.61016 0.447022 0.5
728 0.594402 2.41798 6.27012 0.5
729 10.1234 5.11353 0.367713 0.5
730 8.2678 5.50633 6.95701 0.5
731 10.3492 0.434405 0.520582 0.5
732 0.830337 2.50697 7.28526 0.5
733 8.22102 11.5849 1.21994 0.5
734 10.3136 11.3852 6.04848 0.5
735 3.26183 4.9639 8.29393 0.5
736 4.08837 3.8117 10.8774 0.5
737 4.82923 2.78529 3.84437 0.5
738 1.9696 7.05461 10.9867 0.5
739 5.96769 13.0658 7.99879 0.5
740 12.5914 13.4814 7.79636 0.5
741 7.66422 3.8956 4.51116 0.5
742 5.42269 9.3722 1.26614 0.5
743 7.68626 7.89704 5.25294 0.5
744 4.12876 3.4265 13.4354 0.5
745 7.21125 6.10215 12.0395 0.5
746 5.30256 8.56855 10.0707 0.5
747 13.39 0.00966845 11.4368 0.5
748 7.46991 9.20849 8.07144 0.5
749 6.60825 9.47794 3.55409 0.5
750 1.28508 0.695315 0.205643 0.5
751 13.3648 7.91962 12.5096 0.5
752 0.75613 1.32479 13.2463 0.5
753 6.47774 2.06421 1.3657 0.5
754 2.04647 12.6026 11.1674 0.5
755 6.66783 3.67459 0.293208 0.5
756 6.46397 7.80323 1.51779 0.5
757 11.3987 6.08954 10.6422 0.5
758 3.82488 12.4007 5.3338 0.5
759 12.8988 9.2124 1.72521 0.5
760 7.42562 4.501 3.66974 0.5
761 2.88961 11.259 0.328676 0.5
762 13.2924 2.8684 0.356744 0.5
763 11.8823 0.602545 3.42054 0.5
764 9.69868 9.40824 2.85019 0.5
765 12.2616 2.9657 0.351895 0.5
766 7.91009 2.89061 4.78889 0.5
767 4.77777 6.14809 1.01848 0.5
768 12.9605 13.5894 10.5339 0.5
769 11.2603 2.467 5.92576 0.5
770 12.07 7.98947 6.89153 0.5
771 8.36447 7.90153 6.09429 0.5
772 1.14288 1.35788 10.1936 0.5
773 8.64285 3.5366 8.43748 0.5
774 8.65311 13.1111 2.95052 0.5
775 9.94986 0.0680738 11.3014 0.5
776 3.60771 9.33457 6.60543 0.5
777 11.8175 13.1874 3.36079 0.5
778 12.3244 12.2857 3.24813 0.5
779 8.59727 7.73049 5.2606 0.5
780 2.93272 10.6195 9.33367 0.5
781 0.284793 1.64493 4.58495 0.5
782 10.9116 3.40261 3.51615 0.5
783 0.283421 8.39064 11.7718 0.5
784 2.54526 2.9181 4.8158 0.5
785 10.619 9.83639 5.21787 0.5
786 8.58848 3.89626 4.80875 0.5
787 6.05351 11.5834 3.29644 0.5
788 11.7345 7.79243 10.4131 0.5
789 8.6795 5.11226 1.73228 0.5
790 7.90798 1.02745 3.17457 0.5
791 4.8752 7.61316 12.1588 0.5
792 5.1458 2.79613 8.30465 0.5
793 7.42051 8.82701 3.90232 0.5
794 12.6911 0.785778 2.82889 0.5
795 8.07689 8.26254 4.38601 0.5
796 4.59224 11.5484 9.561 0.5
797 4.27407 4.10614 12.7674 0.5
798 2.46738 3.90948 4.39776 0.5
799 0.674309 1.00959 5.22748 0.5
800 0.590115 8.28043 13.5852 0.5
801 7.7458 6.05712 2.94902 0.5
802 5.66627 11.0873 12.5382 0.5
803 11.071 11.0027 11.4663 0.5
804 0.716423 5.8424 8.82203 0.5
805 9.13947 8.61517 2.96592 0.5
806 3.18598 7.32299 8.28697 0.5
807 2.55639 4.22227 8.43858 0.5
808 2.52842 9.19911 3.48934 0.5
809 9.0109 5.22064 11.9871 0.5
810 1.93001 11.799 11.898 0.5
811 10.5192 7.09484 2.86617 0.5
812 2.48405 7.8265 11.4303 0.5
813 7.99334 5.4189 12.3924 0.5
814 9.56872 0.499246 6.11498 0.5
815 11.6392 11.7468 8.14316 0.5
816 9.6144 7.67649 0.0239248 0.5
817 12.1795 11.2967 3.16019 0.5
818 2.72042 10.2336 0.55748 0.5
819 6.46684 0.286446 7.96912 0.5
820 0.0724455 11.6207 8.70889 0.5
821 11.4504 3.19395 4.42241 0.5
822 9.13712 1.38338 5.66042 0.5
823 9.71186 0.294112 10.1876 0.5
824 2.16315 8.87139 5.86154 0.5
825 7.85863 0.162593 2.60304 0.5
826 6.245 13.4118 8.88711 0.5
827 10.8096 0.802662 1.25611 0.5
828 4.6155 3.75459 3.51815 0.5
829 4.20378 2.4025 8.16624 0.5
830 6.11054 12.3807 8.79673 0.5
831 11.563 0.0204384 7.84575 0.5
832 0.265127 5.74758 10.7911 0.5
833 1.17288 11.8796 11.2362 0.5
834 9.37566 1.95672 13.1349 0.5
835 0.946926 5.67404 11.6374 0.5
836 9.15746 8.62647 11.1329 0.5
837 7.54831 3.13634 0.568023 0.5
838 12.6088 13.0099 11.2883 0.5
839 5.28929 4.72273 2.14747 0.5
840 7.66068 12.8542 0.296999 0.5
841 5.74124 10.7796 7.12259 0.5
842 12.4694 4.02115 10.5837 0.5
843 12.3643 3.11308 12.163 0.5
844 3.9228 2.52187 12.8874 0.5
845 9.92109 5.27298 4.85728 0.5
846 5.88932 12.3227 10.5138 0.5
847 4.83452 7.53844 6.55846 0.5
848 4.91208 7.06234 13.1576 0.5
849 0.457256 12.3622 6.37808 0.5
850 10.5618 10.3076 11.9088 0.5
851 6.55335 11.514 6.8343 0.5
852 7.43999 10.1074 7.54223 0.5
853 4.83552 7.39674 8.65568 0.5
854 10.4058 6.20114 3.2125 0.5
855 10.1542 11.1266 3.37984 0.5
856 2.00425 0.52216 3.59858 0.5
857 9.86102 4.977 11.5021 0.5
858 7.89589 10.0522 8.42885 0.5
859 11.4801 5.74413 5.44956 0.5
860 10.6746 5.12654 5.61697 0.5
861 11.2589 13.2706 6.30401 0.5
862 10.7583 8.01439 10.2107 0.5
863 8.4491 8.66434 5.2576 0.5
864 7.51216 6.90748 7.59996 0.5
865 12.0783 4.13547 12.2549 0.5
866 5.79836 12.1621 2.48824 0.5
867 12.306 4.49249 13.3067 0.5
868 9.31062 9.13794 9.08695 0.5
869 4.47855 0.78654 13.3373 0.5
870 4.08623 8.34264 6.61641 0.5
871 12.6446 8.91154 4.09758 0.5
872 1.62915 5.96502 13.0831 0.5
873 12.5926 0.994079 1.92094 0.5
874 6.93267 5.25429 12.4836 0.5
875 6.79269 11.9856 4.83976 0.5
876 2.75153 5.77342 8.39762 0.5
877 11.0381 7.87419 6.88392 0.5
878 2.07942 11.8611 0.604681 0.5
879 1.06517 3.5116 7.64094 0.5
880 11.9301 1.31745 2.65124 0.5
881 10.7441 10.357 12.9955 0.5
882 2.3197 10.0606 3.78035 0.5
883 11.4321 12.1709 13.4495 0.5
884 12.8462 3.70803 0.169648 0.5
885 8.12871 11.0348 10.471 0.5
886 13.0767 3.47937 7.1957 0.5
887 13.5337 0.214856 12.4412 0.5
888 4.62845 4.73924 2.8923 0.5
889 11.1571 4.47557 8.28322 0.5
890 12.0651 9.22147 5.81376 0.5
891 1.1706 6.63228 2.96139 0.5
892 9.23206 0.772261 9.54531 0.5
893 10.5129 4.39557 8.85366 0.5
894 7.48679 7.86229 1.13525 0.5
895 12.4539 9.09469 0.731155 0.5
896 7.41338 12.1448 0.91072 0.5
897 6.92398 11.8738 3.74518 0.5
898 5.40624 12.3735 3.47824 0.5
899 10.1397 4.37568 7.91447 0.5
900 11.866 10.8227 9.51038 0.5
901 13.1163 5.64423 10.0041 0.5
902 11.6392 6.48917 7.78298 0.5
903 10.149 8.63382 3.26608 0.5
904 7.81717 3.51217 5.53501 0.5
905 13.51 7.41419 5.61163 0.5
906 13.5194 4.9665 3.5701 0.5
907 5.953 3.14216 11.0989 0.5
908 8.62921 0.379361 5.7874 0.5
909 9.79126 3.84794 2.59066 0.5
910 7.14484 2.74614 8.49162 0.5
911 6.4248 6.8968 11.8985 0.5
912 8.66273 9.55538 11.4219 0.5
913 11.7362 5.40755 13.2074 0.5
914 4.94386 13.496 13.2407 0.5
915 7.76424 2.37202 5.6991 0.5
916 11.5896 8.8368 6.63209 0.5
917 11.7748 13.3658 11.6489 0.5
918 7.05297 6.42395 8.25506 0.5
919 13.4866 12.3731 2.65787 0.5
920 13.3238 10.7776 11.049 0.5
921 5.61603 6.85171 6.36654 0.5
922 12.4145 3.0598 11.0617 0.5
923 13.4608 2.579 6.93485 0.5
924 11.5251 11.582 10.1898 0.5
925 9.8824 3.53743 1.72163 0.5
926 5.77525 10.6895 13.4426 0.5
927 2.44479 7.87277 5.86012 0.5
928 0.688751 6.86264 5.34176 0.5
929 1.19688 2.97958 10.9539 0.5
930 10.3537 9.49046 9.29255 0.5
931 4.52837 9.93554 12.592 0.5
932 4.32467 8.65895 3.44189 0.5