ITEM: TIMESTEP
60000
ITEM: NUMBER OF ATOMS
1000
ITEM: BOX BOUNDS xy xz yz pp pp pp
0.0000000000000000e+00 1.3572088000000001e+01 0.0000000000000000e+00
0.0000000000000000e+00 1.3572088000000001e+01 0.0000000000000000e+00
0.0000000000000000e+00 1.3572088000000001e+01 0.0000000000000000e+00
ITEM: ATOMS id x y z radius
1 4.02161 3.39844 12.9633 0.5
2 4.72136 10.3474 3.46024 0.5
3 8.63896 9.35896 2.79079 0.5
4 10.4554 6.19168 1.74102 0.5
5 7.85791 7.75778 10.2323 0.5
6 4.67336 12.9468 5.72792 0.5
7 3.26433 8.50316 13.1626 0.5
8 13.3718 12.3022 2.14913 0.5
9 1.79888 7.70603 6.00992 0.5
10 3.26929 12.676 10.6042 0.5
11 0.636005 9.14267 8.56005 0.5
12 11.2813 6.06521 1.20069 0.5
13 10.3199 11.3878 6.65855 0.5
14 11.5056 2.47408 4.12497 0.5
15 5.50913 1.84825 4.50946 0.5
16 7.81811 6.35914 8.64852 0.5
17 7.33128 11.9627 10.4357 0.5
18 2.60813 8.33642 6.39786 0.5
19 8.92809 5.36606 2.15621 0.5
20 9.92226 11.5325 3.72272 0.5
21 1.95717 4.83688 0.810593 0.5
22 1.74192 6.93761 11.7031 0.5
23 1.85402 1.29045 10.1851 0.5
24 7.51161 6.73699 2.55504 0.5
25 1.20764 6.11844 1.87696 0.5
26 10.377 9.44125 6.22001 0.5
27 11.3065 6.55906 12.8245 0.5
28 5.60848 10.9084 11.0461 0.5
29 0.624124 5.9484 1.06215 0.5
30 8.17375 10.971 2.25765 0.5
31 0.634893 13.4591 8.6663 0.5
32 10.3672 2.76613 0.056914 0.5
33 12.7138 6.74089 9.98936 0.5
34 3.15375 9.30799 6.60435 0.5
35 12.0503 6.64244 13.4265 0.5
36 9.61192 0.204657 5.77756 0.5
37 13.3159 0.175085 3.66177 0.5
38 4.85181 1.48728 2.13494 0.5
39 9.8686 4.82984 1.92137 0.5
40 6.25917 5.46087 6.93707 0.5
41 9.32302 11.7984 6.84216 0.5
42 6.90959 5.31219 4.29542 0.5
43 5.83396 5.32999 9.54762 0.5
44 3.12414 9.74513 8.63702 0.5
45 6.66448 6.36043 2.53228 0.5
46 10.9256 11.7696 13.3733 0.5
47 2.57526 9.1201 5.77425 0.5
48 8.12553 10.5648 1.25684 0.5
49 5.82851 11.837 11.2929 0.5
50 4.70365 2.41133 11.3249 0.5
51 0.0134517 9.91158 7.02453 0.5
52 6.20518 10.5097 7.60051 0.5
53 9.75478 3.82803 2.07704 0.5
54 11.3459 10.9108 3.41468 0.5
55 0.837963 1.55981 7.36734 0.5
56 11.8886 5.96784 3.61679 0.5
57 0.305066 11.9591 10.3036 0.5
58 4.65004 7.39105 9.65232 0.5
59 1.11218 10.6783 11.1395 0.5
60 8.64334 5.78142 8.862 0.5
61 3.44582 12.4777 11.6061 0.5
62 0.289115 9.25445 0.516995 0.5
63 12.2072 8.47991 1.37955 0.5
64 11.303 1.87077 10.4036 0.5
65 12.8974 1.94177 5.39651 0.5
66 0.37536 0.763189 2.16645 0.5
67 8.78879 2.64221 7.1617 0.5
68 4.71518 0.931198 3.12115 0.5
69 12.8583 1.35262 11.0969 0.5
70 11.1305 3.99815 11.3275 0.5
71 2.42753 6.69123 8.66502 0.5
72 8.20111 3.69923 10.0187 0.5
73 8.08415 7.14037 8.18176 0.5
74 5.9982 4.38315 9.76268 0.5
75 8.17609 0.547813 10.8714 0.5
76 12.6374 2.97841 1.29897 0.5
77 10.1324 2.77908 3.32621 0.5
78 8.83311 2.32808 6.28516 0.5
79 3.95634 12.3448 6.24881 0.5
80 5.88723 2.3157 8.06499 0.5
81 2.19795 3.2938 10.8649 0.5
82 0.933044 8.74699 13.3986 0.5
83 3.45443 0.976997 7.30858 0.5
84 12.6085 9.27011 9.92068 0.5
85 0.598554 3.52404 8.66286 0.5
86 3.59958 0.314608 13.1809 0.5
87 5.22604 5.94787 5.69139 0.5
88 6.57119 5.86201 5.09823 0.5
89 12.1313 13.28 6.44552 0.5
90 3.78765 5.05694 4.58506 0.5
91 10.9669 7.29463 12.2359 0.5
92 0.633219 0.527137 3.14331 0.5
93 1.11265 0.584006 1.47491 0.5
94 4.80074 9.95105 12.0786 0.5
95 12.3772 1.3716 8.60079 0.5
96 11.1478 2.91504 3.28844 0.5
97 12.0961 2.43992 5.00231 0.5
98 11.6513 11.1221 0.24458 0.5
99 6.37211 8.1741 9.0558 0.5
100 0.779318 6.14981 5.69481 0.5
101 4.48567 12.0724 1.40926 0.5
102 8.10078 7.21162 11.0241 0.5
103 4.10638 4.92406 10.2408 0.5
104 6.48351 10.2555 5.98901 0.5
105 11.3193 13.4518 5.84626 0.5
106 7.66776 0.997022 9.29918 0.5
107 0.39759 5.37955 9.44771 0.5
108 0.45803 11.6827 4.95842 0.5
109 1.1649 10.857 9.37963 0.5
110 8.4408 9.47974 8.45699 0.5
111 7.81543 0.924678 2.76607 0.5
112 6.42448 1.53323 4.49683 0.5
113 0.959183 1.24714 6.41429 0.5
114 7.04257 6.71594 3.42471 0.5
115 4.54575 6.47725 12.6791 0.5
116 0.165818 5.71907 1.85568 0.5
117 0.324799 0.61476 6.01435 0.5
118 13.0853 9.13025 4.5575 0.5
119 11.1382 8.77825 1.47946 0.5
120 4.28044 8.4601 3.30796 0.5
121 11.3751 13.1529 12.1308 0.5
122 2.72606 3.38142 2.69076 0.5
123 10.6441 1.18618 10.6089 0.5
124 11.1713 11.4991 11.7357 0.5
125 4.71707 11.3556 3.87445 0.5
126 11.4679 11.2701 12.7038 0.5
127 8.20724 10.5513 11.8953 0.5
128 5.59383 2.13306 7.11541 0.5
129 2.08506 6.90219 10.8348 0.5
130 1.38508 11.5373 8.66767 0.5
131 7.30468 2.5255 0.929442 0.5
132 4.72285 11.2082 1.77689 0.5
133 1.03493 11.2617 10.3622 0.5
134 10.5093 10.8278 4.00726 0.5
135 12.5562 2.81234 5.92885 0.5
136 8.13891 3.12291 3.8345 0.5
137 3.65144 13.0762 5.80755 0.5
138 7.87329 11.6736 13.2848 0.5
139 6.14772 13.5837 12.8738 0.5
140 5.24954 3.99304 3.52815 0.5
141 1.03573 3.55522 4.36387 0.5
142 9.49211 3.23002 0.0751628 0.5
143 0.397006 0.378954 12.4678 0.5
144 9.05504 12.8234 7.03155 0.5
145 6.65232 7.44549 2.88412 0.5
146 10.3971 9.11598 8.59472 0.5
147 3.95783 6.39562 0.0397827 0.5
148 12.5442 0.343911 11.2311 0.5
149 8.12823 6.18028 9.64245 0.5
150 12.3891 10.912 3.4175 0.5
151 6.34149 12.3235 10.5288 0.5
152 3.3931 3.50734 10.7341 0.5
153 11.8688 6.60603 7.60723 0.5
154 3.39892 3.30796 1.95868 0.5
155 1.87698 8.3788 10.3244 0.5
156 8.0083 12.2281 0.711707 0.5
157 3.16831 0.681475 4.00684 0.5
158 0.780352 8.28488 8.05422 0.5
159 4.5224 1.51704 9.52051 0.5
160 8.61109 1.43616 11.1126 0.5
161 13.163 3.87735 11.286 0.5
162 6.977 2.92787 6.90121 0.5
163 10.9821 9.60374 -0.0723092 0.5
164 9.18305 3.54704 12.7424 0.5
165 7.59166 11.3404 11.2334 0.5
166 11.221 13.2581 6.77305 0.5
167 11.6168 7.46899 7.91879 0.5
168 2.15333 3.43628 8.15449 0.5
169 11.1564 12.2242 12.4639 0.5
170 3.42119 6.30313 0.983737 0.5
171 10.5672 5.25352 1.37935 0.5
172 10.2258 7.2132 10.6843 0.5
173 8.84941 10.427 2.87555 0.5
174 4.55855 0.392302 13.3121 0.5
175 2.64343 6.41748 3.45415 0.5
176 3.98584 5.39391 3.62176 0.5
177 9.30276 3.81694 6.09508 0.5
178 5.49437 3.18222 3.87768 0.5
179 13.2201 6.0849 2.55207 0.5
180 9.69551 2.62217 12.8376 0.5
181 10.9499 11.8309 8.85686 0.5
182 2.3502 11.7404 0.347101 0.5
183 8.20466 8.55893 6.56047 0.5
184 10.5297 3.85984 9.87557 0.5
185 8.18112 1.29512 10.1139 0.5
186 3.37823 8.52608 1.98357 0.5
187 5.12819 13.3027 12.7851 0.5
188 5.76219 6.27845 6.54866 0.5
189 1.01361 11.7842 5.8012 0.5
190 7.54914 0.129182 2.28368 0.5
191 9.70112 7.93963 4.36356 0.5
192 10.7139 1.07667 0.293242 0.5
193 11.7971 1.16738 10.9356 0.5
194 8.09454 0.99629 11.8299 0.5
195 12.8849 9.88746 11.8441 0.5
196 8.59091 0.737938 3.46472 0.5
197 2.73008 6.80392 7.75947 0.5
198 6.61757 6.22079 12.0915 0.5
199 11.4676 1.8549 8.42763 0.5
200 6.92041 7.23022 1.88314 0.5
201 0.445958 4.5874 8.74756 0.5
202 6.81749 0.440458 7.80451 0.5
203 1.44693 3.21204 1.38243 0.5
204 1.02981 7.53019 8.72472 0.5
205 12.0667 12.6417 4.32259 0.5
206 1.28054 0.525299 10.4813 0.5
207 5.92902 12.7701 8.60271 0.5
208 9.31716 4.94798 7.09749 0.5
209 4.78622 3.18041 3.19711 0.5
210 4.41536 6.52823 5.27313 0.5
211 4.2412 4.01503 10.4065 0.5
212 3.24294 5.87578 4.05712 0.5
213 3.42884 1.48172 5.39803 0.5
214 9.83879 3.32681 12.0702 0.5
215 7.23227 6.23514 1.66385 0.5
216 6.29108 9.10613 0.191433 0.5
217 4.272 11.3614 4.84599 0.5
218 5.94167 8.10827 3.19931 0.5
219 8.34803 1.74943 3.30768 0.5
220 6.80216 1.19906 8.57819 0.5
221 2.27768 2.45079 6.32801 0.5
222 6.73435 11.4776 5.10764 0.5
223 3.15225 9.31388 2.47662 0.5
224 13.4638 9.4353 2.79293 0.5
225 8.31674 11.7015 10.5958 0.5
226 11.2229 6.30264 0.269838 0.5
227 12.331 9.39762 10.9464 0.5
228 3.85608 11.5004 5.78101 0.5
229 4.91565 4.52715 6.97712 0.5
230 6.14241 8.9723 8.49486 0.5
231 8.65374 6.75043 9.06453 0.5
232 6.97898 5.72874 12.8168 0.5
233 1.80844 0.411043 9.5721 0.5
234 11.1444 2.10349 4.9879 0.5
235 1.33758 11.3229 4.38728 0.5
236 10.3393 6.01348 0.749383 0.5
237 5.41582 8.31864 5.42966 0.5
238 0.763373 13.5394 5.45458 0.5
239 10.5921 7.90062 4.78683 0.5
240 2.71409 4.20999 10.9971 0.5
241 4.32407 5.73904 0.806322 0.5
242 4.05153 0.998185 2.2975 0.5
243 1.61659 9.90837 3.53631 0.5
244 3.08646 12.1789 5.85307 0.5
245 0.891639 11.7015 11.161 0.5
246 9.47944 9.79983 8.55949 0.5
247 3.74323 0.04103 10.2252 0.5
248 6.73556 3.07874 1.6314 0.5
249 10.2585 1.92421 0.759704 0.5
250 9.73847 1.34723 0.362896 0.5
251 4.94285 9.38301 11.0995 0.5
252 9.07947 8.30258 0.651772 0.5
253 1.45659 8.88289 0.595736 0.5
254 10.3524 3.30766 2.65908 0.5
255 8.49231 10.0598 2.01145 0.5
256 2.48232 13.3933 3.86189 0.5
257 1.22957 3.49605 7.88179 0.5
258 0.311943 5.76881 6.60218 0.5
259 4.34944 4.27944 9.45844 0.5
260 6.56733 11.5786 9.8141 0.5
261 11.1723 3.57156 5.81713 0.5
262 7.19451 10.8601 5.68713 0.5
263 3.07698 4.45021 7.40696 0.5
264 11.0978 10.8686 8.79154 0.5
265 1.47316 4.37613 4.75124 0.5
266 4.24279 13.3148 6.5052 0.5
267 4.74611 7.49771 8.79306 0.5
268 6.44764 2.29024 1.05618 0.5
269 8.64071 0.0805813 7.37679 0.5
270 6.82725 10.4652 8.44498 0.5
271 10.4719 13.4653 5.31088 0.5
272 5.77632 9.46593 0.916469 0.5
273 7.2428 3.13022 4.15644 0.5
274 10.6161 3.09578 9.25956 0.5
275 2.26776 11.437 1.19385 0.5
276 5.50708 0.998372 11.6037 0.5
277 7.85402 5.17227 12.7889 0.5
278 10.9319 10.7233 13.2532 0.5
279 9.92553 10.945 5.85208 0.5
280 4.83465 11.5363 0.710996 0.5
281 7.2343 3.4035 9.97574 0.5
282 13.5771 11.3381 1.99784 0.5
283 4.81558 5.49828 2.14337 0.5
284 1.3903 10.8651 1.41101 0.5
285 2.68381 9.99877 6.13591 0.5
286 3.29883 1.26397 13.3603 0.5
287 7.39133 8.03578 6.55961 0.5
288 6.56879 0.584337 4.72507 0.5
289 2.17165 10.7023 3.86259 0.5
290 1.38528 0.246809 6.27338 0.5
291 5.91196 1.0834 5.24473 0.5
292 4.90456 2.97605 13.0493 0.5
293 11.123 6.01454 4.38911 0.5
294 1.72625 9.70235 5.92301 0.5
295 3.48128 1.28607 6.38318 0.5
296 0.367418 4.11157 7.80591 0.5
297 11.4291 12.4135 11.3741 0.5
298 10.7821 3.69972 12.206 0.5
299 2.71211 0.69261 12.8189 0.5
300 8.92799 4.46143 1.71021 0.5
301 5.79334 6.61805 11.4871 0.5
302 2.69398 9.1117 3.33698 0.5
303 12.9237 8.90668 1.96878 0.5
304 0.148191 6.80752 6.13181 0.5
305 7.62243 12.5967 7.74492 0.5
306 10.8262 8.69322 0.423755 0.5
307 1.94768 7.24487 3.24147 0.5
308 0.22244 10.4148 11.7071 0.5
309 12.999 0.236962 12.8683 0.5
310 7.80276 0.0446398 3.24529 0.5
311 13.4933 4.8666 7.05285 0.5
312 7.62037 11.0923 10.265 0.5
313 1.08521 10.9302 5.18186 0.5
314 5.76427 11.622 10.4206 0.5
315 12.5158 5.50068 3.04158 0.5
316 9.09895 6.02226 7.16082 0.5
317 13.2582 8.86312 3.64787 0.5
318 12.5355 4.97102 7.39501 0.5
319 10.7036 11.1741 0.579291 0.5
320 5.24363 3.02159 6.66245 0.5
321 2.5874 13.1248 2.88512 0.5
322 9.90628 13.106 1.30295 0.5
323 4.8724 0.532819 2.22655 0.5
324 10.5413 3.62792 3.60113 0.5
325 0.807094 5.26788 12.4174 0.5
326 10.8911 13.0381 1.04892 0.5
327 9.34784 1.91664 6.99511 0.5
328 12.0199 7.19099 12.529 0.5
329 9.17274 2.47937 8.73745 0.5
330 8.86884 1.04097 4.39677 0.5
331 4.43076 4.50322 3.89509 0.5
332 11.8191 1.85491 9.3322 0.5
333 12.8059 1.02508 3.97466 0.5
334 4.37749 6.77968 0.907462 0.5
335 8.74258 13.3718 3.42497 0.5
336 4.40024 1.15441 8.55152 0.5
337 11.4717 1.0114 9.89962 0.5
338 7.74144 5.37638 9.18496 0.5
339 9.26043 4.54586 2.68313 0.5
340 12.6156 3.1253 12.6769 0.5
341 9.18462 13.4923 9.77283 0.5
342 5.88462 0.0240481 5.16859 0.5
343 7.24764 4.53857 8.64547 0.5
344 5.19529 7.83242 6.28138 0.5
345 7.41127 8.65291 5.87687 0.5
346 0.936013 7.14424 5.50523 0.5
347 12.9682 10.963 1.24419 0.5
348 1.27284 4.07843 0.78396 0.5
349 8.44065 7.58251 6.61642 0.5
350 7.5953 6.78526 10.2526 0.5
351 2.4857 9.49372 11.4084 0.5
352 9.27035 12.1464 7.74526 0.5
353 8.28379 6.21232 1.97783 0.5
354 2.5115 2.95998 5.38739 0.5
355 1.12829 7.02411 2.60465 0.5
356 11.5809 13.446 3.91556 0.5
357 5.56192 11.0029 3.38937 0.5
358 4.25574 1.01334 10.3415 0.5
359 6.942 9.55041 8.74569 0.5
360 12.9502 4.16196 7.54322 0.5
361 3.72562 1.63953 8.02152 0.5
362 1.0317 1.13177 9.6942 0.5
363 10.3789 12.093 1.12651 0.5
364 2.75758 7.63366 13.346 0.5
365 2.43134 8.43955 12.6647 0.5
366 6.56557 9.63418 7.86068 0.5
367 11.2369 11.9579 0.662767 0.5
368 5.31284 4.56356 9.04394 0.5
369 1.68709 2.98493 3.8188 0.5
370 13.4475 10.8039 6.49923 0.5
371 8.51363 0.190469 2.49866 0.5
372 13.4978 4.80859 4.05398 0.5
373 5.59836 3.18949 12.4762 0.5
374 0.375808 9.50336 13.0875 0.5
375 13.3876 8.62828 8.15965 0.5
376 2.2505 11.6261 4.30611 0.5
377 7.4603 5.9343 4.88041 0.5
378 5.72567 8.99771 13.0163 0.5
379 4.94894 6.2773 0.313399 0.5
380 7.08488 4.99503 13.3839 0.5
381 10.6026 2.51293 8.34535 0.5
382 9.12239 1.10326 7.47745 0.5
383 1.57327 5.75348 1.03921 0.5
384 5.578 10.0042 12.5239 0.5
385 12.6454 11.6087 1.84125 0.5
386 0.471497 4.20095 4.8091 0.5
387 1.08169 6.46622 11.1831 0.5
388 1.07257 1.55995 10.7294 0.5
389 5.04417 9.20629 10.0695 0.5
390 5.09976 4.64476 10.1054 0.5
391 7.25185 1.13814 1.92985 0.5
392 -0.0289496 5.73864 3.50504 0.5
393 3.34671 4.95411 8.28848 0.5
394 9.42442 8.82843 8.822 0.5
395 1.20018 0.715524 8.81366 0.5
396 0.155943 1.2221 3.68411 0.5
397 7.05583 1.49493 0.987964 0.5
398 8.34418 11.3947 4.59261 0.5
399 0.919752 4.45443 3.85243 0.5
400 6.0964 8.62397 4.14889 0.5
401 9.4837 2.27247 0.210328 0.5
402 4.80039 7.52201 5.40979 0.5
403 6.92464 13.2209 7.22241 0.5
404 10.277 11.2458 11.5046 0.5
405 12.7875 5.87892 13.3672 0.5
406 7.3318 2.99007 13.4743 0.5
407 1.74341 11.6197 3.49257 0.5
408 2.02769 3.55256 4.69671 0.5
409 3.37562 4.31201 10.097 0.5
410 10.8041 2.02548 3.5547 0.5
411 3.40697 5.66666 0.287836 0.5
412 5.38966 0.649227 12.6811 0.5
413 3.45952 6.84801 8.48164 0.5
414 2.8045 8.85273 10.6732 0.5
415 8.08684 9.76052 11.3953 0.5
416 9.47813 10.7466 6.66624 0.5
417 1.58268 13.2229 8.91667 0.5
418 8.99218 0.709256 10.3893 0.5
419 2.56852 12.9151 11.3706 0.5
420 3.87496 0.0926048 7.39732 0.5
421 0.144601 6.7923 10.209 0.5
422 8.58128 4.3083 6.59435 0.5
423 12.5882 13.0581 3.6224 0.5
424 2.3132 2.55133 4.49355 0.5
425 7.09648 7.4441 10.8826 0.5
426 1.2828 13.0752 6.89807 0.5
427 6.5453 3.11868 0.517794 0.5
428 13.2674 8.54717 9.71955 0.5
429 10.3172 5.1234 8.78372 0.5
430 7.57542 1.4878 10.9672 0.5
431 2.46687 5.08478 7.86995 0.5
432 0.469518 1.46989 2.75759 0.5
433 7.72263 11.2908 0.64683 0.5
434 0.264285 4.12516 1.1917 0.5
435 10.6981 9.52497 0.900231 0.5
436 6.75061 4.93036 9.4795 0.5
437 4.1976 9.19166 6.34109 0.5
438 6.04014 2.93547 7.36399 0.5
439 10.7466 12.0254 9.84894 0.5
440 10.3828 10.4262 6.5258 0.5
441 6.08961 12.5853 3.34955 0.5
442 1.66017 6.7 5.89775 0.5
443 0.638299 12.0414 1.56365 0.5
444 9.2729 8.10552 13.2555 0.5
445 4.11613 8.94265 2.50415 0.5
446 4.25479 6.014 4.41 0.5
447 1.64249 8.71858 5.92318 0.5
448 5.65187 9.87726 13.5751 0.5
449 3.42343 13.5003 11.1793 0.5
450 3.47129 2.78057 1.13816 0.5
451 6.63115 3.93078 13.4979 0.5
452 1.39669 7.98741 0.21712 0.5
453 4.48673 9.13101 4.063 0.5
454 3.36197 0.263668 2.44852 0.5
455 1.15088 3.16118 10.4213 0.5
456 8.56094 12.8728 7.93077 0.5
457 12.5234 12.3145 8.95506 0.5
458 3.94907 0.660302 9.36069 0.5
459 0.0222682 2.58973 5.72241 0.5
460 12.8953 6.7585 12.8988 0.5
461 10.7606 7.88717 11.2967 0.5
462 11.5578 2.7007 7.9591 0.5
463 6.11429 3.55639 6.56086 0.5
464 11.3047 9.53489 11.0428 0.5
465 5.58678 10.0053 11.5088 0.5
466 3.36157 0.302203 6.43138 0.5
467 0.515047 8.27794 0.638818 0.5
468 12.4356 8.40578 10.3817 0.5
469 1.40856 3.05291 11.4188 0.5
470 2.08496 4.97497 11.5768 0.5
471 4.76801 0.0690905 10.4554 0.5
472 10.8818 6.89468 4.60621 0.5
473 11.2293 7.19059 7.05292 0.5
474 1.73686 8.05559 8.11689 0.5
475 5.16235 3.84884 6.20945 0.5
476 7.35772 0.681499 10.2588 0.5
477 5.48421 7.73391 9.44105 0.5
478 2.56321 10.8505 13.351 0.5
479 8.71145 7.49218 0.317663 0.5
480 2.98872 10.5049 7.98254 0.5
481 1.61238 3.1544 0.40902 0.5
482 10.668 0.167902 1.65397 0.5
483 7.93 10.7622 3.76337 0.5
484 9.96399 6.99915 4.79876 0.5
485 4.05339 6.14772 1.73488 0.5
486 3.03113 10.7432 8.96053 0.5
487 5.14837 2.65949 8.64775 0.5
488 5.79403 4.62723 6.56177 0.5
489 4.2571 0.0584484 2.85003 0.5
490 2.07217 12.3629 8.45943 0.5
491 1.94498 7.99201 11.9266 0.5
492 1.19372 5.41544 11.5734 0.5
493 10.7746 8.77594 10.6795 0.5
494 8.24428 4.97027 0.0595885 0.5
495 6.65293 8.23059 0.411038 0.5
496 6.8507 12.967 13.3934 0.5
497 6.40777 6.30972 7.37964 0.5
498 3.8779 12.3248 5.2682 0.5
499 7.77531 3.11719 10.9001 0.5
500 13.3325 8.51885 5.3105 0.5
501 4.8514 2.47112 3.92293 0.5
502 9.61665 10.3103 9.3847 0.5
503 8.42091 5.64712 12.1339 0.5
504 2.88687 0.53453 0.304045 0.5
505 4.61599 3.17901 12.0904 0.5
506 3.222 11.9243 0.953369 0.5
507 7.36268 3.63634 3.35414 0.5
508 0.470794 2.15636 6.66937 0.5
509 5.30126 5.39364 6.53746 0.5
510 8.56587 11.5133 11.5887 0.5
511 6.60935 0.495696 5.72585 0.5
512 7.50298 11.0135 4.60519 0.5
513 6.73933 3.45624 2.65229 0.5
514 5.71508 8.32845 0.792279 0.5
515 1.16915 10.7979 3.58693 0.5
516 3.69813 9.24308 3.38602 0.5
517 0.94635 3.50702 3.37088 0.5
518 1.79596 7.08928 8.16552 0.5
519 5.25914 6.71509 9.20482 0.5
520 2.06038 0.689048 0.857089 0.5
521 11.1742 5.34345 5.27959 0.5
522 2.14296 10.5224 11.2182 0.5
523 12.6007 8.15444 3.35486 0.5
524 13.5888 1.29263 6.83874 0.5
525 10.228 10.2428 0.321241 0.5
526 8.37048 12.1141 7.23669 0.5
527 7.20517 10.956 2.63982 0.5
528 1.17244 0.323098 0.371891 0.5
529 12.9103 0.679167 0.208327 0.5
530 12.138 3.88933 11.1544 0.5
531 10.8207 8.91835 11.6421 0.5
532 5.20192 8.49416 3.79678 0.5
533 4.18166 5.99597 11.1319 0.5
534 1.8802 11.4136 10.9348 0.5
535 8.79372 12.4156 0.0409578 0.5
536 2.3049 12.4175 3.62896 0.5
537 3.08554 12.1992 8.4363 0.5
538 7.51248 10.2575 2.00146 0.5
539 1.63645 8.01996 2.60927 0.5
540 1.57024 3.79058 8.96999 0.5
541 4.01332 12.2012 0.49496 0.5
542 8.59734 13.3072 13.2003 0.5
543 13.1995 5.83471 7.41601 0.5
544 8.90484 1.91522 7.93145 0.5
545 1.69703 6.22763 2.95481 0.5
546 1.17024 13.4915 12.9762 0.5
547 10.3383 5.12646 5.68572 0.5
548 11.5524 0.566748 6.51198 0.5
549 13.1231 10.5559 7.50624 0.5
550 12.6914 11.9814 3.80465 0.5
551 6.35849 1.46308 1.74612 0.5
552 2.93497 6.58964 0.21088 0.5
553 11.4287 4.12253 10.3686 0.5
554 3.44178 12.9286 6.71576 0.5
555 0.135943 3.76833 4.0107 0.5
556 8.36206 12.3289 12.6933 0.5
557 7.40619 11.2157 1.66744 0.5
558 4.61583 2.04192 10.3405 0.5
559 3.4772 11.3434 8.36701 0.5
560 7.6661 4.17888 10.6457 0.5
561 8.27061 9.31165 12.9929 0.5
562 13.1412 3.4865 0.64718 0.5
563 9.81562 5.60298 6.53021 0.5
564 8.68225 5.8063 13.1457 0.5
565 9.37835 4.79431 6.10439 0.5
566 6.72868 0.889047 9.43056 0.5
567 11.804 5.25733 4.38745 0.5
568 7.18055 1.60614 10.0169 0.5
569 10.6044 6.332 12.089 0.5
570 12.5273 8.12743 2.36365 0.5
571 3.71934 0.826983 3.2289 0.5
572 3.68898 3.32804 0.332251 0.5
573 0.676497 0.420954 6.97924 0.5
574 9.00636 7.8355 2.27423 0.5
575 8.12448 0.889798 1.77836 0.5
576 3.8864 10.436 8.64146 0.5
577 2.46293 8.6484 2.4393 0.5
578 1.32593 11.6868 0.807668 0.5
579 0.164359 9.42472 12.042 0.5
580 2.68903 5.9701 7.2804 0.5
581 1.41287 12.9817 8.00041 0.5
582 2.68852 11.8952 11.1274 0.5
583 2.39853 10.4777 1.37505 0.5
584 10.4656 6.04739 5.15657 0.5
585 13.385 4.97503 8.01269 0.5
586 13.1603 6.13824 10.6766 0.5
587 1.00299 1.49564 1.78718 0.5
588 13.4917 1.02544 12.9553 0.5
589 13.2948 9.22518 8.97019 0.5
590 3.6379 10.0794 9.49259 0.5
591 4.33076 2.96073 10.6305 0.5
592 11.5104 12.011 10.443 0.5
593 5.63534 9.84067 6.45517 0.5
594 0.00161662 11.7061 5.85679 0.5
595 12.0017 10.6187 6.18512 0.5
596 9.55821 9.70725 3.0508 0.5
597 4.48023 11.2023 8.43222 0.5
598 7.68377 11.5919 5.35184 0.5
599 11.9674 11.5271 8.89264 0.5
600 12.1868 6.14033 12.5761 0.5
601 3.98328 5.7919 2.63367 0.5
602 12.4506 5.74634 10.0146 0.5
603 2.45435 7.89091 11.0602 0.5
604 4.96609 1.47517 10.996 0.5
605 8.60452 3.85746 11.0318 0.5
606 12.9143 8.21117 4.42327 0.5
607 8.89401 9.59368 9.39524 0.5
608 7.88493 11.5482 12.3014 0.5
609 0.38094 12.1546 0.70321 0.5
610 1.35896 8.52114 8.86292 0.5
611 0.368606 8.33473 8.98066 0.5
612 5.85337 12.2065 2.47859 0.5
613 3.5071 5.96943 5.05132 0.5
614 4.17899 12.8946 10.9204 0.5
615 2.41561 11.2959 8.35872 0.5
616 0.349206 6.58625 1.91414 0.5
617 6.84343 5.76938 3.32566 0.5
618 10.948 6.66889 7.84908 0.5
619 11.8953 2.95551 2.54593 0.5
620 0.161559 10.9144 10.7711 0.5
621 1.73024 4.02508 3.85491 0.5
622 5.50057 8.15941 8.58742 0.5
623 12.3155 8.85983 3.98899 0.5
624 0.629501 6.17072 2.81144 0.5
625 2.20513 2.70887 11.6404 0.5
626 2.21516 3.8363 0.994226 0.5
627 11.2494 5.37085 0.574926 0.5
628 11.7671 3.40475 11.9305 0.5
629 6.28041 3.54643 3.58388 0.5
630 2.63642 3.11086 0.613217 0.5
631 9.94072 0.800817 13.1633 0.5
632 7.32239 12.2961 12.7066 0.5
633 10.7428 1.10883 1.30124 0.5
634 10.3557 11.1065 9.45498 0.5
635 10.2643 1.8662 13.2953 0.5
636 10.1714 3.53982 12.9769 0.5
637 12.5409 11.0932 6.78596 0.5
638 5.58575 0.827 4.42393 0.5
639 8.55055 6.96676 10.0324 0.5
640 2.49668 5.01441 6.76352 0.5
641 9.01346 8.25695 6.06135 0.5
642 12.1596 5.91355 0.607792 0.5
643 12.2527 1.87843 7.75686 0.5
644 7.55505 4.3995 9.60514 0.5
645 0.433426 12.5215 5.52878 0.5
646 8.79019 8.69304 12.6239 0.5
647 7.32929 6.55398 11.2818 0.5
648 8.69613 9.63076 12.0995 0.5
649 4.75153 6.78795 11.0691 0.5
650 3.58196 0.679706 8.30692 0.5
651 12.8644 5.3913 6.54851 0.5
652 5.10666 2.94174 7.68793 0.5
653 2.53503 5.75848 0.633365 0.5
654 4.35488 9.92744 10.2353 0.5
655 11.7035 12.414 8.47611 0.5
656 0.479068 11.135 1.08276 0.5
657 11.0395 0.703334 7.2182 0.5
658 9.58959 9.97092 5.91698 0.5
659 0.459534 10.8714 4.33826 0.5
660 0.843967 0.130705 9.56121 0.5
661 1.96567 7.64219 9.02008 0.5
662 3.25032 11.6016 4.92104 0.5
663 5.29378 11.8811 3.24948 0.5
664 6.14098 5.54546 5.96597 0.5
665 9.71589 10.5824 3.41458 0.5
666 6.60466 11.3833 10.8259 0.5
667 10.326 4.12478 8.92425 0.5
668 5.7375 3.40497 2.79235 0.5
669 7.94439 10.2281 2.85654 0.5
670 8.09041 12.998 6.98465 0.5
671 6.4746 8.734 1.21493 0.5
672 3.27615 2.39813 4.95555 0.5
673 5.20928 9.03843 0.271937 0.5
674 2.82893 8.68048 11.7413 0.5
675 2.02504 3.81079 11.6893 0.5
676 2.62937 0.537839 3.16047 0.5
677 2.34387 8.22097 3.39254 0.5
678 11.6673 8.62916 11.1669 0.5
679 11.5489 13.2643 4.91034 0.5
680 3.83775 11.3073 1.00801 0.5
681 3.55881 1.45188 9.01533 0.5
682 1.41858 2.10167 11.6391 0.5
683 1.94232 6.00588 11.4719 0.5
684 11.7327 12.511 3.47604 0.5
685 11.8017 11.6381 4.03188 0.5
686 10.0464 7.17866 11.7245 0.5
687 4.80435 9.4552 13.0202 0.5
688 1.24351 8.03653 5.22667 0.5
689 3.16169 3.82174 1.11447 0.5
690 4.58834 8.44548 6.82409 0.5
691 12.9308 10.9048 12.0843 0.5
692 5.60784 0.328062 0.0193173 0.5
693 11.3319 5.61737 12.2497 0.5
694 5.67412 8.68839 9.39737 0.5
695 11.8917 8.96111 2.15385 0.5
696 11.4731 2.78688 8.94839 0.5
697 13.4422 9.65009 7.97731 0.5
698 6.58186 10.0224 6.89708 0.5
699 2.29994 8.4114 0.0851613 0.5
700 12.5937 9.0134 2.97246 0.5
701 8.3447 8.34206 13.4618 0.5
702 4.23881 2.19544 8.72522 0.5
703 1.35394 4.54428 12.0851 0.5
704 9.6574 2.55542 7.78071 0.5
705 10.0649 8.26621 8.37129 0.5
706 6.22714 11.2554 5.83889 0.5
707 4.14094 4.73667 7.61971 0.5
708 1.28182 0.930607 2.562 0.5
709 10.1877 0.41284 0.82178 0.5
710 6.70104 6.30595 4.24788 0.5
711 0.262938 0.267404 13.4925 0.5
712 12.3151 1.71264 10.2786 0.5
713 8.70545 10.403 8.74252 0.5
714 13.2277 3.95583 8.48262 0.5
715 13.4326 8.40534 2.72937 0.5
716 0.760074 2.44438 10.9161 0.5
717 3.20152 8.27487 0.492639 0.5
718 11.8516 0.93632 7.8717 0.5
719 4.68511 10.3372 11.1508 0.5
720 12.8201 11.6604 2.77638 0.5
721 10.9168 4.68867 9.61332 0.5
722 5.6162 13.6106 11.9229 0.5
723 4.22084 9.24897 9.5352 0.5
724 8.20661 0.188601 9.97673 0.5
725 3.12228 2.17818 6.04064 0.5
726 7.87773 2.56482 6.72012 0.5
727 5.61122 3.57929 13.4766 0.5
728 12.9567 2.91486 5.00439 0.5
729 9.6348 5.69105 1.53208 0.5
730 8.76762 5.44806 6.45115 0.5
731 11.3027 0.370135 0.879882 0.5
732 2.77519 3.46917 7.40553 0.5
733 8.33627 11.6287 1.4649 0.5
734 10.9843 10.9553 6.05707 0.5
735 2.94133 5.90409 8.28146 0.5
736 3.63784 4.54031 11.046 0.5
737 6.04396 4.30002 2.83875 0.5
738 1.46946 7.64437 11.0376 0.5
739 7.21879 0.279352 8.75609 0.5
740 11.5943 0.871409 8.97744 0.5
741 7.71057 4.11657 4.15349 0.5
742 4.92132 8.9627 1.189 0.5
743 9.03678 8.43784 5.01498 0.5
744 4.93613 3.9201 12.7799 0.5
745 8.1516 6.5027 11.8483 0.5
746 4.71714 8.42222 9.37389 0.5
747 13.1656 13.3127 11.8695 0.5
748 7.55907 9.8098 8.14042 0.5
749 4.79552 9.33507 3.25602 0.5
750 1.96364 0.354958 13.4521 0.5
751 0.268209 8.62009 12.6007 0.5
752 2.27048 1.25402 13.5275 0.5
753 6.75886 2.16482 0.165953 0.5
754 2.66961 12.1727 12.0866 0.5
755 6.9219 3.47195 12.5809 0.5
756 6.46458 7.78438 1.18906 0.5
757 11.5154 6.58072 11.899 0.5
758 4.73595 11.954 5.61177 0.5
759 11.6141 7.98945 1.9837 0.5
760 7.87258 5.12628 4.27759 0.5
761 2.91593 10.9752 0.718726 0.5
762 0.608757 3.30612 0.698469 0.5
763 12.3759 0.130811 4.35742 0.5
764 9.39712 8.66896 2.7788 0.5
765 13.5054 2.46965 0.885496 0.5
766 8.05441 2.89001 5.79276 0.5
767 3.59583 7.29835 0.476206 0.5
768 12.2053 13.0085 11.5517 0.5
769 11.5673 2.59367 5.81538 0.5
770 11.3776 8.12268 7.34146 0.5
771 8.14661 7.95911 5.67558 0.5
772 1.26367 2.16442 9.91377 0.5
773 9.90908 3.21962 8.55343 0.5
774 8.7982 1.16167 2.49643 0.5
775 9.16296 1.2586 11.8688 0.5
776 2.19851 9.28175 6.59422 0.5
777 10.8735 11.6961 3.50136 0.5
778 11.8248 11.6564 2.99666 0.5
779 8.39537 8.95549 5.69623 0.5
780 3.91874 11.1271 9.29327 0.5
781 13.0325 2.00453 6.35606 0.5
782 10.6254 2.73351 4.21791 0.5
783 13.4383 10.2179 12.6312 0.5
784 2.50283 1.95474 5.2974 0.5
785 11.2754 9.97345 6.19227 0.5
786 8.48469 3.73513 5.69967 0.5
787 5.53626 11.3543 2.40439 0.5
788 10.8743 6.90234 11.3037 0.5
789 10.047 2.84015 0.972173 0.5
790 8.03537 1.7745 2.239 0.5
791 5.0331 7.17025 11.963 0.5
792 6.17595 2.58648 6.35843 0.5
793 5.812 9.12441 3.25499 0.5
794 12.3878 0.382575 3.38921 0.5
795 9.43532 9.08186 5.73697 0.5
796 2.61134 10.0256 7.13121 0.5
797 4.20367 3.69294 11.366 0.5
798 2.58404 3.37974 3.8282 0.5
799 0.218314 1.60665 5.89783 0.5
800 0.524412 7.8836 13.2292 0.5
801 7.66529 6.07948 3.9558 0.5
802 5.09001 10.8725 11.989 0.5
803 10.6279 11.9578 10.9553 0.5
804 13.1615 7.6016 10.2798 0.5
805 8.70399 7.64542 1.33246 0.5
806 2.75275 7.63094 8.42162 0.5
807 3.38064 5.46665 7.52681 0.5
808 1.69842 8.95515 3.06046 0.5
809 10.1196 4.05681 11.4629 0.5
810 1.75255 12.1787 11.5101 0.5
811 10.3966 7.31427 3.88754 0.5
812 1.91455 8.65275 11.2756 0.5
813 7.45641 5.78849 11.9853 0.5
814 8.76139 13.024 4.4331 0.5
815 12.4063 11.7538 8.0792 0.5
816 8.69278 6.69684 1.20289 0.5
817 10.4128 10.9957 2.94234 0.5
818 3.09613 11.1953 1.70362 0.5
819 6.04378 13.299 7.74315 0.5
820 0.976146 12.5204 8.62457 0.5
821 11.2289 3.08107 4.95767 0.5
822 9.29767 0.229459 4.12108 0.5
823 8.90438 0.51809 11.4338 0.5
824 2.31075 8.17553 5.34586 0.5
825 7.90263 1.75463 1.33879 0.5
826 6.87665 13.115 8.30701 0.5
827 11.6014 0.688839 1.73026 0.5
828 6.11791 3.73822 1.93626 0.5
829 4.83756 1.95017 7.91309 0.5
830 5.05507 12.1626 8.33717 0.5
831 11.9289 0.153816 7.29443 0.5
832 13.2817 5.21933 10.2084 0.5
833 2.32297 11.3651 11.8978 0.5
834 9.23904 1.60756 12.9731 0.5
835 1.76596 5.43403 12.3005 0.5
836 7.66109 9.79259 12.296 0.5
837 6.10672 3.91228 12.6842 0.5
838 12.2824 0.155439 12.1874 0.5
839 4.9879 6.19246 1.38488 0.5
840 7.82616 12.6856 13.4471 0.5
841 5.87675 10.8079 6.74628 0.5
842 12.528 4.00098 12.1159 0.5
843 12.172 3.54276 0.700821 0.5
844 4.57425 3.62161 0.204408 0.5
845 10.2312 4.74882 6.55418 0.5
846 5.8465 12.3369 9.56686 0.5
847 4.25825 7.57033 6.37198 0.5
848 4.13305 6.64797 11.8188 0.5
849 0.481886 13.2454 6.31473 0.5
850 10.3824 12.166 11.8475 0.5
851 6.81703 10.9468 6.69178 0.5
852 7.23541 10.4141 7.51465 0.5
853 4.26503 6.58416 9.19163 0.5
854 10.2128 6.36302 4.09537 0.5
855 8.88591 11.2686 3.63092 0.5
856 3.42905 13.4668 3.40793 0.5
857 9.91476 4.63918 9.65716 0.5
858 7.86574 9.65839 9.11418 0.5
859 11.136 4.56911 5.9057 0.5
860 10.1901 4.09387 5.81755 0.5
861 10.5838 0.348141 6.23749 0.5
862 10.2173 6.29556 11.1482 0.5
863 7.90534 8.66921 4.92153 0.5
864 7.68196 7.4348 7.31193 0.5
865 11.8912 3.52026 1.71336 0.5
866 5.47126 11.8247 1.51287 0.5
867 12.7045 3.46916 2.23846 0.5
868 9.89132 9.39214 9.46705 0.5
869 4.96055 0.646841 0.63203 0.5
870 3.59545 8.37357 6.41681 0.5
871 12.2999 8.72449 4.98189 0.5
872 1.20713 6.22665 12.1177 0.5
873 13.2522 0.923642 2.98895 0.5
874 7.83937 6.2009 12.8185 0.5
875 6.94963 11.8248 6.04354 0.5
876 2.03195 6.01248 8.13025 0.5
877 11.0481 8.27012 8.32408 0.5
878 1.90762 10.8275 0.544432 0.5
879 2.49183 4.07399 6.66276 0.5
880 12.4502 0.583081 1.09932 0.5
881 10.5587 11.3078 12.4918 0.5
882 1.40696 10.3347 4.36922 0.5
883 10.4628 12.7183 1.96138 0.5
884 13.5036 3.26391 1.54932 0.5
885 8.33308 10.7411 10.9258 0.5
886 1.46846 2.88008 8.65552 0.5
887 1.00402 0.846804 13.1226 0.5
888 5.63315 4.71 2.02079 0.5
889 11.3298 3.75399 9.23947 0.5
890 12.6248 8.63126 6.00038 0.5
891 3.11252 5.56484 3.119 0.5
892 8.83151 13.2773 10.6605 0.5
893 10.9242 3.45209 8.42352 0.5
894 7.89214 7.04787 1.71047 0.5
895 11.6293 9.20684 0.75499 0.5
896 7.12177 12.0477 0.153775 0.5
897 6.32512 11.552 3.10349 0.5
898 4.8386 12.0272 2.35371 0.5
899 10.485 4.49985 10.5855 0.5
900 11.7114 12.3252 9.49969 0.5
901 13.3134 5.98313 9.67149 0.5
902 11.6556 6.58029 8.6004 0.5
903 9.73656 8.03865 3.48721 0.5
904 7.91386 3.41151 4.89827 0.5
905 13.2725 5.852 5.80156 0.5
906 12.6777 5.49229 4.03818 0.5
907 6.75212 4.11629 10.2462 0.5
908 8.24279 0.319906 4.23838 0.5
909 9.53699 3.57691 3.0814 0.5
910 8.36478 1.60619 7.02489 0.5
911 5.58935 6.50271 12.4258 0.5
912 7.72056 8.17481 11.1474 0.5
913 11.7223 5.68823 13.3118 0.5
914 4.4341 0.947641 1.37038 0.5
915 8.51928 3.29779 6.55613 0.5
916 10.5505 8.75026 7.63481 0.5
917 12.16 1.04287 11.8141 0.5
918 8.71324 6.38563 8.065 0.5
919 12.3698 11.6799 0.827422 0.5
920 0.829294 11.7728 9.35193 0.5
921 6.91921 6.05521 6.45902 0.5
922 13.3973 3.64369 12.2775 0.5
923 0.976666 3.03937 9.47979 0.5
924 11.0221 12.8039 9.08795 0.5
925 10.2499 4.3169 2.84182 0.5
926 4.9287 10.5243 12.9456 0.5
927 1.84417 7.31223 5.15698 0.5
928 13.0493 6.33382 6.57365 0.5
929 1.73445 2.35309 10.7659 0.5
930 10.47 10.0996 8.95751 0.5
931 5.38195 9.19119 12.0328 0.5
932 3.2697 8.39498 2.96804 0.5