ITEM: TIMESTEP
670000
ITEM: NUMBER OF ATOMS
1000
ITEM: BOX BOUNDS xy xz yz pp pp pp
0.0000000000000000e+00 1.3572088000000001e+01 0.0000000000000000e+00
0.0000000000000000e+00 1.3572088000000001e+01 0.0000000000000000e+00
0.0000000000000000e+00 1.3572088000000001e+01 0.0000000000000000e+00
ITEM: ATOMS id x y z radius
1 4.621 3.61403 11.7456 0.5
2 4.62117 11.4411 4.82657 0.5
3 8.84062 9.77891 3.01764 0.5
4 9.79868 6.12888 1.21042 0.5
5 8.45647 7.7606 10.4077 0.5
6 3.31254 12.8516 5.12271 0.5
7 2.32269 7.7676 1.57928 0.5
8 13.505 11.5874 2.54073 0.5
9 1.87304 8.30542 6.70155 0.5
10 3.09947 0.0294517 11.4879 0.5
11 0.377271 9.23812 9.26963 0.5
12 10.2015 5.90169 0.255585 0.5
13 7.44599 11.6094 4.2693 0.5
14 10.8158 2.46383 4.11039 0.5
15 5.29892 1.12897 5.02732 0.5
16 7.71916 6.6499 9.41606 0.5
17 7.14697 12.406 10.6834 0.5
18 2.77845 8.40351 6.27533 0.5
19 9.9908 5.25689 1.88241 0.5
20 10.8846 10.5364 2.84219 0.5
21 2.02947 4.89854 0.769863 0.5
22 1.3965 6.47005 12.2228 0.5
23 1.79467 1.22846 10.3394 0.5
24 7.37484 7.30509 1.95513 0.5
25 0.463519 5.58224 2.03492 0.5
26 10.1207 10.3088 6.3207 0.5
27 11.2609 6.84569 12.4268 0.5
28 5.64628 11.5231 11.7797 0.5
29 13.2516 5.59516 1.41775 0.5
30 8.52809 10.8784 1.71222 0.5
31 0.830475 0.228408 8.37763 0.5
32 9.75279 3.14848 12.8528 0.5
33 0.0195947 6.66236 10.0877 0.5
34 3.61663 8.86684 5.71082 0.5
35 11.7838 6.51405 13.3282 0.5
36 8.65332 2.32113 4.93233 0.5
37 13.464 1.27272 2.88292 0.5
38 2.2738 1.89266 2.37108 0.5
39 10.1797 4.45577 1.38282 0.5
40 5.7741 6.21955 6.65658 0.5
41 7.00137 11.1104 4.94731 0.5
42 6.8859 5.26758 3.23002 0.5
43 5.91348 5.25621 10.3215 0.5
44 4.57719 11.9349 8.29811 0.5
45 7.27191 6.34378 1.94332 0.5
46 10.4827 10.7228 -0.00795531 0.5
47 2.63033 9.29827 5.63682 0.5
48 8.20687 10.7353 0.787799 0.5
49 5.97321 11.7826 9.70966 0.5
50 5.56702 1.28681 10.1692 0.5
51 13.5377 9.75439 7.33129 0.5
52 6.64041 10.884 7.41848 0.5
53 9.57276 3.72955 1.52288 0.5
54 11.4201 11.5447 4.06147 0.5
55 0.782026 0.51789 4.7469 0.5
56 13.3281 3.8206 3.62567 0.5
57 0.381881 11.3003 11.6591 0.5
58 5.65918 8.64765 10.5214 0.5
59 1.61629 10.4143 11.1207 0.5
60 7.77242 4.99591 9.4375 0.5
61 3.94479 0.721127 11.2791 0.5
62 0.551381 7.78858 0.636919 0.5
63 11.6639 8.60184 2.12461 0.5
64 12.6189 2.20683 9.61425 0.5
65 0.410806 1.76219 5.79581 0.5
66 12.1804 1.46355 1.97188 0.5
67 8.2807 3.00259 8.76123 0.5
68 3.14327 1.51852 2.84924 0.5
69 11.9824 2.3912 10.4729 0.5
70 12.4697 3.85757 9.93619 0.5
71 3.60122 5.96546 8.4237 0.5
72 7.27885 2.06969 10.8428 0.5
73 8.48271 6.74813 8.72111 0.5
74 6.39899 4.46648 10.2801 0.5
75 9.0769 0.29252 10.2927 0.5
76 12.0935 3.21313 13.2801 0.5
77 10.0731 2.8514 3.49096 0.5
78 8.72552 3.12198 5.49296 0.5
79 3.88721 12.5412 5.8103 0.5
80 5.39302 2.37571 8.37691 0.5
81 1.19187 3.51611 11.4376 0.5
82 1.15669 8.66277 0.5411 0.5
83 3.11089 0.849443 6.19668 0.5
84 0.411829 8.50331 8.53915 0.5
85 0.105043 4.09654 6.53109 0.5
86 2.59362 0.534067 13.202 0.5
87 4.29658 5.68445 6.03784 0.5
88 6.61148 5.47101 4.25556 0.5
89 11.6816 12.5472 7.46378 0.5
90 4.32165 6.07406 4.40046 0.5
91 11.6133 7.79431 11.9858 0.5
92 13.2013 1.53482 1.94061 0.5
93 13.3487 0.602659 12.8387 0.5
94 4.71094 10.5462 12.6424 0.5
95 11.9166 1.55102 8.03436 0.5
96 11.5629 3.07489 4.25216 0.5
97 11.7766 3.0706 5.35814 0.5
98 11.113 9.78343 0.0329081 0.5
99 6.68899 8.8041 9.22767 0.5
100 0.51765 7.38668 6.49123 0.5
101 4.48378 11.5282 2.88229 0.5
102 8.58209 7.26354 9.53953 0.5
103 4.93941 4.91072 10.6313 0.5
104 7.29192 11.1976 5.87446 0.5
105 11.6604 12.472 6.47303 0.5
106 5.69874 1.61326 11.1801 0.5
107 13.1955 5.68026 7.03315 0.5
108 13.4132 10.1238 5.4729 0.5
109 1.21365 12.3869 9.01278 0.5
110 8.34055 9.34793 8.44646 0.5
111 8.36685 0.242952 3.19885 0.5
112 6.21492 0.962353 5.10489 0.5
113 0.407412 0.012112 6.28285 0.5
114 7.23024 6.7898 2.91967 0.5
115 5.5779 6.42837 11.7566 0.5
116 13.1918 5.14123 2.22064 0.5
117 13.3539 0.966926 5.97136 0.5
118 10.6407 9.37816 6.23398 0.5
119 12.0806 7.85476 1.65397 0.5
120 5.48769 9.225 3.82657 0.5
121 12.1877 0.0497497 10.7279 0.5
122 2.01637 4.08939 2.11583 0.5
123 11.9339 2.2955 8.80997 0.5
124 10.4626 11.2793 11.5616 0.5
125 4.74537 11.5357 3.76738 0.5
126 11.136 11.4216 13.3109 0.5
127 7.90009 9.95989 10.903 0.5
128 5.41147 3.35365 8.07029 0.5
129 2.39781 6.43872 12.2701 0.5
130 0.787691 11.9698 11.0636 0.5
131 8.00962 2.07997 1.90208 0.5
132 5.25354 11.6111 2.17799 0.5
133 0.769117 10.9166 10.9091 0.5
134 10.8367 11.3868 3.29022 0.5
135 11.9848 2.09595 5.79447 0.5
136 7.97859 4.79338 4.62711 0.5
137 2.86192 12.6443 5.96134 0.5
138 7.78141 12.2995 13.2067 0.5
139 5.26319 12.8554 0.249821 0.5
140 5.09799 3.8354 4.07646 0.5
141 1.75627 3.73816 4.1057 0.5
142 10.0158 2.76815 11.8353 0.5
143 0.657563 12.6991 0.31012 0.5
144 8.55221 12.6603 8.80633 0.5
145 6.51596 6.85632 2.09533 0.5
146 10.0976 9.02769 8.34515 0.5
147 4.61603 6.54301 1.21791 0.5
148 12.172 0.573563 11.4552 0.5
149 8.12148 6.81561 10.3727 0.5
150 12.4405 11.6937 3.78433 0.5
151 6.94567 12.176 9.69689 0.5
152 4.5951 4.55844 11.5522 0.5
153 11.6742 8.729 7.76266 0.5
154 2.02637 3.04461 2.36951 0.5
155 3.04699 8.32768 10.6865 0.5
156 8.29445 12.4118 0.28631 0.5
157 1.27059 0.583162 3.17223 0.5
158 1.4637 10.2228 8.45135 0.5
159 3.7947 1.62437 9.63153 0.5
160 9.67259 0.350895 11.1637 0.5
161 12.7028 2.9659 10.3315 0.5
162 7.50429 2.23581 8.67984 0.5
163 11.7158 9.74701 0.835425 0.5
164 9.57415 3.49124 11.1186 0.5
165 7.44994 11.591 11.2818 0.5
166 10.8854 13.0001 7.05324 0.5
167 10.8407 8.29963 7.90213 0.5
168 1.20096 3.24796 7.39925 0.5
169 10.5091 11.2043 12.6456 0.5
170 4.20171 6.63305 0.234989 0.5
171 10.5645 5.3795 1.04788 0.5
172 12.2398 8.06029 10.4852 0.5
173 9.14019 10.2246 2.12994 0.5
174 4.95729 0.869695 0.572337 0.5
175 2.54877 6.16157 4.2678 0.5
176 4.06757 5.8105 3.4398 0.5
177 8.15371 4.88989 6.38016 0.5
178 4.89845 1.96355 4.58103 0.5
179 12.3286 5.69981 2.04111 0.5
180 9.15678 3.12578 12.0116 0.5
181 10.9309 11.2731 9.60411 0.5
182 2.91067 11.5938 1.34551 0.5
183 8.11001 7.11667 6.03734 0.5
184 10.6773 5.82367 8.97796 0.5
185 8.68099 13.5477 11.2929 0.5
186 4.73387 8.06884 2.82563 0.5
187 5.1301 0.196423 13.3766 0.5
188 4.81533 6.02606 6.89229 0.5
189 0.675398 11.1405 6.39147 0.5
190 8.88633 12.8359 3.1498 0.5
191 9.47335 6.92943 3.69186 0.5
192 9.80497 1.2498 0.316188 0.5
193 11.6814 1.91199 9.69172 0.5
194 9.42383 13.0718 10.8159 0.5
195 13.3813 9.58757 12.7739 0.5
196 8.62512 1.30998 4.4287 0.5
197 2.75083 6.63172 8.32254 0.5
198 6.05815 6.13372 12.6289 0.5
199 11.8825 0.72414 8.35423 0.5
200 6.8468 6.8854 1.17835 0.5
201 13.4136 4.04714 7.51602 0.5
202 6.29717 13.0855 7.80022 0.5
203 1.45357 4.26952 1.19999 0.5
204 3.51838 7.88316 8.8652 0.5
205 12.31 13.5088 4.03283 0.5
206 0.944008 1.39015 9.96526 0.5
207 4.46943 11.9268 9.29102 0.5
208 8.60104 4.06874 5.96637 0.5
209 5.27032 1.99278 3.62659 0.5
210 4.35752 6.50963 5.31915 0.5
211 4.42435 4.38052 9.92857 0.5
212 3.42019 5.58928 4.23913 0.5
213 3.53908 1.76578 6.23111 0.5
214 10.062 4.41272 11.1879 0.5
215 7.79903 6.88055 1.07829 0.5
216 6.16634 8.60115 0.0552754 0.5
217 3.7133 11.179 4.90658 0.5
218 6.66069 8.32024 4.49501 0.5
219 9.02399 0.777581 3.72097 0.5
220 6.7979 2.70843 10.1235 0.5
221 3.37182 3.30116 5.94713 0.5
222 6.44904 11.7458 5.55418 0.5
223 4.64953 9.02369 3.35908 0.5
224 12.87 9.3092 3.63729 0.5
225 8.19278 10.9821 10.9428 0.5
226 10.8161 6.58634 13.5083 0.5
227 0.59082 7.47797 9.97584 0.5
228 4.14673 11.5785 5.71148 0.5
229 6.13135 4.12849 6.7834 0.5
230 6.34799 9.81568 8.99651 0.5
231 8.17447 5.81577 8.91786 0.5
232 8.04574 4.58387 12.8249 0.5
233 1.48941 0.460543 9.81368 0.5
234 11.6086 2.35239 4.89229 0.5
235 1.40923 10.5259 2.99961 0.5
236 10.7885 6.33366 0.98208 0.5
237 5.38756 8.01655 6.47279 0.5
238 0.809478 12.5285 6.16981 0.5
239 9.96273 7.69758 3.88956 0.5
240 1.16416 4.99516 12.9534 0.5
241 4.41447 5.64799 0.582145 0.5
242 2.63353 0.925442 2.1892 0.5
243 2.58654 9.49759 3.80726 0.5
244 3.32301 11.8078 6.35491 0.5
245 1.36577 11.3111 11.6469 0.5
246 9.78895 10.0743 8.2747 0.5
247 3.37037 0.291374 10.4626 0.5
248 7.45799 2.67242 2.43092 0.5
249 10.0071 1.47916 12.9425 0.5
250 10.529 1.91963 0.113619 0.5
251 4.33748 10.4543 11.7191 0.5
252 8.37457 8.5545 12.9552 0.5
253 1.41173 7.83289 1.14301 0.5
254 10.5078 2.81644 2.53379 0.5
255 8.52801 9.36846 2.24385 0.5
256 1.624 13.1616 3.19345 0.5
257 0.803845 4.06977 7.2114 0.5
258 13.1166 6.74358 5.2857 0.5
259 5.11899 5.16482 9.60193 0.5
260 6.66807 11.6359 10.5388 0.5
261 11.0902 3.47097 6.02135 0.5
262 7.36517 12.0109 5.12016 0.5
263 2.03503 4.28565 8.56298 0.5
264 10.2964 10.8025 8.96754 0.5
265 1.77628 4.26415 5.02153 0.5
266 3.57047 13.4647 5.92091 0.5
267 5.22879 8.06988 9.09646 0.5
268 6.96475 2.29565 1.70648 0.5
269 9.39066 13.1946 8.76883 0.5
270 6.84634 10.1782 8.16358 0.5
271 10.9727 11.8787 7.08573 0.5
272 6.00946 9.17397 0.880026 0.5
273 7.83062 4.62508 3.27828 0.5
274 10.5484 5.18624 9.73169 0.5
275 2.49942 10.778 0.965638 0.5
276 4.25549 2.55552 0.0399592 0.5
277 7.41021 5.18685 13.2661 0.5
278 11.4511 10.6656 0.325065 0.5
279 9.7963 11.9113 5.8169 0.5
280 4.41366 12.1477 2.13414 0.5
281 6.46319 2.3779 11.2196 0.5
282 0.132074 11.614 1.5587 0.5
283 5.46259 4.65455 1.20203 0.5
284 1.74275 10.9599 0.366421 0.5
285 3.48288 9.82241 5.70555 0.5
286 2.13268 1.23745 12.5469 0.5
287 7.72728 7.4891 6.87732 0.5
288 5.5118 0.110719 6.43526 0.5
289 2.11283 10.5291 3.73047 0.5
290 13.5871 12.7139 5.61248 0.5
291 5.53836 0.18293 5.33524 0.5
292 4.44063 3.3328 12.7954 0.5
293 10.6317 5.40665 4.47078 0.5
294 2.71692 10.1632 6.27864 0.5
295 2.70949 1.613 6.76021 0.5
296 0.294556 4.86231 7.08069 0.5
297 10.5141 10.3729 10.9908 0.5
298 9.8186 4.63611 12.2035 0.5
299 1.56574 0.628295 13.1918 0.5
300 9.17505 4.76599 1.50074 0.5
301 6.10186 7.31687 11.5416 0.5
302 2.92554 9.16452 2.89579 0.5
303 12.2438 9.13853 2.82197 0.5
304 0.331273 7.44447 5.51244 0.5
305 8.07604 12.8435 8.01619 0.5
306 11.1629 8.23284 1.36471 0.5
307 2.47247 6.78187 3.5139 0.5
308 0.709167 9.872 12.5967 0.5
309 12.9593 13.2694 13.1805 0.5
310 8.25272 0.352003 4.23956 0.5
311 13.4627 6.62893 6.84763 0.5
312 7.69401 11.649 10.3522 0.5
313 0.707727 9.91236 3.36439 0.5
314 6.10377 12.6814 9.27332 0.5
315 12.2153 4.74867 2.53038 0.5
316 8.41589 6.20763 7.89816 0.5
317 13.291 8.30251 3.91287 0.5
318 0.414619 5.72029 6.53962 0.5
319 10.8983 11.4858 0.730713 0.5
320 5.4771 3.46893 7.07403 0.5
321 2.64839 13.1776 3.02264 0.5
322 10.7025 0.307026 1.39735 0.5
323 3.18581 1.79542 1.82103 0.5
324 10.427 3.71294 3.03039 0.5
325 1.59371 5.55329 0.179722 0.5
326 9.95005 13.3018 1.17799 0.5
327 8.84078 3.02111 7.78932 0.5
328 12.2625 7.07925 12.5028 0.5
329 9.08935 2.85259 9.42271 0.5
330 8.09706 1.56049 5.29886 0.5
331 4.74727 2.57782 3.00319 0.5
332 12.3221 1.41654 8.90529 0.5
333 12.6229 1.68174 2.79897 0.5
334 4.20221 5.59429 1.48113 0.5
335 9.23963 0.541299 4.68222 0.5
336 4.79238 2.0018 9.08804 0.5
337 11.5793 0.212402 12.2522 0.5
338 7.73075 5.86943 9.93684 0.5
339 9.8445 4.39244 2.2918 0.5
340 11.8865 3.67077 11.623 0.5
341 8.69352 13.5109 9.36899 0.5
342 6.35372 0.322558 5.95506 0.5
343 7.21115 5.81073 9.02602 0.5
344 5.12998 6.91893 6.77469 0.5
345 8.69199 7.80242 5.64678 0.5
346 1.20156 7.04951 5.783 0.5
347 12.8704 11.9572 1.04123 0.5
348 1.25227 4.51646 0.240903 0.5
349 7.39476 6.59761 6.53395 0.5
350 8.5846 7.24311 11.2755 0.5
351 2.59955 9.18632 11.005 0.5
352 8.40743 12.4836 7.19543 0.5
353 8.41194 7.58298 0.671653 0.5
354 2.54421 2.86398 5.68163 0.5
355 1.74904 6.70713 4.04917 0.5
356 11.3726 13.4143 4.41728 0.5
357 6.52047 11.3985 3.54472 0.5
358 3.92541 0.584213 9.68816 0.5
359 7.32947 9.43685 8.71339 0.5
360 12.8268 3.69204 6.77961 0.5
361 3.52383 1.25505 7.14633 0.5
362 1.78763 1.23176 9.30475 0.5
363 10.3122 12.2826 0.954229 0.5
364 2.99811 7.00321 1.30031 0.5
365 2.28501 7.30757 0.649436 0.5
366 6.55397 9.19715 8.14108 0.5
367 10.1881 11.701 13.5731 0.5
368 6.00307 4.76012 9.44232 0.5
369 1.94792 3.2483 4.97034 0.5
370 0.388309 10.1474 6.28692 0.5
371 8.93356 13.352 4.00562 0.5
372 0.16519 4.83042 3.72853 0.5
373 3.66527 2.70006 12.7965 0.5
374 0.638264 9.2354 13.3815 0.5
375 0.53492 10.1133 8.89895 0.5
376 1.13253 10.6377 3.94352 0.5
377 7.63423 5.43459 3.84007 0.5
378 5.96144 9.57237 13.4504 0.5
379 4.49236 4.76607 1.06107 0.5
380 7.7099 4.26076 0.115119 0.5
381 10.1224 3.86612 8.50143 0.5
382 9.90034 2.93635 8.0494 0.5
383 2.12347 4.81766 13.3018 0.5
384 5.7184 10.2301 12.6444 0.5
385 12.7622 11.3356 1.86057 0.5
386 0.268878 4.18291 4.45699 0.5
387 3.06904 6.69418 11.4793 0.5
388 1.62338 2.14545 10.0325 0.5
389 3.3187 9.82442 11.3477 0.5
390 5.45493 4.29001 10.1232 0.5
391 6.99766 0.705343 2.32422 0.5
392 12.8575 4.69595 3.2226 0.5
393 2.93332 4.65654 8.79533 0.5
394 9.17239 9.37606 7.92687 0.5
395 1.71584 0.4122 8.82431 0.5
396 13.4238 2.24777 2.63045 0.5
397 7.45519 1.36071 1.54132 0.5
398 9.07251 11.7572 3.07842 0.5
399 1.1536 4.55757 4.24471 0.5
400 7.21427 9.1385 4.70743 0.5
401 10.391 2.41216 12.6941 0.5
402 4.83572 7.34864 5.82779 0.5
403 6.62903 0.552378 7.70099 0.5
404 11.261 11.3506 12.1928 0.5
405 12.124 5.5996 13.1605 0.5
406 6.81085 2.8541 0.928673 0.5
407 1.62793 11.4076 3.58421 0.5
408 2.5196 3.81291 5.51547 0.5
409 3.86242 4.74324 10.7275 0.5
410 11.0859 2.9866 3.30933 0.5
411 5.18415 5.55554 1.11561 0.5
412 5.67258 0.148128 0.585092 0.5
413 2.72722 5.83468 7.70121 0.5
414 3.324 8.79859 11.5774 0.5
415 8.47279 10.2671 11.7008 0.5
416 9.01094 11.2845 5.41493 0.5
417 0.94005 13.3007 9.19741 0.5
418 9.83495 0.965302 10.3302 0.5
419 3.22525 12.9535 10.6866 0.5
420 3.49657 0.261271 6.93463 0.5
421 13.0453 5.72106 10.0347 0.5
422 7.80857 4.51537 5.56976 0.5
423 12.3336 0.0538902 2.9972 0.5
424 3.03945 3.26678 4.91508 0.5
425 8.53404 8.24535 11.2878 0.5
426 0.57111 12.8792 8.37331 0.5
427 7.63438 2.24658 1.01613 0.5
428 1.1295 8.54885 9.27099 0.5
429 11.5475 5.87616 8.50961 0.5
430 9.47125 13.2375 11.8588 0.5
431 2.33351 5.0797 8.01946 0.5
432 12.498 2.37428 2.05157 0.5
433 7.90737 11.4773 0.20409 0.5
434 0.135485 3.16253 13.512 0.5
435 11.2098 9.25326 1.3655 0.5
436 6.83453 5.27495 9.84598 0.5
437 4.19965 9.35912 6.38595 0.5
438 5.84595 2.68687 7.53241 0.5
439 11.2605 10.6128 10.2293 0.5
440 9.45679 11.1117 6.34988 0.5
441 5.67267 0.901087 5.89995 0.5
442 1.56864 7.32338 6.70967 0.5
443 1.03304 12.1894 1.18388 0.5
444 9.21131 9.11304 13.0603 0.5
445 5.1833 8.23758 3.73601 0.5
446 3.37015 6.30859 4.91968 0.5
447 2.25336 9.24653 6.59807 0.5
448 5.27762 9.87046 0.584337 0.5
449 3.20339 12.662 11.6456 0.5
450 2.37109 2.56162 1.58009 0.5
451 7.71692 3.25946 0.644931 0.5
452 2.14417 8.29101 0.666644 0.5
453 4.79647 9.05331 2.27608 0.5
454 3.00082 0.504237 2.93797 0.5
455 1.26715 2.52988 11.5366 0.5
456 8.52544 13.5318 8.4192 0.5
457 12.2974 11.3923 8.47272 0.5
458 4.4277 0.338751 10.5384 0.5
459 11.8468 2.90573 6.37049 0.5
460 12.75 6.33089 13.0895 0.5
461 11.7318 8.54756 11.3085 0.5
462 10.1863 4.60102 7.9207 0.5
463 5.45649 2.63203 6.59353 0.5
464 0.176634 8.17617 9.49712 0.5
465 5.31604 10.5662 11.9072 0.5
466 2.6909 13.5321 6.44165 0.5
467 1.44763 7.7877 0.176908 0.5
468 0.799508 7.66318 8.93145 0.5
469 2.1504 3.03973 11.301 0.5
470 2.02443 6.69386 11.4457 0.5
471 3.90997 1.15805 10.532 0.5
472 10.9573 6.4175 4.36321 0.5
473 11.1003 8.5618 6.82402 0.5
474 3.72632 6.95565 8.67099 0.5
475 5.505 3.58971 6.18016 0.5
476 6.21477 0.842821 10.758 0.5
477 5.91673 8.18614 9.70165 0.5
478 3.26494 12.2708 0.564698 0.5
479 8.50548 7.61262 13.3049 0.5
480 4.56405 10.9461 7.98464 0.5
481 2.05584 3.88287 0.435434 0.5
482 10.8755 13.0968 0.900155 0.5
483 8.9262 10.8403 2.78222 0.5
484 10.0318 6.92039 4.48057 0.5
485 5.6792 4.27195 2.18334 0.5
486 3.96032 11.2652 8.74264 0.5
487 4.59135 2.8552 8.49812 0.5
488 5.6269 5.32922 7.15991 0.5
489 3.61817 0.927507 2.14432 0.5
490 0.154435 12.6379 9.18496 0.5
491 2.53841 7.39115 11.9693 0.5
492 1.09017 5.49448 12.1238 0.5
493 11.9688 9.09436 10.5031 0.5
494 6.74544 4.58032 0.107737 0.5
495 6.45235 7.65958 0.523399 0.5
496 6.9203 0.119664 13.2363 0.5
497 5.28428 4.5231 6.57343 0.5
498 3.16786 11.9111 5.41767 0.5
499 6.66631 1.42579 11.3585 0.5
500 9.8346 9.42923 5.94504 0.5
501 5.01673 1.06917 4.06517 0.5
502 9.48083 10.3361 9.24782 0.5
503 7.11713 5.93111 12.5569 0.5
504 2.08933 1.39672 13.5231 0.5
505 3.54872 3.35355 12.1057 0.5
506 3.58116 10.8065 1.32148 0.5
507 8.13913 4.01646 4.01854 0.5
508 0.0647649 1.2451 5.02453 0.5
509 5.26453 5.52019 6.18223 0.5
510 7.52101 10.5971 11.6125 0.5
511 6.16214 0.802564 6.75541 0.5
512 9.96603 11.0963 2.93856 0.5
513 4.78181 4.33751 2.68042 0.5
514 5.73486 8.294 0.973092 0.5
515 2.2027 9.85863 2.9926 0.5
516 5.5202 8.82904 2.93648 0.5
517 1.05966 3.58352 4.6952 0.5
518 3.20621 6.32305 9.23849 0.5
519 5.19508 7.83916 10.1951 0.5
520 1.9645 0.552807 0.51071 0.5
521 11.1898 6.03602 5.25052 0.5
522 2.82025 9.29531 12.0148 0.5
523 12.9403 7.65698 3.37374 0.5
524 0.0429903 0.181609 5.32481 0.5
525 11.348 8.87447 0.437893 0.5
526 8.69477 12.0061 8.04809 0.5
527 7.60274 10.5495 1.54769 0.5
528 1.0129 0.125099 0.326559 0.5
529 0.0549005 12.5412 1.12645 0.5
530 11.948 2.95845 9.59215 0.5
531 11.2297 8.30532 10.4722 0.5
532 6.31476 9.1925 4.38927 0.5
533 6.16455 7.7182 10.5149 0.5
534 2.39807 12.9492 11.3291 0.5
535 8.44927 13.0421 13.1345 0.5
536 2.16206 12.3226 3.35955 0.5
537 3.31392 10.5848 9.07304 0.5
538 8.45344 9.90539 1.37603 0.5
539 1.94594 7.64201 3.69302 0.5
540 0.354282 3.38195 8.01901 0.5
541 3.60026 11.5156 2.16754 0.5
542 7.85855 0.415703 13.1062 0.5
543 13.0122 6.02918 6.09372 0.5
544 9.17674 2.44132 8.56102 0.5
545 1.60524 6.92448 3.00622 0.5
546 0.588687 0.82861 13.3997 0.5
547 10.5922 5.23077 5.35305 0.5
548 11.8018 13.3682 6.87028 0.5
549 11.9436 10.4176 8.56887 0.5
550 12.4601 12.6895 3.37764 0.5
551 6.45837 1.47518 1.70944 0.5
552 3.89153 7.29751 0.964317 0.5
553 10.7154 6.27005 8.03002 0.5
554 3.39169 12.8702 6.70954 0.5
555 0.812498 3.79831 3.69837 0.5
556 7.57014 13.1381 12.6633 0.5
557 7.17912 11.0772 0.716151 0.5
558 4.63785 1.21008 9.85351 0.5
559 3.54071 10.5844 8.07632 0.5
560 7.06618 2.13196 11.9113 0.5
561 8.09228 8.7771 12.0668 0.5
562 12.8992 2.63658 13.1873 0.5
563 8.28667 6.72456 7.04468 0.5
564 6.54069 5.08634 12.8386 0.5
565 8.62702 4.97493 5.49338 0.5
566 6.41405 1.75962 10.3978 0.5
567 12.8541 4.43631 4.20134 0.5
568 7.16627 1.05924 10.5255 0.5
569 10.9569 7.09833 11.5248 0.5
570 13.0221 7.71305 2.40839 0.5
571 2.17746 1.13803 3.11957 0.5
572 5.26175 2.84991 13.3759 0.5
573 0.866451 13.3465 5.48431 0.5
574 9.12563 7.79574 3.28451 0.5
575 8.75881 13.5176 2.33796 0.5
576 3.7241 11.5133 7.89629 0.5
577 3.95425 8.67794 2.66755 0.5
578 1.81741 11.5429 1.13252 0.5
579 0.197173 9.63873 11.7865 0.5
580 2.78647 4.96461 7.18328 0.5
581 1.54853 13.079 8.38787 0.5
582 2.75982 12.0822 10.9784 0.5
583 2.55529 10.4875 13.5597 0.5
584 10.2005 6.16407 5.06789 0.5
585 13.3286 5.00552 6.21212 0.5
586 0.33817 5.78652 9.59747 0.5
587 12.5786 2.93825 1.2138 0.5
588 13.2307 12.4553 0.186037 0.5
589 0.143779 9.4143 8.32726 0.5
590 3.62135 12.2013 8.70264 0.5
591 4.05718 4.14305 12.3655 0.5
592 10.6992 11.2878 10.5479 0.5
593 6.61146 9.88602 7.3194 0.5
594 13.376 10.9097 6.05997 0.5
595 12.9742 10.0794 6.42465 0.5
596 9.51874 9.27855 2.50554 0.5
597 3.27582 9.73593 8.69706 0.5
598 7.95742 11.2842 5.15372 0.5
599 11.2464 11.192 8.66204 0.5
600 11.9846 6.19084 12.4551 0.5
601 2.96728 5.89255 3.34543 0.5
602 0.932316 6.44268 10.2364 0.5
603 3.32495 7.7668 11.5535 0.5
604 4.78629 1.2105 10.8679 0.5
605 7.62853 1.29636 11.4767 0.5
606 11.3452 9.59286 5.42267 0.5
607 8.8079 10.2453 8.40396 0.5
608 8.40569 13.5591 12.3986 0.5
609 1.33506 11.843 0.280748 0.5
610 1.27726 9.56445 9.21691 0.5
611 1.03259 9.26919 8.38795 0.5
612 5.81216 12.8535 3.27499 0.5
613 3.96631 5.56304 5.13934 0.5
614 3.95499 13.3039 11.1179 0.5
615 4.20556 10.2763 8.72936 0.5
616 13.1754 6.12201 2.34777 0.5
617 6.55411 6.00804 2.62905 0.5
618 11.5751 7.68852 8.27231 0.5
619 12.8122 3.7427 11.9121 0.5
620 0.803213 10.3881 11.7979 0.5
621 2.61641 4.00087 4.53695 0.5
622 5.79005 8.9137 8.93449 0.5
623 12.516 7.75861 4.26103 0.5
624 12.5486 5.63327 2.97375 0.5
625 1.92846 3.74507 10.6646 0.5
626 2.48848 4.20531 1.21688 0.5
627 9.96185 6.79279 0.5043 0.5
628 12.8673 4.75444 10.3575 0.5
629 5.58317 4.0303 3.21446 0.5
630 2.68897 3.19634 0.850294 0.5
631 9.95747 1.95529 0.931021 0.5
632 6.85107 12.7018 13.3277 0.5
633 10.6577 1.14071 0.793577 0.5
634 10.3289 10.4573 9.85973 0.5
635 9.44776 2.19645 12.4985 0.5
636 10.0244 3.71857 12.0626 0.5
637 0.16628 10.5213 7.02207 0.5
638 5.78233 1.59378 4.38786 0.5
639 9.07763 7.01469 10.2779 0.5
640 1.79379 4.27777 7.55993 0.5
641 7.21753 7.46196 5.92696 0.5
642 11.223 5.72353 0.247351 0.5
643 11.1085 1.02447 7.81469 0.5
644 7.03611 3.09519 10.9684 0.5
645 0.616365 10.8091 5.43368 0.5
646 9.03299 8.639 12.1442 0.5
647 8.8518 4.93371 12.2463 0.5
648 7.7811 9.65877 11.8829 0.5
649 5.46861 8.01913 11.2137 0.5
650 2.71003 0.725914 7.15602 0.5
651 0.921701 6.58843 6.7148 0.5
652 6.31597 3.53309 7.60747 0.5
653 13.55 5.52617 3.01883 0.5
654 2.41017 10.0732 11.3549 0.5
655 11.734 11.8683 9.26685 0.5
656 0.895239 11.1946 1.03996 0.5
657 11.1 0.456618 6.88182 0.5
658 9.35207 10.3301 5.70172 0.5
659 1.32445 9.50872 2.76683 0.5
660 0.838705 0.729844 9.20539 0.5
661 3.58416 7.09738 9.70016 0.5
662 3.3231 10.8538 5.75618 0.5
663 5.70105 11.9172 3.75208 0.5
664 5.11993 6.42509 5.96714 0.5
665 10.2706 10.6201 3.68551 0.5
666 5.25864 12.5061 9.68932 0.5
667 11.0293 4.35384 8.30391 0.5
668 5.46586 3.10814 3.42554 0.5
669 8.2055 10.268 2.29817 0.5
670 9.01218 12.9484 7.88186 0.5
671 6.82096 8.5241 0.76461 0.5
672 3.36674 2.46686 5.48732 0.5
673 5.26655 8.90728 0.165836 0.5
674 3.07257 8.23367 12.4252 0.5
675 3.60116 4.79194 11.7137 0.5
676 2.13483 0.251288 2.6173 0.5
677 3.63336 9.09693 3.55929 0.5
678 13.157 7.60503 10.1402 0.5
679 10.7258 12.3449 6.223 0.5
680 4.41167 11.1411 1.85422 0.5
681 4.27731 1.17459 8.84014 0.5
682 2.26953 2.88165 10.3139 0.5
683 1.99051 5.6718 11.7621 0.5
684 11.5431 13.0787 3.44579 0.5
685 11.9078 12.5437 4.17675 0.5
686 10.8812 8.13 11.4236 0.5
687 4.97835 9.6988 13.1267 0.5
688 1.19747 8.01917 6.01603 0.5
689 2.76471 3.40977 1.90415 0.5
690 4.72263 8.65629 7.01266 0.5
691 13.518 10.4439 12.2969 0.5
692 4.65861 13.531 0.698293 0.5
693 11.1713 6.09296 11.7758 0.5
694 6.05822 9.24392 9.84629 0.5
695 12.1595 8.06325 2.77072 0.5
696 10.4949 3.68541 7.66639 0.5
697 0.71168 10.0427 7.88765 0.5
698 7.01669 10.5273 6.6069 0.5
699 3.07724 7.90837 0.753059 0.5
700 12.302 8.48877 3.61493 0.5
701 9.35073 8.08102 12.9262 0.5
702 3.80374 2.14072 8.78595 0.5
703 1.81083 5.67262 12.7478 0.5
704 9.23813 3.38055 8.63038 0.5
705 10.8148 7.24807 7.82327 0.5
706 6.37827 10.6619 5.75052 0.5
707 4.23909 5.3202 10.0198 0.5
708 12.7124 1.94289 1.14831 0.5
709 9.8428 0.769013 1.19227 0.5
710 6.91211 6.14298 3.60732 0.5
711 0.329677 13.4461 13.2358 0.5
712 12.9564 3.21419 9.34785 0.5
713 8.38387 9.7987 7.54928 0.5
714 12.8506 4.7276 6.98088 0.5
715 13.0106 8.592 2.97244 0.5
716 1.94684 2.10867 10.9613 0.5
717 3.20934 6.94349 0.34541 0.5
718 11.9625 0.729932 7.3519 0.5
719 4.66685 11.3861 12.0999 0.5
720 12.4861 11.7379 2.85127 0.5
721 11.0656 6.78497 8.68865 0.5
722 5.04871 12.9459 12.8233 0.5
723 3.43551 11.5947 9.48797 0.5
724 9.40427 13.0443 9.74767 0.5
725 2.66604 1.80981 5.76851 0.5
726 8.49506 2.04832 9.04437 0.5
727 4.60577 2.3052 12.8398 0.5
728 12.9834 1.68386 5.61838 0.5
729 9.69517 5.2376 0.840971 0.5
730 7.9264 5.79681 7.00956 0.5
731 10.372 0.242161 0.421751 0.5
732 1.2686 2.85774 8.26355 0.5
733 7.81806 11.6094 1.20505 0.5
734 10.4225 11.3392 6.47862 0.5
735 3.26003 5.06087 8.05873 0.5
736 4.60061 3.96997 10.7502 0.5
737 4.66256 3.56137 3.23129 0.5
738 2.56358 7.47824 10.9689 0.5
739 5.66987 0.18394 7.42815 0.5
740 12.3504 13.423 7.76241 0.5
741 7.50918 3.99085 4.76242 0.5
742 5.09128 9.08757 1.24634 0.5
743 7.15062 8.29147 5.3367 0.5
744 4.33605 2.67963 11.98 0.5
745 6.62075 6.52483 11.8794 0.5
746 5.18848 8.80095 9.78258 0.5
747 13.161 0.723585 11.8354 0.5
748 7.42769 9.53458 7.7729 0.5
749 6.34207 9.49194 3.35415 0.5
750 1.23646 1.21458 0.450909 0.5
751 13.4468 8.6884 13.0293 0.5
752 1.21335 1.54565 12.9654 0.5
753 6.81508 1.80001 0.819196 0.5
754 1.81329 12.1153 11.3641 0.5
755 6.97932 3.47917 0.0235855 0.5
756 6.57522 7.83513 1.51065 0.5
757 11.8649 6.82552 11.6272 0.5
758 3.87085 12.1433 4.8394 0.5
759 12.6147 8.60111 2.02825 0.5
760 7.16367 4.62443 4.08665 0.5
761 3.35243 11.2318 0.492061 0.5
762 13.2689 2.63225 0.665215 0.5
763 11.6604 0.536399 3.68921 0.5
764 8.78669 8.73905 3.00945 0.5
765 12.3519 2.47137 0.363645 0.5
766 8.08641 3.13071 4.69779 0.5
767 3.65206 6.2964 1.00742 0.5
768 12.9252 0.786879 10.758 0.5
769 11.0828 2.55345 5.78603 0.5
770 11.0937 7.80866 6.25757 0.5
771 7.86257 8.0761 6.07318 0.5
772 1.07324 1.85181 10.8435 0.5
773 9.47571 3.80343 7.76871 0.5
774 9.34584 0.124525 3.16196 0.5
775 10.3698 13.2471 11.2053 0.5
776 3.25994 9.37048 6.52606 0.5
777 10.9739 12.5245 3.95044 0.5
778 11.5966 12.0852 3.29687 0.5
779 7.82147 7.61892 5.13332 0.5
780 3.01793 11.3246 8.5568 0.5
781 1.02217 1.55071 4.99184 0.5
782 10.6234 3.42264 4.09146 0.5
783 0.459195 8.90581 12.3933 0.5
784 2.61414 2.35504 4.78951 0.5
785 10.439 10.0449 5.46188 0.5
786 8.54442 4.00131 5.05354 0.5
787 6.09803 12.0341 2.74805 0.5
788 11.5513 7.54715 11.0169 0.5
789 8.88603 4.07549 2.24848 0.5
790 8.9375 0.841824 2.66923 0.5
791 5.11252 7.21193 11.8085 0.5
792 4.88004 2.60555 7.5295 0.5
793 7.15909 8.87944 3.77595 0.5
794 12.5759 0.902286 3.44876 0.5
795 7.65295 8.36212 4.44953 0.5
796 4.90966 11.1098 8.84114 0.5
797 3.79707 3.94769 11.3374 0.5
798 2.55635 3.13533 4.05832 0.5
799 0.794086 0.839525 5.61522 0.5
800 0.70157 8.22191 13.2252 0.5
801 7.6529 5.93896 2.91613 0.5
802 5.55499 11.2349 12.6894 0.5
803 11.3285 10.9349 11.1627 0.5
804 13.1044 6.39418 9.2477 0.5
805 9.47462 8.21604 2.37294 0.5
806 2.76507 7.20143 9.06127 0.5
807 2.81497 4.19866 7.89045 0.5
808 1.98487 8.86746 3.26297 0.5
809 9.38848 5.07119 11.4372 0.5
810 2.30224 11.1778 11.3253 0.5
811 10.4254 6.81557 3.62365 0.5
812 2.46597 8.33463 11.5494 0.5
813 8.02428 5.62555 12.6017 0.5
814 9.34164 0.63697 5.801 0.5
815 11.6837 11.4686 7.67468 0.5
816 9.37917 7.52731 0.163094 0.5
817 11.7982 11.115 3.24528 0.5
818 3.27789 10.2169 0.466264 0.5
819 6.4392 13.4245 6.91479 0.5
820 0.510395 11.8589 8.66143 0.5
821 10.8779 3.08774 5.05293 0.5
822 9.09858 1.46085 5.36532 0.5
823 10.1231 0.0235675 10.3275 0.5
824 1.95491 8.67359 5.81104 0.5
825 7.97594 0.706734 2.32464 0.5
826 7.28463 13.4011 7.59707 0.5
827 11.3754 0.416837 0.739999 0.5
828 5.20421 3.39202 2.46141 0.5
829 4.49525 1.87494 8.11245 0.5
830 5.4778 12.0073 8.83821 0.5
831 11.3749 0.0090319 7.74005 0.5
832 1.01948 5.44475 10.3896 0.5
833 1.59823 11.4209 10.6362 0.5
834 9.68917 2.30424 13.4847 0.5
835 1.14726 6.06251 11.1931 0.5
836 7.63404 8.84497 11.1577 0.5
837 7.19133 2.53493 0.129471 0.5
838 12.9203 13.4854 11.4303 0.5
839 4.96465 5.00458 1.95991 0.5
840 7.64244 13.1553 0.104058 0.5
841 6.00052 10.4521 6.67758 0.5
842 12.6221 3.9009 10.9757 0.5
843 12.4912 2.93836 12.3428 0.5
844 5.21117 2.89368 12.3695 0.5
845 9.71927 5.59184 5.85042 0.5
846 6.21268 12.6177 10.2347 0.5
847 4.47642 7.679 6.65371 0.5
848 5.0568 6.54711 12.5831 0.5
849 0.271929 11.7914 5.69926 0.5
850 10.9041 10.5047 11.9451 0.5
851 6.48211 11.3687 6.46521 0.5
852 7.50628 10.5153 7.43736 0.5
853 4.42027 7.577 9.4128 0.5
854 10.0254 6.09961 4.07075 0.5
855 9.76567 10.2304 2.87461 0.5
856 2.19334 0.267137 3.60881 0.5
857 9.8055 5.0863 10.462 0.5
858 7.87288 10.22 8.34351 0.5
859 11.3156 5.45274 6.06526 0.5
860 10.4464 5.00079 6.27953 0.5
861 11.0972 13.2801 6.17241 0.5
862 10.5526 7.53988 10.6713 0.5
863 8.21843 8.61023 5.16264 0.5
864 8.12039 7.21569 7.84882 0.5
865 12.1145 3.9714 12.5781 0.5
866 5.46877 12.6442 2.24958 0.5
867 12.2831 4.2479 13.5796 0.5
868 9.30669 9.46845 8.90919 0.5
869 4.1202 0.60765 0.175786 0.5
870 3.80288 8.49861 6.64472 0.5
871 12.6644 8.73655 4.53508 0.5
872 0.908651 6.04252 13.0825 0.5
873 12.7831 0.743021 2.47036 0.5
874 7.30373 4.92645 12.2354 0.5
875 6.55204 11.98 4.41412 0.5
876 2.6592 5.68777 8.71854 0.5
877 10.4081 7.85909 7.06587 0.5
878 2.42795 11.5634 0.390249 0.5
879 1.17269 3.86472 8.18167 0.5
880 11.8068 1.05025 2.79775 0.5
881 11.277 10.4772 12.855 0.5
882 1.5571 9.72665 3.701 0.5
883 10.9397 12.3565 0.195359 0.5
884 12.8156 3.40119 0.331407 0.5
885 7.28932 10.7997 10.6795 0.5
886 0.222742 3.25607 7.03371 0.5
887 0.0609141 13.4404 12.1807 0.5
888 4.89427 3.95809 1.69431 0.5
889 11.3179 5.05365 9.03533 0.5
890 11.2781 8.6473 5.79996 0.5
891 1.96475 6.06286 3.42952 0.5
892 9.59707 0.416757 9.46272 0.5
893 10.3804 4.78253 8.8577 0.5
894 7.43351 7.69854 0.957242 0.5
895 12.0339 8.77678 1.18094 0.5
896 7.27024 12.1987 0.489484 0.5
897 6.62966 12.447 3.52245 0.5
898 5.05563 12.2158 3.03624 0.5
899 10.8925 5.29976 8.07703 0.5
900 11.8548 10.9454 9.41272 0.5
901 0.285516 5.97511 10.6376 0.5
902 11.6154 6.68028 7.88118 0.5
903 9.85761 8.47475 3.23546 0.5
904 7.85593 3.5102 5.59116 0.5
905 13.165 7.16914 6.13501 0.5
906 12.8531 5.38972 3.99081 0.5
907 6.99049 3.69743 10.1614 0.5
908 8.47006 0.730106 5.20033 0.5
909 9.6016 3.41388 2.53539 0.5
910 8.22815 2.31291 8.10425 0.5
911 5.85303 7.09805 12.4184 0.5
912 8.60392 9.28411 11.4155 0.5
913 11.1891 5.89966 12.8459 0.5
914 4.31104 13.1478 13.3766 0.5
915 7.83264 2.46079 5.52094 0.5
916 10.3544 8.44864 6.14743 0.5
917 12.1406 13.1096 11.6821 0.5
918 7.61026 6.49221 8.4808 0.5
919 12.9487 12.2701 2.0141 0.5
920 13.4758 11.4357 10.7424 0.5
921 5.52926 6.31808 7.58027 0.5
922 12.3993 2.89232 11.2567 0.5
923 0.641882 2.44395 7.65286 0.5
924 11.6787 11.5675 10.2691 0.5
925 10.5125 3.69562 2.04797 0.5
926 5.45497 10.6104 13.4283 0.5
927 2.1255 7.65253 6.014 0.5
928 0.341949 6.5022 5.91437 0.5
929 1.3 2.91441 10.6233 0.5
930 10.2586 9.78428 9.14647 0.5
931 4.95624 9.77811 12.0897 0.5
932 4.16737 8.18029 3.69487 0.5
933 0.313921 11.7723 0.555161 0.5