ITEM: TIMESTEP
140000
ITEM: NUMBER OF ATOMS
1000
ITEM: BOX BOUNDS xy xz yz pp pp pp
0.0000000000000000e+00 1.3572088000000001e+01 0.0000000000000000e+00
0.0000000000000000e+00 1.3572088000000001e+01 0.0000000000000000e+00
0.0000000000000000e+00 1.3572088000000001e+01 0.0000000000000000e+00
ITEM: ATOMS id x y z radius
1 4.50173 3.91592 12.2195 0.5
2 5.18254 10.5872 3.6731 0.5
3 8.51608 10.4151 3.5542 0.5
4 10.1416 5.36404 1.99119 0.5
5 8.81309 7.28105 10.2387 0.5
6 4.291 13.2438 5.46069 0.5
7 3.02488 9.02036 0.387589 0.5
8 12.8553 12.2637 1.8319 0.5
9 1.7649 7.52744 5.80515 0.5
10 3.55961 12.708 10.5355 0.5
11 0.509951 9.31893 8.99951 0.5
12 11.0097 5.71963 1.48052 0.5
13 9.30468 11.1485 6.45647 0.5
14 11.0931 2.19518 4.12115 0.5
15 6.1063 1.91954 4.47455 0.5
16 7.63466 6.83613 8.6652 0.5
17 7.40435 11.8118 10.5055 0.5
18 2.64186 8.19115 6.06212 0.5
19 9.29269 5.10494 2.2689 0.5
20 10.1081 11.635 3.37374 0.5
21 1.9213 4.97553 1.32912 0.5
22 1.58796 7.07214 11.1007 0.5
23 1.70212 1.72558 9.58379 0.5
24 7.28592 7.51694 2.02195 0.5
25 1.15756 6.41421 2.50929 0.5
26 10.5441 9.55335 6.39175 0.5
27 11.4204 6.61821 12.8914 0.5
28 5.21443 11.2241 11.3279 0.5
29 0.802967 6.33264 1.62681 0.5
30 7.99678 10.9703 2.01345 0.5
31 0.189935 0.0267783 8.54393 0.5
32 10.315 2.5282 13.3828 0.5
33 0.516397 5.87897 10.0015 0.5
34 3.09012 9.10416 6.28748 0.5
35 12.1538 6.68236 0.114001 0.5
36 8.66905 1.61942 6.3024 0.5
37 13.1138 0.660977 3.57221 0.5
38 3.28428 1.78633 2.0728 0.5
39 9.87054 4.44356 1.69786 0.5
40 5.78007 5.39021 6.3547 0.5
41 8.57548 10.8913 5.70635 0.5
42 6.75316 5.39282 3.50328 0.5
43 4.62957 5.2415 10.0303 0.5
44 2.30852 11.024 8.84671 0.5
45 7.27976 6.45752 2.08199 0.5
46 10.3919 11.3135 13.4924 0.5
47 2.28942 9.18573 5.62419 0.5
48 8.01067 10.4555 1.10554 0.5
49 5.88844 12.5514 9.74456 0.5
50 5.6359 1.73044 10.4543 0.5
51 13.4814 10.3159 7.2702 0.5
52 6.09483 10.6099 7.09452 0.5
53 9.44005 3.55314 1.67828 0.5
54 11.6743 11.0889 3.98578 0.5
55 0.28823 1.27148 6.60603 0.5
56 12.1349 6.201 3.2344 0.5
57 13.3122 11.987 11.1035 0.5
58 5.09663 7.22655 9.80254 0.5
59 0.644831 10.573 11.4215 0.5
60 7.31392 5.87261 8.81735 0.5
61 3.59424 12.5881 11.4556 0.5
62 0.312131 8.6839 0.957274 0.5
63 12.3849 9.39083 2.02549 0.5
64 11.7181 2.05803 10.12 0.5
65 12.8082 2.34213 5.21475 0.5
66 13.3386 1.21991 1.98676 0.5
67 8.43714 3.15504 7.5002 0.5
68 3.35774 1.32167 3.0711 0.5
69 12.2271 2.51258 10.8418 0.5
70 12.2154 3.96336 11.8976 0.5
71 2.44135 6.88608 9.00088 0.5
72 7.84326 3.28079 10.6378 0.5
73 8.53122 6.85249 8.32962 0.5
74 5.44606 4.67618 10.3297 0.5
75 8.55477 0.227231 10.1512 0.5
76 12.8384 2.97188 0.968064 0.5
77 10.541 2.73323 2.70831 0.5
78 8.88285 3.19145 5.21326 0.5
79 4.0473 12.5704 6.24021 0.5
80 5.03788 2.56043 8.19707 0.5
81 1.97604 3.49507 11.5823 0.5
82 0.927486 8.71521 0.0975265 0.5
83 3.8244 1.07558 6.76629 0.5
84 12.6063 9.50634 9.61232 0.5
85 0.277675 3.51222 7.78261 0.5
86 3.72117 0.500856 0.0694233 0.5
87 4.85958 5.57765 6.14745 0.5
88 6.58276 5.72734 4.40054 0.5
89 11.0756 12.6882 7.17477 0.5
90 4.21727 5.34204 4.25335 0.5
91 11.5081 7.33714 12.0889 0.5
92 0.0760514 0.738659 2.78778 0.5
93 0.705612 1.13628 0.567622 0.5
94 4.71812 10.0222 12.1975 0.5
95 11.9263 1.63959 8.48817 0.5
96 11.6438 3.1137 3.99897 0.5
97 11.664 3.47081 4.94801 0.5
98 11.5955 10.3416 0.539047 0.5
99 6.50133 8.51004 9.19552 0.5
100 0.537851 6.49699 5.32356 0.5
101 4.50777 12.3825 1.77612 0.5
102 8.40417 6.7478 10.9607 0.5
103 3.80182 5.2074 10.755 0.5
104 6.86246 10.5175 5.59373 0.5
105 11.0072 13.0346 6.17282 0.5
106 7.08049 1.67663 10.057 0.5
107 0.0973822 4.52477 9.16252 0.5
108 13.392 10.8454 5.52683 0.5
109 0.425783 11.2303 9.64537 0.5
110 8.22218 9.01166 9.0669 0.5
111 8.14952 0.39906 3.33214 0.5
112 5.52787 1.06163 4.33866 0.5
113 0.948215 0.672593 6.05498 0.5
114 7.07375 6.99773 2.89804 0.5
115 4.99997 6.35612 12.3554 0.5
116 0.455576 5.70366 2.32129 0.5
117 0.506266 13.5081 5.55994 0.5
118 11.3074 8.84046 6.07143 0.5
119 11.5194 8.86415 2.00715 0.5
120 4.65403 8.99026 3.68194 0.5
121 12.1751 13.5701 11.4849 0.5
122 2.5143 3.5739 2.11338 0.5
123 11.8433 1.53123 11.0334 0.5
124 11.2705 10.7911 12.1975 0.5
125 4.89302 11.4967 4.20073 0.5
126 11.3197 10.9336 13.2542 0.5
127 7.68827 9.94196 11.3503 0.5
128 5.51491 2.04057 7.46138 0.5
129 2.29451 7.5112 10.5142 0.5
130 0.376393 12.1156 9.08834 0.5
131 7.95304 1.94867 1.09023 0.5
132 5.06058 11.62 2.09696 0.5
133 0.447863 11.4276 10.7351 0.5
134 10.68 11.0669 4.04893 0.5
135 12.3524 3.0828 5.66676 0.5
136 8.08993 4.96831 4.5212 0.5
137 3.32534 13.1614 5.84101 0.5
138 7.71903 11.6917 13.0258 0.5
139 6.2242 0.215684 13.2833 0.5
140 5.96961 2.87569 2.84778 0.5
141 1.18671 3.59728 4.61059 0.5
142 9.43305 2.93276 12.9356 0.5
143 0.882638 0.472214 12.5381 0.5
144 9.11645 12.8839 7.80225 0.5
145 6.40196 7.03926 2.16757 0.5
146 10.2844 9.03444 8.79878 0.5
147 4.16882 6.63677 0.0498358 0.5
148 13.106 0.324368 11.2926 0.5
149 7.55972 6.40821 9.61975 0.5
150 12.6125 11.5576 3.66298 0.5
151 6.91967 12.3305 9.7704 0.5
152 3.60932 3.8519 11.6208 0.5
153 11.6117 6.50043 8.24758 0.5
154 2.9723 2.72202 1.71079 0.5
155 2.07568 9.44687 10.658 0.5
156 8.33641 11.9737 0.337647 0.5
157 2.08735 0.37299 4.24918 0.5
158 1.0502 8.96953 8.14572 0.5
159 3.99679 1.73245 9.32868 0.5
160 8.93973 0.776683 11.0534 0.5
161 12.6498 3.36716 11.1024 0.5
162 6.91369 2.46986 8.0456 0.5
163 10.8685 9.45955 0.589045 0.5
164 9.43116 2.89865 12.0131 0.5
165 7.50551 10.8758 10.7114 0.5
166 10.7564 0.0336912 6.86576 0.5
167 11.1855 7.3897 8.25939 0.5
168 2.01143 3.20173 7.70139 0.5
169 10.8969 11.6032 12.6473 0.5
170 3.46625 6.60003 0.686324 0.5
171 10.4452 5.05924 1.00189 0.5
172 10.6235 7.31322 10.6083 0.5
173 8.71669 10.5349 2.54739 0.5
174 4.53733 0.307941 13.0896 0.5
175 3.21056 6.63145 4.02252 0.5
176 4.03843 5.25734 3.31791 0.5
177 9.01684 4.15908 5.82493 0.5
178 5.85605 2.745 3.84683 0.5
179 13.0268 6.04607 2.67832 0.5
180 9.94216 2.18435 12.4174 0.5
181 10.6035 11.6302 9.31591 0.5
182 2.80562 11.6875 0.778532 0.5
183 8.11811 8.22836 6.46351 0.5
184 10.1473 4.47293 9.22958 0.5
185 8.36812 1.20334 10.3133 0.5
186 3.70573 8.8211 2.33132 0.5
187 5.32084 13.3681 13.3613 0.5
188 5.33422 6.06444 6.89884 0.5
189 0.24588 10.9356 6.51267 0.5
190 8.35561 13.0614 2.95792 0.5
191 9.53695 7.74369 3.86905 0.5
192 11.046 0.978949 0.106648 0.5
193 12.5438 1.56843 10.3563 0.5
194 8.72845 13.3129 10.983 0.5
195 12.5958 9.75954 12.4545 0.5
196 8.91679 0.459257 4.00375 0.5
197 2.6869 6.86625 7.99605 0.5
198 7.04526 6.35981 11.9617 0.5
199 11.0787 1.98802 8.44536 0.5
200 6.82304 6.96382 1.30955 0.5
201 0.806701 3.89138 8.6625 0.5
202 6.54057 0.0270746 7.45335 0.5
203 1.8185 3.95227 1.38583 0.5
204 0.562741 8.17462 7.83367 0.5
205 12.3185 12.9481 4.50564 0.5
206 1.30481 1.0017 10.0685 0.5
207 5.80108 12.2275 8.13311 0.5
208 9.35064 5.34257 6.86233 0.5
209 5.09201 2.71744 3.23575 0.5
210 4.59713 6.34154 5.45925 0.5
211 3.58256 4.14547 10.7191 0.5
212 3.26534 5.58188 3.9577 0.5
213 2.3909 1.51072 5.50202 0.5
214 9.98406 3.65767 11.6084 0.5
215 7.88553 7.00179 1.44509 0.5
216 6.17662 8.40561 13.5663 0.5
217 4.11001 11.6415 4.81337 0.5
218 6.00255 7.94111 3.83501 0.5
219 8.51475 1.33966 3.67924 0.5
220 6.6045 1.78164 10.9718 0.5
221 2.55863 2.98834 6.87166 0.5
222 7.0326 11.1388 4.82649 0.5
223 3.94527 9.7473 2.53847 0.5
224 13.5023 9.62389 3.54448 0.5
225 8.13836 11.5428 11.0963 0.5
226 11.2281 6.72664 0.374524 0.5
227 12.445 9.14942 10.5619 0.5
228 4.04599 11.6478 5.84359 0.5
229 5.29398 3.66585 6.51059 0.5
230 6.14394 9.42871 8.925 0.5
231 8.33903 6.14903 8.97282 0.5
232 6.76177 5.66706 12.6506 0.5
233 1.55069 0.829337 9.10492 0.5
234 11.8109 2.47251 4.86614 0.5
235 1.17916 11.1523 3.26191 0.5
236 10.1336 6.01664 1.23618 0.5
237 5.32737 8.01872 6.52146 0.5
238 0.877591 12.5823 5.45353 0.5
239 10.2256 7.64757 4.51855 0.5
240 1.77648 4.40603 12.0093 0.5
241 3.86785 5.76294 0.455325 0.5
242 2.81521 0.971104 2.49349 0.5
243 2.13083 9.75804 3.17515 0.5
244 3.15539 12.1719 6.17493 0.5
245 0.546574 11.5888 11.7409 0.5
246 9.63383 9.65819 8.35779 0.5
247 3.80472 0.124783 10.1858 0.5
248 7.44824 2.57772 1.63455 0.5
249 10.497 1.77549 0.415687 0.5
250 10.0304 0.989764 0.0389275 0.5
251 4.90113 9.67434 11.2538 0.5
252 9.15509 8.51723 0.49795 0.5
253 1.32383 8.3905 0.998767 0.5
254 11.09 3.51731 3.0149 0.5
255 8.45609 9.55579 2.91265 0.5
256 1.76908 12.9763 4.06607 0.5
257 1.18446 3.81139 7.80247 0.5
258 13.5171 5.98797 6.77916 0.5
259 3.81623 4.65138 9.78624 0.5
260 7.10673 11.3343 9.78074 0.5
261 10.8398 3.68579 5.53837 0.5
262 7.78502 10.5232 5.12978 0.5
263 3.05959 4.32563 8.43425 0.5
264 10.4986 10.963 8.52028 0.5
265 1.45612 4.48244 4.39254 0.5
266 4.01507 0.0631307 6.45825 0.5
267 4.86391 8.1431 8.78455 0.5
268 6.92756 1.90063 1.10019 0.5
269 8.49746 0.0969756 7.65141 0.5
270 6.91305 9.79178 8.24201 0.5
271 10.3139 0.230382 5.98883 0.5
272 6.20046 9.25534 0.367039 0.5
273 7.63189 4.88533 3.54657 0.5
274 10.1231 3.41621 8.81629 0.5
275 2.4616 10.7656 0.839586 0.5
276 5.099 13.546 11.544 0.5
277 7.67944 5.2038 12.9416 0.5
278 10.6171 10.4254 0.238112 0.5
279 9.69262 10.5929 5.54748 0.5
280 5.12167 11.9502 1.127 0.5
281 6.90368 3.3163 10.7083 0.5
282 0.089384 11.8061 1.51036 0.5
283 4.83207 5.24182 2.66792 0.5
284 1.50903 10.7579 0.62156 0.5
285 2.36431 9.77954 6.59092 0.5
286 3.75142 0.962281 12.7774 0.5
287 7.71702 7.46148 6.74558 0.5
288 5.98665 0.204184 4.66017 0.5
289 2.00994 10.6961 2.95829 0.5
290 1.15306 13.2256 6.21588 0.5
291 6.27794 1.0257 5.10128 0.5
292 4.58273 3.07971 12.7636 0.5
293 11.3102 5.87769 3.91783 0.5
294 1.56512 9.64405 6.11138 0.5
295 2.93719 1.4424 6.28223 0.5
296 0.341404 4.50469 8.03121 0.5
297 11.2458 11.7753 11.8114 0.5
298 10.3408 4.21144 12.4312 0.5
299 2.86061 0.566004 12.9076 0.5
300 8.86239 4.37874 1.75129 0.5
301 6.41814 7.16845 11.7227 0.5
302 2.84574 9.13527 3.65794 0.5
303 13.0606 8.98523 2.71557 0.5
304 0.31281 6.71067 6.23566 0.5
305 7.64789 12.2491 7.51837 0.5
306 11.2183 8.73527 1.08748 0.5
307 2.92666 7.07713 3.0672 0.5
308 0.588326 9.68628 12.1511 0.5
309 0.0176558 0.0697152 12.962 0.5
310 8.33591 13.2617 3.92969 0.5
311 13.2671 5.06064 7.31428 0.5
312 8.1287 11.2661 10.1535 0.5
313 1.16521 11.2085 4.23519 0.5
314 6.27171 11.7226 9.18587 0.5
315 13.0083 5.93991 3.68577 0.5
316 8.36135 5.78742 7.15774 0.5
317 13.3448 9.16015 4.4777 0.5
318 13.0431 4.34892 6.64102 0.5
319 11.2002 11.2809 0.637865 0.5
320 5.842 2.80912 6.75487 0.5
321 1.88151 12.8098 3.01438 0.5
322 10.0034 12.933 0.698266 0.5
323 3.7606 0.929385 2.19825 0.5
324 10.1125 3.58916 3.16461 0.5
325 1.09757 5.89025 12.7603 0.5
326 11.0654 12.8642 0.71216 0.5
327 9.02806 2.48293 7.99025 0.5
328 12.3516 7.01321 12.7282 0.5
329 7.57302 3.17866 7.9386 0.5
330 8.4048 1.22565 4.69801 0.5
331 5.61237 3.62455 3.44655 0.5
332 11.7421 2.46855 9.09151 0.5
333 13.0182 1.49075 3.0249 0.5
334 4.45373 6.45158 0.986109 0.5
335 9.44632 13.4383 4.59526 0.5
336 4.39925 1.06139 8.6644 0.5
337 11.7435 1.09905 10.0431 0.5
338 7.32259 5.37174 9.64307 0.5
339 9.47351 4.10209 2.55638 0.5
340 12.4581 3.4421 12.815 0.5
341 8.85085 0.136936 8.61538 0.5
342 5.43476 0.768679 5.38981 0.5
343 6.45568 5.21471 9.11312 0.5
344 5.62759 7.01166 6.64696 0.5
345 7.15737 7.98749 6.07189 0.5
346 0.766704 7.33101 5.62783 0.5
347 13.2856 11.0124 0.980134 0.5
348 1.3363 4.47875 0.563062 0.5
349 8.72517 7.35013 6.39148 0.5
350 7.82452 7.14293 10.2941 0.5
351 2.32796 9.81744 11.6121 0.5
352 9.25317 12.1842 6.97481 0.5
353 8.59559 7.76902 1.35226 0.5
354 2.41061 3.22805 5.85546 0.5
355 1.944 6.70611 3.0163 0.5
356 11.2598 12.6126 4.73746 0.5
357 5.86199 11.7909 3.74159 0.5
358 4.27919 1.06907 10.05 0.5
359 7.17259 9.3131 9.0273 0.5
360 13.1184 4.13507 7.63214 0.5
361 3.93913 1.15568 7.71945 0.5
362 0.801098 1.46008 9.22336 0.5
363 10.4377 11.9927 0.67422 0.5
364 3.65235 8.15869 0.156318 0.5
365 2.39229 8.29409 0.891758 0.5
366 6.6376 8.90692 8.28037 0.5
367 11.2213 11.9232 13.5663 0.5
368 4.85025 4.49581 9.51774 0.5
369 1.98842 3.09247 4.87352 0.5
370 12.9047 10.5083 6.44504 0.5
371 9.08101 13.5063 3.17703 0.5
372 0.204876 4.12842 3.32476 0.5
373 5.58138 2.74726 12.8455 0.5
374 0.420233 8.88565 12.7301 0.5
375 0.279487 9.7988 8.06846 0.5
376 2.11325 11.4084 3.79549 0.5
377 7.52703 5.69794 3.93669 0.5
378 5.9102 9.18612 13.0279 0.5
379 4.83221 5.85618 0.214812 0.5
380 6.77268 5.1019 13.5228 0.5
381 10.0869 2.57121 8.19852 0.5
382 9.3385 2.69005 8.8425 0.5
383 0.956944 5.34118 1.04476 0.5
384 5.61404 10.192 12.7052 0.5
385 12.801 11.2914 1.91409 0.5
386 0.400194 4.15699 4.27902 0.5
387 0.941813 6.19281 10.8718 0.5
388 1.89606 1.81689 10.5247 0.5
389 5.16533 9.41526 10.3115 0.5
390 4.51175 4.41225 10.4735 0.5
391 7.56969 0.51926 1.92411 0.5
392 13.5605 5.24629 3.05608 0.5
393 3.13992 5.16859 9.20731 0.5
394 9.23478 8.92685 8.86804 0.5
395 0.86039 0.727607 8.41252 0.5
396 0.290145 1.46713 3.59727 0.5
397 7.55558 1.04015 1.11277 0.5
398 8.67384 11.2657 4.07197 0.5
399 1.1929 3.98754 3.65708 0.5
400 6.56234 8.56483 4.4383 0.5
401 9.58289 1.89333 13.272 0.5
402 5.00046 7.23427 5.89152 0.5
403 6.95368 12.7121 6.93511 0.5
404 10.5477 10.1284 11.8406 0.5
405 12.474 5.78984 0.318962 0.5
406 7.48409 2.4488 13.1403 0.5
407 1.90514 11.8013 2.93912 0.5
408 2.01647 4.0359 5.08031 0.5
409 3.16119 4.90479 11.4505 0.5
410 11.3968 2.52249 3.19689 0.5
411 3.33485 6.19358 13.2366 0.5
412 5.50118 0.310902 12.4736 0.5
413 3.34534 7.15545 8.75125 0.5
414 2.92876 9.33656 10.9914 0.5
415 8.48963 9.49269 11.1968 0.5
416 8.98736 10.2108 6.17869 0.5
417 1.15605 13.4424 8.78419 0.5
418 9.33116 0.964515 10.1635 0.5
419 2.72277 12.8768 11.042 0.5
420 3.46794 0.302728 7.3661 0.5
421 0.00991307 5.63447 10.8241 0.5
422 8.44066 4.99452 5.49571 0.5
423 12.3128 -0.0124158 3.75911 0.5
424 2.91386 3.48514 4.85029 0.5
425 8.15171 7.7145 10.945 0.5
426 0.670964 12.8161 7.08372 0.5
427 7.56444 2.70447 0.59198 0.5
428 13.3954 8.75236 9.28432 0.5
429 10.2011 5.40965 9.30353 0.5
430 7.98924 0.405784 10.9185 0.5
431 2.47964 5.17812 8.44513 0.5
432 0.313437 1.6997 2.65294 0.5
433 7.73104 11.0758 0.300837 0.5
434 0.336439 4.04209 0.258213 0.5
435 11.6158 9.6759 1.31997 0.5
436 6.33039 5.0807 10.0847 0.5
437 4.07618 9.05621 6.00345 0.5
438 5.94121 2.85727 7.85615 0.5
439 10.9077 11.1312 10.1532 0.5
440 9.8989 10.2988 6.41564 0.5
441 5.54068 13.3521 3.75358 0.5
442 1.30619 6.61835 6.12502 0.5
443 1.02509 12.1929 1.18971 0.5
444 9.82163 8.51885 13.2313 0.5
445 4.71958 9.09145 2.72884 0.5
446 3.94567 6.18627 4.68577 0.5
447 1.53179 8.53479 5.85499 0.5
448 5.47774 9.89669 0.159639 0.5
449 3.57222 13.5078 11.1895 0.5
450 3.60729 3.16261 1.02263 0.5
451 7.16137 3.30297 13.4108 0.5
452 1.59595 8.01655 0.134935 0.5
453 5.05754 9.72581 4.14437 0.5
454 2.43934 0.0483123 2.60934 0.5
455 1.27764 3.28092 10.6636 0.5
456 8.30915 12.8992 8.12056 0.5
457 12.0092 12.2432 8.90841 0.5
458 3.64859 0.747512 9.33871 0.5
459 13.2199 2.7897 5.91042 0.5
460 13.064 6.535 13.3853 0.5
461 11.3461 7.81834 11.2165 0.5
462 10.9912 2.5699 7.71836 0.5
463 6.72008 3.09124 7.25191 0.5
464 11.5588 8.80426 10.8966 0.5
465 5.53554 10.3562 11.6282 0.5
466 3.04746 0.438636 6.44933 0.5
467 0.669619 7.84593 0.581521 0.5
468 12.7737 8.50007 9.99527 0.5
469 1.2696 2.83213 11.637 0.5
470 2.25725 5.24975 11.7448 0.5
471 4.48071 0.471974 10.8591 0.5
472 10.8183 6.732 4.35916 0.5
473 12.1572 7.29184 7.92622 0.5
474 1.5249 8.13151 8.39318 0.5
475 6.3598 3.69196 6.50817 0.5
476 7.69052 0.732059 9.8959 0.5
477 5.63849 7.92914 9.25235 0.5
478 2.96939 12.1023 13.5149 0.5
479 9.8263 7.84977 0.370638 0.5
480 2.90593 11.7072 8.39256 0.5
481 2.35367 4.24705 0.56032 0.5
482 10.4903 13.5419 1.37561 0.5
483 8.17344 11.2075 3.15311 0.5
484 9.83904 6.78457 4.07364 0.5
485 4.68322 5.91663 1.89552 0.5
486 3.32008 11.1357 9.03737 0.5
487 5.01634 1.92588 8.98707 0.5
488 5.83216 4.426 6.78335 0.5
489 3.38904 0.281497 3.0192 0.5
490 0.481746 12.7231 8.30169 0.5
491 2.49817 7.78473 11.3347 0.5
492 1.29339 5.39121 11.968 0.5
493 11.2045 8.0377 10.2782 0.5
494 7.6702 5.09928 0.366265 0.5
495 6.46295 7.65169 0.614253 0.5
496 7.08294 13.2423 13.0721 0.5
497 6.10199 5.41144 7.26459 0.5
498 3.72913 12.4436 5.29706 0.5
499 7.41273 2.35067 10.6486 0.5
500 11.5277 8.70731 5.15129 0.5
501 5.15141 2.06651 4.20756 0.5
502 9.57132 10.5635 8.71708 0.5
503 8.43086 5.48763 12.3532 0.5
504 3.27977 1.40091 13.4665 0.5
505 5.18605 3.22873 11.9485 0.5
506 3.43637 10.8629 1.04464 0.5
507 7.78631 4.12367 4.29143 0.5
508 13.4086 2.09449 6.81542 0.5
509 5.10599 5.08474 6.97897 0.5
510 7.80148 10.9276 11.7648 0.5
511 6.15 0.222885 5.65741 0.5
512 7.78046 10.9563 4.06683 0.5
513 5.78865 4.13871 1.89067 0.5
514 5.85771 8.44381 1.01896 0.5
515 1.22488 10.1312 2.94574 0.5
516 4.42611 9.88587 3.32561 0.5
517 1.54487 3.06933 3.8927 0.5
518 1.75627 7.13666 8.24566 0.5
519 5.14463 7.20034 8.73672 0.5
520 2.66474 0.564606 0.367998 0.5
521 11.2126 5.46335 4.895 0.5
522 1.65535 10.5612 11.3117 0.5
523 12.9086 8.10762 4.28977 0.5
524 0.0224755 0.852005 5.7549 0.5
525 10.8057 10.3595 1.1228 0.5
526 8.6275 11.9932 7.69041 0.5
527 7.30022 10.3503 1.80002 0.5
528 1.64162 0.786749 0.529191 0.5
529 0.00214591 0.447978 0.463518 0.5
530 11.7167 3.41759 11.1634 0.5
531 10.4825 8.2382 11.1198 0.5
532 5.47483 8.85316 4.16679 0.5
533 5.09599 7.03797 10.7387 0.5
534 1.39376 11.4608 11.2211 0.5
535 8.49106 12.37 12.9447 0.5
536 2.43767 12.3578 3.66441 0.5
537 4.27893 11.1115 8.97886 0.5
538 8.11033 9.94053 2.01546 0.5
539 2.18238 7.64442 2.72528 0.5
540 1.7321 3.27803 8.5656 0.5
541 3.64402 11.8387 1.41091 0.5
542 8.15081 13.3632 12.9313 0.5
543 12.8268 5.29325 6.42451 0.5
544 8.03236 2.35923 8.09382 0.5
545 2.50074 6.1548 3.54369 0.5
546 1.78631 0.423589 13.2319 0.5
547 10.2599 5.2089 5.21933 0.5
548 11.683 13.3819 6.85729 0.5
549 0.594038 10.3607 8.93368 0.5
550 12.5297 12.5542 3.55163 0.5
551 6.69532 1.11345 1.68303 0.5
552 3.26465 7.24839 13.5387 0.5
553 11.0544 4.98562 9.34882 0.5
554 3.18778 13.0367 6.74212 0.5
555 0.564735 3.30055 3.79391 0.5
556 7.56955 12.5382 12.5775 0.5
557 7.2983 11.119 1.19811 0.5
558 4.73443 1.92632 10.0129 0.5
559 3.76966 11.2751 8.1104 0.5
560 7.51295 4.11473 10.3353 0.5
561 8.33107 8.4217 12.6276 0.5
562 0.160521 3.17632 0.455327 0.5
563 9.06116 6.3288 6.54947 0.5
564 8.37477 5.79597 13.3566 0.5
565 9.41871 5.08301 5.83275 0.5
566 6.42432 2.42592 10.2642 0.5
567 12.1403 5.37973 3.90337 0.5
568 7.44926 1.21874 10.76 0.5
569 10.8623 6.50288 12.0573 0.5
570 12.8001 8.14289 3.15666 0.5
571 2.58941 0.732727 3.41522 0.5
572 4.06686 3.33373 0.178919 0.5
573 0.31482 0.137137 6.62867 0.5
574 8.9524 8.04679 3.21598 0.5
575 8.46515 0.300669 2.3383 0.5
576 2.91232 10.6572 8.1753 0.5
577 2.92093 9.32679 2.72306 0.5
578 1.76146 11.6265 1.05268 0.5
579 13.3846 9.15951 12.0666 0.5
580 2.83831 5.80573 7.65457 0.5
581 0.675867 0.073517 7.66804 0.5
582 3.07977 11.8886 10.9437 0.5
583 2.30743 10.4454 13.5164 0.5
584 10.3851 5.81624 4.36369 0.5
585 12.3521 4.83315 7.26835 0.5
586 13.0344 5.8544 10.0417 0.5
587 0.580612 2.04471 1.80113 0.5
588 0.251828 0.958375 13.1522 0.5
589 13.1631 9.66487 8.80712 0.5
590 2.86051 10.2239 9.1086 0.5
591 4.14173 3.01327 11.8418 0.5
592 10.6619 11.762 11.032 0.5
593 5.6704 9.74101 6.68785 0.5
594 13.108 11.4725 6.2006 0.5
595 12.1507 11.1517 6.68856 0.5
596 9.30282 10.0422 3.11957 0.5
597 3.73952 10.3485 7.50078 0.5
598 8.04741 11.3566 4.93102 0.5
599 11.2754 11.5823 8.65159 0.5
600 12.2611 6.01888 12.9499 0.5
601 4.30703 6.12354 2.74459 0.5
602 13.5142 5.56295 9.24155 0.5
603 2.42772 8.56964 10.5672 0.5
604 4.81163 1.46194 10.8807 0.5
605 8.4991 4.02359 10.7026 0.5
606 12.2488 8.81986 5.75912 0.5
607 8.79175 9.85058 8.99206 0.5
608 8.19335 11.78 12.1109 0.5
609 1.14622 11.6325 0.199628 0.5
610 0.595295 8.26168 8.75269 0.5
611 13.5491 8.92653 8.3189 0.5
612 5.56242 13.1197 2.73066 0.5
613 3.33312 5.39051 4.90263 0.5
614 4.39736 13.0299 10.8925 0.5
615 3.93447 11.9894 8.70922 0.5
616 0.0849787 6.65671 2.25539 0.5
617 6.47461 6.15993 2.81791 0.5
618 10.7353 6.64741 7.936 0.5
619 11.7203 3.08386 1.08565 0.5
620 13.326 11.0577 11.3909 0.5
621 2.12902 3.80489 4.1937 0.5
622 5.70633 8.67601 8.62516 0.5
623 12.3999 8.98633 4.74565 0.5
624 0.279881 6.25006 3.17894 0.5
625 2.12302 2.63856 12.0511 0.5
626 2.70967 4.41077 1.45257 0.5
627 10.7878 5.92076 0.592807 0.5
628 12.7683 4.3136 11.2814 0.5
629 6.13531 3.23787 1.98 0.5
630 3.2881 4.01316 0.771843 0.5
631 10.6166 0.602418 12.9699 0.5
632 6.89653 12.2948 13.2614 0.5
633 10.4331 0.905458 0.988186 0.5
634 10.2091 10.5998 9.51973 0.5
635 10.5851 1.64201 13.0629 0.5
636 10.2424 3.21022 12.4934 0.5
637 13.0546 11.2138 7.04523 0.5
638 5.50641 1.70544 5.21946 0.5
639 8.52435 6.35923 9.95481 0.5
640 2.77068 4.73906 7.59252 0.5
641 8.74463 7.98946 5.64535 0.5
642 11.7444 6.18608 0.930977 0.5
643 11.5066 1.65106 7.6136 0.5
644 6.96445 4.50178 9.60624 0.5
645 0.480974 11.6388 5.82147 0.5
646 9.29217 8.48743 12.4321 0.5
647 7.41197 6.95562 11.2453 0.5
648 8.37901 10.1506 11.9327 0.5
649 5.54302 7.63025 11.3566 0.5
650 3.66701 0.473548 8.35814 0.5
651 0.179803 5.063 6.41511 0.5
652 5.17211 3.01912 7.32595 0.5
653 1.38297 5.6224 1.89251 0.5
654 4.38258 10.0672 10.4801 0.5
655 11.1617 12.4579 9.32382 0.5
656 0.738767 11.2852 1.04202 0.5
657 11.4134 0.745423 7.24019 0.5
658 9.78203 9.60245 5.69319 0.5
659 0.624249 10.4632 3.69223 0.5
660 0.647523 0.401619 9.45416 0.5
661 0.843716 7.40931 8.37298 0.5
662 3.23344 11.5119 5.34016 0.5
663 5.20604 12.397 3.54572 0.5
664 5.47528 6.31132 5.89307 0.5
665 10.1983 10.7148 3.15327 0.5
666 6.39194 11.7062 10.2247 0.5
667 9.90259 4.20408 8.32445 0.5
668 5.23664 3.51221 2.51249 0.5
669 7.76705 10.3115 2.84933 0.5
670 8.35874 12.82 7.15183 0.5
671 6.86502 8.58315 0.818725 0.5
672 3.42217 2.88262 5.60072 0.5
673 5.30363 8.81766 0.23185 0.5
674 3.13717 8.45891 11.3703 0.5
675 1.63441 3.40768 12.4886 0.5
676 1.62387 0.196827 3.25049 0.5
677 2.99369 8.37123 2.93864 0.5
678 12.1565 8.12089 10.6491 0.5
679 10.9676 13.5536 5.29303 0.5
680 4.33711 11.3175 1.38388 0.5
681 3.39742 1.40625 8.59483 0.5
682 1.65801 1.96246 11.4979 0.5
683 1.81094 6.07179 11.3008 0.5
684 11.6003 12.7971 3.80954 0.5
685 12.0181 12.0167 4.30252 0.5
686 10.5891 7.26049 11.5748 0.5
687 5.07305 9.42395 12.9509 0.5
688 1.23936 7.91734 4.97111 0.5
689 3.32966 3.72926 1.81948 0.5
690 4.53257 8.58582 6.7995 0.5
691 13.3403 10.1043 11.8324 0.5
692 5.38018 0.761954 13.4651 0.5
693 11.3737 5.6886 12.5661 0.5
694 5.64625 8.84939 9.5854 0.5
695 12.1321 8.89339 2.97765 0.5
696 11.0208 3.10601 8.53331 0.5
697 12.9702 9.58215 7.78559 0.5
698 6.58204 9.98352 6.40567 0.5
699 2.66186 8.1018 13.5896 0.5
700 12.6795 9.01545 3.74077 0.5
701 8.99875 8.00771 13.1939 0.5
702 4.12735 2.05036 8.42805 0.5
703 1.88075 5.15159 12.7252 0.5
704 8.53693 3.19843 8.48606 0.5
705 10.5345 7.52269 7.45151 0.5
706 6.46959 11.4147 5.59905 0.5
707 3.99522 4.70311 8.87427 0.5
708 0.785618 1.03199 2.12351 0.5
709 10.5395 0.115997 0.326006 0.5
710 6.91157 6.44971 3.71522 0.5
711 0.885989 0.303989 13.4983 0.5
712 12.2452 1.74642 9.40727 0.5
713 8.6306 9.33128 8.20502 0.5
714 13.3321 3.73884 8.61795 0.5
715 0.00810487 8.56468 3.59767 0.5
716 1.05576 2.26653 10.7812 0.5
717 3.10669 7.58152 0.85874 0.5
718 11.2519 0.8939 8.29131 0.5
719 4.48277 10.5422 11.3867 0.5
720 12.6712 11.9212 2.73212 0.5
721 10.4379 5.03798 8.51866 0.5
722 6.12132 12.943 12.7033 0.5
723 3.8863 10.314 9.51329 0.5
724 8.54245 0.769728 9.38117 0.5
725 2.71791 2.33197 6.06517 0.5
726 7.50778 2.41986 7.24494 0.5
727 5.0493 3.20199 0.00210219 0.5
728 12.5959 3.18374 4.6351 0.5
729 9.45784 5.29782 1.23446 0.5
730 8.54804 5.61348 6.20522 0.5
731 11.3167 0.365474 0.960824 0.5
732 2.68658 3.34032 8.45864 0.5
733 8.1714 11.5297 1.18642 0.5
734 10.3133 11.1654 6.23529 0.5
735 3.05933 6.12818 8.67953 0.5
736 4.15808 4.61804 11.4359 0.5
737 6.21047 3.82423 2.7523 0.5
738 1.62407 8.15622 10.9546 0.5
739 6.85677 13.4309 8.4291 0.5
740 11.267 1.56817 9.37329 0.5
741 7.5691 4.46506 5.26521 0.5
742 5.51469 9.47236 1.06973 0.5
743 8.11005 7.93772 4.88652 0.5
744 5.36357 3.78591 12.7956 0.5
745 8.05204 6.27815 11.7503 0.5
746 4.72689 8.20618 9.73819 0.5
747 0.211836 13.4084 11.9489 0.5
748 7.68751 9.0597 8.08368 0.5
749 5.47874 9.4852 3.29255 0.5
750 2.2961 1.40365 13.3347 0.5
751 13.4015 8.1613 12.574 0.5
752 2.90015 1.40651 12.4955 0.5
753 7.4872 1.67777 0.22155 0.5
754 2.72596 12.1042 11.802 0.5
755 6.59939 2.74531 12.7785 0.5
756 6.47292 7.89966 1.56819 0.5
757 11.8189 6.40665 12.0474 0.5
758 4.67346 12.3358 5.52073 0.5
759 12.4571 8.34576 2.17734 0.5
760 7.06912 4.8892 4.44418 0.5
761 3.13744 11.0668 0.101979 0.5
762 0.886571 3.60757 0.986923 0.5
763 11.5215 13.5682 4.41831 0.5
764 9.31762 9.00875 3.05173 0.5
765 0.197771 2.94415 1.53074 0.5
766 8.38213 3.24448 4.31722 0.5
767 4.05439 7.4047 0.693678 0.5
768 13.0473 12.9163 11.414 0.5
769 11.3717 2.89631 5.67156 0.5
770 12.0934 7.47577 6.8713 0.5
771 7.95719 7.45184 5.76534 0.5
772 1.74013 2.69803 9.99696 0.5
773 9.41005 3.40438 8.02436 0.5
774 9.07685 0.778745 2.95785 0.5
775 9.55062 0.0710045 11.5307 0.5
776 2.05851 8.9068 6.57493 0.5
777 11.0056 12.019 3.97539 0.5
778 11.8233 11.8553 3.32714 0.5
779 7.90474 8.45856 5.58613 0.5
780 3.75453 10.3714 8.51959 0.5
781 12.5676 2.10213 6.18748 0.5
782 10.668 3.03473 3.73856 0.5
783 13.531 9.8561 12.791 0.5
784 2.66176 2.4365 5.11765 0.5
785 10.703 9.23748 5.37421 0.5
786 8.57323 4.14042 4.82256 0.5
787 5.74416 12.0663 2.73565 0.5
788 11.3929 6.76361 11.1928 0.5
789 8.57412 3.60036 2.36743 0.5
790 8.06032 1.15155 2.70369 0.5
791 5.46827 7.2209 12.2631 0.5
792 6.43213 2.1713 7.2742 0.5
793 6.26764 8.94366 3.48192 0.5
794 12.1239 0.873135 3.30569 0.5
795 7.49408 8.6203 4.58477 0.5
796 2.2329 11.2853 7.80729 0.5
797 4.48757 3.71354 11.1556 0.5
798 2.5969 2.80585 4.15148 0.5
799 -0.030513 1.88095 5.83442 0.5
800 0.712006 7.94072 13.1805 0.5
801 7.45995 5.88835 2.93711 0.5
802 5.00398 10.9698 12.2712 0.5
803 11.0162 10.8365 11.2719 0.5
804 0.0391411 6.53419 10.48 0.5
805 9.37261 7.88495 2.24122 0.5
806 2.53783 7.7493 8.56419 0.5
807 3.46155 5.31691 8.2915 0.5
808 2.0578 8.78563 3.11789 0.5
809 9.5118 4.58478 11.787 0.5
810 2.08333 12.1791 10.9472 0.5
811 10.463 7.38555 3.56845 0.5
812 2.21202 8.77969 11.4811 0.5
813 7.47799 5.47268 11.94 0.5
814 9.29374 0.103908 5.70004 0.5
815 11.1812 12.6022 8.28068 0.5
816 9.61391 8.23528 1.36397 0.5
817 10.9954 11.2463 3.18877 0.5
818 3.06476 10.1045 0.408069 0.5
819 6.00554 12.8026 7.25483 0.5
820 0.371609 12.9625 9.25435 0.5
821 10.9143 2.91548 4.77095 0.5
822 9.28502 0.779989 4.93622 0.5
823 9.56144 0.0957753 10.5442 0.5
824 2.24924 8.24174 5.15059 0.5
825 8.38008 1.21167 1.75485 0.5
826 6.7325 12.6757 7.85372 0.5
827 10.9275 0.829163 1.76436 0.5
828 5.35792 4.40848 2.75057 0.5
829 4.93146 1.58825 8.06447 0.5
830 5.32051 12.7003 8.94706 0.5
831 11.2693 13.4971 7.79654 0.5
832 12.7844 4.89145 9.58505 0.5
833 2.39443 11.345 11.3661 0.5
834 9.89253 1.11668 12.5264 0.5
835 1.96134 6.06189 12.3572 0.5
836 7.8979 9.247 12.1412 0.5
837 6.09164 3.29619 13.48 0.5
838 12.7891 0.0785386 12.2059 0.5
839 4.67888 5.45011 1.11483 0.5
840 7.76093 12.6711 0.00426324 0.5
841 5.96631 10.6383 6.08304 0.5
842 13.1313 3.6615 11.9568 0.5
843 12.9221 2.8307 13.4611 0.5
844 4.54088 3.97725 13.2325 0.5
845 10.2591 5.21411 6.20759 0.5
846 6.34115 12.6841 8.88741 0.5
847 4.39893 7.59141 6.61247 0.5
848 4.6721 7.0904 11.6667 0.5
849 0.318309 12.6968 6.16146 0.5
850 10.427 11.232 11.8684 0.5
851 6.84212 10.9641 6.49844 0.5
852 6.41969 9.53044 7.37109 0.5
853 4.27464 7.485 9.21296 0.5
854 10.4958 6.37471 3.50522 0.5
855 9.26213 11.0202 3.26023 0.5
856 2.51434 13.3323 3.56975 0.5
857 9.70102 4.25471 10.8036 0.5
858 7.8935 9.87622 8.56934 0.5
859 10.9635 4.74656 5.62419 0.5
860 10.0435 4.36853 5.64141 0.5
861 11.2735 0.472428 6.18613 0.5
862 10.429 6.42718 11.1413 0.5
863 7.1806 7.86093 5.1594 0.5
864 8.43395 6.76716 7.25718 0.5
865 12.0932 3.22448 0.182616 0.5
866 5.55293 12.4362 1.91477 0.5
867 12.3785 3.80752 1.05575 0.5
868 9.75989 9.71215 9.34121 0.5
869 4.71502 0.390419 0.456787 0.5
870 3.69182 8.19776 6.35611 0.5
871 12.422 8.09802 5.17254 0.5
872 1.13307 6.39787 11.8951 0.5
873 12.6557 0.740777 2.54524 0.5
874 7.7465 6.12829 12.6601 0.5
875 7.45198 11.2437 5.75721 0.5
876 2.12749 6.17144 8.34872 0.5
877 11.5225 7.91305 7.49349 0.5
878 2.1953 11.4051 0.0564922 0.5
879 2.87455 3.74821 7.52668 0.5
880 11.8429 0.830666 1.69876 0.5
881 10.4803 10.6612 12.8091 0.5
882 1.71267 10.4133 3.84355 0.5
883 10.5001 12.6007 1.5188 0.5
884 13.3956 3.82092 1.15382 0.5
885 8.42096 10.4997 10.9286 0.5
886 0.988751 2.95471 8.08794 0.5
887 1.24883 1.20786 13.2595 0.5
888 5.21502 5.05711 1.85611 0.5
889 10.8426 4.13591 8.67881 0.5
890 11.949 8.48113 6.64822 0.5
891 3.36704 6.12196 3.0523 0.5
892 9.35409 0.0946613 9.52223 0.5
893 10.4766 3.51975 7.83505 0.5
894 7.37235 7.84445 1.15556 0.5
895 12.1862 8.75022 1.23235 0.5
896 7.39503 11.9567 0.458222 0.5
897 6.17651 12.7056 3.46119 0.5
898 4.84598 12.4578 2.61874 0.5
899 10.3556 4.84404 10.1988 0.5
900 11.5439 11.6369 9.61932 0.5
901 0.0883992 5.03279 10.0549 0.5
902 10.8631 5.87952 8.68497 0.5
903 9.93268 8.06198 3.01121 0.5
904 7.80674 3.47461 5.03314 0.5
905 0.747938 5.84828 6.01179 0.5
906 12.6359 5.27722 2.99791 0.5
907 6.37925 4.1351 10.3709 0.5
908 8.48055 0.126129 4.87786 0.5
909 9.50792 3.0484 2.4699 0.5
910 8.42372 2.07824 7.27606 0.5
911 6.11382 6.41808 12.3688 0.5
912 8.41342 8.54275 11.7011 0.5
913 11.5148 5.88132 13.5389 0.5
914 5.03383 1.30928 0.710101 0.5
915 8.17831 2.49391 5.02741 0.5
916 11.1282 7.80172 6.60833 0.5
917 12.4644 0.979282 11.728 0.5
918 7.89751 6.16736 8.0612 0.5
919 12.858 11.9213 0.937712 0.5
920 0.0756931 12.1226 10.0243 0.5
921 6.25607 6.31457 6.74822 0.5
922 13.1742 2.83415 12.4699 0.5
923 2.24704 2.61742 9.1972 0.5
924 10.7107 12.172 10.0913 0.5
925 10.3011 3.63044 2.22675 0.5
926 4.80712 10.4349 13.1874 0.5
927 1.43086 6.88778 5.06584 0.5
928 13.3634 5.89056 5.8182 0.5
929 1.9957 2.71315 10.9746 0.5
930 10.5173 10.0692 8.75211 0.5
931 5.38675 9.36447 12.0163 0.5
932 3.7536 9.04835 3.21979 0.5