ITEM: TIMESTEP
170000
ITEM: NUMBER OF ATOMS
1000
ITEM: BOX BOUNDS xy xz yz pp pp pp
0.0000000000000000e+00 1.3572088000000001e+01 0.0000000000000000e+00
0.0000000000000000e+00 1.3572088000000001e+01 0.0000000000000000e+00
0.0000000000000000e+00 1.3572088000000001e+01 0.0000000000000000e+00
ITEM: ATOMS id x y z radius
1 4.69694 3.86102 12.3077 0.5
2 5.78058 10.6244 3.07859 0.5
3 8.28588 10.4842 3.34083 0.5
4 9.95025 5.40994 2.08235 0.5
5 8.82714 6.69149 10.3796 0.5
6 3.29244 13.0317 5.1306 0.5
7 2.80183 8.77024 0.704158 0.5
8 13.3611 11.8879 2.06172 0.5
9 1.66727 7.95625 5.84358 0.5
10 3.56135 13.0529 10.3083 0.5
11 0.753096 9.45928 9.07873 0.5
12 10.5218 6.01875 1.50237 0.5
13 9.02917 11.1319 6.5853 0.5
14 11.3789 2.26763 4.2935 0.5
15 6.25977 1.79994 4.73614 0.5
16 7.54955 6.61396 8.65796 0.5
17 6.81435 12.0394 9.93033 0.5
18 2.49445 8.68537 5.72305 0.5
19 9.24852 4.79131 2.36921 0.5
20 9.95913 11.4261 3.52725 0.5
21 1.86742 4.92781 1.04623 0.5
22 1.46212 7.12744 11.2041 0.5
23 1.69181 1.46586 10.0204 0.5
24 7.38622 7.40076 2.14102 0.5
25 1.43424 6.48741 2.57585 0.5
26 10.4928 9.69017 6.64049 0.5
27 11.3706 6.48543 12.9302 0.5
28 4.79264 11.4198 12.0169 0.5
29 0.564372 6.3612 1.26402 0.5
30 7.98274 11.1067 1.82864 0.5
31 0.716933 13.2726 8.87675 0.5
32 10.2891 2.52974 13.3357 0.5
33 0.0901625 6.11606 9.62652 0.5
34 3.12286 9.1925 6.21418 0.5
35 11.8346 6.71491 0.17778 0.5
36 9.08875 1.98646 6.46424 0.5
37 12.2903 0.593281 3.27928 0.5
38 3.13116 1.69687 1.81934 0.5
39 9.93935 4.2512 1.84713 0.5
40 5.67133 5.83535 6.53574 0.5
41 8.49714 10.8631 5.73273 0.5
42 6.71911 5.34964 3.61454 0.5
43 4.84175 5.39166 10.1382 0.5
44 4.03338 10.0807 8.65282 0.5
45 7.31249 6.39122 2.11683 0.5
46 10.0106 11.353 13.4013 0.5
47 2.26076 9.56017 5.5018 0.5
48 7.83799 10.7018 0.980389 0.5
49 6.44665 12.6732 9.25773 0.5
50 6.51215 1.08039 10.1703 0.5
51 0.0901501 10.6048 7.35889 0.5
52 5.17497 10.4679 6.62927 0.5
53 9.65993 3.33238 1.83159 0.5
54 11.5915 10.8504 3.7514 0.5
55 0.178225 1.17338 6.71419 0.5
56 12.6307 5.57672 2.50481 0.5
57 0.0423125 11.7967 11.4172 0.5
58 5.1095 8.45648 10.1958 0.5
59 1.24845 10.6509 11.4114 0.5
60 7.40748 5.6691 8.69723 0.5
61 4.13894 12.5317 11.0772 0.5
62 0.940714 8.49122 0.982104 0.5
63 11.948 9.32508 1.8426 0.5
64 11.671 1.88394 10.1347 0.5
65 12.7249 1.82061 5.38844 0.5
66 13.0416 1.52631 2.12597 0.5
67 8.72649 3.02019 7.3765 0.5
68 3.08061 2.0554 2.72469 0.5
69 12.3478 2.21592 10.9485 0.5
70 11.7046 3.75989 10.9562 0.5
71 2.30192 7.02369 8.95049 0.5
72 7.64259 2.84567 9.89297 0.5
73 8.58671 6.77527 8.51486 0.5
74 5.56994 4.58567 10.3387 0.5
75 8.54124 0.0903032 10.1964 0.5
76 12.6437 3.2126 0.78261 0.5
77 10.655 2.68971 3.14617 0.5
78 9.04316 3.36653 4.72808 0.5
79 4.1103 12.8084 5.67812 0.5
80 4.84099 2.71972 7.82853 0.5
81 1.52304 3.77076 11.0805 0.5
82 1.36806 9.0348 0.198293 0.5
83 3.34803 1.0488 6.56776 0.5
84 12.7948 9.45661 9.75248 0.5
85 0.186977 3.37425 7.81936 0.5
86 3.23693 0.283907 13.347 0.5
87 4.10214 6.00974 6.51238 0.5
88 6.51235 5.74005 4.52127 0.5
89 11.5894 12.6064 7.77411 0.5
90 4.20329 5.29592 4.48878 0.5
91 11.4413 7.18125 12.2326 0.5
92 13.2899 0.725394 2.83138 0.5
93 0.406392 1.16944 0.413443 0.5
94 4.75294 9.8338 12.3346 0.5
95 12.0497 1.5077 8.55205 0.5
96 11.9759 3.10207 4.31761 0.5
97 12.0858 3.41426 5.27882 0.5
98 11.1294 10.2238 0.402788 0.5
99 6.50311 8.77465 9.2383 0.5
100 0.653675 6.7307 5.53664 0.5
101 4.38495 11.7112 2.21207 0.5
102 8.35531 6.1533 11.0123 0.5
103 4.24445 5.38634 10.9093 0.5
104 6.75782 10.4843 5.89109 0.5
105 11.6618 12.6657 6.74339 0.5
106 7.32508 1.43643 10.8257 0.5
107 13.3342 4.68432 9.01452 0.5
108 1.00761 10.8516 5.92098 0.5
109 0.345679 11.1799 9.8203 0.5
110 8.02352 9.06433 9.00387 0.5
111 8.32853 0.153987 3.7586 0.5
112 5.74094 0.889384 4.61851 0.5
113 1.09513 0.723577 6.8436 0.5
114 7.12552 6.96155 3.03355 0.5
115 5.07577 6.92176 12.2659 0.5
116 0.762487 5.80675 2.13855 0.5
117 1.31206 0.228057 5.90864 0.5
118 11.2263 9.021 6.26192 0.5
119 11.22 8.65938 1.71475 0.5
120 5.08494 9.15366 3.78406 0.5
121 11.9353 13.1195 11.5895 0.5
122 2.33298 3.63217 1.96913 0.5
123 11.541 1.46614 11.0283 0.5
124 11.0784 10.9558 12.2652 0.5
125 5.36519 11.185 3.73748 0.5
126 10.9528 10.9873 13.31 0.5
127 7.45515 10.4358 11.2233 0.5
128 5.64779 2.3114 7.1242 0.5
129 2.35524 7.02482 11.0317 0.5
130 1.07182 11.8412 9.80269 0.5
131 7.83412 1.47617 1.47551 0.5
132 5.2016 12.2089 1.83814 0.5
133 0.849833 11.3714 10.8101 0.5
134 10.6678 10.7154 4.11734 0.5
135 12.5383 2.62903 5.90007 0.5
136 8.17572 5.10697 4.48334 0.5
137 3.15846 12.8504 6.14119 0.5
138 7.50203 11.8419 12.9793 0.5
139 5.80946 0.200404 12.8237 0.5
140 6.28493 2.7876 2.93538 0.5
141 1.19682 3.54572 4.34869 0.5
142 9.10988 2.73864 12.9112 0.5
143 0.498887 0.478098 12.4803 0.5
144 8.9588 12.3934 7.75657 0.5
145 6.45186 6.98166 2.31918 0.5
146 9.96307 8.6463 9.36976 0.5
147 4.53846 6.64865 0.539223 0.5
148 12.8214 13.5734 11.5082 0.5
149 7.39053 6.12366 9.55781 0.5
150 12.6037 11.1515 3.54252 0.5
151 6.68043 11.742 8.95318 0.5
152 3.76946 4.18704 12.041 0.5
153 11.5979 6.60833 8.27471 0.5
154 2.67099 2.70004 1.925 0.5
155 1.97019 8.82201 10.9223 0.5
156 7.79322 12.2531 0.225347 0.5
157 1.75572 1.03728 3.56309 0.5
158 1.15699 9.03927 8.31215 0.5
159 4.22995 1.70923 9.08852 0.5
160 9.15372 0.806909 10.6709 0.5
161 12.4952 3.13608 10.9026 0.5
162 7.1478 2.83319 7.89452 0.5
163 10.5599 9.40877 0.399865 0.5
164 9.3171 2.78383 11.8314 0.5
165 7.07116 11.3108 10.6112 0.5
166 10.9396 13.2207 7.27893 0.5
167 11.6145 7.57118 8.40292 0.5
168 1.95319 3.32801 7.99094 0.5
169 10.6864 11.7093 12.7281 0.5
170 3.69087 6.32781 0.0947715 0.5
171 10.2595 5.09422 1.17623 0.5
172 10.7385 7.31653 10.6158 0.5
173 8.58288 10.5698 2.2943 0.5
174 4.11253 0.0147157 12.887 0.5
175 3.57722 6.72079 3.87421 0.5
176 4.00171 5.19838 3.39153 0.5
177 9.41814 4.12216 5.47698 0.5
178 6.17143 2.5449 4.05088 0.5
179 13.4628 6.15152 2.07431 0.5
180 9.7649 2.09178 12.509 0.5
181 10.9361 11.3307 9.30918 0.5
182 2.68955 11.9769 1.18574 0.5
183 8.1287 8.31314 6.59613 0.5
184 10.3459 4.49608 9.23215 0.5
185 8.5584 1.02216 9.78523 0.5
186 4.02831 8.70031 2.598 0.5
187 5.03105 13.2035 13.2876 0.5
188 4.93146 6.15928 7.07285 0.5
189 0.442801 11.3692 6.68142 0.5
190 8.7796 12.874 3.55582 0.5
191 9.81099 7.63857 3.77641 0.5
192 10.7246 0.923571 0.308281 0.5
193 12.4026 1.25793 10.5849 0.5
194 8.69426 0.096858 11.2127 0.5
195 12.5753 9.24202 12.5594 0.5
196 8.9601 0.68875 4.32759 0.5
197 2.65624 6.79068 8.03568 0.5
198 7.00283 5.947 12.2106 0.5
199 11.0257 1.91866 8.465 0.5
200 6.87783 6.91275 1.38177 0.5
201 0.442014 3.58036 8.70364 0.5
202 6.93196 0.252708 6.96359 0.5
203 1.68399 3.91975 1.26292 0.5
204 0.574157 8.21568 8.10899 0.5
205 12.3231 12.5639 4.54116 0.5
206 0.949735 0.812726 10.4308 0.5
207 6.0418 12.5415 7.59156 0.5
208 9.55258 5.7407 6.68102 0.5
209 5.39482 2.27955 3.35234 0.5
210 4.08578 6.6909 5.72343 0.5
211 3.66174 4.56592 11.0721 0.5
212 3.34648 5.76143 4.03843 0.5
213 3.56322 2.18693 5.129 0.5
214 9.83763 3.56383 11.5763 0.5
215 7.94103 6.88318 1.4796 0.5
216 6.34186 8.41259 0.131155 0.5
217 3.72593 11.5818 4.76405 0.5
218 5.78897 7.99195 3.87078 0.5
219 8.17621 1.06665 4.00383 0.5
220 6.09073 1.90224 9.77568 0.5
221 2.20023 4.17168 5.97255 0.5
222 7.01409 10.8312 4.96377 0.5
223 4.4163 9.62699 3.07528 0.5
224 13.2999 9.60786 3.1452 0.5
225 7.77109 11.8302 10.1917 0.5
226 10.8225 6.67629 0.245198 0.5
227 12.6391 9.0999 10.768 0.5
228 4.32982 11.8021 5.57044 0.5
229 5.34903 3.84643 6.45028 0.5
230 6.10166 9.38784 8.47756 0.5
231 8.27655 5.83786 8.9833 0.5
232 6.76924 5.15857 12.9703 0.5
233 1.74764 0.556585 9.73229 0.5
234 11.9792 2.43473 5.1178 0.5
235 1.38095 11.2803 3.22705 0.5
236 9.67438 5.86587 1.09774 0.5
237 4.70837 7.95525 6.68846 0.5
238 1.49838 12.7699 6.24243 0.5
239 10.5649 7.81866 4.32876 0.5
240 1.61597 4.7271 11.7056 0.5
241 4.48954 5.70721 0.187363 0.5
242 3.12346 1.06369 2.56762 0.5
243 2.70458 10.1543 3.19216 0.5
244 3.77471 12.1237 6.33798 0.5
245 0.899227 11.4716 11.8061 0.5
246 9.55757 9.35253 8.6493 0.5
247 4.1764 0.23374 9.90347 0.5
248 7.28239 2.17771 1.78996 0.5
249 10.3931 1.80148 0.584427 0.5
250 9.71724 1.12909 0.248338 0.5
251 5.24313 9.90193 11.4917 0.5
252 8.4873 8.28477 0.137955 0.5
253 1.8931 8.58595 1.00583 0.5
254 11.3106 3.46614 2.89642 0.5
255 8.33229 9.66041 2.65094 0.5
256 1.43714 0.188441 3.17374 0.5
257 1.0951 3.84919 7.94687 0.5
258 0.378856 5.88563 6.93343 0.5
259 3.85622 4.94255 10.0189 0.5
260 6.39271 11.1503 9.78023 0.5
261 11.1526 3.84066 5.53127 0.5
262 7.58935 10.2133 5.47575 0.5
263 3.10773 4.45543 8.551 0.5
264 10.7869 10.5073 8.71728 0.5
265 0.941847 4.52354 4.48971 0.5
266 3.70603 0.137682 5.87481 0.5
267 5.47219 7.43266 8.88489 0.5
268 6.82675 1.48362 1.26101 0.5
269 8.55871 13.3876 7.99477 0.5
270 6.926 9.64029 7.90223 0.5
271 10.6968 12.8861 6.46097 0.5
272 5.98621 9.13838 0.741807 0.5
273 7.72716 5.15641 3.51344 0.5
274 10.2563 3.48381 8.84521 0.5
275 2.49874 11.0508 0.813086 0.5
276 4.9382 13.3087 11.3273 0.5
277 7.72396 4.89518 13.341 0.5
278 10.1809 10.3202 0.102025 0.5
279 9.47156 10.6723 5.84884 0.5
280 4.30077 12.5914 1.74964 0.5
281 6.57924 2.83464 10.0898 0.5
282 13.3127 11.1444 1.45265 0.5
283 4.5887 4.80081 2.54118 0.5
284 1.57099 10.9888 0.355793 0.5
285 1.96613 10.368 6.18835 0.5
286 3.46338 0.728103 12.5436 0.5
287 7.70699 7.43749 6.83613 0.5
288 6.12909 0.0914708 5.00803 0.5
289 2.37359 11.1662 2.99429 0.5
290 0.943798 13.3991 6.77676 0.5
291 6.36669 1.1037 5.46682 0.5
292 4.78867 3.02138 12.837 0.5
293 11.4877 5.94898 4.12372 0.5
294 1.28204 9.79598 5.94171 0.5
295 2.90232 1.65529 5.7876 0.5
296 0.160988 4.3674 8.10354 0.5
297 10.9744 11.8018 11.7895 0.5
298 10.0304 4.19206 12.4352 0.5
299 2.43335 0.532386 12.6572 0.5
300 8.97254 4.067 1.77544 0.5
301 6.61318 6.7007 11.56 0.5
302 2.42484 9.05646 2.94523 0.5
303 12.8781 9.03453 2.42166 0.5
304 0.456255 6.8535 6.51236 0.5
305 7.80848 12.528 6.82037 0.5
306 11.026 8.65898 0.648585 0.5
307 2.93962 7.51421 3.49575 0.5
308 0.356803 10.1111 12.3419 0.5
309 13.4159 13.4895 13.0855 0.5
310 8.94779 13.2546 4.50182 0.5
311 0.109909 4.9884 7.25339 0.5
312 7.36603 11.2376 9.55273 0.5
313 1.09442 11.0601 4.1979 0.5
314 5.90955 12.1564 8.55806 0.5
315 13.0367 6.30401 3.08383 0.5
316 8.60345 6.01126 7.10351 0.5
317 13.538 9.04775 3.87642 0.5
318 13.2104 4.62294 6.41865 0.5
319 10.4806 11.0638 0.700218 0.5
320 6.07943 3.10885 6.51973 0.5
321 2.17388 13.1107 3.014 0.5
322 9.59115 12.8968 0.808225 0.5
323 3.91543 1.7035 2.46118 0.5
324 10.2803 3.53245 3.21068 0.5
325 0.580829 5.9355 12.5842 0.5
326 10.5057 12.8296 0.743818 0.5
327 9.0853 2.45905 8.08267 0.5
328 12.1874 7.03733 12.9132 0.5
329 7.79515 3.49835 7.61168 0.5
330 8.64684 1.28858 4.94104 0.5
331 5.31049 3.26713 3.1559 0.5
332 11.7296 2.20463 9.12747 0.5
333 12.6193 1.45665 2.97606 0.5
334 4.06989 5.9688 1.08594 0.5
335 9.73955 0.254656 4.67285 0.5
336 4.45937 1.2507 8.30014 0.5
337 11.5836 0.893529 10.2465 0.5
338 7.74091 5.26249 9.50332 0.5
339 9.51151 3.82676 2.62088 0.5
340 12.3459 3.34223 12.5793 0.5
341 9.05426 12.8952 8.75949 0.5
342 5.60216 0.557923 5.70708 0.5
343 6.68072 5.44759 9.35359 0.5
344 5.4724 6.84111 6.68092 0.5
345 7.18635 8.1011 6.32025 0.5
346 0.630789 7.71606 5.81929 0.5
347 12.5759 11.4511 0.697824 0.5
348 1.24846 4.33371 0.507958 0.5
349 8.75748 7.49875 6.54068 0.5
350 7.7951 6.71436 10.4003 0.5
351 2.643 9.59802 11.2624 0.5
352 9.4108 12.0245 6.92145 0.5
353 8.41351 7.63813 1.72281 0.5
354 2.22844 3.18479 5.60439 0.5
355 2.28643 7.04243 2.81968 0.5
356 11.456 12.3077 4.93969 0.5
357 6.16574 11.6297 3.16117 0.5
358 4.51854 1.15549 9.92798 0.5
359 7.07337 9.40534 8.85489 0.5
360 13.1153 4.11028 7.28679 0.5
361 3.95593 1.3223 7.46719 0.5
362 0.849781 1.11154 9.49439 0.5
363 9.90586 11.9678 0.659253 0.5
364 3.32737 7.84704 0.845119 0.5
365 2.38668 7.81268 0.597229 0.5
366 6.65756 8.64396 8.19141 0.5
367 10.8237 11.9442 0.174077 0.5
368 4.8457 4.60471 9.63696 0.5
369 2.14204 3.09413 4.57099 0.5
370 0.0737355 10.4449 6.26888 0.5
371 9.35776 0.0774545 3.69529 0.5
372 0.285439 4.84262 3.65288 0.5
373 5.41911 2.23958 12.6747 0.5
374 0.641395 9.28099 12.9159 0.5
375 0.613399 10.0566 8.1844 0.5
376 2.05789 11.5171 3.99749 0.5
377 7.45083 5.81469 4.2122 0.5
378 5.92988 9.36219 13.3885 0.5
379 5.11452 5.91519 1.06046 0.5
380 6.93445 4.38313 0.0529668 0.5
381 10.1632 2.59919 8.32871 0.5
382 9.30396 2.93202 8.93012 0.5
383 1.69629 5.5527 1.73004 0.5
384 5.32529 10.2602 13.1312 0.5
385 12.4276 11.544 1.71649 0.5
386 0.140536 3.96594 4.18403 0.5
387 1.14009 6.18978 10.9429 0.5
388 2.3593 2.04709 10.5543 0.5
389 5.06066 9.47126 10.1331 0.5
390 4.59047 4.55759 10.6278 0.5
391 7.23994 0.214578 2.42889 0.5
392 0.0250413 5.48979 2.80416 0.5
393 3.2066 5.28825 9.30588 0.5
394 8.92448 8.88361 9.3253 0.5
395 1.37998 0.430884 8.80836 0.5
396 13.1592 1.10074 3.65599 0.5
397 7.37074 0.628312 1.45527 0.5
398 9.01048 11.9288 3.38883 0.5
399 1.04674 4.22352 3.52423 0.5
400 6.322 8.04229 4.70369 0.5
401 9.51276 2.0161 13.453 0.5
402 4.8666 7.27092 5.90859 0.5
403 7.31384 13.252 6.36818 0.5
404 10.3871 10.3245 11.7409 0.5
405 12.303 5.92758 0.502576 0.5
406 7.53556 1.90871 13.3294 0.5
407 2.0462 12.1357 3.24284 0.5
408 1.58589 3.92536 5.14209 0.5
409 3.62259 5.15849 11.811 0.5
410 11.6101 2.65238 3.41196 0.5
411 4.54912 6.52165 13.0532 0.5
412 4.9256 13.5286 12.363 0.5
413 3.32404 7.26581 8.69177 0.5
414 2.80732 9.06339 10.4016 0.5
415 8.00382 9.84755 10.6252 0.5
416 8.88057 10.1824 6.39742 0.5
417 1.53867 13.2627 9.42389 0.5
418 9.40447 0.436264 9.84167 0.5
419 3.26659 12.9379 11.3029 0.5
420 4.09165 0.34818 7.09115 0.5
421 0.412265 5.79351 10.5709 0.5
422 8.68747 4.79892 5.46714 0.5
423 12.2117 13.2468 3.79476 0.5
424 2.50612 4.01523 4.99879 0.5
425 8.28131 7.17369 11.1326 0.5
426 13.5495 13.1589 6.78661 0.5
427 7.33662 2.1922 0.776549 0.5
428 13.551 8.92002 9.39767 0.5
429 10.0113 5.44744 9.05099 0.5
430 8.11222 0.886006 10.6675 0.5
431 2.4717 5.30857 8.53645 0.5
432 0.105824 1.6605 2.94903 0.5
433 7.71424 11.2827 0.144769 0.5
434 0.279154 4.30733 0.333504 0.5
435 11.1297 9.47283 1.20402 0.5
436 6.51541 4.72877 9.96493 0.5
437 4.10493 9.35576 5.83243 0.5
438 6.20564 3.08025 7.57614 0.5
439 10.9058 11.0282 10.2643 0.5
440 9.71394 10.3124 6.81847 0.5
441 5.73209 12.927 4.26837 0.5
442 1.36479 7.01724 6.04792 0.5
443 0.568694 11.8659 1.3349 0.5
444 9.30051 8.5793 13.1348 0.5
445 4.91176 8.68909 3.04217 0.5
446 3.89583 6.32164 4.70899 0.5
447 1.55334 8.91169 5.65229 0.5
448 5.13602 9.63537 0.382738 0.5
449 4.0262 0.00474845 10.8997 0.5
450 3.2956 2.62795 0.994678 0.5
451 6.79522 2.57149 13.4678 0.5
452 2.16298 8.5629 13.5344 0.5
453 5.074 10.1909 3.76054 0.5
454 3.11203 0.123672 3.08818 0.5
455 0.978624 2.92506 10.5553 0.5
456 7.955 12.5263 7.77981 0.5
457 12.1669 11.9475 8.31106 0.5
458 3.96192 0.822007 9.11221 0.5
459 13.4899 2.47347 5.6252 0.5
460 12.8228 6.75907 0.105448 0.5
461 11.4384 7.73715 11.2645 0.5
462 11.0457 2.72282 7.70922 0.5
463 6.98544 3.47889 7.0061 0.5
464 11.6052 8.77226 11.0698 0.5
465 5.37945 10.6547 12.165 0.5
466 3.1996 0.106711 6.66378 0.5
467 1.44188 7.9627 0.336409 0.5
468 12.999 8.51061 10.0265 0.5
469 1.24932 2.85455 11.5112 0.5
470 2.11962 5.45879 12.1147 0.5
471 4.91923 0.506432 10.6326 0.5
472 11.0177 6.837 4.11747 0.5
473 12.3215 7.16009 7.70237 0.5
474 1.5752 8.15517 8.40666 0.5
475 6.30849 3.99928 6.21497 0.5
476 7.42518 1.06786 9.9597 0.5
477 5.83231 8.05116 9.69205 0.5
478 2.84498 12.5462 0.443959 0.5
479 9.0858 7.5747 13.3596 0.5
480 3.01168 10.0026 8.54372 0.5
481 2.22011 4.08237 0.488748 0.5
482 10.1603 13.3814 1.52717 0.5
483 8.24376 11.452 2.86876 0.5
484 10.1713 6.97596 4.50125 0.5
485 4.69615 5.56479 1.90913 0.5
486 3.38702 10.8633 8.98989 0.5
487 5.01478 2.06082 8.63371 0.5
488 5.79286 4.77504 6.51434 0.5
489 3.7599 0.910243 3.23617 0.5
490 1.32166 12.4101 8.9934 0.5
491 3.20907 7.64035 11.2147 0.5
492 1.16783 5.67241 11.8626 0.5
493 11.3349 8.13564 10.2871 0.5
494 7.48116 4.66615 0.737941 0.5
495 6.5506 7.544 0.659658 0.5
496 6.53748 13.2547 12.615 0.5
497 5.33868 5.31948 7.32478 0.5
498 3.35347 12.1124 5.44016 0.5
499 7.3503 2.53335 10.7666 0.5
500 11.249 8.87552 5.3587 0.5
501 5.41278 1.84485 4.31928 0.5
502 9.72806 10.32 8.97734 0.5
503 8.37222 5.3985 12.9717 0.5
504 2.8459 1.22475 13.2792 0.5
505 4.77483 2.99712 11.7884 0.5
506 3.41291 11.2843 1.23799 0.5
507 7.85995 4.18048 4.11694 0.5
508 0.436126 2.04753 6.33934 0.5
509 4.78741 5.33565 6.48151 0.5
510 7.92724 11.4028 11.1942 0.5
511 6.63548 0.266321 5.94363 0.5
512 8.35314 11.3201 3.94497 0.5
513 6.03564 4.04606 1.81646 0.5
514 5.79164 8.09641 0.993443 0.5
515 1.74536 10.3633 2.84176 0.5
516 5.39369 9.65948 2.93626 0.5
517 1.70879 3.55376 3.55004 0.5
518 1.69506 7.17255 8.13757 0.5
519 4.92968 7.45645 9.79107 0.5
520 2.22636 0.47204 0.0456039 0.5
521 11.2223 5.40325 4.9545 0.5
522 2.23825 10.468 11.3835 0.5
523 13.2908 8.09123 3.56985 0.5
524 0.923171 1.21589 5.94627 0.5
525 10.4271 10.0979 1.14801 0.5
526 8.46586 11.798 7.26416 0.5
527 7.07138 10.7002 1.60228 0.5
528 1.44698 0.964738 0.303651 0.5
529 13.3483 0.443534 0.465747 0.5
530 11.5401 2.73069 10.7233 0.5
531 10.6807 8.25589 11.008 0.5
532 5.93666 8.85332 4.24794 0.5
533 5.52462 7.64981 10.7269 0.5
534 1.76967 11.5098 11.4004 0.5
535 8.14599 12.6945 12.8986 0.5
536 1.47419 12.9694 3.68628 0.5
537 2.72722 11.6074 9.03622 0.5
538 7.87788 10.0312 1.82475 0.5
539 2.32701 8.06892 2.80273 0.5
540 1.50772 3.43104 8.84862 0.5
541 3.526 12.0297 1.9297 0.5
542 7.60185 13.4915 12.6018 0.5
543 13.0976 5.62034 6.61966 0.5
544 8.08352 2.56961 8.01749 0.5
545 2.71493 6.46836 3.61551 0.5
546 1.46838 0.380626 12.9447 0.5
547 10.4027 5.36964 5.38302 0.5
548 11.9172 13.4864 7.3858 0.5
549 0.640091 10.514 9.16043 0.5
550 12.4705 12.1778 3.64848 0.5
551 6.43726 0.722145 1.97104 0.5
552 3.87641 7.28704 0.0599379 0.5
553 10.8365 5.24328 9.52027 0.5
554 3.99522 13.0293 6.60201 0.5
555 0.715647 3.30205 3.60931 0.5
556 7.32724 12.59 12.2613 0.5
557 6.96869 10.9256 0.555885 0.5
558 5.01004 2.03879 9.62789 0.5
559 2.71773 10.9229 8.28584 0.5
560 7.18094 3.53774 10.5268 0.5
561 7.93871 8.93195 12.1168 0.5
562 0.0344121 3.36376 0.437256 0.5
563 9.03237 6.61363 6.47139 0.5
564 8.0675 5.52894 0.38986 0.5
565 9.54216 5.06637 5.99223 0.5
566 7.08501 1.99447 10.0323 0.5
567 12.0802 5.9734 3.27924 0.5
568 8.02186 1.83373 10.1782 0.5
569 10.906 6.27964 12.0224 0.5
570 12.7332 8.2115 2.69321 0.5
571 2.75703 0.935933 3.55831 0.5
572 4.88834 3.07635 0.290646 0.5
573 0.391233 0.383764 6.17503 0.5
574 9.07378 8.11091 3.48944 0.5
575 8.7331 0.0601245 2.84297 0.5
576 3.57587 10.6444 7.98477 0.5
577 3.40297 9.32415 3.12547 0.5
578 1.65144 11.6098 1.0974 0.5
579 13.4226 9.21132 12.2498 0.5
580 2.75592 5.83314 7.827 0.5
581 1.59476 13.147 8.41496 0.5
582 3.10834 12.1691 10.6772 0.5
583 2.50942 10.9782 13.4713 0.5
584 10.7696 6.21029 4.90058 0.5
585 12.6327 4.99625 7.18963 0.5
586 13.0051 5.65363 10.3213 0.5
587 0.131865 2.26388 2.14991 0.5
588 13.4815 0.926155 13.0866 0.5
589 13.4269 9.92585 8.96351 0.5
590 4.28415 11.0321 8.62454 0.5
591 3.92048 3.15836 12.1888 0.5
592 10.621 11.7185 10.9083 0.5
593 5.18158 9.77117 6.01224 0.5
594 0.166737 11.2786 5.70983 0.5
595 12.6024 10.4973 6.06687 0.5
596 9.16488 10.0733 3.0342 0.5
597 3.09632 11.2923 7.33054 0.5
598 7.97415 11.1095 4.85948 0.5
599 11.6549 11.1193 8.69607 0.5
600 12.3432 6.07106 13.1575 0.5
601 4.566 5.76288 2.87265 0.5
602 12.9074 5.5721 9.26288 0.5
603 2.62127 7.97376 10.6028 0.5
604 5.46374 1.33495 10.1824 0.5
605 8.15677 3.20121 10.8039 0.5
606 12.1301 9.04639 5.81418 0.5
607 8.80135 9.80694 8.96015 0.5
608 8.17813 11.9609 12.1577 0.5
609 0.945915 11.7289 0.345836 0.5
610 0.806723 8.47618 9.05685 0.5
611 0.141716 9.11597 8.37648 0.5
612 5.5543 13.2199 3.27068 0.5
613 3.33288 5.66987 5.10706 0.5
614 4.64898 13.0333 10.3735 0.5
615 2.44485 10.5395 9.09245 0.5
616 0.70975 6.85513 2.04496 0.5
617 6.60692 6.02956 2.79587 0.5
618 10.7613 6.97098 8.25643 0.5
619 11.665 3.00018 0.877202 0.5
620 0.116642 10.8243 11.6198 0.5
621 1.93329 4.25564 4.17775 0.5
622 5.85141 8.34932 8.70625 0.5
623 12.7077 8.49655 4.2792 0.5
624 0.444963 6.36686 2.79669 0.5
625 2.09041 3.33169 11.7112 0.5
626 2.73962 4.23659 1.25244 0.5
627 10.4839 5.7391 0.451844 0.5
628 12.6497 4.19576 10.7158 0.5
629 6.68869 3.3613 2.11016 0.5
630 3.19369 3.58996 0.474379 0.5
631 10.1592 0.535799 13.1528 0.5
632 6.56429 12.2408 12.8365 0.5
633 10.2112 0.88053 1.19347 0.5
634 10.3782 10.4595 9.64317 0.5
635 10.3542 1.55966 13.2004 0.5
636 9.9524 3.15676 12.4932 0.5
637 13.0446 11.2152 6.56223 0.5
638 5.43689 1.54763 5.31349 0.5
639 8.2686 5.90302 10.01 0.5
640 2.80864 4.87463 7.69025 0.5
641 8.68042 8.16473 5.72022 0.5
642 11.2991 6.34893 0.898272 0.5
643 11.4824 1.71797 7.58759 0.5
644 6.75025 3.75089 9.58129 0.5
645 0.795047 11.9627 6.01445 0.5
646 8.9677 8.84925 12.228 0.5
647 7.58364 6.50787 11.4016 0.5
648 8.35003 10.3613 11.3643 0.5
649 6.27579 7.67491 11.3771 0.5
650 3.86323 0.540074 8.02911 0.5
651 0.366686 5.19269 6.14306 0.5
652 5.35509 3.22262 7.21091 0.5
653 1.50488 6.47541 1.60265 0.5
654 4.80952 10.293 10.7073 0.5
655 11.538 12.147 9.08476 0.5
656 0.761842 10.9848 1.00851 0.5
657 11.1346 0.606325 7.30916 0.5
658 9.69405 9.71178 6.01502 0.5
659 0.932212 10.2972 3.48925 0.5
660 0.755215 0.200283 9.60535 0.5
661 0.911635 7.54917 8.68598 0.5
662 3.55383 11.1244 5.77073 0.5
663 5.41304 12.2388 3.49581 0.5
664 4.90677 6.24801 6.0783 0.5
665 10.046 10.4611 3.36461 0.5
666 5.88881 11.8982 9.54184 0.5
667 10.0985 4.25717 8.25776 0.5
668 5.69957 3.20313 2.26403 0.5
669 7.58635 10.5768 2.54694 0.5
670 8.65219 12.8211 7.08161 0.5
671 6.70446 8.48601 1.1259 0.5
672 3.01206 3.68121 5.83532 0.5
673 5.41526 8.63399 0.131983 0.5
674 3.46618 8.3929 10.5469 0.5
675 1.30735 3.80349 12.0908 0.5
676 2.29826 0.494965 2.7696 0.5
677 3.25263 8.35789 3.12552 0.5
678 12.3079 8.14279 10.7399 0.5
679 11.4471 12.9359 5.71593 0.5
680 4.36732 11.6546 1.33684 0.5
681 3.53215 1.38905 8.4156 0.5
682 2.18257 2.2309 11.5412 0.5
683 1.90276 6.22102 11.6156 0.5
684 11.6006 12.4464 3.96854 0.5
685 12.016 11.6342 4.30935 0.5
686 10.5581 7.2699 11.6002 0.5
687 5.14169 9.24822 13.0012 0.5
688 0.955423 8.33214 5.07553 0.5
689 3.32976 3.44442 1.58118 0.5
690 3.93595 8.58588 6.51432 0.5
691 12.9962 10.1468 12.164 0.5
692 4.90278 0.6088 13.2278 0.5
693 11.5358 5.60365 12.5389 0.5
694 5.46898 9.06433 9.38992 0.5
695 11.9383 8.80605 2.68088 0.5
696 11.1335 3.02935 8.61379 0.5
697 13.2934 9.88955 7.92786 0.5
698 6.10308 10.099 6.56114 0.5
699 3.02179 8.06007 13.465 0.5
700 12.6753 8.92315 3.39527 0.5
701 8.58335 8.15304 12.6918 0.5
702 4.15421 2.13581 8.16699 0.5
703 1.29085 5.03509 12.6298 0.5
704 8.59394 3.38534 8.33552 0.5
705 10.8772 7.96708 7.88 0.5
706 6.4929 11.3247 5.72913 0.5
707 4.01661 4.76168 9.06848 0.5
708 0.429254 1.1767 2.25846 0.5
709 10.0604 0.130291 0.488416 0.5
710 6.81304 6.36868 3.82403 0.5
711 0.718224 0.339525 13.5696 0.5
712 12.317 1.42684 9.57022 0.5
713 8.70119 9.04154 8.2972 0.5
714 13.0585 3.8772 8.39946 0.5
715 13.56 8.69431 2.97652 0.5
716 1.44973 2.08243 10.8287 0.5
717 3.02077 7.15403 0.21455 0.5
718 11.3406 0.946322 8.27652 0.5
719 4.5028 10.5589 11.702 0.5
720 12.4936 11.7518 2.739 0.5
721 10.792 5.04733 8.5149 0.5
722 5.64052 12.8176 12.6025 0.5
723 3.80029 11.7159 9.21425 0.5
724 8.65126 0.172494 9.18028 0.5
725 2.53656 2.36049 5.13141 0.5
726 7.72402 2.62689 7.09064 0.5
727 5.74396 2.88097 13.2814 0.5
728 12.8459 2.72411 4.8604 0.5
729 9.31687 5.00104 1.4734 0.5
730 8.65124 5.69081 6.13816 0.5
731 10.8938 0.152829 0.982055 0.5
732 2.573 3.44036 8.7953 0.5
733 7.40602 11.6205 1.09165 0.5
734 9.9647 11.3395 6.47299 0.5
735 3.01104 6.18254 8.73344 0.5
736 4.51749 4.74422 11.6717 0.5
737 6.15011 3.77269 2.86001 0.5
738 2.18303 7.889 11.4256 0.5
739 7.24218 0.236812 7.9164 0.5
740 11.3689 1.28815 9.28982 0.5
741 7.78958 4.36548 5.11838 0.5
742 5.11026 8.84635 1.10943 0.5
743 8.18173 7.79927 4.92476 0.5
744 5.55276 3.24656 12.3977 0.5
745 8.02414 5.97698 12.0888 0.5
746 4.93964 8.21042 9.20332 0.5
747 0.0465576 13.2895 12.0977 0.5
748 7.59142 8.92254 8.1145 0.5
749 5.92102 9.7633 3.67939 0.5
750 1.82977 1.28955 13.0148 0.5
751 0.425094 8.38391 12.5984 0.5
752 2.57171 1.48247 12.3414 0.5
753 7.52472 1.22681 0.61327 0.5
754 3.40639 11.9803 11.5818 0.5
755 6.67532 1.86946 12.7672 0.5
756 6.49023 7.70992 1.6538 0.5
757 11.9904 6.37679 12.1515 0.5
758 4.10924 12.4526 4.80313 0.5
759 12.2468 8.381 1.84948 0.5
760 7.13884 4.87441 4.38408 0.5
761 3.18146 11.5952 0.375931 0.5
762 0.599364 3.71917 1.13364 0.5
763 11.492 13.206 4.62533 0.5
764 9.0638 9.03181 3.04232 0.5
765 13.43 3.05969 1.46399 0.5
766 7.94282 3.41758 4.64898 0.5
767 3.67132 6.83858 0.943179 0.5
768 12.8616 12.5961 11.6052 0.5
769 11.5232 2.86766 5.84304 0.5
770 12.0173 7.64474 6.79614 0.5
771 7.9319 7.51285 5.92402 0.5
772 1.68954 2.51927 9.92351 0.5
773 9.53725 3.36478 8.07169 0.5
774 8.91591 0.829408 3.32401 0.5
775 9.67631 0.276909 11.4969 0.5
776 2.11595 9.33031 6.40106 0.5
777 10.9109 11.6906 3.97097 0.5
778 11.7193 11.6401 3.34251 0.5
779 7.8009 8.53702 5.62508 0.5
780 3.45591 11.5719 8.30594 0.5
781 13.0228 1.90427 6.45717 0.5
782 11.1019 3.27545 3.94786 0.5
783 13.2775 9.75047 12.9971 0.5
784 3.12241 3.13486 4.94444 0.5
785 10.5974 9.6171 5.62952 0.5
786 8.64302 4.25808 4.65218 0.5
787 5.84912 12.4118 2.58419 0.5
788 11.3602 6.80063 11.2493 0.5
789 8.81366 3.17806 2.17763 0.5
790 7.97716 0.816639 3.04886 0.5
791 6.09138 7.28626 12.2431 0.5
792 6.7019 2.47175 7.00557 0.5
793 6.68867 8.2938 3.83622 0.5
794 11.6835 0.446209 4.10303 0.5
795 7.32696 8.46231 4.6226 0.5
796 3.63822 9.06363 8.52475 0.5
797 4.32512 3.81388 11.3842 0.5
798 2.7092 3.56822 4.08429 0.5
799 13.5523 1.41731 5.78474 0.5
800 1.3082 8.41048 13.0118 0.5
801 7.47116 5.96245 3.16157 0.5
802 4.54681 10.714 12.718 0.5
803 10.9389 10.9008 11.3358 0.5
804 13.3053 6.62318 10.5808 0.5
805 9.09227 8.17856 2.38077 0.5
806 2.50023 7.84062 8.28498 0.5
807 3.51639 5.33364 8.3663 0.5
808 1.82159 9.60029 3.47596 0.5
809 9.32745 4.55863 11.8148 0.5
810 2.43643 12.3074 11.4458 0.5
811 10.1966 6.79876 3.42541 0.5
812 2.8542 8.60481 11.4084 0.5
813 7.62518 5.11077 12.3174 0.5
814 9.75245 0.504584 5.68743 0.5
815 11.924 12.9043 8.68383 0.5
816 8.61959 7.5464 0.785795 0.5
817 10.8178 11.1396 3.10778 0.5
818 3.34321 10.6463 0.465896 0.5
819 6.26463 13.1461 6.63554 0.5
820 0.549349 12.6926 9.63347 0.5
821 11.1972 3.01732 4.90475 0.5
822 9.65406 1.17215 5.04515 0.5
823 9.39763 13.3797 10.6289 0.5
824 1.98659 8.18186 4.96774 0.5
825 8.12196 0.734575 2.10009 0.5
826 7.05032 12.9231 7.33162 0.5
827 10.7861 0.550849 1.99538 0.5
828 5.32592 4.08459 2.51469 0.5
829 4.96645 1.7699 7.63774 0.5
830 5.82137 13.1367 8.416 0.5
831 11.2944 13.52 8.20092 0.5
832 12.8082 4.80336 9.86543 0.5
833 2.74076 11.3051 11.2453 0.5
834 9.37909 1.19085 12.8565 0.5
835 1.54316 6.07252 12.6044 0.5
836 7.64298 9.57585 11.5117 0.5
837 6.4185 2.7848 12.5177 0.5
838 12.6004 13.1316 12.3799 0.5
839 4.51124 5.10098 1.07608 0.5
840 7.19534 12.7977 13.2265 0.5
841 5.7493 10.6436 5.76933 0.5
842 12.4841 3.77766 11.76 0.5
843 12.8957 3.03411 13.3584 0.5
844 5.16695 3.80031 13.2026 0.5
845 10.4467 5.34293 6.33401 0.5
846 6.67025 12.6554 8.27377 0.5
847 3.98235 7.662 6.04853 0.5
848 5.32766 7.75819 11.7024 0.5
849 0.558461 12.9951 6.01812 0.5
850 10.1491 11.3672 11.8743 0.5
851 6.02464 11.0819 6.60549 0.5
852 5.7781 10.5635 7.46713 0.5
853 4.42481 7.41782 8.89325 0.5
854 10.4561 6.07115 3.94462 0.5
855 9.15033 11.0438 3.17625 0.5
856 2.24949 0.128337 3.78488 0.5
857 9.6591 4.29591 10.8071 0.5
858 7.93784 9.88922 8.40849 0.5
859 11.1986 4.89833 5.87043 0.5
860 10.3845 4.42117 5.77564 0.5
861 11.4792 -0.0182398 6.49938 0.5
862 10.403 6.45342 11.1059 0.5
863 7.19054 7.8619 5.33826 0.5
864 8.46273 6.9569 7.34584 0.5
865 12.027 3.39461 13.5367 0.5
866 5.42217 13.1176 2.1551 0.5
867 12.1235 4.02675 0.746675 0.5
868 9.59547 9.57431 9.63621 0.5
869 4.23718 0.0442885 0.271622 0.5
870 3.4872 8.50457 5.69119 0.5
871 11.9463 8.43099 5.01746 0.5
872 0.960787 6.63595 11.8818 0.5
873 12.5351 0.62772 2.26938 0.5
874 7.59283 5.82121 13.0818 0.5
875 7.48402 11.1517 5.75869 0.5
876 1.98698 6.21892 8.43581 0.5
877 11.9043 8.12393 7.65043 0.5
878 2.23071 11.8464 0.345226 0.5
879 2.89087 3.76101 7.83294 0.5
880 11.635 0.435427 1.54406 0.5
881 10.2587 10.7456 12.7154 0.5
882 1.9052 10.5653 3.70607 0.5
883 10.0214 12.3055 1.61671 0.5
884 13.1841 3.99563 1.07997 0.5
885 7.89568 10.8025 10.4528 0.5
886 1.01429 2.85059 8.18699 0.5
887 0.772807 1.24603 13.1027 0.5
888 5.25191 4.68481 1.8194 0.5
889 11.0413 4.11548 8.63572 0.5
890 11.9852 8.65576 6.75691 0.5
891 3.62587 6.00404 3.09307 0.5
892 9.09134 13.0506 9.7564 0.5
893 10.611 3.58256 7.91046 0.5
894 7.43272 7.72879 1.14606 0.5
895 11.9471 8.84503 1.00045 0.5
896 6.90919 11.9431 0.180652 0.5
897 6.33705 12.5836 3.43892 0.5
898 4.82029 12.5355 2.75403 0.5
899 9.85556 4.90987 9.91771 0.5
900 11.7747 11.394 9.70357 0.5
901 0.181335 5.18271 9.8523 0.5
902 10.9263 6.02829 8.81353 0.5
903 9.82655 8.35069 2.96561 0.5
904 8.51709 3.72497 5.45783 0.5
905 0.994327 5.99556 6.16328 0.5
906 12.8282 5.27899 3.44451 0.5
907 6.31247 3.84305 10.4333 0.5
908 8.95277 0.350693 5.25552 0.5
909 9.62088 2.85745 2.78874 0.5
910 8.61858 2.08263 7.33742 0.5
911 6.02022 6.33796 12.3304 0.5
912 8.5963 9.20441 11.3283 0.5
913 11.4795 5.75701 0.0553161 0.5
914 4.66218 0.83496 0.62995 0.5
915 8.41217 2.76017 5.19259 0.5
916 11.1273 8.11989 6.87284 0.5
917 12.0851 0.397971 12.0926 0.5
918 8.02387 6.12098 7.99719 0.5
919 13.1943 12.1103 1.18599 0.5
920 0.287275 12.0497 10.3679 0.5
921 5.84175 6.2434 7.45934 0.5
922 12.8733 2.77404 11.8855 0.5
923 1.97649 2.53389 8.52623 0.5
924 11.0589 11.9773 10.0591 0.5
925 10.4634 3.42248 2.30814 0.5
926 4.37691 9.86175 13.2913 0.5
927 1.26588 7.41555 5.05108 0.5
928 0.0114692 6.20127 6.05735 0.5
929 1.94944 2.90991 10.8477 0.5
930 10.5215 9.56624 9.12377 0.5
931 5.72753 9.73329 12.3892 0.5
932 4.06107 8.83406 3.574 0.5
933 0.0709864 11.4334 0.543387 0.5