ITEM: TIMESTEP
890000
ITEM: NUMBER OF ATOMS
1000
ITEM: BOX BOUNDS xy xz yz pp pp pp
0.0000000000000000e+00 1.3572088000000001e+01 0.0000000000000000e+00
0.0000000000000000e+00 1.3572088000000001e+01 0.0000000000000000e+00
0.0000000000000000e+00 1.3572088000000001e+01 0.0000000000000000e+00
ITEM: ATOMS id x y z radius
1 4.09181 2.9934 12.159 0.5
2 4.78272 11.7197 4.70623 0.5
3 9.7097 10.4065 2.91854 0.5
4 10.3479 5.85012 1.05984 0.5
5 9.2055 7.33822 10.0261 0.5
6 3.40223 12.9783 5.88436 0.5
7 2.9042 9.18368 0.762386 0.5
8 12.4649 11.9261 2.21355 0.5
9 1.91026 8.25724 6.78373 0.5
10 3.3897 0.302216 11.6486 0.5
11 0.310872 9.23809 9.27553 0.5
12 10.3111 6.07533 0.0916276 0.5
13 7.68556 11.1425 4.571 0.5
14 10.381 3.0193 4.14465 0.5
15 6.03312 0.781004 4.93854 0.5
16 7.34555 6.5671 9.45851 0.5
17 6.58025 11.3927 10.4075 0.5
18 2.86002 8.472 6.4355 0.5
19 10.7781 4.9778 1.25953 0.5
20 11.021 12.6276 3.64002 0.5
21 2.04968 4.96083 1.14983 0.5
22 1.20459 6.30131 12.1333 0.5
23 1.43441 1.79086 9.91488 0.5
24 7.67231 7.42195 2.03613 0.5
25 0.521901 6.23419 2.25194 0.5
26 10.6144 10.638 5.71678 0.5
27 11.498 5.95894 11.5219 0.5
28 4.56726 11.3471 12.4166 0.5
29 12.869 5.80331 1.11245 0.5
30 8.60819 10.8477 1.72994 0.5
31 0.898304 13.447 8.23209 0.5
32 9.2127 2.89481 12.4641 0.5
33 13.3022 6.1991 9.37785 0.5
34 3.76264 8.96846 5.98443 0.5
35 12.3213 6.36653 13.1955 0.5
36 8.64102 2.24707 5.19202 0.5
37 0.0588219 1.08721 2.43623 0.5
38 2.53864 1.36796 1.88939 0.5
39 10.2222 4.25539 0.959524 0.5
40 5.90165 5.88117 5.42551 0.5
41 6.96572 11.1244 5.27418 0.5
42 7.1031 5.18302 3.09467 0.5
43 5.85097 4.6358 10.2086 0.5
44 3.95186 11.7568 8.63958 0.5
45 7.53501 6.38555 1.92664 0.5
46 10.2157 11.337 13.4356 0.5
47 2.77835 9.36017 5.9176 0.5
48 7.79677 10.4263 1.28144 0.5
49 6.72867 12.1664 9.69579 0.5
50 4.93658 0.626954 11.0794 0.5
51 13.185 10.2629 7.20297 0.5
52 6.34606 10.4124 7.65909 0.5
53 9.43649 4.07341 1.51514 0.5
54 11.8565 12.0924 3.79694 0.5
55 0.264624 0.541409 4.87285 0.5
56 13.2603 3.26857 3.37882 0.5
57 0.384022 10.4787 12.0094 0.5
58 5.85746 8.44438 10.9831 0.5
59 1.85608 10.8828 11.4452 0.5
60 6.76105 5.00407 8.86373 0.5
61 3.85556 0.828436 10.9971 0.5
62 1.36108 7.99805 0.317133 0.5
63 12.0094 8.73448 1.78582 0.5
64 11.6749 1.76032 9.48117 0.5
65 0.339397 1.91108 5.68975 0.5
66 12.2319 1.53944 1.6919 0.5
67 7.9943 2.09716 8.86737 0.5
68 2.83191 1.17154 2.94044 0.5
69 11.1309 2.15908 10.2469 0.5
70 12.2723 3.28074 9.74091 0.5
71 3.68334 5.96199 8.17787 0.5
72 7.14892 1.76411 11.0426 0.5
73 8.21014 6.58686 8.85717 0.5
74 5.87646 4.49767 9.18262 0.5
75 8.95042 0.476299 10.6473 0.5
76 12.0522 3.65701 12.9821 0.5
77 9.93513 3.42467 3.40682 0.5
78 8.71047 3.05982 5.63749 0.5
79 4.14418 12.4047 6.34829 0.5
80 4.67721 2.28141 8.76617 0.5
81 1.47917 3.49133 11.5624 0.5
82 1.1391 9.01189 13.5766 0.5
83 3.45399 0.339353 6.23307 0.5
84 0.404598 8.53801 8.50882 0.5
85 13.4941 3.98306 6.46358 0.5
86 2.32351 1.4243 13.0696 0.5
87 4.24894 6.23807 5.77502 0.5
88 6.9774 6.18589 3.52693 0.5
89 11.8394 12.7408 7.6882 0.5
90 3.47648 5.54376 4.41901 0.5
91 11.7401 6.90677 11.1263 0.5
92 13.1384 1.4473 1.50882 0.5
93 13.002 0.65164 12.2325 0.5
94 4.7798 10.493 12.923 0.5
95 11.7264 1.65994 7.81589 0.5
96 11.3034 2.93795 4.12742 0.5
97 11.5914 2.89467 5.05465 0.5
98 10.5939 9.71648 0.375336 0.5
99 6.8286 8.68636 9.67824 0.5
100 0.597169 7.34002 6.29483 0.5
101 4.54872 11.5859 2.84175 0.5
102 9.04085 6.52073 9.4217 0.5
103 4.59023 4.39604 11.0663 0.5
104 7.42865 11.097 6.16981 0.5
105 11.8943 12.3659 6.69158 0.5
106 5.47626 1.44999 11.0585 0.5
107 12.979 5.59475 6.14044 0.5
108 13.1208 10.6296 5.44687 0.5
109 1.12497 12.3869 9.51993 0.5
110 8.26154 9.18824 8.47278 0.5
111 8.29389 0.187554 3.39529 0.5
112 5.19698 0.677927 5.4392 0.5
113 0.517043 0.177001 6.41775 0.5
114 7.37164 6.86604 2.82226 0.5
115 5.61363 6.27677 12.0939 0.5
116 12.6063 5.41395 2.13355 0.5
117 0.0390522 1.18448 6.27473 0.5
118 11.3832 10.0545 5.25981 0.5
119 12.878 8.63705 1.44644 0.5
120 5.85471 9.31734 3.89185 0.5
121 11.8782 13.5529 10.85 0.5
122 1.79647 3.349 2.02491 0.5
123 11.6242 2.35996 8.64671 0.5
124 10.2645 11.1023 11.5913 0.5
125 4.8743 11.9621 3.68356 0.5
126 11.2717 11.2175 13.4135 0.5
127 8.30194 10.7148 10.8175 0.5
128 6.48387 3.06377 7.04631 0.5
129 2.13683 6.45977 12.5732 0.5
130 0.433192 11.4924 11.7893 0.5
131 8.12386 2.78564 2.2567 0.5
132 5.52631 11.5571 3.07058 0.5
133 0.867506 10.828 11.1201 0.5
134 11.621 12.3495 2.83718 0.5
135 12.2726 2.63475 5.64504 0.5
136 7.42868 5.06637 4.66787 0.5
137 3.15 12.2647 6.66207 0.5
138 7.42651 11.9305 13.4251 0.5
139 5.4137 12.9755 0.420775 0.5
140 4.59482 3.39809 3.22622 0.5
141 1.68854 3.40111 4.09652 0.5
142 9.81806 3.59154 12.1802 0.5
143 13.4984 11.7202 13.4217 0.5
144 8.97982 12.8769 9.03549 0.5
145 6.75559 7.05165 2.09962 0.5
146 9.98316 8.85623 8.21127 0.5
147 4.52062 6.62314 0.0972335 0.5
148 12.393 0.37557 11.5043 0.5
149 8.30527 7.05756 9.70382 0.5
150 12.8415 11.6824 3.77017 0.5
151 6.47069 12.376 10.6746 0.5
152 3.89691 3.73723 11.4595 0.5
153 11.5474 7.25505 7.60671 0.5
154 2.1187 2.36655 1.76407 0.5
155 2.78206 7.88291 10.5074 0.5
156 8.19756 11.939 0.41174 0.5
157 1.30606 0.496615 3.11971 0.5
158 1.6608 10.2014 8.61248 0.5
159 3.24791 1.55615 9.27238 0.5
160 9.66878 0.377244 11.2789 0.5
161 12.0665 2.44788 10.2846 0.5
162 7.30669 2.46855 9.56877 0.5
163 11.4529 10.212 0.0941846 0.5
164 8.93201 3.48084 10.6826 0.5
165 7.41998 10.967 10.6378 0.5
166 11.0699 12.8484 7.15049 0.5
167 10.8893 7.87746 8.03869 0.5
168 0.640627 3.48162 7.05568 0.5
169 10.8101 11.3306 12.4849 0.5
170 3.64839 6.68784 0.534884 0.5
171 11.0522 5.59339 0.471104 0.5
172 12.6405 8.50108 10.9853 0.5
173 9.2606 10.1617 2.16656 0.5
174 5.04415 1.16171 0.287485 0.5
175 2.7396 6.78393 3.53679 0.5
176 2.49633 5.29641 4.33421 0.5
177 8.44337 5.10913 6.19204 0.5
178 4.90148 1.45223 4.04923 0.5
179 13.1283 6.2444 2.05693 0.5
180 9.47588 3.02878 11.4409 0.5
181 10.8725 10.9389 9.57321 0.5
182 3.30496 11.9162 1.48491 0.5
183 8.54303 7.2499 6.40522 0.5
184 10.6487 5.37535 7.88593 0.5
185 8.69433 0.363644 11.6095 0.5
186 4.98362 8.11468 3.12487 0.5
187 5.59779 0.307078 13.4818 0.5
188 5.16971 6.21525 6.16676 0.5
189 0.791701 11.0226 6.5693 0.5
190 9.05682 13.0193 3.15124 0.5
191 10.2379 7.62771 2.6101 0.5
192 10.0785 1.26803 13.2145 0.5
193 10.7691 2.06495 9.2567 0.5
194 9.09019 13.2254 10.9275 0.5
195 13.0169 9.0788 12.4004 0.5
196 8.45054 1.2858 4.68828 0.5
197 2.906 6.67648 8.06611 0.5
198 5.83622 5.54365 12.7771 0.5
199 11.9099 0.765113 8.28233 0.5
200 7.14901 7.05245 1.2129 0.5
201 12.7355 4.30097 7.11587 0.5
202 5.82614 12.8904 8.36874 0.5
203 1.55538 4.04974 1.45624 0.5
204 3.80162 7.90996 8.71528 0.5
205 11.1087 0.0318252 4.83569 0.5
206 0.600213 1.53719 9.52348 0.5
207 4.199 11.8693 9.64003 0.5
208 8.55666 4.11671 5.98381 0.5
209 5.66359 2.17203 4.19992 0.5
210 4.09935 6.90035 5.04116 0.5
211 4.17043 4.77591 10.1578 0.5
212 2.78594 6.19984 4.44401 0.5
213 2.87806 1.05949 5.67205 0.5
214 9.74961 3.93173 11.1244 0.5
215 8.18324 6.84414 1.44251 0.5
216 6.56307 8.66936 0.135469 0.5
217 3.83967 11.5205 4.92246 0.5
218 7.00116 8.26691 4.75055 0.5
219 8.93399 0.763408 3.92644 0.5
220 6.81885 1.89187 10.0821 0.5
221 3.2983 3.04678 5.92012 0.5
222 7.07445 11.9367 5.96828 0.5
223 5.06008 9.13252 3.33517 0.5
224 12.2919 9.32454 3.78306 0.5
225 7.63447 10.8288 11.6252 0.5
226 10.6372 6.99275 13.5624 0.5
227 13.5587 7.23455 9.41067 0.5
228 4.4117 11.6268 5.73661 0.5
229 5.71465 4.29435 6.01717 0.5
230 6.47464 9.59748 9.36168 0.5
231 7.65788 5.78769 8.79062 0.5
232 7.60244 4.42337 12.6663 0.5
233 1.17337 0.712969 9.74963 0.5
234 10.84 2.48218 4.8654 0.5
235 2.10299 10.5887 3.19942 0.5
236 11.1176 6.55382 0.744177 0.5
237 5.82382 8.63391 6.43836 0.5
238 0.897959 12.7933 6.25171 0.5
239 9.42324 7.78212 3.07385 0.5
240 1.69707 4.96339 13.1271 0.5
241 3.74933 6.49286 1.52298 0.5
242 3.02517 0.580457 2.16229 0.5
243 3.23797 9.55551 4.06629 0.5
244 3.91545 11.4536 6.50411 0.5
245 1.26359 11.1125 12.1012 0.5
246 9.75655 9.83425 8.22171 0.5
247 3.30895 0.203972 10.5123 0.5
248 7.31476 2.65688 2.85196 0.5
249 10.6041 2.09931 12.9007 0.5
250 10.198 2.21103 0.149565 0.5
251 4.32261 9.71082 11.5223 0.5
252 8.58997 8.34066 12.9439 0.5
253 1.15238 8.9012 1.0015 0.5
254 10.0804 2.83151 2.55849 0.5
255 8.87025 9.74228 2.93528 0.5
256 1.57004 13.4276 3.9204 0.5
257 0.0400547 4.18809 7.50249 0.5
258 13.4449 7.2661 4.80914 0.5
259 5.01613 5.05087 10.5672 0.5
260 7.42718 11.9848 10.3619 0.5
261 10.8635 3.26494 5.66538 0.5
262 7.83637 11.5932 5.46333 0.5
263 1.7237 4.30041 8.33749 0.5
264 10.3726 10.4049 8.75762 0.5
265 1.7299 4.42185 4.54135 0.5
266 3.66182 13.0878 6.89197 0.5
267 5.34832 7.91867 9.57503 0.5
268 7.18809 2.3078 1.92768 0.5
269 9.65486 -0.0116088 9.252 0.5
270 6.84707 9.95354 8.50043 0.5
271 11.2992 11.876 7.39887 0.5
272 6.46561 9.33812 0.758925 0.5
273 7.6748 5.5439 3.81799 0.5
274 11.3814 5.12667 8.57067 0.5
275 2.71055 11.0396 1.45996 0.5
276 5.01708 2.25719 0.262212 0.5
277 7.19643 4.81025 13.4663 0.5
278 10.7251 10.7317 0.510939 0.5
279 9.32478 11.7195 5.71916 0.5
280 5.15203 12.4601 2.7862 0.5
281 6.27097 2.12595 10.8945 0.5
282 0.334402 12.3022 1.32322 0.5
283 4.86536 5.24161 1.29894 0.5
284 1.57104 11.4472 0.568465 0.5
285 3.70468 9.98366 5.9789 0.5
286 1.40264 1.72515 13.0846 0.5
287 7.81492 7.42283 6.97342 0.5
288 6.64022 0.152611 6.62135 0.5
289 2.9324 10.5292 3.78217 0.5
290 13.52 12.8847 5.94296 0.5
291 5.82565 1.36758 5.72408 0.5
292 4.54888 2.54374 13.0065 0.5
293 11.2044 5.78 4.17286 0.5
294 2.85718 10.1292 6.60767 0.5
295 2.29509 1.63259 6.25276 0.5
296 13.4191 4.90176 6.79891 0.5
297 10.4118 10.2392 11.0155 0.5
298 9.47899 4.49895 11.9632 0.5
299 1.69931 0.772644 12.9313 0.5
300 9.71694 5.0552 1.29643 0.5
301 6.31975 7.00759 11.9043 0.5
302 3.38552 8.95097 3.38824 0.5
303 12.0908 9.14769 2.78994 0.5
304 0.530589 7.87198 5.37251 0.5
305 8.41989 13.2467 8.33366 0.5
306 12.1299 8.45753 0.914105 0.5
307 2.1569 6.31478 2.84774 0.5
308 0.388505 9.47376 12.0852 0.5
309 12.6658 0.00410284 13.0075 0.5
310 8.28421 0.2697 4.48433 0.5
311 13.4744 6.52046 6.28364 0.5
312 7.02596 11.5903 11.2393 0.5
313 1.4554 10.3896 3.78617 0.5
314 6.16434 12.9402 9.89167 0.5
315 12.5883 6.14441 2.9135 0.5
316 7.87035 6.0638 7.83155 0.5
317 13.2848 8.89528 3.89892 0.5
318 0.313044 5.82584 5.76526 0.5
319 10.7395 11.7413 0.680415 0.5
320 5.93322 3.91723 7.003 0.5
321 2.52981 13.1752 3.8986 0.5
322 10.0792 0.372285 1.24192 0.5
323 3.49033 1.37971 2.21769 0.5
324 10.5677 3.73047 2.78571 0.5
325 1.69428 5.48067 0.415742 0.5
326 10.0066 13.2031 0.558418 0.5
327 8.00152 3.16115 9.00454 0.5
328 12.7518 5.43081 0.181852 0.5
329 8.67399 1.91187 8.08263 0.5
330 8.09926 1.49012 5.58822 0.5
331 5.45311 1.94711 3.32528 0.5
332 12.2666 1.58931 8.71143 0.5
333 12.8463 1.65894 2.44286 0.5
334 4.80753 6.15853 1.66276 0.5
335 9.29431 0.614415 4.78286 0.5
336 3.64933 2.50557 8.97992 0.5
337 12.0075 0.395666 12.3497 0.5
338 7.17635 5.58286 9.63035 0.5
339 10.251 4.38501 1.97917 0.5
340 11.7471 3.7419 11.3689 0.5
341 8.89868 0.404146 9.01201 0.5
342 6.03119 1.04293 6.57496 0.5
343 6.58388 5.94471 8.98128 0.5
344 5.77197 6.84314 5.90199 0.5
345 9.06058 8.0671 5.99833 0.5
346 1.39205 7.21721 5.62554 0.5
347 12.8895 12.1837 1.33365 0.5
348 1.49647 4.44411 0.507571 0.5
349 7.73044 6.57006 6.37828 0.5
350 8.54163 7.7782 10.5021 0.5
351 2.4763 8.78488 10.9891 0.5
352 8.25863 12.5549 7.57642 0.5
353 9.68045 6.76591 13.526 0.5
354 2.38525 2.8379 5.57847 0.5
355 1.67983 7.00287 3.47721 0.5
356 11.6134 12.7747 4.36885 0.5
357 6.67144 11.3067 4.40213 0.5
358 4.09445 0.863789 9.25335 0.5
359 7.42856 9.30057 9.08642 0.5
360 12.5899 3.46642 6.28487 0.5
361 3.25461 1.33402 6.52204 0.5
362 1.41243 1.33248 8.95078 0.5
363 10.8557 12.777 0.318526 0.5
364 3.52244 8.42033 0.672635 0.5
365 2.1974 9.01674 1.51163 0.5
366 6.62597 8.91047 8.65599 0.5
367 10.7982 12.0751 13.2778 0.5
368 5.11739 5.08582 9.57138 0.5
369 1.9598 3.62727 5.00702 0.5
370 0.420676 10.4096 5.84376 0.5
371 9.1181 13.447 4.02538 0.5
372 0.220374 3.97244 3.09798 0.5
373 4.6616 3.23837 0.250847 0.5
374 0.337455 9.04833 12.9879 0.5
375 0.545312 10.2046 8.88732 0.5
376 2.13211 10.9635 4.29724 0.5
377 6.72993 5.31576 3.9721 0.5
378 6.15409 9.56439 13.3642 0.5
379 4.05099 5.55579 1.77239 0.5
380 7.48336 3.85498 13.48 0.5
381 9.62109 3.12165 8.50702 0.5
382 9.07922 2.81324 7.71147 0.5
383 2.46912 4.91852 0.262952 0.5
384 5.61524 9.95594 12.5911 0.5
385 13.3143 11.4731 1.83175 0.5
386 0.0783639 4.01012 4.03612 0.5
387 1.69436 7.13884 11.8619 0.5
388 0.644032 2.37127 10.1687 0.5
389 3.40424 9.44031 11.1491 0.5
390 4.90562 4.15133 10.1271 0.5
391 8.12242 0.916795 1.9813 0.5
392 12.7051 5.11874 3.13099 0.5
393 2.5878 4.85786 8.8765 0.5
394 9.07784 9.19501 7.91168 0.5
395 1.61238 0.357051 8.82453 0.5
396 0.176794 2.09093 2.08907 0.5
397 8.11434 1.92121 1.72957 0.5
398 9.62278 12.1791 2.88993 0.5
399 1.06157 4.23094 3.78064 0.5
400 7.78594 9.01909 4.6769 0.5
401 10.0123 3.01263 13.0189 0.5
402 5.36338 7.74081 6.03804 0.5
403 5.55724 0.207898 7.92835 0.5
404 11.4568 10.5701 12.6204 0.5
405 11.9389 5.90024 0.526104 0.5
406 6.89897 2.67201 1.06026 0.5
407 2.53378 11.4228 3.54581 0.5
408 2.60106 3.76532 5.77429 0.5
409 3.60235 4.5528 10.937 0.5
410 10.7617 2.81781 3.26919 0.5
411 4.35618 6.00031 0.828759 0.5
412 5.35553 0.414812 0.91704 0.5
413 2.80398 5.84642 7.4958 0.5
414 3.37579 8.35253 11.2116 0.5
415 8.33302 10.0564 11.7258 0.5
416 8.94799 10.6997 5.77926 0.5
417 0.79579 13.4198 9.27927 0.5
418 9.79122 1.13724 10.6312 0.5
419 2.56449 13.1947 11.9808 0.5
420 3.07944 0.239629 7.29666 0.5
421 13.3492 5.17538 9.29353 0.5
422 8.06201 4.62967 5.31411 0.5
423 11.3149 0.898152 4.36355 0.5
424 3.04076 3.46766 5.04211 0.5
425 9.10816 7.2322 11.0982 0.5
426 0.554973 12.6128 8.68434 0.5
427 7.79197 2.68729 1.28764 0.5
428 1.19123 8.71228 9.33724 0.5
429 11.5896 5.40352 7.5949 0.5
430 9.40133 13.3684 11.9487 0.5
431 2.24466 5.04366 7.97628 0.5
432 12.8041 2.42535 1.73918 0.5
433 7.52998 11.0778 0.490321 0.5
434 0.0254588 2.9265 12.8593 0.5
435 11.2919 9.91099 1.06847 0.5
436 6.13512 5.38755 9.56368 0.5
437 4.35149 9.55775 6.73517 0.5
438 5.48141 3.0189 7.05117 0.5
439 11.1702 10.3016 10.3753 0.5
440 9.74007 10.981 6.29703 0.5
441 6.0284 0.343573 5.83924 0.5
442 1.50577 7.2905 6.64517 0.5
443 0.668215 11.9678 0.446852 0.5
444 9.12064 9.12346 13.1967 0.5
445 5.35385 8.51269 4.03498 0.5
446 3.64149 6.61449 4.22223 0.5
447 2.22368 9.20356 6.7756 0.5
448 5.59209 9.90976 0.676002 0.5
449 3.20742 13.0523 11.2166 0.5
450 3.10263 2.11776 1.58063 0.5
451 7.446 3.54459 0.87372 0.5
452 2.05687 8.70946 0.553347 0.5
453 5.22458 8.84472 2.3774 0.5
454 2.88647 0.15826 3.02932 0.5
455 1.55357 2.50687 11.7036 0.5
456 9.38703 13.4786 8.33165 0.5
457 12.3598 10.8931 8.72314 0.5
458 4.40147 0.378638 10.2134 0.5
459 11.6689 3.23249 6.19581 0.5
460 12.8864 6.41483 0.393954 0.5
461 12.1732 7.72056 11.5007 0.5
462 9.60472 4.1848 8.56681 0.5
463 5.04149 3.79201 7.44621 0.5
464 0.335101 8.18484 9.46363 0.5
465 4.99183 10.4704 11.9135 0.5
466 2.77264 13.2502 6.59666 0.5
467 1.63888 8.09731 1.31811 0.5
468 0.678837 7.56877 8.76429 0.5
469 2.05955 2.90238 11.0554 0.5
470 2.03251 6.21176 11.5433 0.5
471 3.69489 1.07435 10.0411 0.5
472 10.7838 6.76444 4.03697 0.5
473 11.8909 8.15547 7.56664 0.5
474 3.8683 6.98587 8.42983 0.5
475 5.08496 4.57518 6.87455 0.5
476 6.11237 0.528918 11.3767 0.5
477 6.09646 8.12216 10.1266 0.5
478 3.19407 12.3965 0.640778 0.5
479 8.97852 7.41507 13.2707 0.5
480 4.07389 10.8534 8.34028 0.5
481 2.30848 4.08942 0.767375 0.5
482 10.9225 13.439 1.04791 0.5
483 9.43369 11.2297 2.3342 0.5
484 9.96306 6.90864 3.19594 0.5
485 5.32498 4.42039 1.92993 0.5
486 3.98151 10.9561 9.30344 0.5
487 4.29697 3.25099 8.69127 0.5
488 5.53863 4.83216 5.21976 0.5
489 3.77165 0.642087 2.86212 0.5
490 0.0901175 12.6277 9.39577 0.5
491 2.75239 6.99063 11.9504 0.5
492 0.949643 5.23829 12.348 0.5
493 12.3601 8.73708 11.8121 0.5
494 6.74587 4.22343 0.529137 0.5
495 6.734 7.79106 0.646781 0.5
496 6.93418 0.0289872 13.4807 0.5
497 4.75057 4.55077 5.90251 0.5
498 3.42177 11.9556 5.76109 0.5
499 6.34724 1.50362 11.61 0.5
500 10.6557 9.61497 5.89846 0.5
501 5.83671 1.135 3.88417 0.5
502 9.44575 10.1932 9.18244 0.5
503 6.71421 5.80031 13.2257 0.5
504 1.69742 1.18966 0.298408 0.5
505 4.71522 3.52434 12.8131 0.5
506 3.71745 10.9139 1.29602 0.5
507 8.28013 4.65939 4.39131 0.5
508 13.3969 1.24151 5.28726 0.5
509 4.89924 5.52803 5.43524 0.5
510 7.65065 10.0281 11.0843 0.5
511 5.66763 0.208236 6.84041 0.5
512 10.58 12.2885 2.85199 0.5
513 4.72425 4.40917 2.67331 0.5
514 6.17173 8.43314 1.10887 0.5
515 2.72863 9.77773 3.16155 0.5
516 5.84084 8.66936 3.15409 0.5
517 0.948014 3.70441 4.64792 0.5
518 3.3053 6.4386 9.00815 0.5
519 5.32277 7.71756 10.6729 0.5
520 2.44223 0.486647 13.504 0.5
521 11.1754 6.57331 4.93286 0.5
522 2.94931 8.90181 11.8689 0.5
523 13.4875 8.33385 3.15014 0.5
524 13.361 0.335259 5.70904 0.5
525 11.4791 9.18013 0.35029 0.5
526 8.48514 12.2467 8.48419 0.5
527 7.69 10.8499 2.06412 0.5
528 2.05983 13.3673 12.7827 0.5
529 13.4238 12.5531 0.538768 0.5
530 11.4657 2.7721 9.56328 0.5
531 11.6343 8.522 11.1752 0.5
532 6.79983 9.1856 4.42805 0.5
533 6.2463 7.45156 10.9277 0.5
534 2.57894 12.3202 11.5011 0.5
535 8.09222 12.5245 13.0324 0.5
536 2.09105 12.3467 3.46864 0.5
537 2.26808 10.0851 9.55211 0.5
538 8.26666 10.0289 2.08294 0.5
539 2.27536 7.22498 2.74298 0.5
540 0.274442 3.30151 8.04897 0.5
541 4.20294 11.5248 1.83356 0.5
542 7.83655 13.5213 13.1048 0.5
543 13.0923 6.37026 5.41177 0.5
544 8.12158 2.81826 8.12938 0.5
545 1.38578 6.83773 2.48962 0.5
546 0.954168 0.0278739 12.8025 0.5
547 10.7898 5.63637 5.10487 0.5
548 11.881 13.3716 6.93343 0.5
549 11.8539 9.96416 8.74487 0.5
550 12.0385 0.171769 4.42149 0.5
551 7.27757 1.26149 1.67147 0.5
552 4.03702 7.5613 0.319669 0.5
553 10.2585 6.30165 8.21172 0.5
554 2.77446 12.8233 7.51667 0.5
555 0.638285 3.34231 3.7771 0.5
556 7.13377 12.7769 13.0247 0.5
557 7.05902 11.1115 1.41099 0.5
558 4.22111 1.87581 9.5465 0.5
559 2.66923 10.1162 8.71596 0.5
560 6.87536 2.45128 11.6113 0.5
561 8.178 8.36703 11.9916 0.5
562 12.697 2.83931 12.8587 0.5
563 8.38287 6.47456 7.12441 0.5
564 6.29302 4.87447 13.4558 0.5
565 8.90668 4.80471 5.28753 0.5
566 6.40625 1.18563 10.7029 0.5
567 12.7993 4.1779 3.37848 0.5
568 7.04573 0.832751 11.523 0.5
569 11.1061 7.13463 10.4171 0.5
570 0.0183658 8.88063 2.23338 0.5
571 2.16077 0.528418 2.48795 0.5
572 4.33048 1.62525 13.3257 0.5
573 0.638764 13.4337 5.47962 0.5
574 9.74091 8.47946 2.2928 0.5
575 8.43073 0.0976677 2.47556 0.5
576 3.1186 11.128 8.54008 0.5
577 4.28042 8.91936 2.80001 0.5
578 1.31445 12.174 1.23347 0.5
579 13.4042 8.94352 11.5085 0.5
580 2.83271 4.77407 7.25089 0.5
581 1.5284 12.9169 8.7243 0.5
582 1.77603 12.5801 11.8705 0.5
583 2.28388 10.7194 0.534717 0.5
584 10.2457 6.04803 4.47902 0.5
585 13.5173 4.87029 5.74785 0.5
586 0.511449 5.67466 9.66886 0.5
587 12.8737 3.06964 0.958295 0.5
588 12.6844 11.9346 0.401326 0.5
589 0.0426852 9.42714 8.33702 0.5
590 3.29829 11.6857 9.42279 0.5
591 4.73156 3.94835 11.9166 0.5
592 10.49 11.0667 10.5174 0.5
593 5.98466 10.3412 6.67151 0.5
594 13.3829 10.9326 6.42851 0.5
595 13.132 10.0196 6.19631 0.5
596 9.04415 9.26258 2.151 0.5
597 1.99537 9.29448 8.96068 0.5
598 8.68387 11.2784 5.04239 0.5
599 11.3348 10.7763 8.73023 0.5
600 10.6133 5.66643 11.1755 0.5
601 1.97878 6.14376 3.79265 0.5
602 0.31258 6.51444 10.1399 0.5
603 3.30847 7.35892 11.1525 0.5
604 4.6193 1.36537 10.4167 0.5
605 7.45357 1.65408 11.9122 0.5
606 11.8956 9.38068 4.82001 0.5
607 8.82408 10.0555 8.47052 0.5
608 8.51266 13.0471 12.2855 0.5
609 0.603977 10.973 0.285842 0.5
610 1.29306 9.7541 9.49471 0.5
611 1.0065 9.39615 8.5737 0.5
612 6.79215 12.6393 3.22051 0.5
613 3.40271 6.28085 5.22584 0.5
614 4.16233 13.4645 11.0975 0.5
615 4.66005 10.3158 8.88436 0.5
616 0.0601111 5.52532 1.62555 0.5
617 7.28262 5.31243 2.13071 0.5
618 10.9586 6.8913 8.36995 0.5
619 12.7012 3.99961 11.2756 0.5
620 1.27087 10.1209 11.702 0.5
621 2.57008 4.41275 4.99687 0.5
622 5.86042 8.74913 9.4146 0.5
623 13.1342 7.86015 4.03483 0.5
624 13.4473 5.55212 2.65768 0.5
625 1.51605 3.61669 10.5495 0.5
626 2.44775 4.11716 1.80683 0.5
627 10.1213 6.79647 0.807389 0.5
628 12.7549 4.84125 10.0649 0.5
629 5.48919 3.77641 2.89625 0.5
630 3.15057 3.65728 1.29118 0.5
631 9.36077 1.60709 0.150474 0.5
632 6.63861 12.6753 0.339527 0.5
633 10.1261 1.35802 0.731413 0.5
634 10.2196 10.2059 9.88232 0.5
635 10.0207 2.55679 12.1271 0.5
636 8.82894 3.63881 11.7594 0.5
637 0.46741 10.1574 6.77711 0.5
638 5.13448 0.556908 4.41879 0.5
639 8.72044 6.58163 10.3711 0.5
640 1.95632 4.43313 7.36273 0.5
641 7.61927 7.53031 6.06815 0.5
642 11.3358 6.23317 13.3265 0.5
643 10.9394 0.921162 7.83572 0.5
644 7.12514 2.62915 10.6121 0.5
645 0.356308 11.3217 5.61017 0.5
646 9.13911 8.68143 12.255 0.5
647 8.45996 4.58804 12.0309 0.5
648 7.6535 9.25622 11.6723 0.5
649 5.68198 7.77334 11.6176 0.5
650 2.54064 0.68023 6.48074 0.5
651 0.98632 6.45587 6.22698 0.5
652 5.96942 3.30066 6.21673 0.5
653 13.2026 4.5267 2.51772 0.5
654 3.56541 9.6272 12.1402 0.5
655 11.673 11.5464 9.2356 0.5
656 0.696034 11.3801 1.23375 0.5
657 11.0078 0.322011 6.83995 0.5
658 9.69914 10.0799 5.94677 0.5
659 1.78947 9.55778 3.23728 0.5
660 0.63196 0.730428 8.84995 0.5
661 3.89038 7.18712 9.36197 0.5
662 3.56011 11.0168 5.67635 0.5
663 6.5034 12.3722 4.23518 0.5
664 5.0527 6.49984 5.18553 0.5
665 9.31555 11.3104 3.34552 0.5
666 5.86539 12.2731 9.18167 0.5
667 10.4372 3.71318 8.01765 0.5
668 5.52267 2.92377 3.51738 0.5
669 8.68779 10.784 2.71187 0.5
670 9.18386 12.6344 7.94856 0.5
671 7.18438 8.5829 0.950186 0.5
672 3.22306 2.48992 5.08745 0.5
673 5.63973 8.86745 0.437787 0.5
674 3.27114 7.90031 12.1078 0.5
675 4.10753 4.65846 11.8443 0.5
676 1.9631 13.2497 3.06142 0.5
677 4.14527 9.5587 3.46037 0.5
678 13.302 7.81753 8.65316 0.5
679 10.9098 12.0743 6.45411 0.5
680 5.25274 11.7214 2.11132 0.5
681 4.04466 1.55214 8.6557 0.5
682 1.57513 2.7329 10.1553 0.5
683 1.85793 5.54962 12.2266 0.5
684 11.1723 0.0119851 3.8859 0.5
685 12.5449 12.5726 4.14591 0.5
686 11.1085 7.65525 11.2987 0.5
687 5.19626 9.56117 13.3949 0.5
688 1.20771 8.14982 6.0765 0.5
689 2.74161 3.07468 2.08238 0.5
690 5.11245 8.95018 7.12468 0.5
691 13.0645 9.91159 11.6355 0.5
692 4.73284 0.17328 0.26243 0.5
693 10.787 6.63532 11.2899 0.5
694 6.1944 9.16565 10.3218 0.5
695 12.7532 8.48401 2.48854 0.5
696 9.45077 3.67748 7.71405 0.5
697 0.621832 10.0768 7.81561 0.5
698 6.91073 10.623 6.89019 0.5
699 2.7724 8.23032 1.20384 0.5
700 12.5252 8.39924 3.43433 0.5
701 9.61189 8.17828 12.9679 0.5
702 3.09861 1.98778 8.41513 0.5
703 2.40754 5.67857 13.2182 0.5
704 8.79738 2.64941 8.72223 0.5
705 10.5309 7.08177 7.37474 0.5
706 6.47868 11.0781 6.17755 0.5
707 4.15144 5.2907 11.0931 0.5
708 12.6716 2.06477 0.859468 0.5
709 9.53011 0.517575 0.254616 0.5
710 6.84478 6.03991 2.54917 0.5
711 0.0548095 0.53969 13.1259 0.5
712 12.4152 2.48527 9.25943 0.5
713 8.19585 9.81406 7.66464 0.5
714 12.6842 4.57117 6.18481 0.5
715 12.9677 9.16643 3.03449 0.5
716 1.44049 2.01163 10.9068 0.5
717 3.60862 7.51803 1.22872 0.5
718 11.8924 0.726373 7.3213 0.5
719 4.03858 10.5368 12.2681 0.5
720 13.2095 11.6015 2.81854 0.5
721 11.2066 5.95855 8.49343 0.5
722 6.08777 13.1166 13.1761 0.5
723 3.55558 11.3261 10.2406 0.5
724 9.02641 13.4524 9.92108 0.5
725 2.45879 1.86288 5.17858 0.5
726 7.72241 1.93236 7.99105 0.5
727 3.99568 2.52386 0.207327 0.5
728 12.974 1.9247 5.97396 0.5
729 10.1742 5.1052 0.435223 0.5
730 7.91311 5.60697 6.89791 0.5
731 10.451 0.560915 0.298892 0.5
732 1.17044 2.90643 7.62207 0.5
733 8.01756 11.4145 1.2514 0.5
734 10.3579 11.5712 5.78417 0.5
735 3.2148 5.04456 8.10033 0.5
736 4.09444 3.68053 10.4926 0.5
737 5.12173 2.72885 2.69928 0.5
738 2.4381 6.98019 10.9802 0.5
739 6.29522 13.2045 7.54417 0.5
740 12.3743 13.5115 7.82287 0.5
741 7.58912 3.91628 4.73818 0.5
742 5.66766 9.21867 1.45738 0.5
743 7.67476 8.371 5.43455 0.5
744 3.84779 3.24342 13.1611 0.5
745 6.74805 5.9862 12.2232 0.5
746 5.26063 8.72064 10.173 0.5
747 13.4571 0.143663 11.4689 0.5
748 7.3927 9.22945 8.06679 0.5
749 6.7428 9.05022 3.44755 0.5
750 1.53889 0.180415 0.0305023 0.5
751 13.4234 8.20082 12.9487 0.5
752 0.839078 0.993437 13.4494 0.5
753 7.48389 1.85616 0.897758 0.5
754 2.4197 12.4022 12.6045 0.5
755 6.68107 3.25039 0.218281 0.5
756 6.92899 7.97598 1.6839 0.5
757 11.3013 6.16597 10.6203 0.5
758 4.19348 12.4804 5.21298 0.5
759 12.7504 9.44832 1.98356 0.5
760 7.36491 4.48625 3.85799 0.5
761 3.08131 11.3951 0.654248 0.5
762 13.1291 2.48111 0.106979 0.5
763 11.9602 0.661062 3.59153 0.5
764 9.81411 9.4195 2.74188 0.5
765 12.1717 2.77982 0.121649 0.5
766 7.88423 2.94036 4.95356 0.5
767 4.41125 6.97142 1.05352 0.5
768 12.9071 0.182242 10.6255 0.5
769 11.2135 2.37443 5.83177 0.5
770 12.0431 7.47849 6.83833 0.5
771 8.18726 8.19558 6.3825 0.5
772 0.757958 1.39645 10.4816 0.5
773 8.75507 3.57966 8.34979 0.5
774 9.20092 0.453086 3.06602 0.5
775 10.0503 13.0464 11.0621 0.5
776 3.33391 9.27657 6.71277 0.5
777 11.9761 13.0993 3.46501 0.5
778 12.6556 12.4184 3.1145 0.5
779 8.42996 7.58636 5.45122 0.5
780 3.03533 10.7556 9.45825 0.5
781 0.669482 1.58009 4.70474 0.5
782 10.8835 3.7338 3.7167 0.5
783 0.387403 8.52767 12.2368 0.5
784 2.44951 2.85275 4.57988 0.5
785 10.2206 9.9779 4.96366 0.5
786 8.54923 3.78365 5.00519 0.5
787 6.51985 11.6582 3.43453 0.5
788 11.9545 7.82816 10.5698 0.5
789 9.38841 4.72699 2.2636 0.5
790 8.50237 1.05587 2.92395 0.5
791 5.46366 7.17247 12.3535 0.5
792 4.88494 2.83927 7.91441 0.5
793 7.40554 8.45833 3.89069 0.5
794 12.8952 0.879759 3.11269 0.5
795 7.99673 8.00156 4.58094 0.5
796 4.81461 11.2926 9.04664 0.5
797 3.79784 3.92785 12.4252 0.5
798 2.54871 3.82888 4.27109 0.5
799 0.748212 0.887218 5.6099 0.5
800 0.833711 8.0867 12.9878 0.5
801 7.78684 5.9151 2.83842 0.5
802 5.59622 10.9802 12.5413 0.5
803 11.1957 10.8652 11.2246 0.5
804 0.416823 5.76035 8.78414 0.5
805 9.1606 8.75822 3.08354 0.5
806 2.94996 7.39495 8.8182 0.5
807 2.70643 4.17151 8.09665 0.5
808 2.36464 8.96687 3.71648 0.5
809 8.84781 5.41529 11.6947 0.5
810 2.07666 11.6197 12.0083 0.5
811 10.9308 6.99819 3.14083 0.5
812 2.49563 7.79148 11.4407 0.5
813 7.49292 5.45435 12.6334 0.5
814 9.46036 0.605404 5.86993 0.5
815 11.5987 11.665 8.34476 0.5
816 9.80821 7.68005 0.248514 0.5
817 12.1241 11.4757 3.04853 0.5
818 2.96341 10.2103 0.915413 0.5
819 6.34881 0.591077 7.38565 0.5
820 0.484366 11.6825 9.18468 0.5
821 10.9794 3.58872 4.68851 0.5
822 9.19921 1.38907 5.33742 0.5
823 9.84466 0.155535 10.2812 0.5
824 1.97338 8.79421 5.87398 0.5
825 7.62897 0.676713 2.83072 0.5
826 6.41365 0.125516 8.45605 0.5
827 10.9445 0.879817 1.03115 0.5
828 4.78041 3.63944 2.17358 0.5
829 3.9822 2.49285 8.08079 0.5
830 6.66952 12.9115 9.04571 0.5
831 11.3252 0.0334455 7.7682 0.5
832 0.549737 5.66216 10.6704 0.5
833 1.34067 11.7493 11.3381 0.5
834 9.5703 2.04615 12.8705 0.5
835 1.30666 5.64077 11.3811 0.5
836 8.87285 8.13506 11.3964 0.5
837 7.57395 2.72635 0.292168 0.5
838 12.6693 13.0387 11.1279 0.5
839 4.96493 5.31932 2.28819 0.5
840 7.58961 12.8271 0.298026 0.5
841 6.07403 11.2461 7.13612 0.5
842 12.1547 4.00448 10.4378 0.5
843 12.4693 3.24524 11.958 0.5
844 3.58734 2.32138 12.7803 0.5
845 9.79754 5.48282 5.18543 0.5
846 5.70326 12.011 10.1614 0.5
847 5.21895 8.04898 6.99673 0.5
848 5.24213 6.38581 13.107 0.5
849 0.227777 11.9149 6.33342 0.5
850 10.7124 10.3955 12.0935 0.5
851 6.98321 11.6535 6.97715 0.5
852 7.29184 10.12 7.61874 0.5
853 4.70423 7.54936 8.77451 0.5
854 10.5825 6.05393 3.49121 0.5
855 10.2583 11.3101 2.96775 0.5
856 2.15712 0.475097 3.54854 0.5
857 9.71907 4.98743 11.0732 0.5
858 7.84778 10.011 8.45402 0.5
859 11.1055 6.21648 5.87877 0.5
860 10.4258 5.55455 6.03105 0.5
861 11.312 13.064 6.24929 0.5
862 11.0317 8.25061 10.447 0.5
863 8.64798 8.45598 5.12107 0.5
864 7.97189 7.00119 7.9046 0.5
865 12.3268 4.24937 12.132 0.5
866 6.09369 12.1911 2.56764 0.5
867 12.4739 4.52703 13.1298 0.5
868 9.2254 9.21646 8.84136 0.5
869 4.75921 0.696339 12.9736 0.5
870 4.23523 8.55518 6.86074 0.5
871 12.4234 8.60528 4.39979 0.5
872 1.38435 5.91434 13.0837 0.5
873 12.6791 0.77969 2.11677 0.5
874 6.70148 4.98298 12.625 0.5
875 7.19262 12.0405 4.93167 0.5
876 2.77369 5.79301 8.60006 0.5
877 11.0761 7.88084 7.05037 0.5
878 2.32798 11.9348 1.14903 0.5
879 1.07574 3.97965 7.75419 0.5
880 11.9767 1.23401 2.77689 0.5
881 10.6291 10.4713 13.132 0.5
882 2.19707 9.96419 3.98432 0.5
883 11.722 12.0322 0.21187 0.5
884 13.0031 3.42151 -0.0284224 0.5
885 8.00542 11.6192 11.0747 0.5
886 13.167 3.39755 7.17968 0.5
887 -0.0142935 13.3931 12.5378 0.5
888 4.35378 4.58949 1.81768 0.5
889 11.0496 4.45316 7.60753 0.5
890 11.6199 9.28937 5.87905 0.5
891 1.2332 6.12407 3.14585 0.5
892 9.28718 0.820871 9.79597 0.5
893 10.5239 4.59275 8.41174 0.5
894 7.72875 7.80883 1.09699 0.5
895 12.1427 9.38381 1.09545 0.5
896 7.24908 12.0571 0.923626 0.5
897 7.35144 11.8756 3.87264 0.5
898 5.87369 12.4281 3.51767 0.5
899 10.0146 4.51606 7.65421 0.5
900 11.8259 10.6177 9.5649 0.5
901 13.1518 5.73148 10.2689 0.5
902 11.0892 6.32134 7.56437 0.5
903 10.2087 8.52609 3.18571 0.5
904 7.75623 3.64753 5.7156 0.5
905 13.2408 7.35873 5.77394 0.5
906 13.5068 4.87393 3.56288 0.5
907 6.43821 3.12312 11.0228 0.5
908 8.55368 0.559542 5.49019 0.5
909 9.65242 3.69388 2.52813 0.5
910 7.18369 2.66053 8.51423 0.5
911 6.22452 6.62702 12.8239 0.5
912 8.64023 9.07627 11.4958 0.5
913 11.9187 5.42797 13.3057 0.5
914 5.01532 13.2025 13.0494 0.5
915 7.83377 2.50029 5.88396 0.5
916 11.8551 8.47212 6.62501 0.5
917 11.7747 13.1676 11.7715 0.5
918 7.21177 6.54512 8.39981 0.5
919 13.3791 12.3273 2.21055 0.5
920 13.4653 10.847 11.2292 0.5
921 5.28067 7.15927 6.75521 0.5
922 12.3094 3.1449 10.8839 0.5
923 0.282904 2.5459 7.32194 0.5
924 11.4708 11.3491 10.2266 0.5
925 10.2759 3.47634 1.80248 0.5
926 5.6869 10.4272 13.3956 0.5
927 2.22534 7.74217 6.03306 0.5
928 0.47646 6.80283 5.4512 0.5
929 1.03065 2.86586 10.9892 0.5
930 10.1859 9.49037 9.16885 0.5
931 4.66539 9.63528 12.4047 0.5
932 4.29127 8.58362 3.7403 0.5