ITEM: TIMESTEP
720000
ITEM: NUMBER OF ATOMS
1000
ITEM: BOX BOUNDS xy xz yz pp pp pp
0.0000000000000000e+00 1.3572088000000001e+01 0.0000000000000000e+00
0.0000000000000000e+00 1.3572088000000001e+01 0.0000000000000000e+00
0.0000000000000000e+00 1.3572088000000001e+01 0.0000000000000000e+00
ITEM: ATOMS id x y z radius
1 4.31948 3.39004 11.7772 0.5
2 4.42058 11.3167 4.46251 0.5
3 8.84134 10.2263 2.9043 0.5
4 9.49083 5.53897 1.06824 0.5
5 9.14253 8.13829 10.3141 0.5
6 3.1332 12.6478 5.31281 0.5
7 2.60304 7.41839 1.4547 0.5
8 13.104 11.2587 2.1252 0.5
9 1.62798 8.25757 6.67163 0.5
10 3.18465 13.4758 11.607 0.5
11 0.414703 9.078 9.44305 0.5
12 10.0201 5.35234 0.238392 0.5
13 7.31078 11.4921 3.95736 0.5
14 10.88 2.12243 4.44448 0.5
15 5.50996 0.832098 5.10364 0.5
16 7.62339 6.71228 9.60527 0.5
17 6.65366 12.005 10.7894 0.5
18 2.65029 8.36722 6.20706 0.5
19 9.54712 4.91399 1.85805 0.5
20 10.1834 10.9184 3.22779 0.5
21 2.03022 4.97241 0.735195 0.5
22 1.46498 6.1894 12.0157 0.5
23 1.41131 1.16054 10.3053 0.5
24 7.60604 7.33905 1.91054 0.5
25 0.699594 6.20606 2.99345 0.5
26 10.0571 10.8855 6.25402 0.5
27 12.1628 7.06437 12.7561 0.5
28 5.37369 11.8274 12.1519 0.5
29 13.3628 5.92902 1.29291 0.5
30 8.42854 10.8697 1.29959 0.5
31 0.988935 0.105714 8.15885 0.5
32 9.4263 2.83669 12.833 0.5
33 0.0361154 6.42784 9.7803 0.5
34 3.5166 8.65487 5.5853 0.5
35 11.5406 6.24139 0.518482 0.5
36 8.83689 2.28572 5.04152 0.5
37 0.168782 1.04868 2.58235 0.5
38 2.26585 1.77682 2.19885 0.5
39 10.2463 4.23794 1.60424 0.5
40 5.85907 5.90024 6.08641 0.5
41 6.86631 11.0181 4.80555 0.5
42 6.99458 5.16235 3.1925 0.5
43 5.74927 5.07578 10.3961 0.5
44 4.5706 11.1386 8.69647 0.5
45 7.4095 6.34208 1.87947 0.5
46 10.5854 10.6952 13.487 0.5
47 2.63056 9.21523 5.66481 0.5
48 7.82673 10.7872 0.493212 0.5
49 6.24892 11.9535 9.78442 0.5
50 6.67133 0.182197 10.6758 0.5
51 13.2447 9.4773 7.29365 0.5
52 6.44572 11.006 7.30831 0.5
53 10.1446 3.227 2.04348 0.5
54 11.6245 11.5764 4.09322 0.5
55 0.459155 0.343218 4.70852 0.5
56 13.429 3.55056 3.60646 0.5
57 0.253818 11.0625 11.6551 0.5
58 5.86521 8.52711 10.4041 0.5
59 1.82719 10.5306 11.3897 0.5
60 7.67299 5.077 9.5955 0.5
61 3.95392 0.621309 11.3004 0.5
62 0.714949 8.04889 1.0493 0.5
63 11.3734 8.86976 1.92503 0.5
64 12.1828 1.99932 9.82119 0.5
65 0.639365 1.62037 5.90392 0.5
66 12.319 1.73556 2.20247 0.5
67 8.30904 3.04911 8.77745 0.5
68 3.02299 1.54688 2.73627 0.5
69 11.7806 2.49372 10.6269 0.5
70 12.3885 3.84358 9.91592 0.5
71 3.43739 6.28445 8.03351 0.5
72 7.36013 2.1634 10.6705 0.5
73 8.22079 6.96913 8.85803 0.5
74 6.13726 4.34918 9.64808 0.5
75 9.08634 0.313481 10.2497 0.5
76 12.1048 3.4051 13.3805 0.5
77 10.4214 2.50936 3.54361 0.5
78 8.74075 3.28228 5.54539 0.5
79 3.92184 12.3741 5.7715 0.5
80 5.36848 2.288 8.39536 0.5
81 1.59035 3.22267 11.6183 0.5
82 1.41458 8.84751 1.01041 0.5
83 2.91068 0.57466 6.14897 0.5
84 0.370941 8.22632 8.91246 0.5
85 13.5497 4.05462 6.79557 0.5
86 2.69313 1.13195 12.5979 0.5
87 4.31198 5.59928 5.8446 0.5
88 6.39354 5.75908 3.61844 0.5
89 12.0852 12.8951 7.66557 0.5
90 3.86261 6.12939 4.2319 0.5
91 11.7599 7.46351 11.8514 0.5
92 13.2202 1.47514 1.87762 0.5
93 13.5424 0.685531 12.7722 0.5
94 4.5497 10.3763 12.5117 0.5
95 11.6829 1.78047 8.3383 0.5
96 11.6563 2.79273 4.61606 0.5
97 11.9011 2.94297 5.51215 0.5
98 11.0812 9.72286 0.117921 0.5
99 6.23702 8.6814 8.63253 0.5
100 0.335063 7.28873 6.41637 0.5
101 4.45634 11.6438 2.74287 0.5
102 8.30728 7.59081 9.83647 0.5
103 4.75249 4.94393 10.7061 0.5
104 7.12216 11.3171 5.67348 0.5
105 11.7525 12.9799 6.63969 0.5
106 5.98954 1.04101 10.7815 0.5
107 12.9454 5.68013 7.14739 0.5
108 13.0208 10.5734 5.52378 0.5
109 1.21699 12.346 9.10951 0.5
110 7.98733 9.43439 8.54082 0.5
111 8.33859 13.3754 3.31709 0.5
112 6.44979 0.841233 5.4049 0.5
113 0.486857 0.0618616 6.39432 0.5
114 7.60515 6.64745 2.80893 0.5
115 5.78154 6.5688 11.9667 0.5
116 13.2947 5.18536 2.05658 0.5
117 0.0526301 0.953503 6.3244 0.5
118 11.0257 9.72459 5.57247 0.5
119 11.7285 7.94321 1.71544 0.5
120 5.25968 8.9825 4.02859 0.5
121 12.48 13.2856 10.7625 0.5
122 2.128 4.01742 2.24839 0.5
123 11.663 2.46126 9.0573 0.5
124 10.5078 11.1547 11.4987 0.5
125 4.71537 11.9788 3.66777 0.5
126 11.2551 11.336 13.0984 0.5
127 8.20038 9.87453 10.9428 0.5
128 5.42884 3.28122 8.25508 0.5
129 2.47415 6.02977 12.3214 0.5
130 0.787344 11.7635 11.0252 0.5
131 7.35308 2.58237 2.29223 0.5
132 5.21677 11.3559 2.25365 0.5
133 0.940859 10.726 11.0069 0.5
134 10.836 11.6755 3.44993 0.5
135 12.3339 2.13423 5.90761 0.5
136 7.9714 4.75854 4.55753 0.5
137 2.9583 12.4242 6.28379 0.5
138 7.49478 12.4026 13.0885 0.5
139 4.85622 0.146973 13.2386 0.5
140 5.31998 3.23582 4.03998 0.5
141 1.36135 3.15995 4.4778 0.5
142 10.0064 3.38447 12.2052 0.5
143 0.973461 12.7535 0.431851 0.5
144 8.80967 12.864 8.80511 0.5
145 6.73685 6.99431 2.25951 0.5
146 9.91977 9.10049 8.26729 0.5
147 4.24192 6.38995 1.67486 0.5
148 12.4942 0.469921 11.3617 0.5
149 8.01315 6.92095 10.5429 0.5
150 12.5026 11.8145 3.79291 0.5
151 7.13775 12.277 10.0283 0.5
152 4.31995 4.15023 11.1586 0.5
153 11.67 8.14752 7.86126 0.5
154 2.09671 2.9054 2.37456 0.5
155 3.44208 8.1533 11.2612 0.5
156 8.20662 12.3715 0.23727 0.5
157 1.5126 0.0410495 3.11853 0.5
158 1.37086 9.98267 8.27911 0.5
159 3.71812 1.84143 9.7908 0.5
160 9.60832 0.23123 11.1884 0.5
161 12.6548 2.90535 10.2673 0.5
162 7.60506 2.39778 9.07159 0.5
163 11.8795 9.60962 0.721042 0.5
164 9.56567 3.5218 11.2463 0.5
165 6.92783 11.0892 11.1221 0.5
166 11.1188 12.9182 7.45056 0.5
167 10.7896 8.4905 7.83662 0.5
168 1.37754 3.32212 7.47232 0.5
169 10.423 11.1953 12.4376 0.5
170 4.518 6.86877 0.888559 0.5
171 10.4047 5.04097 1.18493 0.5
172 12.6341 8.12658 10.5714 0.5
173 9.03571 10.2392 1.80763 0.5
174 5.29144 0.399047 1.32902 0.5
175 2.21964 6.31274 4.26919 0.5
176 3.41152 5.66547 3.37224 0.5
177 8.35564 5.13591 6.35996 0.5
178 5.12628 1.5295 4.58146 0.5
179 12.5118 6.0091 1.87327 0.5
180 9.28442 2.77139 11.792 0.5
181 10.941 11.2298 9.64538 0.5
182 2.90607 11.7199 1.22598 0.5
183 8.28356 7.32087 6.43604 0.5
184 10.4438 5.92908 8.47517 0.5
185 8.55771 0.0197925 11.0582 0.5
186 4.67546 8.16674 2.70418 0.5
187 5.5061 0.599965 0.32308 0.5
188 5.02125 5.81336 6.46246 0.5
189 0.837115 10.8698 6.41556 0.5
190 9.08793 13.1604 2.61868 0.5
191 9.12688 7.23646 3.50794 0.5
192 10.029 1.13708 0.0752441 0.5
193 11.1499 2.19244 9.89065 0.5
194 9.34473 12.8987 10.6727 0.5
195 13.2976 9.42214 12.8109 0.5
196 8.89683 1.38812 4.46438 0.5
197 2.6582 6.9043 8.18745 0.5
198 5.9413 6.0632 12.7848 0.5
199 12.0518 0.940865 8.63814 0.5
200 6.98209 6.908 1.18929 0.5
201 13.4629 3.99876 7.77243 0.5
202 5.96298 13.1427 8.57263 0.5
203 1.55292 4.37627 1.39851 0.5
204 3.61239 8.18704 8.42823 0.5
205 12.3578 13.4023 4.32525 0.5
206 0.630641 1.26658 9.90676 0.5
207 4.14865 12.069 8.78535 0.5
208 8.61489 4.15709 6.03456 0.5
209 5.55271 1.68053 3.60304 0.5
210 4.23801 6.47415 5.13735 0.5
211 4.09609 5.08382 9.89881 0.5
212 2.93297 5.63197 4.21757 0.5
213 3.09274 1.4409 5.65173 0.5
214 9.78367 4.32023 11.7528 0.5
215 8.08358 6.85929 1.07581 0.5
216 6.11504 8.62214 0.154772 0.5
217 3.51211 11.0924 4.68995 0.5
218 6.61767 8.10746 4.66201 0.5
219 8.53717 0.647944 3.82596 0.5
220 7.26328 1.73594 9.87357 0.5
221 3.508 3.0217 5.58404 0.5
222 6.34419 11.7845 5.34013 0.5
223 4.48068 8.96425 3.28075 0.5
224 12.6781 9.58893 3.33146 0.5
225 7.9355 10.7867 11.3871 0.5
226 10.5413 6.22978 13.4497 0.5
227 0.726213 7.12906 10.1086 0.5
228 4.14831 11.4904 5.3477 0.5
229 5.88862 4.17621 6.89845 0.5
230 5.89843 9.61879 8.65855 0.5
231 8.04003 5.96323 9.13881 0.5
232 8.06072 4.61658 12.7185 0.5
233 1.05488 0.328526 9.73443 0.5
234 11.6502 1.98148 5.22362 0.5
235 1.36981 10.6059 3.23763 0.5
236 10.5132 6.02577 0.876663 0.5
237 5.31504 7.84862 6.32998 0.5
238 1.00231 12.6527 6.34108 0.5
239 9.96396 7.96573 3.77193 0.5
240 0.9045 5.10961 13.1043 0.5
241 4.80273 5.86135 0.761618 0.5
242 2.68831 0.765434 2.05724 0.5
243 2.58446 9.59775 3.68212 0.5
244 3.56198 11.5535 6.26462 0.5
245 1.2075 11.2771 11.8537 0.5
246 9.59974 10.1041 8.41755 0.5
247 3.29949 0.300433 10.6704 0.5
248 6.51069 2.16604 2.45433 0.5
249 10.4995 1.6019 12.9022 0.5
250 10.6581 1.87261 0.149846 0.5
251 4.38047 10.7087 11.4483 0.5
252 8.56053 8.20829 12.9383 0.5
253 1.67502 7.80205 1.37333 0.5
254 10.833 2.84364 2.69428 0.5
255 8.47484 9.54011 2.37317 0.5
256 2.10726 12.9538 3.43222 0.5
257 0.842306 4.19042 7.39821 0.5
258 13.4227 6.27814 5.07434 0.5
259 4.87458 5.7115 10.0972 0.5
260 6.76544 11.2444 10.116 0.5
261 11.1927 3.34976 6.1368 0.5
262 7.25589 11.9232 4.89773 0.5
263 2.3402 4.31619 8.67412 0.5
264 10.3179 10.773 8.84465 0.5
265 1.59753 4.14756 4.41023 0.5
266 3.4555 13.3077 5.95289 0.5
267 4.87086 7.71997 9.44589 0.5
268 6.96404 2.14691 1.49233 0.5
269 9.44788 13.4794 8.63415 0.5
270 6.54084 10.3323 8.16271 0.5
271 11.7175 12.0853 7.21076 0.5
272 6.18633 9.32613 0.80103 0.5
273 7.98047 5.19157 3.51947 0.5
274 10.5899 5.64687 9.4051 0.5
275 2.59825 10.8168 0.859247 0.5
276 4.95645 3.5533 0.166048 0.5
277 7.35069 5.0816 13.3049 0.5
278 11.5966 10.5879 0.0972191 0.5
279 9.30639 12.1402 5.50425 0.5
280 4.64204 12.2229 1.8292 0.5
281 6.42581 1.9878 10.3309 0.5
282 0.212991 11.7874 1.49036 0.5
283 5.61002 4.87906 1.77591 0.5
284 1.72166 10.874 0.407323 0.5
285 3.59478 9.70164 5.757 0.5
286 1.93066 1.86809 12.5028 0.5
287 7.43933 7.27796 6.93351 0.5
288 5.89103 13.2863 6.5222 0.5
289 2.33754 10.6054 3.51046 0.5
290 13.4885 12.7984 6.10575 0.5
291 5.93064 13.5551 5.5023 0.5
292 4.69819 3.52894 12.7484 0.5
293 10.2239 5.57114 4.02883 0.5
294 2.72916 10.003 6.25957 0.5
295 2.63787 1.49752 6.52676 0.5
296 0.079267 4.93068 7.37066 0.5
297 10.6129 10.3539 10.9231 0.5
298 8.98226 4.71951 12.2969 0.5
299 1.81565 0.964231 12.8339 0.5
300 9.3414 3.79022 1.53076 0.5
301 6.12674 7.55283 11.8467 0.5
302 2.83979 9.23684 2.82901 0.5
303 11.9841 9.29497 2.68363 0.5
304 0.412896 7.14305 5.35353 0.5
305 8.09028 12.8022 8.05145 0.5
306 10.9864 8.342 1.22309 0.5
307 2.16542 6.85907 3.32223 0.5
308 0.532055 9.88441 12.7893 0.5
309 13.0405 0.0583044 13.3004 0.5
310 8.75313 13.3891 4.30516 0.5
311 13.3013 6.5461 6.67759 0.5
312 7.64239 11.5806 10.5904 0.5
313 0.822879 10.493 4.03599 0.5
314 6.58005 12.8563 9.32145 0.5
315 12.3458 4.99345 2.10726 0.5
316 8.04406 6.20303 8.09349 0.5
317 13.2186 8.75211 3.64754 0.5
318 0.303149 5.63468 6.59039 0.5
319 11.0846 11.3977 0.492838 0.5
320 5.37079 3.42622 7.24634 0.5
321 3.05449 13.269 3.51211 0.5
322 10.9162 0.12771 1.34132 0.5
323 3.13657 1.65877 1.75867 0.5
324 10.8669 3.46866 3.47553 0.5
325 1.51732 5.55237 0.145321 0.5
326 10.2412 13.1133 1.01348 0.5
327 8.48815 3.64242 7.88392 0.5
328 12.3754 6.57441 13.531 0.5
329 9.14119 2.59365 8.97555 0.5
330 8.35143 1.4892 5.3079 0.5
331 4.77106 2.32443 3.94096 0.5
332 12.4606 1.90433 8.88708 0.5
333 13.1214 1.80404 2.87026 0.5
334 4.07137 5.44757 1.3755 0.5
335 9.43415 0.492817 4.49833 0.5
336 4.66802 1.98796 9.15316 0.5
337 11.761 0.451942 11.9438 0.5
338 7.90525 5.90404 10.0945 0.5
339 9.7453 4.04333 2.35081 0.5
340 12.1314 4.05156 11.5141 0.5
341 8.73526 0.174176 9.23379 0.5
342 6.54264 0.427096 6.37274 0.5
343 7.00091 5.81739 9.4539 0.5
344 5.19729 6.74518 6.54262 0.5
345 8.59232 8.18538 6.14663 0.5
346 1.13059 6.98221 5.98303 0.5
347 13.0398 12.263 1.04411 0.5
348 1.15622 4.63418 0.457653 0.5
349 7.57746 6.42316 6.52949 0.5
350 8.25202 7.99315 10.7417 0.5
351 3.51677 9.10504 11.0152 0.5
352 8.46013 12.3217 7.24166 0.5
353 8.28442 7.57875 0.266749 0.5
354 2.53591 2.85181 5.75037 0.5
355 1.46494 6.2031 3.65208 0.5
356 11.3815 13.2355 4.60397 0.5
357 6.35184 11.3027 3.50699 0.5
358 3.48255 0.862877 9.72182 0.5
359 6.88071 9.57662 8.79196 0.5
360 12.8586 3.52396 7.13924 0.5
361 3.59741 1.28845 6.41615 0.5
362 1.48439 1.20503 9.35983 0.5
363 10.4688 12.2299 0.658305 0.5
364 2.96811 6.78152 0.633288 0.5
365 2.17697 7.34347 0.522643 0.5
366 6.44473 9.36236 7.84059 0.5
367 10.3229 11.6007 13.3879 0.5
368 5.96644 5.3428 9.41851 0.5
369 2.04719 3.57811 5.14964 0.5
370 0.320901 10.2344 5.8206 0.5
371 9.41915 0.0541065 3.45249 0.5
372 13.5743 4.56359 3.45543 0.5
373 3.9773 3.3962 13.441 0.5
374 0.220545 9.44863 0.0925556 0.5
375 0.493846 9.96414 8.82997 0.5
376 1.7188 10.8702 4.10204 0.5
377 7.16762 5.28825 4.19675 0.5
378 5.85826 9.65826 13.4866 0.5
379 4.87983 4.905 1.02336 0.5
380 7.66632 4.12186 13.5674 0.5
381 10.0542 3.97327 8.51861 0.5
382 9.88688 2.96671 8.38089 0.5
383 1.77125 4.56634 13.3622 0.5
384 5.55991 10.2186 12.5807 0.5
385 12.8155 11.3841 1.32129 0.5
386 13.4488 4.14589 4.43168 0.5
387 2.13959 6.96733 11.7726 0.5
388 1.34632 2.15559 9.80142 0.5
389 3.94503 9.71012 11.7811 0.5
390 5.20805 4.81896 9.6671 0.5
391 8.20282 1.07183 2.08592 0.5
392 12.8894 4.61479 2.85425 0.5
393 3.19896 4.8951 8.85377 0.5
394 8.91307 9.33977 8.05506 0.5
395 1.61334 0.300207 8.93667 0.5
396 0.311478 2.04355 2.33797 0.5
397 7.96734 2.0028 1.71838 0.5
398 9.2293 12.1243 2.71562 0.5
399 0.787775 3.94652 3.94992 0.5
400 7.1826 8.88064 4.86392 0.5
401 10.3787 2.53407 12.9212 0.5
402 4.76507 7.23371 5.67518 0.5
403 6.44224 0.363384 7.99421 0.5
404 11.3549 11.1576 12.0651 0.5
405 11.9298 5.62082 13.4422 0.5
406 7.00943 2.70018 0.652858 0.5
407 1.89354 11.4976 3.21982 0.5
408 2.87872 3.82268 5.65581 0.5
409 3.67228 4.6774 10.7965 0.5
410 11.2946 2.59392 3.65688 0.5
411 5.02369 5.67786 1.68 0.5
412 5.14214 13.2613 0.528017 0.5
413 2.58408 5.96645 7.68047 0.5
414 3.36462 8.74487 12.0483 0.5
415 8.14966 10.0985 11.958 0.5
416 8.80787 11.1293 5.339 0.5
417 0.791384 13.259 9.02098 0.5
418 9.95471 0.857382 10.374 0.5
419 2.98555 12.9403 10.7583 0.5
420 3.8189 0.360329 6.68786 0.5
421 13.2405 5.48755 9.18164 0.5
422 7.81907 4.67782 5.61267 0.5
423 12.3732 0.35424 3.47082 0.5
424 2.89896 3.23072 4.8519 0.5
425 9.20176 8.01133 11.2162 0.5
426 0.82181 12.6321 8.23063 0.5
427 7.70238 2.88313 1.32704 0.5
428 1.26693 8.5818 9.37249 0.5
429 11.3518 6.10179 8.12778 0.5
430 9.17695 13.0797 11.5943 0.5
431 2.30871 5.17619 8.18524 0.5
432 12.9935 2.47872 2.10074 0.5
433 7.61129 11.5896 13.5413 0.5
434 0.0656536 2.92883 13.1072 0.5
435 11.0357 9.38222 1.07727 0.5
436 6.76926 5.02726 10.0572 0.5
437 4.19024 9.09089 6.24262 0.5
438 5.9813 2.71107 7.59108 0.5
439 11.3287 10.4681 10.189 0.5
440 9.18721 11.4033 6.22872 0.5
441 5.65582 0.681302 6.02511 0.5
442 1.25 7.44955 6.79062 0.5
443 1.14107 12.2266 1.25354 0.5
444 9.05709 9.0325 13.305 0.5
445 4.94957 8.08973 3.63244 0.5
446 3.10693 6.53795 4.72887 0.5
447 2.1457 9.15981 6.46543 0.5
448 5.24933 9.86857 0.748663 0.5
449 3.32697 12.3926 11.5798 0.5
450 2.4826 2.55945 1.55223 0.5
451 7.1091 3.68113 0.731082 0.5
452 2.25599 8.30187 0.896456 0.5
453 4.65136 9.11917 2.25107 0.5
454 3.10618 0.645 2.98453 0.5
455 1.71336 2.2597 11.4821 0.5
456 8.42877 0.144738 8.21799 0.5
457 12.2512 11.2231 8.62174 0.5
458 4.19263 0.385114 10.3639 0.5
459 12.2052 2.90318 6.52151 0.5
460 12.5165 5.97539 0.744528 0.5
461 11.9305 8.27748 11.2155 0.5
462 9.94986 4.59527 7.74729 0.5
463 5.53774 2.55671 6.75579 0.5
464 0.510081 8.07449 9.88437 0.5
465 5.23644 10.843 11.8968 0.5
466 3.00259 13.357 6.84061 0.5
467 1.39878 7.8982 0.417048 0.5
468 1.15481 7.62411 9.23847 0.5
469 2.31411 2.87439 10.9893 0.5
470 2.22123 6.14797 11.3411 0.5
471 3.78227 1.33688 10.6265 0.5
472 10.7246 6.42932 3.73493 0.5
473 11.4926 8.66713 6.97416 0.5
474 3.50228 7.27024 8.06392 0.5
475 5.58106 3.47228 6.2664 0.5
476 6.72773 0.82511 11.4866 0.5
477 5.8423 8.08233 9.51674 0.5
478 3.23996 12.1758 0.317714 0.5
479 9.1602 7.41066 13.1561 0.5
480 3.98163 10.3749 9.04095 0.5
481 1.8935 3.94943 0.565438 0.5
482 11.1259 13.0234 0.511313 0.5
483 8.9567 11.1346 2.23806 0.5
484 10.2668 7.2127 4.24287 0.5
485 5.43113 4.44638 2.72641 0.5
486 3.58232 11.2123 8.70778 0.5
487 4.51123 2.93015 8.47715 0.5
488 5.62206 5.11458 6.6339 0.5
489 3.7595 0.969825 2.26182 0.5
490 0.21589 12.4047 8.96441 0.5
491 1.9508 8.06848 11.5484 0.5
492 0.971825 5.37532 12.1614 0.5
493 12.0134 8.93053 10.4975 0.5
494 6.64327 4.28961 0.102112 0.5
495 6.57362 7.72325 0.582969 0.5
496 7.14521 0.429691 13.3428 0.5
497 5.50173 4.36516 5.92524 0.5
498 3.22359 11.6769 5.48334 0.5
499 6.55192 1.81549 11.3199 0.5
500 10.1793 9.94016 6.21817 0.5
501 5.51614 0.694822 4.0713 0.5
502 9.4661 10.2468 9.35413 0.5
503 6.87625 5.84544 12.7506 0.5
504 2.34376 1.67683 13.3265 0.5
505 3.69389 3.80439 12.6224 0.5
506 3.45896 10.98 1.39899 0.5
507 8.13167 3.85694 4.07843 0.5
508 13.5643 1.07933 5.31325 0.5
509 5.17817 5.30326 5.60439 0.5
510 7.26866 10.0892 11.4088 0.5
511 5.90127 0.593077 7.13987 0.5
512 9.98835 11.5107 2.48713 0.5
513 4.52729 3.97897 2.7326 0.5
514 6.00941 8.38923 1.14735 0.5
515 2.01006 9.87549 2.88377 0.5
516 5.37863 8.75399 3.06047 0.5
517 0.803441 4.0028 4.90913 0.5
518 3.29275 6.69477 8.91739 0.5
519 5.35059 7.70304 10.3265 0.5
520 2.49337 0.715951 13.4794 0.5
521 11.1383 5.73744 4.39452 0.5
522 2.96181 9.51734 11.5945 0.5
523 12.7263 7.88695 3.29626 0.5
524 13.4442 0.140548 5.65777 0.5
525 11.3375 8.75965 0.285215 0.5
526 8.88167 12.1225 8.21506 0.5
527 7.46704 10.8572 1.46876 0.5
528 1.61322 0.139425 13.3682 0.5
529 0.281191 12.7319 1.39631 0.5
530 11.763 3.07893 9.85008 0.5
531 11.7219 7.98786 10.2452 0.5
532 6.18246 9.01023 4.48578 0.5
533 6.17487 7.82262 10.9244 0.5
534 2.41061 12.9767 11.581 0.5
535 8.35961 12.8904 12.9132 0.5
536 1.42428 12.2744 3.83441 0.5
537 2.58176 11.0927 8.60162 0.5
538 8.04743 9.97716 1.46434 0.5
539 1.54685 7.15756 4.00513 0.5
540 0.627077 3.26095 8.06568 0.5
541 3.61993 11.9481 2.05288 0.5
542 8.16541 0.293942 13.0459 0.5
543 13.073 5.88664 5.97113 0.5
544 8.94809 2.80413 7.98722 0.5
545 1.21141 6.97907 3.14274 0.5
546 0.843045 0.796359 13.2515 0.5
547 10.4374 5.28036 5.01638 0.5
548 11.6609 0.211159 7.10404 0.5
549 11.919 10.2613 8.51617 0.5
550 12.4984 12.8548 3.52232 0.5
551 7.38555 1.22391 1.41164 0.5
552 3.62643 7.08365 1.28216 0.5
553 10.7143 6.42136 7.5591 0.5
554 3.85597 12.8969 6.67904 0.5
555 0.367576 3.18028 4.36561 0.5
556 7.44704 13.3186 12.6129 0.5
557 7.01613 11.3937 0.758397 0.5
558 4.45376 1.16848 9.70864 0.5
559 3.10747 10.3323 8.42505 0.5
560 6.66448 2.78261 10.8813 0.5
561 8.53663 8.50053 11.7998 0.5
562 12.6916 2.63177 13.1504 0.5
563 8.24 6.78471 7.27317 0.5
564 6.4385 5.03134 12.8969 0.5
565 8.73157 4.95675 5.34416 0.5
566 6.96746 1.19085 10.6054 0.5
567 12.6768 4.27711 3.83197 0.5
568 7.51829 1.4778 11.4097 0.5
569 11.4605 6.64235 11.2345 0.5
570 12.747 7.77865 2.30788 0.5
571 2.14219 0.887619 2.82515 0.5
572 5.48187 3.06699 13.0188 0.5
573 0.751014 13.2142 5.53693 0.5
574 9.05415 8.2405 3.56854 0.5
575 8.20414 0.133824 2.26671 0.5
576 4.02153 10.6209 8.04713 0.5
577 3.77135 8.73014 2.59427 0.5
578 1.87462 11.5862 1.08867 0.5
579 0.340397 9.43555 11.9616 0.5
580 2.61254 4.98019 7.28071 0.5
581 1.72451 13.0083 8.4175 0.5
582 2.54917 12.0326 11.0266 0.5
583 2.61938 10.5918 13.5434 0.5
584 10.2729 6.26861 4.73217 0.5
585 13.0727 4.95702 6.39569 0.5
586 0.738491 5.6495 9.54569 0.5
587 12.8975 2.99083 1.20673 0.5
588 13.555 12.9919 0.474237 0.5
589 13.5014 9.11322 8.511 0.5
590 4.02567 11.5212 7.9474 0.5
591 4.38414 4.36929 12.1924 0.5
592 10.6193 11.2116 10.5526 0.5
593 6.59678 10.0815 7.22487 0.5
594 13.3925 10.9124 6.31575 0.5
595 13.1056 9.83018 6.24938 0.5
596 9.48104 9.53357 2.45197 0.5
597 2.2463 10.1514 8.93357 0.5
598 7.9168 11.2202 4.9079 0.5
599 11.3207 11.123 8.7416 0.5
600 12.3132 6.14497 12.745 0.5
601 2.42502 5.83979 3.35159 0.5
602 0.81467 6.06401 10.4156 0.5
603 2.81923 7.88624 11.9101 0.5
604 4.68876 1.03503 10.8428 0.5
605 7.23691 2.45939 11.6813 0.5
606 11.6709 9.22956 4.91209 0.5
607 8.69463 10.1251 8.6716 0.5
608 8.45068 13.5548 12.087 0.5
609 1.25845 11.7867 0.30682 0.5
610 1.35141 9.56756 9.22524 0.5
611 0.845071 9.05299 8.44958 0.5
612 6.07053 12.7693 2.81788 0.5
613 3.55739 5.70766 5.06159 0.5
614 3.96427 13.1163 11.1886 0.5
615 3.07896 10.6112 9.42499 0.5
616 13.3872 6.15322 2.29492 0.5
617 7.68483 5.69064 2.58099 0.5
618 11.0167 7.78034 8.61539 0.5
619 12.9389 3.63067 11.8678 0.5
620 0.847317 10.3876 11.9417 0.5
621 2.68151 4.23498 4.69571 0.5
622 5.22791 8.45688 8.82444 0.5
623 12.5794 8.22394 4.29514 0.5
624 12.6287 5.64962 2.77863 0.5
625 1.80527 3.72657 10.7416 0.5
626 2.57521 4.19972 1.40781 0.5
627 9.62101 6.29411 0.410691 0.5
628 13.105 4.56281 10.2647 0.5
629 5.00062 4.10972 3.57593 0.5
630 2.75991 3.3594 0.826714 0.5
631 9.97669 1.68447 0.840838 0.5
632 6.73992 13.0442 13.4393 0.5
633 10.7765 1.09039 0.79185 0.5
634 10.2865 10.3805 9.90574 0.5
635 9.73062 2.03492 12.3655 0.5
636 9.06813 3.66796 12.1613 0.5
637 0.285516 10.1113 6.78673 0.5
638 6.11986 1.41054 4.46023 0.5
639 8.92057 7.27281 10.4858 0.5
640 1.8892 4.28244 7.60838 0.5
641 7.5141 7.15178 5.92342 0.5
642 11.0837 5.3786 0.26116 0.5
643 11.1336 0.886252 8.41307 0.5
644 7.07067 2.71481 9.84599 0.5
645 0.4168 11.2864 5.65773 0.5
646 9.3053 8.91854 12.295 0.5
647 8.27111 5.09859 11.8703 0.5
648 7.90915 9.20064 11.5799 0.5
649 5.31271 8.10442 11.2404 0.5
650 3.00883 0.783942 7.07584 0.5
651 0.772377 6.50519 6.89704 0.5
652 6.2179 3.64453 7.71795 0.5
653 0.0131019 5.42682 2.954 0.5
654 3.36301 10.4596 11.3876 0.5
655 11.7646 11.7949 9.32382 0.5
656 0.875091 11.2634 0.999526 0.5
657 10.8733 0.575165 7.43436 0.5
658 9.33324 10.4515 5.86951 0.5
659 1.03305 9.65998 3.23485 0.5
660 0.658834 0.72757 8.97157 0.5
661 3.90892 7.4782 9.10599 0.5
662 3.67933 10.7151 5.63816 0.5
663 5.75757 12.1265 3.56654 0.5
664 5.07391 6.28394 5.60095 0.5
665 9.25432 11.167 3.12168 0.5
666 5.64513 12.7104 9.48235 0.5
667 10.8023 4.38273 8.12319 0.5
668 5.54264 2.62484 3.29594 0.5
669 8.1856 10.5786 2.2484 0.5
670 9.08018 12.9543 7.78356 0.5
671 7.01262 8.55644 0.756413 0.5
672 3.01827 2.24914 5.00145 0.5
673 5.23867 8.94288 0.458228 0.5
674 2.36848 8.68847 12.2158 0.5
675 4.24067 5.07757 11.5114 0.5
676 2.51963 13.5071 2.64241 0.5
677 3.51171 9.12524 3.5315 0.5
678 13.3419 7.36465 10.1422 0.5
679 10.8615 12.4921 6.53896 0.5
680 4.33521 11.2733 1.7371 0.5
681 3.82366 1.37011 8.83538 0.5
682 2.04788 2.92151 10.0519 0.5
683 1.96368 5.31654 11.8559 0.5
684 11.5844 13.2065 3.61835 0.5
685 12.0356 12.5024 4.28448 0.5
686 11.175 7.66217 11.0565 0.5
687 4.93328 9.70847 13.3103 0.5
688 1.01438 7.96029 5.877 0.5
689 2.88293 3.41492 1.83361 0.5
690 4.67768 8.4193 6.79315 0.5
691 13.4567 10.2826 12.1619 0.5
692 4.51459 0.361457 0.591875 0.5
693 11.474 6.4064 12.1882 0.5
694 5.90903 9.02982 9.47129 0.5
695 11.9009 8.21847 2.68556 0.5
696 10.3886 3.5905 7.62969 0.5
697 0.499638 9.84848 7.84462 0.5
698 6.91938 10.6053 6.52923 0.5
699 3.12742 7.84689 0.75948 0.5
700 12.2406 8.71392 3.53789 0.5
701 9.66294 8.25824 13.0655 0.5
702 3.73265 2.37241 8.90323 0.5
703 1.73923 5.33761 12.7794 0.5
704 9.14993 3.56596 8.68996 0.5
705 10.674 7.56534 7.6697 0.5
706 6.23991 10.7827 5.65356 0.5
707 4.06063 5.63117 10.7363 0.5
708 12.5999 2.08209 1.2844 0.5
709 10.0208 0.55536 1.10961 0.5
710 6.72913 6.0587 2.63095 0.5
711 0.516437 13.4808 13.3403 0.5
712 12.5459 2.92812 9.30411 0.5
713 8.23314 10.2237 7.80633 0.5
714 12.7553 4.58552 7.21129 0.5
715 12.8183 8.77018 2.74753 0.5
716 1.93715 2.02043 10.5021 0.5
717 3.74091 7.13343 0.206713 0.5
718 11.7672 1.08926 7.71234 0.5
719 4.47009 11.3658 12.234 0.5
720 12.685 11.9115 2.86809 0.5
721 10.571 6.88115 8.46619 0.5
722 5.64726 0.773507 12.9854 0.5
723 3.16488 11.964 8.29434 0.5
724 9.33486 13.0884 9.69053 0.5
725 2.21622 1.90872 5.61282 0.5
726 8.38898 2.04961 8.56701 0.5
727 4.59055 2.73527 13.3086 0.5
728 13.2773 1.85706 5.89456 0.5
729 9.64379 4.51669 0.815872 0.5
730 8.04923 5.78655 7.06991 0.5
731 10.5958 0.221219 0.348535 0.5
732 1.40976 2.83655 8.34421 0.5
733 7.88873 11.6496 1.01383 0.5
734 10.1105 11.8748 6.11706 0.5
735 3.32501 5.29492 7.94548 0.5
736 4.40078 4.21731 10.0571 0.5
737 4.58577 3.12571 3.38279 0.5
738 2.64227 7.60945 10.9708 0.5
739 5.88719 13.2233 7.56454 0.5
740 12.4297 0.237799 7.93863 0.5
741 7.39342 3.95489 4.84896 0.5
742 5.4006 9.09486 1.46511 0.5
743 7.2189 7.95981 5.44323 0.5
744 3.91039 2.88196 12.544 0.5
745 6.74649 6.69401 12.3237 0.5
746 5.06897 8.57583 9.80816 0.5
747 13.4855 0.596626 11.782 0.5
748 7.31612 9.6839 7.82352 0.5
749 6.14297 9.3154 3.6072 0.5
750 1.65605 0.959259 0.289774 0.5
751 13.4088 8.53294 13.378 0.5
752 1.32952 1.72919 13.305 0.5
753 7.70198 1.95442 0.745127 0.5
754 1.69583 12.1696 11.5577 0.5
755 7.03264 3.35755 13.3696 0.5
756 6.81316 7.92798 1.54082 0.5
757 12.2656 6.67072 11.7362 0.5
758 3.69965 12.1091 4.7761 0.5
759 12.3995 8.67269 1.89517 0.5
760 7.3898 4.43036 3.77893 0.5
761 3.30405 11.2111 0.432257 0.5
762 13.2694 2.36734 0.464954 0.5
763 11.6135 0.451372 4.12571 0.5
764 8.94443 9.32199 3.33597 0.5
765 12.242 2.73181 0.530827 0.5
766 8.11269 3.14794 4.81631 0.5
767 3.85471 6.24436 0.776201 0.5
768 13.251 0.343743 10.7689 0.5
769 11.4816 2.35898 6.26707 0.5
770 11.284 8.17826 6.06958 0.5
771 7.65728 8.0698 6.29838 0.5
772 0.909467 1.87108 10.7693 0.5
773 9.44639 3.62847 7.75382 0.5
774 8.8768 0.544303 2.81446 0.5
775 10.1574 12.9897 11.3183 0.5
776 3.18194 9.1418 6.45225 0.5
777 11.0356 12.4317 4.0911 0.5
778 11.7543 12.2621 3.34337 0.5
779 8.20303 7.71626 5.47462 0.5
780 3.155 11.0356 7.80379 0.5
781 0.862502 1.2961 4.96998 0.5
782 10.7034 3.09975 4.39545 0.5
783 0.565829 8.87325 12.8074 0.5
784 2.19424 2.57336 4.77585 0.5
785 10.2951 10.3707 5.38263 0.5
786 8.45991 4.04251 5.06273 0.5
787 6.16332 11.7913 2.65846 0.5
788 12.127 7.30188 10.8793 0.5
789 9.14203 3.28055 2.42139 0.5
790 7.82712 0.704932 3.03082 0.5
791 5.17238 7.37705 12.0719 0.5
792 4.9688 2.60669 7.62508 0.5
793 6.95375 8.74006 3.93834 0.5
794 13.2092 0.917319 3.47176 0.5
795 7.73175 8.09094 4.664 0.5
796 4.15366 11.4272 9.5022 0.5
797 3.48095 4.12039 11.7187 0.5
798 2.25293 3.46054 4.15219 0.5
799 0.810138 0.599065 5.67525 0.5
800 0.78142 8.59284 0.234968 0.5
801 7.29946 6.01422 3.51959 0.5
802 5.18511 11.1655 12.8688 0.5
803 11.4096 10.9152 11.1263 0.5
804 0.203513 6.25898 8.90381 0.5
805 8.93475 8.68402 2.6969 0.5
806 2.93392 7.55694 8.87466 0.5
807 2.95873 4.32947 7.91085 0.5
808 1.85948 9.03088 3.3075 0.5
809 9.25591 5.10129 11.453 0.5
810 2.17743 11.349 11.7558 0.5
811 10.0974 7.07925 3.22654 0.5
812 2.65032 8.64682 11.3121 0.5
813 7.82914 5.67205 12.7188 0.5
814 9.49203 0.369798 5.489 0.5
815 11.6152 11.9827 8.31712 0.5
816 9.02475 6.99979 0.613049 0.5
817 11.8641 11.2677 3.14582 0.5
818 3.22999 10.1665 0.778814 0.5
819 6.69716 13.5015 7.16022 0.5
820 0.802846 11.6585 8.52601 0.5
821 10.9727 2.7059 5.33001 0.5
822 9.36584 1.25255 5.33755 0.5
823 10.0283 13.4757 10.2707 0.5
824 1.82704 8.64965 5.70692 0.5
825 7.31417 0.527428 2.1978 0.5
826 7.51162 0.199363 7.79429 0.5
827 11.5717 0.406351 0.645991 0.5
828 5.36547 3.47441 2.9312 0.5
829 4.43739 1.95774 8.17587 0.5
830 4.94133 12.1053 9.21132 0.5
831 11.5065 0.0933154 8.12409 0.5
832 0.963182 5.12466 10.2521 0.5
833 1.75301 11.3794 10.9591 0.5
834 9.68941 2.01233 13.3337 0.5
835 1.34877 5.58511 11.098 0.5
836 8.75469 8.9045 10.9086 0.5
837 7.78637 3.07657 0.316694 0.5
838 13.1499 13.2965 11.5149 0.5
839 4.67166 4.88923 2.15481 0.5
840 7.77708 13.1858 0.0735093 0.5
841 5.94651 10.5629 6.57094 0.5
842 12.8733 3.7966 10.8981 0.5
843 12.2271 3.11054 12.3537 0.5
844 4.80721 2.64918 12.2692 0.5
845 10.2706 5.95816 5.75321 0.5
846 6.37737 12.8616 10.2901 0.5
847 4.37447 7.47858 6.62775 0.5
848 5.05956 6.57673 12.6012 0.5
849 0.309639 11.925 6.44509 0.5
850 10.8298 10.3647 11.8976 0.5
851 6.36992 11.4243 6.4188 0.5
852 7.3204 10.6274 7.52821 0.5
853 4.27897 8.51866 9.12805 0.5
854 9.76412 6.49503 3.88965 0.5
855 9.68007 10.5006 2.53217 0.5
856 2.40499 0.397658 3.54434 0.5
857 10.276 5.12252 11.0685 0.5
858 7.5648 10.337 8.56031 0.5
859 11.3679 5.0577 5.15959 0.5
860 10.8726 5.22965 5.93381 0.5
861 10.688 13.4409 6.77143 0.5
862 11.3446 6.98077 10.3385 0.5
863 7.98962 8.6608 5.47913 0.5
864 7.66405 7.12804 7.98354 0.5
865 12.174 4.03288 12.5731 0.5
866 5.67726 12.1798 1.81306 0.5
867 12.6425 4.21266 13.4657 0.5
868 9.26817 9.36097 8.96071 0.5
869 4.87703 1.28742 0.756201 0.5
870 3.65968 8.33599 6.59155 0.5
871 12.4788 9.22236 4.30765 0.5
872 1.04532 6.07959 12.904 0.5
873 12.7909 0.899964 2.5873 0.5
874 7.27348 4.98856 12.2644 0.5
875 6.40513 11.7431 4.35378 0.5
876 2.78138 5.8775 8.63569 0.5
877 10.5784 8.23535 6.83511 0.5
878 2.39891 11.5734 0.253597 0.5
879 1.34348 3.84491 8.36101 0.5
880 12.2668 1.34848 3.27553 0.5
881 11.1168 10.3845 12.793 0.5
882 1.74739 9.8995 3.86752 0.5
883 11.0702 12.214 13.4661 0.5
884 13.0677 3.31929 0.227421 0.5
885 7.35716 10.4957 10.5345 0.5
886 0.321496 3.28368 7.18955 0.5
887 0.0730323 13.3793 12.4391 0.5
888 5.17339 4.00393 1.97147 0.5
889 11.246 5.26333 8.65186 0.5
890 11.7095 9.09151 6.02155 0.5
891 1.6987 6.27867 2.62215 0.5
892 9.7669 0.422569 9.48965 0.5
893 10.2248 5.02957 8.64619 0.5
894 7.53826 7.6864 0.966792 0.5
895 11.8768 8.70231 1.07217 0.5
896 7.24304 12.3248 0.518823 0.5
897 6.79667 12.2244 3.43067 0.5
898 5.18187 12.2401 2.69043 0.5
899 10.7204 5.31943 7.78613 0.5
900 11.9101 10.7996 9.51041 0.5
901 0.00185705 5.4726 10.1522 0.5
902 11.4781 7.11882 7.9148 0.5
903 9.85563 8.82133 3.24724 0.5
904 7.82325 3.63237 5.69995 0.5
905 13.163 6.89913 5.81366 0.5
906 12.8989 5.23789 3.66705 0.5
907 6.51424 3.53008 10.2231 0.5
908 8.62682 0.66205 4.97499 0.5
909 9.96511 3.26192 3.02397 0.5
910 7.91178 2.65488 8.00149 0.5
911 5.87649 7.12549 12.7852 0.5
912 8.86518 9.4826 11.6288 0.5
913 11.4582 6.50995 13.1391 0.5
914 4.68072 1.06435 13.3925 0.5
915 8.09947 2.51055 5.72285 0.5
916 10.7176 9.00263 6.30929 0.5
917 12.1693 13.1757 11.7126 0.5
918 7.29834 6.53515 8.6951 0.5
919 13.0709 12.2356 2.006 0.5
920 0.063515 11.1066 10.6612 0.5
921 5.79034 6.07345 7.11302 0.5
922 12.431 3.01665 11.3508 0.5
923 0.788446 2.44133 7.57602 0.5
924 11.5927 11.4033 10.3394 0.5
925 10.6517 3.87301 2.60996 0.5
926 5.56479 10.5417 13.5298 0.5
927 1.90693 7.65634 5.97433 0.5
928 0.376291 6.39654 5.99689 0.5
929 1.31833 2.83448 10.7296 0.5
930 10.2675 9.65543 8.99519 0.5
931 4.92502 9.90574 11.7186 0.5
932 3.91169 8.13321 3.37054 0.5
933 0.359333 12.0858 0.630731 0.5