ITEM: TIMESTEP
610000
ITEM: NUMBER OF ATOMS
1000
ITEM: BOX BOUNDS xy xz yz pp pp pp
0.0000000000000000e+00 1.3572088000000001e+01 0.0000000000000000e+00
0.0000000000000000e+00 1.3572088000000001e+01 0.0000000000000000e+00
0.0000000000000000e+00 1.3572088000000001e+01 0.0000000000000000e+00
ITEM: ATOMS id x y z radius
1 4.55223 3.90639 12.1719 0.5
2 4.97637 11.0814 3.75899 0.5
3 8.90663 10.2458 3.099 0.5
4 10.1988 5.88327 1.35516 0.5
5 8.77784 8.07069 10.3622 0.5
6 3.50494 12.8584 5.0799 0.5
7 2.73826 8.80198 1.19363 0.5
8 13.1637 11.0004 2.08483 0.5
9 1.70146 8.28973 6.69576 0.5
10 3.80535 0.0417611 11.3255 0.5
11 0.283304 9.22792 9.24157 0.5
12 10.2447 5.59989 0.379523 0.5
13 8.33871 11.8612 5.55082 0.5
14 10.8768 2.22411 4.25908 0.5
15 5.70749 1.79611 5.26701 0.5
16 7.91144 7.04089 9.45088 0.5
17 6.95844 12.3948 10.5182 0.5
18 2.66238 8.45503 6.25737 0.5
19 10.2437 5.1302 1.91604 0.5
20 10.8454 10.7028 3.06448 0.5
21 2.21259 4.24775 1.34192 0.5
22 1.09042 6.07994 12.7652 0.5
23 1.53383 1.22551 10.4647 0.5
24 7.55019 7.03711 2.07191 0.5
25 1.10604 5.37859 1.86786 0.5
26 10.1035 10.2989 6.1733 0.5
27 11.2664 6.69244 12.4785 0.5
28 5.45514 11.2558 11.9146 0.5
29 0.622796 5.55454 0.966911 0.5
30 8.4339 11.0522 1.81998 0.5
31 0.810614 0.0541023 8.30206 0.5
32 9.2151 2.94695 12.8791 0.5
33 13.0976 6.08471 9.54277 0.5
34 3.59859 8.77029 5.8029 0.5
35 11.6856 6.2957 13.2794 0.5
36 8.56212 1.88925 4.45045 0.5
37 0.121948 0.895393 2.39319 0.5
38 3.08667 1.03707 1.86913 0.5
39 10.2861 4.16932 1.39253 0.5
40 5.93482 6.21283 6.57909 0.5
41 7.88489 11.2839 4.85084 0.5
42 6.90217 5.2576 3.48188 0.5
43 5.70546 5.12266 9.98599 0.5
44 4.53989 10.8856 8.67011 0.5
45 7.44182 6.08509 1.89726 0.5
46 10.2819 10.5788 0.0132877 0.5
47 2.67212 9.2219 5.59544 0.5
48 7.85137 10.8035 1.15061 0.5
49 5.86329 11.5123 9.71939 0.5
50 6.30881 1.20567 9.82215 0.5
51 12.7082 10.3804 7.28354 0.5
52 6.2791 10.4311 7.21394 0.5
53 9.58112 3.56087 1.91003 0.5
54 11.7982 11.6276 4.06228 0.5
55 13.5399 0.419482 6.05613 0.5
56 12.9701 4.175 3.17421 0.5
57 0.702262 11.4155 11.4975 0.5
58 5.43102 8.75428 10.6746 0.5
59 2.11153 10.6483 11.2445 0.5
60 7.36962 5.46622 9.5964 0.5
61 4.59871 0.476927 10.7969 0.5
62 0.663669 8.63106 0.898144 0.5
63 11.8401 8.63513 2.13344 0.5
64 12.4418 1.99315 9.49235 0.5
65 0.0158215 1.53326 5.02876 0.5
66 12.3536 1.5242 1.68343 0.5
67 7.68304 2.87629 8.3468 0.5
68 3.07648 1.24127 2.75563 0.5
69 12.0796 2.09734 10.4449 0.5
70 12.0633 3.65173 9.75552 0.5
71 3.16865 6.51026 8.60101 0.5
72 7.61647 2.26042 11.1261 0.5
73 8.62634 6.84704 8.81292 0.5
74 6.2966 4.39635 10.1822 0.5
75 8.9107 0.24795 10.2455 0.5
76 12.1409 3.15437 12.9986 0.5
77 10.3052 2.64401 3.51337 0.5
78 8.49422 2.93483 4.6767 0.5
79 4.17306 12.5654 5.78371 0.5
80 5.60953 2.7735 8.21174 0.5
81 1.30939 3.55091 11.243 0.5
82 1.27926 9.07213 0.33401 0.5
83 2.75954 0.49208 7.00904 0.5
84 13.4411 8.46655 8.78959 0.5
85 13.277 3.73202 6.87798 0.5
86 2.74932 0.587921 13.3086 0.5
87 4.31584 5.78882 6.10283 0.5
88 6.46699 5.83517 4.22376 0.5
89 11.619 12.5637 7.44355 0.5
90 4.15541 6.08537 4.44061 0.5
91 11.3331 7.6492 12.0009 0.5
92 13.3792 1.40179 1.48239 0.5
93 13.1518 0.395505 13.0748 0.5
94 4.74887 10.4249 13.0765 0.5
95 11.6803 1.47998 7.91128 0.5
96 11.879 2.47626 4.29704 0.5
97 12.1586 2.56488 5.35138 0.5
98 10.8239 9.547 0.189582 0.5
99 6.59353 8.73391 9.31268 0.5
100 0.406498 7.1031 6.55131 0.5
101 4.83307 11.6005 2.84596 0.5
102 8.88316 7.43761 9.56261 0.5
103 4.70948 5.33756 10.5307 0.5
104 6.59641 11.5887 5.92277 0.5
105 11.6131 12.5286 6.48291 0.5
106 6.06725 1.97719 10.4928 0.5
107 12.9293 5.40044 7.05722 0.5
108 12.7548 10.8182 5.44878 0.5
109 1.08234 12.3004 9.23424 0.5
110 8.12859 9.46469 8.49005 0.5
111 8.73459 0.364926 3.4533 0.5
112 6.38343 1.01188 5.20083 0.5
113 0.592175 13.2827 5.46864 0.5
114 7.3367 6.42147 2.87382 0.5
115 5.66233 6.49429 11.835 0.5
116 0.136013 5.14465 1.80264 0.5
117 0.929157 1.34425 5.20561 0.5
118 10.8024 9.50025 6.21248 0.5
119 12.3008 7.78158 1.81561 0.5
120 5.66849 9.35717 4.09359 0.5
121 12.2241 13.0388 10.9709 0.5
122 2.47656 2.93097 2.22173 0.5
123 11.8139 2.15948 8.73359 0.5
124 10.4195 11.281 11.7561 0.5
125 5.01225 12.0662 3.8084 0.5
126 11.0672 11.2691 13.3455 0.5
127 8.05527 10.3188 11.1752 0.5
128 4.95171 3.28046 7.43934 0.5
129 2.01921 6.42663 12.7576 0.5
130 1.40919 12.0759 11.0559 0.5
131 7.88993 2.26967 2.02308 0.5
132 5.48257 12.0356 2.17778 0.5
133 1.40108 11.1261 10.8312 0.5
134 10.8638 11.5349 3.59541 0.5
135 12.1173 1.60338 5.77407 0.5
136 8.1177 4.96473 4.69052 0.5
137 3.1591 12.368 6.00013 0.5
138 7.2132 12.2193 13.2561 0.5
139 5.75485 0.0652224 0.186892 0.5
140 5.00614 3.36975 4.37734 0.5
141 1.16175 3.68693 4.06187 0.5
142 10.2009 3.14311 12.6427 0.5
143 0.585773 12.6838 0.410101 0.5
144 8.60708 12.7984 8.86025 0.5
145 6.58509 6.57581 2.20397 0.5
146 9.63633 9.26203 8.62163 0.5
147 4.44989 6.67293 0.918844 0.5
148 12.2227 0.333984 11.3505 0.5
149 8.2961 7.17712 10.3314 0.5
150 12.596 11.7256 3.56769 0.5
151 6.64554 12.0023 9.67146 0.5
152 4.15478 4.82512 12.0698 0.5
153 12.0765 8.22923 7.67301 0.5
154 2.74554 1.95594 2.13429 0.5
155 2.49669 7.67953 10.6066 0.5
156 8.04468 12.2946 0.312117 0.5
157 1.51452 0.706218 3.38564 0.5
158 1.23725 10.1444 8.11886 0.5
159 4.12773 2.32678 9.15873 0.5
160 9.46726 0.465017 11.0359 0.5
161 12.5076 2.81937 9.98566 0.5
162 6.68671 2.89602 7.79688 0.5
163 11.7393 9.58028 0.793825 0.5
164 9.76182 3.5885 11.1317 0.5
165 7.23047 11.7633 11.1908 0.5
166 10.7382 12.8484 7.02162 0.5
167 11.0989 8.09814 7.92668 0.5
168 1.00383 2.86487 7.10024 0.5
169 10.3168 10.9915 12.6674 0.5
170 3.65289 6.48043 0.499185 0.5
171 10.764 5.13337 1.04167 0.5
172 12.0177 8.02809 10.159 0.5
173 9.02027 10.2641 2.07983 0.5
174 4.41916 0.789828 13.1713 0.5
175 2.54402 6.50316 4.28309 0.5
176 3.83488 5.826 3.58779 0.5
177 9.36688 3.93953 5.96997 0.5
178 5.63629 2.48755 4.4369 0.5
179 13.2476 5.81133 1.2614 0.5
180 9.46961 3.19849 12.0217 0.5
181 10.9346 11.3792 9.65704 0.5
182 2.95962 11.7914 1.40905 0.5
183 8.36902 6.963 6.08271 0.5
184 10.3646 5.49674 8.88991 0.5
185 8.80304 13.2788 11.1766 0.5
186 4.6873 8.41944 3.0478 0.5
187 5.22027 0.357222 12.9066 0.5
188 4.95465 5.94568 6.82329 0.5
189 0.62721 10.792 6.34702 0.5
190 9.21059 12.9955 3.52099 0.5
191 9.44335 7.21254 3.53046 0.5
192 10.0734 0.999064 13.4041 0.5
193 11.496 1.70463 9.55839 0.5
194 9.6018 13.1028 10.5539 0.5
195 0.467964 10.0733 12.2992 0.5
196 8.92133 0.864661 4.26922 0.5
197 2.17468 6.68073 8.35939 0.5
198 6.05 6.07151 12.6745 0.5
199 11.7145 0.506126 8.31812 0.5
200 7.02278 6.72366 1.27899 0.5
201 13.2419 3.79912 7.85821 0.5
202 6.67525 13.0402 7.85504 0.5
203 1.86832 3.30366 1.50092 0.5
204 3.39222 8.23975 9.3265 0.5
205 12.5618 13.3714 3.55355 0.5
206 0.827138 1.42546 9.86745 0.5
207 4.25968 11.6714 9.20407 0.5
208 9.27082 3.62435 4.99387 0.5
209 5.4065 1.92869 3.59745 0.5
210 4.24793 6.65492 5.45293 0.5
211 4.22555 4.44306 10.4448 0.5
212 3.21122 5.79839 4.31631 0.5
213 3.36638 1.65446 5.77552 0.5
214 9.95221 4.53097 11.2717 0.5
215 8.04838 6.68016 1.1738 0.5
216 6.4837 8.56524 0.457727 0.5
217 4.38479 11.4237 4.60501 0.5
218 6.73043 8.13652 4.62991 0.5
219 9.42812 1.01257 3.33152 0.5
220 7.67756 3.00676 10.3492 0.5
221 3.1837 3.30758 5.48606 0.5
222 6.81368 11.3044 4.97484 0.5
223 4.81642 9.29039 3.4555 0.5
224 12.8888 9.38621 3.71508 0.5
225 8.07973 11.278 10.9826 0.5
226 10.7134 6.28874 13.3066 0.5
227 13.4709 7.45431 10.0604 0.5
228 4.63882 11.7467 5.50495 0.5
229 5.48629 4.48381 6.20285 0.5
230 6.26112 9.60648 9.1826 0.5
231 8.14498 6.01854 9.10825 0.5
232 8.1623 4.59413 13.0671 0.5
233 1.27795 0.440392 9.84385 0.5
234 11.5334 1.93919 4.93813 0.5
235 1.41453 10.812 3.40872 0.5
236 10.9024 6.2327 0.738878 0.5
237 5.40498 8.01642 6.51396 0.5
238 0.320631 12.4714 6.01901 0.5
239 10.0126 7.99169 3.67649 0.5
240 1.52262 4.62372 13.5665 0.5
241 3.97645 6.16181 1.51585 0.5
242 3.0158 0.311517 2.66586 0.5
243 2.86338 10.0373 3.44409 0.5
244 3.91881 11.6604 6.18565 0.5
245 1.74157 11.5165 11.71 0.5
246 9.59989 10.2766 8.43577 0.5
247 3.66902 0.801952 10.5487 0.5
248 7.52688 2.97251 2.63271 0.5
249 10.4959 1.83918 13.296 0.5
250 9.9109 1.746 0.529222 0.5
251 4.15998 10.2519 12.1908 0.5
252 8.46304 8.4173 13.0623 0.5
253 1.71047 8.67526 1.19171 0.5
254 10.6592 2.43282 2.66423 0.5
255 8.46068 9.53196 2.53292 0.5
256 1.25692 13.2155 3.41657 0.5
257 0.565265 3.76556 7.43025 0.5
258 13.4379 6.19715 5.361 0.5
259 4.76167 4.90398 9.63081 0.5
260 6.43129 11.4925 10.5658 0.5
261 11.8123 3.33242 5.91046 0.5
262 7.36536 12.0785 5.3124 0.5
263 2.12296 4.10191 8.4769 0.5
264 10.1823 10.8585 8.94084 0.5
265 1.50908 4.34546 4.69205 0.5
266 3.61637 13.2958 6.0096 0.5
267 5.33283 7.8675 9.36918 0.5
268 6.89454 2.56014 1.86726 0.5
269 9.28462 0.0443164 8.66794 0.5
270 6.52226 10.0621 8.1385 0.5
271 10.9711 11.8086 7.06103 0.5
272 6.23834 9.18364 1.14058 0.5
273 7.87113 5.07464 3.68615 0.5
274 10.4339 4.92291 9.68519 0.5
275 2.70647 10.9282 1.06408 0.5
276 3.86233 2.63783 13.4765 0.5
277 7.33416 5.20834 13.2792 0.5
278 11.1525 10.503 0.51213 0.5
279 9.40409 11.7745 5.66201 0.5
280 4.55923 12.4227 2.1379 0.5
281 6.78866 2.67383 10.7573 0.5
282 0.090666 11.3079 1.2289 0.5
283 5.25242 4.97305 1.68245 0.5
284 1.91327 10.9945 0.316979 0.5
285 3.57335 9.81831 5.79778 0.5
286 2.39713 1.02112 12.5041 0.5
287 7.70965 7.1577 6.85333 0.5
288 5.74847 13.5015 6.43234 0.5
289 2.41704 10.8636 3.53636 0.5
290 1.23966 12.6399 6.01541 0.5
291 5.86869 0.0849089 5.41765 0.5
292 4.2083 3.33127 12.8951 0.5
293 10.6942 5.62764 3.96131 0.5
294 2.55666 10.0594 6.11572 0.5
295 2.75755 1.51102 6.54403 0.5
296 13.5642 4.60308 7.27217 0.5
297 10.3012 10.7064 10.9352 0.5
298 9.78959 4.84973 12.0845 0.5
299 1.77658 0.49582 13.1023 0.5
300 9.39926 4.55395 1.82276 0.5
301 6.02388 7.46768 11.8396 0.5
302 3.13803 9.05771 3.31465 0.5
303 12.3468 9.16473 2.831 0.5
304 0.283879 7.1336 5.51363 0.5
305 7.9427 12.7609 7.97817 0.5
306 11.3746 8.07537 1.44647 0.5
307 2.7474 7.08609 3.63002 0.5
308 0.414106 9.79728 11.2989 0.5
309 12.9136 13.0835 12.6151 0.5
310 8.83531 13.3913 4.37066 0.5
311 13.4417 6.31334 6.81954 0.5
312 7.40875 11.561 10.2363 0.5
313 1.07084 10.262 4.2483 0.5
314 5.80022 12.4381 9.44172 0.5
315 12.6798 5.10566 1.70351 0.5
316 8.3438 6.17735 7.99017 0.5
317 13.4192 8.54457 4.04233 0.5
318 0.316198 5.47491 6.69417 0.5
319 10.5464 11.343 0.677718 0.5
320 5.66979 3.46825 6.60695 0.5
321 2.14415 12.7018 3.54188 0.5
322 10.0165 13.268 0.890844 0.5
323 3.91258 0.807449 2.50804 0.5
324 10.8245 3.45944 3.03398 0.5
325 1.85801 5.01565 0.778199 0.5
326 10.2366 12.9004 13.5255 0.5
327 8.32466 3.61459 7.88023 0.5
328 12.1397 7.13258 12.724 0.5
329 8.2406 1.96953 8.42658 0.5
330 8.10177 1.25509 4.92267 0.5
331 4.78893 2.53259 2.98508 0.5
332 12.1841 1.23749 8.78761 0.5
333 12.9941 1.57425 2.43412 0.5
334 4.89547 5.89151 1.46162 0.5
335 9.60146 0.391816 4.95925 0.5
336 4.97855 1.95269 8.66414 0.5
337 11.5855 0.537303 12.0692 0.5
338 7.81197 6.26783 9.98981 0.5
339 10.2647 4.11164 2.3799 0.5
340 11.9015 3.57464 11.3909 0.5
341 8.56063 0.110243 9.3486 0.5
342 6.52165 0.365883 6.09524 0.5
343 7.05949 6.45418 9.32531 0.5
344 5.25737 6.90292 6.78945 0.5
345 8.84811 7.83563 5.70546 0.5
346 1.25933 6.82892 5.94899 0.5
347 12.9538 11.6051 0.537643 0.5
348 1.55345 3.90471 0.714493 0.5
349 7.65813 6.28253 6.39288 0.5
350 8.75285 7.53993 11.187 0.5
351 2.50022 8.65204 10.7614 0.5
352 8.52055 12.4258 7.22771 0.5
353 8.53621 7.25092 0.6204 0.5
354 2.31821 3.01009 5.52323 0.5
355 1.74144 7.1153 3.92521 0.5
356 11.8159 13.4331 4.06506 0.5
357 6.71478 12.1032 3.49106 0.5
358 3.77296 1.63305 9.83363 0.5
359 7.15698 9.44254 8.84371 0.5
360 12.52 3.97264 6.23089 0.5
361 3.22683 0.731437 6.27476 0.5
362 1.70295 1.1971 9.39451 0.5
363 10.2591 12.3256 0.806693 0.5
364 3.23046 7.9192 1.34926 0.5
365 2.31415 7.88208 0.986635 0.5
366 6.35171 9.03989 8.35515 0.5
367 10.1939 11.7336 13.502 0.5
368 5.55024 4.42672 9.37045 0.5
369 1.678 3.31609 4.83329 0.5
370 13.5113 10.244 5.76794 0.5
371 9.63369 0.177885 3.93604 0.5
372 0.0057819 4.95093 3.48684 0.5
373 4.0251 2.48771 12.4602 0.5
374 0.766433 9.1592 12.9295 0.5
375 0.313766 10.107 8.64623 0.5
376 1.80878 10.9473 4.37972 0.5
377 7.41554 5.96222 3.81036 0.5
378 6.05296 9.50492 0.145183 0.5
379 4.27818 5.14603 1.41267 0.5
380 7.45011 4.41487 0.276942 0.5
381 10.0005 3.45626 8.61572 0.5
382 9.25901 3.15347 7.90369 0.5
383 2.38617 4.27175 0.28736 0.5
384 5.65633 9.93625 12.8711 0.5
385 12.8773 10.8007 1.09396 0.5
386 13.0928 4.39705 4.21319 0.5
387 2.35413 6.46466 11.7379 0.5
388 1.66757 2.08239 9.9759 0.5
389 3.67851 10.428 11.3174 0.5
390 5.17715 4.40922 10.4044 0.5
391 6.93353 0.953308 2.34504 0.5
392 13.1221 4.93225 2.58176 0.5
393 2.57571 4.88952 9.05423 0.5
394 8.9998 9.56718 8.03111 0.5
395 1.62243 0.177405 8.88376 0.5
396 0.252311 2.00431 2.23583 0.5
397 7.24415 1.62956 1.63457 0.5
398 9.21356 12.198 2.74025 0.5
399 1.03444 4.53707 3.76027 0.5
400 7.38478 8.79613 5.02712 0.5
401 9.94138 2.63652 13.4329 0.5
402 4.85164 7.36505 5.96892 0.5
403 6.37937 0.444115 7.80335 0.5
404 11.2523 11.1055 12.346 0.5
405 12.2018 5.52786 13.2552 0.5
406 6.71553 3.02595 0.991183 0.5
407 1.87149 11.6881 3.62878 0.5
408 2.3693 3.926 5.15584 0.5
409 3.89444 5.10916 11.0993 0.5
410 11.3079 2.62962 3.34917 0.5
411 4.26614 5.71398 0.602518 0.5
412 5.25678 0.990621 0.124229 0.5
413 2.73397 6.00024 7.88053 0.5
414 3.17785 8.15837 11.258 0.5
415 8.41397 10.509 12.2395 0.5
416 8.80971 11.0322 5.4073 0.5
417 0.832768 13.274 9.16933 0.5
418 9.41265 1.20009 10.3218 0.5
419 3.09785 13.4572 10.7232 0.5
420 3.77632 0.104211 6.89931 0.5
421 13.4379 5.0499 9.39568 0.5
422 8.86326 4.4914 5.27147 0.5
423 12.3876 0.0587252 2.56572 0.5
424 2.66046 3.17129 4.58597 0.5
425 8.69882 8.52996 11.3869 0.5
426 1.13986 13.0099 7.49311 0.5
427 7.52845 2.39796 1.04458 0.5
428 0.858042 8.41119 8.93921 0.5
429 11.2911 5.55952 8.45302 0.5
430 9.71818 13.2888 11.6132 0.5
431 2.25553 5.11919 8.12703 0.5
432 13.0246 2.3366 1.78731 0.5
433 7.52058 11.4364 0.308579 0.5
434 0.195219 3.05199 12.9875 0.5
435 11.2798 9.1077 1.47949 0.5
436 6.60405 5.33698 10.3283 0.5
437 4.10452 9.29089 6.46066 0.5
438 5.96949 3.52343 7.61032 0.5
439 11.1126 10.6468 10.334 0.5
440 9.32208 11.0147 6.31814 0.5
441 5.76237 0.992388 5.97979 0.5
442 1.40028 7.33601 6.84203 0.5
443 0.903963 12.0644 1.18764 0.5
444 9.06506 9.0903 13.3564 0.5
445 5.09018 8.48775 3.97252 0.5
446 3.43423 6.5267 4.87225 0.5
447 2.12936 9.14016 6.47069 0.5
448 5.29945 9.60226 0.897073 0.5
449 3.73831 12.6598 10.9016 0.5
450 3.18937 1.8037 1.28706 0.5
451 7.63226 3.36585 0.578137 0.5
452 2.23936 8.70094 0.350741 0.5
453 4.97293 9.16634 2.43513 0.5
454 2.88207 13.3762 3.56455 0.5
455 1.24613 2.58655 11.5842 0.5
456 8.27239 0.0484265 8.4281 0.5
457 12.0998 11.249 8.61196 0.5
458 4.45347 0.807706 9.8526 0.5
459 13.0537 2.13334 5.70585 0.5
460 12.6502 6.33889 13.2646 0.5
461 11.3475 8.5664 11.5744 0.5
462 9.83141 4.12197 7.86087 0.5
463 6.6016 3.32732 6.95049 0.5
464 0.208955 8.37748 9.75367 0.5
465 5.17777 10.2962 12.1658 0.5
466 3.01003 13.0335 6.79866 0.5
467 1.37316 8.03697 0.559824 0.5
468 0.231651 7.56234 9.1183 0.5
469 2.13001 2.94495 11.3705 0.5
470 1.40603 6.5899 12.0015 0.5
471 4.45501 1.46955 10.62 0.5
472 10.9406 6.6279 3.96688 0.5
473 11.2789 8.41423 6.98461 0.5
474 3.38256 7.279 9.31599 0.5
475 6.46801 3.99114 6.0874 0.5
476 6.3572 1.03899 10.6969 0.5
477 6.01277 8.22102 9.90905 0.5
478 3.24392 12.423 0.760616 0.5
479 8.83082 7.46126 13.2135 0.5
480 3.87734 10.0462 8.81131 0.5
481 2.4911 3.4739 0.814591 0.5
482 10.9654 13.0391 0.678239 0.5
483 9.06661 11.133 2.65509 0.5
484 10.0648 7.13136 4.25755 0.5
485 5.27524 4.54868 2.61762 0.5
486 3.63124 10.9071 8.87076 0.5
487 4.61214 2.90128 8.39982 0.5
488 5.62834 5.25944 7.04061 0.5
489 3.59114 0.532803 3.39709 0.5
490 0.581176 12.6925 8.42304 0.5
491 2.23993 7.29945 12.2268 0.5
492 1.13222 5.1457 12.6464 0.5
493 12.1742 8.57659 10.969 0.5
494 6.47329 4.60484 0.0220572 0.5
495 6.59887 7.51781 0.778553 0.5
496 6.7565 0.118033 13.4382 0.5
497 4.70971 4.9138 6.64084 0.5
498 3.64821 11.9124 5.19117 0.5
499 6.68333 1.80592 11.3259 0.5
500 9.86134 9.336 6.12217 0.5
501 5.04022 1.72819 4.53161 0.5
502 9.30182 10.6139 9.31406 0.5
503 7.18947 5.91309 12.6299 0.5
504 2.08165 1.38346 13.3786 0.5
505 3.88934 3.24977 11.8843 0.5
506 3.59576 11.0194 1.56058 0.5
507 7.51716 4.30766 4.28892 0.5
508 0.246765 1.28068 5.90864 0.5
509 5.30081 5.48529 6.07897 0.5
510 7.5275 10.9322 11.7647 0.5
511 6.00535 0.723783 6.94714 0.5
512 9.85931 11.33 2.98818 0.5
513 4.44741 4.33825 3.12272 0.5
514 6.02466 8.20609 1.25021 0.5
515 1.98617 10.1977 2.933 0.5
516 5.64116 8.76431 3.16576 0.5
517 0.430683 4.24138 4.54484 0.5
518 2.53275 6.79718 9.28984 0.5
519 5.13922 7.78317 10.3532 0.5
520 2.04728 0.605326 0.440763 0.5
521 11.3417 5.95574 4.77014 0.5
522 2.82564 8.92682 11.6458 0.5
523 13.0779 7.74401 3.5866 0.5
524 0.968348 0.586711 5.90015 0.5
525 11.3395 8.62248 0.549771 0.5
526 8.61124 11.9946 8.20391 0.5
527 7.48024 11.0615 1.96763 0.5
528 1.13699 13.549 0.157056 0.5
529 13.4279 12.3121 1.10781 0.5
530 11.6545 2.67235 9.55599 0.5
531 11.201 8.51977 10.6165 0.5
532 6.49738 9.21539 4.67348 0.5
533 6.01986 7.97095 10.895 0.5
534 3.02951 12.9485 11.5588 0.5
535 8.02264 12.8265 13.0325 0.5
536 1.19161 12.2158 3.54878 0.5
537 2.52097 10.9889 8.86222 0.5
538 7.93185 10.1269 1.83468 0.5
539 1.92567 8.39226 3.13464 0.5
540 0.924886 3.04471 8.04119 0.5
541 3.90803 11.7486 2.3752 0.5
542 7.73107 0.230934 13.0003 0.5
543 13.0639 5.74482 6.20642 0.5
544 8.40876 2.58228 7.68615 0.5
545 1.86113 7.39826 2.96391 0.5
546 0.678981 0.558014 12.9824 0.5
547 10.5333 5.29494 4.90344 0.5
548 11.6629 13.3403 6.84182 0.5
549 11.7862 10.3047 8.77269 0.5
550 12.5691 12.5589 2.97973 0.5
551 6.37553 1.73666 2.09383 0.5
552 3.82172 7.46921 0.595542 0.5
553 10.4675 6.08616 8.03089 0.5
554 3.83358 12.5913 6.80855 0.5
555 0.203799 3.93483 3.61684 0.5
556 7.09352 13.0359 12.8179 0.5
557 6.89047 11.4149 1.15153 0.5
558 4.77291 1.72892 9.6503 0.5
559 3.00111 10.3135 8.33859 0.5
560 6.90195 2.56077 11.8178 0.5
561 8.06481 8.85311 12.1951 0.5
562 12.9614 2.57385 12.9049 0.5
563 8.43365 6.46091 6.99428 0.5
564 6.61034 5.15749 12.6322 0.5
565 9.91582 4.53688 5.3293 0.5
566 6.98845 1.75862 10.3793 0.5
567 12.5518 4.97741 3.47626 0.5
568 7.45135 1.22684 11.0692 0.5
569 11.0152 6.94659 11.3484 0.5
570 13.2745 7.77077 2.50737 0.5
571 2.56467 0.767281 3.4308 0.5
572 4.58691 3.32601 0.31373 0.5
573 0.742019 13.2894 6.4908 0.5
574 9.08924 8.21794 3.43321 0.5
575 8.7229 13.2606 2.58407 0.5
576 3.825 10.6758 7.93733 0.5
577 4.02117 9.03642 2.82342 0.5
578 1.81199 11.4773 1.20329 0.5
579 13.1441 9.81102 11.9073 0.5
580 3.06641 5.10206 7.45189 0.5
581 1.53021 12.9004 8.45377 0.5
582 2.72524 12.5346 10.6854 0.5
583 2.87689 10.9447 0.0553626 0.5
584 10.3157 6.23985 4.687 0.5
585 13.269 4.71357 6.35686 0.5
586 0.462764 5.59106 9.90255 0.5
587 12.96 2.9529 1.00956 0.5
588 13.23 12.4994 0.0619573 0.5
589 13.1357 9.3738 8.58675 0.5
590 4.00742 11.717 8.29082 0.5
591 3.58686 4.05846 12.3923 0.5
592 10.535 11.5349 10.6192 0.5
593 6.42285 9.49467 7.35649 0.5
594 13.115 10.8948 6.39196 0.5
595 12.6896 10.0254 6.17677 0.5
596 9.444 9.56099 2.61739 0.5
597 2.10464 10.0486 8.6984 0.5
598 7.48303 11.1285 5.76967 0.5
599 11.2175 11.1206 8.79044 0.5
600 12.1568 6.08856 12.3981 0.5
601 2.8704 6.17554 3.45652 0.5
602 13.5137 6.31908 10.3842 0.5
603 2.85784 7.32913 11.4932 0.5
604 5.36026 1.12461 10.3163 0.5
605 7.49415 1.72691 11.9809 0.5
606 11.1891 9.40223 5.27009 0.5
607 8.48596 10.3607 8.56522 0.5
608 7.92892 13.2413 12.1482 0.5
609 1.39658 11.8466 0.329035 0.5
610 1.11672 9.58714 8.83422 0.5
611 0.443168 9.16903 8.21072 0.5
612 5.75017 13.4241 2.99607 0.5
613 3.73138 5.70552 5.28326 0.5
614 3.99785 13.4487 10.2953 0.5
615 2.91276 10.0726 9.27423 0.5
616 0.378356 6.11895 1.79218 0.5
617 6.75252 5.63283 2.50256 0.5
618 11.6776 7.30333 8.26527 0.5
619 12.8971 3.5891 11.5569 0.5
620 1.16741 10.5125 11.5495 0.5
621 2.14252 3.88809 4.11133 0.5
622 5.67365 8.70324 9.02316 0.5
623 12.7006 7.94169 4.49712 0.5
624 13.0895 5.83374 2.21613 0.5
625 2.12481 3.57848 10.6796 0.5
626 2.98277 3.52546 1.59181 0.5
627 10.0238 6.49568 0.483697 0.5
628 12.8269 4.42985 9.97246 0.5
629 5.35608 4.01145 3.55148 0.5
630 3.3708 2.77797 0.804798 0.5
631 9.13906 1.09184 0.17394 0.5
632 6.39848 12.862 0.0732642 0.5
633 9.84822 0.710005 0.764683 0.5
634 10.186 10.811 9.95893 0.5
635 9.85461 2.24485 12.4612 0.5
636 10.1743 3.85205 11.9637 0.5
637 13.5296 9.97651 6.6412 0.5
638 6.01773 1.57028 4.40514 0.5
639 9.30588 7.1537 10.404 0.5
640 2.35597 4.26761 7.5464 0.5
641 7.39047 7.08663 5.88361 0.5
642 11.2321 5.43666 0.137453 0.5
643 10.8867 0.769806 7.80846 0.5
644 7.52762 3.2685 11.279 0.5
645 0.0598192 11.3573 5.64803 0.5
646 9.03555 8.84037 12.361 0.5
647 8.61116 4.93431 12.1131 0.5
648 7.7041 9.84598 12.0412 0.5
649 5.23194 8.10606 11.4272 0.5
650 3.47614 1.11861 7.12647 0.5
651 0.959306 6.31805 6.79297 0.5
652 5.2547 4.26875 7.24674 0.5
653 0.425154 5.54884 2.65674 0.5
654 3.71731 11.1979 11.8478 0.5
655 11.7822 11.8392 9.36515 0.5
656 1.01912 11.1364 0.752516 0.5
657 10.8206 0.319537 6.9196 0.5
658 9.25154 10.129 5.59518 0.5
659 1.22714 9.8199 3.41846 0.5
660 0.764299 0.757972 9.11204 0.5
661 2.55925 7.72414 9.55698 0.5
662 3.95646 11.0147 5.41704 0.5
663 5.8863 12.6324 3.62852 0.5
664 5.09995 6.49116 5.91536 0.5
665 10.136 10.7877 3.75143 0.5
666 5.00567 12.0632 9.88741 0.5
667 10.726 4.0292 8.18698 0.5
668 5.41698 2.97072 3.54114 0.5
669 8.18971 10.5521 2.68392 0.5
670 8.91803 12.9826 7.9878 0.5
671 7.02385 8.43718 1.2649 0.5
672 2.9327 2.24866 5.10761 0.5
673 5.50123 8.69868 0.551568 0.5
674 2.95185 8.06309 12.2297 0.5
675 3.18791 4.86025 11.7768 0.5
676 2.05456 13.5751 2.95765 0.5
677 3.87748 9.83671 3.46387 0.5
678 12.9545 8.13386 10.4561 0.5
679 10.6258 12.2628 6.25581 0.5
680 4.67707 11.4292 1.86446 0.5
681 4.22821 1.31929 8.9371 0.5
682 2.36476 2.66883 10.3776 0.5
683 1.80168 5.68532 12.2075 0.5
684 11.7095 13.0394 3.22513 0.5
685 12.1779 12.463 3.92241 0.5
686 10.693 7.87487 11.2127 0.5
687 5.06837 9.50525 13.5623 0.5
688 0.949487 7.83194 6.02979 0.5
689 3.40751 2.65354 1.87912 0.5
690 4.6589 8.56752 6.93969 0.5
691 0.112052 10.6858 11.6694 0.5
692 4.81751 0.147905 0.192792 0.5
693 11.3996 5.9797 11.72 0.5
694 5.83912 9.14434 9.93976 0.5
695 12.4362 8.10207 2.83221 0.5
696 10.3068 3.15427 7.69514 0.5
697 13.5571 9.77019 7.62439 0.5
698 5.97329 10.9514 6.35707 0.5
699 3.11179 8.15539 0.472198 0.5
700 12.4603 8.54052 3.73924 0.5
701 9.49556 8.08636 13.0535 0.5
702 4.04024 2.03671 8.27906 0.5
703 1.87461 5.52676 13.2418 0.5
704 8.66169 2.93535 8.60114 0.5
705 10.732 7.14787 7.97848 0.5
706 6.5851 10.6258 5.68465 0.5
707 3.91964 5.45121 10.0585 0.5
708 12.9023 1.94171 0.765995 0.5
709 9.55662 0.116314 0.0328336 0.5
710 6.52097 6.25038 3.33414 0.5
711 0.361372 13.2248 13.0921 0.5
712 12.3591 2.89579 8.99461 0.5
713 8.15963 9.87194 7.69652 0.5
714 12.6115 4.42213 7.14501 0.5
715 13.2204 8.62495 3.06275 0.5
716 1.91775 2.01513 11.0296 0.5
717 2.93937 7.11873 0.751435 0.5
718 11.731 0.639698 7.32993 0.5
719 4.59578 11.1128 12.4746 0.5
720 12.5291 11.5262 2.57543 0.5
721 10.9631 6.55329 8.78996 0.5
722 6.0294 13.3778 12.845 0.5
723 3.23305 11.7393 8.93769 0.5
724 9.31019 13.1862 9.56833 0.5
725 2.33413 1.98814 5.76432 0.5
726 7.50532 2.13577 7.63838 0.5
727 4.82453 2.67086 13.112 0.5
728 12.5662 1.77815 4.78726 0.5
729 9.68576 5.03721 1.04453 0.5
730 8.00579 5.63762 7.0535 0.5
731 10.61 0.24478 0.260102 0.5
732 1.84881 2.69178 7.61712 0.5
733 7.77961 11.7407 1.33761 0.5
734 10.2124 11.3396 6.35268 0.5
735 3.17269 5.39238 8.49303 0.5
736 4.73073 4.55795 11.2782 0.5
737 4.54752 3.40659 3.53025 0.5
738 1.80504 7.29494 11.298 0.5
739 5.79431 13.3363 7.39766 0.5
740 12.0876 13.3207 7.80607 0.5
741 7.81359 4.26898 5.25411 0.5
742 5.33417 8.87025 1.52728 0.5
743 7.25514 7.95593 5.5372 0.5
744 4.83597 3.05528 12.1764 0.5
745 6.65199 6.71958 12.192 0.5
746 4.97965 8.63926 9.79046 0.5
747 13.1988 0.702727 11.3092 0.5
748 7.28524 9.42616 7.91142 0.5
749 6.4894 9.35039 3.57902 0.5
750 1.16505 1.0842 0.080223 0.5
751 13.4897 8.64693 12.8878 0.5
752 1.41096 1.34456 12.6576 0.5
753 6.56872 2.14333 1.04576 0.5
754 2.21487 12.4403 11.5102 0.5
755 6.75521 3.64623 0.138586 0.5
756 6.66655 7.56903 1.73483 0.5
757 11.9686 6.90084 11.768 0.5
758 4.33569 12.3731 4.66651 0.5
759 12.7838 8.6069 2.03271 0.5
760 7.19194 5.29549 4.41805 0.5
761 3.43585 11.4524 0.665581 0.5
762 13.3979 2.50715 0.190565 0.5
763 11.9654 0.530258 3.30403 0.5
764 8.99936 9.22877 3.34748 0.5
765 12.4131 2.58739 0.107977 0.5
766 7.59555 3.40174 4.71781 0.5
767 3.53943 7.04558 1.46189 0.5
768 12.8721 0.108413 10.6239 0.5
769 11.3472 2.37419 5.83383 0.5
770 11.0689 7.67218 6.44074 0.5
771 8.00545 7.87339 6.19763 0.5
772 0.971666 1.9689 10.6864 0.5
773 9.13851 3.84169 8.62609 0.5
774 9.54976 0.110204 3.01431 0.5
775 10.4018 0.0177637 11.006 0.5
776 3.10916 9.26789 6.49306 0.5
777 11.2406 12.4856 3.93239 0.5
778 11.6969 11.9999 3.12687 0.5
779 8.03926 7.37939 5.25702 0.5
780 2.9716 11.2898 8.05285 0.5
781 12.9124 1.06998 5.50354 0.5
782 11.0398 3.19785 4.08959 0.5
783 0.421128 9.09972 12.0463 0.5
784 2.0693 2.30742 4.78046 0.5
785 10.2657 9.86872 5.33671 0.5
786 8.37426 3.94006 4.56956 0.5
787 6.14019 12.5655 2.69087 0.5
788 11.7385 7.76434 11.1944 0.5
789 9.35052 4.00263 2.70482 0.5
790 8.84675 0.811351 2.49416 0.5
791 5.09334 7.32877 12.1013 0.5
792 5.74685 2.60676 7.21593 0.5
793 7.22005 8.85749 4.02541 0.5
794 12.9453 0.794508 3.04339 0.5
795 7.66328 7.94849 4.52348 0.5
796 4.92835 11.06 9.63297 0.5
797 3.85167 4.13889 11.396 0.5
798 1.90655 2.95925 3.97222 0.5
799 0.209325 0.596342 5.2015 0.5
800 0.52924 8.33991 13.5465 0.5
801 7.6997 5.58629 2.81179 0.5
802 5.57236 10.9926 12.9149 0.5
803 11.2253 11.0655 11.2771 0.5
804 0.293166 5.70847 8.98207 0.5
805 9.11123 8.5891 2.56579 0.5
806 2.84709 7.44487 8.62851 0.5
807 3.06567 4.44679 8.25091 0.5
808 2.08966 9.3294 3.35355 0.5
809 9.19078 5.11586 11.2944 0.5
810 3.16056 12.0007 11.4789 0.5
811 10.3822 7.11824 3.24685 0.5
812 2.20245 8.15278 11.5513 0.5
813 8.16973 5.57376 12.8098 0.5
814 9.23783 0.638867 5.86535 0.5
815 11.5064 12.0368 8.38511 0.5
816 9.5331 7.32323 0.243713 0.5
817 11.8054 11.1034 3.33071 0.5
818 3.4786 10.4073 0.778549 0.5
819 6.73738 13.5503 6.99164 0.5
820 0.075162 12.5081 9.39041 0.5
821 11.1991 2.85876 5.03113 0.5
822 9.09469 1.39844 5.13283 0.5
823 9.96378 0.35945 10.1727 0.5
824 1.68789 8.60112 5.71148 0.5
825 7.95021 1.32974 2.38385 0.5
826 7.38441 0.0945304 7.78431 0.5
827 10.6346 0.419292 1.19548 0.5
828 5.05083 3.57602 2.70319 0.5
829 4.87919 2.27008 7.64602 0.5
830 5.19971 11.6795 9.01702 0.5
831 11.1021 13.4043 7.8372 0.5
832 0.372247 5.44985 10.874 0.5
833 2.34901 11.5913 10.8985 0.5
834 9.46908 1.88335 13.2117 0.5
835 0.850364 5.79312 11.8832 0.5
836 7.89559 9.27088 11.2447 0.5
837 7.01499 2.58618 0.166939 0.5
838 12.992 13.3116 11.5177 0.5
839 4.64316 5.40028 2.36654 0.5
840 7.4053 13.0939 0.1826 0.5
841 6.96461 10.9039 6.55221 0.5
842 12.5825 3.67835 10.5905 0.5
843 12.4387 2.94244 12.0785 0.5
844 5.12508 3.59799 12.9837 0.5
845 9.80693 5.65027 5.35197 0.5
846 5.92487 12.3451 10.3814 0.5
847 4.51228 7.64938 6.86463 0.5
848 5.02583 6.54278 12.7205 0.5
849 0.850186 12.241 6.87344 0.5
850 10.7935 10.4137 11.9183 0.5
851 6.55467 9.99585 6.4659 0.5
852 7.17588 10.1994 7.30915 0.5
853 4.36589 7.68243 9.61186 0.5
854 10.0288 6.32802 3.67081 0.5
855 9.88275 10.4433 2.75956 0.5
856 1.93694 0.088315 3.90984 0.5
857 9.74316 4.95948 10.4187 0.5
858 7.5149 10.2673 8.30915 0.5
859 11.3425 5.26785 5.50298 0.5
860 10.5304 5.1533 5.91277 0.5
861 11.0201 13.2108 6.12682 0.5
862 11.1173 7.52372 10.4377 0.5
863 8.20816 8.35242 5.35536 0.5
864 8.19526 7.09281 7.83279 0.5
865 12.2604 3.89699 12.2484 0.5
866 5.48462 13.072 2.04597 0.5
867 12.3621 4.21043 13.2395 0.5
868 8.96051 9.71907 9.07254 0.5
869 4.41627 13.3868 12.9787 0.5
870 3.67876 8.36879 6.65601 0.5
871 12.7435 8.98481 4.61729 0.5
872 0.907706 5.50296 13.5417 0.5
873 12.8248 0.679002 2.00678 0.5
874 7.5744 5.03871 12.3206 0.5
875 7.32733 12.0063 4.32666 0.5
876 2.44772 5.819 8.87806 0.5
877 10.4931 7.88894 7.25325 0.5
878 2.51548 11.7647 0.605958 0.5
879 1.58304 3.63099 7.67065 0.5
880 12.1052 1.08842 2.51346 0.5
881 11.0456 10.316 13.0223 0.5
882 1.97745 10.1417 3.96386 0.5
883 10.9522 12.1825 0.228532 0.5
884 12.9094 3.34913 0.0322922 0.5
885 7.16309 10.8391 10.8353 0.5
886 0.130431 2.90219 7.47526 0.5
887 0.0190002 0.174587 12.2802 0.5
888 4.50336 4.40909 2.14965 0.5
889 11.0232 4.65632 8.93688 0.5
890 11.3219 8.66233 5.98583 0.5
891 2.02913 6.44697 3.28683 0.5
892 9.36661 0.654714 9.48671 0.5
893 10.0691 4.41334 8.82805 0.5
894 7.55062 7.64425 1.27695 0.5
895 12.1585 8.61945 1.21411 0.5
896 7.04922 12.2899 0.629648 0.5
897 6.67103 13.1151 3.32487 0.5
898 5.19234 12.5604 2.96854 0.5
899 10.5767 4.96668 8.08375 0.5
900 11.8359 10.8987 9.57077 0.5
901 13.1481 5.35953 10.2448 0.5
902 11.3809 6.47743 7.79284 0.5
903 9.90756 8.71903 3.09053 0.5
904 8.47559 3.54918 5.4939 0.5
905 13.1011 6.82064 6.1032 0.5
906 13.1445 5.86479 3.28208 0.5
907 6.8896 3.66296 10.4194 0.5
908 8.63276 0.456361 5.12438 0.5
909 9.89835 3.18415 2.73574 0.5
910 7.53438 3.14263 7.49833 0.5
911 5.90944 6.9817 12.6889 0.5
912 8.69518 9.5874 11.7907 0.5
913 11.247 5.6416 12.7416 0.5
914 5.2943 12.9062 13.3616 0.5
915 7.71439 2.25198 4.73997 0.5
916 10.4039 8.4629 6.39511 0.5
917 12.0918 13.1809 11.9959 0.5
918 7.67618 6.73484 8.51969 0.5
919 12.7048 11.6907 1.59459 0.5
920 0.562176 11.5845 10.4698 0.5
921 5.66552 6.16062 7.53577 0.5
922 12.4151 2.82874 11.0831 0.5
923 0.851148 2.14606 7.7757 0.5
924 11.6077 11.5199 10.3446 0.5
925 10.6653 3.2371 1.98641 0.5
926 5.50408 10.4033 0.239011 0.5
927 1.90599 7.62119 6.01391 0.5
928 0.390278 6.3133 6.06711 0.5
929 1.48112 2.84146 10.607 0.5
930 10.0054 9.95383 9.32445 0.5
931 4.7817 9.56443 12.5982 0.5
932 4.07367 8.74737 3.75906 0.5