ITEM: TIMESTEP
740000
ITEM: NUMBER OF ATOMS
1000
ITEM: BOX BOUNDS xy xz yz pp pp pp
0.0000000000000000e+00 1.3572088000000001e+01 0.0000000000000000e+00
0.0000000000000000e+00 1.3572088000000001e+01 0.0000000000000000e+00
0.0000000000000000e+00 1.3572088000000001e+01 0.0000000000000000e+00
ITEM: ATOMS id x y z radius
1 4.03936 3.30473 11.9934 0.5
2 4.66627 11.4556 4.82042 0.5
3 9.09414 10.1215 2.83546 0.5
4 10.034 5.71089 1.22876 0.5
5 8.87307 8.00052 10.1285 0.5
6 3.0726 12.8076 5.11783 0.5
7 3.38365 7.56382 1.51399 0.5
8 12.3179 11.3264 2.27451 0.5
9 1.83433 8.18911 6.78862 0.5
10 2.96427 13.4489 11.3432 0.5
11 0.403094 9.04741 9.4213 0.5
12 10.5145 5.59768 0.324436 0.5
13 7.70802 11.812 4.11847 0.5
14 10.2886 2.40686 4.32754 0.5
15 5.38924 0.145202 5.5377 0.5
16 7.54523 6.79346 9.33012 0.5
17 6.80283 11.7135 10.8841 0.5
18 2.75068 8.39802 6.19824 0.5
19 10.0574 4.87142 1.61654 0.5
20 10.6581 10.7118 2.88777 0.5
21 2.27082 5.05045 0.409369 0.5
22 1.59172 6.43572 11.8013 0.5
23 1.40428 1.44919 10.1254 0.5
24 7.81826 7.20414 1.91191 0.5
25 0.684249 6.59236 2.97688 0.5
26 10.4096 10.5607 6.13051 0.5
27 11.9297 6.61247 12.3368 0.5
28 5.42756 11.2114 11.3795 0.5
29 0.158495 5.56883 1.81903 0.5
30 8.50059 10.7689 1.49932 0.5
31 0.894935 0.485809 8.03542 0.5
32 9.22959 3.08987 12.2551 0.5
33 13.3829 6.4927 9.30663 0.5
34 3.53666 8.72618 5.69557 0.5
35 11.7823 6.63118 0.748982 0.5
36 8.47433 2.05675 5.11747 0.5
37 0.126174 1.08251 2.37359 0.5
38 2.33996 1.87862 2.19706 0.5
39 10.4206 4.11757 1.16685 0.5
40 5.9405 6.10008 5.85608 0.5
41 7.14735 11.2844 4.79569 0.5
42 7.68962 4.99618 2.9959 0.5
43 5.64966 5.01872 10.4998 0.5
44 4.55062 11.167 8.45256 0.5
45 7.80934 6.27272 1.94629 0.5
46 10.516 11.0876 0.006596 0.5
47 2.6876 9.27367 5.66818 0.5
48 7.93923 10.3379 0.686727 0.5
49 6.37656 11.6495 9.98891 0.5
50 6.26191 0.397296 11.0508 0.5
51 13.0581 9.70109 7.86303 0.5
52 6.38968 10.7423 7.23313 0.5
53 9.92779 3.3405 1.4481 0.5
54 11.4391 11.8154 4.24459 0.5
55 0.549238 0.155077 4.59204 0.5
56 13.0772 2.94978 4.00668 0.5
57 0.113822 11.1869 11.8913 0.5
58 5.42306 8.75316 10.6582 0.5
59 1.73218 10.8884 11.7258 0.5
60 7.43224 5.12908 9.35311 0.5
61 3.81982 0.344542 11.1875 0.5
62 1.36197 8.23211 1.24076 0.5
63 11.6241 9.06273 1.78244 0.5
64 11.8457 2.28071 9.64789 0.5
65 0.295848 1.6282 5.31352 0.5
66 12.2758 1.83475 1.7392 0.5
67 8.17215 2.74035 8.99981 0.5
68 3.12347 1.80573 2.78447 0.5
69 11.3826 2.89009 10.4645 0.5
70 12.6677 3.65759 9.7149 0.5
71 3.30932 6.40518 7.82446 0.5
72 7.19524 2.1955 10.8596 0.5
73 8.344 6.98723 8.71454 0.5
74 5.98607 4.47604 9.76162 0.5
75 8.97384 0.261055 10.383 0.5
76 12.3614 3.7387 13.2017 0.5
77 10.0185 2.76411 3.43724 0.5
78 8.23157 2.98401 5.71177 0.5
79 3.80708 12.3947 5.80719 0.5
80 5.45237 2.32755 8.1474 0.5
81 1.41635 3.69736 11.1783 0.5
82 2.1465 8.75329 0.901733 0.5
83 2.76274 0.536902 6.14835 0.5
84 0.638047 8.28605 8.65877 0.5
85 13.5034 3.69795 6.78872 0.5
86 3.08326 0.785914 13.0608 0.5
87 4.3872 5.69554 5.78663 0.5
88 6.77876 5.21509 3.24102 0.5
89 11.7769 12.8555 7.86539 0.5
90 3.83465 6.05919 4.22915 0.5
91 11.3068 7.22585 11.7741 0.5
92 13.2183 1.41648 1.51927 0.5
93 0.182708 0.725858 12.2782 0.5
94 4.83242 10.5175 12.7489 0.5
95 11.7066 1.77247 8.10991 0.5
96 11.2957 2.60478 4.51053 0.5
97 11.4165 2.75066 5.50863 0.5
98 10.9564 10.1789 0.0869123 0.5
99 6.5086 8.69691 9.25074 0.5
100 0.400309 7.21458 6.46949 0.5
101 4.5038 11.659 3.00205 0.5
102 8.26825 7.44587 9.59102 0.5
103 4.70805 4.84845 10.8266 0.5
104 7.46243 11.2896 5.75305 0.5
105 11.8935 12.6411 6.8721 0.5
106 5.75106 1.18309 10.9611 0.5
107 13.203 5.39082 6.73767 0.5
108 12.6285 10.2621 5.87906 0.5
109 1.26603 12.6398 8.84174 0.5
110 8.2745 9.40167 8.25262 0.5
111 8.35469 13.4777 3.18904 0.5
112 5.75921 0.876737 6.10735 0.5
113 0.18189 0.133097 6.18657 0.5
114 7.70242 6.73965 2.90756 0.5
115 5.71311 6.68867 11.9404 0.5
116 13.2977 4.8959 2.36476 0.5
117 13.2794 0.888253 5.67446 0.5
118 11.1808 9.2833 5.6474 0.5
119 12.1098 8.16486 1.52778 0.5
120 5.58383 8.97635 3.92541 0.5
121 12.0979 13.2495 10.6736 0.5
122 2.36193 4.40216 2.14097 0.5
123 11.6843 2.59044 8.73337 0.5
124 10.3658 11.4104 11.5258 0.5
125 5.06259 11.7697 3.87316 0.5
126 11.1382 11.7767 13.0672 0.5
127 8.30518 9.61221 11.0993 0.5
128 5.41572 3.30321 8.19287 0.5
129 2.44847 5.81718 11.594 0.5
130 0.48621 11.7413 11.025 0.5
131 7.51251 2.56305 2.29929 0.5
132 5.44203 11.3172 2.55962 0.5
133 0.828867 10.8345 11.3045 0.5
134 10.8774 11.5636 3.50573 0.5
135 11.3477 2.00417 6.16369 0.5
136 8.23259 4.63031 4.54984 0.5
137 2.6964 12.4439 6.04846 0.5
138 7.57573 11.9569 12.9738 0.5
139 4.61116 13.1991 0.0192301 0.5
140 5.10837 2.54659 4.00024 0.5
141 1.38011 3.28337 4.81867 0.5
142 9.99153 3.42605 11.8003 0.5
143 0.661996 13.0045 0.731559 0.5
144 8.73064 12.8471 9.00657 0.5
145 6.96281 6.68319 2.08117 0.5
146 9.93103 9.19732 8.26966 0.5
147 4.86189 6.29882 1.77021 0.5
148 12.4338 0.551436 11.1287 0.5
149 7.74799 6.9414 10.292 0.5
150 12.3819 12.141 3.78329 0.5
151 7.35207 12.0762 10.1507 0.5
152 4.32539 4.01928 11.1832 0.5
153 11.33 7.78639 7.72332 0.5
154 1.95405 3.41161 2.44205 0.5
155 2.68623 8.53012 10.793 0.5
156 8.0369 11.9809 0.200909 0.5
157 1.83415 0.220836 3.22089 0.5
158 1.34469 10.1689 8.54304 0.5
159 3.62243 1.78024 9.70255 0.5
160 9.40709 0.337596 11.2856 0.5
161 12.3943 2.91113 10.2482 0.5
162 7.30691 2.08908 8.93102 0.5
163 11.8558 10.1047 0.537058 0.5
164 9.61842 3.90854 10.9021 0.5
165 7.2116 10.8815 11.3765 0.5
166 11.0996 13.0886 7.21818 0.5
167 10.7596 8.54059 8.09614 0.5
168 0.695809 3.03039 7.16088 0.5
169 10.3301 11.3816 12.5481 0.5
170 4.8756 6.24928 0.778307 0.5
171 10.8393 5.02989 1.0299 0.5
172 12.5274 8.49634 11.3506 0.5
173 9.12709 9.95875 1.82438 0.5
174 5.39695 0.872797 0.808961 0.5
175 2.16544 6.37597 4.31487 0.5
176 3.35272 5.70593 3.3324 0.5
177 8.36221 4.63446 6.50028 0.5
178 4.83755 0.839199 4.4514 0.5
179 12.8891 5.81472 2.22482 0.5
180 9.31103 2.98733 11.2811 0.5
181 11.0074 11.1605 9.60985 0.5
182 3.29459 12.0341 1.39827 0.5
183 8.54636 7.37337 6.27481 0.5
184 10.2729 5.89035 8.9241 0.5
185 8.42792 13.5393 11.1554 0.5
186 4.70698 8.13855 2.78796 0.5
187 5.12057 0.506888 13.5567 0.5
188 5.18566 5.98175 6.39878 0.5
189 0.342611 11.0761 6.69686 0.5
190 9.13733 13.0152 2.7326 0.5
191 9.592 7.17037 3.89042 0.5
192 9.94299 1.25696 13.0582 0.5
193 10.9013 2.44506 9.57233 0.5
194 9.18623 13.0523 10.8048 0.5
195 13.5054 9.3331 13.0767 0.5
196 8.56243 1.08214 4.75883 0.5
197 2.80312 6.62018 8.7141 0.5
198 6.21822 6.23465 12.7714 0.5
199 11.8804 0.917599 8.65555 0.5
200 7.35665 6.87394 1.13795 0.5
201 12.8279 3.85027 7.6359 0.5
202 5.82488 12.5439 8.86676 0.5
203 1.69898 4.82153 1.37839 0.5
204 3.55279 8.23997 8.42968 0.5
205 11.881 0.0929795 4.09392 0.5
206 0.514085 1.52362 9.77343 0.5
207 4.18355 11.988 9.16073 0.5
208 7.90584 3.86858 6.00867 0.5
209 5.87759 1.13365 4.37828 0.5
210 3.97405 6.4902 5.15676 0.5
211 3.96156 5.05636 10.0674 0.5
212 2.86893 5.64252 4.2028 0.5
213 3.15548 1.24603 5.59784 0.5
214 9.87102 4.51908 11.7577 0.5
215 8.29869 7.02344 0.982512 0.5
216 6.37759 8.52714 0.220685 0.5
217 3.77371 11.0582 4.84946 0.5
218 6.76659 8.20829 4.56124 0.5
219 8.54259 0.73353 3.72841 0.5
220 7.00059 1.80181 9.92146 0.5
221 3.78417 2.74471 5.40413 0.5
222 6.66826 11.8097 5.48486 0.5
223 4.78534 9.02259 3.2744 0.5
224 12.8369 9.45818 3.58209 0.5
225 8.3047 10.6305 11.2503 0.5
226 11.0548 6.40356 0.133259 0.5
227 0.365178 7.08464 9.83845 0.5
228 4.03029 11.4738 5.64542 0.5
229 5.58494 4.5452 6.96765 0.5
230 6.03831 9.37498 8.65663 0.5
231 7.91091 5.97158 8.91592 0.5
232 7.98925 4.50873 12.5934 0.5
233 1.09041 0.644957 9.59979 0.5
234 10.7546 2.02827 5.21803 0.5
235 1.46587 10.3074 3.11714 0.5
236 10.9628 6.10661 1.10659 0.5
237 5.36065 8.00608 6.16754 0.5
238 0.889659 12.359 5.84558 0.5
239 10.2369 7.82315 3.86064 0.5
240 1.0444 5.44311 13.0202 0.5
241 5.21764 5.54871 1.39936 0.5
242 2.84192 1.05467 2.16405 0.5
243 2.93308 9.85775 3.52802 0.5
244 3.3969 11.7175 6.40401 0.5
245 1.07691 11.5811 12.0107 0.5
246 9.79475 10.2351 8.20844 0.5
247 3.08262 0.276015 10.4561 0.5
248 6.43702 2.31162 2.42999 0.5
249 10.549 1.86217 12.4925 0.5
250 10.2636 2.24394 13.4008 0.5
251 4.08432 10.5013 12.0083 0.5
252 8.94771 8.28452 12.9887 0.5
253 2.37231 7.94827 1.50674 0.5
254 10.5385 2.62045 2.55426 0.5
255 8.71641 9.33453 2.48739 0.5
256 2.37117 12.989 3.43155 0.5
257 0.331407 3.81126 7.71731 0.5
258 13.1047 6.69549 5.15338 0.5
259 4.8583 5.66437 10.2215 0.5
260 7.07192 10.9165 10.2485 0.5
261 10.9591 3.56979 5.92868 0.5
262 7.55626 12.144 5.1341 0.5
263 2.66391 3.98962 8.39049 0.5
264 10.3479 10.7713 9.03245 0.5
265 1.31522 4.08628 4.23888 0.5
266 3.18716 13.2118 5.96253 0.5
267 4.96221 7.80328 9.45165 0.5
268 6.98498 2.088 1.58004 0.5
269 9.55263 13.4531 8.83412 0.5
270 6.66719 10.0371 8.0339 0.5
271 11.1215 12.1267 7.39868 0.5
272 6.17034 9.28667 0.886538 0.5
273 8.29545 5.35919 3.85209 0.5
274 10.1922 5.22961 9.78518 0.5
275 2.77475 11.2581 1.05015 0.5
276 5.16505 2.77443 0.0333189 0.5
277 7.4399 5.18551 13.2053 0.5
278 11.5403 11.0862 0.0914782 0.5
279 9.85025 12.0163 5.58929 0.5
280 4.99339 12.1072 2.09348 0.5
281 6.17337 2.07719 10.5284 0.5
282 0.382201 11.6263 1.60915 0.5
283 5.72817 5.04672 3.03475 0.5
284 2.00156 11.5512 0.347215 0.5
285 3.58731 9.78085 5.80415 0.5
286 2.54145 1.67642 12.6165 0.5
287 7.75036 7.47768 6.9193 0.5
288 6.24559 13.0651 6.96799 0.5
289 2.36097 10.701 3.44038 0.5
290 13.5226 12.7468 5.73338 0.5
291 6.21381 0.00605898 6.09716 0.5
292 4.65448 3.15239 12.8022 0.5
293 10.626 5.34203 4.0957 0.5
294 2.68752 10.1295 6.25709 0.5
295 2.58548 1.55988 6.48604 0.5
296 13.4118 4.58677 7.26766 0.5
297 10.537 10.408 11.0471 0.5
298 8.99266 4.82743 12.2327 0.5
299 2.10416 0.890012 12.9204 0.5
300 9.49174 4.24064 1.13254 0.5
301 6.18302 7.46238 11.6455 0.5
302 2.9234 9.269 2.61759 0.5
303 12.3025 9.43857 2.63169 0.5
304 0.249195 7.55596 5.51529 0.5
305 8.09974 12.8491 8.12803 0.5
306 11.3484 8.60789 0.950618 0.5
307 2.23117 7.03503 3.5187 0.5
308 0.699193 10.1054 13.088 0.5
309 12.9867 0.698554 12.9454 0.5
310 8.76876 0.135664 4.6436 0.5
311 0.0937827 6.27869 6.68464 0.5
312 7.78152 11.3331 10.736 0.5
313 0.915833 10.1242 3.94306 0.5
314 6.66016 12.4543 9.41011 0.5
315 12.3073 4.88283 2.27683 0.5
316 8.16555 6.32854 8.00529 0.5
317 13.0584 8.52482 3.76681 0.5
318 0.488247 5.60652 6.0706 0.5
319 10.965 11.8166 0.553373 0.5
320 5.18339 3.65813 7.40652 0.5
321 3.25392 13.4843 3.4371 0.5
322 10.1362 0.558155 1.01575 0.5
323 3.21099 1.88342 1.76787 0.5
324 10.5631 3.60141 2.97282 0.5
325 2.01526 5.68191 13.3081 0.5
326 9.78682 13.3782 0.47474 0.5
327 8.14029 3.47563 8.25757 0.5
328 12.7356 6.94146 0.512652 0.5
329 9.02057 2.39951 8.96531 0.5
330 7.82749 1.38756 5.49443 0.5
331 5.10686 1.44918 3.71767 0.5
332 12.3461 1.8567 8.85356 0.5
333 13.095 1.8453 2.48876 0.5
334 4.48742 5.22727 1.89217 0.5
335 9.32405 0.545085 5.40701 0.5
336 4.59483 1.96143 9.31648 0.5
337 11.7133 1.00259 11.6274 0.5
338 7.51398 5.99656 9.90102 0.5
339 10.0314 4.03262 2.09104 0.5
340 12.0175 4.06497 11.4221 0.5
341 8.78488 0.177597 9.43777 0.5
342 6.09634 0.525236 7.04527 0.5
343 6.91056 6.07981 9.13179 0.5
344 5.39467 6.98955 6.03389 0.5
345 8.92674 8.24757 5.90719 0.5
346 1.12458 7.23722 5.68473 0.5
347 13.1298 11.8042 0.926366 0.5
348 1.34785 5.15497 0.380475 0.5
349 7.91895 6.59322 6.41068 0.5
350 8.11793 7.80004 10.5194 0.5
351 2.89736 9.39589 11.2159 0.5
352 8.67693 12.5427 7.3084 0.5
353 8.59273 7.77058 0.329254 0.5
354 2.87812 2.902 5.59718 0.5
355 1.47872 6.47993 3.60324 0.5
356 10.9451 13.5062 4.3703 0.5
357 6.80773 11.3631 3.80019 0.5
358 3.42993 0.753352 9.54478 0.5
359 7.02371 9.43627 8.71177 0.5
360 12.5284 3.29614 6.81859 0.5
361 3.57461 1.27648 6.49253 0.5
362 1.39907 1.62926 9.08039 0.5
363 10.1985 12.5411 0.739599 0.5
364 3.31936 6.59079 1.21174 0.5
365 2.59081 7.25192 0.935319 0.5
366 6.50733 9.05687 7.82051 0.5
367 10.263 11.999 13.4778 0.5
368 5.67868 5.52825 9.58605 0.5
369 2.41696 3.58634 5.05237 0.5
370 0.0207917 10.1118 6.36438 0.5
371 9.17081 0.0153037 3.61417 0.5
372 13.4755 3.87769 3.6253 0.5
373 4.11014 3.2199 0.138974 0.5
374 0.613612 9.42006 0.26589 0.5
375 0.456097 9.99264 9.01443 0.5
376 1.4893 10.9313 3.97934 0.5
377 7.39481 4.8809 4.02818 0.5
378 6.07822 9.45485 13.4182 0.5
379 5.29228 4.77585 2.055 0.5
380 7.65399 4.16447 0.0497128 0.5
381 9.78342 3.96866 8.62512 0.5
382 9.7126 2.95974 8.37428 0.5
383 1.73425 4.77093 13.1137 0.5
384 5.67395 9.92475 12.4795 0.5
385 13.0736 11.121 1.74877 0.5
386 13.0601 3.86382 4.50582 0.5
387 2.47576 6.82682 11.4869 0.5
388 1.13274 2.27168 9.73574 0.5
389 3.83054 9.62782 11.6163 0.5
390 4.9532 4.73845 9.82562 0.5
391 8.17987 0.97742 1.79995 0.5
392 12.8376 4.19984 2.96733 0.5
393 3.42198 4.75218 8.29421 0.5
394 9.17296 9.581 7.76245 0.5
395 1.57555 0.704224 8.68473 0.5
396 0.453978 2.02525 2.06571 0.5
397 8.00203 1.9432 1.64369 0.5
398 9.2873 11.9271 2.67984 0.5
399 0.28085 4.46424 4.25099 0.5
400 7.26794 9.05892 4.89537 0.5
401 10.2679 2.92976 12.6498 0.5
402 4.9106 7.47223 5.44245 0.5
403 5.81756 13.4202 8.56805 0.5
404 11.2014 11.3846 12.1412 0.5
405 12.4681 5.9745 0.361695 0.5
406 6.85487 2.85195 0.785494 0.5
407 1.6034 11.3405 3.0222 0.5
408 3.45514 3.65818 5.29974 0.5
409 3.68679 4.65976 10.9387 0.5
410 10.9266 2.60244 3.45539 0.5
411 5.31015 5.69604 2.44955 0.5
412 5.31115 13.3467 0.668096 0.5
413 2.44561 6.00616 7.97531 0.5
414 3.46507 8.64607 11.4446 0.5
415 8.51258 9.99688 12.0575 0.5
416 9.27891 11.2685 5.26888 0.5
417 0.867857 0.0505815 8.85082 0.5
418 9.73106 0.961184 10.5638 0.5
419 2.63269 12.909 10.5245 0.5
420 3.50039 0.164368 6.70891 0.5
421 13.0186 5.68367 8.68266 0.5
422 7.43933 4.4408 5.21277 0.5
423 11.947 0.565931 3.07029 0.5
424 3.16965 3.00167 4.61063 0.5
425 8.96069 7.66376 11.2835 0.5
426 0.651016 13.0367 8.1926 0.5
427 7.66879 2.84726 1.33733 0.5
428 1.19966 8.47041 9.40427 0.5
429 11.1702 5.91906 8.46347 0.5
430 9.08995 13.1943 11.8798 0.5
431 2.48804 5.01861 8.24052 0.5
432 13.1336 2.41172 1.71404 0.5
433 7.79121 11.0705 13.4729 0.5
434 0.290713 2.85142 13.0024 0.5
435 11.1877 9.61761 1.01953 0.5
436 6.65854 5.32953 9.93248 0.5
437 4.26458 9.24553 6.21854 0.5
438 5.85815 2.90568 7.40082 0.5
439 11.2421 10.4861 10.3069 0.5
440 9.59585 11.203 6.15041 0.5
441 5.33313 0.0192806 6.55518 0.5
442 1.36833 7.30277 6.63095 0.5
443 0.978913 12.4178 1.46382 0.5
444 9.57098 9.0121 13.3476 0.5
445 5.17076 8.20852 3.67073 0.5
446 3.0353 6.33179 4.76922 0.5
447 2.19371 9.22844 6.561 0.5
448 5.39953 9.77256 0.555732 0.5
449 2.91581 12.3928 11.3258 0.5
450 2.0845 2.74074 1.6203 0.5
451 7.12072 3.73641 0.982071 0.5
452 2.94934 8.11312 0.611434 0.5
453 4.96702 8.91436 2.24757 0.5
454 3.26722 0.821898 3.04513 0.5
455 1.49589 2.69539 11.2666 0.5
456 8.63464 0.140601 8.43854 0.5
457 12.3308 11.1977 8.69651 0.5
458 4.06228 0.164456 10.2102 0.5
459 11.6071 2.93824 6.45254 0.5
460 13.0067 6.16318 1.20209 0.5
461 11.5472 8.3351 11.7312 0.5
462 9.57973 4.58902 7.95437 0.5
463 5.07217 2.96144 6.6871 0.5
464 0.363216 8.05378 9.47861 0.5
465 5.06625 10.4144 11.6976 0.5
466 2.62112 13.2784 6.84685 0.5
467 1.96284 7.90128 0.514668 0.5
468 1.13658 7.48101 9.22173 0.5
469 2.15926 3.22473 10.6962 0.5
470 1.94639 6.18457 10.8929 0.5
471 3.76989 1.10558 10.5043 0.5
472 11.0354 6.29655 4.06424 0.5
473 11.4741 8.65365 7.30239 0.5
474 3.35982 7.31912 8.19455 0.5
475 4.85055 4.02335 6.49843 0.5
476 6.44135 0.942592 11.7801 0.5
477 5.8344 8.2776 9.88814 0.5
478 3.90611 12.4848 0.60291 0.5
479 9.31089 7.37083 13.3125 0.5
480 4.14746 10.3072 8.76745 0.5
481 1.79619 4.22113 0.473588 0.5
482 10.768 13.4365 0.759606 0.5
483 9.0679 10.9051 2.29462 0.5
484 10.5044 7.02219 4.46312 0.5
485 5.30441 4.20035 2.88269 0.5
486 3.72464 11.1893 8.98441 0.5
487 4.63345 2.77909 8.59552 0.5
488 5.94946 5.24724 6.37101 0.5
489 3.89142 1.20013 2.33854 0.5
490 0.463156 12.6939 9.12919 0.5
491 2.37535 7.64671 12.0992 0.5
492 0.818735 5.94688 12.0716 0.5
493 11.8179 9.19463 11.4391 0.5
494 6.91294 4.62556 0.341307 0.5
495 6.74449 7.69229 0.690505 0.5
496 6.7291 13.4088 13.2793 0.5
497 5.61427 4.41775 5.94634 0.5
498 3.09141 11.7321 5.40062 0.5
499 6.43813 1.93637 11.4926 0.5
500 10.251 9.54718 6.06126 0.5
501 5.55868 0.159196 4.62949 0.5
502 9.43354 10.3601 9.25021 0.5
503 7.14477 5.98941 12.5461 0.5
504 2.48936 1.46057 13.5506 0.5
505 3.89956 3.84988 12.8393 0.5
506 3.63139 11.1414 1.63675 0.5
507 8.65914 3.61408 4.15881 0.5
508 13.5236 1.01888 4.70886 0.5
509 5.35149 5.40874 5.5557 0.5
510 7.56282 9.96554 11.6125 0.5
511 5.46268 13.5447 7.58031 0.5
512 10.1158 11.2804 2.30069 0.5
513 4.33013 4.01294 3.15403 0.5
514 6.01291 8.33883 1.06083 0.5
515 2.16168 9.79389 2.92592 0.5
516 5.61172 8.77823 2.97378 0.5
517 0.788733 4.15224 5.12049 0.5
518 3.6886 6.69308 8.90192 0.5
519 5.09875 7.91255 10.4255 0.5
520 2.37135 0.469746 0.191013 0.5
521 11.4266 5.63984 4.72632 0.5
522 3.15164 9.17419 12.2487 0.5
523 12.5348 7.87007 3.24499 0.5
524 13.3949 0.0966079 5.23262 0.5
525 11.5345 9.2978 0.14644 0.5
526 8.51579 12.0593 8.27955 0.5
527 7.53294 10.5381 1.57886 0.5
528 1.48428 0.19563 13.3093 0.5
529 0.00309347 12.606 1.32777 0.5
530 11.7176 3.22852 9.49973 0.5
531 11.7321 8.4988 10.7358 0.5
532 6.37433 9.0433 4.44593 0.5
533 6.03234 7.93269 10.8091 0.5
534 2.09624 12.982 11.4736 0.5
535 8.25227 12.7391 13.0331 0.5
536 1.15746 11.8685 3.71733 0.5
537 2.77383 11.0094 9.24652 0.5
538 8.20414 9.78425 1.55085 0.5
539 1.54718 7.23864 4.08678 0.5
540 0.589111 2.86767 8.07615 0.5
541 3.99534 11.9388 2.22758 0.5
542 7.76358 13.5391 13.2637 0.5
543 13.144 6.0351 5.92139 0.5
544 8.74672 2.73405 8.09326 0.5
545 1.28684 7.37466 3.15373 0.5
546 1.16804 0.971116 12.7321 0.5
547 10.6162 5.10953 5.0782 0.5
548 11.9587 -0.00286514 7.25592 0.5
549 11.9831 10.1819 8.63328 0.5
550 12.2187 13.0839 3.18437 0.5
551 7.42014 1.21467 1.28659 0.5
552 4.29253 6.94067 1.1375 0.5
553 10.4418 6.43261 7.91672 0.5
554 3.52007 12.7216 6.68002 0.5
555 0.451782 3.4861 4.3349 0.5
556 7.28365 12.9473 12.7116 0.5
557 7.0817 10.6906 0.637897 0.5
558 4.40635 1.04043 9.74303 0.5
559 3.1264 10.3245 8.69078 0.5
560 6.52206 2.87492 11.0061 0.5
561 8.76499 8.32422 11.9675 0.5
562 12.7025 2.76386 12.8849 0.5
563 8.39293 6.78763 7.16782 0.5
564 6.50398 5.27645 13.106 0.5
565 8.32015 4.66878 5.54117 0.5
566 6.82452 1.24578 10.8352 0.5
567 12.4771 3.73311 3.81279 0.5
568 7.32264 1.51477 11.643 0.5
569 11.2354 6.9958 10.8823 0.5
570 12.8449 7.92451 2.1673 0.5
571 2.30693 1.10516 2.92393 0.5
572 5.2722 2.33266 12.6753 0.5
573 0.711504 13.2841 5.4486 0.5
574 9.3322 8.17511 3.56401 0.5
575 8.4876 0.0777048 2.16353 0.5
576 3.81581 10.7441 7.94785 0.5
577 4.01945 9.0165 2.76664 0.5
578 2.11944 12.0766 1.17816 0.5
579 0.383107 9.51229 12.2395 0.5
580 2.11293 5.30293 7.33411 0.5
581 1.61216 13.3328 8.29688 0.5
582 2.07424 12.1759 10.8761 0.5
583 2.95841 11.1849 0.160884 0.5
584 10.4737 6.03791 4.85858 0.5
585 0.146181 4.68412 6.29157 0.5
586 0.295419 5.64019 9.17784 0.5
587 13.3556 2.9278 0.857076 0.5
588 13.3155 12.707 0.470042 0.5
589 -0.0055838 9.14724 8.52971 0.5
590 3.87174 11.8384 8.21935 0.5
591 4.5716 4.10519 12.1817 0.5
592 10.5426 11.2403 10.5044 0.5
593 6.62591 9.80205 7.06312 0.5
594 13.0389 10.9085 6.57704 0.5
595 12.7322 10.002 6.93431 0.5
596 9.70382 9.34151 2.47474 0.5
597 2.20585 10.1358 9.18568 0.5
598 8.19579 11.3899 4.95226 0.5
599 11.3194 11.0103 8.63851 0.5
600 12.0496 5.78454 11.8431 0.5
601 2.31208 6.0447 3.40268 0.5
602 0.361174 5.98916 10.1348 0.5
603 3.03671 7.70451 11.3462 0.5
604 4.76746 0.717814 10.7196 0.5
605 7.22396 2.58558 11.7192 0.5
606 11.8346 8.56034 5.12904 0.5
607 8.75554 10.2743 8.42939 0.5
608 8.18543 13.3443 12.2172 0.5
609 1.34242 12.3189 0.554576 0.5
610 1.39143 9.55124 9.39687 0.5
611 0.93409 9.20706 8.59336 0.5
612 6.28505 12.703 3.00791 0.5
613 3.61233 5.54016 5.08768 0.5
614 3.60599 13.0231 10.7594 0.5
615 3.62784 10.3487 9.55014 0.5
616 0.0735578 5.79333 2.83328 0.5
617 8.1887 5.79994 2.89739 0.5
618 11.0448 7.8083 8.71217 0.5
619 12.9977 3.74065 11.5739 0.5
620 0.797211 10.5225 12.2373 0.5
621 3.12317 3.98526 4.44155 0.5
622 5.53659 8.51635 8.9446 0.5
623 12.2056 8.14524 4.23405 0.5
624 12.7491 5.3697 3.14427 0.5
625 1.75004 3.92808 10.1748 0.5
626 2.50662 4.27857 1.13318 0.5
627 10.1045 6.47809 0.603881 0.5
628 13.0015 4.60395 10.0539 0.5
629 5.14382 3.51029 3.61782 0.5
630 2.32582 3.42063 0.759154 0.5
631 9.32869 1.80099 13.516 0.5
632 6.6405 12.3558 13.1631 0.5
633 10.1375 1.42949 0.471959 0.5
634 10.3358 10.3541 9.90864 0.5
635 9.83825 2.38282 11.8654 0.5
636 9.01392 3.92834 11.7215 0.5
637 13.5031 10.3273 7.29736 0.5
638 5.42452 1.10102 5.19878 0.5
639 8.81229 7.05299 10.3665 0.5
640 1.90269 4.30012 7.71237 0.5
641 7.66048 7.32619 5.79426 0.5
642 11.5502 5.51127 0.477065 0.5
643 11.065 1.1259 7.981 0.5
644 6.82351 2.77135 10.0635 0.5
645 13.5192 10.8726 5.70539 0.5
646 9.5984 8.69425 12.3069 0.5
647 8.21475 5.02948 11.7962 0.5
648 8.05954 9.07289 11.8525 0.5
649 5.36108 8.18083 11.515 0.5
650 2.94808 0.824753 7.10362 0.5
651 1.01287 6.37309 6.29395 0.5
652 6.12311 3.88678 7.68866 0.5
653 0.014559 4.8091 3.31646 0.5
654 3.05371 10.1001 11.9156 0.5
655 11.6823 11.7528 9.25117 0.5
656 1.19799 11.4893 1.04811 0.5
657 11.0774 0.533591 7.07538 0.5
658 9.58992 10.263 5.6242 0.5
659 1.41753 9.23578 3.40216 0.5
660 0.644027 1.01666 8.82889 0.5
661 4.09496 7.5558 8.84444 0.5
662 3.33426 10.8391 5.83128 0.5
663 6.10971 12.1496 3.77529 0.5
664 5.09678 6.36325 5.36665 0.5
665 9.61084 10.9932 3.03893 0.5
666 5.66437 12.3153 9.7566 0.5
667 10.56 4.46236 8.17991 0.5
668 5.8846 2.09782 3.94213 0.5
669 8.22555 10.2292 2.39488 0.5
670 9.16797 12.8816 8.08977 0.5
671 6.9819 8.52565 1.03238 0.5
672 3.11942 2.0792 4.96467 0.5
673 5.38617 8.84319 0.326008 0.5
674 3.26724 8.09834 12.246 0.5
675 4.32336 5.00043 11.7508 0.5
676 2.66527 0.14651 2.76611 0.5
677 3.33929 8.89213 3.53564 0.5
678 12.9618 7.46896 9.34633 0.5
679 11.1114 12.4482 6.31039 0.5
680 4.56737 11.1023 2.15478 0.5
681 3.9537 1.21048 8.84374 0.5
682 1.84921 2.93996 9.75599 0.5
683 1.49699 5.53761 11.4359 0.5
684 11.3149 13.309 3.41209 0.5
685 11.7285 12.7977 4.10532 0.5
686 10.9901 7.98679 11.06 0.5
687 5.15408 9.57939 13.1369 0.5
688 0.999381 8.06507 6.10622 0.5
689 2.74379 3.54575 1.80951 0.5
690 4.84294 8.64514 6.77578 0.5
691 13.4457 10.2632 12.5315 0.5
692 4.48306 0.46294 0.743341 0.5
693 11.2285 6.28536 11.6241 0.5
694 5.72882 9.21876 9.70148 0.5
695 12.0411 8.40015 2.46182 0.5
696 10.0343 3.74276 7.66912 0.5
697 0.500123 9.8923 7.95785 0.5
698 7.13 10.5335 6.47672 0.5
699 3.57592 7.29511 0.568348 0.5
700 12.1199 8.74122 3.40695 0.5
701 9.95864 8.02306 13.0141 0.5
702 3.82731 2.26356 8.97802 0.5
703 1.77054 5.55352 12.3537 0.5
704 8.92141 3.40198 8.83814 0.5
705 10.4428 7.44346 8.09034 0.5
706 6.67352 10.7523 5.51239 0.5
707 4.09957 5.57293 10.9475 0.5
708 12.7733 2.13966 0.915118 0.5
709 9.38962 0.835606 0.344598 0.5
710 7.26963 5.84187 2.66805 0.5
711 0.410429 0.2882 13.1423 0.5
712 12.5283 2.80537 9.20784 0.5
713 8.29147 10.036 7.50528 0.5
714 12.7516 4.37879 6.68303 0.5
715 12.9213 8.68548 2.76904 0.5
716 1.92744 2.28735 10.4599 0.5
717 3.89307 6.36857 0.387634 0.5
718 12.0215 0.834712 7.6226 0.5
719 4.70959 11.3601 12.1832 0.5
720 12.3819 12.1181 2.79915 0.5
721 10.8578 6.73683 8.8885 0.5
722 4.79159 13.5303 12.7382 0.5
723 3.1731 12.0662 9.01412 0.5
724 9.39548 13.064 9.70491 0.5
725 2.38808 1.959 5.61023 0.5
726 8.20684 1.8479 8.47495 0.5
727 4.40128 2.28031 13.2405 0.5
728 12.8496 1.61559 5.16348 0.5
729 9.91565 4.96064 0.684128 0.5
730 8.1431 5.87223 7.04493 0.5
731 10.3476 0.5699 0.109955 0.5
732 1.31071 2.4227 7.63471 0.5
733 7.76821 11.2969 0.850773 0.5
734 10.5387 11.554 6.05471 0.5
735 3.17753 5.46539 7.57285 0.5
736 4.20434 4.05278 10.2883 0.5
737 5.67857 2.71 3.10505 0.5
738 2.05658 7.73449 11.1012 0.5
739 5.9522 12.6829 7.90954 0.5
740 12.3392 0.153926 8.18671 0.5
741 7.62589 3.85369 4.3658 0.5
742 5.24754 9.12357 1.29296 0.5
743 7.37003 8.22161 5.40377 0.5
744 3.7052 2.8372 12.7976 0.5
745 6.65073 6.61257 11.9621 0.5
746 4.93615 8.71027 9.74091 0.5
747 13.3668 0.351438 11.4648 0.5
748 7.3584 9.4452 7.6426 0.5
749 6.35737 9.33351 3.42811 0.5
750 1.5257 1.08292 0.105514 0.5
751 0.309419 8.53571 0.078533 0.5
752 1.68197 1.80583 13.0127 0.5
753 7.4954 2.07377 0.755207 0.5
754 1.26371 12.3437 11.4378 0.5
755 6.77804 3.62269 0.0366197 0.5
756 6.97385 7.66918 1.70604 0.5
757 12.1704 6.65971 11.3279 0.5
758 3.83638 12.0453 4.83551 0.5
759 12.6279 8.8814 1.87775 0.5
760 8.06788 4.24547 3.61241 0.5
761 3.71256 11.454 0.683103 0.5
762 13.3332 2.39338 0.0934151 0.5
763 11.1572 0.70443 3.74775 0.5
764 9.27713 9.23188 3.34868 0.5
765 12.5185 2.97122 0.345382 0.5
766 7.99337 2.93059 4.69975 0.5
767 4.10413 5.90573 1.28849 0.5
768 13.1459 13.3512 10.5705 0.5
769 10.6002 2.67611 6.03187 0.5
770 11.2992 7.84922 6.63049 0.5
771 8.01956 8.17587 6.18961 0.5
772 0.968234 2.09494 10.675 0.5
773 9.08622 3.68613 7.90275 0.5
774 9.04568 0.485639 2.82537 0.5
775 10.0203 13.1537 11.4564 0.5
776 3.30782 9.19881 6.49133 0.5
777 10.8488 12.5249 3.83102 0.5
778 11.5521 12.3328 3.26582 0.5
779 8.32276 7.80629 5.25805 0.5
780 3.00378 11.3467 8.35041 0.5
781 0.907962 1.16929 4.60421 0.5
782 10.6236 3.25474 4.11019 0.5
783 0.894578 9.14223 13.012 0.5
784 2.28015 2.58288 4.83317 0.5
785 10.5686 10.0867 5.29301 0.5
786 8.22476 3.76468 5.06823 0.5
787 6.41708 11.6936 2.85847 0.5
788 11.9692 7.65615 11.0717 0.5
789 9.04306 3.70648 1.99604 0.5
790 8.01033 0.741793 2.75191 0.5
791 5.23082 7.43932 12.1785 0.5
792 4.7841 2.752 7.59061 0.5
793 7.14753 8.73165 3.85669 0.5
794 12.8347 1.02643 3.02743 0.5
795 7.87059 8.34837 4.52092 0.5
796 4.53292 11.0238 9.41226 0.5
797 3.64829 4.23677 11.9928 0.5
798 2.19674 3.41566 4.11574 0.5
799 0.666145 0.758881 5.42268 0.5
800 1.19751 8.61198 0.371733 0.5
801 7.52153 5.89155 3.61157 0.5
802 5.68265 11.0024 12.3467 0.5
803 11.3092 11.0053 11.1949 0.5
804 0.201193 6.33327 8.45233 0.5
805 9.32483 8.48431 2.68428 0.5
806 3.20079 7.51081 9.12037 0.5
807 2.92436 4.47497 7.47635 0.5
808 2.40893 9.08613 3.54324 0.5
809 8.79619 5.77482 11.7304 0.5
810 2.14163 11.9598 11.7333 0.5
811 10.5129 6.91398 3.43421 0.5
812 2.49622 8.52576 11.7138 0.5
813 8.1567 5.58265 12.5013 0.5
814 8.9053 0.440696 6.26441 0.5
815 11.6132 11.8985 8.28477 0.5
816 9.30272 7.17288 0.636929 0.5
817 11.8671 11.4577 3.29592 0.5
818 3.35888 10.4816 0.768047 0.5
819 6.44917 13.4672 7.76431 0.5
820 0.614563 12.0689 8.40937 0.5
821 10.5692 2.99252 5.10439 0.5
822 8.81354 1.2744 5.75054 0.5
823 9.97202 0.00113696 10.3326 0.5
824 1.75719 8.69664 5.89025 0.5
825 7.43711 0.439053 1.89522 0.5
826 6.68237 12.836 8.44999 0.5
827 11.0347 0.899715 0.732025 0.5
828 4.97472 3.33355 2.71737 0.5
829 4.48235 1.86493 8.36599 0.5
830 5.07806 11.8521 8.99774 0.5
831 11.3683 0.176257 8.02217 0.5
832 0.317438 5.00789 9.9493 0.5
833 1.50395 11.5148 11.083 0.5
834 9.52102 2.20317 12.753 0.5
835 0.991642 6.31294 11.051 0.5
836 8.58546 8.61425 10.9677 0.5
837 7.77462 3.23608 0.306172 0.5
838 12.6517 13.2645 11.4846 0.5
839 4.71753 4.92761 2.77875 0.5
840 7.358 12.7358 0.100978 0.5
841 6.10525 10.4279 6.41803 0.5
842 12.7052 3.93023 10.6784 0.5
843 12.2284 3.43698 12.2348 0.5
844 4.47186 2.42324 12.1337 0.5
845 9.96093 5.59918 5.69224 0.5
846 6.50426 12.5551 10.369 0.5
847 4.53208 7.5922 6.50485 0.5
848 5.35956 6.7897 12.9576 0.5
849 13.5676 11.7701 6.12109 0.5
850 10.7483 10.4869 12.037 0.5
851 6.56784 11.3348 6.36903 0.5
852 7.34375 10.452 7.41339 0.5
853 4.50662 8.37391 8.78907 0.5
854 10.0233 6.20518 3.97605 0.5
855 9.95579 10.2999 2.32824 0.5
856 2.61799 0.492364 3.68842 0.5
857 9.70988 5.48491 11.5563 0.5
858 7.71512 10.1587 8.27188 0.5
859 11.4786 5.03899 5.57871 0.5
860 10.6733 4.92692 6.06872 0.5
861 11.3887 13.4298 6.40237 0.5
862 11.4015 7.66541 10.1846 0.5
863 8.24842 8.75313 5.35378 0.5
864 7.85902 7.2963 7.93763 0.5
865 12.5546 4.28634 12.295 0.5
866 6.08107 12.2058 2.1209 0.5
867 13.1809 4.3231 13.0307 0.5
868 9.22775 9.40517 8.85287 0.5
869 4.60438 1.36618 0.356131 0.5
870 3.83673 8.37726 6.53577 0.5
871 12.3623 9.07259 4.42898 0.5
872 1.46099 6.37147 12.823 0.5
873 12.5407 0.924996 2.17021 0.5
874 7.22103 5.12259 12.2448 0.5
875 6.81679 12.168 4.5601 0.5
876 3.2565 5.69533 8.53097 0.5
877 10.559 8.09998 7.22833 0.5
878 2.9484 12.0767 0.461345 0.5
879 1.42351 3.43787 7.86929 0.5
880 12.0944 1.61533 2.7147 0.5
881 11.071 10.7833 12.8529 0.5
882 1.89347 9.9173 3.89329 0.5
883 10.9104 12.68 0.0503915 0.5
884 13.265 3.36575 13.5431 0.5
885 7.47921 10.2183 10.6803 0.5
886 13.3327 3.00673 7.47454 0.5
887 13.2637 13.5049 12.4303 0.5
888 4.4728 4.1969 2.19973 0.5
889 10.8792 5.04502 8.89997 0.5
890 11.7659 8.69242 6.21068 0.5
891 1.73519 6.59642 2.62598 0.5
892 9.63381 0.563943 9.62272 0.5
893 9.81267 4.95413 8.77277 0.5
894 7.78424 7.82881 1.06225 0.5
895 12.1133 9.21377 1.01152 0.5
896 7.06344 11.7153 0.243768 0.5
897 7.06918 12.3197 3.42871 0.5
898 5.47469 12.1678 2.9696 0.5
899 10.3594 5.40661 8.07432 0.5
900 11.8605 10.7781 9.54159 0.5
901 13.1414 5.5378 9.74426 0.5
902 11.3318 6.9071 8.05473 0.5
903 10.1941 8.61318 3.20367 0.5
904 7.33855 3.45291 5.36621 0.5
905 13.1044 7.0076 6.07029 0.5
906 12.8374 4.69912 3.89105 0.5
907 6.52726 3.67006 10.2263 0.5
908 8.29076 0.537414 5.55107 0.5
909 9.7869 3.18828 2.48766 0.5
910 7.69035 2.58885 8.14551 0.5
911 6.14726 7.23237 12.6442 0.5
912 9.05489 9.24563 11.6766 0.5
913 12.0253 6.79094 13.3652 0.5
914 4.20079 0.504015 13.3056 0.5
915 7.52561 2.33188 5.40891 0.5
916 10.8572 8.83012 6.53005 0.5
917 11.7412 0.0141016 11.6605 0.5
918 7.31588 6.67382 8.40674 0.5
919 13.0676 12.0613 1.97243 0.5
920 13.4824 10.899 10.8755 0.5
921 5.12402 6.84842 6.9726 0.5
922 12.2913 3.13469 11.1792 0.5
923 0.430669 2.07801 7.39353 0.5
924 11.5611 11.4477 10.3026 0.5
925 10.7674 3.46645 2.04824 0.5
926 5.64627 10.4216 13.3117 0.5
927 2.01628 7.79822 5.98112 0.5
928 0.356248 6.52758 5.67602 0.5
929 1.19406 3.0809 10.4095 0.5
930 10.1768 9.71567 9.1105 0.5
931 4.68107 9.67375 12.2108 0.5