ITEM: TIMESTEP
120000
ITEM: NUMBER OF ATOMS
1000
ITEM: BOX BOUNDS xy xz yz pp pp pp
0.0000000000000000e+00 1.3572088000000001e+01 0.0000000000000000e+00
0.0000000000000000e+00 1.3572088000000001e+01 0.0000000000000000e+00
0.0000000000000000e+00 1.3572088000000001e+01 0.0000000000000000e+00
ITEM: ATOMS id x y z radius
1 4.40792 3.86999 12.0466 0.5
2 4.46869 10.5034 3.75617 0.5
3 8.16701 10.2624 3.75576 0.5
4 10.2837 5.37061 2.19796 0.5
5 8.91032 7.24276 10.2594 0.5
6 4.52248 13.1953 5.87812 0.5
7 2.79516 8.63955 0.216836 0.5
8 12.8867 12.1706 2.16274 0.5
9 1.57358 8.2739 5.93423 0.5
10 3.08559 13.0269 10.5672 0.5
11 0.481299 9.49359 8.5785 0.5
12 11.0092 5.84076 1.65614 0.5
13 10.1257 11.1138 6.67106 0.5
14 11.2355 1.9227 4.38193 0.5
15 5.99208 2.20368 4.28623 0.5
16 7.80564 6.44768 8.65802 0.5
17 7.13393 12.159 10.7573 0.5
18 2.58332 8.71151 5.80552 0.5
19 9.42791 4.88445 2.60089 0.5
20 9.69188 11.7461 3.5945 0.5
21 1.72402 5.11191 1.31017 0.5
22 1.73978 7.01541 11.5041 0.5
23 2.10998 1.30114 9.73747 0.5
24 7.12898 7.53193 2.01829 0.5
25 0.964812 6.78927 2.33729 0.5
26 10.538 9.23384 6.09017 0.5
27 11.6264 6.41449 12.8991 0.5
28 5.30448 11.1319 11.1595 0.5
29 0.408407 6.36579 1.56853 0.5
30 7.83128 11.0247 2.15818 0.5
31 0.381364 13.5664 8.45504 0.5
32 10.3824 2.69776 13.3017 0.5
33 0.609415 5.76328 9.75788 0.5
34 3.24768 9.60141 5.9534 0.5
35 12.1243 6.72853 0.116654 0.5
36 9.91131 0.656349 6.18314 0.5
37 13.0476 0.263744 3.90869 0.5
38 4.05783 1.50243 1.69502 0.5
39 9.96572 4.50431 1.83263 0.5
40 6.38457 5.72634 7.00307 0.5
41 9.1755 11.298 6.41341 0.5
42 6.32291 5.89849 3.66097 0.5
43 5.57471 5.39518 9.72345 0.5
44 2.51646 10.0504 8.41218 0.5
45 6.99034 6.55219 2.09331 0.5
46 10.0759 11.4908 0.00220236 0.5
47 2.44479 9.60331 5.43618 0.5
48 8.23516 10.5368 1.35359 0.5
49 5.61969 12.433 9.60587 0.5
50 6.21096 1.31251 10.4363 0.5
51 13.5043 10.3644 7.05018 0.5
52 5.98138 10.7822 7.3346 0.5
53 9.69306 3.59949 1.68073 0.5
54 11.1556 10.9959 3.71891 0.5
55 0.685379 1.36241 6.55175 0.5
56 12.204 6.04616 3.76468 0.5
57 13.3634 11.8445 10.3598 0.5
58 4.73222 7.73258 9.91811 0.5
59 0.335981 10.7776 11.5627 0.5
60 7.94112 5.48649 8.78118 0.5
61 3.50506 12.4132 11.2164 0.5
62 0.0731865 8.68969 0.97162 0.5
63 12.0765 9.23671 1.90111 0.5
64 11.7866 1.92221 10.1778 0.5
65 12.9083 2.20381 5.32662 0.5
66 13.2614 1.11808 2.48561 0.5
67 8.91234 2.76244 6.96462 0.5
68 3.87137 1.34789 2.78926 0.5
69 12.105 2.02482 11.1547 0.5
70 11.7429 3.85419 11.5487 0.5
71 2.08947 6.89844 8.86103 0.5
72 7.8383 3.16499 9.87317 0.5
73 8.72704 6.89116 8.51154 0.5
74 5.5955 4.4482 10.0413 0.5
75 8.79551 0.340242 10.2875 0.5
76 12.5674 2.97226 1.29594 0.5
77 10.2829 2.27586 2.86184 0.5
78 8.41833 3.46823 5.05227 0.5
79 4.15997 12.4938 6.43875 0.5
80 5.17735 2.6512 8.22878 0.5
81 2.27734 3.14681 11.3543 0.5
82 0.708107 8.97926 0.231374 0.5
83 3.24212 0.951225 7.44392 0.5
84 12.6759 9.13077 9.35401 0.5
85 0.383749 3.47443 7.60927 0.5
86 3.1556 0.308423 0.0722451 0.5
87 4.94256 5.96867 6.21265 0.5
88 6.29246 6.31871 4.52327 0.5
89 11.3922 12.7306 7.16011 0.5
90 3.8491 5.34107 4.72811 0.5
91 11.796 6.99191 12.0826 0.5
92 0.121644 0.444583 3.01751 0.5
93 0.489364 1.02127 1.20225 0.5
94 4.77065 9.89517 11.9938 0.5
95 12.1559 1.60127 8.62777 0.5
96 11.6156 2.56708 3.80838 0.5
97 11.7445 3.29389 5.10722 0.5
98 11.1395 10.3196 0.365529 0.5
99 6.64808 7.97774 9.34491 0.5
100 0.662034 6.83366 5.35738 0.5
101 4.42199 11.8305 1.68035 0.5
102 8.68614 6.60466 11.0473 0.5
103 3.61129 5.0968 10.6833 0.5
104 7.05118 10.5334 6.01214 0.5
105 11.5019 13.0667 6.19392 0.5
106 6.92232 2.02184 10.1392 0.5
107 0.11873 4.39609 8.98894 0.5
108 -0.00209378 10.9095 5.44181 0.5
109 0.205701 11.0749 8.95049 0.5
110 8.64318 9.27238 8.52851 0.5
111 7.90521 0.591743 3.15085 0.5
112 5.2236 1.41113 4.32681 0.5
113 1.21132 0.767633 5.98025 0.5
114 6.87205 7.19045 2.88231 0.5
115 5.2558 6.23185 12.7123 0.5
116 0.590391 5.80195 2.39585 0.5
117 0.64147 0.0654484 5.57175 0.5
118 11.5341 8.78744 6.12618 0.5
119 11.1981 8.9132 2.10474 0.5
120 4.53755 8.95456 3.78935 0.5
121 12.1266 13.2057 11.4267 0.5
122 2.47872 3.5324 1.89786 0.5
123 11.5611 1.22127 10.9701 0.5
124 11.049 11.3093 12.3121 0.5
125 4.78668 11.4143 4.16811 0.5
126 11.0338 11.07 13.2873 0.5
127 7.677 10.1432 11.1473 0.5
128 5.34232 2.28836 7.26929 0.5
129 2.59316 7.37524 10.9271 0.5
130 0.641176 11.8868 8.58516 0.5
131 7.79281 2.02769 1.0576 0.5
132 5.05146 11.3245 2.1591 0.5
133 0.659611 11.3084 10.6099 0.5
134 10.2422 10.9323 3.96863 0.5
135 12.2183 2.53255 5.79591 0.5
136 7.70212 5.24203 4.4832 0.5
137 3.53655 13.1433 6.0764 0.5
138 7.62014 11.8 13.3346 0.5
139 5.74472 0.0125885 13.3653 0.5
140 6.09908 3.18853 2.75584 0.5
141 1.3334 3.68885 4.64782 0.5
142 9.65201 3.38147 13.4384 0.5
143 0.492122 0.472897 12.7869 0.5
144 9.20149 12.8603 7.88606 0.5
145 6.18253 7.18295 2.14819 0.5
146 10.2383 8.80959 8.83491 0.5
147 4.05747 6.56975 0.118202 0.5
148 13.012 0.0749099 11.4159 0.5
149 7.83058 6.05939 9.62074 0.5
150 12.0326 11.0843 3.49124 0.5
151 6.64584 12.5565 9.77456 0.5
152 3.60271 3.67553 11.339 0.5
153 11.6263 6.19631 8.52602 0.5
154 3.13065 2.8995 1.49473 0.5
155 1.71773 8.95483 10.6776 0.5
156 8.10669 12.1513 0.515374 0.5
157 2.74354 0.526333 4.12815 0.5
158 1.08739 9.04732 7.93632 0.5
159 4.38517 1.83561 9.7031 0.5
160 9.14283 0.612884 11.2208 0.5
161 13.0986 3.38856 11.4632 0.5
162 7.44787 2.20831 7.18541 0.5
163 10.6196 9.51255 0.313494 0.5
164 9.25521 3.37661 12.4931 0.5
165 7.46741 11.1025 10.8158 0.5
166 11.084 0.0918811 6.91392 0.5
167 11.6804 7.24322 8.45712 0.5
168 2.14108 3.33188 7.71284 0.5
169 10.5409 11.8951 12.7407 0.5
170 3.48111 6.62581 0.981191 0.5
171 10.394 5.15862 1.30286 0.5
172 10.7916 7.174 10.77 0.5
173 8.56895 10.6093 2.93007 0.5
174 4.12242 0.222606 13.011 0.5
175 3.37383 6.79398 4.0439 0.5
176 3.89824 5.37577 3.66713 0.5
177 9.03748 4.15776 4.98433 0.5
178 5.80896 3.13692 3.75519 0.5
179 13.4439 5.79526 3.13896 0.5
180 9.70303 2.48356 12.6408 0.5
181 10.6067 11.5017 9.29386 0.5
182 2.87125 11.8543 0.506634 0.5
183 8.74409 8.38187 6.44943 0.5
184 10.3527 4.21843 9.28019 0.5
185 8.96029 1.31074 10.3946 0.5
186 3.93958 8.66669 2.11092 0.5
187 4.86614 13.1443 13.3885 0.5
188 5.81316 6.32708 6.63267 0.5
189 0.214212 11.1155 6.44303 0.5
190 7.78233 13.4347 2.59765 0.5
191 9.76438 7.76754 3.66075 0.5
192 10.5712 0.900537 13.5751 0.5
193 12.4114 1.29217 10.4899 0.5
194 8.51381 13.4867 11.2454 0.5
195 12.243 9.82565 12.3067 0.5
196 8.56053 0.584257 3.94972 0.5
197 2.67735 7.00937 7.98737 0.5
198 7.26566 5.97887 12.0153 0.5
199 11.253 1.94332 8.44203 0.5
200 6.68164 7.09955 1.23896 0.5
201 0.719219 3.83353 8.41328 0.5
202 6.83372 0.37972 7.49401 0.5
203 1.64165 3.85667 1.39032 0.5
204 0.958353 8.10135 8.06304 0.5
205 12.0596 12.7436 4.38572 0.5
206 1.54053 0.441782 10.0907 0.5
207 5.7543 12.8174 8.15908 0.5
208 9.38177 5.06449 6.67375 0.5
209 5.26425 2.73262 3.07381 0.5
210 4.11947 6.76081 6.17164 0.5
211 3.72519 4.1694 10.4938 0.5
212 3.28322 5.81466 4.15323 0.5
213 2.99343 1.71546 5.60779 0.5
214 9.88773 3.35117 11.6292 0.5
215 7.70379 6.91861 1.39283 0.5
216 6.38242 8.48657 13.4579 0.5
217 4.25768 11.6114 5.06771 0.5
218 6.06162 8.34854 3.86442 0.5
219 8.07266 1.38354 3.65551 0.5
220 7.22439 0.997887 10.3067 0.5
221 2.91733 3.40005 6.73195 0.5
222 6.8797 12.0774 5.21241 0.5
223 3.68977 9.57443 2.40276 0.5
224 13.4938 9.40538 2.90572 0.5
225 7.8828 11.7343 11.3757 0.5
226 11.0685 6.68516 0.232533 0.5
227 12.6517 8.75423 10.8016 0.5
228 3.96807 11.6585 6.01567 0.5
229 5.34552 3.86271 6.68043 0.5
230 6.71729 8.9733 9.15998 0.5
231 8.75794 6.08373 9.05298 0.5
232 7.07909 5.3623 12.7877 0.5
233 1.84234 0.410064 9.17784 0.5
234 12.0171 2.44437 4.771 0.5
235 1.36616 11.4767 3.29635 0.5
236 10.0597 6.07077 1.34108 0.5
237 5.37952 8.32038 5.75622 0.5
238 1.1005 12.7011 5.43626 0.5
239 10.6859 7.65798 4.25398 0.5
240 2.10608 4.1027 11.8001 0.5
241 4.14476 5.8118 0.713663 0.5
242 3.31481 0.893648 2.11842 0.5
243 1.94472 9.97414 3.17831 0.5
244 3.24149 12.2128 6.10484 0.5
245 0.0555168 11.8218 11.2898 0.5
246 9.61251 9.53726 8.56751 0.5
247 3.78275 0.270123 10.3941 0.5
248 7.17233 2.67966 1.42671 0.5
249 10.5666 1.92608 0.364998 0.5
250 9.73501 1.35745 0.279517 0.5
251 4.98983 9.47877 11.0919 0.5
252 9.08756 8.55334 0.343393 0.5
253 1.06872 8.38425 0.921391 0.5
254 11.038 2.86792 3.01668 0.5
255 8.36864 9.59938 3.04213 0.5
256 2.09952 13.2574 3.97022 0.5
257 1.33393 3.8347 7.70369 0.5
258 0.364143 5.93229 6.73649 0.5
259 3.85497 4.86773 9.7236 0.5
260 7.07627 11.5707 9.91253 0.5
261 10.7973 3.31295 5.47467 0.5
262 7.21845 10.9994 5.08562 0.5
263 3.1668 4.66497 8.17165 0.5
264 10.6406 10.89 8.61962 0.5
265 1.59975 4.58603 4.38524 0.5
266 4.18918 13.424 6.81629 0.5
267 4.90719 7.88399 8.94139 0.5
268 6.80841 1.81315 0.952753 0.5
269 8.78081 0.184016 7.82549 0.5
270 7.08913 9.85119 8.68831 0.5
271 10.7864 -0.016787 5.92958 0.5
272 6.25068 9.29042 0.331662 0.5
273 7.08356 5.25068 3.71214 0.5
274 10.3077 3.31352 8.76283 0.5
275 2.37177 11.0359 0.864607 0.5
276 5.37676 0.426959 11.6318 0.5
277 7.99726 5.09849 13.1385 0.5
278 10.2962 10.4853 0.038276 0.5
279 9.65254 10.7047 5.80735 0.5
280 5.22136 11.6186 1.14946 0.5
281 6.7629 3.12421 10.1023 0.5
282 13.5433 11.7497 1.50228 0.5
283 4.77112 5.41651 2.20837 0.5
284 1.42159 11.1987 0.735925 0.5
285 2.71701 10.4432 6.15575 0.5
286 3.39159 0.90084 12.8893 0.5
287 8.49587 7.56823 6.95442 0.5
288 5.58227 0.531898 4.48386 0.5
289 2.10479 10.9132 2.91388 0.5
290 1.40783 13.3162 6.27374 0.5
291 6.09715 1.291 4.8457 0.5
292 4.68832 3.01074 12.5605 0.5
293 11.3183 5.70078 3.92811 0.5
294 1.76997 10.1462 6.06493 0.5
295 3.08238 1.35524 6.53141 0.5
296 0.474058 4.46423 7.62596 0.5
297 10.7911 12.1967 11.7882 0.5
298 10.7305 3.9052 11.7006 0.5
299 2.4146 0.596743 13.0299 0.5
300 9.05077 4.38255 1.79317 0.5
301 6.57225 6.55482 11.4999 0.5
302 2.90998 9.52086 3.08848 0.5
303 12.8092 8.89092 2.48582 0.5
304 0.637837 6.90966 6.42399 0.5
305 7.7145 12.6191 8.06031 0.5
306 10.8521 8.74628 1.07224 0.5
307 2.80068 7.18232 3.27717 0.5
308 0.284881 10.0227 12.2308 0.5
309 13.1803 0.17912 13.1705 0.5
310 8.10649 13.251 3.63524 0.5
311 0.0181377 5.01261 6.92348 0.5
312 7.9814 11.7218 10.4106 0.5
313 1.39413 11.5193 4.21395 0.5
314 6.30038 11.7846 9.31209 0.5
315 13.0757 5.73184 4.13316 0.5
316 8.79324 5.86313 7.02347 0.5
317 0.0232486 9.01253 3.98199 0.5
318 13.2778 4.64608 6.0856 0.5
319 10.6927 11.1725 0.741221 0.5
320 5.8266 2.97089 6.66281 0.5
321 2.20556 12.9863 3.01763 0.5
322 9.72545 13.0368 1.08299 0.5
323 4.30311 0.560158 2.111 0.5
324 9.98825 3.19552 3.26947 0.5
325 0.952389 5.44412 12.5414 0.5
326 10.6171 12.9545 0.635621 0.5
327 9.32463 2.36827 7.6487 0.5
328 12.5547 6.73995 12.6374 0.5
329 7.90367 3.00714 7.07787 0.5
330 8.53752 0.883929 4.97581 0.5
331 5.31139 3.79955 3.06302 0.5
332 11.8909 2.42135 9.15567 0.5
333 13.0409 1.19748 3.41793 0.5
334 4.51557 6.72767 0.965631 0.5
335 9.06892 13.3031 3.9576 0.5
336 4.32511 1.31442 8.74972 0.5
337 11.6876 0.923385 9.98061 0.5
338 7.45237 5.06048 9.51189 0.5
339 9.54893 3.87779 2.58086 0.5
340 12.6225 3.63631 13.0589 0.5
341 9.11434 0.278911 8.8312 0.5
342 5.20869 1.02975 5.2579 0.5
343 6.87404 4.51376 8.88577 0.5
344 5.03561 8.00494 6.73556 0.5
345 7.81067 8.12624 6.52009 0.5
346 0.692072 7.71983 5.90243 0.5
347 13.0449 11.5955 0.698792 0.5
348 0.957018 4.52182 0.980775 0.5
349 9.22078 7.53062 6.20734 0.5
350 8.00928 6.81795 10.3437 0.5
351 1.84351 9.82706 11.2513 0.5
352 9.04556 12.057 7.14745 0.5
353 8.12401 7.72839 1.82535 0.5
354 2.37927 3.17587 5.74144 0.5
355 1.76118 6.79226 3.14245 0.5
356 11.4792 13.5452 4.14113 0.5
357 5.75667 11.4938 3.64397 0.5
358 4.55251 0.984769 10.3664 0.5
359 7.68919 9.06886 8.81935 0.5
360 13.2473 4.10944 7.03414 0.5
361 3.69839 1.67143 8.04545 0.5
362 1.05372 0.983218 9.53147 0.5
363 10.1569 12.0885 0.919885 0.5
364 3.26446 7.8949 13.3365 0.5
365 2.04886 8.25553 0.725741 0.5
366 6.94218 9.05755 8.154 0.5
367 10.9564 11.9245 0.141278 0.5
368 4.8311 4.75352 9.45241 0.5
369 1.99435 3.05137 4.7781 0.5
370 12.9162 10.6139 6.18742 0.5
371 8.66229 13.5069 2.98974 0.5
372 13.4243 3.84562 3.58034 0.5
373 5.71024 2.7748 12.4789 0.5
374 0.0681387 9.41219 12.9686 0.5
375 0.082099 9.43993 7.70628 0.5
376 2.30206 11.4456 3.68759 0.5
377 7.18024 6.15525 4.18112 0.5
378 6.04634 9.28588 12.8474 0.5
379 4.94048 6.13045 0.231669 0.5
380 7.31546 4.69468 0.0876539 0.5
381 10.3745 2.49199 8.17194 0.5
382 8.65776 2.41009 8.43213 0.5
383 0.779589 5.41592 1.46137 0.5
384 5.66374 10.1901 12.5261 0.5
385 12.5844 11.4653 1.5127 0.5
386 0.594486 4.2723 4.12878 0.5
387 1.2807 6.25871 11.0864 0.5
388 1.40591 1.42183 10.3893 0.5
389 5.38056 9.35427 10.1658 0.5
390 4.55487 4.69474 10.457 0.5
391 7.51452 0.770698 2.19393 0.5
392 13.3705 4.81548 3.66349 0.5
393 3.1403 5.21139 9.00078 0.5
394 9.29654 8.87876 9.20672 0.5
395 1.10999 0.624678 8.55215 0.5
396 0.2579 0.906177 3.8911 0.5
397 7.45713 1.09712 1.20265 0.5
398 8.16808 11.1385 4.45644 0.5
399 1.43334 3.81347 3.5889 0.5
400 6.49445 9.02793 4.40976 0.5
401 9.54715 2.30809 0.158177 0.5
402 4.71168 7.44828 5.83351 0.5
403 7.25589 13.0806 7.18497 0.5
404 10.7193 10.5502 11.8676 0.5
405 12.4549 5.9023 0.56349 0.5
406 7.47577 2.23584 13.0149 0.5
407 2.18911 11.853 2.90559 0.5
408 2.13359 4.00636 5.12424 0.5
409 2.97351 4.47347 11.2198 0.5
410 11.0366 1.9112 3.32012 0.5
411 3.20905 5.98192 0.197178 0.5
412 5.16334 0.286706 12.6656 0.5
413 3.11506 7.13234 8.83731 0.5
414 2.56515 9.33274 10.9522 0.5
415 8.39689 9.41954 11.0204 0.5
416 9.44107 10.3816 6.71873 0.5
417 1.36006 13.223 8.53801 0.5
418 9.77422 0.7579 10.4056 0.5
419 2.68793 12.9976 11.4903 0.5
420 3.48992 13.5228 7.64025 0.5
421 0.126609 5.5749 10.6022 0.5
422 8.62069 5.14237 5.13808 0.5
423 12.3072 13.2458 3.61881 0.5
424 2.93993 3.54381 4.90689 0.5
425 8.17886 7.4551 11.0231 0.5
426 0.67866 12.8738 7.04144 0.5
427 7.19727 2.53947 0.410109 0.5
428 0.0106847 8.84743 9.32114 0.5
429 10.2655 5.256 9.59861 0.5
430 8.11239 0.778781 10.7842 0.5
431 2.44163 5.4184 8.2451 0.5
432 0.390914 1.45891 3.0501 0.5
433 7.99521 11.1213 0.476306 0.5
434 13.5247 4.30654 1.05867 0.5
435 11.3456 9.60693 1.20069 0.5
436 6.49455 4.87872 9.77698 0.5
437 4.30661 9.33676 6.28931 0.5
438 6.01949 2.87118 7.66162 0.5
439 10.9205 11.2061 10.2062 0.5
440 10.4604 10.1384 6.36038 0.5
441 5.69524 13.1503 3.75963 0.5
442 1.50683 7.16027 5.82759 0.5
443 0.952948 12.008 1.26409 0.5
444 9.65854 8.3428 13.0104 0.5
445 4.59488 9.00924 2.79793 0.5
446 3.83163 6.34771 4.84046 0.5
447 1.62406 9.20362 5.9865 0.5
448 5.4627 9.9236 13.3938 0.5
449 3.71449 13.3693 11.3154 0.5
450 3.47159 3.22537 0.607602 0.5
451 7.20714 3.21673 13.2025 0.5
452 1.36274 8.21758 0.0695288 0.5
453 4.63302 9.7302 4.29773 0.5
454 2.70739 0.199526 2.4741 0.5
455 1.58689 3.09186 10.4713 0.5
456 8.46888 13.0633 8.40452 0.5
457 11.985 12.4946 9.00318 0.5
458 4.01052 0.884187 9.48833 0.5
459 13.2613 2.83494 6.01208 0.5
460 13.0876 6.46683 13.4741 0.5
461 11.6466 7.38061 11.1037 0.5
462 11.2647 2.55596 7.59056 0.5
463 6.83412 3.10489 6.9992 0.5
464 11.7257 8.44315 11.088 0.5
465 5.5592 10.1716 11.471 0.5
466 3.3361 0.328831 6.75335 0.5
467 0.381659 7.971 0.296803 0.5
468 13.0915 8.42836 9.99434 0.5
469 1.36442 2.80939 11.3841 0.5
470 2.36065 5.03363 11.8603 0.5
471 4.64586 0.0844973 10.9951 0.5
472 10.8977 6.66428 4.26336 0.5
473 12.2645 6.7498 7.8552 0.5
474 1.83095 8.43979 8.31334 0.5
475 6.36404 3.78916 6.37714 0.5
476 8.2717 1.13462 9.86158 0.5
477 5.69962 7.78658 9.56389 0.5
478 2.84028 11.8125 13.0792 0.5
479 9.4515 7.65879 0.193336 0.5
480 2.44305 11.0394 8.44241 0.5
481 1.87061 4.29533 0.467133 0.5
482 10.3355 0.147683 1.3607 0.5
483 7.85116 11.0728 3.49742 0.5
484 9.96722 6.93406 4.24456 0.5
485 4.11876 6.09588 1.69054 0.5
486 3.06697 10.5398 9.03791 0.5
487 5.12287 1.76846 8.93131 0.5
488 6.11539 4.71511 6.74366 0.5
489 3.68909 0.284421 2.81109 0.5
490 0.725905 12.6897 8.03077 0.5
491 2.40691 7.95599 11.5994 0.5
492 1.44317 5.35182 11.7053 0.5
493 11.2781 7.91442 10.3258 0.5
494 8.06263 5.05171 0.678023 0.5
495 6.37941 7.84096 0.66128 0.5
496 6.51361 13.0017 13.0954 0.5
497 5.37461 5.52959 7.05702 0.5
498 3.92341 12.4706 5.387 0.5
499 7.4327 2.64599 10.7426 0.5
500 11.8576 9.08339 5.15937 0.5
501 5.10581 2.34901 4.04375 0.5
502 9.76206 10.4401 8.89098 0.5
503 8.73693 5.69206 12.556 0.5
504 2.82669 1.31051 13.5299 0.5
505 5.10891 3.21216 11.7229 0.5
506 3.40374 10.8953 0.753976 0.5
507 7.62558 4.36037 3.84158 0.5
508 0.28847 2.3 6.69216 0.5
509 5.78072 5.43359 6.14465 0.5
510 7.6751 10.9279 11.8497 0.5
511 5.9354 0.436776 5.4223 0.5
512 7.33778 11.6213 4.27133 0.5
513 5.61583 4.02439 1.42915 0.5
514 5.87615 8.60151 0.818952 0.5
515 1.11055 10.636 3.01925 0.5
516 4.01845 9.6718 3.3221 0.5
517 1.71449 2.94446 3.86023 0.5
518 1.75027 7.44068 8.03869 0.5
519 5.10259 7.00678 9.26276 0.5
520 2.11109 0.694311 0.446481 0.5
521 11.3883 5.26788 4.85308 0.5
522 1.36378 10.7611 11.1908 0.5
523 13.0375 8.20548 4.03514 0.5
524 0.290583 0.958388 5.83321 0.5
525 10.4511 10.1001 1.0786 0.5
526 8.48393 12.065 7.99724 0.5
527 7.33774 10.0584 1.75928 0.5
528 1.21944 1.13507 0.565204 0.5
529 12.8455 0.797652 0.265253 0.5
530 12.2797 3.10687 11.188 0.5
531 10.7783 8.0415 11.1667 0.5
532 5.4489 9.10713 4.21195 0.5
533 4.7059 6.56322 11.2986 0.5
534 1.09546 11.7098 11.386 0.5
535 8.13038 12.6479 13.2567 0.5
536 2.69089 12.4355 3.63691 0.5
537 3.72783 11.1201 9.39278 0.5
538 8.27418 10.0293 2.16397 0.5
539 2.0498 7.82562 2.97256 0.5
540 1.74262 3.57731 8.57099 0.5
541 3.57669 11.8598 1.13915 0.5
542 7.47084 13.4188 13.0762 0.5
543 13.0013 5.6698 6.43349 0.5
544 8.40477 2.17009 7.48781 0.5
545 2.49351 6.35428 3.73509 0.5
546 1.36326 0.496718 13.358 0.5
547 10.337 4.97668 5.19925 0.5
548 12.1003 13.431 7.02755 0.5
549 13.4714 10.282 8.27914 0.5
550 12.2457 12.0896 3.46823 0.5
551 6.59827 1.12711 1.69825 0.5
552 3.12958 6.9185 0.0115244 0.5
553 11.1135 4.87606 9.36075 0.5
554 3.30573 12.8584 6.98302 0.5
555 0.732981 3.35287 3.94651 0.5
556 7.29935 12.5127 12.7441 0.5
557 7.36074 10.9577 1.23185 0.5
558 5.39758 1.54148 10.0159 0.5
559 3.30378 11.4414 8.60354 0.5
560 7.45147 3.7113 10.6067 0.5
561 8.15231 8.74947 12.4658 0.5
562 13.3149 3.3435 0.698634 0.5
563 10.0088 5.5001 6.04926 0.5
564 8.4243 5.84412 13.5066 0.5
565 9.4225 4.78448 5.72077 0.5
566 6.96279 1.71726 11.0988 0.5
567 12.1408 5.14401 4.17924 0.5
568 7.91293 1.72106 10.5572 0.5
569 11.0086 6.19725 12.1618 0.5
570 12.4686 8.12515 3.1118 0.5
571 2.97009 0.950632 3.18544 0.5
572 4.34131 2.87573 0.035685 0.5
573 0.655285 0.291461 6.58893 0.5
574 8.91325 7.43614 3.06579 0.5
575 8.5111 0.538574 2.19971 0.5
576 3.27189 10.5617 8.03246 0.5
577 2.89379 8.87986 2.38154 0.5
578 1.92069 11.9544 1.01401 0.5
579 13.0788 9.46759 12.1565 0.5
580 2.7021 6.10919 7.53327 0.5
581 1.01831 0.108758 7.63069 0.5
582 2.54622 12.1918 10.9327 0.5
583 1.82433 10.542 0.126067 0.5
584 10.5428 5.69246 4.49452 0.5
585 12.5189 4.7613 6.74555 0.5
586 13.208 5.70959 9.86307 0.5
587 0.331999 1.83024 2.0137 0.5
588 13.3678 1.16125 13.0294 0.5
589 13.0947 9.36832 8.52539 0.5
590 3.5017 9.77277 8.5431 0.5
591 4.1607 2.9042 11.6135 0.5
592 10.2381 11.8394 10.9593 0.5
593 5.55927 9.94766 6.94493 0.5
594 12.9602 11.593 6.05637 0.5
595 12.0588 11.1062 6.36483 0.5
596 9.08786 10.0673 3.65248 0.5
597 4.05212 11.1661 7.87427 0.5
598 7.94947 11.7106 5.21112 0.5
599 11.3157 11.6656 8.69207 0.5
600 12.4222 5.84409 13.0522 0.5
601 4.15187 5.84201 2.78902 0.5
602 13.516 5.32446 8.98316 0.5
603 2.59799 8.40043 10.7515 0.5
604 5.47695 0.701865 10.7179 0.5
605 8.3958 3.23491 10.7033 0.5
606 12.4973 8.58197 5.91153 0.5
607 9.0356 9.87322 9.2868 0.5
608 7.9206 11.8089 12.3986 0.5
609 1.17295 12.0179 0.22287 0.5
610 0.987088 8.62485 8.84951 0.5
611 0.16598 8.61497 8.27165 0.5
612 5.41132 12.8674 2.78605 0.5
613 3.09139 5.64022 5.2023 0.5
614 4.09878 12.9141 10.4892 0.5
615 2.7145 11.4906 9.3066 0.5
616 13.5321 6.6323 2.5009 0.5
617 6.26781 6.4751 2.81415 0.5
618 10.7184 6.64073 8.29089 0.5
619 11.3681 3.23293 2.14956 0.5
620 13.266 11.002 10.8716 0.5
621 2.26295 3.79818 4.12825 0.5
622 5.80712 8.33131 8.87268 0.5
623 12.6127 9.08749 4.46035 0.5
624 0.739686 6.41614 3.17559 0.5
625 2.09709 2.34138 11.9114 0.5
626 2.50041 4.39599 1.33649 0.5
627 10.7493 5.88164 0.680627 0.5
628 12.5312 4.09958 10.9861 0.5
629 6.40145 3.46477 1.83075 0.5
630 2.99125 4.15295 0.405682 0.5
631 9.78581 0.755629 13.0276 0.5
632 6.69177 12.013 13.4838 0.5
633 10.4899 1.07058 0.971524 0.5
634 10.6283 10.4079 9.49458 0.5
635 10.198 1.72004 13.0473 0.5
636 10.2127 3.41496 12.6097 0.5
637 13.0164 11.2794 6.90996 0.5
638 5.32492 1.98853 5.16147 0.5
639 8.72855 6.33766 10.0049 0.5
640 2.87941 5.10845 7.4081 0.5
641 9.00506 8.1974 5.50687 0.5
642 11.6604 6.22744 0.924592 0.5
643 11.8659 1.65192 7.69288 0.5
644 7.21184 3.98563 9.66666 0.5
645 0.414023 11.926 5.81333 0.5
646 9.07912 8.30518 12.1856 0.5
647 7.56742 6.55796 11.21 0.5
648 8.36235 10.1389 11.7515 0.5
649 5.67161 7.11046 11.3072 0.5
650 3.59473 0.743692 8.40831 0.5
651 0.453234 5.32813 5.99602 0.5
652 5.15971 3.32398 7.47176 0.5
653 1.4086 6.01312 1.8283 0.5
654 4.43083 9.92916 10.3693 0.5
655 10.9504 12.5403 9.17731 0.5
656 0.436821 11.3259 0.626817 0.5
657 11.8418 0.805193 7.29262 0.5
658 9.63254 9.60798 5.99562 0.5
659 0.676546 10.9488 3.89824 0.5
660 0.98054 0.0173397 9.32476 0.5
661 1.36827 7.70991 8.84815 0.5
662 3.30755 11.6135 5.34525 0.5
663 5.15034 12.3132 3.59907 0.5
664 6.5964 6.79819 7.20932 0.5
665 9.62066 10.7945 3.13019 0.5
666 6.19045 12.0143 10.3222 0.5
667 9.95521 4.09399 8.30713 0.5
668 5.36594 3.35339 2.18349 0.5
669 7.6273 10.3593 2.85409 0.5
670 8.26594 12.9878 7.41843 0.5
671 6.95603 8.59263 0.725925 0.5
672 3.32674 3.35807 5.82024 0.5
673 5.39811 8.81946 13.5323 0.5
674 2.93221 8.74219 11.6074 0.5
675 1.65573 3.16637 12.289 0.5
676 2.14377 0.381574 3.31048 0.5
677 2.72518 8.47531 3.3088 0.5
678 12.3377 7.89558 10.5337 0.5
679 11.5632 13.5603 5.26697 0.5
680 4.38433 11.2799 0.833261 0.5
681 3.52448 1.70086 9.14277 0.5
682 1.27965 1.77588 11.3495 0.5
683 2.09414 6.12018 11.716 0.5
684 11.3916 12.6165 3.678 0.5
685 11.6347 11.7778 4.16865 0.5
686 10.7714 7.22169 11.8063 0.5
687 5.03806 9.37712 12.7362 0.5
688 0.851376 8.67005 5.44209 0.5
689 3.36752 3.8016 1.36072 0.5
690 4.29383 8.59336 6.97721 0.5
691 13.0453 10.3704 11.7783 0.5
692 4.86362 0.556136 0.0877277 0.5
693 11.4544 5.42135 12.6858 0.5
694 6.14774 8.62689 9.85553 0.5
695 11.8378 8.97166 2.95858 0.5
696 11.2612 2.97943 8.55764 0.5
697 12.763 9.91166 7.75037 0.5
698 6.66044 10.136 6.8966 0.5
699 2.32339 7.76303 13.4522 0.5
700 12.7419 9.05484 3.46432 0.5
701 8.65327 8.0707 13.107 0.5
702 4.28306 2.25299 8.70048 0.5
703 1.62175 4.67041 12.462 0.5
704 8.5892 3.15026 7.79938 0.5
705 10.9107 7.61207 7.9222 0.5
706 6.431 11.1643 5.57103 0.5
707 3.978 4.81304 8.74283 0.5
708 0.593478 0.929682 2.18292 0.5
709 10.0151 0.227505 0.487032 0.5
710 6.56849 6.87425 3.76763 0.5
711 0.31149 0.684407 0.156933 0.5
712 12.5033 1.52682 9.57553 0.5
713 8.91979 10.2907 8.30922 0.5
714 13.2953 3.92111 8.16849 0.5
715 13.523 8.47948 3.15945 0.5
716 1.07786 2.28273 10.5402 0.5
717 2.91474 7.69649 0.729444 0.5
718 11.3081 0.95112 8.26697 0.5
719 4.6051 10.4758 11.1956 0.5
720 12.2303 11.4823 2.54717 0.5
721 10.3695 4.96514 8.61902 0.5
722 5.51748 12.86 12.6568 0.5
723 3.78765 9.98721 9.48521 0.5
724 9.21346 0.97966 9.56216 0.5
725 3.01842 2.39858 6.29016 0.5
726 8.17674 2.25006 6.44305 0.5
727 5.25873 3.1309 13.3978 0.5
728 12.6774 3.12112 5.1899 0.5
729 9.48206 5.35101 1.6095 0.5
730 8.98011 5.72185 6.05939 0.5
731 11.0184 0.304236 0.669788 0.5
732 2.79111 3.72734 8.42203 0.5
733 8.02276 11.564 1.30042 0.5
734 10.6981 10.9739 5.82869 0.5
735 2.83033 6.22998 8.56479 0.5
736 4.03755 4.571 11.3743 0.5
737 5.92113 4.17057 2.30076 0.5
738 1.75892 7.93461 10.9145 0.5
739 6.91901 0.53127 8.56598 0.5
740 11.5209 1.50874 9.27363 0.5
741 7.03109 4.47659 4.58799 0.5
742 5.35292 9.48283 0.778799 0.5
743 8.14964 7.92714 5.03709 0.5
744 5.33136 3.72622 12.6 0.5
745 8.20545 6.11234 11.7724 0.5
746 5.133 8.56969 9.57483 0.5
747 0.0279463 13.2298 12.236 0.5
748 7.80461 9.5831 7.90279 0.5
749 5.14648 9.67162 3.4423 0.5
750 1.81466 1.38715 13.3588 0.5
751 13.185 8.56359 12.5772 0.5
752 2.46995 1.51456 12.5806 0.5
753 7.3612 1.50733 0.241318 0.5
754 2.8441 11.993 11.8551 0.5
755 6.8975 2.7278 12.3952 0.5
756 6.45383 8.10316 1.57842 0.5
757 12.0073 6.03088 12.0237 0.5
758 4.79234 12.1872 5.65473 0.5
759 12.0713 8.25608 2.20508 0.5
760 6.65027 5.41282 4.55537 0.5
761 2.77842 10.9145 13.4715 0.5
762 0.563238 3.65807 1.20655 0.5
763 12.329 0.0414289 4.63645 0.5
764 9.18619 8.29733 2.94309 0.5
765 0.0494002 2.68872 1.37102 0.5
766 8.44528 3.82916 4.21374 0.5
767 3.86407 7.46452 0.509051 0.5
768 12.9786 12.6707 11.7711 0.5
769 11.2487 2.38462 5.46353 0.5
770 12.0522 6.8298 6.88353 0.5
771 8.32435 7.53621 5.94778 0.5
772 1.74654 2.26519 9.85033 0.5
773 9.67644 3.25331 7.99209 0.5
774 8.81659 0.931752 3.03815 0.5
775 9.41846 13.2754 11.7958 0.5
776 2.49748 9.55211 6.44653 0.5
777 10.6639 11.8501 3.82103 0.5
778 11.4228 11.7506 3.18774 0.5
779 8.0104 8.56679 5.68751 0.5
780 4.04577 10.6555 8.69348 0.5
781 12.99 2.00176 6.26863 0.5
782 10.5414 2.51051 3.84551 0.5
783 13.0265 10.2059 12.8057 0.5
784 2.93029 2.59553 5.13562 0.5
785 11.2979 9.75993 5.81983 0.5
786 8.03529 4.40063 4.82831 0.5
787 5.59662 11.8601 2.83545 0.5
788 11.4499 6.54042 11.3509 0.5
789 8.7359 3.492 1.98511 0.5
790 7.978 1.40169 2.66995 0.5
791 6.02634 7.02304 12.197 0.5
792 6.43783 2.21242 7.08296 0.5
793 6.1253 9.312 3.5126 0.5
794 12.1585 0.62811 3.7683 0.5
795 7.43261 8.65926 4.88981 0.5
796 2.23873 10.4842 7.58402 0.5
797 4.54127 3.73201 11.0505 0.5
798 2.70026 2.7268 4.17452 0.5
799 0.236156 1.9603 5.79726 0.5
800 0.593187 8.5151 12.9565 0.5
801 7.17728 6.24322 3.20996 0.5
802 5.0294 10.8816 12.0925 0.5
803 10.8803 11.2787 11.2302 0.5
804 0.0185606 6.55706 10.2627 0.5
805 9.10936 7.78537 2.08397 0.5
806 2.50088 7.81866 8.59358 0.5
807 3.44013 5.58243 8.07117 0.5
808 2.03643 8.87486 2.8824 0.5
809 9.90795 4.13162 11.0646 0.5
810 1.84409 12.37 11.6322 0.5
811 10.483 7.20895 3.44287 0.5
812 1.97138 8.8574 11.6089 0.5
813 7.94369 5.29023 12.2354 0.5
814 9.57782 13.2466 4.78685 0.5
815 11.3829 12.5733 8.19691 0.5
816 9.50572 8.16606 1.17132 0.5
817 10.516 11.3884 2.97743 0.5
818 2.71653 10.0878 0.552399 0.5
819 6.2538 13.0393 7.25394 0.5
820 0.646847 12.7368 9.04035 0.5
821 11.1001 2.88799 4.59893 0.5
822 9.40193 0.647277 4.58592 0.5
823 9.44312 13.4282 10.7997 0.5
824 1.78546 8.81559 5.0918 0.5
825 8.26164 1.43113 1.78197 0.5
826 6.81575 13.1479 8.19194 0.5
827 11.2317 0.617115 1.5147 0.5
828 4.94812 4.3534 2.18462 0.5
829 4.70413 1.92011 7.96789 0.5
830 5.38487 12.0473 8.81985 0.5
831 11.5625 13.5366 7.79836 0.5
832 12.8347 4.7779 9.51345 0.5
833 2.12785 11.3625 11.5095 0.5
834 9.22065 1.6595 13.0296 0.5
835 1.85285 5.73572 12.5266 0.5
836 7.74228 9.37227 11.7485 0.5
837 6.24082 3.35524 12.9711 0.5
838 12.5656 13.3356 12.3655 0.5
839 4.996 5.78245 1.22017 0.5
840 7.29519 12.6861 0.133639 0.5
841 6.00315 10.4831 6.18411 0.5
842 12.6597 4.14598 12.0356 0.5
843 12.2765 3.3255 0.346362 0.5
844 4.51811 3.82836 13.1164 0.5
845 10.3421 4.62149 6.19693 0.5
846 6.2188 12.7539 8.96184 0.5
847 4.12407 7.73166 6.56849 0.5
848 5.06691 7.02348 12.1083 0.5
849 0.365973 12.8846 6.05759 0.5
850 10.1361 11.3554 11.8283 0.5
851 6.50965 11.1795 6.60403 0.5
852 6.53632 9.99137 7.82355 0.5
853 4.04934 7.36347 9.21497 0.5
854 10.4454 6.19864 3.57947 0.5
855 8.7698 11.0842 3.67536 0.5
856 2.99286 13.4671 3.45963 0.5
857 9.4015 3.27828 10.6943 0.5
858 8.04452 9.99651 8.79877 0.5
859 11.0192 4.33492 5.40082 0.5
860 10.0292 3.96516 5.38559 0.5
861 11.677 0.451512 6.19461 0.5
862 10.4781 6.36248 11.3353 0.5
863 7.36504 7.84356 5.63212 0.5
864 8.5519 6.76056 7.50603 0.5
865 11.7513 3.46512 1.19237 0.5
866 5.41386 12.217 1.91848 0.5
867 12.2536 3.58661 2.06685 0.5
868 9.97694 9.55166 9.47807 0.5
869 4.14664 13.5734 0.470188 0.5
870 3.55892 8.66503 6.18078 0.5
871 12.4754 8.19666 4.92631 0.5
872 1.11743 6.31447 12.0138 0.5
873 12.7036 0.333939 2.96755 0.5
874 7.83736 6.03888 12.751 0.5
875 7.25755 11.5231 5.92096 0.5
876 1.93388 6.35876 8.01457 0.5
877 11.9056 7.6721 7.56854 0.5
878 2.07985 11.5483 0.0780337 0.5
879 2.86583 4.01739 7.46782 0.5
880 12.0654 0.760121 0.927464 0.5
881 10.2064 10.9428 12.7212 0.5
882 1.63302 10.6619 3.81683 0.5
883 10.6431 12.7121 1.60569 0.5
884 13.2729 3.55742 1.72781 0.5
885 8.35582 10.9458 11.1304 0.5
886 1.17202 2.93928 7.95017 0.5
887 0.836072 1.36936 13.2849 0.5
888 5.52218 4.95631 1.70845 0.5
889 10.9905 4.08453 8.6095 0.5
890 11.9523 7.88569 6.52291 0.5
891 3.32548 6.21746 3.24644 0.5
892 9.5601 0.0892814 9.74939 0.5
893 10.6931 3.41353 7.88044 0.5
894 7.4015 7.80033 1.10974 0.5
895 11.7402 8.56952 1.36033 0.5
896 7.30808 11.7662 0.640045 0.5
897 6.14031 12.3807 3.40599 0.5
898 4.69926 12.1896 2.62905 0.5
899 10.4438 4.55313 10.2491 0.5
900 11.5459 11.8791 9.66414 0.5
901 0.182681 4.85234 9.92532 0.5
902 10.8045 5.76661 8.91792 0.5
903 9.85512 7.51965 2.68557 0.5
904 7.52488 3.58889 4.51491 0.5
905 1.09728 6.12591 5.97033 0.5
906 12.5502 5.17401 3.35249 0.5
907 6.58878 4.12117 10.5052 0.5
908 8.564 13.529 4.68446 0.5
909 9.37876 2.81632 2.34081 0.5
910 9.10677 1.80409 6.86102 0.5
911 6.31182 5.97384 12.4575 0.5
912 8.31876 8.55754 11.4499 0.5
913 11.6562 5.7773 0.0653797 0.5
914 4.46108 0.827437 1.02837 0.5
915 8.14581 2.85679 4.25178 0.5
916 11.1963 7.42715 6.93718 0.5
917 12.1847 0.573571 11.8457 0.5
918 8.5025 5.97856 8.06703 0.5
919 12.8678 12.4514 1.16158 0.5
920 0.450346 11.8292 9.58682 0.5
921 5.76601 6.30632 7.5869 0.5
922 13.2824 3.36126 12.436 0.5
923 1.46902 3.18929 9.4993 0.5
924 10.6114 12.1389 10.0308 0.5
925 10.2941 3.21053 2.35235 0.5
926 4.7106 10.3417 12.9027 0.5
927 1.20138 7.84114 5.08426 0.5
928 0.0346403 6.19497 5.83995 0.5
929 2.00875 2.30521 10.8334 0.5
930 10.5466 9.86332 8.67787 0.5
931 5.58757 9.3169 11.8732 0.5
932 3.62665 8.79305 3.09674 0.5