ITEM: TIMESTEP
80000
ITEM: NUMBER OF ATOMS
1000
ITEM: BOX BOUNDS xy xz yz pp pp pp
0.0000000000000000e+00 1.3572088000000001e+01 0.0000000000000000e+00
0.0000000000000000e+00 1.3572088000000001e+01 0.0000000000000000e+00
0.0000000000000000e+00 1.3572088000000001e+01 0.0000000000000000e+00
ITEM: ATOMS id x y z radius
1 4.35592 4.11012 13.0043 0.5
2 4.67925 10.4394 3.60679 0.5
3 8.09623 9.6628 2.9192 0.5
4 10.4936 6.22106 1.87566 0.5
5 8.52264 7.70335 10.4172 0.5
6 4.64222 12.5564 6.2379 0.5
7 3.43059 8.9447 0.492567 0.5
8 13.5571 11.8798 1.95706 0.5
9 1.69922 7.82719 6.03983 0.5
10 2.99514 12.9609 10.5759 0.5
11 0.460184 9.35104 8.78849 0.5
12 11.3565 5.96722 1.32802 0.5
13 10.1457 11.9685 6.5798 0.5
14 11.8551 2.79006 3.95391 0.5
15 6.30408 1.57156 4.28976 0.5
16 7.71496 6.12196 8.79991 0.5
17 7.45429 11.9991 10.851 0.5
18 2.63013 8.48189 6.05988 0.5
19 8.97214 5.10268 1.78378 0.5
20 9.53927 11.1245 3.14811 0.5
21 1.72052 4.66688 0.644572 0.5
22 2.30068 6.82906 12.2467 0.5
23 1.94487 1.3885 9.93661 0.5
24 7.25384 7.14994 2.60867 0.5
25 1.52795 6.2321 2.04889 0.5
26 10.5184 9.82933 6.23713 0.5
27 11.5027 6.60875 12.9229 0.5
28 5.47996 11.054 10.8087 0.5
29 0.921375 6.48947 1.22401 0.5
30 8.00407 11.0648 1.99531 0.5
31 0.305214 0.0357393 8.50691 0.5
32 10.3642 2.65426 0.148514 0.5
33 0.301374 6.23911 9.83785 0.5
34 3.21705 9.2816 6.17662 0.5
35 12.3792 6.51646 13.3771 0.5
36 10.0957 1.0716 5.34003 0.5
37 13.1241 0.0380985 3.45518 0.5
38 4.60756 1.5509 2.35646 0.5
39 9.81831 4.66694 1.67715 0.5
40 6.53719 4.94354 6.73787 0.5
41 9.21154 12.0199 6.29961 0.5
42 6.84045 5.32179 4.16331 0.5
43 5.56894 5.32817 9.62754 0.5
44 2.72346 10.0112 8.41193 0.5
45 6.47239 6.54457 2.6015 0.5
46 11.255 11.6255 13.4266 0.5
47 2.34515 9.27365 5.64751 0.5
48 8.00275 10.4778 1.11848 0.5
49 5.80703 12.0013 10.5525 0.5
50 4.61736 2.69583 11.7048 0.5
51 13.422 9.52312 7.35313 0.5
52 6.23294 10.7787 7.45977 0.5
53 9.776 3.59424 1.72455 0.5
54 11.0943 10.8486 3.7342 0.5
55 0.935575 1.36754 6.72094 0.5
56 11.7126 5.64863 3.57376 0.5
57 0.217534 12.0369 10.7698 0.5
58 4.97561 7.51861 9.72277 0.5
59 0.861551 10.6819 11.2098 0.5
60 8.50809 5.49104 8.93217 0.5
61 3.33388 12.3671 11.2479 0.5
62 0.208846 8.51115 0.728553 0.5
63 12.1733 9.02966 1.79202 0.5
64 12.0783 1.96387 10.1726 0.5
65 0.237759 2.29099 5.01172 0.5
66 0.141347 0.845133 2.11145 0.5
67 8.81995 2.79507 7.08282 0.5
68 3.90023 1.46739 3.14048 0.5
69 12.5634 1.96584 11.081 0.5
70 11.2963 3.95683 11.5198 0.5
71 2.39833 6.7894 8.9522 0.5
72 8.09245 3.27572 10.1081 0.5
73 8.10033 6.89141 8.26477 0.5
74 5.79858 4.35186 9.84044 0.5
75 8.44017 0.303288 10.8281 0.5
76 12.6947 3.08267 1.57254 0.5
77 10.4044 2.66866 3.07945 0.5
78 8.73692 2.62657 5.99927 0.5
79 3.77968 12.2928 6.51542 0.5
80 5.53203 2.70799 8.57565 0.5
81 2.19164 3.22826 10.8465 0.5
82 1.01122 8.90564 0.148245 0.5
83 3.14804 1.05899 7.31799 0.5
84 12.294 9.80401 9.89082 0.5
85 0.0590722 3.12827 7.49868 0.5
86 3.47848 0.44253 0.363792 0.5
87 5.20967 5.89686 5.99284 0.5
88 6.51559 5.76926 5.09488 0.5
89 11.6116 13.2189 6.93904 0.5
90 3.75256 5.27755 4.72196 0.5
91 11.3271 7.39961 12.2732 0.5
92 0.418796 0.34016 2.9291 0.5
93 0.80644 1.26403 1.44609 0.5
94 4.69028 9.95421 11.801 0.5
95 11.8746 1.57256 8.51382 0.5
96 11.3354 3.14008 3.07367 0.5
97 12.3652 3.26461 4.72927 0.5
98 11.8069 11.0494 0.561234 0.5
99 6.6122 8.37691 8.70892 0.5
100 1.13347 6.19317 6.00503 0.5
101 4.39692 12.0738 1.41257 0.5
102 8.3313 7.31874 11.2372 0.5
103 3.80467 5.09802 10.1285 0.5
104 6.3085 10.1185 5.93453 0.5
105 11.3503 13.5309 5.92701 0.5
106 7.67762 0.963029 9.50071 0.5
107 13.5699 4.64049 8.87835 0.5
108 13.2566 11.544 5.09427 0.5
109 0.607508 11.2407 9.47937 0.5
110 8.37137 9.21912 8.33992 0.5
111 7.77603 0.641881 2.69789 0.5
112 5.63924 0.807762 4.23675 0.5
113 1.17606 0.770292 5.99174 0.5
114 6.67829 6.88607 3.42929 0.5
115 5.11989 5.97785 12.5043 0.5
116 0.566358 5.83281 1.71775 0.5
117 0.466216 0.16396 5.70848 0.5
118 12.6393 9.28889 5.10371 0.5
119 11.4482 8.35953 1.74094 0.5
120 4.29909 8.7485 3.59609 0.5
121 12.0037 12.7474 11.9334 0.5
122 3.03613 3.16782 2.64502 0.5
123 11.5644 1.72028 11.0086 0.5
124 11.1282 11.2022 11.7936 0.5
125 4.36148 11.4138 4.02662 0.5
126 11.7115 11.1014 12.5408 0.5
127 7.56762 9.97785 11.3137 0.5
128 5.51224 2.10997 7.75495 0.5
129 2.7329 6.83777 11.4115 0.5
130 0.458382 11.8539 8.76524 0.5
131 7.39638 2.15381 0.573289 0.5
132 4.86566 11.2843 1.96573 0.5
133 0.685182 11.286 10.4794 0.5
134 10.1216 10.6164 3.83524 0.5
135 12.8527 2.53 5.32157 0.5
136 7.86881 3.75126 3.39598 0.5
137 3.9463 13.2535 6.13938 0.5
138 7.64344 11.9051 13.2703 0.5
139 5.7534 13.5448 13.0797 0.5
140 5.78037 3.49435 3.91289 0.5
141 1.42291 3.78505 4.5405 0.5
142 9.41502 3.08948 0.0496387 0.5
143 0.315578 0.594841 12.6579 0.5
144 8.77548 12.8466 6.6625 0.5
145 6.17201 7.44483 2.81232 0.5
146 10.1436 9.15804 8.16773 0.5
147 4.06119 6.59246 0.169278 0.5
148 12.9021 0.584843 11.1552 0.5
149 8.17417 6.1568 9.78136 0.5
150 12.041 11.049 3.41528 0.5
151 6.68452 12.0781 10.1367 0.5
152 3.56589 3.78133 10.9015 0.5
153 11.5803 6.54889 8.71387 0.5
154 3.83752 3.54059 2.09122 0.5
155 1.85741 8.03629 10.6974 0.5
156 8.45133 12.1058 0.315851 0.5
157 2.22035 0.811276 3.84852 0.5
158 0.533109 8.41592 8.29519 0.5
159 4.18124 1.71626 9.83413 0.5
160 8.99707 1.07411 11.0676 0.5
161 13.4041 3.75648 11.751 0.5
162 7.06104 2.85927 7.1746 0.5
163 11.6068 9.08149 0.263803 0.5
164 9.29732 3.16058 12.6317 0.5
165 7.49547 10.9194 11.0663 0.5
166 10.8206 0.285621 6.73723 0.5
167 10.9637 7.29606 8.48549 0.5
168 1.77781 3.29257 7.33294 0.5
169 11.3759 11.9791 12.3983 0.5
170 3.87927 6.65608 1.15612 0.5
171 10.6026 5.25794 1.34916 0.5
172 10.4344 7.68336 10.97 0.5
173 8.71531 10.5527 2.83736 0.5
174 4.23431 0.585638 13.2097 0.5
175 2.71185 6.67882 3.60818 0.5
176 3.97478 5.63205 3.86451 0.5
177 8.98451 3.55648 5.60798 0.5
178 6.14372 2.51107 4.06671 0.5
179 13.4248 6.0895 2.44701 0.5
180 9.95045 2.45128 12.8404 0.5
181 10.5457 11.8007 8.95166 0.5
182 2.65416 12.0617 0.302901 0.5
183 7.77538 8.16841 6.67205 0.5
184 10.2527 4.42889 9.83028 0.5
185 8.42189 1.1812 10.2648 0.5
186 3.44464 8.64015 1.95383 0.5
187 4.782 13.2694 13.0279 0.5
188 5.71491 6.1558 6.85048 0.5
189 0.485493 11.4131 5.596 0.5
190 7.34308 13.5265 2.23156 0.5
191 9.69671 7.94052 4.22014 0.5
192 10.8249 1.02273 0.32183 0.5
193 12.2434 1.04918 10.6119 0.5
194 8.73163 0.588054 11.8162 0.5
195 12.8179 9.40145 11.7733 0.5
196 8.51385 0.369724 3.27344 0.5
197 2.64352 6.95444 7.96849 0.5
198 7.1933 6.4561 12.2044 0.5
199 11.0928 2.19688 8.44954 0.5
200 6.51884 7.34523 1.8934 0.5
201 0.101512 3.85209 8.30613 0.5
202 6.85275 0.280777 7.80463 0.5
203 2.16787 3.16978 0.998227 0.5
204 0.764054 7.61137 8.78233 0.5
205 11.9678 12.6335 4.21288 0.5
206 1.44617 0.471802 10.161 0.5
207 6.10669 12.6507 8.80614 0.5
208 9.23147 4.85526 7.02874 0.5
209 5.15784 2.66841 3.78059 0.5
210 4.38679 6.52271 5.72696 0.5
211 3.94548 4.19044 10.0582 0.5
212 3.20416 6.18561 4.33524 0.5
213 3.31898 1.41546 5.25252 0.5
214 10.0984 3.17412 12.0141 0.5
215 7.21257 6.51549 1.92654 0.5
216 6.51482 8.79982 13.2507 0.5
217 3.95841 11.583 5.01695 0.5
218 6.01322 8.2213 3.52772 0.5
219 8.33838 1.3808 3.15523 0.5
220 6.66092 1.04841 9.21765 0.5
221 3.00093 2.9403 6.47694 0.5
222 6.80848 11.3486 4.92317 0.5
223 3.46092 9.54463 2.49121 0.5
224 13.4782 9.39707 3.19814 0.5
225 8.21631 11.5768 11.3013 0.5
226 11.3271 6.26038 0.346198 0.5
227 11.5096 9.8215 10.4768 0.5
228 3.31366 11.7035 5.78018 0.5
229 4.9402 4.22928 6.21617 0.5
230 5.96097 9.28568 8.56769 0.5
231 8.63121 6.45499 8.94046 0.5
232 7.06852 5.83142 13.0277 0.5
233 1.71839 0.513636 9.23655 0.5
234 11.9741 2.32901 4.96142 0.5
235 1.25679 11.3658 3.94978 0.5
236 10.5092 6.01171 0.817367 0.5
237 5.655 8.20499 5.7531 0.5
238 0.641378 12.6915 5.37235 0.5
239 10.4574 7.7944 4.92198 0.5
240 2.61905 4.07614 11.2841 0.5
241 4.25192 5.88857 0.894881 0.5
242 3.59999 1.07963 2.3185 0.5
243 2.08006 10.0214 3.64437 0.5
244 3.09412 12.7104 5.81509 0.5
245 0.794022 11.6397 11.508 0.5
246 9.25474 9.69516 8.33151 0.5
247 3.6569 0.172059 10.563 0.5
248 7.01694 2.82184 1.23893 0.5
249 10.4659 1.82471 0.795695 0.5
250 9.82916 1.17706 0.39007 0.5
251 4.87214 9.37584 10.955 0.5
252 9.54335 8.94469 0.747558 0.5
253 1.20576 8.59661 1.0482 0.5
254 10.6966 3.28382 2.36832 0.5
255 8.18619 10.0601 2.08069 0.5
256 1.77903 13.4186 3.59926 0.5
257 0.895955 3.71331 7.66587 0.5
258 0.283449 5.74892 6.42002 0.5
259 4.09869 4.78348 9.28587 0.5
260 7.21755 11.2747 10.1092 0.5
261 11.0669 3.5023 5.67931 0.5
262 7.14479 10.6604 5.51161 0.5
263 3.00275 4.31033 7.88722 0.5
264 10.7673 11.0494 8.32724 0.5
265 1.86393 4.62907 4.55371 0.5
266 4.26921 13.1079 7.07281 0.5
267 4.98036 7.62853 8.68327 0.5
268 6.43101 2.07279 0.930591 0.5
269 8.43626 0.0316355 7.3397 0.5
270 6.95405 10.5492 8.19262 0.5
271 10.7879 0.368198 5.121 0.5
272 6.45863 9.66994 0.139846 0.5
273 7.31378 4.58936 3.63533 0.5
274 10.1919 3.53729 9.21639 0.5
275 2.53824 11.4478 1.03417 0.5
276 5.34354 0.157832 11.6286 0.5
277 7.99812 5.26306 13.1405 0.5
278 11.2895 10.6731 13.3193 0.5
279 9.88271 11.3868 5.8041 0.5
280 5.12744 11.51 0.972854 0.5
281 7.07332 3.31022 9.98305 0.5
282 13.4792 10.9836 1.45124 0.5
283 5.20901 5.37558 1.75416 0.5
284 1.64254 10.9975 1.13756 0.5
285 2.74643 10.1027 6.28613 0.5
286 3.15979 0.564343 12.9826 0.5
287 7.75902 7.2118 6.53274 0.5
288 5.64565 0.371973 5.2027 0.5
289 2.07938 10.9735 4.00461 0.5
290 1.20858 13.2197 5.98136 0.5
291 6.53639 0.688552 4.98003 0.5
292 4.81037 3.24359 13.241 0.5
293 11.0917 5.83539 4.36323 0.5
294 1.77249 9.99697 6.26201 0.5
295 3.15314 1.14395 6.24816 0.5
296 0.0890846 4.22609 7.31431 0.5
297 11.388 12.1075 11.3968 0.5
298 10.8122 3.80245 12.2763 0.5
299 2.14181 0.705543 13.0381 0.5
300 9.10172 4.18313 1.23808 0.5
301 6.39981 6.97161 11.666 0.5
302 2.85745 9.36681 3.30102 0.5
303 12.9518 8.80451 2.49445 0.5
304 0.618164 6.69062 6.64987 0.5
305 7.52298 12.3533 7.7946 0.5
306 11.0995 8.35649 0.729072 0.5
307 2.14594 7.42602 3.25873 0.5
308 0.64871 10.0133 12.3599 0.5
309 13.0712 0.0914712 12.8222 0.5
310 7.76044 13.2915 3.09563 0.5
311 13.2999 4.88713 6.62423 0.5
312 8.20446 11.3405 10.3848 0.5
313 0.579561 10.9479 4.66477 0.5
314 6.08465 11.3119 9.94532 0.5
315 12.6893 5.97472 3.08906 0.5
316 8.75325 5.82712 6.94575 0.5
317 13.1203 8.95255 4.21648 0.5
318 12.3042 5.23759 6.73383 0.5
319 10.801 11.1194 0.525639 0.5
320 5.33936 2.58529 6.89911 0.5
321 2.17214 13.2176 2.67347 0.5
322 9.80898 12.7817 0.819807 0.5
323 4.50011 0.713656 2.6658 0.5
324 10.3714 3.67675 3.27568 0.5
325 1.32357 5.02085 12.461 0.5
326 10.8317 12.9227 0.801059 0.5
327 9.20816 1.89929 7.63998 0.5
328 12.3712 7.00781 12.5172 0.5
329 8.06906 3.08333 7.55853 0.5
330 8.41578 1.03017 4.15583 0.5
331 4.86884 3.55033 4.32102 0.5
332 11.6963 2.22518 9.25548 0.5
333 13.1634 0.938604 3.09626 0.5
334 4.85843 6.61212 0.76438 0.5
335 8.6866 12.9709 3.44236 0.5
336 4.39261 1.32456 8.92339 0.5
337 11.2639 1.46387 10.1253 0.5
338 7.57483 5.36293 9.5023 0.5
339 9.16751 4.1819 2.33325 0.5
340 12.559 3.13946 13.0211 0.5
341 9.0879 0.206953 9.29138 0.5
342 6.19594 0.747736 5.92315 0.5
343 7.08406 4.7053 8.9515 0.5
344 5.177 7.76958 6.5097 0.5
345 7.42187 7.81671 5.76856 0.5
346 0.83473 7.21158 5.72931 0.5
347 12.7873 10.9808 0.807564 0.5
348 1.40325 3.83116 1.03524 0.5
349 8.5832 7.61561 6.85031 0.5
350 7.87094 6.94035 10.3412 0.5
351 2.25355 9.43902 11.2413 0.5
352 9.37939 12.1985 7.23489 0.5
353 8.13035 7.08188 2.17133 0.5
354 2.62887 2.92352 5.56453 0.5
355 1.40929 6.88053 2.84308 0.5
356 11.5107 13.4955 3.83434 0.5
357 5.33466 11.2476 3.74323 0.5
358 4.22244 1.02688 10.6212 0.5
359 6.86751 9.83849 8.77732 0.5
360 12.5889 4.22777 6.86604 0.5
361 3.71471 1.55895 8.1792 0.5
362 1.02861 1.22687 9.4424 0.5
363 10.4754 12.0551 0.355647 0.5
364 3.74583 8.00534 13.57 0.5
365 3.16536 8.72513 13.1282 0.5
366 6.35602 9.87081 7.88913 0.5
367 11.3939 11.9309 0.872014 0.5
368 5.07943 4.641 9.18924 0.5
369 1.96591 3.05945 4.12479 0.5
370 13.3171 10.3512 6.57863 0.5
371 8.46734 13.5105 2.45673 0.5
372 0.142078 4.89069 4.12285 0.5
373 5.43469 2.97779 12.4653 0.5
374 0.501905 9.17759 12.9109 0.5
375 13.2628 8.96257 8.32911 0.5
376 2.13534 11.931 4.16211 0.5
377 7.46058 6.07956 4.66308 0.5
378 5.94354 9.36478 12.7587 0.5
379 4.86311 5.9244 13.5741 0.5
380 7.25571 5.20294 0.269144 0.5
381 10.3209 2.86008 8.46556 0.5
382 8.63148 1.07153 7.36205 0.5
383 1.42204 5.62253 1.21373 0.5
384 5.62397 10.2196 12.2661 0.5
385 12.6799 11.7166 1.6502 0.5
386 0.797151 4.5801 4.83801 0.5
387 1.75171 6.42258 11.5517 0.5
388 1.25598 1.45295 10.4809 0.5
389 5.12054 9.17861 9.92944 0.5
390 4.82787 4.75646 10.123 0.5
391 7.15239 0.931731 1.86829 0.5
392 13.5254 5.64998 3.40695 0.5
393 2.90932 4.99592 8.67446 0.5
394 9.29809 8.66589 8.63454 0.5
395 1.08399 0.752252 8.51036 0.5
396 0.25581 0.721747 3.76742 0.5
397 6.95096 1.23879 0.870357 0.5
398 8.3408 10.7413 4.55309 0.5
399 1.11432 4.56808 3.89822 0.5
400 6.4282 9.00715 4.06793 0.5
401 9.61987 2.1304 0.229823 0.5
402 4.99608 7.45011 5.62044 0.5
403 6.89579 12.9245 7.34074 0.5
404 10.1529 11.0037 11.6943 0.5
405 12.7603 5.55407 13.4682 0.5
406 7.3272 2.56603 13.1282 0.5
407 1.94784 11.5984 3.21962 0.5
408 2.42857 3.81802 4.5718 0.5
409 3.1954 4.66777 10.6154 0.5
410 11.2214 2.15634 3.35245 0.5
411 3.25265 6.16998 0.585223 0.5
412 5.20394 0.533019 12.5957 0.5
413 3.45803 6.7106 8.73015 0.5
414 2.59607 8.76936 10.6426 0.5
415 8.31366 9.3549 11.0438 0.5
416 9.51591 11.1718 6.69412 0.5
417 1.32108 13.3711 8.73167 0.5
418 9.19032 0.624044 10.1431 0.5
419 2.53698 12.8468 11.428 0.5
420 3.56623 0.128315 7.60425 0.5
421 0.058875 5.76117 10.7943 0.5
422 8.34455 4.15915 5.84933 0.5
423 12.2195 13.0054 3.39562 0.5
424 2.95291 2.93905 4.57324 0.5
425 7.56488 7.75082 10.6869 0.5
426 1.13099 12.9291 6.98264 0.5
427 6.72766 2.82458 0.280707 0.5
428 12.5302 8.8333 9.77703 0.5
429 10.5027 5.30659 10.3645 0.5
430 7.99622 1.06189 11.248 0.5
431 2.3342 5.25516 7.98099 0.5
432 0.529041 1.34498 3.01604 0.5
433 7.73572 11.1926 0.352928 0.5
434 0.42347 4.09001 0.980085 0.5
435 11.3471 9.1956 1.20279 0.5
436 6.60882 4.9771 9.75511 0.5
437 4.2099 9.20982 6.38276 0.5
438 6.05792 2.9866 7.63244 0.5
439 10.6233 11.5818 9.85942 0.5
440 10.3718 10.8067 6.513 0.5
441 5.5333 12.9277 3.67842 0.5
442 1.8149 6.8044 5.68559 0.5
443 0.712521 11.5525 1.27199 0.5
444 9.8947 8.56 13.4953 0.5
445 4.32531 8.98661 2.59215 0.5
446 4.14536 6.37563 4.59133 0.5
447 1.64426 8.82546 6.05209 0.5
448 5.70416 10.1889 13.3388 0.5
449 3.38835 13.3169 11.406 0.5
450 3.81009 3.08041 1.1317 0.5
451 6.84428 3.4451 13.2233 0.5
452 1.80108 8.47756 0.225789 0.5
453 4.65498 9.56655 4.18751 0.5
454 2.89658 0.40447 2.48324 0.5
455 1.44576 3.14176 10.1267 0.5
456 8.44921 12.7125 7.65661 0.5
457 11.9758 12.6887 8.77087 0.5
458 3.98053 0.737716 9.62989 0.5
459 0.0902755 2.67238 5.91825 0.5
460 13.1876 6.31716 12.9287 0.5
461 11.0208 8.11297 11.619 0.5
462 11.1879 2.94679 7.84964 0.5
463 6.21983 3.17825 6.68276 0.5
464 10.7056 9.24049 10.3279 0.5
465 5.49893 10.1006 11.267 0.5
466 3.8309 0.506338 6.73456 0.5
467 0.89825 7.95793 0.431359 0.5
468 12.3365 9.29182 10.8187 0.5
469 1.28971 3.02333 11.1312 0.5
470 2.48054 5.02461 11.312 0.5
471 4.33111 0.134824 11.2409 0.5
472 10.7937 6.75424 4.76452 0.5
473 11.7033 6.94887 7.85597 0.5
474 1.53655 8.13851 8.31078 0.5
475 5.36764 3.27286 6.24899 0.5
476 7.57147 0.751279 10.3706 0.5
477 5.86686 7.75859 9.19518 0.5
478 2.624 11.7683 12.9651 0.5
479 9.2492 8.03556 0.561739 0.5
480 2.52102 10.8856 8.11142 0.5
481 2.1318 3.78762 0.205172 0.5
482 10.3346 13.3484 1.52577 0.5
483 8.07145 10.4163 3.60769 0.5
484 9.90151 7.00566 4.65217 0.5
485 4.78882 6.33003 1.60175 0.5
486 3.03594 10.7392 8.93671 0.5
487 4.85511 2.23048 9.25406 0.5
488 5.86146 4.17586 6.53055 0.5
489 3.6691 0.486944 3.07949 0.5
490 0.919583 12.7566 8.12701 0.5
491 2.93029 7.72443 11.9428 0.5
492 1.59955 5.56231 11.5989 0.5
493 11.0954 8.27376 10.6642 0.5
494 8.1464 5.28469 0.6529 0.5
495 6.78465 7.89385 13.5417 0.5
496 6.79441 13.4353 13.0357 0.5
497 5.84724 5.30517 7.43697 0.5
498 3.96192 12.4298 5.47619 0.5
499 7.48485 2.87268 10.8337 0.5
500 12.4422 8.74735 5.97065 0.5
501 5.35492 1.92648 4.391 0.5
502 9.44255 10.302 9.09953 0.5
503 8.57548 5.73027 12.3301 0.5
504 2.63367 1.00963 0.265448 0.5
505 4.64363 3.46863 12.3137 0.5
506 3.51895 11.8555 0.827846 0.5
507 7.38742 4.1678 2.58714 0.5
508 0.154972 1.92157 6.58627 0.5
509 5.55527 5.09792 6.45278 0.5
510 7.84375 10.793 11.9657 0.5
511 6.28514 13.3796 5.65168 0.5
512 7.41758 10.5902 4.60971 0.5
513 6.36573 3.75742 2.38273 0.5
514 5.99014 8.40186 0.462515 0.5
515 1.53407 10.7399 3.15256 0.5
516 3.93486 9.64589 3.39792 0.5
517 1.14548 3.53535 3.61638 0.5
518 1.64794 7.14733 8.37401 0.5
519 5.40666 6.90759 9.17591 0.5
520 1.804 1.12841 0.963027 0.5
521 10.9728 5.06191 5.12089 0.5
522 1.81598 10.417 11.2915 0.5
523 12.6663 8.07897 4.0016 0.5
524 0.165575 1.02044 6.22287 0.5
525 11.1748 9.98972 0.582348 0.5
526 8.3594 12.0159 6.89705 0.5
527 7.02252 11.1874 2.21911 0.5
528 0.948316 1.11004 0.459019 0.5
529 12.7006 0.348292 0.12095 0.5
530 12.3537 3.86906 11.5369 0.5
531 10.3565 8.66354 11.1862 0.5
532 5.25389 8.75616 3.93482 0.5
533 4.89248 6.48 11.0188 0.5
534 1.60639 11.4168 10.9437 0.5
535 8.26926 12.488 12.8997 0.5
536 2.43752 12.6353 3.45908 0.5
537 3.463 11.6166 9.25224 0.5
538 7.29434 10.4035 1.70528 0.5
539 1.84822 8.27708 2.71428 0.5
540 1.56516 3.36268 8.34861 0.5
541 4.34178 11.7411 0.368137 0.5
542 7.7417 13.4038 12.6889 0.5
543 13.1974 5.76056 7.14004 0.5
544 8.27928 2.0753 7.58827 0.5
545 2.38281 6.38344 2.76976 0.5
546 1.19605 0.569039 13.1948 0.5
547 9.99033 4.88098 5.41852 0.5
548 11.7669 0.630869 6.47352 0.5
549 0.20846 10.4364 7.54072 0.5
550 12.1642 12.077 3.37035 0.5
551 6.15046 1.29738 1.67793 0.5
552 3.30907 7.22205 0.563725 0.5
553 11.2161 4.70469 9.90637 0.5
554 3.29929 13.1111 6.78795 0.5
555 0.356963 3.85513 4.26445 0.5
556 7.23779 12.5113 12.6619 0.5
557 7.24957 11.1831 1.20246 0.5
558 4.64747 1.88997 10.8269 0.5
559 3.43465 11.4833 8.32405 0.5
560 7.56912 3.87822 10.7498 0.5
561 8.51412 9.15733 12.6714 0.5
562 0.0224279 3.13735 1.06453 0.5
563 9.4801 5.45787 6.20501 0.5
564 8.67053 5.85668 13.4126 0.5
565 9.25625 4.47973 5.9882 0.5
566 7.0224 1.56183 9.9716 0.5
567 11.8965 5.17875 4.44994 0.5
568 7.4215 1.74773 10.816 0.5
569 10.7532 6.64722 12.2362 0.5
570 12.611 7.99079 3.01927 0.5
571 2.90345 1.09921 3.1611 0.5
572 4.17015 3.57593 0.311121 0.5
573 0.768557 0.249027 6.65365 0.5
574 9.01262 8.05709 3.44554 0.5
575 8.10426 0.509722 1.69798 0.5
576 3.44109 10.561 7.98559 0.5
577 2.61044 9.01241 2.42373 0.5
578 1.64166 11.9623 0.73929 0.5
579 0.22656 9.19712 11.9337 0.5
580 2.50816 6.08165 7.39862 0.5
581 0.939552 0.104559 7.79438 0.5
582 2.55994 11.8731 10.9064 0.5
583 2.42382 10.5189 0.703881 0.5
584 10.2879 5.74532 4.93577 0.5
585 12.8083 4.90444 7.56775 0.5
586 12.956 5.80753 10.0118 0.5
587 0.395917 1.81809 2.1915 0.5
588 13.245 1.03933 13.1578 0.5
589 13.0103 9.40699 9.17586 0.5
590 3.69385 9.93765 8.82221 0.5
591 4.16645 2.83562 10.7614 0.5
592 11.229 12.2748 10.3587 0.5
593 5.3703 9.87381 6.30703 0.5
594 13.1921 11.3184 6.14442 0.5
595 12.3711 10.7306 6.61453 0.5
596 9.00054 9.71186 2.52846 0.5
597 4.35927 11.1393 7.89362 0.5
598 7.73341 11.3508 5.17325 0.5
599 11.3764 11.934 8.42907 0.5
600 12.346 5.97642 12.5198 0.5
601 4.03557 5.90381 2.8532 0.5
602 13.3253 5.62347 9.0967 0.5
603 2.86839 7.77341 10.8902 0.5
604 5.03592 1.00167 11.2255 0.5
605 8.34426 3.36862 11.0815 0.5
606 12.7339 8.37408 4.97747 0.5
607 8.82694 9.37764 9.22197 0.5
608 7.79351 11.7709 12.2443 0.5
609 0.777903 11.7249 0.232377 0.5
610 1.09635 8.55799 9.12419 0.5
611 13.5561 8.55917 9.21568 0.5
612 5.47341 12.5822 2.67669 0.5
613 3.4803 6.02414 5.31913 0.5
614 4.02923 12.8855 10.8383 0.5
615 2.55483 11.6468 8.69762 0.5
616 0.641647 6.72799 2.09882 0.5
617 6.45074 5.9174 3.39136 0.5
618 10.85 6.35812 8.01128 0.5
619 11.7171 3.29858 2.13138 0.5
620 13.518 11.1228 11.1853 0.5
621 1.95782 4.07233 3.71331 0.5
622 5.65616 8.36742 8.48469 0.5
623 12.1206 8.82617 4.32083 0.5
624 0.740695 6.08847 2.82511 0.5
625 2.11284 2.47488 11.5107 0.5
626 2.44438 4.11809 1.15347 0.5
627 11.248 5.32202 0.542452 0.5
628 11.9285 3.41917 12.268 0.5
629 6.6762 3.70308 3.30918 0.5
630 3.03604 3.47904 0.547771 0.5
631 10.2439 0.616559 13.0988 0.5
632 6.66431 12.5532 13.5003 0.5
633 10.3495 0.855314 1.28699 0.5
634 10.4245 10.7948 9.17502 0.5
635 10.4017 1.70495 13.3944 0.5
636 10.1434 3.47817 13.0981 0.5
637 13.1241 11.1839 7.15787 0.5
638 5.72741 1.33145 5.16947 0.5
639 8.76201 6.96491 9.76246 0.5
640 2.55659 4.77546 7.17078 0.5
641 8.74931 8.55024 6.3988 0.5
642 12.1557 5.8557 0.667691 0.5
643 11.5442 1.91919 7.57065 0.5
644 7.54377 4.31082 9.84399 0.5
645 13.4596 12.1672 5.91788 0.5
646 9.46319 8.9709 12.6445 0.5
647 7.43756 6.90532 11.3097 0.5
648 8.20991 9.85943 12.0318 0.5
649 5.4426 7.27906 11.4293 0.5
650 3.56867 0.646233 8.55786 0.5
651 12.9309 5.75557 6.13811 0.5
652 5.0294 2.96329 7.73998 0.5
653 2.33977 5.49004 0.698915 0.5
654 4.43528 9.74117 10.1782 0.5
655 11.0361 12.7649 8.72691 0.5
656 0.232434 10.9665 0.538944 0.5
657 11.0755 1.23128 6.98986 0.5
658 9.62435 10.3176 6.23585 0.5
659 0.500925 10.7032 3.66102 0.5
660 0.794002 0.261268 9.33332 0.5
661 1.739 7.61272 9.19633 0.5
662 2.99574 12.1725 4.98419 0.5
663 4.92394 12.0977 3.49773 0.5
664 6.27641 5.81087 6.1126 0.5
665 9.72456 10.1361 2.98684 0.5
666 6.57633 11.3454 10.8727 0.5
667 9.99458 4.42683 8.82023 0.5
668 5.95668 3.04011 3.15227 0.5
669 7.63819 10.5067 2.7351 0.5
670 7.82207 12.9235 6.93365 0.5
671 6.8691 8.83303 0.587285 0.5
672 3.50265 2.44246 5.2614 0.5
673 5.54278 9.25686 0.084615 0.5
674 3.34244 8.48147 11.3358 0.5
675 1.88053 3.48424 11.8139 0.5
676 2.0296 0.602461 2.89169 0.5
677 2.58957 8.32717 3.27367 0.5
678 11.3804 9.11246 11.1504 0.5
679 11.5971 13.2961 4.83591 0.5
680 4.16761 11.0726 1.17616 0.5
681 3.36137 1.34474 9.1979 0.5
682 1.16617 2.02606 11.4721 0.5
683 2.52996 5.97948 11.8229 0.5
684 11.3163 12.4937 3.56047 0.5
685 11.5277 11.6757 4.09688 0.5
686 10.3524 7.57372 12.0027 0.5
687 4.94628 9.64374 12.7925 0.5
688 0.971787 8.25786 5.53847 0.5
689 3.52779 4.07325 1.21194 0.5
690 4.48217 8.30976 6.95575 0.5
691 13.5278 10.1693 11.5599 0.5
692 5.07899 0.444116 0.0927375 0.5
693 11.2929 5.75753 12.3653 0.5
694 5.95127 8.70603 9.45804 0.5
695 11.9373 8.66791 2.63354 0.5
696 11.1893 3.16941 8.85774 0.5
697 13.2877 9.92218 8.33532 0.5
698 6.20676 9.97556 6.90541 0.5
699 2.77277 8.11611 0.351339 0.5
700 12.5187 8.93698 3.39572 0.5
701 8.88495 8.80626 13.5354 0.5
702 3.93083 2.17921 9.03388 0.5
703 1.77035 4.51803 11.8273 0.5
704 8.89 2.79939 8.16786 0.5
705 10.4614 8.08568 8.03421 0.5
706 6.27379 11.0622 5.6224 0.5
707 3.80114 4.68385 8.33264 0.5
708 1.12606 0.950942 2.36863 0.5
709 10.1717 0.172442 0.458135 0.5
710 6.62644 6.34825 4.29662 0.5
711 0.285028 0.409351 13.5623 0.5
712 12.073 1.29872 9.48105 0.5
713 8.4307 10.259 8.60204 0.5
714 12.9169 3.79737 7.70844 0.5
715 13.4004 8.40792 3.34344 0.5
716 0.718968 2.39885 10.5826 0.5
717 3.61236 8.10063 1.00894 0.5
718 11.04 1.16842 8.02508 0.5
719 4.61052 10.4178 10.9201 0.5
720 12.0861 11.4758 2.40931 0.5
721 10.579 5.20749 9.28692 0.5
722 5.4045 13.1046 12.4065 0.5
723 4.23005 9.19206 9.25519 0.5
724 8.28514 0.223099 9.89729 0.5
725 2.86577 2.00971 5.99343 0.5
726 7.99009 2.56364 6.67889 0.5
727 5.83015 3.43409 13.4818 0.5
728 13.4373 3.23243 4.97341 0.5
729 9.70763 5.707 1.47206 0.5
730 8.47524 5.02951 6.38717 0.5
731 11.1032 0.272518 0.939485 0.5
732 2.47247 3.36962 8.091 0.5
733 8.17675 11.5208 1.11521 0.5
734 10.933 11.4519 6.09834 0.5
735 2.95142 5.99464 8.28668 0.5
736 4.19357 4.56801 10.943 0.5
737 5.76436 4.04821 3.08928 0.5
738 2.08427 7.53895 11.5323 0.5
739 7.25933 0.348193 8.73843 0.5
740 11.1679 1.37098 9.14802 0.5
741 8.23871 4.19515 4.08198 0.5
742 5.96429 9.28438 0.97903 0.5
743 8.68554 8.67574 5.35769 0.5
744 5.25088 3.97549 12.733 0.5
745 8.06488 6.43515 11.8459 0.5
746 5.07958 8.43862 9.25971 0.5
747 13.4855 13.5675 11.8701 0.5
748 7.55309 9.78512 8.0176 0.5
749 4.92701 9.42795 3.28732 0.5
750 1.74343 1.38318 13.4948 0.5
751 0.322137 8.28981 12.3978 0.5
752 2.64313 1.50132 12.9529 0.5
753 6.67942 1.89111 13.4847 0.5
754 2.64194 11.9839 11.9693 0.5
755 7.11082 3.07826 12.3632 0.5
756 6.7629 7.81008 0.925605 0.5
757 11.7745 6.56181 11.8956 0.5
758 4.29285 11.652 6.00506 0.5
759 12.3412 8.04865 1.97933 0.5
760 7.88203 5.31099 4.02674 0.5
761 2.98999 11.161 0.159324 0.5
762 0.761522 3.4462 1.70775 0.5
763 12.4161 13.5344 4.29149 0.5
764 8.55142 8.84421 2.91926 0.5
765 13.5244 2.73478 1.98619 0.5
766 8.56131 2.77422 4.99799 0.5
767 4.32216 7.45798 0.644302 0.5
768 12.7326 13.1742 11.2843 0.5
769 11.9361 2.92985 5.65619 0.5
770 11.7294 7.58136 6.98045 0.5
771 8.40088 7.78858 5.88748 0.5
772 1.28375 2.1603 9.81482 0.5
773 9.51025 3.55976 8.44356 0.5
774 8.76989 0.831417 2.38467 0.5
775 9.66827 0.853488 11.7733 0.5
776 2.31603 9.21875 6.60508 0.5
777 10.4603 11.6733 3.56628 0.5
778 11.2889 11.5504 3.09 0.5
779 7.80002 8.72621 5.86804 0.5
780 4.04481 10.9002 8.86269 0.5
781 13.273 1.69729 5.68095 0.5
782 10.8674 2.89669 3.95953 0.5
783 13.2657 9.80795 12.5509 0.5
784 2.61591 2.03417 4.99032 0.5
785 11.2884 10.4457 6.3506 0.5
786 8.25259 3.71733 4.86555 0.5
787 5.41373 11.6 2.72852 0.5
788 10.991 7.09944 11.3802 0.5
789 9.80584 3.02467 0.895076 0.5
790 7.97334 1.45444 2.18904 0.5
791 5.53103 6.9364 12.365 0.5
792 6.25487 2.21952 7.04483 0.5
793 5.88668 9.05748 3.16383 0.5
794 12.2298 0.440048 3.42289 0.5
795 9.29453 9.38151 5.80461 0.5
796 2.61499 10.056 7.40238 0.5
797 4.54732 3.64312 11.3368 0.5
798 2.86797 3.4372 3.67492 0.5
799 0.717972 1.72544 5.75189 0.5
800 1.12019 8.08468 13.0356 0.5
801 7.36365 6.16058 3.69939 0.5
802 5.09596 10.9087 11.6598 0.5
803 10.5953 11.5963 10.9043 0.5
804 13.2377 6.67858 10.4762 0.5
805 8.75411 7.96677 2.40196 0.5
806 2.51778 7.67494 8.56599 0.5
807 3.30503 5.28542 7.74217 0.5
808 1.95424 9.22147 3.12622 0.5
809 10.2685 4.07942 11.4938 0.5
810 1.82749 12.1619 11.5907 0.5
811 10.4739 7.35078 3.89048 0.5
812 2.39746 8.52404 11.5422 0.5
813 7.59807 5.61993 12.1674 0.5
814 8.71455 12.9183 4.4645 0.5
815 11.686 12.6275 7.85626 0.5
816 8.97723 7.44119 1.49556 0.5
817 10.4914 10.8356 3.01258 0.5
818 3.26373 10.7654 1.05784 0.5
819 6.01461 13.1576 7.92934 0.5
820 0.515465 12.8287 9.04807 0.5
821 11.379 3.17784 4.86831 0.5
822 9.14229 0.204166 4.01505 0.5
823 9.40441 0.132828 11.031 0.5
824 2.08082 8.36589 5.26716 0.5
825 7.79707 1.3909 1.24513 0.5
826 6.88668 12.9815 8.37056 0.5
827 11.0773 0.429021 1.89879 0.5
828 5.43599 3.44319 2.31556 0.5
829 4.62986 2.16627 8.31168 0.5
830 5.14625 12.3311 8.80773 0.5
831 11.5407 0.474407 7.38732 0.5
832 12.8504 4.90014 9.58302 0.5
833 2.28373 11.1956 11.5253 0.5
834 9.60239 1.47075 12.9788 0.5
835 2.24778 5.20921 12.2781 0.5
836 7.77646 9.07046 11.7476 0.5
837 6.26469 3.62172 12.5189 0.5
838 12.4098 0.235404 12.0573 0.5
839 5.22542 5.68979 0.878734 0.5
840 7.62501 12.8295 13.5461 0.5
841 5.79312 10.7448 6.52186 0.5
842 12.702 3.99515 12.4365 0.5
843 12.5926 3.10731 0.515505 0.5
844 5.10844 4.02714 0.142469 0.5
845 10.1428 4.71455 6.43371 0.5
846 5.81953 12.2577 9.59621 0.5
847 4.27057 7.38663 6.35597 0.5
848 4.69056 6.8258 11.9944 0.5
849 0.391028 12.8878 6.4012 0.5
850 10.4655 11.93 11.841 0.5
851 6.74777 10.8386 6.49116 0.5
852 7.07971 10.2947 7.30511 0.5
853 4.27835 6.9781 9.21022 0.5
854 10.2546 6.4089 4.06756 0.5
855 9.08977 10.4137 3.84229 0.5
856 2.7505 0.0519586 3.39492 0.5
857 9.81501 4.59952 10.7184 0.5
858 7.77921 9.55657 9.00779 0.5
859 10.9394 4.54295 5.93787 0.5
860 10.122 3.93407 5.696 0.5
861 10.8108 0.863742 6.04717 0.5
862 10.0841 6.76448 11.4684 0.5
863 7.8815 8.14174 5.01627 0.5
864 7.881 7.58867 7.53763 0.5
865 12.0204 3.55328 1.173 0.5
866 5.39304 12.1081 1.79685 0.5
867 12.4697 3.99297 1.95748 0.5
868 9.88949 9.36997 9.0545 0.5
869 4.34885 1.07271 0.585977 0.5
870 3.62663 8.36254 6.35766 0.5
871 11.8312 8.70734 5.25234 0.5
872 1.76567 6.02342 12.501 0.5
873 13.1582 0.137424 2.44976 0.5
874 7.89134 6.28701 12.8445 0.5
875 7.13873 11.5632 5.94919 0.5
876 2.04891 6.20473 8.28307 0.5
877 11.5044 7.88452 7.89461 0.5
878 2.02115 11.2618 0.162204 0.5
879 2.61491 3.69578 7.09045 0.5
880 11.9238 0.615507 1.45087 0.5
881 10.5654 11.2886 12.5937 0.5
882 1.294 10.4223 4.19638 0.5
883 10.423 12.2932 1.41535 0.5
884 13.4178 3.7837 1.95627 0.5
885 8.44942 10.5422 11.2219 0.5
886 0.596227 3.04227 8.36949 0.5
887 0.671105 1.341 13.1825 0.5
888 5.52484 4.48048 2.2291 0.5
889 10.9158 4.17096 9.01757 0.5
890 11.5052 8.33181 6.21132 0.5
891 3.08834 5.8665 3.3733 0.5
892 9.02301 13.213 10.1916 0.5
893 10.5917 3.72831 8.25496 0.5
894 7.48749 7.39412 1.5891 0.5
895 12.0448 8.47773 1.01331 0.5
896 7.4139 12.1217 0.634709 0.5
897 5.98081 12.0626 3.39573 0.5
898 4.67227 12.0851 2.48348 0.5
899 10.7606 4.36385 10.6778 0.5
900 11.4209 12.094 9.40905 0.5
901 0.149584 5.13975 9.88264 0.5
902 10.7274 6.36266 9.04795 0.5
903 9.92373 7.96234 3.23383 0.5
904 8.30297 3.13626 3.96798 0.5
905 0.103211 6.4922 5.77244 0.5
906 12.6687 5.292 3.84349 0.5
907 6.7475 4.18104 10.4249 0.5
908 8.13073 0.106374 4.14015 0.5
909 9.65206 3.26337 2.7056 0.5
910 8.74425 1.83366 6.72122 0.5
911 6.20165 6.20868 12.3758 0.5
912 8.28926 8.30085 11.2087 0.5
913 11.752 5.64411 13.2908 0.5
914 4.43761 0.867977 1.67263 0.5
915 7.99069 3.20153 5.68716 0.5
916 10.9685 8.17801 7.0985 0.5
917 12.1439 1.15695 11.6519 0.5
918 8.36708 5.96714 8.02224 0.5
919 12.4252 11.8889 0.710466 0.5
920 0.499865 12.1381 9.82117 0.5
921 6.5821 5.875 7.1191 0.5
922 13.4927 3.37135 12.5734 0.5
923 1.1465 2.86188 9.19997 0.5
924 10.5541 12.5711 9.68686 0.5
925 10.1572 4.12328 2.43587 0.5
926 4.88808 10.6706 12.6272 0.5
927 1.49965 7.57367 5.09086 0.5
928 13.206 6.57909 6.63174 0.5
929 1.82098 2.27866 10.6151 0.5
930 10.1443 10.1043 8.3764 0.5
931 5.36328 9.28733 11.8609 0.5
932 3.47068 8.68858 2.98727 0.5
933 13.4365 11.7981 0.953449 0.5