ITEM: TIMESTEP
390000
ITEM: NUMBER OF ATOMS
1000
ITEM: BOX BOUNDS xy xz yz pp pp pp
0.0000000000000000e+00 1.3572088000000001e+01 0.0000000000000000e+00
0.0000000000000000e+00 1.3572088000000001e+01 0.0000000000000000e+00
0.0000000000000000e+00 1.3572088000000001e+01 0.0000000000000000e+00
ITEM: ATOMS id x y z radius
1 4.23652 3.9103 12.219 0.5
2 5.58922 10.9801 3.13004 0.5
3 8.80953 10.3364 2.74356 0.5
4 9.80236 5.64016 0.961526 0.5
5 9.23466 7.63105 10.6761 0.5
6 4.17991 12.3552 4.92431 0.5
7 2.35544 8.42525 1.18859 0.5
8 13.3175 11.9352 2.06758 0.5
9 1.79586 7.61175 5.79158 0.5
10 2.7045 13.0725 10.867 0.5
11 0.243447 9.88483 8.74271 0.5
12 10.4139 5.71339 0.210956 0.5
13 8.93134 11.3868 5.53872 0.5
14 11.0212 2.07957 4.12495 0.5
15 6.4049 1.02067 4.44965 0.5
16 7.47505 6.61018 9.31825 0.5
17 7.43004 12.2727 10.6569 0.5
18 2.61272 8.28777 5.95447 0.5
19 10.3392 5.40452 1.76586 0.5
20 9.98882 11.9547 3.17768 0.5
21 1.6663 4.5664 1.32068 0.5
22 2.25415 5.87595 11.6968 0.5
23 1.58022 1.61385 10.1518 0.5
24 7.42893 7.24168 2.27889 0.5
25 1.16386 6.71813 3.26142 0.5
26 10.3573 10.1449 6.13752 0.5
27 11.1768 6.77888 12.4118 0.5
28 4.89227 11.3316 12.1183 0.5
29 13.3262 6.16206 1.30348 0.5
30 8.3389 10.9151 1.24034 0.5
31 0.465952 13.4973 8.5747 0.5
32 9.16523 2.47704 12.9085 0.5
33 13.1744 6.10207 9.91643 0.5
34 3.50009 8.71302 5.66206 0.5
35 11.8186 6.51107 13.238 0.5
36 9.13092 2.08832 5.50993 0.5
37 0.50573 1.31606 3.11349 0.5
38 3.25992 1.58347 1.71153 0.5
39 10.5421 4.45213 1.76132 0.5
40 5.74536 5.92843 6.60228 0.5
41 8.4846 11.239 4.75884 0.5
42 6.93435 5.22161 3.6311 0.5
43 5.00983 5.3738 9.97361 0.5
44 4.60976 11.1336 8.82437 0.5
45 7.40554 6.2134 2.15894 0.5
46 10.0908 11.1007 -0.0292844 0.5
47 2.62868 9.1597 5.45435 0.5
48 7.76996 10.651 0.547574 0.5
49 5.76768 12.6023 9.40563 0.5
50 6.32431 0.966743 10.2459 0.5
51 13.3355 10.0655 7.11993 0.5
52 6.28688 11.0378 6.94894 0.5
53 9.68901 3.90054 1.99104 0.5
54 11.8145 11.5892 4.02819 0.5
55 0.547269 1.35062 6.41384 0.5
56 13.3876 4.46688 3.49985 0.5
57 0.227606 11.4389 11.026 0.5
58 5.45948 8.40064 10.5077 0.5
59 1.73808 10.942 11.4114 0.5
60 7.41725 4.95806 9.33899 0.5
61 4.27661 13.3775 11.177 0.5
62 0.464067 8.17345 0.625381 0.5
63 11.7953 8.52219 1.94303 0.5
64 12.2838 2.23107 10.3569 0.5
65 13.1954 1.42577 5.11628 0.5
66 13.0982 1.39174 1.60833 0.5
67 7.92316 2.96147 7.66636 0.5
68 3.29004 1.6399 2.73114 0.5
69 11.8505 2.91576 10.8615 0.5
70 13.02 3.75715 10.2404 0.5
71 2.43678 7.00122 8.9317 0.5
72 7.44238 2.56689 10.8337 0.5
73 8.1739 6.69077 8.58602 0.5
74 5.90501 4.91536 10.2356 0.5
75 9.30581 0.377375 10.4589 0.5
76 12.5533 2.9175 13.4729 0.5
77 10.3813 2.6189 3.42464 0.5
78 8.98946 3.06703 5.08278 0.5
79 4.05616 12.2503 5.80802 0.5
80 5.23653 2.45617 8.23714 0.5
81 1.4832 2.93131 12.3941 0.5
82 1.06142 8.84757 0.0344186 0.5
83 3.89155 0.789109 5.90065 0.5
84 13.1063 9.18009 8.95798 0.5
85 0.032471 3.253 7.13362 0.5
86 2.77412 0.761473 0.329971 0.5
87 4.35805 5.42831 5.86442 0.5
88 6.55453 5.60185 4.53226 0.5
89 11.7074 12.1671 7.14728 0.5
90 4.38102 5.81376 4.22441 0.5
91 11.4459 7.44295 11.7874 0.5
92 0.368484 1.73008 2.14033 0.5
93 12.8892 0.255273 12.6769 0.5
94 4.79171 9.65954 12.358 0.5
95 11.9647 1.0634 7.75173 0.5
96 11.8354 2.63831 4.17723 0.5
97 11.8878 2.74176 5.26676 0.5
98 11.133 9.719 13.5034 0.5
99 6.54898 8.69095 9.05852 0.5
100 0.736344 6.36166 6.23775 0.5
101 4.94788 11.66 2.63 0.5
102 8.32949 7.71665 10.3081 0.5
103 4.04749 5.08107 10.3978 0.5
104 6.8886 11.0121 5.39277 0.5
105 11.5383 12.4805 6.0929 0.5
106 6.07433 1.63021 11.0018 0.5
107 12.9749 4.4185 8.02583 0.5
108 0.627598 10.6041 5.19171 0.5
109 0.321971 12.1933 9.5702 0.5
110 8.05077 9.41888 8.58223 0.5
111 8.89459 -0.00348909 3.31674 0.5
112 6.68607 0.775574 5.38797 0.5
113 1.01672 0.403695 6.25297 0.5
114 7.31592 6.71516 3.00994 0.5
115 5.73692 5.86711 12.2201 0.5
116 13.5088 5.63106 2.18406 0.5
117 1.05323 0.24943 5.26124 0.5
118 10.9766 9.31486 6.26815 0.5
119 12.7551 8.48178 1.64808 0.5
120 5.09994 9.12644 3.92071 0.5
121 11.688 13.0456 11.2716 0.5
122 2.50313 3.29549 2.36007 0.5
123 12.3906 2.3675 9.39866 0.5
124 10.5504 11.4994 11.5288 0.5
125 5.15354 11.7905 3.63126 0.5
126 11.0277 11.2564 13.2433 0.5
127 7.35359 10.3856 11.3903 0.5
128 4.88073 2.87734 7.27742 0.5
129 2.06798 6.74299 11.9786 0.5
130 0.993164 11.9227 10.3157 0.5
131 7.90232 2.20794 1.92958 0.5
132 5.62341 12.144 2.09313 0.5
133 1.01268 11.0543 10.6214 0.5
134 10.9904 11.8908 3.56169 0.5
135 12.3072 1.88285 5.65633 0.5
136 8.09919 4.90829 4.75499 0.5
137 3.3016 12.6264 5.35321 0.5
138 7.24612 12.1825 12.9357 0.5
139 5.90982 0.0903063 0.0822816 0.5
140 5.87116 3.06429 4.34646 0.5
141 1.10464 3.85619 4.95269 0.5
142 10.0856 2.88166 12.7244 0.5
143 0.663362 13.1072 13.3896 0.5
144 9.01889 12.8698 9.07436 0.5
145 6.61847 6.67369 2.23525 0.5
146 9.64799 9.15444 9.16656 0.5
147 4.52472 6.84133 0.682395 0.5
148 12.317 0.301171 11.1713 0.5
149 7.92194 6.72359 10.2536 0.5
150 12.6706 11.4844 3.36113 0.5
151 6.69886 12.5689 9.88672 0.5
152 3.40552 4.25607 11.8141 0.5
153 11.7253 7.39412 7.81478 0.5
154 2.82245 2.3778 2.11021 0.5
155 2.17555 8.3639 10.6272 0.5
156 7.94448 12.2043 0.0451275 0.5
157 1.90811 0.716153 3.60208 0.5
158 1.09872 10.3011 8.49599 0.5
159 3.92546 1.79657 9.66168 0.5
160 9.81312 0.417514 11.3767 0.5
161 12.8186 2.92619 10.8769 0.5
162 6.24224 2.78028 8.47051 0.5
163 11.2644 9.73191 0.885706 0.5
164 9.62876 3.31776 11.1235 0.5
165 7.38596 11.4318 11.0804 0.5
166 11.05 12.8659 6.94702 0.5
167 10.9387 7.78059 8.3165 0.5
168 1.55625 3.2311 7.6388 0.5
169 10.2893 11.4316 12.6347 0.5
170 3.85672 6.70652 0.0148426 0.5
171 10.6776 5.08051 0.926967 0.5
172 10.8902 8.00224 10.3154 0.5
173 8.84692 10.2126 1.70887 0.5
174 4.3954 0.885807 13.494 0.5
175 2.70807 6.38615 4.0412 0.5
176 4.06599 5.54774 3.23491 0.5
177 9.32313 4.00803 5.52105 0.5
178 6.13273 2.06478 4.30665 0.5
179 12.6428 5.90592 2.03683 0.5
180 9.222 3.03578 12.0378 0.5
181 10.9514 11.2269 9.53301 0.5
182 3.14279 11.562 1.26049 0.5
183 8.38782 7.1757 6.03074 0.5
184 10.0496 4.34044 9.04065 0.5
185 9.00824 1.01873 11.1557 0.5
186 4.14667 8.73906 2.54551 0.5
187 5.20463 0.518958 12.9693 0.5
188 4.73889 5.62895 6.77585 0.5
189 13.3686 11.1441 6.61912 0.5
190 9.65781 12.928 3.02728 0.5
191 9.30567 7.38029 3.51658 0.5
192 10.4993 1.19148 13.4586 0.5
193 11.4757 2.50459 9.98603 0.5
194 9.70886 13.1374 10.9553 0.5
195 0.12876 10.0651 12.1373 0.5
196 9.15181 0.745144 4.01961 0.5
197 2.63561 6.79489 7.93937 0.5
198 6.65916 5.3589 12.4262 0.5
199 11.2735 1.30598 8.57475 0.5
200 7.09608 6.81747 1.3839 0.5
201 13.5524 3.57954 8.00545 0.5
202 6.49949 0.127501 8.26877 0.5
203 1.94672 3.72358 1.69351 0.5
204 2.22418 8.48508 8.11841 0.5
205 13.0436 13.1754 3.55354 0.5
206 0.696567 1.24188 10.1598 0.5
207 4.28286 11.8701 9.42238 0.5
208 9.2979 5.00745 5.73198 0.5
209 5.25438 2.30333 4.00069 0.5
210 4.4669 6.30017 5.24662 0.5
211 4.10642 4.03838 10.2845 0.5
212 3.39704 5.62105 4.06239 0.5
213 3.64452 1.83321 5.57975 0.5
214 10.0028 4.29669 11.1756 0.5
215 8.09628 6.74423 1.60543 0.5
216 6.62323 8.50376 0.292046 0.5
217 3.82647 10.6329 5.355 0.5
218 6.3259 7.96322 4.40949 0.5
219 9.16848 0.92427 2.94067 0.5
220 6.00192 1.98248 10.1514 0.5
221 2.79715 3.30832 6.03785 0.5
222 7.52432 11.5275 4.75907 0.5
223 4.6028 9.44398 3.06835 0.5
224 12.0677 9.3271 3.79391 0.5
225 8.03782 11.5788 10.2702 0.5
226 10.9021 6.50639 0.254239 0.5
227 13.5059 7.59659 10.1964 0.5
228 4.07682 11.305 5.99629 0.5
229 5.47805 4.26107 6.46973 0.5
230 5.99531 9.32686 8.55051 0.5
231 7.90968 5.72887 8.84857 0.5
232 7.07355 4.46455 12.9485 0.5
233 1.46952 0.608189 9.70665 0.5
234 11.6165 1.93211 4.88872 0.5
235 1.40276 11.0118 3.32432 0.5
236 10.7442 6.00668 1.13888 0.5
237 5.01315 7.791 6.75046 0.5
238 0.59537 12.3389 5.86768 0.5
239 9.63409 8.19021 3.7568 0.5
240 0.844035 4.92817 0.0525221 0.5
241 4.13918 5.90629 0.653608 0.5
242 3.11823 0.700699 2.41306 0.5
243 2.48139 9.9214 3.05372 0.5
244 3.23492 11.9612 6.16831 0.5
245 1.17287 11.7646 11.3597 0.5
246 9.69729 9.82001 8.40085 0.5
247 3.79056 0.635126 11.036 0.5
248 7.67085 2.47451 2.83747 0.5
249 10.6892 2.21284 13.4288 0.5
250 10.0421 1.78525 0.441282 0.5
251 5.26556 9.83626 11.4874 0.5
252 8.45234 8.45959 12.9868 0.5
253 1.37169 8.34219 0.945071 0.5
254 10.5878 2.50975 2.46065 0.5
255 8.25133 9.64568 2.26688 0.5
256 1.62404 13.3674 3.23851 0.5
257 0.760989 3.71818 7.4358 0.5
258 12.7256 6.62765 6.82553 0.5
259 4.41399 4.66674 9.61838 0.5
260 6.00509 11.7674 10.0871 0.5
261 11.1929 3.27674 5.8307 0.5
262 7.88088 11.1562 5.72097 0.5
263 2.4292 4.39906 8.63897 0.5
264 10.2171 10.8023 8.6573 0.5
265 1.63957 4.71235 5.41005 0.5
266 3.98172 13.3005 5.66906 0.5
267 5.20084 7.50356 8.98525 0.5
268 6.90614 2.49629 2.27149 0.5
269 9.41764 0.11448 8.84258 0.5
270 6.56392 9.65998 7.7344 0.5
271 10.8878 11.8107 6.52573 0.5
272 6.12369 9.1071 0.793108 0.5
273 7.91973 4.99217 3.7413 0.5
274 9.74347 3.48474 8.53675 0.5
275 3.15336 10.7522 0.627214 0.5
276 5.10312 1.5193 13.0865 0.5
277 7.9191 4.65516 13.4364 0.5
278 10.7696 10.5631 0.517666 0.5
279 9.41516 10.7089 4.90038 0.5
280 4.68853 12.4702 1.88889 0.5
281 6.53662 2.50516 10.8272 0.5
282 0.0994002 11.2079 1.35807 0.5
283 5.26429 5.68002 1.79898 0.5
284 2.25925 10.7234 0.167113 0.5
285 3.51013 9.69954 5.64668 0.5
286 2.73797 1.00107 12.9227 0.5
287 7.67011 7.09617 6.76286 0.5
288 6.00222 0.0357766 6.70406 0.5
289 2.32619 10.8717 3.03057 0.5
290 1.32264 13.0597 5.88141 0.5
291 5.96184 0.945908 6.00501 0.5
292 4.23059 3.15717 12.9483 0.5
293 10.8013 5.93522 3.89738 0.5
294 2.56695 10.0055 5.90502 0.5
295 2.89563 1.25677 6.17197 0.5
296 13.3732 4.20422 7.12557 0.5
297 10.0377 10.9891 11.0408 0.5
298 9.81888 4.60922 12.144 0.5
299 1.91269 0.497411 13.4854 0.5
300 9.62368 4.89551 2.2726 0.5
301 6.3372 7.28248 11.6785 0.5
302 2.49907 8.97682 3.0068 0.5
303 11.8581 9.11846 2.83504 0.5
304 0.0389614 7.07608 6.68379 0.5
305 8.09893 12.7712 8.16994 0.5
306 11.9873 8.21115 1.01218 0.5
307 2.92508 6.92796 3.21191 0.5
308 13.2547 9.82661 11.2439 0.5
309 13.1249 12.8956 12.2459 0.5
310 9.49965 13.3318 3.98443 0.5
311 13.1221 5.22965 7.11789 0.5
312 6.9846 11.5988 10.1957 0.5
313 1.12363 10.9343 4.22243 0.5
314 6.49634 11.8762 9.26266 0.5
315 12.9037 5.02422 2.70065 0.5
316 8.28765 5.95774 7.84897 0.5
317 13.0223 8.8473 4.12976 0.5
318 12.8783 4.67016 6.37486 0.5
319 10.7968 11.6163 0.567697 0.5
320 5.63141 3.46382 6.96122 0.5
321 2.51676 12.7424 2.99523 0.5
322 10.5392 13.4187 0.934158 0.5
323 4.08377 1.23275 2.19571 0.5
324 10.8983 3.33843 3.03211 0.5
325 1.35624 5.28718 0.779683 0.5
326 10.7956 13.1036 0.00804837 0.5
327 8.5637 2.29387 8.02072 0.5
328 12.1917 6.95759 12.4088 0.5
329 7.20679 3.2605 8.3702 0.5
330 8.39553 0.786289 4.65391 0.5
331 4.84831 3.09591 4.3189 0.5
332 12.2437 1.77714 8.38322 0.5
333 13.2196 1.48878 2.73532 0.5
334 4.47131 6.18116 1.50671 0.5
335 9.95054 0.514345 4.57684 0.5
336 4.02665 1.10168 8.91838 0.5
337 11.868 1.18293 11.0555 0.5
338 7.681 5.8125 9.76729 0.5
339 10.3531 4.18973 2.72383 0.5
340 12.9778 4.02525 12.3482 0.5
341 8.79494 0.232487 9.54567 0.5
342 6.30555 13.5404 5.69018 0.5
343 6.89305 5.79596 9.12851 0.5
344 4.97404 6.67365 6.86146 0.5
345 8.37947 8.18483 6.00347 0.5
346 0.305853 7.16656 5.60513 0.5
347 13.3532 11.308 0.459404 0.5
348 1.70075 4.42302 0.317599 0.5
349 7.9514 6.24179 6.30363 0.5
350 8.51997 7.06753 10.9978 0.5
351 2.1395 9.31741 11.1983 0.5
352 8.82229 12.5037 7.41977 0.5
353 8.43314 7.44522 0.771827 0.5
354 2.24219 2.76224 5.47977 0.5
355 2.06029 7.08076 3.6703 0.5
356 12.2683 13.3259 4.2125 0.5
357 6.79488 12.2361 3.42091 0.5
358 4.38785 1.37469 10.5834 0.5
359 7.07523 9.44407 8.64608 0.5
360 12.5034 3.84153 6.607 0.5
361 3.47497 1.19371 8.13678 0.5
362 1.11756 1.4 9.23724 0.5
363 10.2039 12.4374 0.540453 0.5
364 3.01153 7.61714 1.13867 0.5
365 2.09373 7.62978 0.653931 0.5
366 6.37604 8.68074 8.10134 0.5
367 10.6072 12.1005 13.3191 0.5
368 5.45839 4.64218 9.49853 0.5
369 1.77556 3.27273 4.64182 0.5
370 0.263267 10.3322 6.14663 0.5
371 9.88435 0.396514 3.37901 0.5
372 0.204371 5.03429 4.17948 0.5
373 4.92218 2.50409 12.7649 0.5
374 0.432963 9.25246 12.8015 0.5
375 0.532434 9.73553 7.86392 0.5
376 2.02653 11.4409 3.87951 0.5
377 7.53945 5.6419 4.28985 0.5
378 6.04394 9.40474 13.4042 0.5
379 5.0097 5.89175 0.684225 0.5
380 7.41164 3.91395 0.262009 0.5
381 9.63327 2.64513 7.96312 0.5
382 9.16774 2.69057 8.81155 0.5
383 2.33538 5.05221 0.666334 0.5
384 5.3526 10.0213 13.0956 0.5
385 12.761 11.4882 1.41867 0.5
386 0.431458 4.02577 4.15948 0.5
387 2.62035 6.75446 11.2008 0.5
388 1.4532 2.59684 10.3989 0.5
389 4.76793 9.13781 10.2473 0.5
390 4.89893 4.53236 10.435 0.5
391 6.94487 0.854585 1.95823 0.5
392 0.161791 5.26407 3.15734 0.5
393 2.57285 5.17625 9.23861 0.5
394 8.99926 9.10832 8.36377 0.5
395 1.33878 0.502671 8.73897 0.5
396 0.375967 2.32186 2.90928 0.5
397 7.07686 1.76655 1.47687 0.5
398 9.1567 12.0496 2.67846 0.5
399 1.14132 4.66284 4.46532 0.5
400 6.58509 8.77023 5.13005 0.5
401 9.78516 2.73404 0.0682088 0.5
402 4.73383 7.17831 5.93731 0.5
403 6.34634 12.8063 7.84322 0.5
404 11.0847 11.0244 12.2163 0.5
405 12.0635 5.49157 13.2785 0.5
406 6.70772 3.41985 1.71242 0.5
407 1.77035 11.9541 3.03283 0.5
408 1.92424 3.69365 5.63154 0.5
409 3.42592 4.27741 10.8351 0.5
410 11.3384 2.41451 3.23597 0.5
411 4.67251 6.24181 13.3952 0.5
412 5.27838 0.942474 0.274596 0.5
413 3.35196 6.83047 8.64652 0.5
414 2.98045 8.77861 10.9245 0.5
415 7.9064 9.84591 10.8029 0.5
416 8.56591 10.4777 5.50318 0.5
417 1.17208 13.2357 9.2553 0.5
418 9.84847 1.10637 10.6169 0.5
419 3.63851 12.6422 11.141 0.5
420 4.01792 0.156396 6.66679 0.5
421 13.4447 5.21361 9.72055 0.5
422 8.37544 4.50932 5.70042 0.5
423 12.7579 13.2845 2.60083 0.5
424 2.74279 3.56322 5.01475 0.5
425 8.56765 8.0944 11.3621 0.5
426 0.667155 12.66 7.61591 0.5
427 7.34133 2.72696 1.4158 0.5
428 0.484976 8.98483 9.2059 0.5
429 10.2179 5.38366 9.09706 0.5
430 8.87732 0.119365 11.459 0.5
431 2.05868 5.30774 8.40626 0.5
432 13.1322 2.30393 2.30784 0.5
433 7.46464 11.3218 13.4207 0.5
434 0.291655 3.95833 0.288295 0.5
435 11.2124 8.71681 1.25985 0.5
436 6.78614 5.40769 10.0077 0.5
437 3.98467 9.12911 6.40724 0.5
438 5.51197 3.358 7.94784 0.5
439 11.3129 10.629 10.2441 0.5
440 9.59683 10.6979 5.88078 0.5
441 6.80225 0.457665 6.36314 0.5
442 0.946968 7.38967 6.31166 0.5
443 1.25163 11.1143 1.37791 0.5
444 9.16117 9.08061 13.1411 0.5
445 5.04654 8.4777 3.07832 0.5
446 3.56714 6.38865 4.60851 0.5
447 1.98293 9.15648 6.13845 0.5
448 5.22244 9.54223 0.414893 0.5
449 3.28164 13.4418 11.4834 0.5
450 3.36578 2.52324 1.28867 0.5
451 7.64979 3.67732 1.21511 0.5
452 2.04096 8.61789 0.211807 0.5
453 5.15614 10.1207 3.68796 0.5
454 3.28507 13.5046 3.06955 0.5
455 1.68714 1.96058 11.9493 0.5
456 8.47856 0.10926 8.51574 0.5
457 12.1976 11.225 8.5237 0.5
458 3.77901 0.759995 9.95962 0.5
459 13.2091 2.40167 5.62047 0.5
460 12.7325 6.32523 12.9568 0.5
461 11.7812 8.10529 10.9463 0.5
462 10.4147 1.88927 7.97483 0.5
463 6.48757 3.35982 7.58467 0.5
464 12.6197 8.09116 10.3347 0.5
465 5.42294 10.4291 12.2134 0.5
466 3.19815 0.236192 6.09086 0.5
467 1.29458 7.9447 13.6217 0.5
468 13.3732 8.39118 9.70941 0.5
469 2.31243 2.80053 11.7217 0.5
470 1.70071 6.54042 11.0907 0.5
471 4.48674 0.356767 10.4399 0.5
472 10.8436 7.01112 3.99709 0.5
473 11.1438 8.15855 7.39882 0.5
474 2.15801 8.01554 8.99251 0.5
475 6.4632 3.83355 6.60046 0.5
476 7.04595 0.953757 10.994 0.5
477 5.90533 8.03691 9.59314 0.5
478 3.09843 12.4192 0.562857 0.5
479 8.54681 7.57538 13.3448 0.5
480 3.86876 10.2479 8.79275 0.5
481 2.47085 4.04795 0.916805 0.5
482 11.5788 13.3971 0.827103 0.5
483 8.92253 11.1536 2.0139 0.5
484 9.90255 7.31068 4.33934 0.5
485 4.39951 5.43638 2.27816 0.5
486 3.55042 11.2162 8.87676 0.5
487 4.68111 1.91576 9.01837 0.5
488 5.37142 4.93334 7.1132 0.5
489 3.81292 0.828791 3.19812 0.5
490 0.63662 12.6057 8.62814 0.5
491 2.89052 7.43335 11.8495 0.5
492 1.09589 5.38829 12.721 0.5
493 11.6556 8.67614 10.1587 0.5
494 7.70418 4.63638 0.894131 0.5
495 6.77799 7.56861 0.769627 0.5
496 6.88902 0.305183 13.3168 0.5
497 4.58054 4.65332 6.64405 0.5
498 3.52315 11.6008 5.26329 0.5
499 7.01631 1.89963 11.4287 0.5
500 9.94683 9.28619 6.17153 0.5
501 5.3587 1.46354 4.56273 0.5
502 9.30814 10.6413 8.72828 0.5
503 8.24793 5.51937 12.9773 0.5
504 2.11614 1.4954 0.0271338 0.5
505 4.45864 2.8725 11.9664 0.5
506 4.07518 11.1294 1.03391 0.5
507 7.79121 4.07229 4.19508 0.5
508 0.492279 1.85831 5.49794 0.5
509 5.268 5.21527 6.05297 0.5
510 8.26306 10.8144 11.0302 0.5
511 6.80624 0.129021 7.28535 0.5
512 8.55402 11.2176 2.97676 0.5
513 4.46859 4.65127 2.92707 0.5
514 6.00115 8.13015 1.066 0.5
515 1.59362 10.1836 2.76749 0.5
516 5.62592 9.32392 3.06282 0.5
517 1.43408 3.82446 3.90303 0.5
518 1.91944 7.44032 8.23658 0.5
519 5.21736 7.50396 9.9991 0.5
520 1.8857 0.787756 0.784357 0.5
521 11.3909 6.53692 4.63382 0.5
522 2.83224 9.22282 11.9041 0.5
523 13.3407 8.3891 3.28631 0.5
524 1.19472 1.20641 5.69456 0.5
525 11.5478 8.77893 0.328821 0.5
526 8.80431 12.1396 8.38694 0.5
527 7.3529 10.9983 1.39546 0.5
528 1.08173 0.264135 0.432832 0.5
529 0.128987 12.2485 0.132334 0.5
530 12.1796 3.18072 9.983 0.5
531 11.0401 8.80588 10.9913 0.5
532 5.8024 8.85824 4.57705 0.5
533 5.62469 7.45788 10.9791 0.5
534 1.89269 12.549 11.2148 0.5
535 8.08658 12.8709 12.8071 0.5
536 1.89076 12.4811 3.77422 0.5
537 2.52871 11.2869 8.75738 0.5
538 7.81551 10.0204 1.38377 0.5
539 2.59692 7.95995 3.33287 0.5
540 0.989677 3.49464 8.34983 0.5
541 4.0598 11.6265 2.01738 0.5
542 7.90331 0.245422 12.8422 0.5
543 12.6886 5.66508 6.36564 0.5
544 7.59648 2.22045 8.28721 0.5
545 1.94772 7.24282 2.7952 0.5
546 1.0549 0.385683 12.9295 0.5
547 10.87 5.65089 4.77623 0.5
548 11.9444 13.1412 6.74487 0.5
549 12.6106 9.34816 7.06206 0.5
550 12.8354 12.3315 2.92067 0.5
551 6.26857 1.60926 2.04472 0.5
552 3.84785 7.60121 0.398881 0.5
553 10.9214 4.74087 8.78701 0.5
554 3.40881 12.8613 6.34165 0.5
555 0.844209 4.59794 3.48656 0.5
556 7.11212 13.2479 12.5473 0.5
557 7.6343 11.617 0.773464 0.5
558 4.74001 1.17846 9.65892 0.5
559 3.12042 10.5479 8.28891 0.5
560 6.9953 2.89619 11.6584 0.5
561 8.04917 8.48931 12.0607 0.5
562 13.556 3.11863 13.5768 0.5
563 8.55295 6.57757 6.96676 0.5
564 7.79285 5.53102 0.388786 0.5
565 10.2565 4.51856 5.78893 0.5
566 6.99019 1.75761 10.4411 0.5
567 12.2566 4.75149 3.53083 0.5
568 7.79075 1.56185 10.9438 0.5
569 10.6493 6.8489 11.5047 0.5
570 13.4367 8.92832 2.38505 0.5
571 2.88333 0.853838 3.30557 0.5
572 4.27689 3.51351 0.345628 0.5
573 0.40049 13.3198 5.7316 0.5
574 8.8067 8.24864 3.12841 0.5
575 8.70114 13.0374 2.56062 0.5
576 4.05027 10.9068 8.06683 0.5
577 3.47776 9.4076 3.0555 0.5
578 2.25348 10.9783 1.14513 0.5
579 12.7121 9.95426 12.0884 0.5
580 2.6825 5.81606 7.7289 0.5
581 1.37532 13.1981 8.26836 0.5
582 2.84384 12.0988 11.0312 0.5
583 3.08476 10.9536 13.3112 0.5
584 10.3643 6.39656 4.654 0.5
585 12.4019 4.59295 7.3055 0.5
586 0.542309 5.9924 9.85575 0.5
587 12.9585 2.98505 1.61614 0.5
588 13.2784 13.0203 13.1904 0.5
589 13.1539 9.53735 8.00734 0.5
590 4.08272 11.9016 8.36542 0.5
591 3.571 3.27277 12.1626 0.5
592 10.8114 11.4405 10.4944 0.5
593 6.30228 10.0942 6.83896 0.5
594 13.2569 11.0261 5.62848 0.5
595 13.3147 10.051 5.45884 0.5
596 9.28364 9.53111 2.3566 0.5
597 2.215 10.3444 8.619 0.5
598 7.83722 10.5577 4.95554 0.5
599 11.2478 10.9843 8.59876 0.5
600 11.8896 6.06531 12.3972 0.5
601 3.07854 5.93026 3.16738 0.5
602 0.178898 6.68644 10.5486 0.5
603 2.84734 7.73338 10.9143 0.5
604 5.37491 1.1045 10.4676 0.5
605 7.87025 2.2999 11.6726 0.5
606 11.3525 8.59497 5.46143 0.5
607 8.76587 10.0981 8.07974 0.5
608 8.04203 13.3407 11.8869 0.5
609 1.59099 11.3403 0.493168 0.5
610 1.1329 9.32812 8.49281 0.5
611 0.252897 8.81129 8.27559 0.5
612 5.7706 13.4415 3.16686 0.5
613 3.91548 5.50638 4.99961 0.5
614 3.65848 13.3708 10.458 0.5
615 2.99414 10.5836 9.34125 0.5
616 13.3599 6.60646 2.1799 0.5
617 6.65133 5.88312 2.87473 0.5
618 11.1339 6.74473 8.36966 0.5
619 12.4713 4.52442 13.0701 0.5
620 0.720569 10.8229 11.541 0.5
621 2.02075 4.16388 4.70102 0.5
622 5.54907 8.39124 8.77181 0.5
623 12.9579 7.84453 4.11243 0.5
624 13.0768 6.03144 2.94235 0.5
625 1.88005 3.64967 11.6825 0.5
626 2.90234 4.0394 1.80891 0.5
627 9.97356 6.60351 0.663772 0.5
628 13.344 4.65286 10.5566 0.5
629 5.27668 4.02439 3.01908 0.5
630 3.50498 3.6378 1.05821 0.5
631 9.43357 1.05016 0.207025 0.5
632 6.44865 12.8894 13.2786 0.5
633 10.2439 0.781496 0.813501 0.5
634 10.355 10.5936 10.1667 0.5
635 9.84656 1.91329 13.1482 0.5
636 10.0552 3.61517 12.0335 0.5
637 12.7812 10.3594 6.21419 0.5
638 5.71206 0.569308 5.13107 0.5
639 8.93819 6.9118 10.111 0.5
640 2.36461 4.77164 7.64212 0.5
641 7.51023 6.99468 5.74986 0.5
642 11.4486 5.69194 0.412253 0.5
643 10.7922 0.970684 7.69162 0.5
644 7.03986 3.42454 10.7487 0.5
645 0.598237 11.3079 5.96828 0.5
646 9.04997 8.59112 12.1991 0.5
647 8.72579 4.91835 12.1683 0.5
648 8.22803 10.1245 11.78 0.5
649 5.3755 7.43183 12.0113 0.5
650 3.40067 0.796098 6.98453 0.5
651 0.0338213 5.41536 6.16824 0.5
652 5.01884 3.9588 7.36877 0.5
653 0.506359 6.21398 2.81344 0.5
654 4.68507 10.0354 10.7985 0.5
655 11.6909 11.7769 9.10284 0.5
656 0.690342 10.8016 0.657238 0.5
657 11.456 0.230027 7.22164 0.5
658 9.62785 9.90362 5.52333 0.5
659 0.921392 10.2035 3.56849 0.5
660 0.589593 0.505824 9.35138 0.5
661 1.25359 8.30775 8.61525 0.5
662 3.09061 10.9992 5.91379 0.5
663 5.92997 12.5301 3.66666 0.5
664 5.09788 6.23009 5.9202 0.5
665 10.6179 11.0972 3.02884 0.5
666 5.37839 11.7252 9.29363 0.5
667 9.4731 4.29377 8.1307 0.5
668 5.42015 3.15884 3.45622 0.5
669 8.08117 10.5988 2.20037 0.5
670 9.11243 13.0027 8.0883 0.5
671 6.93339 8.48435 1.25394 0.5
672 3.25618 2.5953 5.36959 0.5
673 5.65244 8.55185 0.169186 0.5
674 3.33307 8.25634 11.7204 0.5
675 2.93429 3.51048 11.2895 0.5
676 2.33741 0.162645 2.7951 0.5
677 3.38145 8.46952 3.02235 0.5
678 11.814 7.68611 10.0389 0.5
679 10.4997 12.6741 6.13528 0.5
680 4.94417 11.5544 1.5489 0.5
681 3.19319 1.29471 9.1283 0.5
682 2.08264 3.21535 10.8584 0.5
683 1.27165 6.11861 11.9178 0.5
684 12.1646 13.0291 3.22738 0.5
685 12.4342 12.377 3.84848 0.5
686 10.7259 7.86997 11.2573 0.5
687 5.05062 9.02384 13.143 0.5
688 0.920597 7.82811 5.34645 0.5
689 3.45866 3.18364 2.01498 0.5
690 4.30603 8.41227 7.127 0.5
691 13.223 10.7772 11.5503 0.5
692 4.87215 0.0462293 0.248248 0.5
693 10.9756 5.97856 11.9198 0.5
694 5.53092 9.0878 9.56432 0.5
695 12.5559 8.39515 2.56093 0.5
696 10.5113 2.99876 8.05238 0.5
697 13.5796 9.04534 7.29608 0.5
698 6.02783 10.6557 6.02278 0.5
699 2.9074 8.09549 0.341848 0.5
700 12.3756 8.39009 3.54434 0.5
701 9.31231 7.98554 13.0121 0.5
702 3.78519 2.10844 8.70819 0.5
703 1.81419 5.28231 13.3915 0.5
704 8.21479 2.99858 8.66113 0.5
705 10.164 7.16859 8.38483 0.5
706 7.17842 11.9445 5.61308 0.5
707 3.37038 4.57998 9.79762 0.5
708 13.5796 2.19631 1.41574 0.5
709 10.0536 0.239216 0.0310471 0.5
710 7.00084 6.2117 3.73769 0.5
711 0.143693 0.371899 13.341 0.5
712 13.1355 2.76689 9.89017 0.5
713 8.2964 9.19119 7.63498 0.5
714 12.7452 3.63243 7.49912 0.5
715 12.7967 9.19499 3.13452 0.5
716 2.09496 2.04539 10.974 0.5
717 2.88386 7.13498 0.255429 0.5
718 11.4869 0.272457 8.26224 0.5
719 4.47517 10.4197 11.7876 0.5
720 12.4475 11.5785 2.40776 0.5
721 10.2391 5.09838 8.134 0.5
722 6.15288 0.0540734 12.6386 0.5
723 3.05312 12.1693 8.71365 0.5
724 9.69542 13.378 9.76373 0.5
725 2.60278 1.85159 5.27845 0.5
726 6.84699 2.4569 7.72549 0.5
727 5.10363 3.18345 13.427 0.5
728 12.5751 2.18787 4.72473 0.5
729 9.72195 4.67947 1.30868 0.5
730 8.44828 5.61133 6.92596 0.5
731 11.0287 0.445785 0.246957 0.5
732 1.95673 3.44486 8.66283 0.5
733 8.40638 11.2895 0.144241 0.5
734 10.4727 11.0992 5.94871 0.5
735 2.75999 6.05358 8.67895 0.5
736 4.26177 4.49068 11.2617 0.5
737 5.36364 3.90844 4.04238 0.5
738 2.01689 7.52823 11.3302 0.5
739 7.58967 0.0144701 7.99493 0.5
740 12.2213 0.741232 8.70473 0.5
741 7.60195 4.17086 5.14744 0.5
742 5.22674 8.76903 1.10957 0.5
743 6.88189 7.75305 5.28105 0.5
744 5.11463 3.46841 12.4729 0.5
745 7.4752 5.97819 12.385 0.5
746 4.93406 8.3077 9.61443 0.5
747 13.1753 0.13234 11.6772 0.5
748 7.33795 8.94534 7.7736 0.5
749 5.97307 9.70376 3.90709 0.5
750 1.2391 1.11235 13.5596 0.5
751 13.1412 8.58222 12.8785 0.5
752 1.73239 1.12548 12.6863 0.5
753 6.32205 2.48239 1.41091 0.5
754 2.19634 11.7129 11.7634 0.5
755 6.79331 4.28574 1.07732 0.5
756 6.61749 7.6071 1.78701 0.5
757 11.7063 6.55057 11.5323 0.5
758 4.53125 11.4796 5.1004 0.5
759 12.4736 9.29511 2.1043 0.5
760 7.13785 4.74813 4.51022 0.5
761 3.58853 11.5896 0.288625 0.5
762 0.161905 3.18135 1.04524 0.5
763 12.4405 0.375569 3.35584 0.5
764 8.65178 9.31789 3.13508 0.5
765 12.9483 2.55427 0.742698 0.5
766 8.07737 3.24014 4.76669 0.5
767 3.56641 6.74975 1.03376 0.5
768 12.6489 12.8711 11.2922 0.5
769 11.2102 2.28168 5.84768 0.5
770 10.6039 7.81045 6.62862 0.5
771 7.4536 7.88872 6.18743 0.5
772 1.10996 1.70731 11.0591 0.5
773 8.85986 3.37844 8.10944 0.5
774 9.52041 0.152172 2.4348 0.5
775 10.6595 13.5106 11.3243 0.5
776 2.97205 9.1996 6.41096 0.5
777 11.5222 12.6325 3.86862 0.5
778 11.903 12.1035 3.12658 0.5
779 7.9569 7.75119 5.21445 0.5
780 3.19148 11.5058 8.01456 0.5
781 13.2252 1.51921 6.02135 0.5
782 11.0044 3.08965 3.96112 0.5
783 13.3169 9.11728 12.0484 0.5
784 2.62121 2.59188 4.55178 0.5
785 10.5647 9.43417 5.41951 0.5
786 8.61677 4.00655 4.81866 0.5
787 6.28764 12.7371 2.73824 0.5
788 11.2918 7.20219 10.8142 0.5
789 9.37037 4.16408 2.8818 0.5
790 8.5647 0.378636 2.3077 0.5
791 5.86527 6.77352 12.5742 0.5
792 5.87426 2.63021 7.44696 0.5
793 6.6181 8.95471 4.1888 0.5
794 13.3545 0.505888 3.16459 0.5
795 7.30243 8.24489 4.52628 0.5
796 3.98631 10.8265 9.61969 0.5
797 3.98054 3.53915 11.2609 0.5
798 2.4473 3.47515 4.00957 0.5
799 0.258876 0.809393 5.56307 0.5
800 0.509976 8.257 13.045 0.5
801 7.65726 5.75366 3.1224 0.5
802 4.6138 10.6061 12.8185 0.5
803 10.9183 10.5888 11.149 0.5
804 13.59 5.95615 8.97482 0.5
805 8.83901 8.64759 2.24743 0.5
806 2.81155 7.71929 8.35331 0.5
807 3.06418 5.12012 8.34052 0.5
808 1.69634 9.47493 3.38956 0.5
809 9.34713 4.90487 11.2785 0.5
810 2.80721 12.6005 11.7445 0.5
811 10.2458 7.49217 3.3261 0.5
812 2.3971 8.39264 11.5504 0.5
813 7.67444 4.99039 12.3254 0.5
814 9.71874 0.443367 5.54242 0.5
815 11.6237 12.0158 8.15323 0.5
816 9.33842 7.54331 0.434602 0.5
817 11.69 11.1659 3.12764 0.5
818 4.00952 10.6553 0.064157 0.5
819 5.78024 0.0352458 7.67945 0.5
820 0.0959327 13.1613 9.35454 0.5
821 11.018 2.71118 4.94936 0.5
822 9.26228 1.13447 4.99102 0.5
823 10.3223 0.276697 10.4311 0.5
824 1.73085 8.55265 5.42198 0.5
825 7.98913 1.21275 1.88985 0.5
826 6.59444 12.8649 8.93325 0.5
827 11.1563 0.65201 1.21867 0.5
828 4.52402 3.82292 3.53953 0.5
829 4.40799 1.71054 8.10813 0.5
830 4.86978 12.4581 8.79292 0.5
831 11.7045 12.9454 7.7563 0.5
832 0.913017 5.95072 10.8609 0.5
833 1.87799 11.6353 10.7328 0.5
834 9.04963 2.01193 0.127751 0.5
835 1.93593 5.98571 12.6765 0.5
836 7.6677 9.34242 11.663 0.5
837 6.8879 3.23719 0.763402 0.5
838 12.1981 13.4653 12.0231 0.5
839 4.58052 5.22534 1.30732 0.5
840 7.41753 13.0587 13.4972 0.5
841 6.40164 11.6001 6.09784 0.5
842 13.0457 3.9326 11.2546 0.5
843 13.0277 3.08408 12.5306 0.5
844 4.76245 4.0378 13.1231 0.5
845 10.0696 5.54702 5.3875 0.5
846 5.87901 12.2571 8.54952 0.5
847 4.12158 7.41594 6.69921 0.5
848 4.89367 6.4511 12.3567 0.5
849 0.834423 12.9708 6.64111 0.5
850 10.2437 10.6303 11.9255 0.5
851 6.99783 10.8269 6.31823 0.5
852 7.08491 10.4954 7.38176 0.5
853 4.31758 7.51593 9.43774 0.5
854 10.0039 6.59142 3.64882 0.5
855 9.60372 11.0722 2.90846 0.5
856 2.48472 13.4489 3.75014 0.5
857 9.73247 4.89706 10.3191 0.5
858 7.6505 9.89463 7.92909 0.5
859 11.7723 5.64087 5.20032 0.5
860 10.9842 5.21168 5.67064 0.5
861 11.1033 13.4155 6.2346 0.5
862 10.2355 7.28492 10.6462 0.5
863 7.56961 8.62507 5.4331 0.5
864 8.07804 6.99341 7.67523 0.5
865 12.1663 3.59072 12.7043 0.5
866 5.54653 13.1809 2.24557 0.5
867 11.9311 3.67527 0.14053 0.5
868 8.94554 9.7978 9.04557 0.5
869 4.34121 13.5449 13.0179 0.5
870 3.46943 8.26222 6.53074 0.5
871 12.169 8.52807 4.57204 0.5
872 1.09519 5.93027 13.519 0.5
873 0.207412 0.817908 2.19085 0.5
874 7.30057 5.43114 13.1945 0.5
875 8.18495 12.0136 5.32582 0.5
876 1.89429 6.3841 8.28037 0.5
877 10.2529 7.92818 7.58285 0.5
878 2.61902 11.6026 0.374436 0.5
879 2.30983 3.75481 7.75357 0.5
880 12.7747 0.707556 2.36934 0.5
881 10.5504 10.4419 12.9458 0.5
882 1.87186 10.4137 3.73884 0.5
883 11.188 12.5396 0.686849 0.5
884 12.8952 3.53337 0.652556 0.5
885 7.41056 10.7671 10.3672 0.5
886 0.606974 2.72317 7.81145 0.5
887 0.267401 -0.025821 12.4397 0.5
888 5.11471 4.74157 2.09115 0.5
889 10.5167 4.0062 8.28583 0.5
890 11.3093 8.44224 6.44403 0.5
891 2.07612 6.33683 3.16514 0.5
892 9.66468 0.825729 9.6606 0.5
893 9.74485 3.53138 7.56832 0.5
894 7.55482 7.62398 1.34272 0.5
895 12.1368 9.14335 1.12968 0.5
896 6.91571 12.1481 0.307585 0.5
897 6.65883 13.2992 3.43754 0.5
898 5.26709 12.5232 2.91923 0.5
899 10.5055 4.73781 9.75513 0.5
900 11.8272 10.8392 9.36437 0.5
901 13.5426 5.63354 10.6684 0.5
902 10.9747 5.70084 8.44855 0.5
903 9.52363 8.91857 3.06321 0.5
904 8.36732 3.50339 5.67537 0.5
905 13.5363 6.07836 6.92925 0.5
906 12.9419 5.4238 3.70315 0.5
907 6.95181 4.38538 10.094 0.5
908 9.00875 0.113623 4.83613 0.5
909 9.96985 3.30702 2.74545 0.5
910 7.81124 2.035 7.36807 0.5
911 6.6371 6.32112 12.0397 0.5
912 8.54363 9.13848 11.4236 0.5
913 11.1651 5.92124 13.0511 0.5
914 5.3209 13.114 13.0757 0.5
915 8.16552 2.54028 5.55939 0.5
916 10.4564 8.73638 6.91601 0.5
917 11.4558 0.464935 11.7101 0.5
918 7.37776 6.34464 8.25009 0.5
919 13.3911 12.2077 1.05304 0.5
920 0.239507 11.1906 10.0038 0.5
921 5.32686 5.87627 7.48511 0.5
922 12.4172 3.29443 11.789 0.5
923 1.41783 2.59166 8.39566 0.5
924 11.751 11.5302 10.1283 0.5
925 10.6854 3.53293 2.09557 0.5
926 4.38807 9.63975 13.3954 0.5
927 1.2937 6.8184 5.57813 0.5
928 13.2606 6.41802 5.99797 0.5
929 1.40464 2.74367 11.4027 0.5
930 9.89612 10.2028 9.36038 0.5
931 5.74167 9.46414 12.3459 0.5
932 4.20892 8.7432 3.52729 0.5