ITEM: TIMESTEP
360000
ITEM: NUMBER OF ATOMS
1000
ITEM: BOX BOUNDS xy xz yz pp pp pp
0.0000000000000000e+00 1.3572088000000001e+01 0.0000000000000000e+00
0.0000000000000000e+00 1.3572088000000001e+01 0.0000000000000000e+00
0.0000000000000000e+00 1.3572088000000001e+01 0.0000000000000000e+00
ITEM: ATOMS id x y z radius
1 4.18946 3.97865 12.0876 0.5
2 4.92302 10.8301 3.52799 0.5
3 9.00341 10.0022 2.80631 0.5
4 9.90815 5.88349 1.30241 0.5
5 8.94711 6.64471 10.4711 0.5
6 4.38193 13.169 5.27976 0.5
7 2.70235 8.69714 0.786255 0.5
8 13.2504 11.9074 2.05269 0.5
9 1.60762 8.91782 6.03392 0.5
10 3.15666 13.145 10.3667 0.5
11 0.509014 9.61191 8.78484 0.5
12 10.6427 5.95362 0.503533 0.5
13 8.73099 11.5197 5.82305 0.5
14 11.0112 2.29275 4.29386 0.5
15 6.35221 0.910389 4.19798 0.5
16 7.73402 6.30678 8.86378 0.5
17 6.86016 12.3629 10.5849 0.5
18 2.60649 8.87243 5.76856 0.5
19 10.2247 5.09133 1.88035 0.5
20 10.0438 11.7176 3.14525 0.5
21 2.33421 4.25466 0.905058 0.5
22 1.94304 5.95398 11.6282 0.5
23 1.40734 1.91347 9.85479 0.5
24 7.46906 7.54723 2.05105 0.5
25 1.05398 7.00964 2.12551 0.5
26 10.1222 10.1589 6.21638 0.5
27 11.349 6.91306 12.6895 0.5
28 5.21334 11.7433 11.9252 0.5
29 0.793194 5.48144 1.38394 0.5
30 8.2604 10.5641 1.37427 0.5
31 0.655549 0.0183465 8.49185 0.5
32 8.92737 2.35488 13.149 0.5
33 12.8767 5.82606 9.65311 0.5
34 3.63741 9.13853 5.54949 0.5
35 11.8265 6.99554 -0.00826215 0.5
36 8.75247 2.83604 5.87705 0.5
37 0.857617 0.947211 3.024 0.5
38 3.43043 1.05069 1.92669 0.5
39 10.2071 4.22136 1.49755 0.5
40 5.53317 6.25035 6.50013 0.5
41 8.2951 11.2151 5.01754 0.5
42 6.90636 5.44696 3.37618 0.5
43 5.03607 5.35824 9.78697 0.5
44 4.60188 10.7827 8.57829 0.5
45 7.57 6.52181 2.05438 0.5
46 10.5161 11.0725 13.412 0.5
47 2.90098 9.68363 5.22446 0.5
48 7.56639 10.3973 0.613805 0.5
49 5.97678 12.8059 9.36937 0.5
50 6.37174 1.16644 10.2901 0.5
51 13.4449 10.1314 7.2668 0.5
52 5.96643 10.9584 6.98498 0.5
53 9.60694 3.52362 1.89263 0.5
54 11.8584 11.5172 3.93347 0.5
55 0.501193 1.38726 6.55326 0.5
56 12.7588 4.65069 3.3557 0.5
57 0.700739 11.6924 11.4014 0.5
58 5.0607 8.33465 10.2764 0.5
59 2.0975 10.8986 11.2793 0.5
60 7.53364 4.94724 9.90744 0.5
61 4.09884 0.625291 11.0122 0.5
62 0.720779 8.67981 0.701364 0.5
63 12.2655 8.21796 2.20359 0.5
64 12.5505 2.5322 10.5104 0.5
65 13.0824 1.33215 5.2738 0.5
66 13.1893 1.29164 1.92523 0.5
67 7.93639 2.96159 7.8681 0.5
68 3.44777 1.26906 2.90498 0.5
69 11.9655 2.71697 11.3834 0.5
70 12.3163 4.20255 10.7639 0.5
71 2.58102 6.73312 8.95037 0.5
72 7.41204 2.58934 11.0713 0.5
73 8.67252 6.12139 8.59861 0.5
74 5.86748 4.9023 10.2986 0.5
75 8.99652 0.399484 10.3037 0.5
76 12.6388 2.67216 13.4605 0.5
77 10.5189 2.53422 3.42192 0.5
78 8.65746 2.91632 4.93001 0.5
79 4.37353 12.7356 6.15345 0.5
80 5.13139 2.88791 7.91425 0.5
81 1.22569 2.91838 12.0789 0.5
82 1.18384 9.06172 0.0206521 0.5
83 3.47136 1.07531 6.63841 0.5
84 13.1282 9.35945 9.08296 0.5
85 13.347 3.33224 7.1807 0.5
86 2.64953 0.594014 0.102242 0.5
87 4.12337 5.80663 5.93971 0.5
88 6.38894 5.65684 4.2686 0.5
89 11.7913 12.3641 7.09611 0.5
90 4.08683 6.09374 4.1972 0.5
91 11.4065 7.60459 11.918 0.5
92 0.558152 1.42078 2.10906 0.5
93 12.6404 0.278805 12.4353 0.5
94 4.63768 10.1359 12.3127 0.5
95 12.0818 1.58864 7.95061 0.5
96 11.9435 2.70312 4.25027 0.5
97 12.1857 2.78905 5.19961 0.5
98 11.5788 9.73098 0.123728 0.5
99 6.72851 8.51306 9.31416 0.5
100 0.767388 7.41546 6.41114 0.5
101 5.09631 11.4039 2.64561 0.5
102 8.40558 7.44675 10.1815 0.5
103 4.11233 5.05433 10.3192 0.5
104 6.89756 10.7317 5.64173 0.5
105 11.6302 12.5533 6.07001 0.5
106 6.00515 1.71588 11.0054 0.5
107 13.1989 4.76966 8.18055 0.5
108 13.0653 10.4944 4.87626 0.5
109 0.38468 12.331 9.53646 0.5
110 8.2941 9.19736 8.66951 0.5
111 8.81596 13.4611 3.27049 0.5
112 6.73633 0.706999 5.13088 0.5
113 0.949127 0.503959 6.44631 0.5
114 7.35419 6.83796 2.93661 0.5
115 5.4305 5.96929 12.3777 0.5
116 0.43092 5.29638 2.31085 0.5
117 0.867043 0.156227 5.52709 0.5
118 10.9909 8.78643 6.14406 0.5
119 13.1346 8.6928 2.09905 0.5
120 5.10462 9.11496 3.89567 0.5
121 11.308 13.1123 11.1641 0.5
122 2.79368 2.97535 2.29303 0.5
123 11.9316 2.59515 9.72275 0.5
124 10.696 11.241 11.6775 0.5
125 5.22231 11.7941 3.55291 0.5
126 11.4701 10.7829 0.0585093 0.5
127 7.19192 10.3505 11.1851 0.5
128 4.82946 3.31229 7.07484 0.5
129 1.97361 6.90411 12.0761 0.5
130 1.4674 12.4044 10.8817 0.5
131 7.94284 2.15228 1.64182 0.5
132 5.7992 11.9214 2.01363 0.5
133 1.41367 11.3583 10.7315 0.5
134 11.0438 11.7351 3.30076 0.5
135 12.3402 1.91939 5.66018 0.5
136 7.94231 4.75623 4.58714 0.5
137 3.43533 13.0659 5.84812 0.5
138 7.42341 12.0031 12.9371 0.5
139 5.41315 0.233543 0.494677 0.5
140 5.7927 2.89699 4.1216 0.5
141 0.986781 4.29068 5.14514 0.5
142 10.0335 2.54356 12.8433 0.5
143 0.469075 13.358 13.2664 0.5
144 8.9616 12.8355 8.83495 0.5
145 6.63569 7.01334 2.17805 0.5
146 10.0038 9.25598 9.19332 0.5
147 4.44011 6.66927 0.666317 0.5
148 12.1159 0.205548 10.8974 0.5
149 7.73319 7.00065 9.64624 0.5
150 12.5079 11.3113 3.26765 0.5
151 6.93015 12.66 9.65714 0.5
152 3.35395 4.45649 11.7248 0.5
153 11.6822 6.74684 7.4096 0.5
154 3.15914 1.94144 2.18433 0.5
155 1.88451 8.44204 10.6119 0.5
156 8.091 11.9016 0.0617791 0.5
157 1.84381 0.19452 3.59223 0.5
158 1.38827 9.93722 8.54344 0.5
159 3.73753 2.00465 9.06815 0.5
160 9.5158 0.595831 11.2084 0.5
161 12.7326 3.46744 11.0204 0.5
162 6.20087 3.1499 7.93885 0.5
163 11.2913 9.35549 1.57711 0.5
164 9.0757 3.4709 11.7718 0.5
165 7.09753 11.4032 10.8188 0.5
166 11.1015 13.066 6.81834 0.5
167 11.4855 7.3326 8.15526 0.5
168 1.54633 3.1185 7.54346 0.5
169 11.1895 11.2161 12.7059 0.5
170 3.58642 6.59029 0.234762 0.5
171 10.3783 5.04527 0.873885 0.5
172 10.926 7.49019 10.334 0.5
173 8.69179 9.80442 1.88245 0.5
174 4.3812 0.961643 12.8088 0.5
175 2.44626 6.41795 3.81049 0.5
176 3.79794 5.525 3.31398 0.5
177 9.0214 3.78084 5.54454 0.5
178 6.04847 1.95569 4.04097 0.5
179 13.3919 5.70027 1.7619 0.5
180 9.25913 3.28078 12.8236 0.5
181 10.9689 11.5766 9.56486 0.5
182 3.33973 11.586 1.31758 0.5
183 8.19932 7.15607 6.37349 0.5
184 9.88453 4.27545 8.9695 0.5
185 8.68378 1.05911 10.966 0.5
186 4.1159 8.62227 2.52354 0.5
187 5.10463 0.323112 13.0554 0.5
188 4.6036 6.07241 6.70454 0.5
189 0.059723 10.8885 6.59246 0.5
190 9.34883 12.5759 3.396 0.5
191 9.33025 7.09877 3.93245 0.5
192 10.4337 1.13438 13.4708 0.5
193 11.6323 2.25353 10.6226 0.5
194 9.49535 13.2807 10.8377 0.5
195 0.426694 10.1482 12.2176 0.5
196 9.13215 0.643389 4.00616 0.5
197 2.83168 6.8005 7.93314 0.5
198 6.30531 5.4829 12.3178 0.5
199 11.3437 1.356 8.50877 0.5
200 7.04643 7.01916 1.33403 0.5
201 0.0239656 3.75392 8.12285 0.5
202 6.69576 0.247088 8.15783 0.5
203 2.21079 3.44874 1.60712 0.5
204 1.9943 8.17829 8.59306 0.5
205 13.1 13.0742 3.6478 0.5
206 0.580973 1.20812 10.1309 0.5
207 4.54253 11.6075 8.92509 0.5
208 9.05033 4.66694 5.96959 0.5
209 5.09157 2.16667 3.75611 0.5
210 4.01767 6.50561 5.1325 0.5
211 4.05073 4.09766 10.3597 0.5
212 3.14958 5.6081 3.97819 0.5
213 3.50264 2.10429 5.00483 0.5
214 9.98003 4.04858 11.3858 0.5
215 8.11329 7.08094 1.34039 0.5
216 6.27236 8.47525 13.5969 0.5
217 4.39926 11.5522 5.08268 0.5
218 6.33827 8.04352 4.57962 0.5
219 9.38731 0.597707 2.99952 0.5
220 6.24783 2.11592 10.0823 0.5
221 2.96852 3.59683 5.39023 0.5
222 7.32372 11.3879 4.98278 0.5
223 4.66783 9.33043 2.97534 0.5
224 11.9276 8.38854 4.21204 0.5
225 7.92645 11.989 10.6048 0.5
226 10.8953 6.83253 0.145707 0.5
227 13.0434 7.73415 10.1173 0.5
228 4.39047 11.6706 6.10052 0.5
229 5.44114 4.66583 6.11668 0.5
230 6.21432 9.04242 8.66224 0.5
231 8.12306 5.49664 9.21346 0.5
232 6.61089 4.63257 12.8452 0.5
233 1.21444 0.266259 10.0804 0.5
234 11.5867 2.00924 5.01453 0.5
235 1.29909 11.1451 3.24459 0.5
236 10.9212 5.74309 1.48322 0.5
237 4.97465 8.02597 6.88648 0.5
238 0.51152 12.786 5.73586 0.5
239 10.004 7.8439 3.90237 0.5
240 0.893351 4.76119 12.9946 0.5
241 3.8033 5.86079 0.813141 0.5
242 3.34224 0.255779 2.65721 0.5
243 2.26568 9.80373 3.37707 0.5
244 3.50975 12.1312 6.28158 0.5
245 1.68276 11.6653 11.6415 0.5
246 9.71942 10.0055 8.42321 0.5
247 3.4997 1.16125 10.2415 0.5
248 7.80684 2.46921 2.65108 0.5
249 10.4818 2.14592 0.0159736 0.5
250 9.96398 1.61466 0.650522 0.5
251 5.12242 10.1408 11.3382 0.5
252 8.44551 8.57381 12.8679 0.5
253 1.68583 8.65133 0.946621 0.5
254 10.82 2.29922 2.50391 0.5
255 8.25944 9.32391 2.66203 0.5
256 1.86107 12.8006 3.44999 0.5
257 0.781919 3.81502 7.41975 0.5
258 0.027259 6.22203 5.39563 0.5
259 4.46104 4.54645 9.51416 0.5
260 6.26244 11.9085 9.90553 0.5
261 11.7827 3.48755 5.73522 0.5
262 7.77705 11.0979 5.84334 0.5
263 2.4378 4.30218 8.32326 0.5
264 10.2728 10.8275 8.47119 0.5
265 1.72824 4.97771 5.2074 0.5
266 4.04764 0.140196 6.20752 0.5
267 5.23777 7.41006 8.95797 0.5
268 6.96925 2.45843 1.9395 0.5
269 9.69877 13.5137 8.78945 0.5
270 6.83487 9.37338 7.80432 0.5
271 10.9144 12.0833 6.64458 0.5
272 6.12736 9.26221 0.595804 0.5
273 7.63688 4.82996 3.53908 0.5
274 9.81213 3.24983 8.67044 0.5
275 3.05339 10.7847 0.887581 0.5
276 5.45514 1.13311 12.6429 0.5
277 7.51974 4.85294 13.3171 0.5
278 10.6705 10.2631 0.390182 0.5
279 9.3282 11.0711 5.11661 0.5
280 4.91291 12.2073 1.94632 0.5
281 6.39283 2.71555 10.9583 0.5
282 0.405129 11.1511 1.13039 0.5
283 5.17269 5.64483 1.73055 0.5
284 2.08834 11.0142 0.543045 0.5
285 3.77376 10.1548 5.68094 0.5
286 2.5649 0.977452 12.7672 0.5
287 7.60706 6.83053 7.0315 0.5
288 5.99247 0.179489 6.54367 0.5
289 2.33665 10.8074 3.29851 0.5
290 1.16876 13.1173 6.34676 0.5
291 6.06553 0.918642 5.79815 0.5
292 3.89932 3.24701 12.8015 0.5
293 10.5019 5.4096 4.24978 0.5
294 2.81264 10.5943 5.74985 0.5
295 3.18872 1.66347 5.83153 0.5
296 13.3575 4.39518 7.27553 0.5
297 10.185 10.356 11.7035 0.5
298 10.34 4.41285 12.3204 0.5
299 1.75342 0.569115 13.1842 0.5
300 9.52969 4.43413 2.25652 0.5
301 5.90005 7.39543 11.6144 0.5
302 2.09497 8.7969 3.24933 0.5
303 12.0026 8.34888 3.18945 0.5
304 0.421654 7.25178 5.43356 0.5
305 8.47143 12.9111 7.97468 0.5
306 12.6321 8.62564 1.21902 0.5
307 2.72722 6.8703 2.98767 0.5
308 0.292058 10.1097 11.2251 0.5
309 12.7749 12.9587 12.1175 0.5
310 9.27246 13.173 4.27603 0.5
311 13.3067 5.41242 7.3428 0.5
312 7.19699 11.7664 9.88461 0.5
313 0.991295 11.0778 4.1543 0.5
314 6.52493 12.0297 8.96367 0.5
315 12.9706 5.10837 2.54562 0.5
316 8.76535 5.79859 7.59987 0.5
317 12.7661 8.61747 4.7493 0.5
318 12.8735 4.97829 6.52428 0.5
319 10.9677 11.2181 0.811304 0.5
320 5.50645 3.72338 6.53737 0.5
321 2.86404 12.4877 3.3522 0.5
322 10.0999 12.8508 0.734237 0.5
323 4.26818 0.781519 2.44843 0.5
324 10.9742 3.21285 2.888 0.5
325 0.839537 5.28834 0.331647 0.5
326 10.8591 12.6861 0.00138507 0.5
327 8.43139 2.23947 8.30431 0.5
328 12.0575 7.37608 12.5998 0.5
329 7.1528 3.40451 8.35989 0.5
330 8.5054 1.23432 4.70648 0.5
331 4.85471 2.97503 4.18965 0.5
332 12.0907 1.98011 8.89875 0.5
333 13.5572 1.376 2.91019 0.5
334 4.30624 6.2054 1.58514 0.5
335 9.93954 0.27543 4.54176 0.5
336 4.37325 1.45492 8.47893 0.5
337 11.6613 1.22194 10.7809 0.5
338 7.54294 6.01378 9.8011 0.5
339 10.3 3.84344 2.56045 0.5
340 12.5515 4.08257 12.6157 0.5
341 8.86942 0.239973 9.24305 0.5
342 6.36286 13.5238 5.64465 0.5
343 6.94098 5.45239 9.15502 0.5
344 4.90678 6.97037 6.69658 0.5
345 8.32558 8.13953 6.07572 0.5
346 1.43021 7.24703 5.77209 0.5
347 0.0944499 11.4913 0.243399 0.5
348 1.43429 4.48161 0.262296 0.5
349 8.00427 6.15604 6.27591 0.5
350 8.45848 7.24315 11.1989 0.5
351 2.04862 9.42834 11.0768 0.5
352 8.90775 12.3925 7.25755 0.5
353 8.79355 7.4811 0.636571 0.5
354 2.15041 3.03606 5.33573 0.5
355 2.23152 7.29446 3.72511 0.5
356 12.2937 13.2293 4.17017 0.5
357 6.97484 12.0526 3.18803 0.5
358 3.983 1.95756 10.0556 0.5
359 7.25482 9.22269 8.67187 0.5
360 12.6522 4.07534 6.79607 0.5
361 3.98499 1.21515 7.61967 0.5
362 1.33316 1.05952 9.4945 0.5
363 10.2435 11.931 0.451198 0.5
364 3.20635 7.80144 1.04978 0.5
365 2.18622 7.81982 0.705134 0.5
366 6.77982 8.39343 8.33709 0.5
367 11.2292 11.7353 0.0238196 0.5
368 5.4231 4.45162 9.50354 0.5
369 1.51958 3.41551 4.77228 0.5
370 0.0218283 10.2209 5.87056 0.5
371 9.85165 13.5509 3.52983 0.5
372 13.2804 4.88555 4.08635 0.5
373 4.38994 2.41006 12.7572 0.5
374 0.660719 9.18303 12.6296 0.5
375 0.492714 9.60088 7.8521 0.5
376 1.90651 11.3432 4.11908 0.5
377 7.43594 5.67068 4.22609 0.5
378 5.8635 9.29523 13.1022 0.5
379 4.84311 5.68957 0.827908 0.5
380 7.02148 4.06689 0.0206358 0.5
381 9.58755 2.43466 8.2933 0.5
382 8.97084 2.71394 9.05183 0.5
383 1.75911 5.22016 0.836909 0.5
384 5.4153 10.241 12.8897 0.5
385 12.9046 11.0722 1.52255 0.5
386 13.5838 4.27148 4.77605 0.5
387 2.46047 6.79008 11.2276 0.5
388 1.06556 2.86203 10.1301 0.5
389 5.07214 9.20146 9.62458 0.5
390 4.94663 4.60621 10.4436 0.5
391 6.97485 0.832677 1.93815 0.5
392 0.11541 5.08189 3.22095 0.5
393 2.76753 4.94817 8.92483 0.5
394 9.20457 9.01255 8.45678 0.5
395 1.503 0.264457 8.9556 0.5
396 0.808653 2.06043 2.85428 0.5
397 7.20228 1.62517 1.37412 0.5
398 9.03361 11.8347 2.77503 0.5
399 0.713901 4.73191 4.19965 0.5
400 6.6695 8.77102 5.19803 0.5
401 9.58083 2.44328 0.283452 0.5
402 4.76701 7.54196 5.96249 0.5
403 6.34065 13.0646 7.66739 0.5
404 11.1849 10.4586 12.059 0.5
405 12.346 6.1651 0.237379 0.5
406 6.64439 3.22737 1.41161 0.5
407 2.13111 11.8751 3.29432 0.5
408 2.03793 4.09748 5.28784 0.5
409 3.25621 4.50888 10.6913 0.5
410 11.4627 2.38801 3.30068 0.5
411 4.34193 6.03101 13.5121 0.5
412 5.1053 1.09268 13.5626 0.5
413 3.48732 6.90844 8.68056 0.5
414 2.77724 8.83322 10.6492 0.5
415 8.06223 10.0483 10.7312 0.5
416 8.68919 10.4819 5.62123 0.5
417 0.975878 13.1012 9.29392 0.5
418 9.60686 1.27821 10.3938 0.5
419 3.84558 13.1312 11.0086 0.5
420 3.8323 0.319017 7.21838 0.5
421 13.5388 4.97003 9.82361 0.5
422 8.21939 4.4484 5.45912 0.5
423 12.9585 13.4363 2.66245 0.5
424 2.37739 3.59489 4.49677 0.5
425 8.73279 8.29407 11.3301 0.5
426 1.28679 12.2697 7.12959 0.5
427 7.42812 2.69635 1.00521 0.5
428 0.346111 8.74068 9.21695 0.5
429 10.25 5.18228 9.17417 0.5
430 8.53572 0.0641734 11.1625 0.5
431 2.13918 5.20926 8.09289 0.5
432 13.5463 2.23118 2.24952 0.5
433 7.53659 11.0473 13.4765 0.5
434 13.4073 3.92812 0.653269 0.5
435 11.6476 8.36329 1.51782 0.5
436 6.73814 5.45382 10.0806 0.5
437 4.0793 9.47733 6.41056 0.5
438 5.53179 3.71595 7.51003 0.5
439 11.371 10.8723 10.1847 0.5
440 9.52447 10.9137 6.02534 0.5
441 6.87397 0.601714 6.12289 0.5
442 0.939513 8.1387 5.72445 0.5
443 1.40431 11.2177 1.21596 0.5
444 9.07409 9.20549 13.0904 0.5
445 4.95812 8.37364 3.1967 0.5
446 3.23924 6.4744 4.52855 0.5
447 2.05565 9.79956 5.84298 0.5
448 5.27427 9.70291 0.25319 0.5
449 3.19049 0.461093 10.7979 0.5
450 3.68517 1.93537 1.39955 0.5
451 7.47234 3.67965 0.965659 0.5
452 2.12899 8.48938 0.0155678 0.5
453 5.44573 9.96747 3.6385 0.5
454 3.4581 13.2256 3.51857 0.5
455 1.44613 2.11576 11.5688 0.5
456 8.90021 0.211013 8.28329 0.5
457 12.2945 11.5509 8.54941 0.5
458 4.02192 1.10288 9.38664 0.5
459 13.1278 2.31989 5.41733 0.5
460 12.8366 6.93806 13.2745 0.5
461 11.4404 8.14027 10.9519 0.5
462 10.3819 1.78378 8.09853 0.5
463 6.38591 3.63433 7.18633 0.5
464 12.3275 8.43002 10.4515 0.5
465 5.46435 10.7213 12.0088 0.5
466 3.08064 0.168267 6.54334 0.5
467 1.29088 7.98947 0.249129 0.5
468 13.0117 8.71632 9.81161 0.5
469 2.11452 2.83029 11.4321 0.5
470 1.35742 6.64401 11.1616 0.5
471 4.48839 1.12344 10.2363 0.5
472 10.781 6.36584 4.162 0.5
473 11.4205 7.67374 7.16979 0.5
474 1.9194 7.42345 9.20502 0.5
475 6.40227 4.17107 6.24024 0.5
476 6.81327 1.0917 11.2727 0.5
477 5.66394 7.75106 9.7517 0.5
478 3.62252 12.2577 0.559843 0.5
479 8.66247 7.55488 13.2718 0.5
480 3.89846 10.0963 8.81862 0.5
481 2.89095 3.46753 0.74493 0.5
482 10.9636 13.384 0.868992 0.5
483 8.90256 10.8135 2.17868 0.5
484 10.1159 6.97561 4.50584 0.5
485 4.47783 5.50647 2.36403 0.5
486 3.65397 11.0611 8.77523 0.5
487 4.47932 2.41931 8.62882 0.5
488 5.3406 5.33009 6.91463 0.5
489 3.86731 0.571763 3.37443 0.5
490 0.455025 12.6052 8.5612 0.5
491 2.75995 7.58208 11.7496 0.5
492 1.42354 5.26935 12.2555 0.5
493 11.4385 8.38965 10.0544 0.5
494 7.4741 4.6351 0.733356 0.5
495 6.5913 7.60005 0.556789 0.5
496 6.83706 13.5505 13.1718 0.5
497 4.47618 5.03612 6.53215 0.5
498 3.88004 12.2742 5.34473 0.5
499 6.8509 2.0399 11.6417 0.5
500 10.3323 9.25542 6.65645 0.5
501 5.29501 1.2431 4.18998 0.5
502 9.12013 10.7057 8.63851 0.5
503 7.85981 5.81221 12.9854 0.5
504 2.1268 1.42451 13.5049 0.5
505 4.20334 2.97182 11.9277 0.5
506 3.97901 10.8624 1.29841 0.5
507 7.52907 3.96916 4.10996 0.5
508 0.436225 1.89036 5.56379 0.5
509 5.13524 5.56959 5.94328 0.5
510 7.96345 11.0076 10.9704 0.5
511 6.87536 0.285998 7.16664 0.5
512 8.49079 10.8319 3.07684 0.5
513 4.29616 4.60151 2.98403 0.5
514 5.87392 8.32073 0.94212 0.5
515 1.55569 10.2665 2.76112 0.5
516 5.6644 9.13893 3.04002 0.5
517 0.740662 3.77624 4.25582 0.5
518 1.95858 7.26197 8.22701 0.5
519 4.66005 7.52888 9.88901 0.5
520 1.70782 0.705643 0.49707 0.5
521 11.267 5.69566 4.87874 0.5
522 2.94937 9.36838 11.58 0.5
523 13.4506 8.3882 3.92145 0.5
524 1.18151 1.1875 5.75168 0.5
525 11.8582 9.17033 0.839658 0.5
526 8.82551 12.0595 8.14486 0.5
527 7.28479 10.7047 1.61453 0.5
528 0.749462 0.514147 0.174833 0.5
529 0.0383916 12.5431 0.159751 0.5
530 11.8154 3.25213 10.5346 0.5
531 10.5592 8.48832 10.5304 0.5
532 5.85523 9.02373 4.54083 0.5
533 5.27707 7.42635 10.7836 0.5
534 2.2383 12.5515 11.5827 0.5
535 8.28562 12.5903 12.897 0.5
536 2.08427 12.37 4.19323 0.5
537 2.66047 11.2581 8.81225 0.5
538 7.70794 9.77976 1.39659 0.5
539 2.54072 7.88768 3.0158 0.5
540 1.03546 3.50645 8.34315 0.5
541 4.19407 11.4093 2.08898 0.5
542 7.85638 13.5227 13.122 0.5
543 0.139607 5.83041 6.40349 0.5
544 7.3964 2.39422 8.51491 0.5
545 1.80023 7.21264 2.80724 0.5
546 0.845492 0.569251 12.7415 0.5
547 10.6506 5.06725 5.3106 0.5
548 12.0786 13.2152 6.64942 0.5
549 12.5541 9.84958 7.33271 0.5
550 12.89 12.304 2.93363 0.5
551 6.32218 1.66753 1.76175 0.5
552 3.86127 7.52171 0.324649 0.5
553 10.826 4.40724 9.00096 0.5
554 3.6805 12.9211 6.86779 0.5
555 0.0587703 4.13146 3.64113 0.5
556 7.32769 12.9225 12.5806 0.5
557 7.76467 11.3082 0.854779 0.5
558 4.73342 1.68829 9.40129 0.5
559 2.95934 10.315 8.39405 0.5
560 7.02525 2.9897 11.8641 0.5
561 8.03452 8.68357 11.9435 0.5
562 13.4944 3.21633 0.0548703 0.5
563 8.5669 6.44734 6.96486 0.5
564 7.56203 5.54952 0.330846 0.5
565 10.0216 4.38686 5.8073 0.5
566 6.94709 1.84564 10.6311 0.5
567 11.9602 5.19951 3.0125 0.5
568 7.7523 1.6152 11.2936 0.5
569 10.8537 6.74649 11.7992 0.5
570 13.4743 8.95849 3.10547 0.5
571 2.87806 0.506249 3.44164 0.5
572 3.80063 3.53612 0.175444 0.5
573 0.222588 13.501 6.30017 0.5
574 9.05251 8.13268 3.68622 0.5
575 8.64116 12.7715 2.53 0.5
576 3.83631 10.4895 7.97202 0.5
577 3.78136 9.52934 2.76239 0.5
578 2.41255 11.429 1.33372 0.5
579 13.0329 10.0458 11.7957 0.5
580 2.78876 5.77387 7.51218 0.5
581 1.43473 12.9827 8.45605 0.5
582 3.17224 12.3018 11.1833 0.5
583 3.09904 10.7142 13.497 0.5
584 10.351 6.16406 5.04343 0.5
585 12.4466 4.82321 7.39687 0.5
586 0.289586 5.87934 9.73429 0.5
587 12.8177 2.09506 1.418 0.5
588 13.1165 13.1505 12.9974 0.5
589 13.1652 9.77157 8.20195 0.5
590 4.01636 11.5439 8.01488 0.5
591 3.33242 3.57821 12.1341 0.5
592 10.0155 11.1429 11.043 0.5
593 5.61917 9.95223 6.99403 0.5
594 13.1031 10.9827 5.73441 0.5
595 12.5504 10.0546 5.62922 0.5
596 9.31451 9.23015 2.56664 0.5
597 2.16985 10.4745 9.07463 0.5
598 7.72497 10.4281 5.15786 0.5
599 11.2018 11.5142 8.56054 0.5
600 12.2238 6.38203 12.7613 0.5
601 2.87445 5.82913 3.11061 0.5
602 13.2818 6.69316 9.94961 0.5
603 2.69159 7.8062 10.7147 0.5
604 5.52086 1.45379 10.0463 0.5
605 7.70476 2.423 11.9622 0.5
606 10.7153 8.30661 5.30044 0.5
607 8.81673 9.90873 8.0817 0.5
608 8.16343 13.2509 12.0598 0.5
609 1.82098 11.9411 0.627839 0.5
610 1.09374 8.87549 8.40669 0.5
611 0.0965382 8.78267 8.30991 0.5
612 5.96173 13.185 2.97482 0.5
613 3.58636 5.67085 4.96708 0.5
614 3.93085 0.296978 10.1253 0.5
615 3.12576 10.474 9.34386 0.5
616 0.411138 6.31874 1.89309 0.5
617 6.81763 6.12109 2.60806 0.5
618 11.2551 6.32568 8.19572 0.5
619 11.7684 4.14493 13.4579 0.5
620 1.07604 10.773 11.5583 0.5
621 1.66314 4.30767 4.41097 0.5
622 5.95015 8.11654 8.84144 0.5
623 13.3461 7.75962 4.65899 0.5
624 13.3852 6.06121 2.70634 0.5
625 1.6447 3.68678 11.4208 0.5
626 3.23527 3.61997 1.72113 0.5
627 10.6031 6.66669 1.16971 0.5
628 13.2908 4.73819 10.7901 0.5
629 5.06357 4.01503 2.99866 0.5
630 3.76088 2.98389 1.02845 0.5
631 9.54908 0.830097 0.181597 0.5
632 6.57779 12.6066 13.2642 0.5
633 10.4052 0.716345 0.841887 0.5
634 10.3894 10.8061 10.1834 0.5
635 9.64199 1.61666 13.1772 0.5
636 9.99592 3.37134 12.186 0.5
637 12.697 10.4995 6.52251 0.5
638 5.75197 0.551464 4.86101 0.5
639 8.00082 6.57507 10.5166 0.5
640 2.42061 4.68777 7.33441 0.5
641 7.19841 6.85854 5.94606 0.5
642 11.5341 6.25888 0.849053 0.5
643 11.2412 1.34513 7.47539 0.5
644 6.99044 3.58613 11.0671 0.5
645 0.198796 11.7277 6.06348 0.5
646 9.10551 8.85752 12.1476 0.5
647 9.73156 5.20203 12.729 0.5
648 8.24659 10.2941 11.6634 0.5
649 4.90005 7.39513 11.7423 0.5
650 3.05483 0.723715 7.50686 0.5
651 0.512725 6.70731 7.02376 0.5
652 5.00179 4.41003 7.06166 0.5
653 1.22338 5.96507 2.22496 0.5
654 4.68106 10.7463 10.6109 0.5
655 11.768 12.1518 9.12833 0.5
656 1.05872 11.1183 0.297443 0.5
657 11.5035 0.365921 7.03496 0.5
658 9.56006 10.055 5.51395 0.5
659 0.770005 10.3638 3.43579 0.5
660 0.578663 0.381952 9.35368 0.5
661 1.38874 8.53347 9.30439 0.5
662 3.59011 11.282 5.64172 0.5
663 6.06754 12.4318 3.53428 0.5
664 4.91579 6.54766 5.69585 0.5
665 10.6909 10.7807 3.11368 0.5
666 5.55723 11.9148 9.17875 0.5
667 9.64367 4.06389 8.11958 0.5
668 5.22315 3.04749 3.32025 0.5
669 8.03846 10.313 2.30483 0.5
670 9.40723 12.9342 7.91534 0.5
671 6.92288 8.60443 0.719538 0.5
672 2.89679 2.83685 4.77366 0.5
673 5.36206 8.68973 0.213073 0.5
674 3.35372 8.38836 11.3269 0.5
675 2.70885 3.74323 11.248 0.5
676 2.53516 13.3552 2.96861 0.5
677 3.15636 8.74431 3.10306 0.5
678 11.9861 7.55422 10.2832 0.5
679 10.7516 12.8166 5.84222 0.5
680 5.03013 11.1992 1.57442 0.5
681 3.36995 1.2303 8.49959 0.5
682 1.98165 3.27421 10.5339 0.5
683 1.15704 6.29207 12.0732 0.5
684 12.2207 13.0208 3.27775 0.5
685 12.5452 12.2287 3.84161 0.5
686 10.6351 7.67501 11.282 0.5
687 4.91385 9.33942 12.9896 0.5
688 2.00304 8.09784 5.51795 0.5
689 3.77845 2.75432 1.98178 0.5
690 4.15895 8.69103 7.07606 0.5
691 0.0669695 10.9526 11.6613 0.5
692 4.40741 0.466162 0.0727293 0.5
693 11.3533 5.99129 12.3324 0.5
694 5.83232 8.71111 9.67981 0.5
695 12.9463 8.15236 3.03787 0.5
696 10.5386 2.81159 8.07289 0.5
697 13.217 9.13627 7.43287 0.5
698 6.23727 10.2812 6.29169 0.5
699 3.02932 8.06825 0.134849 0.5
700 12.6344 7.90765 3.90535 0.5
701 9.35806 8.17624 12.8762 0.5
702 3.74277 2.10722 8.08339 0.5
703 1.72658 5.26557 13.2851 0.5
704 8.08174 3.15246 8.76521 0.5
705 10.7174 7.10107 8.6565 0.5
706 6.97838 11.7084 5.79883 0.5
707 3.43993 4.68294 9.73641 0.5
708 0.185995 1.8816 1.30288 0.5
709 10.3088 0.091581 0.0841985 0.5
710 6.95805 6.35939 3.68346 0.5
711 13.3802 0.558592 13.1707 0.5
712 12.5553 3.49141 10.0092 0.5
713 8.59949 9.05244 7.64938 0.5
714 12.5801 3.95025 7.79972 0.5
715 12.6705 8.86328 3.75664 0.5
716 1.80777 2.298 10.5954 0.5
717 2.82578 7.10986 0.540826 0.5
718 11.8679 0.671717 7.91464 0.5
719 4.62938 11.0092 11.6651 0.5
720 12.3816 11.5377 2.29398 0.5
721 10.377 4.75792 8.1788 0.5
722 5.81598 13.3767 13.2859 0.5
723 3.17457 11.9596 8.4794 0.5
724 9.45284 13.2176 9.71764 0.5
725 2.53173 2.0594 5.2639 0.5
726 7.03742 2.78814 7.61056 0.5
727 4.57893 3.0689 13.4209 0.5
728 12.5209 1.91058 4.72578 0.5
729 9.45019 4.93694 1.42515 0.5
730 8.69911 5.40436 6.56447 0.5
731 11.2179 0.570889 0.212771 0.5
732 2.03225 3.33956 8.33129 0.5
733 8.43863 10.8704 0.261365 0.5
734 10.445 11.2085 6.32232 0.5
735 2.92346 5.91276 8.4755 0.5
736 4.27045 4.5647 11.2364 0.5
737 5.40075 3.83222 3.95079 0.5
738 1.90718 7.5784 11.1628 0.5
739 7.40381 13.1598 7.8615 0.5
740 12.3266 1.0202 8.81156 0.5
741 7.42207 4.00426 5.07977 0.5
742 5.20353 8.99038 1.11587 0.5
743 6.84209 7.68993 5.48551 0.5
744 4.83037 3.35489 12.5259 0.5
745 7.21357 6.12686 12.2995 0.5
746 4.96257 8.26882 9.27379 0.5
747 12.9054 0.169721 11.4815 0.5
748 7.59908 8.73868 7.87944 0.5
749 6.11423 9.42088 3.81534 0.5
750 1.19012 1.35547 13.4302 0.5
751 13.3981 8.66627 12.6354 0.5
752 1.61038 1.23092 12.5014 0.5
753 6.5408 2.28356 1.05295 0.5
754 2.65322 11.6274 11.854 0.5
755 6.67754 4.18042 0.948714 0.5
756 6.64337 7.89854 1.54495 0.5
757 11.8766 6.72238 11.8522 0.5
758 4.9212 12.3722 5.35114 0.5
759 12.5105 9.01938 2.80473 0.5
760 6.98414 4.82378 4.32744 0.5
761 3.79998 11.2562 0.404959 0.5
762 13.5552 2.83352 1.40508 0.5
763 12.6148 0.383108 3.54237 0.5
764 8.85135 9.10005 3.36259 0.5
765 13.3849 2.36798 0.510021 0.5
766 7.64491 3.07147 4.78282 0.5
767 3.63612 6.90523 1.18393 0.5
768 12.2934 12.868 11.1573 0.5
769 11.4703 2.55076 5.86865 0.5
770 10.359 7.6556 6.89925 0.5
771 7.43564 7.70876 6.37275 0.5
772 0.892589 1.95048 10.7726 0.5
773 8.88673 3.21584 8.17116 0.5
774 9.5094 13.3163 2.63047 0.5
775 10.382 0.246354 11.264 0.5
776 3.08599 9.66792 6.19394 0.5
777 11.5546 12.5551 3.81152 0.5
778 11.92 12.0606 3.05925 0.5
779 7.83123 7.49526 5.47058 0.5
780 3.06351 11.1512 7.94702 0.5
781 13.164 1.60526 6.12162 0.5
782 11.1196 3.15626 3.94967 0.5
783 0.182282 9.24076 11.7777 0.5
784 1.9801 2.65146 4.42368 0.5
785 10.2208 9.1919 5.66396 0.5
786 8.42966 3.83985 4.69879 0.5
787 6.47515 12.4592 2.51094 0.5
788 11.4522 7.15496 11.0527 0.5
789 9.42875 3.69827 2.95134 0.5
790 8.56825 0.322155 2.35475 0.5
791 5.47139 6.95481 12.4213 0.5
792 5.74686 2.85478 7.07176 0.5
793 6.79972 8.81271 4.17009 0.5
794 0.105743 0.341281 3.29824 0.5
795 7.38828 8.19592 4.68785 0.5
796 4.21802 10.7533 9.58262 0.5
797 3.72453 3.7118 11.2107 0.5
798 1.62907 3.45347 3.81997 0.5
799 0.188855 0.839841 5.89729 0.5
800 0.502193 8.37191 13.3063 0.5
801 7.71651 5.87926 3.24326 0.5
802 4.82088 11.0714 12.6196 0.5
803 10.8625 10.5391 11.0094 0.5
804 0.133658 5.41437 8.94289 0.5
805 8.90578 8.38059 2.76547 0.5
806 2.82839 7.54754 8.60391 0.5
807 3.13761 5.00139 8.01938 0.5
808 1.31606 9.52678 3.42066 0.5
809 9.69906 5.00546 11.7845 0.5
810 2.88961 13.2001 11.362 0.5
811 10.1687 6.90809 3.46392 0.5
812 2.37011 8.55118 11.3972 0.5
813 7.35795 5.21392 12.4024 0.5
814 9.70372 0.488167 5.58209 0.5
815 11.7672 12.3107 8.20367 0.5
816 9.63281 7.64007 0.113045 0.5
817 11.6361 11.0274 2.97997 0.5
818 3.8025 10.1647 0.43201 0.5
819 5.98688 0.36912 7.58323 0.5
820 13.5052 13.1864 9.21239 0.5
821 11.2352 2.95274 4.94396 0.5
822 9.45401 1.18741 4.91401 0.5
823 10.0468 0.308633 10.3257 0.5
824 1.96659 9.15279 5.13652 0.5
825 7.91608 1.09633 1.86037 0.5
826 6.68678 12.9216 8.59943 0.5
827 11.3562 0.78075 1.21067 0.5
828 4.41854 3.60217 3.57913 0.5
829 4.62346 2.04101 7.62879 0.5
830 4.95213 12.6126 9.00537 0.5
831 11.765 13.1916 7.70575 0.5
832 0.604384 6.35483 10.5928 0.5
833 2.39 11.8019 10.8727 0.5
834 8.90668 1.60355 0.355692 0.5
835 1.97544 6.00431 12.6351 0.5
836 7.56742 9.5359 11.501 0.5
837 6.68855 3.19488 0.468685 0.5
838 11.952 13.5018 11.8259 0.5
839 4.35812 5.12159 1.4399 0.5
840 7.51646 12.7569 0.0317438 0.5
841 6.15684 11.2989 6.05324 0.5
842 12.6433 4.26833 11.6372 0.5
843 13.0363 3.14012 12.7501 0.5
844 4.43783 4.01127 13.1352 0.5
845 10.7832 4.94201 6.31791 0.5
846 5.84114 12.5202 8.39773 0.5
847 4.01312 7.83615 6.5672 0.5
848 4.5789 6.4846 12.0074 0.5
849 0.399832 12.529 6.78461 0.5
850 10.3121 10.9175 12.5141 0.5
851 6.92774 10.9442 6.54281 0.5
852 6.67103 10.2142 7.23491 0.5
853 4.24456 7.42724 8.9968 0.5
854 9.77942 6.11808 4.15698 0.5
855 9.56283 10.8189 2.9355 0.5
856 2.58927 13.262 3.9933 0.5
857 9.73249 4.86589 10.766 0.5
858 7.81257 9.74249 7.89869 0.5
859 11.5755 5.11064 5.70661 0.5
860 11.0308 4.18935 5.72538 0.5
861 11.4506 13.567 6.03497 0.5
862 10.5091 6.75689 10.8038 0.5
863 7.5313 8.48035 5.62824 0.5
864 8.0952 6.4927 7.82407 0.5
865 12.0799 3.27559 12.8404 0.5
866 5.7566 12.9583 2.00707 0.5
867 11.9353 3.23148 0.204006 0.5
868 9.1129 9.71964 9.09782 0.5
869 4.18995 13.5067 12.8657 0.5
870 3.41754 8.65088 6.43522 0.5
871 12.3945 7.71123 4.79029 0.5
872 1.035 5.84729 13.0292 0.5
873 0.138861 0.536787 2.36094 0.5
874 6.82907 5.58008 13.1239 0.5
875 7.9218 12.0927 5.36229 0.5
876 2.06561 6.24068 8.01811 0.5
877 10.7229 7.92324 7.92025 0.5
878 2.78627 11.6157 0.457455 0.5
879 2.53644 3.71449 7.48509 0.5
880 12.8157 0.867258 2.75242 0.5
881 10.9328 10.275 13.033 0.5
882 1.67386 10.4034 3.77324 0.5
883 10.9772 12.3052 0.873156 0.5
884 12.7427 3.05144 0.793974 0.5
885 7.41791 10.7132 10.19 0.5
886 0.566186 2.92549 7.75399 0.5
887 0.0101121 0.0895657 12.3491 0.5
888 4.82492 4.65096 2.15921 0.5
889 10.6162 3.74766 8.24864 0.5
890 11.0213 7.88762 6.17893 0.5
891 1.95686 6.19306 2.87316 0.5
892 9.62431 0.682407 9.57251 0.5
893 9.75795 3.23579 7.63945 0.5
894 7.51741 7.79861 1.0361 0.5
895 12.2319 9.16776 1.89515 0.5
896 7.01274 11.9254 0.267283 0.5
897 6.95746 13.0546 3.18979 0.5
898 5.43213 12.3985 2.75872 0.5
899 10.1546 4.57812 9.91526 0.5
900 11.7852 11.1162 9.29174 0.5
901 13.2694 5.71486 10.5192 0.5
902 11.0177 5.48038 8.71061 0.5
903 9.73369 8.65047 3.30299 0.5
904 8.0642 3.41622 5.57301 0.5
905 13.4522 6.80396 6.2449 0.5
906 12.8406 5.61889 3.4364 0.5
907 6.76602 4.46371 10.5533 0.5
908 8.93515 0.301434 4.89295 0.5
909 9.96706 2.86552 2.67259 0.5
910 7.65877 1.88128 7.71229 0.5
911 6.25425 6.44632 12.0356 0.5
912 8.60428 9.32136 11.4277 0.5
913 11.4382 6.04779 13.3824 0.5
914 4.7534 13.1607 0.0637368 0.5
915 7.96869 2.30923 5.4623 0.5
916 10.8058 8.4165 7.01076 0.5
917 11.3224 0.582235 11.4267 0.5
918 7.99155 5.52169 8.14692 0.5
919 13.3054 11.9837 1.01749 0.5
920 0.582475 11.9301 10.4352 0.5
921 5.19821 6.22092 7.42591 0.5
922 12.5081 3.40869 11.9411 0.5
923 1.39758 2.52013 8.20808 0.5
924 11.8851 11.7584 10.0658 0.5
925 10.6336 3.25843 1.90206 0.5
926 4.564 10.3539 13.3432 0.5
927 1.63557 7.93796 6.46869 0.5
928 0.792786 6.51094 5.96567 0.5
929 1.21679 2.93197 11.0602 0.5
930 9.85552 10.3337 9.25788 0.5
931 5.45631 9.62625 12.1215 0.5
932 4.08559 8.8824 3.58029 0.5