ITEM: TIMESTEP
860000
ITEM: NUMBER OF ATOMS
1000
ITEM: BOX BOUNDS xy xz yz pp pp pp
0.0000000000000000e+00 1.3572088000000001e+01 0.0000000000000000e+00
0.0000000000000000e+00 1.3572088000000001e+01 0.0000000000000000e+00
0.0000000000000000e+00 1.3572088000000001e+01 0.0000000000000000e+00
ITEM: ATOMS id x y z radius
1 4.24274 3.35935 12.2339 0.5
2 4.21287 11.8005 4.24633 0.5
3 9.38359 10.2985 2.88311 0.5
4 10.0406 5.84592 1.17266 0.5
5 8.89724 7.57203 9.69768 0.5
6 3.32351 12.9001 5.77753 0.5
7 3.22142 8.21903 0.959034 0.5
8 12.0879 11.763 2.43471 0.5
9 1.95593 8.43873 6.6244 0.5
10 3.76999 13.3624 11.5433 0.5
11 0.39989 8.92483 9.37897 0.5
12 10.3606 6.00365 0.136543 0.5
13 7.42955 11.155 4.10348 0.5
14 10.4383 2.46031 4.02829 0.5
15 6.10853 0.855935 4.84556 0.5
16 7.34653 6.3496 9.23561 0.5
17 6.74471 11.7293 10.798 0.5
18 3.0484 8.47994 6.27564 0.5
19 10.67 5.03651 1.53978 0.5
20 10.6248 12.7184 3.51929 0.5
21 1.92268 5.17502 0.733696 0.5
22 1.17635 6.57207 11.6818 0.5
23 1.82824 1.62187 9.96882 0.5
24 7.62398 7.43494 1.67147 0.5
25 0.58992 6.2482 3.06885 0.5
26 10.6578 10.5463 5.98967 0.5
27 11.5329 6.07609 10.9836 0.5
28 5.09913 11.2549 11.2996 0.5
29 13.2756 5.77065 1.60897 0.5
30 8.70864 10.7714 1.41054 0.5
31 1.18676 13.3026 8.26074 0.5
32 9.11822 3.05344 12.5907 0.5
33 13.5366 5.91322 9.52446 0.5
34 4.05133 8.8797 5.78031 0.5
35 12.5436 6.19444 0.0300829 0.5
36 8.25745 1.98138 4.95268 0.5
37 0.0825448 1.11197 2.29472 0.5
38 2.75953 1.52762 2.25776 0.5
39 10.308 4.08966 1.17786 0.5
40 5.91363 5.91132 5.8716 0.5
41 6.93317 11.0196 5.00684 0.5
42 7.29753 5.33172 3.0542 0.5
43 5.81877 4.61143 10.0978 0.5
44 4.50759 10.5016 8.56328 0.5
45 7.27625 6.32365 1.68739 0.5
46 10.451 11.1932 0.163402 0.5
47 3.12271 9.25936 5.49929 0.5
48 8.01543 10.4242 0.832401 0.5
49 6.42049 11.9251 9.84898 0.5
50 5.28284 0.665627 11.4605 0.5
51 13.5455 9.49139 7.2523 0.5
52 6.34147 10.7087 7.65655 0.5
53 9.35515 3.88538 1.59611 0.5
54 11.3231 12.2168 3.94834 0.5
55 0.0621666 0.486304 4.76252 0.5
56 -0.0182819 2.82132 3.68703 0.5
57 0.0232075 10.7035 11.9411 0.5
58 6.03501 8.48461 10.7597 0.5
59 1.47188 11.0049 11.1276 0.5
60 6.65757 4.99036 8.68032 0.5
61 4.40358 0.248224 10.9817 0.5
62 1.19396 7.66007 0.795152 0.5
63 11.5647 8.88965 1.90753 0.5
64 11.8041 2.00213 9.68336 0.5
65 0.411492 1.86021 5.56225 0.5
66 12.2062 1.69878 1.48134 0.5
67 8.13837 2.34152 8.56671 0.5
68 2.87299 0.987553 3.01049 0.5
69 11.1786 2.55054 10.2308 0.5
70 12.5243 3.47122 9.98902 0.5
71 3.57882 5.91106 8.18806 0.5
72 7.3092 2.12217 11.1887 0.5
73 8.15997 6.50048 8.73958 0.5
74 5.82829 4.40966 9.0598 0.5
75 9.08196 0.661018 10.777 0.5
76 12.1164 3.54841 13.0543 0.5
77 9.93686 3.08353 3.42972 0.5
78 8.44418 2.82291 5.52363 0.5
79 4.20609 12.4199 5.79709 0.5
80 4.7018 1.56854 8.7563 0.5
81 1.73723 3.42451 11.7998 0.5
82 1.5131 8.52893 0.362771 0.5
83 3.22924 0.358535 6.20669 0.5
84 0.135139 8.23009 8.78145 0.5
85 13.104 4.12698 6.46192 0.5
86 2.99331 1.20747 13.536 0.5
87 4.355 6.07176 5.61628 0.5
88 6.70625 5.89649 3.5946 0.5
89 11.7639 12.5874 7.79322 0.5
90 3.83118 6.06366 4.05817 0.5
91 11.9092 6.7426 11.6293 0.5
92 13.2137 1.64404 1.46943 0.5
93 13.2543 0.972792 11.8629 0.5
94 4.64326 10.2858 12.6072 0.5
95 11.7548 1.6752 8.03906 0.5
96 11.2949 2.34471 4.35912 0.5
97 11.5834 2.61768 5.29427 0.5
98 10.8335 10.3038 0.333391 0.5
99 6.80369 8.59394 9.22203 0.5
100 0.752538 7.58116 6.37719 0.5
101 4.3463 11.3402 2.26678 0.5
102 9.03404 6.57924 9.38258 0.5
103 4.41434 4.49017 11.0835 0.5
104 7.35495 11.1431 5.93686 0.5
105 11.6517 12.4163 6.76835 0.5
106 5.70788 1.59112 11.0373 0.5
107 12.8727 5.77796 6.51049 0.5
108 13.3873 10.6797 5.54508 0.5
109 1.08498 12.1382 9.29155 0.5
110 8.32948 9.23029 8.4367 0.5
111 7.87222 13.5669 3.45395 0.5
112 5.28662 0.617498 5.4804 0.5
113 0.530543 0.249433 6.37666 0.5
114 7.71896 6.80923 2.4178 0.5
115 5.72136 6.26105 11.9314 0.5
116 12.8681 5.17843 2.33756 0.5
117 13.4945 1.24098 6.25301 0.5
118 11.5604 10.0452 5.48835 0.5
119 12.158 8.27626 1.45947 0.5
120 5.81989 9.3164 3.74679 0.5
121 11.7151 13.5213 11.0166 0.5
122 1.85077 3.9913 2.08737 0.5
123 11.8815 2.38225 8.70273 0.5
124 10.4263 10.9526 11.8742 0.5
125 4.61719 11.7072 3.26287 0.5
126 11.0925 11.7249 13.0426 0.5
127 8.60277 10.3429 11.1343 0.5
128 5.97762 2.63474 7.61435 0.5
129 2.06141 6.77079 12.2515 0.5
130 13.4461 11.5229 11.2988 0.5
131 7.99997 2.56426 2.11824 0.5
132 5.30928 11.3555 2.62777 0.5
133 0.494067 10.9254 10.9026 0.5
134 11.2103 12.3484 2.9128 0.5
135 12.0577 2.15 6.14915 0.5
136 7.50721 4.91484 4.66501 0.5
137 3.51678 12.191 6.56652 0.5
138 7.68847 11.9195 13.1502 0.5
139 5.42941 13.2998 0.495808 0.5
140 4.67415 3.5916 3.45377 0.5
141 1.63211 2.92815 4.42455 0.5
142 9.80745 3.79185 12.4472 0.5
143 0.219735 12.4954 0.362445 0.5
144 8.60878 13.2648 9.06827 0.5
145 6.83665 7.0158 2.15026 0.5
146 10.042 9.02816 8.38433 0.5
147 4.57101 6.39478 0.0477779 0.5
148 12.4775 0.573927 11.409 0.5
149 8.17165 6.82537 9.68724 0.5
150 12.2294 11.7938 4.01255 0.5
151 7.29412 12.2176 10.1422 0.5
152 3.72197 4.02028 11.5458 0.5
153 11.4997 8.00892 7.43526 0.5
154 1.95788 2.97027 2.02498 0.5
155 2.67191 8.42612 10.562 0.5
156 8.28288 11.9237 0.38448 0.5
157 1.21203 0.442852 2.77454 0.5
158 1.76051 9.65788 8.38526 0.5
159 3.70161 1.81561 10.1027 0.5
160 9.73974 0.265637 11.2868 0.5
161 12.1224 2.62481 10.3449 0.5
162 7.54943 2.69293 9.25327 0.5
163 11.8177 10.1815 0.678112 0.5
164 9.19517 3.72986 10.8659 0.5
165 7.07786 10.8475 10.9471 0.5
166 10.9572 12.883 7.36762 0.5
167 10.6931 8.52294 7.57982 0.5
168 0.57107 2.98855 7.15264 0.5
169 10.2661 11.5197 12.6996 0.5
170 3.6162 6.43963 0.63223 0.5
171 11.0876 5.66779 0.852695 0.5
172 13.0038 8.11768 11.5742 0.5
173 9.23045 10.0999 1.93875 0.5
174 5.18309 1.31161 0.424535 0.5
175 2.21764 6.6745 4.21127 0.5
176 3.18953 5.35196 3.48064 0.5
177 8.42305 4.91543 6.22804 0.5
178 4.91919 1.63962 3.99258 0.5
179 13.2566 6.09251 2.50016 0.5
180 9.65152 3.11144 11.7682 0.5
181 10.9305 11.0449 9.6391 0.5
182 2.63645 11.7278 0.765459 0.5
183 8.64958 7.29348 6.18387 0.5
184 10.4788 5.8696 8.37922 0.5
185 8.83673 0.0170789 11.5539 0.5
186 4.87307 8.24201 2.99649 0.5
187 5.51192 0.44127 13.4019 0.5
188 5.04848 6.06132 6.28697 0.5
189 0.782743 11.2087 6.76717 0.5
190 8.66127 13.0239 2.97954 0.5
191 9.94898 6.8438 3.19783 0.5
192 9.76203 1.35103 13.4596 0.5
193 11.0018 2.38381 9.25707 0.5
194 9.25627 13.176 10.7205 0.5
195 13.3016 9.19845 12.7648 0.5
196 8.04863 0.969214 4.77808 0.5
197 2.88982 6.53205 8.04983 0.5
198 6.00919 5.74728 12.7827 0.5
199 11.8246 0.675419 8.56021 0.5
200 6.84681 6.93863 1.11145 0.5
201 13.0012 4.24325 7.36579 0.5
202 6.12482 13.5608 9.17101 0.5
203 1.30972 4.47099 1.27005 0.5
204 3.78044 7.93163 8.72722 0.5
205 10.9207 0.431246 4.79055 0.5
206 0.870503 1.42087 9.45655 0.5
207 4.63177 11.5222 8.77519 0.5
208 8.56763 3.77142 5.91126 0.5
209 5.59082 2.30782 4.34292 0.5
210 4.30352 6.68736 4.83752 0.5
211 4.18124 4.98319 10.1431 0.5
212 2.88678 5.85967 4.34077 0.5
213 3.38114 1.3697 5.62758 0.5
214 9.86653 4.1272 11.4937 0.5
215 7.76786 6.78083 0.966109 0.5
216 6.02893 8.72454 0.162397 0.5
217 3.42315 11.5766 4.72326 0.5
218 6.88129 8.38836 4.63682 0.5
219 8.39718 0.751896 3.86256 0.5
220 7.16877 2.27424 10.2069 0.5
221 3.54822 3.06133 6.00771 0.5
222 6.9272 11.9085 5.39831 0.5
223 4.79344 9.14382 3.39675 0.5
224 12.9716 9.4436 3.54311 0.5
225 7.93175 10.9259 11.5008 0.5
226 10.5638 7.00648 0.00882127 0.5
227 0.275751 6.90815 9.83449 0.5
228 4.28233 11.6326 5.13729 0.5
229 5.86036 4.15684 6.52862 0.5
230 6.34308 9.55447 9.05087 0.5
231 7.61109 5.67991 8.61686 0.5
232 7.57842 4.55032 12.6294 0.5
233 1.15182 0.440252 9.6031 0.5
234 10.6849 2.24056 5.15882 0.5
235 1.59435 10.5752 3.16794 0.5
236 10.8277 6.55929 0.875877 0.5
237 5.73859 8.59463 6.71116 0.5
238 0.987432 12.8448 6.19339 0.5
239 9.17044 7.67451 3.10647 0.5
240 1.25975 5.21995 12.6909 0.5
241 3.96258 6.44886 1.56022 0.5
242 3.14961 0.42492 2.2913 0.5
243 3.10479 10.125 3.65826 0.5
244 4.08731 11.4748 6.13855 0.5
245 0.799083 11.3338 11.8364 0.5
246 9.84316 10.0438 8.3053 0.5
247 3.53354 0.0945546 10.5423 0.5
248 7.20689 2.60852 2.64849 0.5
249 10.113 1.76808 12.574 0.5
250 10.3493 2.31823 13.4581 0.5
251 4.08638 10.0651 11.7637 0.5
252 8.57967 8.33445 12.8322 0.5
253 1.4548 8.49492 1.32126 0.5
254 9.90663 2.69972 2.47364 0.5
255 8.60913 9.54361 2.69949 0.5
256 1.14587 13.5394 3.58496 0.5
257 0.336896 3.99714 6.98511 0.5
258 13.4587 7.09097 5.12765 0.5
259 5.09354 5.1764 10.6352 0.5
260 7.08823 11.2404 10.0353 0.5
261 10.6981 3.06466 5.74269 0.5
262 7.76268 11.5582 4.94802 0.5
263 1.763 4.17516 8.23232 0.5
264 10.3975 10.534 8.87842 0.5
265 1.66371 3.96052 4.34129 0.5
266 3.95534 13.0872 6.48478 0.5
267 5.39118 7.56411 9.44792 0.5
268 7.17289 2.19642 1.70307 0.5
269 9.51082 0.255105 9.16047 0.5
270 6.69183 9.98552 8.25443 0.5
271 11.1489 11.8468 7.43448 0.5
272 6.11201 9.40079 0.871526 0.5
273 7.58843 5.55053 3.89148 0.5
274 11.163 5.60497 9.10172 0.5
275 2.35608 10.7923 0.920348 0.5
276 4.96438 2.28797 0.171972 0.5
277 7.40546 5.12422 13.399 0.5
278 11.4985 11.0333 0.193464 0.5
279 9.33869 11.66 5.77413 0.5
280 4.79398 12.2646 2.40889 0.5
281 6.42441 2.49733 10.9535 0.5
282 0.201457 11.8544 1.85131 0.5
283 4.91525 5.10345 1.52242 0.5
284 1.42392 10.6919 0.528188 0.5
285 3.89876 9.8184 5.56236 0.5
286 2.01143 1.64872 13.5604 0.5
287 7.90758 7.36202 6.85011 0.5
288 5.856 13.3561 7.14665 0.5
289 2.45342 10.8359 3.5511 0.5
290 0.044272 12.9857 6.14728 0.5
291 6.29039 0.308959 5.6691 0.5
292 4.6706 2.84439 13.03 0.5
293 11.0977 5.59391 4.2634 0.5
294 2.93133 10.0969 5.92985 0.5
295 2.59387 1.24862 6.32789 0.5
296 13.5215 5.00917 6.82075 0.5
297 10.6104 10.1303 11.191 0.5
298 9.41003 4.77229 12.1025 0.5
299 2.14497 0.805513 13.0847 0.5
300 9.80852 4.91249 1.55995 0.5
301 6.3701 6.98267 11.6061 0.5
302 3.27776 9.62137 2.73983 0.5
303 12.2079 9.25391 2.7004 0.5
304 0.733537 7.54792 5.32006 0.5
305 8.37651 13.0676 8.11952 0.5
306 11.2679 8.5901 0.972522 0.5
307 2.1879 6.94782 3.22384 0.5
308 0.322147 9.87229 12.4053 0.5
309 13.1001 0.90198 12.8276 0.5
310 8.10292 13.5539 4.48703 0.5
311 0.100689 6.86425 6.6929 0.5
312 7.66359 11.6239 10.875 0.5
313 1.05029 10.1113 3.86924 0.5
314 6.69743 12.8797 9.54039 0.5
315 12.4407 5.8342 3.07697 0.5
316 8.11058 6.09783 7.85208 0.5
317 13.4533 8.60389 3.53755 0.5
318 0.27514 5.99535 6.42275 0.5
319 10.9784 11.8397 0.486919 0.5
320 5.66203 3.50973 7.28326 0.5
321 2.04692 13.3044 3.88149 0.5
322 10.6267 0.763358 1.2214 0.5
323 3.78508 1.02976 2.5063 0.5
324 10.4737 3.48121 2.76085 0.5
325 1.46175 5.63592 13.5342 0.5
326 10.0261 -0.0209569 1.08952 0.5
327 8.23607 3.27684 8.89249 0.5
328 12.7018 5.62251 0.82498 0.5
329 8.75669 2.31349 7.66108 0.5
330 7.85209 1.26917 5.62981 0.5
331 5.62127 2.15718 3.45305 0.5
332 12.3227 1.57706 8.88108 0.5
333 12.9142 1.74528 2.34565 0.5
334 4.95092 6.12242 1.68135 0.5
335 9.01075 0.432962 4.75054 0.5
336 4.37049 2.2752 9.42658 0.5
337 12.2135 0.896135 12.298 0.5
338 7.20589 5.33583 9.43439 0.5
339 10.1697 4.2049 2.20747 0.5
340 11.6991 3.90789 11.4508 0.5
341 8.54921 0.716895 9.26827 0.5
342 6.53277 0.405921 6.66872 0.5
343 6.59507 5.91904 8.83775 0.5
344 5.7399 6.8653 6.00175 0.5
345 9.04784 7.86583 5.51997 0.5
346 1.47104 7.07718 5.81269 0.5
347 12.8229 12.0731 1.65901 0.5
348 1.10951 4.80427 0.279289 0.5
349 8.01371 6.45057 6.30366 0.5
350 8.32734 7.57575 10.5484 0.5
351 2.43545 9.2128 11.2026 0.5
352 9.13813 12.4965 7.74365 0.5
353 9.64143 6.5045 13.244 0.5
354 2.60217 2.832 5.76591 0.5
355 1.42978 6.45925 3.68025 0.5
356 11.1077 13.068 4.46209 0.5
357 6.41435 11.1843 4.06379 0.5
358 3.55086 0.814111 9.69691 0.5
359 7.35912 9.35837 8.84531 0.5
360 12.2117 3.77882 6.76962 0.5
361 3.50571 1.21558 6.64597 0.5
362 1.74165 1.15643 9.06101 0.5
363 10.48 12.727 0.92098 0.5
364 2.97708 7.30349 0.533393 0.5
365 2.45291 8.35771 1.58873 0.5
366 6.59423 8.88972 8.28909 0.5
367 10.2457 12.1851 0.0289422 0.5
368 5.1571 5.11733 9.62519 0.5
369 2.17846 3.50826 5.09885 0.5
370 0.65904 10.3966 6.18563 0.5
371 8.86623 -0.00526735 3.73643 0.5
372 0.301312 3.76813 3.50395 0.5
373 4.62314 3.27812 0.352592 0.5
374 0.664464 9.05062 13.2936 0.5
375 0.837791 9.69126 8.76243 0.5
376 1.67784 10.8573 4.14112 0.5
377 6.8717 4.90022 3.86866 0.5
378 5.92892 9.71967 13.4891 0.5
379 4.10972 5.58767 1.90664 0.5
380 7.62034 4.02645 13.523 0.5
381 9.85791 3.48352 8.5072 0.5
382 9.29226 3.23276 7.58258 0.5
383 1.99399 4.92515 13.3163 0.5
384 5.68726 10.0956 12.4076 0.5
385 12.9257 11.2538 2.30451 0.5
386 13.2976 3.60348 4.31649 0.5
387 1.74942 7.49924 11.7159 0.5
388 1.04646 2.22387 10.1934 0.5
389 3.21841 9.77034 11.5825 0.5
390 4.85629 4.27156 10.1895 0.5
391 8.04788 0.833077 1.99658 0.5
392 12.6871 4.87856 3.22697 0.5
393 2.56755 4.66183 8.73948 0.5
394 9.22678 9.39527 7.85112 0.5
395 1.82838 0.122173 8.91961 0.5
396 0.12155 2.2702 2.2182 0.5
397 8.01841 1.80034 1.46034 0.5
398 9.16088 12.043 2.63813 0.5
399 0.459551 4.12111 4.41275 0.5
400 7.3988 9.06114 4.99891 0.5
401 10.0432 2.8056 12.6657 0.5
402 5.33698 7.78418 6.21791 0.5
403 6.41147 0.649714 8.32675 0.5
404 11.1993 11.3482 12.1704 0.5
405 11.9265 6.28546 0.836542 0.5
406 6.76863 2.9349 1.08186 0.5
407 1.75387 11.5145 3.31504 0.5
408 2.84191 3.83913 5.71006 0.5
409 3.53568 4.79694 10.9049 0.5
410 10.7974 2.46625 3.02078 0.5
411 4.31719 5.87345 0.915862 0.5
412 5.7215 0.660468 0.817112 0.5
413 2.98791 5.61146 7.51467 0.5
414 3.32655 8.80855 11.2276 0.5
415 8.13027 10.1522 12.0136 0.5
416 8.99319 10.7402 5.65702 0.5
417 0.850631 13.1989 9.14785 0.5
418 9.95893 0.998115 10.6672 0.5
419 2.78391 13.1162 11.9371 0.5
420 3.64901 0.205279 7.17381 0.5
421 13.3663 4.92786 9.29085 0.5
422 7.86841 4.37042 5.42313 0.5
423 11.0795 1.18006 3.97738 0.5
424 3.22793 3.29381 4.96952 0.5
425 9.3573 7.65008 10.5815 0.5
426 0.633426 12.5347 8.48736 0.5
427 7.74596 2.81265 1.1757 0.5
428 1.1437 8.19623 9.23168 0.5
429 11.4509 6.11538 8.27158 0.5
430 9.49062 12.9273 11.7444 0.5
431 2.30664 4.96032 7.83181 0.5
432 12.8765 2.52583 1.78002 0.5
433 7.76268 11.1539 0.183268 0.5
434 0.150684 3.52781 13.0431 0.5
435 11.218 9.62331 1.2 0.5
436 6.21643 5.28331 9.4483 0.5
437 4.44598 9.50709 6.44056 0.5
438 5.27851 2.56379 6.86446 0.5
439 11.1407 10.3991 10.3705 0.5
440 9.72274 10.8153 6.34156 0.5
441 5.65652 0.555506 6.4506 0.5
442 1.69159 7.45017 6.79813 0.5
443 0.741053 12.1532 1.04877 0.5
444 9.10918 9.0619 13.1799 0.5
445 5.27574 8.42316 3.86818 0.5
446 3.19168 6.75301 4.43441 0.5
447 2.51945 9.25375 6.26396 0.5
448 5.27596 10.0484 0.592522 0.5
449 3.16851 12.737 11.0333 0.5
450 2.41826 2.80887 1.15953 0.5
451 7.45306 3.72384 0.991049 0.5
452 2.17374 8.00949 0.719839 0.5
453 4.9818 9.0627 2.32583 0.5
454 2.69417 0.0543247 3.09109 0.5
455 1.47524 2.45873 11.8859 0.5
456 8.88008 0.420341 8.29944 0.5
457 12.3437 10.9737 8.79904 0.5
458 4.40036 0.252858 10.0086 0.5
459 11.561 3.0229 6.27606 0.5
460 12.8787 6.4711 0.889248 0.5
461 12.1402 7.80222 12.0598 0.5
462 9.69666 4.4442 8.64368 0.5
463 4.67284 3.44119 7.26299 0.5
464 0.330832 7.96845 9.71489 0.5
465 5.00808 10.2777 11.6789 0.5
466 3.05373 13.079 6.78634 0.5
467 1.83497 7.54556 1.4888 0.5
468 0.691743 7.33707 8.99515 0.5
469 2.20974 2.56389 11.3541 0.5
470 2.10755 6.55479 11.3325 0.5
471 3.98406 1.03714 10.575 0.5
472 11.1082 6.52887 4.4466 0.5
473 11.4492 8.83088 6.84974 0.5
474 3.75214 6.90641 8.32422 0.5
475 5.10246 4.29689 7.0002 0.5
476 6.3088 0.869923 11.4048 0.5
477 6.17715 8.02419 9.85401 0.5
478 2.98068 11.8665 13.3734 0.5
479 8.97675 7.36517 13.05 0.5
480 4.22163 10.0428 9.29835 0.5
481 1.86792 4.20668 0.493456 0.5
482 11.0057 0.00372266 0.755431 0.5
483 9.25733 11.0598 2.22197 0.5
484 10.1089 7.02123 4.17852 0.5
485 5.33093 4.52424 2.19142 0.5
486 3.91611 10.9936 9.18415 0.5
487 5.05992 2.56087 8.86316 0.5
488 6.08153 4.97066 5.8411 0.5
489 3.73397 0.180856 3.0472 0.5
490 0.0775567 12.4154 9.32914 0.5
491 2.80295 7.28593 11.7761 0.5
492 0.813644 5.72158 11.9116 0.5
493 12.5861 8.81484 12.1396 0.5
494 6.99555 4.60611 0.602268 0.5
495 6.42241 7.76319 0.475852 0.5
496 7.21524 13.4981 13.2318 0.5
497 5.20713 4.4016 5.92304 0.5
498 3.3548 11.7924 5.64875 0.5
499 6.47357 1.81565 11.5871 0.5
500 10.7614 9.53364 5.88838 0.5
501 5.82289 1.31558 3.99325 0.5
502 9.49609 10.3613 9.13345 0.5
503 6.89834 5.92709 13.0901 0.5
504 2.26035 0.872038 0.564561 0.5
505 4.83356 3.79143 12.9381 0.5
506 3.26841 11.2113 1.2856 0.5
507 8.44657 4.50819 4.52256 0.5
508 13.2181 1.21251 5.21258 0.5
509 5.12456 5.37165 5.57142 0.5
510 7.71902 9.99129 11.056 0.5
511 5.89114 0.629381 7.51033 0.5
512 10.2044 12.1912 2.73304 0.5
513 4.84866 4.52504 3.11984 0.5
514 5.79791 8.35641 1.05874 0.5
515 2.3619 10.1021 2.90212 0.5
516 5.75161 8.82196 2.9412 0.5
517 1.11738 3.58996 5.12452 0.5
518 3.14418 6.41739 8.98476 0.5
519 5.45234 7.72761 10.538 0.5
520 2.76735 0.17558 13.4771 0.5
521 11.2199 5.79848 5.22269 0.5
522 2.81416 9.01609 12.1205 0.5
523 12.9441 7.91356 3.00661 0.5
524 13.3932 0.287878 5.72713 0.5
525 11.3733 9.37569 0.251221 0.5
526 8.71105 12.2612 8.71126 0.5
527 7.71315 10.5959 1.77047 0.5
528 2.18534 13.5278 12.6731 0.5
529 13.5275 12.7317 1.31849 0.5
530 11.7151 2.98315 9.49049 0.5
531 11.9859 8.3655 11.4416 0.5
532 6.67872 9.41224 4.29999 0.5
533 6.3077 7.46275 10.6957 0.5
534 2.71021 12.1417 11.7375 0.5
535 8.53867 12.5149 13.2381 0.5
536 1.53053 12.5568 3.53391 0.5
537 2.26556 10.8077 9.3354 0.5
538 8.3092 9.86003 1.69209 0.5
539 1.68329 7.48325 3.82591 0.5
540 0.123311 3.48118 7.81188 0.5
541 4.10913 11.7603 1.35402 0.5
542 8.23893 13.5038 13.0743 0.5
543 13.1376 6.5588 5.94405 0.5
544 8.36159 3.14884 7.83466 0.5
545 1.14032 7.13093 3.02406 0.5
546 1.24509 0.430678 12.5962 0.5
547 10.4544 5.07181 4.93867 0.5
548 11.8385 13.2744 7.21488 0.5
549 11.887 9.99406 8.72319 0.5
550 11.7176 0.283519 4.14756 0.5
551 7.25297 1.21222 1.42819 0.5
552 4.03545 7.24495 0.204184 0.5
553 10.7544 6.47345 7.63303 0.5
554 3.7066 12.7871 7.47587 0.5
555 0.73422 3.2626 4.21623 0.5
556 7.63754 12.8154 12.6911 0.5
557 7.11754 11.0626 0.988175 0.5
558 4.4199 1.25699 9.69038 0.5
559 3.18926 10.3376 9.39291 0.5
560 6.85919 2.76533 11.7077 0.5
561 8.16672 8.39474 11.942 0.5
562 12.9161 3.10361 12.8506 0.5
563 8.53652 6.62639 7.08614 0.5
564 6.45643 5.20534 -0.0029885 0.5
565 8.92716 4.59555 5.47416 0.5
566 6.74332 1.47699 10.7236 0.5
567 12.9234 3.80417 3.33182 0.5
568 7.2977 1.25451 11.5407 0.5
569 11.553 6.961 10.6496 0.5
570 13.0721 8.11966 1.90974 0.5
571 2.12373 0.731436 2.52575 0.5
572 4.35017 1.86827 12.9802 0.5
573 0.612907 13.4022 5.48792 0.5
574 9.79076 8.26614 2.60448 0.5
575 7.91876 13.5301 2.45481 0.5
576 3.60861 10.3143 8.42925 0.5
577 4.07361 8.8051 2.79034 0.5
578 1.59007 11.5078 0.930904 0.5
579 0.0299194 9.0144 11.9336 0.5
580 2.91724 4.5585 7.14296 0.5
581 1.58972 12.6876 8.8006 0.5
582 2.2123 12.7241 11.1781 0.5
583 2.38911 10.2126 0.159374 0.5
584 10.2828 6.06463 4.67964 0.5
585 13.0549 5.03216 5.98248 0.5
586 0.802357 5.31175 9.32532 0.5
587 13.1007 3.28912 0.937647 0.5
588 12.8177 12.5036 0.675266 0.5
589 0.0882576 9.1799 8.31524 0.5
590 3.93429 11.2199 8.09291 0.5
591 4.70419 4.24704 11.9749 0.5
592 10.3976 11.0295 10.6902 0.5
593 6.03042 10.4548 6.64179 0.5
594 13.483 11.0668 6.46172 0.5
595 13.3201 10.0214 6.31065 0.5
596 9.56827 9.27917 2.5944 0.5
597 2.32568 9.67883 9.29036 0.5
598 8.2899 11.5696 5.77589 0.5
599 11.3508 10.8425 8.77844 0.5
600 10.7596 5.49185 10.9804 0.5
601 2.27682 5.98474 3.46349 0.5
602 0.755726 6.03112 10.1469 0.5
603 3.2805 7.80193 11.0812 0.5
604 4.92316 1.03265 10.5433 0.5
605 7.38969 1.98363 12.1803 0.5
606 12.4253 9.42986 5.08567 0.5
607 8.89974 10.0724 8.45305 0.5
608 8.60465 12.8878 12.3402 0.5
609 0.640848 11.4478 0.361414 0.5
610 1.48318 9.10201 9.17724 0.5
611 0.908894 8.86802 8.41753 0.5
612 6.40097 12.5521 2.96495 0.5
613 3.64183 5.92263 4.998 0.5
614 4.16603 12.8894 10.7095 0.5
615 3.94939 10.7117 10.0707 0.5
616 0.280987 5.33956 2.3555 0.5
617 7.9835 5.81259 2.46359 0.5
618 11.0275 7.92851 8.45539 0.5
619 12.5452 4.26619 11.6313 0.5
620 1.00645 10.3663 11.9269 0.5
621 2.71525 4.14334 4.68504 0.5
622 5.8884 8.58129 9.01666 0.5
623 12.9322 7.83947 3.96113 0.5
624 13.4297 5.4557 3.24106 0.5
625 2.13586 3.41194 10.8134 0.5
626 2.30527 4.4249 1.34279 0.5
627 9.8732 6.64613 0.680931 0.5
628 13.2782 4.19142 10.0446 0.5
629 5.50285 3.72246 2.86192 0.5
630 2.78761 3.69211 0.818794 0.5
631 9.56103 2.02816 0.639079 0.5
632 6.88171 12.5247 13.2221 0.5
633 10.4873 1.59058 0.546012 0.5
634 10.212 10.3584 9.88814 0.5
635 9.30556 2.15927 12.1518 0.5
636 8.97159 3.89895 11.873 0.5
637 0.390986 10.411 7.16995 0.5
638 5.11706 0.72913 4.46476 0.5
639 8.94675 6.80383 10.3285 0.5
640 2.11255 3.97314 7.3464 0.5
641 7.69798 7.26234 5.89759 0.5
642 11.3271 6.27819 0.0362998 0.5
643 11.0949 0.975728 7.98251 0.5
644 7.31805 3.08631 10.7826 0.5
645 0.586066 11.3019 5.72291 0.5
646 9.10624 8.80766 12.1228 0.5
647 8.32353 4.76724 11.8653 0.5
648 7.66605 9.30822 11.9169 0.5
649 5.76703 7.76456 11.4885 0.5
650 2.785 0.51035 7.02111 0.5
651 1.08818 6.57916 6.65956 0.5
652 6.04097 3.09573 6.52044 0.5
653 13.5009 4.49614 2.7922 0.5
654 3.87175 9.10367 12.0519 0.5
655 11.8038 11.6115 9.33523 0.5
656 0.691854 11.1563 1.25055 0.5
657 11.082 0.346107 7.06601 0.5
658 9.85878 10.005 5.81231 0.5
659 1.56811 9.54379 3.20572 0.5
660 0.87164 0.650077 8.72762 0.5
661 3.71954 7.1589 9.33766 0.5
662 3.64199 10.8228 5.39805 0.5
663 6.0901 12.0977 3.88486 0.5
664 5.20216 6.26635 5.2687 0.5
665 8.88033 11.0706 3.13161 0.5
666 5.79734 12.7614 9.7811 0.5
667 10.5935 4.20312 8.34303 0.5
668 5.65483 3.1098 3.64185 0.5
669 8.45302 10.4732 2.38502 0.5
670 9.35788 13.0543 8.51833 0.5
671 6.76141 8.60375 0.963176 0.5
672 3.35995 2.26169 5.26073 0.5
673 5.20997 9.08989 0.522042 0.5
674 3.337 8.15375 11.9953 0.5
675 3.83755 4.96128 11.8844 0.5
676 1.81681 13.3595 2.86058 0.5
677 3.76282 9.31929 3.5034 0.5
678 13.1918 7.4333 9.22623 0.5
679 10.6563 12.2867 6.61297 0.5
680 5.09165 11.5703 1.70173 0.5
681 3.73547 1.58834 9.07331 0.5
682 1.93058 2.60766 10.3106 0.5
683 1.72476 5.74393 11.8913 0.5
684 10.7425 0.213895 3.7647 0.5
685 12.1071 12.8169 4.19775 0.5
686 11.3454 7.57026 11.4607 0.5
687 4.98606 9.56087 13.2591 0.5
688 1.39935 8.07506 6.00728 0.5
689 2.72402 3.54205 1.81167 0.5
690 4.84987 9.1087 7.18536 0.5
691 13.0005 9.85432 11.8651 0.5
692 4.74403 0.391021 0.523025 0.5
693 10.9923 6.62269 11.3943 0.5
694 6.19241 9.00829 9.93146 0.5
695 12.322 8.36227 2.51649 0.5
696 9.78401 4.14849 7.71998 0.5
697 0.848101 9.64288 7.71606 0.5
698 6.85033 11.0675 6.959 0.5
699 2.79841 7.38426 1.50872 0.5
700 12.4628 8.57964 3.42715 0.5
701 9.57139 8.18771 12.8729 0.5
702 3.47908 2.56878 9.2969 0.5
703 2.16356 5.79213 12.7977 0.5
704 9.10895 2.81212 8.4847 0.5
705 10.6038 7.54852 7.70739 0.5
706 6.38985 11.2153 6.00841 0.5
707 4.17 5.52248 10.9796 0.5
708 12.7818 2.30843 0.809316 0.5
709 9.63968 0.958304 0.840409 0.5
710 6.94368 6.15534 2.63732 0.5
711 0.374233 0.623468 13.2674 0.5
712 12.5898 2.53468 9.36718 0.5
713 8.35905 9.98246 7.58415 0.5
714 12.5207 4.87366 6.78567 0.5
715 13.1292 8.80265 2.64742 0.5
716 1.58134 1.87325 10.9418 0.5
717 3.75116 7.36097 1.15048 0.5
718 11.9354 0.712065 7.60332 0.5
719 4.38289 11.0402 11.9354 0.5
720 12.708 11.4584 3.29722 0.5
721 10.7882 6.88632 8.5059 0.5
722 5.88413 12.9437 13.1831 0.5
723 3.69951 11.901 8.76469 0.5
724 8.87813 0.0803126 9.89249 0.5
725 2.46573 1.90472 5.51701 0.5
726 7.79385 2.29051 7.58803 0.5
727 4.00905 2.4624 0.101226 0.5
728 12.9627 1.93346 5.86656 0.5
729 10.286 4.95824 0.654349 0.5
730 8.06838 5.67101 6.80749 0.5
731 10.3157 0.618023 0.300606 0.5
732 0.874691 2.80271 8.12612 0.5
733 7.97988 11.4104 1.1255 0.5
734 10.3427 11.5057 6.09141 0.5
735 3.28099 4.84281 8.03178 0.5
736 3.72894 4.09633 10.3554 0.5
737 5.05555 2.82379 2.90797 0.5
738 2.3126 7.51943 10.9277 0.5
739 5.85621 13.4496 8.22144 0.5
740 12.3923 13.5497 8.00521 0.5
741 7.63336 3.85731 4.44749 0.5
742 5.35737 9.37915 1.39112 0.5
743 7.42769 8.18265 5.4918 0.5
744 3.92649 3.35503 13.2254 0.5
745 6.76453 6.06767 12.0296 0.5
746 5.38666 8.50852 9.90264 0.5
747 13.409 0.105117 11.3914 0.5
748 7.47075 9.44996 7.88538 0.5
749 6.66779 9.27669 3.26075 0.5
750 1.81325 0.093718 0.223912 0.5
751 13.5247 8.31206 13.4202 0.5
752 1.34834 0.810996 -0.00261944 0.5
753 7.43168 2.02109 0.612672 0.5
754 1.80547 12.6345 12.0923 0.5
755 6.68119 3.67932 0.408256 0.5
756 6.67011 7.79603 1.51571 0.5
757 10.7163 6.34927 10.4587 0.5
758 3.73921 12.4605 4.95978 0.5
759 12.5821 9.1046 1.8583 0.5
760 7.86885 4.60759 3.69318 0.5
761 3.07648 10.9699 0.32072 0.5
762 13.429 2.8487 0.115827 0.5
763 11.5272 0.612536 3.21332 0.5
764 9.29138 9.48196 3.42235 0.5
765 12.4885 2.93798 0.201514 0.5
766 7.92527 2.84508 4.67568 0.5
767 4.61201 6.83745 0.894107 0.5
768 12.6696 0.119073 10.6407 0.5
769 11.0316 2.19748 6.13945 0.5
770 11.7492 7.97398 6.44672 0.5
771 8.23577 8.08968 6.13916 0.5
772 1.13148 1.16277 10.4233 0.5
773 8.99501 3.83024 8.29105 0.5
774 8.65671 0.51044 2.84566 0.5
775 10.2035 13.0603 10.9232 0.5
776 3.45972 9.36901 6.38335 0.5
777 11.5518 13.1233 3.45928 0.5
778 12.1835 12.3209 3.25526 0.5
779 8.22022 7.6189 5.23297 0.5
780 3.02872 11.1298 8.69611 0.5
781 0.418211 1.35692 4.73931 0.5
782 10.9067 3.18111 3.70295 0.5
783 0.488753 8.39738 12.6131 0.5
784 2.53019 2.57542 4.74425 0.5
785 10.6227 10.1292 5.08849 0.5
786 8.49448 3.6131 4.92493 0.5
787 6.20796 11.4847 3.05656 0.5
788 12.3198 7.57756 11.0157 0.5
789 9.20046 4.59959 2.279 0.5
790 7.68026 0.808221 3.01036 0.5
791 5.3811 7.14954 12.1106 0.5
792 5.02069 2.72717 7.8511 0.5
793 7.36407 8.88472 3.9309 0.5
794 12.9116 0.883419 2.84074 0.5
795 7.85356 8.24267 4.63947 0.5
796 4.87149 10.8405 9.58538 0.5
797 3.89752 4.15337 12.552 0.5
798 2.49287 3.34388 4.12263 0.5
799 0.569391 0.884371 5.59627 0.5
800 0.869366 7.9825 13.3926 0.5
801 7.55701 6.36207 3.31699 0.5
802 5.29106 11.0084 12.3484 0.5
803 11.2125 10.9581 11.2462 0.5
804 0.219747 5.6296 8.58919 0.5
805 8.86456 8.60433 3.0147 0.5
806 2.91938 7.3448 8.62031 0.5
807 2.66667 4.00222 8.09889 0.5
808 2.60945 9.24731 3.44709 0.5
809 9.02468 5.51534 11.6307 0.5
810 1.66873 11.8337 11.5878 0.5
811 10.9404 7.13182 3.50132 0.5
812 2.52309 8.28726 11.5312 0.5
813 7.6387 5.50597 12.3591 0.5
814 9.33429 0.437122 5.74599 0.5
815 11.7241 11.642 8.37232 0.5
816 9.74201 7.57633 0.170551 0.5
817 11.6274 11.4165 3.31924 0.5
818 3.16722 10.1786 0.793901 0.5
819 6.70935 0.0500323 7.59408 0.5
820 0.292073 11.6168 8.85906 0.5
821 10.8374 3.176 4.76427 0.5
822 8.78987 1.32769 5.40273 0.5
823 9.86839 0.141644 10.1949 0.5
824 2.16112 8.61454 5.63065 0.5
825 7.11644 0.528837 2.21382 0.5
826 6.81491 13.3109 8.57754 0.5
827 11.2618 0.941976 0.3743 0.5
828 4.60438 3.77053 2.51516 0.5
829 4.13367 2.37689 8.51672 0.5
830 5.97898 12.6768 8.77632 0.5
831 11.35 13.5201 8.04885 0.5
832 1.17998 5.05053 10.26 0.5
833 0.864266 11.8798 10.9866 0.5
834 9.3498 2.21771 13.233 0.5
835 1.37511 5.78745 10.9658 0.5
836 8.79494 8.32255 11.1228 0.5
837 7.34977 2.94065 0.203054 0.5
838 12.5092 13.1514 11.4028 0.5
839 4.90918 5.41174 2.47773 0.5
840 7.75156 12.7157 0.0579985 0.5
841 5.95571 11.4358 6.91646 0.5
842 12.3924 4.25446 10.6601 0.5
843 12.4022 3.41782 12.0236 0.5
844 3.75612 2.58474 12.6531 0.5
845 9.55093 5.35249 5.00729 0.5
846 6.41462 12.6357 10.5312 0.5
847 4.86916 8.10255 6.99159 0.5
848 5.14974 6.37901 12.7454 0.5
849 0.408813 12.0026 6.4208 0.5
850 11.052 10.271 12.0285 0.5
851 6.78899 11.9333 6.43138 0.5
852 7.36863 10.3421 7.52158 0.5
853 4.56292 7.31065 8.81739 0.5
854 10.5403 6.15984 3.70534 0.5
855 9.77768 11.3729 3.00654 0.5
856 1.94866 0.629896 3.50007 0.5
857 9.86812 5.1792 11.2923 0.5
858 7.81683 10.1121 8.44639 0.5
859 10.9394 5.05787 5.7823 0.5
860 9.98458 4.85753 5.67998 0.5
861 11.1976 13.1513 6.38833 0.5
862 11.5329 8.04609 10.6194 0.5
863 8.35633 8.61694 5.32678 0.5
864 8.0579 7.08897 7.83675 0.5
865 11.9278 4.39662 12.4218 0.5
866 5.81486 12.073 2.26832 0.5
867 12.3567 4.46952 13.4064 0.5
868 9.32267 9.3569 8.90214 0.5
869 4.68792 1.03037 13.2334 0.5
870 4.11832 8.63696 6.67756 0.5
871 12.9111 8.88921 4.38257 0.5
872 1.2756 6.18983 12.6713 0.5
873 12.7375 0.856464 1.86753 0.5
874 6.77727 5.04942 12.5578 0.5
875 6.92398 11.9391 4.44468 0.5
876 2.68766 5.62924 8.50768 0.5
877 10.7575 8.05651 6.68794 0.5
878 2.18616 11.2294 0.0151106 0.5
879 1.15057 3.61294 7.6916 0.5
880 11.9957 1.18689 2.43153 0.5
881 10.9092 10.7723 12.9596 0.5
882 2.10253 9.94087 3.89041 0.5
883 11.07 12.7011 0.0477328 0.5
884 12.9985 3.75154 0.0266836 0.5
885 7.94127 10.82 10.4681 0.5
886 13.1059 3.29731 7.06886 0.5
887 0.226392 0.303062 12.2971 0.5
888 4.3681 4.63985 2.18331 0.5
889 11.1389 5.0906 8.13105 0.5
890 11.9027 9.20785 5.93146 0.5
891 1.53144 6.24012 2.7554 0.5
892 9.29365 0.935246 9.87519 0.5
893 10.4421 5.04674 8.91356 0.5
894 7.3144 7.82074 0.807266 0.5
895 12.0539 9.16109 0.996922 0.5
896 7.29832 11.993 0.543491 0.5
897 7.10083 11.9689 3.49914 0.5
898 5.45986 12.2585 3.16066 0.5
899 10.1701 4.96969 7.89662 0.5
900 11.8598 10.5897 9.60094 0.5
901 0.186167 5.04904 10.2215 0.5
902 11.4626 7.11511 7.944 0.5
903 9.61797 8.56453 3.48997 0.5
904 7.66894 3.45848 5.3747 0.5
905 13.4757 7.55124 5.98777 0.5
906 13.2892 4.5481 3.80807 0.5
907 6.50355 3.46575 11.2202 0.5
908 8.39928 0.38173 5.51218 0.5
909 9.49703 3.66013 2.60118 0.5
910 7.47112 2.92876 8.22583 0.5
911 6.23409 6.77657 12.6653 0.5
912 8.49517 9.33507 11.4252 0.5
913 11.962 5.42397 0.253755 0.5
914 4.83357 13.2799 13.3044 0.5
915 7.52326 2.3692 5.55558 0.5
916 11.0721 8.63561 5.99066 0.5
917 11.9002 0.0451673 12.003 0.5
918 7.29936 6.51015 8.22639 0.5
919 13.0422 12.1198 2.55965 0.5
920 13.2047 10.457 11.0483 0.5
921 5.18407 7.09861 6.78134 0.5
922 12.4076 3.3352 10.9521 0.5
923 13.4867 2.50613 7.65982 0.5
924 11.5704 11.3173 10.3431 0.5
925 10.1598 3.37759 1.78835 0.5
926 5.45975 10.5859 13.2356 0.5
927 2.3533 7.69894 6.13353 0.5
928 0.566443 6.76322 5.85663 0.5
929 1.32923 2.95171 10.9388 0.5
930 10.2485 9.61267 9.08542 0.5
931 4.91425 9.42951 12.1781 0.5