LAMMPS Description

1000 atoms

1 atom types
0 17.099759 xlo xhi
0 17.099759 ylo yhi
0 17.099759 zlo zhi


Atoms # sphere

1 1 1 2.35 1.47207 10.2464 2.57489
2 1 1 2.35 15.6546 13.8708 13.2541
3 1 1 2.35 15.0419 6.07979 5.27407
4 1 1 2.35 11.5629 16.7162 0.267726
5 1 1 2.35 9.20758 7.52582 11.2837
6 1 1 2.35 6.34725 9.51199 3.29378
7 1 1 2.35 7.94538 2.09675 13.5497
8 1 1 2.35 14.9215 5.18791 16.4921
9 1 1 2.35 12.9504 10.1045 8.78158
10 1 1 2.35 4.67754 1.7013 7.40547
11 1 1 2.35 12.7357 2.87718 16.6739
12 1 1 2.35 10.612 12.2588 8.24791
13 1 1 2.35 11.6064 0.164898 6.55985
14 1 1 2.35 1.90373 0.727934 5.08206
15 1 1 2.35 7.28042 7.17546 7.98278
16 1 1 2.35 0.89208 1.45095 8.44917
17 1 1 2.35 4.77903 4.44098 9.95374
18 1 1 2.35 6.88388 11.1865 14.0019
19 1 1 2.35 13.9267 11.082 13.3068
20 1 1 2.35 9.04279 8.20776 2.87125
21 1 1 2.35 11.9282 5.16139 5.45839
22 1 1 2.35 16.9413 13.8195 5.79555
23 1 1 2.35 4.6913 13.1282 5.19854
24 1 1 2.35 1.25827 7.11212 7.54252
25 1 1 2.35 14.9569 16.0686 0.82199
26 1 1 2.35 13.2343 12.5684 4.23753
27 1 1 2.35 1.91994 4.01459 14.4402
28 1 1 2.35 2.10546 4.587 4.58282
29 1 1 2.35 16.0719 9.47988 6.98553
30 1 1 2.35 3.31024 14.3735 16.5949
31 1 1 2.35 13.9809 8.48533 0.449473
32 1 1 2.35 11.5021 12.0293 7.84266
33 1 1 2.35 5.62823 14.1219 4.01726
34 1 1 2.35 14.8601 16.0178 7.84104
35 1 1 2.35 0.948517 2.68145 12.112
36 1 1 2.35 2.00027 9.99805 9.00103
37 1 1 2.35 15.1598 2.26524 12.0845
38 1 1 2.35 7.75314 1.92533 10.9264
39 1 1 2.35 8.91754 6.604 5.17514
40 1 1 2.35 8.2795 2.02069 9.46706
41 1 1 2.35 7.22591 0.717603 12.7761
42 1 1 2.35 9.78465 1.45864 1.6222
43 1 1 2.35 8.40334 0.354377 8.18862
44 1 1 2.35 13.3855 4.5141 14.9346
45 1 1 2.35 7.7765 12.2677 2.08679
46 1 1 2.35 10.4693 16.5992 5.23994
47 1 1 2.35 7.28337 11.469 3.67206
48 1 1 2.35 5.9516 15.4899 12.2953
49 1 1 2.35 8.82696 6.29159 11.06
50 1 1 2.35 13.3808 6.96673 13.9136
51 1 1 2.35 13.583 3.3879 4.08239
52 1 1 2.35 9.45376 10.8967 10.053
53 1 1 2.35 9.26557 16.4301 4.76959
54 1 1 2.35 5.68958 13.5004 9.33788
55 1 1 2.35 1.03923 9.81757 6.40703
56 1 1 2.35 14.4097 10.9054 5.23415
57 1 1 2.35 9.6704 8.25093 4.20316
58 1 1 2.35 2.18706 10.3008 0.0289758
59 1 1 2.35 3.68541 2.68437 15.5685
60 1 1 2.35 17.0646 8.56675 11.2714
61 1 1 2.35 8.25118 16.5479 15.5734
62 1 1 2.35 3.38433 14.9584 8.38947
63 1 1 2.35 10.3407 10.8165 0.681557
64 1 1 2.35 1.27953 6.74367 2.30913
65 1 1 2.35 13.1675 11.4643 16.0964
66 1 1 2.35 11.9646 6.34195 13.6409
67 1 1 2.35 11.451 15.4582 14.5238
68 1 1 2.35 9.83855 2.74559 13.8789
69 1 1 2.35 2.22019 1.00493 16.5901
70 1 1 2.35 1.93203 4.09882 12.4333
71 1 1 2.35 4.50324 9.15229 2.91299
72 1 1 2.35 12.7958 15.0833 8.02231
73 1 1 2.35 2.32892 1.56101 0.980373
74 1 1 2.35 1.2904 8.23032 15.5482
75 1 1 2.35 2.49283 4.45739 7.66372
76 1 1 2.35 1.12215 6.92915 0.831714
77 1 1 2.35 6.90878 13.4571 16.9978
78 1 1 2.35 9.24184 0.658651 1.93581
79 1 1 2.35 15.7143 13.781 5.4415
80 1 1 2.35 5.36316 10.8182 6.41591
81 1 1 2.35 9.4722 1.13821 12.2465
82 1 1 2.35 7.2563 0.543668 6.85025
83 1 1 2.35 4.36858 8.76012 14.2614
84 1 1 2.35 9.72252 16.5283 11.6021
85 1 1 2.35 16.4918 0.436073 5.30952
86 1 1 2.35 4.72832 7.33292 0.377941
87 1 1 2.35 9.01761 6.28161 10.6593
88 1 1 2.35 0.108546 2.99326 13.5445
89 1 1 2.35 0.303632 4.3981 10.148
90 1 1 2.35 2.90312 0.880263 11.3528
91 1 1 2.35 13.6951 13.4706 0.00254507
92 1 1 2.35 15.8943 6.05987 14.392
93 1 1 2.35 6.67773 14.6332 12.1019
94 1 1 2.35 7.13378 6.23666 14.0778
95 1 1 2.35 12.9953 3.39453 12.8928
96 1 1 2.35 12.8354 9.03499 2.2211
97 1 1 2.35 4.20087 14.1288 3.73998
98 1 1 2.35 10.8333 11.2007 11.1405
99 1 1 2.35 5.02156 6.03646 6.58041
100 1 1 2.35 15.5082 6.14947 15.2502
101 1 1 2.35 14.0604 14.1525 6.42952
102 1 1 2.35 2.9353 7.80631 9.2688
103 1 1 2.35 6.25879 11.7955 4.6645
104 1 1 2.35 14.8724 12.1046 6.47168
105 1 1 2.35 9.72873 3.63915 1.5579
106 1 1 2.35 6.21081 16.0653 9.07526
107 1 1 2.35 9.1166 7.73376 14.1665
108 1 1 2.35 15.0558 13.3196 13.2833
109 1 1 2.35 9.04236 6.15208 13.4363
110 1 1 2.35 1.00261 7.47873 5.06739
111 1 1 2.35 3.84909 7.97861 3.22635
112 1 1 2.35 13.6496 13.1609 14.6187
113 1 1 2.35 5.83167 7.21535 4.50541
114 1 1 2.35 7.58562 9.80515 6.80865
115 1 1 2.35 8.41118 2.834 16.163
116 1 1 2.35 5.84103 5.85991 0.843418
117 1 1 2.35 9.46587 8.98073 5.94402
118 1 1 2.35 3.79439 15.179 2.32349
119 1 1 2.35 6.19618 14.2787 8.07586
120 1 1 2.35 9.0242 5.91739 11.0908
121 1 1 2.35 1.13051 12.4441 3.47935
122 1 1 2.35 14.7173 6.96564 4.03642
123 1 1 2.35 5.21304 16.9074 16.8094
124 1 1 2.35 16.9162 9.6512 8.67595
125 1 1 2.35 3.96782 16.3377 9.18989
126 1 1 2.35 14.8162 15.6749 5.42692
127 1 1 2.35 6.21541 11.7966 16.3333
128 1 1 2.35 13.447 7.94719 3.47548
129 1 1 2.35 9.36218 4.1819 7.31572
130 1 1 2.35 13.0761 12.028 15.3389
131 1 1 2.35 6.93281 6.95128 11.2271
132 1 1 2.35 4.07325 13.3228 14.1883
133 1 1 2.35 9.08209 6.46558 8.53782
134 1 1 2.35 0.606613 6.0315 14.0879
135 1 1 2.35 16.163 11.2267 14.8424
136 1 1 2.35 2.8861 3.97162 1.9211
137 1 1 2.35 2.37553 4.07203 16.0361
138 1 1 2.35 8.36048 3.53284 16.2261
139 1 1 2.35 7.94313 14.1127 6.25302
140 1 1 2.35 4.98929 14.2666 0.127971
141 1 1 2.35 5.42372 9.19878 10.8867
142 1 1 2.35 13.9223 8.48202 14.3887
143 1 1 2.35 10.3761 12.8587 4.67967
144 1 1 2.35 8.20152 12.9913 8.82542
145 1 1 2.35 14.8808 5.18851 3.14935
146 1 1 2.35 2.77303 2.70361 8.03138
147 1 1 2.35 0.965899 2.54492 5.16842
148 1 1 2.35 15.2684 1.62121 9.21362
149 1 1 2.35 10.0051 0.718439 13.4548
150 1 1 2.35 12.2179 0.623091 2.75015
151 1 1 2.35 11.0659 17.031 12.687
152 1 1 2.35 15.7181 14.7867 10.7328
153 1 1 2.35 13.2538 6.72349 6.7631
154 1 1 2.35 13.6116 14.1597 5.64417
155 1 1 2.35 13.1844 10.7997 14.9839
156 1 1 2.35 1.44663 4.43497 14.7808
157 1 1 2.35 13.2042 10.6009 5.58347
158 1 1 2.35 9.4098 4.30728 2.45134
159 1 1 2.35 14.144 5.04274 15.1282
160 1 1 2.35 1.99518 13.8137 10.4844
161 1 1 2.35 13.7449 3.47048 14.2854
162 1 1 2.35 12.6779 1.75777 8.9762
163 1 1 2.35 2.00315 12.8716 2.18592
164 1 1 2.35 16.0504 13.3945 5.21364
165 1 1 2.35 14.1925 2.8933 2.42834
166 1 1 2.35 12.1968 1.65431 15.7947
167 1 1 2.35 11.6496 8.51282 12.1253
168 1 1 2.35 15.0559 6.96119 7.82026
169 1 1 2.35 16.8672 2.19976 11.9365
170 1 1 2.35 8.85008 5.63525 10.9097
171 1 1 2.35 8.69889 7.50985 4.63457
172 1 1 2.35 13.2988 2.51342 14.3987
173 1 1 2.35 8.76046 6.50524 11.3247
174 1 1 2.35 1.56517 8.65963 11.9078
175 1 1 2.35 0.419361 5.07651 14.1309
176 1 1 2.35 13.4243 11.3167 6.97434
177 1 1 2.35 7.6032 11.7728 9.00982
178 1 1 2.35 8.39701 11.5272 1.40296
179 1 1 2.35 9.81581 13.6456 10.5932
180 1 1 2.35 3.3724 3.74418 14.3055
181 1 1 2.35 10.8197 0.283298 13.621
182 1 1 2.35 0.905706 10.0977 14.5679
183 1 1 2.35 7.36132 3.97224 4.50344
184 1 1 2.35 10.8163 2.81585 7.19929
185 1 1 2.35 3.86369 2.14438 15.9536
186 1 1 2.35 2.72996 14.2566 10.82
187 1 1 2.35 2.51268 11.465 14.4349
188 1 1 2.35 11.6323 2.34672 11.3493
189 1 1 2.35 10.5057 14.0234 4.81563
190 1 1 2.35 7.97902 3.22594 6.42383
191 1 1 2.35 16.6651 3.51077 12.6057
192 1 1 2.35 8.40736 4.82163 9.99404
193 1 1 2.35 12.7178 16.1132 2.48397
194 1 1 2.35 4.64706 0.410506 12.5928
195 1 1 2.35 9.30516 10.331 17.0605
196 1 1 2.35 1.28633 9.64695 1.55779
197 1 1 2.35 4.153 5.98873 9.00677
198 1 1 2.35 6.22648 9.18135 16.8965
199 1 1 2.35 14.79 4.94329 5.44823
200 1 1 2.35 6.54079 5.41803 13.7255
201 1 1 2.35 3.88568 15.5614 5.17312
202 1 1 2.35 9.02979 10.5099 5.20394
203 1 1 2.35 11.0255 5.72867 12.2457
204 1 1 2.35 11.9445 5.39215 9.45357
205 1 1 2.35 5.90819 8.12289 14.9377
206 1 1 2.35 9.80299 16.99 16.3058
207 1 1 2.35 15.1486 7.29485 15.6347
208 1 1 2.35 1.13682 10.3123 5.14124
209 1 1 2.35 0.630019 8.07632 0.828196
210 1 1 2.35 9.66771 7.69162 2.3971
211 1 1 2.35 12.2866 13.3566 3.63587
212 1 1 2.35 11.4491 5.74511 7.20868
213 1 1 2.35 8.84479 16.6137 7.11013
214 1 1 2.35 6.9312 5.87741 4.90125
215 1 1 2.35 6.43601 10.3757 10.1962
216 1 1 2.35 12.9748 9.32003 12.4819
217 1 1 2.35 15.8041 9.7502 10.3634
218 1 1 2.35 15.5005 7.38339 1.0562
219 1 1 2.35 5.72982 1.0071 4.33822
220 1 1 2.35 1.58026 1.44063 9.96281
221 1 1 2.35 8.87638 14.5408 2.83173
222 1 1 2.35 2.79081 9.76218 0.487099
223 1 1 2.35 7.53649 10.8761 8.47706
224 1 1 2.35 15.2961 13.4221 9.75949
225 1 1 2.35 12.9289 9.46842 12.8285
226 1 1 2.35 0.788963 4.9369 3.72834
227 1 1 2.35 11.3742 14.5505 5.51562
228 1 1 2.35 6.58403 2.6913 9.12406
229 1 1 2.35 9.88609 4.93203 7.60235
230 1 1 2.35 13.9701 10.9455 4.80159
231 1 1 2.35 6.23295 6.77009 10.6131
232 1 1 2.35 6.37698 0.168655 8.48915
233 1 1 2.35 15.5987 16.7523 16.6764
234 1 1 2.35 14.4825 5.27282 12.4254
235 1 1 2.35 11.5362 3.90512 12.9219
236 1 1 2.35 4.67903 8.35018 14.3393
237 1 1 2.35 17.0095 3.81789 13.7823
238 1 1 2.35 2.7507 12.6978 15.8341
239 1 1 2.35 16.5403 4.16722 4.85041
240 1 1 2.35 8.0463 0.335636 4.1129
241 1 1 2.35 12.3892 16.5686 7.51215
242 1 1 2.35 7.71869 9.12788 12.9771
243 1 1 2.35 13.5789 4.34067 6.27177
244 1 1 2.35 9.05831 12.1525 4.20687
245 1 1 2.35 10.7685 1.43632 15.2364
246 1 1 2.35 3.82252 11.859 16.3573
247 1 1 2.35 7.71402 15.9896 14.6069
248 1 1 2.35 14.3089 6.54011 14.2683
249 1 1 2.35 7.4107 1.89596 7.77272
250 1 1 2.35 9.09412 2.44548 9.43311
251 1 1 2.35 14.0791 15.5381 2.2736
252 1 1 2.35 0.179178 3.40443 4.37173
253 1 1 2.35 11.5892 11.2976 4.85494
254 1 1 2.35 11.893 14.8795 12.0419
255 1 1 2.35 5.85308 16.5747 1.6404
256 1 1 2.35 6.83227 10.2779 7.55903
257 1 1 2.35 7.93601 15.3025 7.36984
258 1 1 2.35 14.5436 16.4564 10.046
259 1 1 2.35 9.11005 12.5625 15.6473
260 1 1 2.35 2.43969 7.48212 10.327
261 1 1 2.35 1.92732 9.74918 15.3131
262 1 1 2.35 11.6302 14.5715 16.3982
263 1 1 2.35 10.5789 10.1819 7.675
264 1 1 2.35 16.3197 12.5767 2.86669
265 1 1 2.35 8.83813 14.7522 2.4617
266 1 1 2.35 14.7161 8.6962 6.96335
267 1 1 2.35 2.09899 6.84898 10.1767
268 1 1 2.35 1.06305 6.86971 13.7297
269 1 1 2.35 15.8697 12.6869 14.2051
270 1 1 2.35 4.29797 2.39885 7.25957
271 1 1 2.35 5.91001 11.7321 4.69048
272 1 1 2.35 3.9687 5.2779 1.43755
273 1 1 2.35 7.52055 4.21253 15.0656
274 1 1 2.35 12.4117 1.29056 0.426423
275 1 1 2.35 6.15157 4.2215 2.01076
276 1 1 2.35 15.3313 3.12589 0.513061
277 1 1 2.35 1.01985 16.5547 8.53652
278 1 1 2.35 5.24766 12.047 5.53773
279 1 1 2.35 14.4236 8.03891 5.71632
280 1 1 2.35 8.85986 12.6885 12.4084
281 1 1 2.35 13.6642 12.3389 10.4717
282 1 1 2.35 10.4638 15.0858 11.7796
283 1 1 2.35 5.62999 1.62821 0.240622
284 1 1 2.35 0.923889 7.43064 6.58335
285 1 1 2.35 6.11811 1.53019 4.6173
286 1 1 2.35 4.04915 4.72374 8.88728
287 1 1 2.35 2.60379 10.2801 4.66275
288 1 1 2.35 11.538 9.31835 12.0265
289 1 1 2.35 13.3199 16.1324 1.88416
290 1 1 2.35 6.03191 11.5473 16.8734
291 1 1 2.35 7.70072 2.89852 13.6342
292 1 1 2.35 5.08955 16.4879 11.2574
293 1 1 2.35 10.7946 15.0171 4.40858
294 1 1 2.35 9.63122 4.49437 11.0362
295 1 1 2.35 11.7931 10.0877 10.5528
296 1 1 2.35 16.1532 7.12937 0.531507
297 1 1 2.35 0.22572 16.7859 0.68858
298 1 1 2.35 1.79618 12.3556 11.7455
299 1 1 2.35 4.25772 5.55256 11.615
300 1 1 2.35 12.44 14.0705 3.89467
301 1 1 2.35 5.42521 12.4109 13.1628
302 1 1 2.35 12.501 1.31997 3.4668
303 1 1 2.35 7.42549 14.5506 7.97242
304 1 1 2.35 6.44628 15.4192 4.12088
305 1 1 2.35 2.16146 12.2473 3.23621
306 1 1 2.35 8.36158 15.707 6.53064
307 1 1 2.35 8.88751 9.18766 13.5373
308 1 1 2.35 3.48432 11.467 5.89691
309 1 1 2.35 6.83084 1.16037 9.04204
310 1 1 2.35 14.9555 0.950487 2.92729
311 1 1 2.35 13.237 3.17185 9.88776
312 1 1 2.35 3.03495 3.50794 16.3423
313 1 1 2.35 15.7511 2.7585 5.86138
314 1 1 2.35 16.9135 5.36107 1.60035
315 1 1 2.35 16.0039 3.93014 5.26054
316 1 1 2.35 1.79997 5.5572 5.04289
317 1 1 2.35 14.9679 3.02602 15.494
318 1 1 2.35 15.7422 0.123643 5.75884
319 1 1 2.35 11.6015 2.43083 11.8394
320 1 1 2.35 0.952801 15.3219 3.12325
321 1 1 2.35 8.9141 8.62886 12.3504
322 1 1 2.35 2.02262 2.05738 7.60848
323 1 1 2.35 16.6286 12.619 2.26141
324 1 1 2.35 7.06763 16.9136 1.9079
325 1 1 2.35 15.7631 6.94311 6.20422
326 1 1 2.35 4.70063 1.99334 16.0236
327 1 1 2.35 4.87497 7.03026 4.33329
328 1 1 2.35 6.35356 8.59565 7.87287
329 1 1 2.35 8.72312 0.0824953 9.76334
330 1 1 2.35 15.5912 8.75586 0.999798
331 1 1 2.35 4.00612 1.66409 9.92328
332 1 1 2.35 10.4248 2.80683 7.61893
333 1 1 2.35 2.75565 16.832 15.083
334 1 1 2.35 16.5074 1.12792 11.644
335 1 1 2.35 3.03937 12.2663 11.8228
336 1 1 2.35 0.951047 12.075 4.5608
337 1 1 2.35 6.56545 6.23515 2.65787
338 1 1 2.35 12.8783 8.09709 4.1693
339 1 1 2.35 0.317752 16.3662 9.10282
340 1 1 2.35 11.4103 15.0051 2.61987
341 1 1 2.35 13.9518 1.76956 16.9339
342 1 1 2.35 6.41623 6.74022 8.40496
343 1 1 2.35 10.5962 7.57799 12.3412
344 1 1 2.35 12.1472 8.85216 4.4876
345 1 1 2.35 1.61221 9.17281 4.96666
346 1 1 2.35 4.78097 6.70129 7.20644
347 1 1 2.35 10.651 7.63539 13.2914
348 1 1 2.35 6.80595 12.6816 0.300803
349 1 1 2.35 13.1171 7.61036 9.69497
350 1 1 2.35 11.6526 10.402 14.9719
351 1 1 2.35 3.13269 12.7669 17.051
352 1 1 2.35 12.2232 13.4238 11.6002
353 1 1 2.35 9.93103 11.0288 14.797
354 1 1 2.35 11.5576 10.8116 13.2599
355 1 1 2.35 13.6968 4.71619 1.76264
356 1 1 2.35 2.86153 6.5354 15.8905
357 1 1 2.35 13.5481 13.1549 17.0797
358 1 1 2.35 0.33625 7.10017 12.6575
359 1 1 2.35 11.9911 2.2026 16.4625
360 1 1 2.35 9.96246 15.2747 11.129
361 1 1 2.35 14.9317 5.78859 2.1408
362 1 1 2.35 3.30676 0.770182 1.20551
363 1 1 2.35 15.3059 14.6223 3.83504
364 1 1 2.35 2.74846 7.81513 6.5165
365 1 1 2.35 5.83632 13.136 2.48899
366 1 1 2.35 12.6565 15.7136 14.434
367 1 1 2.35 7.61694 14.3082 11.3608
368 1 1 2.35 5.26158 6.81087 12.3498
369 1 1 2.35 2.68634 1.14046 9.96551
370 1 1 2.35 13.2406 13.5341 16.818
371 1 1 2.35 12.6259 14.9661 0.282661
372 1 1 2.35 12.3061 0.445958 2.10881
373 1 1 2.35 13.3509 1.17298 5.81229
374 1 1 2.35 10.7806 2.73001 3.13296
375 1 1 2.35 11.8888 3.2061 11.1527
376 1 1 2.35 10.159 15.2275 4.06803
377 1 1 2.35 16.1583 2.16812 16.4982
378 1 1 2.35 5.39215 12.7618 8.95276
379 1 1 2.35 8.29989 8.87672 13.0702
380 1 1 2.35 1.56071 8.37558 2.17903
381 1 1 2.35 0.960997 13.5089 15.2931
382 1 1 2.35 8.75357 0.49107 6.09487
383 1 1 2.35 3.55788 5.29593 8.57562
384 1 1 2.35 14.3231 3.98445 12.3053
385 1 1 2.35 15.3604 15.7203 12.2092
386 1 1 2.35 15.2821 9.53417 12.053
387 1 1 2.35 4.92286 14.8992 4.10553
388 1 1 2.35 10.9635 10.3621 12.9059
389 1 1 2.35 14.6676 4.58821 4.07421
390 1 1 2.35 4.96449 0.581163 9.8133
391 1 1 2.35 16.0359 8.64538 5.7788
392 1 1 2.35 4.54572 11.7498 2.96601
393 1 1 2.35 10.5733 9.93241 11.0478
394 1 1 2.35 8.70739 15.6697 13.2158
395 1 1 2.35 4.4319 16.6347 1.54946
396 1 1 2.35 5.02661 12.6896 14.1608
397 1 1 2.35 6.54083 7.63822 10.9302
398 1 1 2.35 5.82309 8.91432 10.3844
399 1 1 2.35 15.8018 4.15803 12.3629
400 1 1 2.35 15.5811 2.97042 11.3572
401 1 1 2.35 14.8098 7.75706 15.4006
402 1 1 2.35 12.559 8.43589 9.71799
403 1 1 2.35 6.33241 16.6105 10.7242
404 1 1 2.35 4.08015 4.2115 13.354
405 1 1 2.35 14.0336 7.81288 7.12921
406 1 1 2.35 8.94328 4.96396 8.5822
407 1 1 2.35 2.30779 10.7489 5.69909
408 1 1 2.35 12.877 11.8161 10.5616
409 1 1 2.35 11.347 4.35892 1.35364
410 1 1 2.35 4.01373 6.76981 7.91725
411 1 1 2.35 10.5414 6.14435 13.6283
412 1 1 2.35 16.4423 17.0027 13.3941
413 1 1 2.35 15.062 0.806156 13.9594
414 1 1 2.35 12.656 15.8362 8.88295
415 1 1 2.35 15.1129 16.2658 12.7193
416 1 1 2.35 12.0299 12.5776 5.23737
417 1 1 2.35 11.4913 11.2474 10.5342
418 1 1 2.35 11.7148 1.97829 10.6379
419 1 1 2.35 16.504 11.4143 11.5985
420 1 1 2.35 5.88396 15.0556 6.09471
421 1 1 2.35 14.1569 10.4488 4.46811
422 1 1 2.35 2.00789 3.05904 5.86056
423 1 1 2.35 9.44492 3.57075 10.4367
424 1 1 2.35 2.13294 13.7866 14.9231
425 1 1 2.35 15.5957 6.62527 6.84418
426 1 1 2.35 14.5158 6.85325 3.66642
427 1 1 2.35 16.6785 10.3644 9.22412
428 1 1 2.35 8.6896 5.37501 0.881977
429 1 1 2.35 3.92622 14.6566 15.3497
430 1 1 2.35 10.966 2.55655 11.0243
431 1 1 2.35 16.0215 5.53607 8.10946
432 1 1 2.35 9.35811 0.916791 5.78704
433 1 1 2.35 6.61862 5.82378 10.3976
434 1 1 2.35 1.49294 16.671 8.84499
435 1 1 2.35 2.46404 12.2484 8.50146
436 1 1 2.35 5.63402 3.85794 6.6606
437 1 1 2.35 5.34098 5.16283 2.20361
438 1 1 2.35 10.4513 6.26357 4.08544
439 1 1 2.35 2.20599 12.1567 0.821807
440 1 1 2.35 9.7997 13.5866 16.3517
441 1 1 2.35 16.7631 11.2582 13.2636
442 1 1 2.35 3.32594 15.7865 13.3834
443 1 1 2.35 4.21265 8.88123 3.84387
444 1 1 2.35 10.0002 4.68987 2.86453
445 1 1 2.35 11.941 17.0784 13.4947
446 1 1 2.35 0.574845 3.67891 0.185807
447 1 1 2.35 14.8314 9.55238 6.98602
448 1 1 2.35 11.6124 15.3601 2.82758
449 1 1 2.35 15.4901 12.9943 15.8413
450 1 1 2.35 15.1017 8.34466 0.859516
451 1 1 2.35 4.84969 9.48617 12.989
452 1 1 2.35 15.6971 10.1312 6.20709
453 1 1 2.35 9.81075 2.69322 0.0682047
454 1 1 2.35 11.3939 15.3788 6.90823
455 1 1 2.35 8.26434 9.25636 13.064
456 1 1 2.35 6.44674 14.5987 9.35438
457 1 1 2.35 5.06438 2.28969 13.3563
458 1 1 2.35 13.3403 7.32521 15.6466
459 1 1 2.35 4.12265 4.17653 15.4047
460 1 1 2.35 14.007 0.747826 7.96183
461 1 1 2.35 6.79686 15.2178 7.97979
462 1 1 2.35 17.0708 1.05562 7.25967
463 1 1 2.35 1.4379 8.88852 10.1362
464 1 1 2.35 14.9102 2.19367 8.71898
465 1 1 2.35 15.4484 16.2424 15.0537
466 1 1 2.35 1.47038 9.90869 2.48411
467 1 1 2.35 1.46915 14.6074 6.89385
468 1 1 2.35 14.5516 1.87444 0.582756
469 1 1 2.35 6.31843 5.76503 13.177
470 1 1 2.35 1.37029 15.5695 8.74089
471 1 1 2.35 16.6015 12.3279 3.05731
472 1 1 2.35 6.95383 11.2317 16.8929
473 1 1 2.35 11.1848 1.72195 0.647396
474 1 1 2.35 10.6574 1.74461 6.61212
475 1 1 2.35 5.15846 4.8953 12.2554
476 1 1 2.35 11.85 0.322418 15.686
477 1 1 2.35 2.25115 5.10354 0.617441
478 1 1 2.35 13.2226 13.6724 16.9687
479 1 1 2.35 13.3028 1.22798 1.67418
480 1 1 2.35 3.70984 6.4078 6.64348
481 1 1 2.35 7.5012 14.5113 9.10814
482 1 1 2.35 1.08848 12.5656 1.39894
483 1 1 2.35 13.1768 16.286 0.1223
484 1 1 2.35 9.06913 16.6225 5.87586
485 1 1 2.35 1.20477 6.23592 9.03124
486 1 1 2.35 5.13428 0.515222 15.214
487 1 1 2.35 8.64707 5.23317 15.9324
488 1 1 2.35 3.00422 16.4162 13.5683
489 1 1 2.35 11.3075 12.7868 8.49264
490 1 1 2.35 16.8581 16.1793 3.7903
491 1 1 2.35 2.43914 15.658 1.90965
492 1 1 2.35 11.2004 15.7925 7.46404
493 1 1 2.35 7.30232 16.0308 0.485947
494 1 1 2.35 16.711 9.03546 8.97579
495 1 1 2.35 10.0472 6.16661 1.83833
496 1 1 2.35 15.8838 2.72354 2.06042
497 1 1 2.35 10.7362 4.75851 4.71424
498 1 1 2.35 4.82235 3.15379 7.25366
499 1 1 2.35 3.46402 2.91695 7.59437
500 1 1 2.35 17.0206 8.27906 4.47006
501 1 1 2.35 16.2362 13.0812 14.5633
502 1 1 2.35 9.4192 15.8183 9.76754
503 1 1 2.35 9.82144 11.1691 0.363753
504 1 1 2.35 15.0708 8.33364 16.6961
505 1 1 2.35 13.5506 16.4064 10.2144
506 1 1 2.35 0.110058 0.364379 16.0486
507 1 1 2.35 11.1502 14.014 10.6741
508 1 1 2.35 3.21511 4.27754 1.74979
509 1 1 2.35 7.86767 14.7657 16.7335
510 1 1 2.35 15.6901 11.0883 15.4239
511 1 1 2.35 16.687 6.12239 2.70842
512 1 1 2.35 10.9306 7.82852 2.57074
513 1 1 2.35 8.57773 10.5873 9.16194
514 1 1 2.35 10.4755 0.235614 6.69217
515 1 1 2.35 4.54847 15.4989 9.71648
516 1 1 2.35 1.33777 10.102 14.819
517 1 1 2.35 16.3938 3.08842 6.19576
518 1 1 2.35 13.1634 3.6347 13.4626
519 1 1 2.35 5.35065 2.40207 9.40058
520 1 1 2.35 13.3747 0.299527 4.00748
521 1 1 2.35 9.46331 5.86474 10.6168
522 1 1 2.35 9.69177 8.36929 12.2965
523 1 1 2.35 9.96305 15.6875 9.13624
524 1 1 2.35 2.83932 0.856895 10.3801
525 1 1 2.35 14.4124 12.7475 7.50882
526 1 1 2.35 7.69083 12.1636 9.71762
527 1 1 2.35 10.365 12.3725 4.03856
528 1 1 2.35 4.79052 7.6018 15.3393
529 1 1 2.35 2.53008 12.47 5.50048
530 1 1 2.35 12.4726 9.7523 2.22164
531 1 1 2.35 10.6128 15.6064 14.5042
532 1 1 2.35 1.53448 5.2227 16.3249
533 1 1 2.35 4.32857 3.96236 1.42918
534 1 1 2.35 1.0757 11.9659 4.8821
535 1 1 2.35 12.2198 11.494 4.27161
536 1 1 2.35 11.3947 11.7446 1.78972
537 1 1 2.35 16.7312 5.45149 2.71286
538 1 1 2.35 2.73238 14.6586 11.6454
539 1 1 2.35 14.6976 12.2976 14.1199
540 1 1 2.35 9.53303 2.92617 8.31533
541 1 1 2.35 10.5936 14.279 14.6862
542 1 1 2.35 8.08993 15.9568 13.5293
543 1 1 2.35 7.66523 1.41431 6.39154
544 1 1 2.35 14.5933 14.8682 4.94237
545 1 1 2.35 0.793088 15.8778 6.50111
546 1 1 2.35 5.533 2.09926 6.69086
547 1 1 2.35 7.41176 10.7376 10.954
548 1 1 2.35 6.37102 2.58986 15.4868
549 1 1 2.35 10.2322 8.71125 4.04367
550 1 1 2.35 16.7112 2.9705 3.3329
551 1 1 2.35 1.77573 3.27351 11.1854
552 1 1 2.35 0.102814 0.932264 8.01621
553 1 1 2.35 6.92896 12.7034 13.2767
554 1 1 2.35 4.82322 5.36467 12.5924
555 1 1 2.35 12.7013 16.198 0.82525
556 1 1 2.35 6.07555 16.5427 4.1714
557 1 1 2.35 3.5538 1.35275 11.4948
558 1 1 2.35 13.7434 0.319543 8.43173
559 1 1 2.35 6.61815 15.1511 14.2623
560 1 1 2.35 6.39095 14.4353 4.91138
561 1 1 2.35 10.356 8.22907 1.16794
562 1 1 2.35 13.295 9.32418 0.732451
563 1 1 2.35 4.41157 2.43829 11.2507
564 1 1 2.35 2.01934 4.73971 1.36255
565 1 1 2.35 11.2028 11.2822 5.13057
566 1 1 2.35 16.57 7.25737 5.3191
567 1 1 2.35 2.79277 6.93944 6.03265
568 1 1 2.35 10.6012 1.7515 3.46376
569 1 1 2.35 6.81833 10.0027 12.567
570 1 1 2.35 2.50051 9.35984 11.6036
571 1 1 2.35 16.7457 14.0695 10.9036
572 1 1 2.35 10.5379 5.56242 3.52129
573 1 1 2.35 16.4007 8.02775 16.5596
574 1 1 2.35 4.20385 3.80895 14.8842
575 1 1 2.35 12.165 6.33675 2.23152
576 1 1 2.35 0.673557 11.173 15.933
577 1 1 2.35 15.457 10.4758 13.5486
578 1 1 2.35 10.3774 1.52803 0.710034
579 1 1 2.35 12.1673 4.52164 0.0415002
580 1 1 2.35 12.7487 1.34109 1.17824
581 1 1 2.35 1.34046 11.9289 16.9886
582 1 1 2.35 7.90083 14.9417 1.64309
583 1 1 2.35 11.9013 12.118 9.1093
584 1 1 2.35 0.883739 2.05546 14.7136
585 1 1 2.35 16.9134 13.3795 1.76321
586 1 1 2.35 9.91849 10.1065 3.16051
587 1 1 2.35 5.56941 9.33241 9.41889
588 1 1 2.35 10.9674 5.17315 1.20657
589 1 1 2.35 8.02625 2.83789 0.0334973
590 1 1 2.35 12.2152 17.0539 1.21284
591 1 1 2.35 7.74206 15.3508 6.71483
592 1 1 2.35 4.78232 0.77802 7.48737
593 1 1 2.35 4.70825 3.76802 0.359082
594 1 1 2.35 5.35623 3.19912 8.41657
595 1 1 2.35 7.94269 12.5819 14.7721
596 1 1 2.35 5.49864 14.0045 6.56909
597 1 1 2.35 13.9805 13.5693 8.3016
598 1 1 2.35 10.4138 15.3498 7.32993
599 1 1 2.35 8.39241 5.72734 10.3183
600 1 1 2.35 10.6521 3.73838 2.40957
601 1 1 2.35 11.2825 12.3877 15.8959
602 1 1 2.35 12.0469 16.3368 6.09676
603 1 1 2.35 3.40763 5.20313 16.2118
604 1 1 2.35 12.4081 3.62226 15.5311
605 1 1 2.35 5.22296 13.7762 14.5039
606 1 1 2.35 2.37177 16.1371 12.7175
607 1 1 2.35 9.34291 10.1408 11.198
608 1 1 2.35 1.9999 7.33363 10.9383
609 1 1 2.35 14.902 3.76589 16.6373
610 1 1 2.35 0.0724481 2.88513 9.27316
611 1 1 2.35 15.7981 15.9701 7.99912
612 1 1 2.35 3.53891 4.18899 9.99022
613 1 1 2.35 11.0105 16.7596 0.20951
614 1 1 2.35 11.9751 0.777468 8.81956
615 1 1 2.35 5.3821 4.78948 5.2128
616 1 1 2.35 7.09568 6.23261 14.5811
617 1 1 2.35 2.49929 15.0538 7.26746
618 1 1 2.35 12.9537 7.64063 9.94345
619 1 1 2.35 1.02228 5.07663 15.5441
620 1 1 2.35 4.57315 16.1779 14.6679
621 1 1 2.35 2.38244 5.97281 9.69496
622 1 1 2.35 6.54263 0.578055 0.291071
623 1 1 2.35 8.87731 7.047 10.9583
624 1 1 2.35 5.33992 6.63501 2.1933
625 1 1 2.35 3.14889 0.325355 4.10432
626 1 1 2.35 13.8208 16.4328 7.09665
627 1 1 2.35 3.96592 0.778524 12.812
628 1 1 2.35 9.2739 1.07323 3.45416
629 1 1 2.35 13.8138 8.59676 3.06194
630 1 1 2.35 14.5011 8.38418 1.71853
631 1 1 2.35 16.8291 15.0622 10.9023
632 1 1 2.35 16.1304 9.08216 3.36634
633 1 1 2.35 16.9322 4.39572 13.4474
634 1 1 2.35 3.68874 10.0239 6.66332
635 1 1 2.35 4.57062 2.86542 8.38533
636 1 1 2.35 15.3576 16.1437 16.7584
637 1 1 2.35 1.97783 8.5342 0.144921
638 1 1 2.35 5.51599 13.7285 9.29116
639 1 1 2.35 9.22432 9.32149 6.00858
640 1 1 2.35 12.0047 13.1944 8.76508
641 1 1 2.35 3.3131 11.6587 3.01611
642 1 1 2.35 9.67014 14.4652 13.249
643 1 1 2.35 9.46279 14.0364 4.81441
644 1 1 2.35 8.37169 13.8526 4.61832
645 1 1 2.35 7.61735 13.9465 17.0602
646 1 1 2.35 9.71731 4.15351 11.2663
647 1 1 2.35 8.74247 15.7345 2.80006
648 1 1 2.35 13.8873 3.27607 16.193
649 1 1 2.35 8.50153 4.40023 9.32357
650 1 1 2.35 3.52139 4.93304 10.8635
651 1 1 2.35 8.14446 3.0345 10.5132
652 1 1 2.35 14.8379 14.2119 15.4562
653 1 1 2.35 15.1784 16.1804 13.9588
654 1 1 2.35 2.0583 12.4989 6.83277
655 1 1 2.35 6.303 13.8729 16.0469
656 1 1 2.35 9.76742 17.0534 16.8525
657 1 1 2.35 6.62305 2.47703 8.34332
658 1 1 2.35 4.69443 13.2993 7.14503
659 1 1 2.35 4.86714 9.56578 8.6707
660 1 1 2.35 12.1832 3.73287 8.17997
661 1 1 2.35 12.0854 15.1314 4.5084
662 1 1 2.35 9.22422 0.386847 6.32347
663 1 1 2.35 15.1658 5.8354 0.0136252
664 1 1 2.35 11.2473 13.1561 3.25902
665 1 1 2.35 14.9455 7.7201 16.0464
666 1 1 2.35 5.13574 5.17858 6.50608
667 1 1 2.35 13.3007 1.50917 14.0547
668 1 1 2.35 5.25346 2.77972 6.85989
669 1 1 2.35 5.99082 13.4595 12.3483
670 1 1 2.35 2.35204 9.10005 14.9909
671 1 1 2.35 9.5722 12.9775 5.54568
672 1 1 2.35 4.51969 11.4331 12.2155
673 1 1 2.35 4.09615 8.0466 10.2279
674 1 1 2.35 3.0016 1.89261 8.44393
675 1 1 2.35 6.77225 9.63828 13.7914
676 1 1 2.35 5.77298 12.2913 15.4996
677 1 1 2.35 2.88417 4.6755 5.0417
678 1 1 2.35 7.16164 2.89237 7.67219
679 1 1 2.35 3.06515 7.90422 11.1867
680 1 1 2.35 15.6619 10.8445 10.6049
681 1 1 2.35 7.24774 14.36 6.48764
682 1 1 2.35 2.48726 15.4441 11.4608
683 1 1 2.35 3.70568 7.66306 1.21302
684 1 1 2.35 9.42159 7.99693 10.9892
685 1 1 2.35 11.9585 1.89024 1.84014
686 1 1 2.35 13.5306 2.61345 14.9841
687 1 1 2.35 0.21436 13.6264 5.92509
688 1 1 2.35 4.18221 4.69459 4.6786
689 1 1 2.35 13.5454 10.0828 14.6535
690 1 1 2.35 5.41001 5.26673 10.8774
691 1 1 2.35 11.7992 6.48287 11.926
692 1 1 2.35 16.8766 0.1542 3.58447
693 1 1 2.35 9.36767 0.789528 14.6087
694 1 1 2.35 14.3745 2.89105 4.94099
695 1 1 2.35 1.15976 6.97642 7.93684
696 1 1 2.35 4.6087 8.83697 12.9932
697 1 1 2.35 9.74755 2.41168 16.9489
698 1 1 2.35 4.40925 4.22788 9.55034
699 1 1 2.35 5.44606 5.07339 12.1619
700 1 1 2.35 17.0464 7.74488 11.7177
701 1 1 2.35 10.496 11.4801 8.65721
702 1 1 2.35 2.53737 4.00311 9.78351
703 1 1 2.35 0.0268303 16.6728 14.0761
704 1 1 2.35 14.1683 3.71139 11.5494
705 1 1 2.35 14.179 7.05167 16.9385
706 1 1 2.35 9.74701 15.9548 12.1168
707 1 1 2.35 9.01896 3.20966 7.28578
708 1 1 2.35 13.0239 14.8937 6.07653
709 1 1 2.35 5.96137 0.257413 2.90565
710 1 1 2.35 4.76014 15.9061 7.00579
711 1 1 2.35 12.8367 7.77114 8.19294
712 1 1 2.35 1.37783 5.85655 11.1352
713 1 1 2.35 14.8789 16.0248 4.18517
714 1 1 2.35 9.1428 1.09499 16.1284
715 1 1 2.35 4.08442 16.5025 11.9812
716 1 1 2.35 13.2621 14.9843 15.1387
717 1 1 2.35 11.5103 13.0577 3.00172
718 1 1 2.35 5.24832 11.6615 8.39733
719 1 1 2.35 2.21522 3.28584 5.23781
720 1 1 2.35 14.8485 14.7267 8.18604
721 1 1 2.35 11.8085 0.563129 0.738563
722 1 1 2.35 15.1908 5.54535 7.20206
723 1 1 2.35 3.13043 14.1669 10.0573
724 1 1 2.35 5.79913 11.1201 13.6761
725 1 1 2.35 11.2403 8.08547 5.87091
726 1 1 2.35 16.8179 11.7224 16.2859
727 1 1 2.35 1.33812 6.49542 2.73062
728 1 1 2.35 13.7946 6.65713 11.2901
729 1 1 2.35 12.2894 15.1199 14.9385
730 1 1 2.35 13.1264 1.84436 10.8125
731 1 1 2.35 5.9998 14.479 4.43439
732 1 1 2.35 1.32128 11.8209 3.8182
733 1 1 2.35 6.95349 0.326976 2.25583
734 1 1 2.35 8.99936 13.4103 9.81941
735 1 1 2.35 2.34174 1.14623 10.9578
736 1 1 2.35 2.07818 6.50763 1.61562
737 1 1 2.35 13.9357 2.33967 16.5456
738 1 1 2.35 3.7574 14.3389 12.821
739 1 1 2.35 16.0753 0.88782 4.73027
740 1 1 2.35 7.37094 9.00741 3.29736
741 1 1 2.35 5.00482 7.53553 16.3521
742 1 1 2.35 8.9554 13.3554 16.0923
743 1 1 2.35 9.10769 9.83455 8.14351
744 1 1 2.35 1.96196 1.0116 5.93546
745 1 1 2.35 12.1299 1.05248 7.42747
746 1 1 2.35 16.1028 11.0336 7.94747
747 1 1 2.35 14.191 11.3583 9.97811
748 1 1 2.35 4.06595 3.58991 15.9269
749 1 1 2.35 11.9364 4.04918 6.78113
750 1 1 2.35 0.486377 4.4824 0.38549
751 1 1 2.35 7.43469 1.53508 9.89458
752 1 1 2.35 15.6714 1.27629 8.07719
753 1 1 2.35 14.0217 5.05866 13.0524
754 1 1 2.35 16.7203 8.97558 16.2807
755 1 1 2.35 7.63402 11.3352 8.18863
756 1 1 2.35 1.01729 14.5884 15.4339
757 1 1 2.35 10.8549 8.35685 0.0858122
758 1 1 2.35 16.8983 0.864449 3.44728
759 1 1 2.35 7.46306 2.4612 6.93125
760 1 1 2.35 15.8396 15.3779 3.37997
761 1 1 2.35 2.96308 4.11706 10.2807
762 1 1 2.35 6.87301 15.2911 5.1571
763 1 1 2.35 0.539126 1.42222 4.91992
764 1 1 2.35 13.3925 0.543706 8.56651
765 1 1 2.35 8.81517 5.75702 12.424
766 1 1 2.35 3.18163 4.52091 1.4476
767 1 1 2.35 12.5176 12.7016 7.79389
768 1 1 2.35 3.82878 11.0136 2.644
769 1 1 2.35 12.0809 4.47681 14.1981
770 1 1 2.35 14.3569 9.06637 13.3521
771 1 1 2.35 0.498998 11.6106 13.2607
772 1 1 2.35 4.22928 0.723064 14.8983
773 1 1 2.35 8.58524 11.4149 13.3944
774 1 1 2.35 0.538185 16.129 8.06444
775 1 1 2.35 3.60256 0.153441 9.92244
776 1 1 2.35 0.727072 13.5132 14.1212
777 1 1 2.35 10.6151 9.77187 2.01697
778 1 1 2.35 2.12802 14.0844 0.916723
779 1 1 2.35 14.4935 3.66679 6.56784
780 1 1 2.35 14.5738 11.5925 10.5268
781 1 1 2.35 10.7729 5.77584 12.5807
782 1 1 2.35 12.1135 13.587 3.0341
783 1 1 2.35 11.0631 2.79557 13.5011
784 1 1 2.35 11.5078 15.8994 14.1221
785 1 1 2.35 6.88993 11.9075 3.30741
786 1 1 2.35 9.43783 4.48323 5.95526
787 1 1 2.35 11.695 4.57601 15.05
788 1 1 2.35 2.17507 9.85702 12.8919
789 1 1 2.35 1.57696 2.63192 15.7929
790 1 1 2.35 1.31609 5.28667 16.7299
791 1 1 2.35 8.29475 6.89029 1.91593
792 1 1 2.35 6.05848 5.8128 11.754
793 1 1 2.35 9.00425 7.25852 14.8108
794 1 1 2.35 15.229 5.12177 15.8883
795 1 1 2.35 5.17478 12.3863 7.60225
796 1 1 2.35 4.3963 9.10144 12.2499
797 1 1 2.35 8.14641 0.357783 10.5996
798 1 1 2.35 4.09835 15.8556 2.92467
799 1 1 2.35 1.63061 13.2486 7.13731
800 1 1 2.35 2.27797 10.8467 9.28301
801 1 1 2.35 8.72597 14.9087 7.39519
802 1 1 2.35 9.2445 10.9223 12.8947
803 1 1 2.35 1.92137 7.05604 7.01662
804 1 1 2.35 13.7124 9.19237 14.2643
805 1 1 2.35 16.7401 9.61543 12.2552
806 1 1 2.35 15.801 12.001 9.46326
807 1 1 2.35 13.4265 15.9451 4.00893
808 1 1 2.35 7.05319 5.1506 7.71271
809 1 1 2.35 1.55211 8.41416 15.0702
810 1 1 2.35 12.3514 4.48268 10.0843
811 1 1 2.35 12.8374 8.76192 2.1498
812 1 1 2.35 14.204 4.20017 15.1942
813 1 1 2.35 14.6435 9.70068 6.51242
814 1 1 2.35 15.4795 12.0714 10.2743