LAMMPS Description

1000 atoms

2 atom types
0 13.572088 xlo xhi
0 13.572088 ylo yhi
0 13.572088 zlo zhi

PairIJ Coeffs

1 1 morse 0.5 3 1 2
1 2 morse 0.5 3 0.8 1.6
2 2 morse 0.5 3 0.6 1.2

Atoms # sphere

1 1 1 2.35 6.626 10.5018 1.55049
2 2 0.6 2.35 11.3221 1.70291 7.58603
3 2 0.6 2.35 12.1282 5.63111 2.88544
4 2 0.6 2.35 7.26663 2.91744 8.77425
5 2 0.6 2.35 7.45647 10.2255 5.1988
6 2 0.6 2.35 1.47214 7.66657 4.47485
7 1 1 2.35 10.9379 3.05774 10.7223
8 2 0.6 2.35 6.48452 12.0473 4.63909
9 2 0.6 2.35 7.361 5.70187 13.3575
10 1 1 2.35 1.36453 7.56028 0.118908
11 2 0.6 2.35 5.97906 7.21828 12.5433
12 1 1 2.35 11.8967 4.68772 3.45219
13 2 0.6 2.35 12.5455 11.8177 5.04149
14 2 0.6 2.35 2.95856 1.57662 7.38201
15 2 0.6 2.35 9.87249 12.2141 13.2414
16 1 1 2.35 1.21456 10.7811 5.45186
17 2 0.6 2.35 12.4025 1.45416 2.15828
18 2 0.6 2.35 7.16032 0.734419 0.653067
19 2 0.6 2.35 8.67178 3.7761 0.292014
20 2 0.6 2.35 5.75709 4.95471 0.95864
21 2 0.6 2.35 5.34543 9.29345 8.87573
22 2 0.6 2.35 5.83808 0.187774 1.9277
23 2 0.6 2.35 11.2815 13.147 7.56391
24 2 0.6 2.35 12.0657 4.73248 7.26697
25 2 0.6 2.35 3.33191 2.008 11.0637
26 1 1 2.35 11.5216 10.5182 13.0916
27 2 0.6 2.35 3.34499 0.0201386 0.537461
28 1 1 2.35 4.58176 1.3543 8.55587
29 2 0.6 2.35 9.30765 11.3113 9.25926
30 2 0.6 2.35 6.39248 7.64493 3.53965
31 2 0.6 2.35 0.976582 0.354854 0.0537271
32 1 1 2.35 10.1529 13.0757 8.476
33 2 0.6 2.35 5.93128 8.16726 8.87174
34 1 1 2.35 2.17963 6.21737 12.3805
35 2 0.6 2.35 1.95502 5.62096 11.8845
36 2 0.6 2.35 2.53614 12.1 3.25533
37 2 0.6 2.35 1.39565 10.4104 11.0951
38 1 1 2.35 8.30019 1.33475 6.12376
39 2 0.6 2.35 1.92628 5.31049 0.0189676
40 2 0.6 2.35 4.57474 4.33927 13.3784
41 2 0.6 2.35 12.4268 13.2656 7.20443
42 2 0.6 2.35 9.52156 8.83846 2.70436
43 1 1 2.35 2.84927 11.5931 12.841
44 1 1 2.35 6.50262 8.45755 3.23678
45 2 0.6 2.35 3.67992 11.9261 1.44665
46 2 0.6 2.35 9.84228 2.0282 1.70873
47 2 0.6 2.35 0.699915 7.63963 10.561
48 2 0.6 2.35 1.56275 9.621 1.42494
49 2 0.6 2.35 2.75968 11.3541 3.29993
50 2 0.6 2.35 11.3069 5.80158 12.3401
51 1 1 2.35 12.1627 4.28251 2.03394
52 1 1 2.35 2.86016 9.89497 8.35125
53 1 1 2.35 8.34814 8.38672 3.50985
54 2 0.6 2.35 6.64068 8.4842 1.31605
55 1 1 2.35 10.6483 2.02351 8.13973
56 2 0.6 2.35 5.0949 6.41956 3.92338
57 2 0.6 2.35 9.0377 6.47592 1.64957
58 1 1 2.35 13.2469 5.17636 5.17004
59 2 0.6 2.35 5.42606 7.67119 2.72414
60 2 0.6 2.35 8.91929 3.92838 4.66587
61 1 1 2.35 11.3958 4.47594 8.95013
62 2 0.6 2.35 2.59978 1.42675 8.40151
63 1 1 2.35 9.04569 8.50879 4.23438
64 2 0.6 2.35 7.03974 6.65724 12.3304
65 2 0.6 2.35 10.266 0.365016 7.89591
66 1 1 2.35 11.7754 11.5615 1.90488
67 2 0.6 2.35 3.73919 12.3763 5.89369
68 2 0.6 2.35 5.14222 3.37024 10.8155
69 2 0.6 2.35 5.96622 7.26815 2.1392
70 1 1 2.35 3.48407 6.09867 10.3538
71 2 0.6 2.35 0.536883 9.2351 8.08298
72 2 0.6 2.35 0.00916073 4.63106 1.90213
73 2 0.6 2.35 6.84054 10.7632 3.16464
74 2 0.6 2.35 8.0038 5.15418 10.5832
75 2 0.6 2.35 1.0583 5.13909 0.9143
76 2 0.6 2.35 3.75909 10.6381 6.35727
77 1 1 2.35 11.5695 3.00646 7.83431
78 2 0.6 2.35 0.439342 2.18742 1.21629
79 2 0.6 2.35 5.48333 10.6334 1.6171
80 1 1 2.35 10.6373 1.89083 11.18
81 2 0.6 2.35 0.266804 10.343 2.86151
82 2 0.6 2.35 2.20141 9.75713 5.26415
83 2 0.6 2.35 4.94713 7.35673 6.7168
84 2 0.6 2.35 6.29983 12.6413 9.14328
85 2 0.6 2.35 12.5911 9.2168 4.35547
86 2 0.6 2.35 0.901433 12.6948 1.27951
87 2 0.6 2.35 11.7267 2.1093 5.80288
88 2 0.6 2.35 6.95188 4.94343 7.58261
89 1 1 2.35 12.4893 12.2664 0.0322428
90 2 0.6 2.35 7.12571 10.5688 13.0008
91 2 0.6 2.35 1.18047 4.24931 4.75
92 2 0.6 2.35 1.25258 13.0649 9.68567
93 2 0.6 2.35 6.78478 5.41392 4.5042
94 2 0.6 2.35 7.80194 6.98521 7.18674
95 2 0.6 2.35 7.9718 6.66152 12.9619
96 2 0.6 2.35 11.6636 0.0451649 2.47943
97 2 0.6 2.35 0.362929 12.0929 3.94215
98 2 0.6 2.35 4.95682 8.60313 9.02298
99 2 0.6 2.35 2.02261 13.4892 11.7849
100 2 0.6 2.35 11.1267 1.47096 7.74448
101 2 0.6 2.35 10.585 0.433359 6.87838
102 1 1 2.35 6.34049 9.74283 2.88346
103 2 0.6 2.35 10.4531 9.9115 13.0783
104 2 0.6 2.35 0.533352 5.09645 10.4153
105 2 0.6 2.35 7.04379 2.31388 3.39506
106 2 0.6 2.35 1.77163 7.12577 8.65156
107 2 0.6 2.35 8.31277 10.875 11.8521
108 1 1 2.35 5.79974 5.97522 3.96521
109 2 0.6 2.35 3.03158 6.85602 0.175461
110 2 0.6 2.35 0.534671 0.897482 2.28659
111 2 0.6 2.35 12.7696 1.24778 2.01512
112 2 0.6 2.35 11.7816 8.484 5.60075
113 1 1 2.35 10.9358 10.6433 7.67757
114 2 0.6 2.35 9.06131 10.0046 2.14515
115 2 0.6 2.35 4.5189 10.5058 9.32298
116 2 0.6 2.35 8.96668 8.4248 8.51757
117 2 0.6 2.35 7.98431 7.9484 13.1569
118 2 0.6 2.35 10.3174 3.00157 7.68116
119 2 0.6 2.35 11.7935 0.0744659 4.70509
120 1 1 2.35 5.05659 0.353528 12.633
121 2 0.6 2.35 2.41969 0.476236 9.55888
122 1 1 2.35 13.5076 2.39843 6.56043
123 2 0.6 2.35 11.2802 7.3919 8.97226
124 2 0.6 2.35 1.36846 11.2872 0.0914187
125 2 0.6 2.35 5.42537 11.7628 8.04043
126 2 0.6 2.35 9.01294 13.3696 13.2126
127 2 0.6 2.35 6.80759 11.2816 10.1076
128 2 0.6 2.35 5.26922 2.07148 9.57824
129 2 0.6 2.35 6.30048 4.8373 6.22434
130 2 0.6 2.35 4.73272 4.37784 2.6287
131 2 0.6 2.35 10.6778 1.12525 3.87595
132 2 0.6 2.35 3.13563 3.0402 13.4737
133 2 0.6 2.35 9.26403 6.20231 11.0488
134 2 0.6 2.35 5.93737 11.6365 11.8824
135 1 1 2.35 6.3062 10.864 4.35901
136 2 0.6 2.35 2.56499 7.90278 5.51976
137 2 0.6 2.35 3.82626 4.09775 12.1349
138 2 0.6 2.35 8.63712 2.7618 11.606
139 2 0.6 2.35 4.33802 7.28947 4.56803
140 2 0.6 2.35 1.76293 11.6689 8.8829
141 2 0.6 2.35 6.6604 9.92285 11.4903
142 2 0.6 2.35 1.18766 8.52064 1.67811
143 1 1 2.35 12.7889 4.37101 0.810493
144 2 0.6 2.35 9.73011 1.79016 12.9957
145 2 0.6 2.35 13.2118 6.42941 13.3506
146 2 0.6 2.35 13.2414 11.7685 9.49057
147 2 0.6 2.35 2.9461 10.0399 1.26203
148 2 0.6 2.35 0.194567 4.79205 5.75584
149 1 1 2.35 1.42678 0.522742 1.52471
150 2 0.6 2.35 10.338 11.9797 3.47304
151 1 1 2.35 12.7524 11.716 1.84385
152 2 0.6 2.35 3.64298 0.722708 6.53652
153 2 0.6 2.35 5.51048 12.8211 9.60013
154 1 1 2.35 13.0042 6.65719 10.1754
155 2 0.6 2.35 11.1984 12.6957 6.33123
156 1 1 2.35 7.6645 0.561428 0.254425
157 2 0.6 2.35 9.80042 7.07074 11.1749
158 1 1 2.35 2.36204 11.2015 10.1714
159 1 1 2.35 11.503 10.5745 3.76747
160 2 0.6 2.35 11.3606 7.80515 1.72778
161 1 1 2.35 13.0762 1.17847 4.87797
162 2 0.6 2.35 10.5912 7.07208 11.0596
163 2 0.6 2.35 2.87325 1.01375 9.34048
164 2 0.6 2.35 10.8294 4.73861 2.37257
165 2 0.6 2.35 1.57041 4.47114 1.72504
166 2 0.6 2.35 5.07478 1.50951 6.06305
167 2 0.6 2.35 6.02667 5.10769 5.77765
168 2 0.6 2.35 9.12666 3.83668 0.489311
169 2 0.6 2.35 9.90864 3.50114 1.78725
170 2 0.6 2.35 7.44639 4.67027 8.9282
171 1 1 2.35 3.02954 6.92747 9.19835
172 2 0.6 2.35 4.10255 13.1775 4.13699
173 2 0.6 2.35 11.7582 9.85197 7.69511
174 2 0.6 2.35 6.81313 7.7513 4.04765
175 2 0.6 2.35 6.99235 8.61686 13.4281
176 2 0.6 2.35 8.07324 4.03738 4.38705
177 2 0.6 2.35 5.10251 12.1841 4.457
178 1 1 2.35 9.08516 6.44288 7.28837
179 2 0.6 2.35 8.89873 11.9797 3.07141
180 2 0.6 2.35 11.6073 8.09434 4.30704
181 1 1 2.35 3.4325 8.45056 4.36016
182 2 0.6 2.35 6.92747 12.5526 3.27064
183 2 0.6 2.35 7.16757 9.44742 13.5472
184 2 0.6 2.35 11.9591 9.21116 7.27765
185 2 0.6 2.35 7.06316 7.94474 5.2329
186 2 0.6 2.35 11.4176 9.50763 4.29226
187 1 1 2.35 9.21 10.5904 13.3942
188 2 0.6 2.35 2.3491 0.98472 9.20246
189 2 0.6 2.35 3.59084 9.75269 11.3065
190 1 1 2.35 7.61804 13.263 11.7957
191 2 0.6 2.35 6.95319 5.09985 8.78857
192 2 0.6 2.35 11.5412 0.275757 10.4897
193 1 1 2.35 13.3447 10.9754 9.61291
194 2 0.6 2.35 3.61457 4.66943 3.56885
195 2 0.6 2.35 8.56651 0.443308 3.60101
196 2 0.6 2.35 8.34224 2.35156 5.89883
197 2 0.6 2.35 11.077 10.8801 11.565
198 2 0.6 2.35 0.971721 12.9039 8.46837
199 2 0.6 2.35 9.74638 10.5752 9.06242
200 2 0.6 2.35 12.6353 7.30652 10.1908
201 2 0.6 2.35 12.154 4.44284 9.95375
202 2 0.6 2.35 7.20379 8.16632 1.92828
203 2 0.6 2.35 7.78054 4.06886 7.06974
204 2 0.6 2.35 3.50339 1.26102 4.40191
205 2 0.6 2.35 8.3687 5.73263 6.42158
206 2 0.6 2.35 9.82216 10.6405 11.7446
207 2 0.6 2.35 8.69976 7.89096 1.06244
208 2 0.6 2.35 3.48079 4.82093 5.49792
209 2 0.6 2.35 6.53797 10.7144 6.30447
210 2 0.6 2.35 5.45903 9.84629 4.48747
211 1 1 2.35 12.0034 12.7936 9.33529
212 2 0.6 2.35 10.2166 5.21701 1.20038
213 2 0.6 2.35 7.78656 8.30632 0.423598
214 1 1 2.35 8.64464 3.69645 10.3155
215 2 0.6 2.35 0.518726 11.4772 10.1224
216 1 1 2.35 9.93799 8.18797 2.57913
217 2 0.6 2.35 13.2911 3.67346 11.0481
218 2 0.6 2.35 9.06383 8.70172 11.2051
219 2 0.6 2.35 0.451287 7.98851 0.770221
220 1 1 2.35 9.86462 8.8029 5.39466
221 2 0.6 2.35 7.60134 6.61901 9.70273
222 2 0.6 2.35 10.0634 6.3192 7.57505
223 2 0.6 2.35 4.97226 7.32201 4.9715
224 2 0.6 2.35 12.1082 5.78131 3.82171
225 1 1 2.35 3.79035 11.3199 3.19423
226 2 0.6 2.35 3.89087 11.9754 13.4476
227 2 0.6 2.35 9.73772 4.7366 12.7569
228 2 0.6 2.35 8.60141 0.294266 5.21002
229 1 1 2.35 8.00895 4.28056 0.732081
230 1 1 2.35 3.39587 8.38355 13.2063
231 2 0.6 2.35 5.13773 5.71086 6.41646
232 2 0.6 2.35 2.88581 4.96995 4.39344
233 2 0.6 2.35 0.503843 0.338005 6.64835
234 2 0.6 2.35 6.88018 6.5616 12.7581
235 2 0.6 2.35 7.81922 3.38216 6.64396
236 2 0.6 2.35 6.03275 5.93516 5.12912
237 2 0.6 2.35 6.78218 3.43244 4.41664
238 2 0.6 2.35 9.2972 11.2482 2.08866
239 2 0.6 2.35 3.80396 8.03515 11.7966
240 1 1 2.35 2.34631 12.9031 3.10105
241 2 0.6 2.35 1.68555 7.15732 3.42743
242 1 1 2.35 0.543889 7.30885 5.58419
243 1 1 2.35 13.3345 2.81604 1.04918
244 2 0.6 2.35 3.22599 12.1523 8.89198
245 2 0.6 2.35 0.422263 0.762322 3.17863
246 1 1 2.35 12.2598 8.69982 9.93838
247 2 0.6 2.35 1.35331 1.75634 3.40025
248 1 1 2.35 13.35 11.6235 2.9698
249 1 1 2.35 10.031 8.43838 11.8231
250 2 0.6 2.35 1.21607 2.60137 10.8093
251 2 0.6 2.35 4.99994 8.67456 7.63707
252 2 0.6 2.35 11.969 6.18359 2.61553
253 2 0.6 2.35 5.47779 7.89591 8.47863
254 2 0.6 2.35 1.81742 6.4372 0.737706
255 2 0.6 2.35 5.94926 4.76771 11.4159
256 1 1 2.35 2.85058 7.29948 12.0977
257 2 0.6 2.35 0.791857 6.81018 0.094482
258 2 0.6 2.35 2.66836 5.59725 0.34577
259 2 0.6 2.35 7.8893 11.204 13.0203
260 2 0.6 2.35 10.4989 7.34444 7.82456
261 2 0.6 2.35 7.50206 1.18984 11.9345
262 2 0.6 2.35 0.682819 4.71655 10.2422
263 2 0.6 2.35 7.81758 12.1147 1.31
264 2 0.6 2.35 8.93306 0.178266 13.4511
265 2 0.6 2.35 9.74923 8.11757 7.46168
266 2 0.6 2.35 9.6357 7.79897 11.7936
267 1 1 2.35 5.9483 6.34836 7.94344
268 2 0.6 2.35 5.66887 5.93851 10.5242
269 2 0.6 2.35 11.8963 2.50244 11.3985
270 2 0.6 2.35 7.21665 2.26435 10.035
271 2 0.6 2.35 6.81759 1.95808 5.66634
272 2 0.6 2.35 12.8382 11.3858 0.843287
273 2 0.6 2.35 3.45625 12.3951 6.47903
274 2 0.6 2.35 6.23593 0.0307794 6.03009
275 1 1 2.35 1.39805 5.68843 5.28188
276 1 1 2.35 2.53989 10.4033 10.3257
277 2 0.6 2.35 8.52429 7.07343 2.51643
278 2 0.6 2.35 12.3178 4.40248 10.9979
279 2 0.6 2.35 10.4167 11.2452 10.5037
280 2 0.6 2.35 5.14635 5.45617 0.474485
281 2 0.6 2.35 8.16922 5.94725 8.62077
282 2 0.6 2.35 10.3555 6.35721 2.32204
283 1 1 2.35 3.788 7.10642 13.4762
284 2 0.6 2.35 12.8079 6.31107 5.05728
285 2 0.6 2.35 6.74373 9.05138 2.69321
286 2 0.6 2.35 0.642987 10.5135 8.60701
287 1 1 2.35 3.8064 6.80695 4.06102
288 2 0.6 2.35 0.145917 12.2369 11.6713
289 2 0.6 2.35 5.87964 4.23126 13.2061
290 2 0.6 2.35 1.98719 12.4421 12.1915
291 2 0.6 2.35 9.22544 0.127079 3.83516
292 1 1 2.35 2.72891 5.59022 1.39463
293 2 0.6 2.35 2.33569 8.42161 10.7202
294 2 0.6 2.35 7.19177 7.25838 0.960689
295 2 0.6 2.35 13.3192 1.80623 0.217643
296 2 0.6 2.35 7.00412 3.22986 8.94942
297 2 0.6 2.35 1.32701 0.485367 9.35867
298 1 1 2.35 1.87751 10.2512 7.83451
299 2 0.6 2.35 10.394 0.84746 7.69703
300 2 0.6 2.35 2.52699 5.56223 0.151645
301 2 0.6 2.35 0.160341 11.9696 4.31739
302 2 0.6 2.35 0.602922 11.3552 7.36285
303 2 0.6 2.35 11.6286 10.3877 12.8435
304 1 1 2.35 0.207325 13.2861 13.4706
305 2 0.6 2.35 10.0743 12.7659 1.33282
306 2 0.6 2.35 7.53657 9.01367 7.2069
307 2 0.6 2.35 9.66627 9.78604 11.951
308 2 0.6 2.35 6.96709 7.76421 1.68614
309 2 0.6 2.35 10.5793 12.9887 2.38129
310 2 0.6 2.35 5.15866 5.78946 8.0416
311 1 1 2.35 8.65897 8.37383 11.2635
312 1 1 2.35 8.73672 8.24676 10.3251
313 1 1 2.35 6.65211 13.126 12.9046
314 2 0.6 2.35 8.02717 5.50726 11.037
315 2 0.6 2.35 5.65035 7.19653 4.89972
316 2 0.6 2.35 4.23514 8.00884 7.06909
317 2 0.6 2.35 7.10545 1.09288 5.64378
318 2 0.6 2.35 13.4657 7.83835 6.46263
319 1 1 2.35 5.74568 4.03564 13.4501
320 2 0.6 2.35 0.886812 6.02751 8.17924
321 2 0.6 2.35 1.20983 11.629 4.47684
322 1 1 2.35 0.094778 1.99939 5.3832
323 2 0.6 2.35 6.5217 4.9534 4.80313
324 1 1 2.35 1.03541 7.60646 10.9379
325 2 0.6 2.35 13.4692 2.30799 6.28318
326 2 0.6 2.35 1.9954 2.63858 9.29868
327 2 0.6 2.35 10.2632 9.76257 8.38372
328 2 0.6 2.35 7.20403 4.5116 12.074
329 1 1 2.35 8.26452 4.01921 2.71885
330 2 0.6 2.35 9.93601 9.46431 0.417359
331 1 1 2.35 12.6603 9.26541 1.11207
332 2 0.6 2.35 8.84978 4.47518 2.18028
333 2 0.6 2.35 1.07583 9.89659 7.74255
334 2 0.6 2.35 8.96099 9.80526 6.68319
335 2 0.6 2.35 1.05344 7.07558 0.465729
336 2 0.6 2.35 3.27764 10.6472 0.85214
337 2 0.6 2.35 8.19847 6.18201 11.1374
338 2 0.6 2.35 4.2614 6.76772 0.0824796
339 2 0.6 2.35 9.46047 2.75398 3.52655
340 1 1 2.35 4.73091 11.7849 7.1017
341 2 0.6 2.35 9.63645 9.25819 8.95002
342 2 0.6 2.35 3.858 1.68505 5.26072
343 2 0.6 2.35 0.491761 7.19101 7.05411
344 1 1 2.35 13.066 7.662 2.54962
345 1 1 2.35 1.70815 11.3287 0.456796
346 2 0.6 2.35 10.0026 6.96218 4.04549
347 2 0.6 2.35 12.3327 7.72921 5.97493
348 2 0.6 2.35 1.0735 8.20957 10.7841
349 1 1 2.35 6.12086 12.5753 2.71718
350 2 0.6 2.35 6.39655 3.10295 1.20739
351 1 1 2.35 3.37409 3.09183 4.29556
352 2 0.6 2.35 0.37625 5.28761 5.32515
353 2 0.6 2.35 12.8939 2.51622 5.54113
354 1 1 2.35 0.226565 2.24559 13.0047
355 2 0.6 2.35 9.02307 11.1838 9.95546
356 1 1 2.35 7.09906 1.48619 7.43391
357 2 0.6 2.35 9.10078 11.6384 2.36282
358 1 1 2.35 0.263432 7.44967 8.88886
359 2 0.6 2.35 1.8641 1.99111 4.68779
360 1 1 2.35 1.40859 1.29159 6.46892
361 2 0.6 2.35 6.34454 4.67271 11.4576
362 2 0.6 2.35 8.04036 10.8559 5.43869
363 2 0.6 2.35 5.26911 11.6319 11.5421
364 2 0.6 2.35 11.1973 12.3399 12.4869
365 2 0.6 2.35 8.44554 12.8596 2.67323
366 2 0.6 2.35 12.269 1.58242 13.1112
367 2 0.6 2.35 3.68502 0.330735 3.07437
368 2 0.6 2.35 0.161932 8.83334 2.59986
369 2 0.6 2.35 6.95665 4.31778 12.1496
370 2 0.6 2.35 8.91293 11.6747 6.1336
371 2 0.6 2.35 1.0202 9.8914 7.75525
372 2 0.6 2.35 8.48909 13.3175 12.8319
373 2 0.6 2.35 10.5542 7.01126 5.42927
374 2 0.6 2.35 8.52922 8.79351 1.78762
375 2 0.6 2.35 3.08845 3.62547 8.73919
376 2 0.6 2.35 0.869722 10.9418 10.2456
377 2 0.6 2.35 11.8486 11.6068 12.3347
378 2 0.6 2.35 1.20925 5.61405 2.76946
379 1 1 2.35 2.78693 12.8936 12.7916
380 2 0.6 2.35 13.274 8.11642 10.0976
381 2 0.6 2.35 11.3058 8.95669 3.1592
382 1 1 2.35 9.16298 1.26043 10.0318
383 2 0.6 2.35 5.13449 11.7081 0.724964
384 2 0.6 2.35 4.03486 0.189232 0.822472
385 2 0.6 2.35 13.5132 13.2249 3.76478
386 1 1 2.35 10.5618 5.36701 1.40348
387 2 0.6 2.35 10.1985 11.2863 8.07794
388 2 0.6 2.35 5.63155 7.37099 6.62274
389 2 0.6 2.35 5.43167 3.80578 1.00242
390 2 0.6 2.35 6.91906 12.8561 1.33232
391 2 0.6 2.35 0.302761 6.07215 9.12793
392 2 0.6 2.35 5.33059 0.691536 0.366141
393 2 0.6 2.35 1.66586 9.50825 10.4229
394 2 0.6 2.35 9.75017 1.11886 13.4212
395 1 1 2.35 1.1558 11.14 0.909191
396 2 0.6 2.35 12.0924 12.3219 12.6382
397 2 0.6 2.35 2.8009 3.11239 6.00062
398 2 0.6 2.35 8.37868 11.4708 12.078
399 2 0.6 2.35 6.45365 2.24673 10.069
400 2 0.6 2.35 3.82825 11.44 4.26382
401 2 0.6 2.35 8.20319 9.72577 3.53938
402 2 0.6 2.35 4.86107 6.04956 12.7662
403 2 0.6 2.35 9.32039 10.3465 6.35267
404 2 0.6 2.35 10.3971 6.81161 10.3064
405 2 0.6 2.35 11.0261 4.42571 11.975
406 2 0.6 2.35 13.1129 9.61003 13.154
407 1 1 2.35 9.90812 8.2541 11.0383
408 1 1 2.35 1.74624 3.64785 7.20718
409 2 0.6 2.35 3.96045 6.65313 8.039
410 2 0.6 2.35 1.27566 8.1917 0.815909
411 2 0.6 2.35 8.56 9.67849 10.6219
412 2 0.6 2.35 13.1458 9.24745 1.82608
413 2 0.6 2.35 4.55692 5.90333 1.98745
414 2 0.6 2.35 3.10992 4.05244 9.91123
415 1 1 2.35 6.74263 4.29888 10.8332
416 2 0.6 2.35 0.224114 2.11211 4.82574
417 1 1 2.35 8.55154 7.17398 13.5476
418 2 0.6 2.35 10.7655 10.383 1.63182
419 2 0.6 2.35 5.33454 3.30651 1.9263
420 2 0.6 2.35 6.95191 4.01185 12.1116
421 2 0.6 2.35 8.11977 1.12542 10.0024
422 2 0.6 2.35 3.02249 0.151177 7.06476
423 2 0.6 2.35 4.4807 11.2028 12.6291
424 2 0.6 2.35 0.472314 2.69161 3.81633
425 2 0.6 2.35 10.5351 7.47849 10.8275
426 2 0.6 2.35 5.77986 8.62611 10.0078
427 2 0.6 2.35 6.97581 9.6853 10.839
428 1 1 2.35 2.01215 6.81316 6.25114
429 2 0.6 2.35 6.07577 2.14206 6.58168
430 2 0.6 2.35 4.0059 2.23909 7.97252
431 2 0.6 2.35 7.23952 13.1642 2.82337
432 2 0.6 2.35 3.89096 1.56506 6.62648
433 2 0.6 2.35 1.02647 3.93 7.94686
434 2 0.6 2.35 3.95515 11.8033 8.28043
435 1 1 2.35 2.80611 4.35638 2.70325
436 2 0.6 2.35 8.9703 4.26953 9.23945
437 2 0.6 2.35 8.51665 7.46376 6.36283
438 2 0.6 2.35 5.57308 11.6031 4.46808
439 2 0.6 2.35 8.53279 7.94235 11.4967
440 2 0.6 2.35 9.41336 6.67401 3.93866
441 2 0.6 2.35 2.69396 7.36142 7.60699
442 2 0.6 2.35 11.0113 10.7177 0.366326
443 2 0.6 2.35 2.28537 4.99171 8.199
444 2 0.6 2.35 11.6442 11.7397 8.10298
445 2 0.6 2.35 8.3197 5.22494 8.17272
446 2 0.6 2.35 6.0798 1.01369 11.6433
447 2 0.6 2.35 4.44511 3.75759 1.94514
448 2 0.6 2.35 4.78335 5.33695 7.46371
449 2 0.6 2.35 12.3992 9.0649 9.08642
450 2 0.6 2.35 10.1357 3.05445 5.33206
451 2 0.6 2.35 2.83856 7.26078 7.54192
452 2 0.6 2.35 12.906 12.2587 2.36073
453 2 0.6 2.35 6.9445 12.4935 5.78888
454 1 1 2.35 7.84963 8.55143 6.95992
455 2 0.6 2.35 10.4129 6.00379 11.3031
456 2 0.6 2.35 5.8958 0.904028 4.3811
457 2 0.6 2.35 6.3538 10.9744 11.037
458 2 0.6 2.35 10.2711 2.99515 12.1359
459 1 1 2.35 1.58732 9.09681 0.764168
460 2 0.6 2.35 5.80488 12.3009 11.3486
461 2 0.6 2.35 5.57003 8.25043 9.95542
462 2 0.6 2.35 1.67884 3.0574 9.06361
463 1 1 2.35 11.9728 10.2379 6.21017
464 1 1 2.35 10.6897 7.52252 8.61365
465 1 1 2.35 6.63557 2.55146 8.10056
466 2 0.6 2.35 2.01323 6.61386 0.20562
467 1 1 2.35 10.1585 4.30871 0.541782
468 2 0.6 2.35 0.652596 12.6848 2.84388
469 1 1 2.35 11.5131 8.40566 12.0543
470 2 0.6 2.35 5.37028 12.5198 8.87925
471 2 0.6 2.35 2.43575 9.32982 13.1599
472 2 0.6 2.35 4.78282 2.96283 11.3476
473 2 0.6 2.35 0.759881 8.68156 0.0376438
474 1 1 2.35 3.24092 6.88239 1.85952
475 1 1 2.35 7.43542 4.35375 5.39355
476 1 1 2.35 0.855334 11.2548 10.2172
477 2 0.6 2.35 2.39599 12.7794 7.05022
478 2 0.6 2.35 8.23826 5.82172 6.67646
479 2 0.6 2.35 3.09345 9.72329 7.14211
480 2 0.6 2.35 3.9133 6.10406 1.14662
481 1 1 2.35 4.73731 0.00168005 7.0708
482 2 0.6 2.35 2.2032 3.87501 12.3189
483 1 1 2.35 10.0251 3.97304 7.24274
484 1 1 2.35 2.76764 1.02744 9.98402
485 2 0.6 2.35 2.55655 8.34142 8.07164
486 2 0.6 2.35 9.51153 3.16544 3.5988
487 2 0.6 2.35 4.10627 1.06098 9.72538
488 1 1 2.35 11.2348 12.6535 8.74129
489 1 1 2.35 1.66741 5.82162 10.7869
490 2 0.6 2.35 9.12696 7.4247 12.8662
491 2 0.6 2.35 4.2924 5.86208 1.78921
492 2 0.6 2.35 6.56469 6.17009 10.7024
493 2 0.6 2.35 6.41345 2.13079 7.93048
494 1 1 2.35 5.14041 10.7032 0.100473
495 2 0.6 2.35 7.74733 12.3935 0.730004
496 2 0.6 2.35 0.515513 11.7409 6.89557
497 2 0.6 2.35 4.34186 0.531994 1.95124
498 2 0.6 2.35 2.64642 7.64113 10.8818
499 2 0.6 2.35 4.43612 13.3028 6.15592
500 2 0.6 2.35 11.4137 6.63951 1.99575
501 2 0.6 2.35 6.20213 10.2691 10.3396
502 2 0.6 2.35 12.2159 10.7981 0.805768
503 2 0.6 2.35 6.9275 1.01826 9.69795
504 2 0.6 2.35 11.9197 13.0384 0.548553
505 1 1 2.35 8.03413 10.6157 1.10106
506 2 0.6 2.35 5.75084 10.1025 1.47536
507 1 1 2.35 9.38977 8.44757 3.39857
508 2 0.6 2.35 12.3701 1.36405 12.4865
509 2 0.6 2.35 1.23063 8.56628 12.3532
510 2 0.6 2.35 1.17177 10.5837 7.59336
511 2 0.6 2.35 9.09382 9.08844 1.51461
512 1 1 2.35 6.06561 5.96409 9.73648
513 2 0.6 2.35 7.90845 3.38136 4.41046
514 1 1 2.35 4.56817 4.47862 3.21085
515 2 0.6 2.35 4.02276 13.2877 12.0007
516 2 0.6 2.35 13.2008 11.6639 12.2515
517 1 1 2.35 8.17317 10.5317 3.09572
518 2 0.6 2.35 4.97113 8.28224 2.76315
519 1 1 2.35 5.05146 3.40606 8.44757
520 2 0.6 2.35 11.9502 8.12425 12.4727
521 1 1 2.35 13.5031 3.61024 4.47792
522 2 0.6 2.35 1.66045 9.18506 13.0215
523 2 0.6 2.35 10.7541 12.4286 10.1306
524 1 1 2.35 10.1692 10.7509 10.4872
525 2 0.6 2.35 4.15103 9.06856 11.4073
526 2 0.6 2.35 2.385 0.472079 11.4029
527 2 0.6 2.35 2.29566 10.6326 1.25562
528 2 0.6 2.35 1.00852 12.1905 0.467564
529 2 0.6 2.35 9.96124 0.366312 13.0151
530 2 0.6 2.35 9.83424 13.1703 3.15186
531 2 0.6 2.35 7.11907 2.91405 5.8229
532 2 0.6 2.35 10.2408 8.7716 8.27309
533 2 0.6 2.35 13.2257 0.309488 3.8451
534 2 0.6 2.35 1.43873 0.485853 9.4591
535 2 0.6 2.35 0.82533 1.34229 7.03166
536 1 1 2.35 5.67499 7.80268 10.599
537 1 1 2.35 11.5814 0.520408 1.96224
538 2 0.6 2.35 2.79133 7.20433 7.68105
539 1 1 2.35 0.669932 4.35052 10.666
540 2 0.6 2.35 6.62826 1.41149 0.743202
541 1 1 2.35 2.99389 9.6549 3.38602
542 2 0.6 2.35 12.3775 4.94433 10.7333
543 2 0.6 2.35 6.79017 10.6423 10.824
544 2 0.6 2.35 9.32993 6.8202 13.5169
545 2 0.6 2.35 8.85391 3.90855 4.68485
546 2 0.6 2.35 11.8845 9.01249 4.48342
547 2 0.6 2.35 13.5235 0.308849 9.33933
548 2 0.6 2.35 2.10793 1.49849 11.0665
549 2 0.6 2.35 10.8783 5.47125 13.351
550 2 0.6 2.35 13.3881 3.92683 3.15796
551 2 0.6 2.35 6.41504 12.5598 1.58361
552 2 0.6 2.35 7.44547 0.245906 12.1575
553 2 0.6 2.35 6.33784 7.76772 12.1875
554 2 0.6 2.35 6.55502 4.17531 12.6152
555 1 1 2.35 2.55024 6.4108 12.3045
556 2 0.6 2.35 11.7933 7.13717 4.30681
557 2 0.6 2.35 4.57847 3.40171 5.28235
558 1 1 2.35 0.454364 12.7178 5.12919
559 2 0.6 2.35 12.9916 10.9241 2.72623
560 2 0.6 2.35 7.47201 8.9538 10.2981
561 2 0.6 2.35 8.76685 13.5487 1.9533
562 2 0.6 2.35 6.29092 7.53429 13.1387
563 2 0.6 2.35 6.11374 12.6273 12.795
564 2 0.6 2.35 11.0025 2.0821 11.297
565 2 0.6 2.35 5.48013 6.09674 4.18737
566 2 0.6 2.35 1.18347 8.0144 8.24641
567 1 1 2.35 4.00909 9.34707 12.6558
568 2 0.6 2.35 0.691817 4.59748 3.46609
569 2 0.6 2.35 11.091 7.41372 7.56106
570 2 0.6 2.35 0.743226 1.25049 8.61337
571 2 0.6 2.35 9.3081 1.41604 12.5268
572 2 0.6 2.35 5.34 0.646702 4.29982
573 2 0.6 2.35 4.56996 0.686649 3.89739
574 1 1 2.35 9.62977 1.30007 10.0604
575 1 1 2.35 3.83978 7.65178 0.694508
576 2 0.6 2.35 8.34825 4.50723 4.15566
577 2 0.6 2.35 1.52287 3.3781 6.75323
578 1 1 2.35 9.93859 7.32358 7.51496
579 2 0.6 2.35 10.7103 12.5085 4.84887
580 2 0.6 2.35 7.64861 7.4364 11.8942
581 2 0.6 2.35 0.288068 4.29151 10.896
582 2 0.6 2.35 2.44558 5.98223 3.4958
583 2 0.6 2.35 10.7299 7.70921 4.92755
584 1 1 2.35 7.36498 3.25135 4.85221
585 2 0.6 2.35 4.83624 10.2051 2.59791
586 2 0.6 2.35 8.281 5.64054 8.47549
587 2 0.6 2.35 3.50165 5.43267 3.95286
588 2 0.6 2.35 12.2087 4.88002 1.56909
589 2 0.6 2.35 9.83276 8.71923 7.74667
590 2 0.6 2.35 9.12803 10.7955 11.0117
591 2 0.6 2.35 13.2095 3.38065 3.75895
592 2 0.6 2.35 3.75858 10.6741 6.86259
593 2 0.6 2.35 9.25217 0.700078 6.84448
594 2 0.6 2.35 7.50421 4.12141 7.01851
595 2 0.6 2.35 1.88359 13.4952 2.02052
596 2 0.6 2.35 0.654275 10.387 2.72074
597 2 0.6 2.35 12.1704 3.52513 3.25402
598 2 0.6 2.35 10.3273 4.74437 12.284
599 2 0.6 2.35 8.84926 0.889958 12.329
600 2 0.6 2.35 2.61933 1.28133 11.4505
601 2 0.6 2.35 6.85481 11.054 3.39757
602 2 0.6 2.35 2.71538 2.58385 13.2581
603 2 0.6 2.35 3.86346 12.2223 4.62866
604 2 0.6 2.35 1.65831 3.76009 3.33887
605 2 0.6 2.35 9.30062 3.49982 4.78659
606 2 0.6 2.35 10.7618 6.5662 12.1624
607 1 1 2.35 9.94503 4.66582 4.49282
608 2 0.6 2.35 1.34875 2.682 12.4721
609 2 0.6 2.35 4.24406 12.133 9.98439
610 2 0.6 2.35 12.3828 10.1758 11.0894
611 2 0.6 2.35 3.95373 7.17938 6.31369
612 2 0.6 2.35 11.1357 6.92169 7.48875
613 2 0.6 2.35 1.96494 13.5087 3.6365
614 2 0.6 2.35 5.17568 12.355 12.4917
615 2 0.6 2.35 10.0162 11.4079 5.12994
616 2 0.6 2.35 3.06996 10.6513 11.8507
617 2 0.6 2.35 10.0372 3.46671 6.28255
618 2 0.6 2.35 10.7788 4.68945 1.54526
619 1 1 2.35 7.88184 2.56976 2.19064
620 1 1 2.35 9.54658 8.9012 6.69041
621 2 0.6 2.35 7.66567 2.23034 3.05841
622 2 0.6 2.35 10.0027 3.96191 6.13881
623 2 0.6 2.35 7.26332 0.97824 2.02891
624 2 0.6 2.35 7.60539 2.36292 4.33454
625 2 0.6 2.35 9.90967 3.20834 0.0785007
626 2 0.6 2.35 12.3819 11.4345 10.1296
627 2 0.6 2.35 7.948 0.865773 3.6042
628 2 0.6 2.35 0.379592 1.16424 2.28038
629 2 0.6 2.35 4.77634 12.0115 12.1619
630 2 0.6 2.35 10.3776 2.56435 3.7216
631 2 0.6 2.35 9.09032 3.61308 0.449374
632 2 0.6 2.35 7.94882 8.78157 12.222
633 2 0.6 2.35 11.0525 11.7869 0.332821
634 2 0.6 2.35 11.8061 11.6545 8.61601
635 2 0.6 2.35 12.4363 7.4457 4.06453
636 2 0.6 2.35 8.59441 3.98215 4.86232
637 2 0.6 2.35 1.66739 3.99745 5.19362
638 2 0.6 2.35 13.2523 7.91245 12.0197
639 2 0.6 2.35 8.72047 9.54011 8.6305
640 2 0.6 2.35 12.9454 13.5159 6.63825
641 2 0.6 2.35 0.702977 11.7008 5.48861
642 2 0.6 2.35 8.98415 7.5693 0.419644
643 2 0.6 2.35 9.55755 13.1774 2.45492
644 2 0.6 2.35 10.5357 2.68053 1.10756
645 2 0.6 2.35 11.1147 7.87055 12.9968
646 2 0.6 2.35 12.6985 0.894587 4.51744
647 2 0.6 2.35 5.71311 7.64748 7.00386
648 2 0.6 2.35 8.94624 3.4691 7.00271
649 2 0.6 2.35 8.92051 1.53317 4.01096
650 1 1 2.35 9.84253 5.39636 10.0465
651 1 1 2.35 10.9827 0.666887 7.48664
652 2 0.6 2.35 11.4559 11.9122 0.920381
653 2 0.6 2.35 8.7307 11.0463 10.115
654 2 0.6 2.35 12.7676 8.93691 3.07163
655 2 0.6 2.35 6.91373 13.0536 2.9734
656 2 0.6 2.35 7.402 4.60437 10.6224
657 2 0.6 2.35 8.22258 8.7713 4.31802
658 2 0.6 2.35 11.1495 6.31024 1.28045
659 1 1 2.35 4.92339 10.2788 2.36591
660 1 1 2.35 7.03014 6.32705 7.11823
661 2 0.6 2.35 2.90987 5.8719 7.33129
662 2 0.6 2.35 7.73709 0.0839587 1.59967
663 2 0.6 2.35 12.6036 5.18334 10.2615
664 2 0.6 2.35 8.21092 5.28935 2.72305
665 2 0.6 2.35 8.64787 9.62645 3.80282
666 2 0.6 2.35 7.07785 6.81946 0.263087
667 2 0.6 2.35 10.5622 2.74831 12.7016
668 1 1 2.35 3.96496 10.6636 5.13857
669 2 0.6 2.35 3.9318 12.5957 3.70424
670 2 0.6 2.35 1.10849 7.75915 4.4598
671 2 0.6 2.35 9.19923 0.879883 13.0304
672 2 0.6 2.35 2.44473 1.29139 2.41171
673 1 1 2.35 5.75754 9.53855 3.40581
674 2 0.6 2.35 5.59874 8.31499 9.05879
675 2 0.6 2.35 2.45932 4.2728 4.61656
676 2 0.6 2.35 9.07453 5.02141 4.53831
677 1 1 2.35 4.07989 5.86814 11.0906
678 1 1 2.35 12.7388 9.78887 5.97603
679 2 0.6 2.35 1.22431 3.68721 10.5022
680 2 0.6 2.35 2.16696 4.18539 8.59084
681 2 0.6 2.35 0.198162 7.94454 9.13982
682 1 1 2.35 12.7472 7.89933 1.6273
683 2 0.6 2.35 5.73394 1.28426 4.38224
684 2 0.6 2.35 10.7584 10.2306 4.70584
685 2 0.6 2.35 0.760623 3.96011 3.15973
686 2 0.6 2.35 10.7768 9.52108 3.13019
687 2 0.6 2.35 12.095 11.5875 2.1128
688 2 0.6 2.35 7.30163 12.2289 0.368295
689 2 0.6 2.35 1.87326 0.531816 7.83709
690 2 0.6 2.35 3.02883 3.05852 4.32606
691 1 1 2.35 0.134121 0.573449 5.68084
692 1 1 2.35 13.5709 1.06357 7.04078
693 2 0.6 2.35 6.8779 0.274962 4.19417
694 2 0.6 2.35 8.4738 9.71346 3.59259
695 1 1 2.35 9.46286 9.76384 13.3032
696 2 0.6 2.35 7.24648 8.63954 12.0415
697 2 0.6 2.35 4.53962 8.39467 0.880085
698 1 1 2.35 4.09473 5.31321 1.8887
699 2 0.6 2.35 11.8092 3.31104 12.6992
700 2 0.6 2.35 8.22222 6.15459 11.318
701 2 0.6 2.35 8.81917 3.80547 13.2686
702 1 1 2.35 6.01062 7.48392 10.7176
703 2 0.6 2.35 13.4764 4.29373 9.8878
704 2 0.6 2.35 9.52361 0.845169 10.1637
705 2 0.6 2.35 3.59373 4.75756 0.580244
706 2 0.6 2.35 9.98545 0.929847 11.958
707 2 0.6 2.35 8.06039 11.9749 12.7112
708 1 1 2.35 9.94875 3.97647 2.08642
709 2 0.6 2.35 5.18616 11.2367 8.99193
710 2 0.6 2.35 11.9298 13.4929 11.7065
711 2 0.6 2.35 8.75151 10.9074 0.641734
712 2 0.6 2.35 10.832 7.68508 5.87775
713 2 0.6 2.35 12.8645 3.03871 13.1512
714 2 0.6 2.35 12.7536 4.22028 13.4621
715 2 0.6 2.35 13.2727 10.6955 3.28068
716 2 0.6 2.35 9.34219 3.3844 8.12834
717 2 0.6 2.35 4.38516 3.94563 12.831
718 2 0.6 2.35 11.9881 1.02709 3.27337
719 2 0.6 2.35 9.41799 8.80216 12.4935
720 1 1 2.35 12.1612 3.87049 6.59463
721 2 0.6 2.35 4.70101 1.20618 5.3943
722 1 1 2.35 0.350728 4.04582 5.47171
723 2 0.6 2.35 8.78798 9.53002 0.858757
724 1 1 2.35 1.48914 1.20999 3.86984
725 2 0.6 2.35 1.28805 9.48822 11.0612
726 2 0.6 2.35 6.96787 1.24677 9.30311
727 2 0.6 2.35 6.89308 4.38017 1.3292
728 2 0.6 2.35 4.9599 2.37752 9.73018
729 2 0.6 2.35 9.70776 12.336 1.15124
730 2 0.6 2.35 3.18679 12.0531 11.877
731 2 0.6 2.35 3.96657 8.7193 8.9709
732 1 1 2.35 3.52311 2.01082 6.53157
733 2 0.6 2.35 8.78398 10.5744 1.7612
734 2 0.6 2.35 0.634209 12.6349 7.12443
735 2 0.6 2.35 0.4132 10.4285 9.07727
736 2 0.6 2.35 3.60409 0.854455 0.42159
737 2 0.6 2.35 9.42669 8.54121 8.49996
738 2 0.6 2.35 13.3555 6.89194 11.8059
739 2 0.6 2.35 8.35901 10.9167 7.71743
740 2 0.6 2.35 7.70296 7.43754 13.5184
741 2 0.6 2.35 5.03571 5.69611 10.9142
742 2 0.6 2.35 9.21463 2.74303 9.64573
743 2 0.6 2.35 0.102381 3.46967 12.9841
744 1 1 2.35 9.0586 7.99527 6.55881
745 2 0.6 2.35 0.430224 3.99718 13.4387
746 2 0.6 2.35 3.70256 9.795 3.76326
747 1 1 2.35 12.6353 8.44647 1.75373
748 2 0.6 2.35 0.87308 10.7441 7.49768
749 2 0.6 2.35 3.14393 10.4786 3.14074
750 2 0.6 2.35 5.28449 4.9058 10.2508
751 1 1 2.35 5.36055 6.3358 5.09561
752 2 0.6 2.35 2.1332 5.73563 0.742318
753 2 0.6 2.35 12.03 9.93467 13.4969
754 2 0.6 2.35 3.67586 9.28551 11.69
755 2 0.6 2.35 11.8933 9.82579 10.0227
756 1 1 2.35 0.821214 9.06126 11.8457
757 1 1 2.35 2.22237 12.8543 9.9366
758 2 0.6 2.35 3.76918 12.0653 7.20448
759 2 0.6 2.35 10.9101 11.5533 11.9713
760 2 0.6 2.35 0.82833 2.99784 13.0241
761 2 0.6 2.35 6.91297 13.0901 8.51872
762 2 0.6 2.35 4.66014 3.79385 12.6298
763 1 1 2.35 10.1882 5.69167 11.5786
764 2 0.6 2.35 10.0932 2.40224 7.86034
765 2 0.6 2.35 0.121506 1.63812 0.487163
766 1 1 2.35 11.55 12.1565 4.40504
767 2 0.6 2.35 0.54789 6.18027 10.1861
768 1 1 2.35 9.82998 7.44121 12.6867
769 2 0.6 2.35 10.6016 4.3075 11.4084
770 2 0.6 2.35 11.9115 1.31913 4.19817
771 1 1 2.35 4.23175 2.33709 8.25124
772 2 0.6 2.35 10.629 4.29442 6.23846
773 1 1 2.35 5.23862 10.9615 3.41751
774 2 0.6 2.35 3.55206 2.82135 8.77935
775 2 0.6 2.35 7.07894 4.85902 2.50837
776 2 0.6 2.35 7.73344 5.05631 1.21214
777 2 0.6 2.35 10.9779 1.51358 10.9965