LAMMPS Description

50 atoms

1 atom types
0 3.968503 xlo xhi
0 3.968503 ylo yhi
0 3.968503 zlo zhi


Atoms # sphere

1 1 1 2.35 3.83584 0.765044 3.85361
2 1 1 2.35 3.25608 2.49173 2.26723
3 1 1 2.35 0.0264336 3.42736 0.656554
4 1 1 2.35 1.10686 1.45519 1.91236
5 1 1 2.35 0.12442 2.95026 3.64565
6 1 1 2.35 3.702 1.7571 3.65376
7 1 1 2.35 0.0150399 0.558599 3.85927
8 1 1 2.35 3.29433 0.0776792 3.75576
9 1 1 2.35 2.83885 0.644808 0.485425
10 1 1 2.35 1.7897 3.3579 0.850862
11 1 1 2.35 1.23382 3.33947 2.05989
12 1 1 2.35 2.55792 3.78203 3.12314
13 1 1 2.35 0.858209 0.798854 3.3002
14 1 1 2.35 0.151138 0.460574 2.45979
15 1 1 2.35 2.15187 3.22857 1.25144
16 1 1 2.35 3.35823 0.923906 0.961255
17 1 1 2.35 3.29409 3.00647 2.3885
18 1 1 2.35 3.57411 1.95471 2.11984
19 1 1 2.35 1.37311 1.01475 3.90834
20 1 1 2.35 2.81287 0.705095 0.443568
21 1 1 2.35 0.802578 0.360072 2.07102
22 1 1 2.35 2.45935 1.4658 3.28659
23 1 1 2.35 1.78205 3.88609 2.16085
24 1 1 2.35 1.87785 1.99481 3.58478
25 1 1 2.35 0.524362 0.373442 2.59698
26 1 1 2.35 0.206843 0.831701 2.40226
27 1 1 2.35 0.40561 1.40526 0.870595
28 1 1 2.35 0.743558 2.22531 3.8814
29 1 1 2.35 3.67338 1.78022 1.77564
30 1 1 2.35 0.629072 3.73845 0.461275
31 1 1 2.35 3.694 2.65522 0.600326
32 1 1 2.35 1.90795 2.59883 2.01268
33 1 1 2.35 1.40703 3.34122 1.56505
34 1 1 2.35 3.66425 2.05454 0.278315
35 1 1 2.35 1.84894 3.35151 0.363816
36 1 1 2.35 0.336904 0.610043 3.89829
37 1 1 2.35 2.39871 3.90011 3.74889
38 1 1 2.35 0.156006 1.7865 3.54948
39 1 1 2.35 3.1694 3.95613 0.46379
40 1 1 2.35 1.5936 1.43428 3.21561
41 1 1 2.35 1.33696 2.8025 0.0429883
42 1 1 2.35 1.37331 2.44995 2.60337
43 1 1 2.35 1.8345 3.79134 3.86297
44 1 1 2.35 2.23924 2.76299 3.9025
45 1 1 2.35 0.784978 1.44844 3.28877
46 1 1 2.35 0.182769 1.12388 2.97865
47 1 1 2.35 1.16636 0.522208 0.279528
48 1 1 2.35 2.67259 1.01597 0.891559
49 1 1 2.35 0.194918 0.292043 2.5384
50 1 1 2.35 1.28623 3.61647 0.218394
