LAMMPS Description

1000 atoms

1 atom types
0 10.772173 xlo xhi
0 10.772173 ylo yhi
0 10.772173 zlo zhi


Atoms # sphere

1 1 1 2.35 10.4794 6.26838 10.6442
2 1 1 2.35 5.23458 5.84785 2.38958
3 1 1 2.35 1.46747 3.34921 4.93677
4 1 1 2.35 8.43827 8.70506 10.0044
5 1 1 2.35 7.17054 3.65533 4.30791
6 1 1 2.35 10.0598 5.56475 0.294562
7 1 1 2.35 5.42533 5.10988 0.175524
8 1 1 2.35 3.61872 2.37108 7.0531
9 1 1 2.35 2.63133 3.82837 2.99487
10 1 1 2.35 7.29904 10.4065 6.35659
11 1 1 2.35 3.70946 6.18997 2.65885
12 1 1 2.35 10.2607 9.82201 3.96617
13 1 1 2.35 7.72929 7.45154 2.03093
14 1 1 2.35 5.91343 6.08898 9.20752
15 1 1 2.35 4.83136 0.0560809 7.24132
16 1 1 2.35 1.22138 0.379051 4.82468
17 1 1 2.35 0.0589328 2.00077 1.96427
18 1 1 2.35 1.42027 9.42397 3.66107
19 1 1 2.35 6.311 8.26791 5.78492
20 1 1 2.35 10.6361 3.71118 2.58886
21 1 1 2.35 8.1124 6.57892 0.919541
22 1 1 2.35 3.07087 6.43072 9.32994
23 1 1 2.35 6.34083 4.53006 10.6554
24 1 1 2.35 7.5474 5.97218 4.52609
25 1 1 2.35 10.7008 7.58006 9.69296
26 1 1 2.35 0.974697 10.7202 3.29076
27 1 1 2.35 8.05714 7.07381 7.49374
28 1 1 2.35 2.91661 3.42156 5.05946
29 1 1 2.35 10.0305 1.7666 1.46059
30 1 1 2.35 0.63076 0.153008 8.43382
31 1 1 2.35 8.95058 2.28084 5.15908
32 1 1 2.35 4.5239 1.40979 1.73621
33 1 1 2.35 4.19559 6.79346 8.73883
34 1 1 2.35 6.12672 8.16221 6.34983
35 1 1 2.35 8.30179 3.18193 9.8142
36 1 1 2.35 10.5008 6.63458 0.126604
37 1 1 2.35 3.11452 0.218147 7.09009
38 1 1 2.35 3.53821 5.11468 0.113403
39 1 1 2.35 6.22563 1.80107 7.34834
40 1 1 2.35 4.65615 6.43976 7.21507
41 1 1 2.35 6.35484 1.6817 10.6499
42 1 1 2.35 1.29975 0.530408 10.6261
43 1 1 2.35 5.08265 2.08435 6.73164
44 1 1 2.35 8.56728 4.83418 1.57647
45 1 1 2.35 5.17586 5.95227 3.26629
46 1 1 2.35 2.41607 3.92288 9.93915
47 1 1 2.35 0.354177 2.95182 9.72505
48 1 1 2.35 10.4923 2.04818 6.45476
49 1 1 2.35 4.88506 4.7034 7.57876
50 1 1 2.35 7.65375 7.46439 3.91213
51 1 1 2.35 0.249591 6.21125 8.84645
52 1 1 2.35 4.28527 8.84978 1.19765
53 1 1 2.35 3.3918 9.92193 2.72184
54 1 1 2.35 8.16312 3.01894 0.0352748
55 1 1 2.35 6.6982 4.18672 5.60992
56 1 1 2.35 0.559123 10.6005 6.72681
57 1 1 2.35 4.2482 9.37218 9.25778
58 1 1 2.35 2.56586 5.38266 1.94865
59 1 1 2.35 4.44361 6.24506 0.118079
60 1 1 2.35 5.23466 10.1575 3.73495
61 1 1 2.35 2.4805 7.12569 10.0548
62 1 1 2.35 4.80669 5.27191 5.20884
63 1 1 2.35 0.0571463 9.12202 0.208578
64 1 1 2.35 7.63124 2.82749 9.31174
65 1 1 2.35 10.1629 4.80119 6.25701
66 1 1 2.35 9.78538 9.26742 1.97764
67 1 1 2.35 5.47955 6.96609 4.67357
68 1 1 2.35 8.01467 0.903073 6.37516
69 1 1 2.35 2.05374 2.73538 7.73749
70 1 1 2.35 4.21202 8.20155 1.00867
71 1 1 2.35 4.14022 4.42805 6.07423
72 1 1 2.35 9.95809 4.38511 1.73683
73 1 1 2.35 9.39072 9.65054 5.44822
74 1 1 2.35 3.24995 8.54267 7.1011
75 1 1 2.35 4.18085 9.16798 8.57946
76 1 1 2.35 0.257904 9.01374 3.85087
77 1 1 2.35 5.27364 4.27617 6.45589
78 1 1 2.35 6.33826 3.77332 9.90603
79 1 1 2.35 7.76906 3.00317 0.209566
80 1 1 2.35 0.440534 8.5867 8.96742
81 1 1 2.35 10.5615 8.32793 1.84004
82 1 1 2.35 9.95009 9.63609 1.80297
83 1 1 2.35 6.97732 9.62851 7.60347
84 1 1 2.35 6.59957 9.49755 2.45425
85 1 1 2.35 5.49831 2.39484 3.65182
86 1 1 2.35 9.61132 10.3789 8.57417
87 1 1 2.35 9.95483 9.09264 5.74853
88 1 1 2.35 6.4637 1.74216 8.31488
89 1 1 2.35 7.71482 8.9711 10.1808
90 1 1 2.35 2.65632 5.6297 10.6261
91 1 1 2.35 10.6418 9.558 5.19598
92 1 1 2.35 9.74816 4.95557 4.05733
93 1 1 2.35 0.209913 9.22566 4.08212
94 1 1 2.35 5.88597 1.41287 3.50892
95 1 1 2.35 10.3503 7.97348 3.87959
96 1 1 2.35 5.25553 1.67127 3.48536
97 1 1 2.35 0.914149 2.87114 4.5823
98 1 1 2.35 2.13489 5.10923 8.31731
99 1 1 2.35 7.97785 0.80052 10.3728
100 1 1 2.35 10.039 8.51266 3.5262
101 1 1 2.35 1.80709 3.02554 4.97444
102 1 1 2.35 1.22517 7.63369 10.2656
103 1 1 2.35 4.75494 9.49057 2.36462
104 1 1 2.35 10.3844 6.07311 0.775431
105 1 1 2.35 6.59228 5.48818 7.26503
106 1 1 2.35 7.28564 2.37162 1.58605
107 1 1 2.35 6.11401 9.89768 8.52943
108 1 1 2.35 5.75033 5.54528 1.54724
109 1 1 2.35 7.21835 0.0269423 7.17161
110 1 1 2.35 3.13388 1.90557 5.95739
111 1 1 2.35 7.74398 4.57115 3.87935
112 1 1 2.35 9.24806 8.27624 2.09924
113 1 1 2.35 3.16469 9.27218 2.31373
114 1 1 2.35 2.70064 0.8552 5.58665
115 1 1 2.35 3.21675 4.94271 8.82187
116 1 1 2.35 2.77246 5.67152 4.83058
117 1 1 2.35 5.36732 6.35893 0.112314
118 1 1 2.35 6.98578 2.19741 6.79747
119 1 1 2.35 7.28833 7.04582 2.01474
120 1 1 2.35 7.81317 10.4026 1.52676
121 1 1 2.35 2.50488 1.05914 4.57849
122 1 1 2.35 1.04038 3.74348 6.52865
123 1 1 2.35 4.07273 3.65373 8.94301
124 1 1 2.35 2.39746 3.29501 3.17512
125 1 1 2.35 7.35366 8.27882 6.96634
126 1 1 2.35 4.73506 9.06527 0.34528
127 1 1 2.35 4.78947 1.18247 4.26145
128 1 1 2.35 2.32103 6.75331 8.30386
129 1 1 2.35 5.36131 6.79093 8.9594
130 1 1 2.35 0.756922 7.97317 10.1538
131 1 1 2.35 6.70755 9.44379 0.784189
132 1 1 2.35 7.40091 8.34089 1.16164
133 1 1 2.35 0.531263 1.05644 10.2984
134 1 1 2.35 2.39059 3.29944 1.68124
135 1 1 2.35 7.64215 4.89545 5.7367
136 1 1 2.35 3.20992 7.75143 8.3759
137 1 1 2.35 10.6886 7.00297 7.26928
138 1 1 2.35 10.5518 0.895519 6.34871
139 1 1 2.35 9.41152 2.19787 9.0731
140 1 1 2.35 2.28361 8.87679 2.2198
141 1 1 2.35 9.15335 4.73657 4.70476
142 1 1 2.35 0.789006 2.0476 2.00741
143 1 1 2.35 8.16368 6.84629 1.84251
144 1 1 2.35 3.07925 10.5816 7.86517
145 1 1 2.35 8.75985 4.66494 6.99215
146 1 1 2.35 10.1394 5.43182 1.07688
147 1 1 2.35 7.27974 0.220191 9.32466
148 1 1 2.35 4.96802 2.90685 4.86034
149 1 1 2.35 9.06472 0.353143 7.27256
150 1 1 2.35 6.26219 4.88898 1.158
151 1 1 2.35 7.33869 3.22402 4.20652
152 1 1 2.35 8.11562 8.71177 4.57314
153 1 1 2.35 5.56273 6.24514 5.68717
154 1 1 2.35 6.9623 3.45198 2.76008
155 1 1 2.35 1.41797 4.80418 2.63778
156 1 1 2.35 9.21313 0.608495 10.7191
157 1 1 2.35 4.2464 7.49678 0.870107
158 1 1 2.35 9.68952 3.20175 7.20686
159 1 1 2.35 4.5411 10.6196 0.761433
160 1 1 2.35 8.08182 4.48318 7.97133
161 1 1 2.35 6.77848 3.20987 7.84282
162 1 1 2.35 5.09431 7.44444 2.62635
163 1 1 2.35 2.77906 7.90437 8.78042
164 1 1 2.35 9.1323 3.98085 8.61415
165 1 1 2.35 6.40396 1.2946 5.96049
166 1 1 2.35 3.63503 2.66998 4.78948
167 1 1 2.35 10.726 5.12313 8.31814
168 1 1 2.35 2.74171 5.46851 7.19952
169 1 1 2.35 10.6304 7.82325 7.37336
170 1 1 2.35 6.47115 0.141599 9.14414
171 1 1 2.35 7.0418 5.1015 3.2447
172 1 1 2.35 5.44239 10.7282 4.22566
173 1 1 2.35 3.71984 7.98524 1.51182
174 1 1 2.35 5.06997 9.95701 2.29603
175 1 1 2.35 1.37627 5.06539 2.23212
176 1 1 2.35 9.42034 4.31086 1.65197
177 1 1 2.35 7.63098 1.93951 5.73776
178 1 1 2.35 0.568648 5.11192 0.948121
179 1 1 2.35 0.72222 5.94255 8.71736
180 1 1 2.35 2.51479 3.44994 0.916248
181 1 1 2.35 4.72912 6.62639 5.91158
182 1 1 2.35 0.616659 0.902794 5.16359
183 1 1 2.35 0.425386 2.20856 8.53414
184 1 1 2.35 7.94699 7.53162 6.01726
185 1 1 2.35 9.86729 3.46415 4.24103
186 1 1 2.35 10.1196 2.57265 7.79979
187 1 1 2.35 2.95103 5.98052 7.64992
188 1 1 2.35 9.38475 7.55889 1.61383
189 1 1 2.35 0.205185 1.41654 0.153563
190 1 1 2.35 8.54613 10.0296 4.38389
191 1 1 2.35 9.88272 10.4568 9.59023
192 1 1 2.35 1.69428 7.48923 9.74798
193 1 1 2.35 1.89324 2.16985 5.03762
194 1 1 2.35 5.29779 2.54117 4.83985
195 1 1 2.35 2.04485 7.23576 10.4249
196 1 1 2.35 2.31355 3.0282 0.611736
197 1 1 2.35 3.53882 0.979161 3.78919
198 1 1 2.35 4.55321 6.73143 10.3707
199 1 1 2.35 2.87037 5.34957 8.73165
200 1 1 2.35 2.76302 9.9043 4.28285
201 1 1 2.35 7.06161 1.66096 9.6294
202 1 1 2.35 4.71271 7.50899 3.18686
203 1 1 2.35 8.51055 1.40987 8.47273
204 1 1 2.35 2.57337 10.2694 5.67754
205 1 1 2.35 8.31153 3.07681 4.80592
206 1 1 2.35 2.61465 1.84514 7.70415
207 1 1 2.35 0.0640032 10.6154 0.0982012
208 1 1 2.35 2.85778 7.73785 4.25387
209 1 1 2.35 3.36456 7.75399 8.11565
210 1 1 2.35 4.76197 9.27381 2.55784
211 1 1 2.35 9.98522 5.68036 9.55826
212 1 1 2.35 5.07238 0.431405 3.00587
213 1 1 2.35 5.89172 3.41345 2.23454
214 1 1 2.35 5.50942 7.30016 0.475105
215 1 1 2.35 10.3946 1.5736 7.84257
216 1 1 2.35 1.40264 4.74631 9.13132
217 1 1 2.35 5.7671 9.27921 0.467017
218 1 1 2.35 0.180366 7.82619 1.48366
219 1 1 2.35 5.22853 1.08525 10.2584
220 1 1 2.35 0.857008 6.99744 6.93416
221 1 1 2.35 4.71309 8.25291 4.9689
222 1 1 2.35 3.06211 10.0767 0.0274877
223 1 1 2.35 7.37422 0.412207 7.01553
224 1 1 2.35 2.13058 0.837691 7.6688
225 1 1 2.35 9.08737 8.91582 2.96173
226 1 1 2.35 8.55903 4.69242 7.0996
227 1 1 2.35 1.56639 8.31766 0.785894
228 1 1 2.35 10.3255 5.36276 4.82711
229 1 1 2.35 3.12192 7.95985 9.79972
230 1 1 2.35 7.78656 2.02003 3.65361
231 1 1 2.35 7.36395 0.41488 1.90019
232 1 1 2.35 0.881693 4.50877 3.24613
233 1 1 2.35 4.93907 7.08266 2.89215
234 1 1 2.35 5.03953 4.51192 0.417014
235 1 1 2.35 5.91115 1.12949 1.05922
236 1 1 2.35 4.51318 6.38937 3.25006
237 1 1 2.35 0.295484 0.311424 9.4778
238 1 1 2.35 8.09415 2.61222 0.529342
239 1 1 2.35 8.42238 7.66389 4.02916
240 1 1 2.35 0.405855 0.212768 2.5002
241 1 1 2.35 1.10445 3.02038 2.14061
242 1 1 2.35 10.5354 2.47042 10.3433
243 1 1 2.35 0.695357 1.42271 2.71125
244 1 1 2.35 6.60027 7.8411 6.67132
245 1 1 2.35 7.27311 4.21596 1.48033
246 1 1 2.35 2.16348 0.210456 7.99358
247 1 1 2.35 1.91119 1.59978 4.54495
248 1 1 2.35 3.09243 6.07231 3.45278
249 1 1 2.35 6.55963 9.57957 6.36058
250 1 1 2.35 4.5551 6.74884 5.74548
251 1 1 2.35 0.000422 7.08464 4.06513
252 1 1 2.35 9.42433 10.4912 8.06363
253 1 1 2.35 6.46276 3.10243 2.45276
254 1 1 2.35 6.25907 0.961117 8.30274
255 1 1 2.35 3.14019 6.65688 4.77211
256 1 1 2.35 8.48999 1.51434 10.0953
257 1 1 2.35 6.11741 2.61277 2.17694
258 1 1 2.35 0.23634 3.14367 0.846126
259 1 1 2.35 9.25473 3.01337 7.49501
260 1 1 2.35 9.94801 4.94055 7.96523
261 1 1 2.35 3.16311 4.81951 1.67365
262 1 1 2.35 0.7552 2.52801 4.44883
263 1 1 2.35 7.90753 3.12097 7.78121
264 1 1 2.35 4.7182 1.79991 6.40182
265 1 1 2.35 8.81718 3.96017 4.51668
266 1 1 2.35 9.48184 7.6624 6.58267
267 1 1 2.35 5.25094 9.8923 5.38591
268 1 1 2.35 6.78514 5.05236 3.64887
269 1 1 2.35 3.35891 1.97525 4.73364
270 1 1 2.35 5.63178 6.02943 8.41395
271 1 1 2.35 7.88532 2.73038 1.79493
272 1 1 2.35 3.80745 1.68651 4.34757
273 1 1 2.35 7.67071 4.44715 9.57638
274 1 1 2.35 1.09195 3.25581 0.482563
275 1 1 2.35 1.72101 1.443 0.751652
276 1 1 2.35 7.44869 9.55047 7.04584
277 1 1 2.35 0.700968 7.75432 1.77971
278 1 1 2.35 1.78079 2.9112 8.00238
279 1 1 2.35 9.19667 0.281035 8.97026
280 1 1 2.35 5.18798 6.93358 5.3531
281 1 1 2.35 0.492766 5.68019 5.45342
282 1 1 2.35 6.03602 0.519349 2.67771
283 1 1 2.35 9.68342 3.31323 7.2591
284 1 1 2.35 1.24692 0.798917 1.36518
285 1 1 2.35 0.386263 1.78937 7.48899
286 1 1 2.35 9.70077 4.69494 8.21878
287 1 1 2.35 7.9387 3.83451 0.6318
288 1 1 2.35 6.91002 7.26706 9.26081
289 1 1 2.35 5.39421 1.86048 0.494789
290 1 1 2.35 6.40577 3.26355 9.92261
291 1 1 2.35 9.89173 0.730866 3.40676
292 1 1 2.35 6.31234 4.73718 5.8101
293 1 1 2.35 9.85005 9.83554 3.75148
294 1 1 2.35 5.43381 3.97671 2.89851
295 1 1 2.35 2.44403 2.84734 5.31891
296 1 1 2.35 3.67749 2.15659 6.07185
297 1 1 2.35 3.44036 5.52407 0.194533
298 1 1 2.35 8.23463 1.92265 9.71512
299 1 1 2.35 5.97827 6.70145 6.44443
300 1 1 2.35 7.60546 1.55906 2.91041
301 1 1 2.35 9.5449 8.31456 5.7544
302 1 1 2.35 5.17279 3.53475 9.52225
303 1 1 2.35 7.0486 1.99743 1.31478
304 1 1 2.35 0.768795 0.21885 9.93456
305 1 1 2.35 6.51189 7.48443 2.7477
306 1 1 2.35 6.43812 4.07407 1.00046
307 1 1 2.35 9.50414 5.75837 2.15006
308 1 1 2.35 3.64621 9.48113 7.53123
309 1 1 2.35 6.32494 2.53543 3.005
310 1 1 2.35 7.18762 1.53981 4.22959
311 1 1 2.35 0.888514 5.38706 0.0348788
312 1 1 2.35 4.18316 1.91695 7.63266
313 1 1 2.35 4.70262 2.41929 6.01576
314 1 1 2.35 9.91849 5.91946 4.19561
315 1 1 2.35 0.230174 6.02307 1.44244
316 1 1 2.35 3.78447 0.452237 4.85714
317 1 1 2.35 6.25112 8.98721 0.45056
318 1 1 2.35 4.42915 4.52032 9.46704
319 1 1 2.35 8.99976 1.1548 1.50641
320 1 1 2.35 6.27534 2.97641 2.50955
321 1 1 2.35 2.6472 7.33285 9.29318
322 1 1 2.35 1.24317 5.11738 7.13018
323 1 1 2.35 2.77175 5.81439 3.89295
324 1 1 2.35 5.59321 9.62731 4.34584
325 1 1 2.35 2.69393 0.871629 6.20874
326 1 1 2.35 10.2562 7.38925 4.21165
327 1 1 2.35 9.65957 4.73417 10.4918
328 1 1 2.35 6.23751 10.7357 7.42377
329 1 1 2.35 8.40107 1.91829 9.76456
330 1 1 2.35 7.09199 8.61294 7.38942
331 1 1 2.35 10.4364 3.56887 1.17405
332 1 1 2.35 1.18782 6.85923 7.0707
333 1 1 2.35 1.82872 3.3567 3.50906
334 1 1 2.35 1.6404 5.41319 3.70884
335 1 1 2.35 9.34211 5.73419 2.33429
336 1 1 2.35 2.18314 7.84844 4.32636
337 1 1 2.35 7.56864 3.5703 8.15288
338 1 1 2.35 5.97096 1.88791 1.07348
339 1 1 2.35 7.49428 6.82984 9.08684
340 1 1 2.35 1.45171 5.72606 4.78675
341 1 1 2.35 1.58112 3.67773 9.11808
342 1 1 2.35 3.54742 2.87646 2.24781
343 1 1 2.35 5.25854 9.50598 6.72226
344 1 1 2.35 6.81949 10.0396 5.81789
345 1 1 2.35 9.32961 8.06689 9.96779
346 1 1 2.35 5.27236 8.89084 0.799219
347 1 1 2.35 2.53912 6.40002 3.63913
348 1 1 2.35 5.73472 1.57436 7.30843
349 1 1 2.35 2.65397 9.2182 5.65368
350 1 1 2.35 1.33842 8.27874 5.70142
351 1 1 2.35 3.25576 2.16321 10.4459
352 1 1 2.35 6.35113 9.0737 7.67571
353 1 1 2.35 6.68242 10.3991 2.18503
354 1 1 2.35 1.90225 3.3522 10.3526
355 1 1 2.35 5.44543 7.30335 1.27384
356 1 1 2.35 4.74693 2.59388 7.50465
357 1 1 2.35 7.45783 5.76252 0.0305317
358 1 1 2.35 10.6575 2.44236 6.57724
359 1 1 2.35 7.42945 4.42344 2.70838
360 1 1 2.35 3.8934 9.77304 9.5531
361 1 1 2.35 6.46506 1.97012 7.51329
362 1 1 2.35 9.01661 7.78293 3.41333
363 1 1 2.35 3.2238 4.94694 1.40267
364 1 1 2.35 6.89093 4.98196 3.90247
365 1 1 2.35 3.16546 8.52736 6.83083
366 1 1 2.35 6.09486 0.699483 7.79646
367 1 1 2.35 7.24601 6.15233 6.73305
368 1 1 2.35 5.55969 10.0514 8.9319
369 1 1 2.35 9.88527 9.28435 1.17307
370 1 1 2.35 1.83633 10.3791 6.24243
371 1 1 2.35 6.59501 7.43201 1.76695
372 1 1 2.35 2.23719 5.239 0.3121
373 1 1 2.35 3.77223 4.96171 7.74633
374 1 1 2.35 1.70272 4.89333 0.473003
375 1 1 2.35 9.38859 10.6976 8.20629
376 1 1 2.35 4.16938 1.20866 6.36631
377 1 1 2.35 3.73474 10.2012 4.54973
378 1 1 2.35 10.0177 0.853569 4.9406
379 1 1 2.35 7.19736 1.12755 1.28396
380 1 1 2.35 6.0354 9.45444 7.27761
381 1 1 2.35 9.84317 5.1191 9.37834
382 1 1 2.35 4.39291 3.05455 9.3109
383 1 1 2.35 2.50465 1.77751 3.26718
384 1 1 2.35 9.1233 5.67457 6.51534
385 1 1 2.35 9.77644 2.36971 5.75987
386 1 1 2.35 0.981146 7.75926 10.2476
387 1 1 2.35 9.30424 1.30369 5.5398
388 1 1 2.35 7.44264 1.66409 5.69598
389 1 1 2.35 9.38057 6.84542 0.121402
390 1 1 2.35 8.66986 10.3586 5.11172
391 1 1 2.35 3.48822 3.16647 4.0286
392 1 1 2.35 2.17758 9.23293 0.754411
393 1 1 2.35 7.82423 1.30338 1.21116
394 1 1 2.35 1.24294 10.2581 5.03467
395 1 1 2.35 1.69316 2.63179 0.497146
396 1 1 2.35 4.36089 6.72144 3.23931
397 1 1 2.35 3.72077 3.6745 4.18395
398 1 1 2.35 1.35799 5.95337 6.55807
399 1 1 2.35 1.83606 4.65461 7.16308
400 1 1 2.35 2.7435 3.5607 4.60579
401 1 1 2.35 1.07166 0.22973 1.98703
402 1 1 2.35 7.21591 2.50294 8.58444
403 1 1 2.35 8.17829 4.80215 8.05364
404 1 1 2.35 7.19213 2.4012 3.49502
405 1 1 2.35 8.08032 9.68838 6.41042
406 1 1 2.35 8.25018 2.78721 9.26605
407 1 1 2.35 3.01777 9.58863 7.57214
408 1 1 2.35 3.92904 4.26793 1.65203
409 1 1 2.35 6.05445 8.8382 5.43548
410 1 1 2.35 6.12541 9.35155 7.96195
411 1 1 2.35 7.15371 8.56385 2.48881
412 1 1 2.35 3.64149 0.974829 9.40361
413 1 1 2.35 1.10985 1.00742 1.53187
414 1 1 2.35 9.15058 7.87737 1.83862
415 1 1 2.35 2.7906 4.05486 1.06861
416 1 1 2.35 0.592647 7.81385 2.60528
417 1 1 2.35 7.96599 6.21304 7.6598
418 1 1 2.35 8.13391 2.83218 9.44929
419 1 1 2.35 2.86958 3.17481 3.82934
420 1 1 2.35 4.3521 2.54679 6.52857
421 1 1 2.35 9.24581 6.30418 1.19909
422 1 1 2.35 1.96828 8.43663 2.79169
423 1 1 2.35 10.5101 7.54697 0.365661
424 1 1 2.35 2.88286 7.0433 4.3334
425 1 1 2.35 5.8989 5.87992 9.32498
426 1 1 2.35 4.42626 8.54899 0.853193
427 1 1 2.35 5.6382 1.75724 6.97668
428 1 1 2.35 7.02217 5.88404 10.0889
429 1 1 2.35 9.18354 8.65176 6.35721
430 1 1 2.35 10.2592 3.10755 10.1756
431 1 1 2.35 4.59592 1.00977 0.755436
432 1 1 2.35 0.220663 1.6786 2.33111
433 1 1 2.35 6.82755 8.24843 10.5773
434 1 1 2.35 4.76491 0.63977 8.22173
435 1 1 2.35 0.698157 5.63587 6.63131
436 1 1 2.35 6.54355 1.41928 6.61227
437 1 1 2.35 10.2346 1.74149 7.16216
438 1 1 2.35 3.919 3.55833 2.23613
439 1 1 2.35 10.4318 7.78275 6.29685
440 1 1 2.35 0.992702 5.86279 1.09058
441 1 1 2.35 8.63346 3.98536 8.51541
442 1 1 2.35 6.09461 4.26865 2.82995
443 1 1 2.35 4.27179 4.93744 1.67755
444 1 1 2.35 5.84286 7.50532 2.55815
445 1 1 2.35 2.57942 7.13051 2.42581
446 1 1 2.35 3.12065 4.64286 9.7315
447 1 1 2.35 0.637636 5.00596 5.21268
448 1 1 2.35 10.6328 8.16331 8.9259
449 1 1 2.35 4.19017 6.02636 4.82332
450 1 1 2.35 2.86047 7.73852 1.51311
451 1 1 2.35 5.60045 10.1588 5.93253
452 1 1 2.35 2.09086 6.65762 4.48711
453 1 1 2.35 8.9502 5.15954 4.47138
454 1 1 2.35 4.87869 10.7701 5.72761
455 1 1 2.35 1.28574 6.90429 9.70426
456 1 1 2.35 0.779197 3.41448 10.3097
457 1 1 2.35 5.45528 5.6233 7.32286
458 1 1 2.35 5.75191 1.83687 4.50723
459 1 1 2.35 2.2459 2.69434 6.02666
460 1 1 2.35 2.54076 3.70555 2.54052
461 1 1 2.35 5.12733 4.69415 3.72677
462 1 1 2.35 0.886064 4.43954 9.95922
463 1 1 2.35 8.76095 9.31758 3.62985
464 1 1 2.35 3.45344 5.62699 10.7491
465 1 1 2.35 8.84876 1.6303 5.8921
466 1 1 2.35 1.2528 6.85395 0.970388
467 1 1 2.35 0.378593 3.95073 8.79646
468 1 1 2.35 1.71082 0.12473 7.53528
469 1 1 2.35 7.31026 1.09303 9.13133
470 1 1 2.35 6.56738 2.67291 4.71376
471 1 1 2.35 5.52763 4.81438 3.12157
472 1 1 2.35 0.870194 7.36077 6.66114
473 1 1 2.35 7.24663 0.358384 7.64313
474 1 1 2.35 10.4666 0.46925 4.20563
475 1 1 2.35 6.40883 0.347391 3.4012
476 1 1 2.35 1.2314 7.71732 0.885067
477 1 1 2.35 1.62838 8.42737 10.6094
478 1 1 2.35 1.85186 9.98889 9.20598
479 1 1 2.35 1.54604 9.06503 10.6126
480 1 1 2.35 7.90672 6.74176 10.6107
481 1 1 2.35 7.44092 5.82611 8.88021
482 1 1 2.35 8.45834 4.58466 4.5799
483 1 1 2.35 8.39657 10.4143 10.4705
484 1 1 2.35 0.675466 0.707967 9.07358
485 1 1 2.35 7.95231 0.879315 1.7845
486 1 1 2.35 1.6084 1.1305 8.75481
487 1 1 2.35 1.38674 0.120973 8.29644
488 1 1 2.35 4.67244 4.24504 3.66741
489 1 1 2.35 5.84165 0.689896 2.8504
490 1 1 2.35 10.322 7.455 1.88099
491 1 1 2.35 1.28155 2.31075 10.5801
492 1 1 2.35 8.73052 9.95573 8.96074
493 1 1 2.35 5.90847 3.77675 6.18678
494 1 1 2.35 5.57574 5.7388 5.94005
495 1 1 2.35 2.14448 6.86063 3.24284
496 1 1 2.35 0.235297 4.96581 9.20333
497 1 1 2.35 3.9415 7.53861 0.68077
498 1 1 2.35 4.99584 8.2647 7.98598
499 1 1 2.35 6.05497 1.15084 2.58222
500 1 1 2.35 8.41733 0.887482 4.83389
501 1 1 2.35 4.66284 5.23719 7.98659
502 1 1 2.35 2.51512 9.88843 9.37438
503 1 1 2.35 10.1948 3.40359 8.10392
504 1 1 2.35 0.498161 8.90368 4.76805
505 1 1 2.35 2.5555 6.21486 6.1941
506 1 1 2.35 4.42113 3.38004 8.3524
507 1 1 2.35 8.80589 3.03237 10.7049
508 1 1 2.35 1.3881 5.50281 2.14342
509 1 1 2.35 8.12256 9.79082 0.228959
510 1 1 2.35 3.08301 3.67303 3.32636
511 1 1 2.35 10.0421 6.85875 1.64656
512 1 1 2.35 1.74028 6.56227 3.64843
513 1 1 2.35 9.4526 4.02509 1.93302
514 1 1 2.35 3.72748 0.574245 0.197732
515 1 1 2.35 6.28274 6.27547 0.232873
516 1 1 2.35 8.77805 3.30239 8.60534
517 1 1 2.35 3.11964 0.597537 3.38199
518 1 1 2.35 0.266476 3.16345 2.34591
519 1 1 2.35 4.11571 7.22449 8.95184
520 1 1 2.35 5.3498 9.80777 8.97344
521 1 1 2.35 9.64651 4.64594 2.33322
522 1 1 2.35 7.44272 7.19617 10.5858
523 1 1 2.35 8.42109 5.78753 6.15244
524 1 1 2.35 2.01743 8.64837 5.2548
525 1 1 2.35 0.609222 9.82308 1.13409
526 1 1 2.35 7.47376 6.67531 7.89002
527 1 1 2.35 4.52598 7.45223 10.3307
528 1 1 2.35 2.34659 6.70957 0.997644
529 1 1 2.35 1.30022 7.11563 5.30513
530 1 1 2.35 4.19501 5.7085 4.01744
531 1 1 2.35 5.05424 10.3613 5.78387
532 1 1 2.35 6.70422 10.5236 4.31573
533 1 1 2.35 0.616593 6.61125 5.61808
534 1 1 2.35 3.7856 3.28081 2.74167
535 1 1 2.35 1.30075 2.64758 4.72904
536 1 1 2.35 8.04002 6.20174 3.0466
537 1 1 2.35 5.48897 3.30439 2.67828
538 1 1 2.35 8.87135 9.84816 2.20815
539 1 1 2.35 8.85792 7.56207 0.731919
540 1 1 2.35 4.84073 6.68239 9.45587
541 1 1 2.35 5.84941 5.36114 5.59979
542 1 1 2.35 10.2922 4.42467 2.39459
543 1 1 2.35 5.14053 2.4139 4.017
544 1 1 2.35 7.42301 8.79926 8.90019
545 1 1 2.35 0.456521 10.6389 4.06259
546 1 1 2.35 1.81633 7.94128 10.5971
547 1 1 2.35 6.74643 10.7238 0.0597971
548 1 1 2.35 9.70778 0.740941 1.81355
549 1 1 2.35 7.85152 6.18691 1.19418
550 1 1 2.35 5.63602 10.4004 2.24148
551 1 1 2.35 2.77657 4.67723 8.91418
552 1 1 2.35 2.87207 2.8592 6.53081
553 1 1 2.35 1.33904 4.1179 5.13421
554 1 1 2.35 4.07198 4.22477 9.81098
555 1 1 2.35 5.51524 1.7827 1.71944
556 1 1 2.35 4.06837 7.94126 7.34644
557 1 1 2.35 3.52396 8.00791 8.40533
558 1 1 2.35 8.01434 4.80692 5.96399
559 1 1 2.35 2.7134 2.06939 3.04332
560 1 1 2.35 2.87612 7.76191 4.3938
561 1 1 2.35 9.29891 7.93547 9.19895
562 1 1 2.35 7.63305 9.852 10.4895
563 1 1 2.35 1.86037 8.40455 8.36524
564 1 1 2.35 5.56897 8.7668 10.6173
565 1 1 2.35 7.13989 4.38217 0.0362313
566 1 1 2.35 8.93295 10.1085 2.11149
567 1 1 2.35 10.0513 5.40738 1.15635
568 1 1 2.35 9.53084 0.462633 5.88406
569 1 1 2.35 8.27249 9.02411 3.9854
570 1 1 2.35 4.03703 0.117027 10.2898
571 1 1 2.35 10.0814 5.69467 9.12278
572 1 1 2.35 7.49284 0.878953 2.92757
573 1 1 2.35 2.55516 8.64949 1.94375
574 1 1 2.35 2.1655 9.03888 2.0627
575 1 1 2.35 0.144183 1.16322 9.58926
576 1 1 2.35 7.01547 3.00976 6.22235
577 1 1 2.35 8.32876 3.31458 4.17529
578 1 1 2.35 9.80364 8.25688 8.65011
579 1 1 2.35 1.99 7.95638 8.65153
580 1 1 2.35 4.51447 6.25669 1.95097
581 1 1 2.35 5.03634 7.35116 9.37711
582 1 1 2.35 4.58035 8.19392 9.66772
583 1 1 2.35 3.52655 4.57328 1.48956
584 1 1 2.35 1.85314 7.19757 5.62442
585 1 1 2.35 8.90262 5.51547 0.962348
586 1 1 2.35 10.0509 3.27267 0.128859
587 1 1 2.35 0.811744 3.63316 10.6423
588 1 1 2.35 7.33305 7.99932 9.99722
589 1 1 2.35 5.69648 10.2101 7.74225
590 1 1 2.35 4.10109 2.67115 6.2901
591 1 1 2.35 10.1743 1.37729 8.10233
592 1 1 2.35 9.59636 1.7784 4.02409
593 1 1 2.35 2.63313 2.30084 3.01139
594 1 1 2.35 1.44421 5.51124 2.61632
595 1 1 2.35 7.27767 10.7279 2.78641
596 1 1 2.35 7.79983 6.65337 0.818485
597 1 1 2.35 2.5415 9.65396 8.24092
598 1 1 2.35 5.96265 0.44877 9.13668
599 1 1 2.35 9.05298 4.62995 10.0717
600 1 1 2.35 1.97925 4.50535 1.99368
601 1 1 2.35 6.75639 6.68797 8.41422
602 1 1 2.35 4.05341 5.48939 10.6216
603 1 1 2.35 3.40185 9.19808 10.1081
604 1 1 2.35 1.60783 0.633929 10.297
605 1 1 2.35 8.02069 4.13482 2.6531
606 1 1 2.35 7.42845 5.84313 0.842745
607 1 1 2.35 1.18444 6.58506 10.7031
608 1 1 2.35 10.6053 3.27441 0.707707
609 1 1 2.35 3.33651 9.75631 3.93695
610 1 1 2.35 7.86448 5.10521 8.02559
611 1 1 2.35 4.82058 4.20615 10.5561
612 1 1 2.35 0.435842 3.56171 10.4324
613 1 1 2.35 7.05425 5.61654 7.83421
614 1 1 2.35 8.47825 6.20686 3.80041
615 1 1 2.35 5.08152 6.17848 1.06718
616 1 1 2.35 2.00853 6.71201 4.97373
617 1 1 2.35 1.65374 2.47927 1.93495
618 1 1 2.35 9.50825 1.51173 4.13129
619 1 1 2.35 7.82664 8.66097 6.19066
620 1 1 2.35 9.51147 8.49969 5.73817
621 1 1 2.35 5.33857 8.41002 3.71231
622 1 1 2.35 1.86811 1.2537 1.25624
623 1 1 2.35 4.29526 3.91808 9.88768
624 1 1 2.35 1.28713 5.49412 1.3507
625 1 1 2.35 8.89306 4.22588 0.0943868
626 1 1 2.35 0.780257 9.33013 0.140263
627 1 1 2.35 4.66779 9.49836 9.97422
628 1 1 2.35 10.0794 9.28045 9.53507
629 1 1 2.35 0.750913 5.8478 8.50569
630 1 1 2.35 2.5946 7.20911 8.05511
631 1 1 2.35 5.21923 8.09236 3.33571
632 1 1 2.35 7.97087 1.19988 1.47365
633 1 1 2.35 8.07324 6.70464 6.04732
634 1 1 2.35 9.1637 8.60754 9.13505
635 1 1 2.35 9.96375 9.61355 2.6601
636 1 1 2.35 9.58539 0.698332 9.08655
637 1 1 2.35 2.50415 2.73246 6.49014
638 1 1 2.35 4.72421 6.47207 5.75416
639 1 1 2.35 8.708 8.8484 9.1961
640 1 1 2.35 6.18992 7.82047 7.9848
641 1 1 2.35 7.79164 1.4046 10.7383
642 1 1 2.35 9.85902 7.3397 10.7164
643 1 1 2.35 0.913867 3.50374 4.30401
644 1 1 2.35 10.2714 9.40296 3.61478
645 1 1 2.35 10.3945 7.18436 9.61068
646 1 1 2.35 6.58795 6.47174 10.7332
647 1 1 2.35 4.9735 10.3827 0.630392
648 1 1 2.35 9.20697 3.8538 5.75555
649 1 1 2.35 9.4219 2.17731 9.60208
650 1 1 2.35 1.6784 4.29906 9.10674
651 1 1 2.35 8.31071 9.98631 0.826301
652 1 1 2.35 8.4195 2.86058 4.86895
653 1 1 2.35 0.311615 2.93295 7.9454
654 1 1 2.35 6.85654 10.6402 3.73499
655 1 1 2.35 5.22544 0.220854 7.42846
656 1 1 2.35 10.5881 0.929049 1.11712
657 1 1 2.35 5.31091 8.21077 7.08079
658 1 1 2.35 5.48244 6.51809 9.272
659 1 1 2.35 5.2257 8.34279 1.83949
660 1 1 2.35 6.8803 1.49423 8.08787
661 1 1 2.35 7.63049 0.713872 1.24595
662 1 1 2.35 6.18024 5.94016 4.28038
663 1 1 2.35 5.80494 6.93213 9.88278
664 1 1 2.35 2.51427 3.06077 6.26446
665 1 1 2.35 1.16285 6.32082 1.81058
666 1 1 2.35 7.98148 2.90133 9.25606
667 1 1 2.35 8.52193 9.17037 5.4833
668 1 1 2.35 0.984266 5.45039 6.61044
669 1 1 2.35 0.201613 1.63366 0.99366
670 1 1 2.35 1.09202 4.74214 2.70506
671 1 1 2.35 9.97931 6.57907 0.220866
672 1 1 2.35 2.66004 7.66665 5.30704
673 1 1 2.35 2.85136 0.484569 2.94131
674 1 1 2.35 0.955608 5.88256 2.39443
675 1 1 2.35 3.94699 4.50002 1.1537
676 1 1 2.35 4.27895 2.71715 0.959713
677 1 1 2.35 5.16213 4.439 9.57739
678 1 1 2.35 5.5099 5.43183 5.69736
679 1 1 2.35 10.4354 10.0742 1.96228
680 1 1 2.35 6.84391 7.87888 2.21274
681 1 1 2.35 6.68267 7.74808 1.36131
682 1 1 2.35 6.33315 10.2088 9.38534
683 1 1 2.35 3.63769 1.69052 1.18115
684 1 1 2.35 6.84624 1.23164 5.85326
685 1 1 2.35 5.18177 1.44872 5.53603
686 1 1 2.35 9.60391 3.97635 0.958515
687 1 1 2.35 8.33335 7.03529 9.10169
688 1 1 2.35 9.77363 2.23134 8.30759
689 1 1 2.35 6.11017 9.22148 4.54771
690 1 1 2.35 8.45911 7.09902 7.57713
691 1 1 2.35 9.81234 4.23299 3.96332
692 1 1 2.35 8.35157 2.62603 6.3697
693 1 1 2.35 4.40653 2.38142 1.56351
694 1 1 2.35 7.73025 10.347 6.07011
695 1 1 2.35 5.06492 9.53847 9.68945
696 1 1 2.35 8.46706 2.9913 8.17182
697 1 1 2.35 2.57559 10.7038 8.3152
698 1 1 2.35 3.9603 9.00702 4.55206
699 1 1 2.35 0.555099 5.82414 7.56214
700 1 1 2.35 1.00918 5.74744 4.3036
701 1 1 2.35 7.02809 2.67884 5.36878
702 1 1 2.35 0.7487 8.99849 4.52921
703 1 1 2.35 5.55774 7.34146 2.48176
704 1 1 2.35 2.54558 6.35836 4.25042
705 1 1 2.35 5.06944 7.00635 9.51674
706 1 1 2.35 0.117975 0.507524 1.11241
707 1 1 2.35 10.0581 3.0035 8.33704
708 1 1 2.35 1.03109 9.72885 9.68545
709 1 1 2.35 3.3539 0.589305 4.26104
710 1 1 2.35 2.53562 4.39928 7.52781
711 1 1 2.35 9.42545 2.67645 5.64054
712 1 1 2.35 2.04007 9.49651 5.47755
713 1 1 2.35 10.6616 8.61923 2.82929
714 1 1 2.35 8.87418 6.12992 9.43597
715 1 1 2.35 4.65921 7.52637 5.79358
716 1 1 2.35 8.97357 7.51231 7.38985
717 1 1 2.35 0.1491 2.01633 10.2212
718 1 1 2.35 5.23558 8.98758 0.447365
719 1 1 2.35 5.46935 3.429 10.2964
720 1 1 2.35 3.15123 7.37448 10.6429
721 1 1 2.35 7.07533 4.45786 5.39947
722 1 1 2.35 2.35368 2.37565 4.5404
723 1 1 2.35 1.47941 8.36925 0.196955
724 1 1 2.35 6.76112 6.79071 8.65918
725 1 1 2.35 4.70921 1.05419 4.09401
726 1 1 2.35 3.70647 2.87152 8.09977
727 1 1 2.35 5.85343 5.33072 7.7787
728 1 1 2.35 5.00099 2.91528 5.83721
729 1 1 2.35 4.51287 3.14077 0.028137
730 1 1 2.35 6.4792 5.40093 9.92172
731 1 1 2.35 7.09325 6.29425 2.78213
732 1 1 2.35 7.2166 6.11689 5.97839
733 1 1 2.35 9.9775 4.15682 3.89323
734 1 1 2.35 6.69606 4.08525 4.40779
735 1 1 2.35 9.61979 7.76183 0.541018
736 1 1 2.35 5.23639 4.44667 7.43809
737 1 1 2.35 1.38134 7.08273 3.19362
738 1 1 2.35 1.5334 10.299 9.07883
739 1 1 2.35 2.31566 4.61255 9.37162
740 1 1 2.35 9.49778 7.84284 4.29227
741 1 1 2.35 9.2107 10.467 7.92108
742 1 1 2.35 4.92102 2.47979 8.32086
743 1 1 2.35 8.64685 1.1632 0.93811
744 1 1 2.35 6.44725 2.93617 7.46565
745 1 1 2.35 7.7654 4.34976 1.79177
746 1 1 2.35 4.69378 5.2639 6.93024
747 1 1 2.35 5.08586 0.867923 8.53002
748 1 1 2.35 6.83493 9.90587 6.91717
749 1 1 2.35 2.05414 1.27438 9.38111
750 1 1 2.35 9.66939 5.59413 2.32505
751 1 1 2.35 10.2498 5.85739 5.63206
752 1 1 2.35 6.77814 3.7194 2.34735
753 1 1 2.35 9.61249 9.05462 7.09327
754 1 1 2.35 1.03696 10.1891 5.35924
755 1 1 2.35 3.32598 7.21429 1.37121
756 1 1 2.35 1.03747 3.25405 7.74007
757 1 1 2.35 2.82639 6.58007 3.86668
758 1 1 2.35 2.58868 8.80111 6.88022
759 1 1 2.35 8.0912 5.60065 2.71791
760 1 1 2.35 9.3653 9.66144 8.91938
761 1 1 2.35 2.46198 3.78156 8.27106
762 1 1 2.35 6.57 5.85274 4.25757
763 1 1 2.35 3.89338 1.66361 2.11451
764 1 1 2.35 9.90097 3.22265 3.83954
765 1 1 2.35 4.79621 1.27245 2.10626
766 1 1 2.35 0.911214 9.66985 6.22148
767 1 1 2.35 3.28056 3.85431 0.371091
768 1 1 2.35 6.97877 5.98903 8.36843
769 1 1 2.35 0.321821 5.06725 7.59989
770 1 1 2.35 0.774669 5.92553 2.94626
771 1 1 2.35 10.1566 3.98182 8.55292
772 1 1 2.35 3.89116 8.24444 8.59572
773 1 1 2.35 7.78658 8.82541 6.66906
774 1 1 2.35 3.98055 2.43417 0.799192
775 1 1 2.35 8.81018 1.34285 4.1276
776 1 1 2.35 1.08324 0.980294 4.27429
777 1 1 2.35 0.157998 0.581731 7.58094
778 1 1 2.35 8.99137 7.19543 0.528878
779 1 1 2.35 4.56547 8.02316 6.096
780 1 1 2.35 8.39897 10.6036 8.07047
781 1 1 2.35 1.33275 3.83189 3.47194
782 1 1 2.35 4.23045 9.37356 10.1674
783 1 1 2.35 2.52977 4.61822 4.73684
784 1 1 2.35 3.35906 6.86871 10.3654
785 1 1 2.35 0.708078 8.42894 5.56477
786 1 1 2.35 4.5878 9.06771 5.76913
787 1 1 2.35 10.5169 6.35076 0.336942
788 1 1 2.35 6.31869 1.818 5.68798
789 1 1 2.35 8.0137 6.7045 1.79228
790 1 1 2.35 3.67629 5.50888 1.80694
791 1 1 2.35 10.3724 8.88832 2.82915
792 1 1 2.35 6.87632 8.37922 1.28117
793 1 1 2.35 3.4416 6.87796 1.82887
794 1 1 2.35 2.71909 7.25493 6.11856
795 1 1 2.35 2.68873 3.28825 0.584859
796 1 1 2.35 9.6075 4.53762 6.51768
797 1 1 2.35 0.924647 0.756904 6.27399
798 1 1 2.35 5.42696 3.66631 1.01799
799 1 1 2.35 9.07601 5.90269 5.50813
800 1 1 2.35 0.982499 10.7713 7.17795
801 1 1 2.35 0.485616 2.7187 5.36896
802 1 1 2.35 0.175028 7.85964 6.68809
803 1 1 2.35 0.281389 5.15258 9.22101
804 1 1 2.35 0.473432 8.67039 10.6535
805 1 1 2.35 1.72317 6.53935 5.78598
806 1 1 2.35 7.10626 2.0982 5.21128
807 1 1 2.35 3.72183 9.73226 1.8879
808 1 1 2.35 2.15832 10.6914 0.939035
809 1 1 2.35 5.4908 7.21399 10.6044
810 1 1 2.35 3.98156 1.65977 7.17545
811 1 1 2.35 1.40828 2.60299 2.32377