LAMMPS Description

1000 atoms

2 atom types
0 8.378836 xlo xhi
0 8.378836 ylo yhi
0 8.378836 zlo zhi


Atoms # sphere

1 2 0.5 2.35 2.98403 0.481485 4.48425
2 2 0.5 2.35 4.3772 4.4824 5.00381
3 2 0.5 2.35 6.93148 4.91398 4.11612
4 1 1 2.35 7.92349 8.34179 6.97449
5 2 0.5 2.35 1.74481 5.64598 5.70057
6 2 0.5 2.35 0.29607 1.88877 2.85186
7 2 0.5 2.35 4.70689 3.29745 6.55783
8 2 0.5 2.35 4.36755 8.36703 3.02315
9 2 0.5 2.35 0.388221 6.64566 3.25904
10 2 0.5 2.35 3.91253 1.83677 3.96876
11 2 0.5 2.35 6.59964 0.487315 8.05198
12 2 0.5 2.35 5.56208 4.19358 2.64976
13 2 0.5 2.35 8.05058 2.47098 7.013
14 2 0.5 2.35 3.85326 2.33175 6.96122
15 2 0.5 2.35 0.068832 2.74326 5.63679
16 2 0.5 2.35 0.376739 8.17107 8.03602
17 2 0.5 2.35 0.564741 5.6815 7.0961
18 2 0.5 2.35 6.16139 7.53858 7.79869
19 2 0.5 2.35 4.82058 0.402352 8.02411
20 2 0.5 2.35 6.69179 0.948742 1.58257
21 2 0.5 2.35 5.10078 4.85859 2.27894
22 2 0.5 2.35 4.88602 3.83787 2.15625
23 2 0.5 2.35 2.19967 3.1695 1.36459
24 2 0.5 2.35 2.82687 3.28046 4.50389
25 2 0.5 2.35 0.857713 3.03302 1.10158
26 2 0.5 2.35 8.28189 6.94288 6.6066
27 2 0.5 2.35 5.14381 1.4198 6.86111
28 2 0.5 2.35 5.40143 0.936268 1.22049
29 2 0.5 2.35 4.66391 8.00756 4.44437
30 2 0.5 2.35 6.94404 7.3917 2.72538
31 2 0.5 2.35 2.6064 8.26844 7.0204
32 2 0.5 2.35 8.33169 1.78242 7.044
33 2 0.5 2.35 7.91528 0.508889 5.58733
34 2 0.5 2.35 2.40345 4.27954 0.21248
35 2 0.5 2.35 7.95186 7.4829 3.98456
36 1 1 2.35 7.76562 0.808172 6.27662
37 2 0.5 2.35 3.24795 1.25222 1.75489
38 2 0.5 2.35 0.854623 3.10093 3.32304
39 2 0.5 2.35 6.84533 2.32212 4.00812
40 2 0.5 2.35 4.15286 0.248603 2.79878
41 2 0.5 2.35 5.92947 2.84859 3.80449
42 2 0.5 2.35 5.61704 5.89146 5.43091
43 2 0.5 2.35 1.99461 1.96867 2.7455
44 2 0.5 2.35 3.33267 1.1688 7.05128
45 2 0.5 2.35 7.02283 4.03335 5.22809
46 1 1 2.35 3.35487 5.67095 0.493894
47 2 0.5 2.35 4.31415 0.603857 6.17755
48 2 0.5 2.35 7.181 6.35219 7.02876
49 2 0.5 2.35 7.56094 7.50509 5.0559
50 2 0.5 2.35 6.66764 1.14129 1.96287
51 2 0.5 2.35 1.66572 3.15944 4.09877
52 2 0.5 2.35 0.486412 1.55192 1.8736
53 2 0.5 2.35 5.40973 5.36702 7.06146
54 2 0.5 2.35 7.1349 4.32012 4.84395
55 2 0.5 2.35 1.42165 0.75227 7.11561
56 2 0.5 2.35 1.95772 7.7465 0.527957
57 2 0.5 2.35 4.12236 0.422921 1.7028
58 2 0.5 2.35 1.33694 1.73112 4.22114
59 2 0.5 2.35 6.29451 0.803704 5.31426
60 2 0.5 2.35 0.996628 6.25222 6.23319
61 2 0.5 2.35 5.96969 0.52392 7.12079
62 1 1 2.35 5.27544 1.81705 0.166668
63 2 0.5 2.35 0.207567 5.79535 1.16111
64 2 0.5 2.35 0.545146 5.28253 0.62928
65 2 0.5 2.35 3.75301 7.92902 2.41441
66 2 0.5 2.35 1.66598 3.86703 6.08343
67 2 0.5 2.35 6.98234 4.82409 6.63164
68 2 0.5 2.35 7.84728 8.02503 7.16529
69 2 0.5 2.35 0.169297 4.83929 7.53447
70 2 0.5 2.35 2.4316 4.46921 7.82365
71 2 0.5 2.35 7.01685 1.06604 1.21917
72 2 0.5 2.35 6.53867 7.19565 3.9038
73 2 0.5 2.35 1.36678 6.17919 7.16599
74 2 0.5 2.35 7.63974 3.96924 6.22454
75 2 0.5 2.35 6.95926 0.83306 2.8805
76 2 0.5 2.35 6.76141 7.41662 5.41485
77 2 0.5 2.35 6.2218 1.7815 6.32006
78 2 0.5 2.35 5.68295 4.19946 2.48341
79 2 0.5 2.35 7.62421 6.18905 6.51632
80 2 0.5 2.35 6.79531 2.77879 5.51728
81 2 0.5 2.35 6.90507 2.92811 1.97682
82 2 0.5 2.35 7.78672 3.32082 5.16782
83 2 0.5 2.35 4.00834 5.24479 4.97867
84 2 0.5 2.35 1.8917 8.20282 6.56427
85 2 0.5 2.35 0.79398 1.0187 6.30767
86 2 0.5 2.35 3.90883 0.613089 7.30525
87 2 0.5 2.35 3.07807 1.45475 0.252448
88 2 0.5 2.35 3.19893 6.60799 1.36444
89 2 0.5 2.35 5.66855 0.527495 1.74952
90 2 0.5 2.35 5.61757 6.43933 5.93285
91 2 0.5 2.35 3.24949 4.6919 5.89939
92 2 0.5 2.35 5.42621 4.1481 6.62244
93 2 0.5 2.35 5.30449 6.13295 5.78753
94 2 0.5 2.35 7.21027 0.115501 5.08208
95 1 1 2.35 8.21382 4.47198 7.41116
96 1 1 2.35 5.71647 3.05266 3.95417
97 2 0.5 2.35 5.8986 4.98308 0.701889
98 2 0.5 2.35 0.262651 2.49183 3.59938
99 2 0.5 2.35 2.57715 6.0832 6.05263
100 2 0.5 2.35 7.59464 7.75874 1.4743
101 2 0.5 2.35 0.881742 8.37365 0.78793
102 2 0.5 2.35 7.64871 5.03786 4.86589
103 2 0.5 2.35 6.91618 2.80731 1.77975
104 2 0.5 2.35 0.22325 4.82218 6.92279
105 1 1 2.35 5.23194 3.99696 5.17657
106 2 0.5 2.35 3.85959 8.18757 5.65241
107 2 0.5 2.35 4.55867 3.33878 7.12141
108 2 0.5 2.35 4.6623 0.942911 8.01367
109 2 0.5 2.35 0.233678 7.86988 5.93114
110 2 0.5 2.35 1.85457 7.77071 8.04178
111 2 0.5 2.35 2.51812 2.61594 6.67219
112 2 0.5 2.35 4.89862 0.872599 0.403947
113 1 1 2.35 3.75769 1.38275 1.16459
114 2 0.5 2.35 1.5032 3.53007 5.96121
115 2 0.5 2.35 4.16878 6.02969 6.33262
116 2 0.5 2.35 2.87054 5.6121 7.72564
117 1 1 2.35 3.7895 2.17928 3.93187
118 2 0.5 2.35 5.50618 8.3168 2.18624
119 2 0.5 2.35 0.225671 7.47145 1.55132
120 2 0.5 2.35 0.0198464 2.80597 2.53644
121 2 0.5 2.35 2.39575 4.42453 3.07699
122 2 0.5 2.35 7.6635 0.24798 7.7751
123 2 0.5 2.35 4.68993 0.311486 6.06083
124 2 0.5 2.35 8.26968 8.29063 2.43149
125 2 0.5 2.35 3.12576 2.14426 4.07856
126 2 0.5 2.35 4.50216 1.79835 5.38144
127 2 0.5 2.35 5.6265 4.98343 2.38294
128 2 0.5 2.35 6.47006 4.51043 5.87456
129 2 0.5 2.35 1.27384 6.67759 4.26865
130 2 0.5 2.35 4.73088 6.6526 1.93572
131 2 0.5 2.35 7.17001 0.943025 7.26236
132 2 0.5 2.35 5.95958 4.39143 6.82209
133 2 0.5 2.35 2.63958 2.44868 4.48168
134 2 0.5 2.35 4.81965 3.60793 8.12372
135 2 0.5 2.35 6.25408 4.22927 4.20573
136 1 1 2.35 2.73822 3.21423 3.62948
137 2 0.5 2.35 0.259293 3.98495 1.87098
138 1 1 2.35 6.66483 0.442811 3.22505
139 2 0.5 2.35 2.3715 7.51882 5.83728
140 2 0.5 2.35 5.04687 7.8539 6.86095
141 2 0.5 2.35 0.925997 5.9 5.62808
142 2 0.5 2.35 8.36428 5.80622 2.50482
143 2 0.5 2.35 1.41252 0.657628 0.57923
144 1 1 2.35 3.96399 0.744343 2.49658
145 2 0.5 2.35 7.97383 1.83653 5.04635
146 2 0.5 2.35 6.43153 7.5832 7.90607
147 2 0.5 2.35 5.86491 6.18306 4.92703
148 2 0.5 2.35 0.523273 2.80918 3.07096
149 1 1 2.35 4.19166 7.74002 3.09854
150 2 0.5 2.35 4.61931 2.69804 3.56316
151 2 0.5 2.35 4.45884 5.48428 7.57829
152 2 0.5 2.35 2.88835 4.204 5.21289
153 1 1 2.35 6.66221 6.36649 2.36028
154 1 1 2.35 6.94815 1.94977 4.76513
155 2 0.5 2.35 2.91289 7.34478 8.05603
156 2 0.5 2.35 0.155108 3.99041 0.552376
157 2 0.5 2.35 7.29727 6.10303 1.46065
158 2 0.5 2.35 2.46766 3.41815 0.207878
159 2 0.5 2.35 6.65558 0.409449 4.32015
160 2 0.5 2.35 6.39226 3.05262 2.83224
161 2 0.5 2.35 0.3952 5.39243 1.97921
162 2 0.5 2.35 5.79777 3.85063 7.33832
163 1 1 2.35 2.89314 3.61754 3.45234
164 1 1 2.35 1.35302 3.56431 1.46092
165 2 0.5 2.35 5.35984 8.34259 6.5281
166 2 0.5 2.35 8.0581 3.39983 7.58907
167 2 0.5 2.35 7.29714 3.88791 8.25002
168 2 0.5 2.35 4.47991 5.78457 6.16791
169 2 0.5 2.35 3.45085 4.7878 5.86256
170 2 0.5 2.35 0.5052 2.87599 4.92906
171 2 0.5 2.35 7.98161 5.99607 1.0573
172 2 0.5 2.35 0.976713 1.32768 5.82657
173 2 0.5 2.35 4.85615 5.25424 5.60687
174 2 0.5 2.35 3.98837 2.82098 0.160385
175 1 1 2.35 8.11833 2.02792 6.9841
176 2 0.5 2.35 3.07728 7.18044 5.58224
177 2 0.5 2.35 6.67363 3.71598 4.22908
178 2 0.5 2.35 3.85187 6.28088 2.65947
179 2 0.5 2.35 3.6255 1.69084 4.64234
180 2 0.5 2.35 5.82678 5.5261 5.63103
181 2 0.5 2.35 5.92373 2.84912 6.94452
182 2 0.5 2.35 3.22109 5.00083 2.34261
183 2 0.5 2.35 7.29804 8.19204 1.99295
184 2 0.5 2.35 6.29408 6.00361 0.963074
185 2 0.5 2.35 6.50832 6.69913 7.08726
186 2 0.5 2.35 7.17863 6.98365 5.07852
187 2 0.5 2.35 2.09042 5.64608 4.19032
188 2 0.5 2.35 1.16786 5.86987 2.12618
189 2 0.5 2.35 4.8597 6.08664 4.68952
190 2 0.5 2.35 5.04974 3.48517 1.35638
191 1 1 2.35 6.41502 1.95549 0.80272
192 2 0.5 2.35 0.497133 4.68245 6.37105
193 2 0.5 2.35 5.19297 4.93139 1.46744
194 2 0.5 2.35 3.96581 5.86135 0.90933
195 2 0.5 2.35 6.82179 5.53547 2.43015
196 2 0.5 2.35 2.19211 6.74662 1.92967
197 2 0.5 2.35 0.603661 7.66055 2.10449
198 2 0.5 2.35 6.93077 5.04957 7.63403
199 2 0.5 2.35 1.06392 1.26142 3.15549
200 1 1 2.35 4.72313 4.99441 1.91221
201 2 0.5 2.35 6.37561 2.08698 2.60651
202 2 0.5 2.35 0.596292 3.83718 5.7045
203 2 0.5 2.35 4.16794 1.85767 4.00569
204 1 1 2.35 4.99941 8.03865 7.02779
205 1 1 2.35 2.33196 0.567693 4.23442
206 2 0.5 2.35 8.30806 4.92256 5.26175
207 2 0.5 2.35 6.84386 3.3979 4.68857
208 2 0.5 2.35 6.52892 5.82131 4.98646
209 1 1 2.35 5.611 7.37474 0.0261937
210 2 0.5 2.35 1.95384 7.5619 1.96318
211 2 0.5 2.35 0.419785 4.57557 5.38878
212 1 1 2.35 1.66926 7.26492 0.158656
213 2 0.5 2.35 8.18304 4.44971 2.437
214 2 0.5 2.35 1.74255 7.3912 1.40087
215 2 0.5 2.35 2.45601 4.51165 3.95235
216 2 0.5 2.35 5.87797 2.63263 3.3223
217 2 0.5 2.35 5.04249 4.6211 2.81429
218 2 0.5 2.35 0.975584 2.74269 3.78172
219 2 0.5 2.35 3.67955 1.61687 2.58251
220 2 0.5 2.35 4.25735 3.64607 1.26995
221 2 0.5 2.35 3.97539 0.970717 6.94253
222 2 0.5 2.35 7.73087 0.678898 5.53911
223 2 0.5 2.35 7.93869 3.18781 2.4976
224 2 0.5 2.35 6.62419 4.77512 6.56206
225 2 0.5 2.35 7.13919 1.40028 6.26366
226 2 0.5 2.35 5.50527 2.21734 7.86888
227 2 0.5 2.35 6.69787 2.75296 7.54776
228 2 0.5 2.35 5.01511 2.7081 5.0694
229 2 0.5 2.35 5.38172 5.58226 2.77746
230 1 1 2.35 1.05972 6.79012 6.67606
231 1 1 2.35 5.18751 5.34841 2.07976
232 2 0.5 2.35 0.901668 2.5629 3.30311
233 2 0.5 2.35 3.95324 4.89643 3.16283
234 2 0.5 2.35 7.54192 0.454321 8.05282
235 2 0.5 2.35 2.96327 1.50354 5.07658
236 2 0.5 2.35 0.216385 1.37707 7.6195
237 2 0.5 2.35 0.0384036 3.48301 7.38537
238 2 0.5 2.35 3.97846 8.11282 1.14177
239 2 0.5 2.35 0.523029 1.86252 3.84313
240 2 0.5 2.35 6.91863 7.079 0.292347
241 2 0.5 2.35 4.45265 7.2665 0.341163
242 1 1 2.35 2.36831 6.82476 2.7035
243 2 0.5 2.35 2.32943 5.09757 3.02186
244 2 0.5 2.35 7.93098 3.06461 8.22752
245 2 0.5 2.35 1.89795 0.742041 6.13443
246 2 0.5 2.35 7.18907 0.433998 3.35428
247 2 0.5 2.35 3.19984 2.75436 3.46179
248 2 0.5 2.35 4.54336 3.13246 0.892371
249 2 0.5 2.35 7.682 4.94201 7.30398
250 2 0.5 2.35 0.201359 3.33771 3.74944
251 1 1 2.35 5.84488 2.91945 4.91998
252 2 0.5 2.35 3.41949 3.4609 3.46784
253 1 1 2.35 7.4377 4.72203 6.30849
254 2 0.5 2.35 7.26234 6.07533 7.37164
255 1 1 2.35 5.4412 0.706819 5.98577
256 2 0.5 2.35 5.50016 6.19103 1.42841
257 2 0.5 2.35 0.766014 7.18884 2.05998
258 2 0.5 2.35 1.49964 0.643841 1.63712
259 2 0.5 2.35 4.83616 2.95674 1.28823
260 2 0.5 2.35 8.18908 7.12813 1.00737
261 2 0.5 2.35 3.81167 8.15433 0.879619
262 2 0.5 2.35 3.13534 3.09538 3.84332
263 1 1 2.35 2.84963 7.61188 7.5238
264 2 0.5 2.35 2.06827 4.46771 3.00546
265 1 1 2.35 0.913949 3.16045 7.09879
266 1 1 2.35 1.28213 7.116 6.51263
267 2 0.5 2.35 3.97192 4.279 8.03717
268 2 0.5 2.35 6.36319 7.43742 7.23347
269 2 0.5 2.35 1.91667 4.27111 7.81357
270 2 0.5 2.35 4.67815 3.70811 2.51891
271 2 0.5 2.35 6.90648 0.546013 5.17025
272 2 0.5 2.35 8.23821 0.249792 2.12233
273 2 0.5 2.35 0.447201 2.2909 6.32637
274 2 0.5 2.35 0.221652 6.11688 7.0204
275 2 0.5 2.35 5.18802 4.65858 1.01472
276 2 0.5 2.35 3.52962 3.47873 8.36406
277 2 0.5 2.35 6.82048 0.668699 0.427899
278 2 0.5 2.35 4.28426 6.90439 2.0481
279 1 1 2.35 3.83728 0.640329 6.30208
280 2 0.5 2.35 8.01222 0.351546 4.29982
281 2 0.5 2.35 1.50307 5.04062 7.78048
282 2 0.5 2.35 6.33632 0.0281989 6.66039
283 2 0.5 2.35 0.827257 7.59378 5.92524
284 2 0.5 2.35 0.272178 5.49112 8.22529
285 1 1 2.35 1.85524 5.6467 0.602055
286 2 0.5 2.35 5.22772 7.23372 3.85044
287 1 1 2.35 1.73417 8.27159 2.71684
288 2 0.5 2.35 2.96978 1.20429 4.93191
289 2 0.5 2.35 2.59764 7.83953 4.71365
290 2 0.5 2.35 1.67116 3.17376 0.964337
291 2 0.5 2.35 0.33507 7.20683 7.25376
292 2 0.5 2.35 7.97387 2.10152 4.73291
293 2 0.5 2.35 6.93175 5.31846 4.59975
294 2 0.5 2.35 6.91048 4.52512 4.11605
295 2 0.5 2.35 0.603755 3.28397 0.509634
296 1 1 2.35 0.165884 4.73514 5.19939
297 2 0.5 2.35 3.61932 2.72469 7.25018
298 2 0.5 2.35 5.84823 5.41937 7.79523
299 2 0.5 2.35 4.52998 4.11099 7.19838
300 2 0.5 2.35 6.3431 4.04862 0.863458
301 2 0.5 2.35 1.53439 8.03558 0.339971
302 2 0.5 2.35 0.191707 2.63224 1.47127
303 2 0.5 2.35 4.47958 8.20537 1.10513
304 2 0.5 2.35 0.871904 1.77307 4.57462
305 2 0.5 2.35 1.84826 5.76149 6.94302
306 2 0.5 2.35 1.39567 2.58825 3.98195
307 1 1 2.35 1.56494 4.53626 6.66811
308 2 0.5 2.35 2.74609 4.76498 2.1144
309 2 0.5 2.35 4.35575 1.40153 5.19368
310 2 0.5 2.35 1.41232 4.94889 3.95311
311 2 0.5 2.35 7.46674 1.11953 3.55975
312 1 1 2.35 0.408146 1.35582 2.63211
313 2 0.5 2.35 0.650285 4.29018 5.09631
314 2 0.5 2.35 5.83341 3.92796 4.29244
315 2 0.5 2.35 0.877556 4.36454 7.26701
316 2 0.5 2.35 1.54561 3.90432 7.28576
317 2 0.5 2.35 7.81291 1.41378 5.06249
318 2 0.5 2.35 1.40354 2.46425 3.57769
319 2 0.5 2.35 5.54139 6.94487 0.816838
320 2 0.5 2.35 3.26093 6.50671 4.74212
321 2 0.5 2.35 4.34408 7.76136 2.02174
322 2 0.5 2.35 7.60148 7.34066 5.69975
323 2 0.5 2.35 1.38665 6.61215 5.18484
324 1 1 2.35 5.34719 6.90644 8.16816
325 2 0.5 2.35 0.0870408 2.02743 1.00811
326 1 1 2.35 3.6074 4.72365 4.63096
327 2 0.5 2.35 7.36138 7.955 3.79375
328 2 0.5 2.35 2.03213 5.99734 2.06686
329 2 0.5 2.35 0.520704 6.18894 2.96474
330 2 0.5 2.35 0.0659449 6.86722 7.72975
331 1 1 2.35 0.984057 5.34628 3.1348
332 2 0.5 2.35 6.67643 7.16275 2.11377
333 2 0.5 2.35 2.57846 0.862006 2.81401
334 2 0.5 2.35 5.4573 2.16286 1.85988
335 2 0.5 2.35 4.16409 3.80361 8.13365
336 2 0.5 2.35 3.33456 4.49519 7.3362
337 1 1 2.35 4.3915 7.85489 3.64593
338 2 0.5 2.35 6.15166 6.20388 7.65303
339 2 0.5 2.35 1.95289 0.438439 3.38723
340 2 0.5 2.35 3.85625 0.234924 6.18769
341 2 0.5 2.35 6.61568 0.873207 2.54636
342 2 0.5 2.35 1.13249 4.56969 7.72785
343 2 0.5 2.35 3.4901 1.13568 8.19101
344 2 0.5 2.35 1.00858 6.11306 1.39619
345 2 0.5 2.35 0.402056 1.54537 3.25918
346 2 0.5 2.35 8.19223 1.99225 7.97335
347 2 0.5 2.35 4.32541 5.29773 8.23105
348 2 0.5 2.35 7.15513 0.220176 2.73733
349 2 0.5 2.35 0.818043 1.56842 7.56264
350 2 0.5 2.35 6.68327 2.86711 3.24378
351 2 0.5 2.35 2.16356 6.74421 7.76
352 1 1 2.35 6.85737 4.33145 7.80483
353 2 0.5 2.35 3.40142 7.75683 8.16499
354 2 0.5 2.35 0.684289 0.732994 5.64982
355 2 0.5 2.35 8.06114 7.01457 6.65324
356 2 0.5 2.35 0.969198 0.974667 6.41139
357 2 0.5 2.35 2.1031 2.94155 6.20491
358 2 0.5 2.35 6.27732 3.52997 5.36582
359 2 0.5 2.35 5.59253 1.60778 5.53937
360 2 0.5 2.35 2.90727 2.47097 0.693282
361 2 0.5 2.35 1.19458 0.0655304 0.465921
362 2 0.5 2.35 6.12339 3.5107 7.73426
363 2 0.5 2.35 7.12118 3.74636 2.39328
364 2 0.5 2.35 5.79343 3.52598 0.948942
365 2 0.5 2.35 5.18267 6.54112 1.61224
366 2 0.5 2.35 4.61242 6.20543 1.53637
367 2 0.5 2.35 2.19222 4.05035 5.97653
368 2 0.5 2.35 7.63917 4.00195 0.0903424
369 2 0.5 2.35 1.60262 7.12841 0.568011
370 2 0.5 2.35 6.07724 0.629378 8.04828
371 2 0.5 2.35 1.15984 0.382537 4.07391
372 2 0.5 2.35 2.3937 2.94367 8.05613
373 2 0.5 2.35 7.32513 1.68606 5.44072
374 2 0.5 2.35 3.19615 4.84108 4.38254
375 2 0.5 2.35 5.42164 1.27831 7.71848
376 2 0.5 2.35 1.70525 4.35926 1.20776
377 1 1 2.35 5.45148 2.1345 2.74263
378 2 0.5 2.35 0.186985 3.28066 7.24576
379 2 0.5 2.35 5.36968 1.42101 7.97615
380 2 0.5 2.35 3.01693 0.211179 3.98506
381 2 0.5 2.35 1.58758 4.3166 4.77744
382 2 0.5 2.35 2.96567 0.459299 4.56894
383 1 1 2.35 5.91592 5.31088 4.36713
384 2 0.5 2.35 2.90087 1.866 0.734527
385 1 1 2.35 6.95947 1.33914 7.80955
386 2 0.5 2.35 0.970836 0.218147 5.8903
387 2 0.5 2.35 6.74169 1.69872 1.89126
388 2 0.5 2.35 1.07977 4.90373 1.73357
389 1 1 2.35 4.57314 2.46775 7.66834
390 2 0.5 2.35 5.43212 1.48036 6.26381
391 2 0.5 2.35 5.32587 5.27304 3.10017
392 2 0.5 2.35 0.207912 2.26603 3.53429
393 2 0.5 2.35 3.90575 7.10127 1.05882
394 2 0.5 2.35 0.301111 0.176095 1.00588
395 2 0.5 2.35 2.93225 1.44846 0.54512
396 2 0.5 2.35 5.80162 6.29258 8.15927
397 2 0.5 2.35 5.53513 1.09294 7.7418
398 2 0.5 2.35 6.9443 2.6718 0.0346757
399 2 0.5 2.35 1.25632 4.11517 2.00092
400 2 0.5 2.35 7.45814 4.89731 0.798619
401 2 0.5 2.35 2.89747 0.513563 3.43268
402 2 0.5 2.35 0.775505 6.8575 7.19409
403 2 0.5 2.35 7.34528 5.03719 1.55756
404 2 0.5 2.35 0.310604 6.96818 8.21828
405 2 0.5 2.35 0.959672 0.194609 0.0987846
406 2 0.5 2.35 3.9085 7.75311 5.42552
407 1 1 2.35 2.59019 0.659259 8.05468
408 2 0.5 2.35 6.20711 4.08399 3.45701
409 2 0.5 2.35 2.53145 4.69153 0.462444
410 1 1 2.35 7.31532 1.60443 0.528328
411 2 0.5 2.35 4.40122 4.32475 4.60123
412 2 0.5 2.35 0.154119 7.42023 7.79753
413 2 0.5 2.35 0.862588 2.18617 0.908275
414 1 1 2.35 8.10628 3.16543 7.25644
415 2 0.5 2.35 6.39144 4.97081 2.9585
416 2 0.5 2.35 2.19494 1.59909 5.53154
417 1 1 2.35 2.92724 5.14448 3.46312
418 2 0.5 2.35 6.33727 7.52638 4.94638
419 2 0.5 2.35 3.47377 4.16749 6.34216
420 2 0.5 2.35 0.284361 3.4325 3.48281
421 2 0.5 2.35 2.5776 4.56229 5.96443
422 2 0.5 2.35 1.53715 5.38032 0.491004
423 2 0.5 2.35 0.288565 7.87548 6.58396
424 2 0.5 2.35 7.86259 4.41524 4.86047
425 1 1 2.35 3.39377 2.87543 0.450238
426 1 1 2.35 7.66707 6.37669 5.80144
427 2 0.5 2.35 1.47495 2.61623 4.38112
428 2 0.5 2.35 3.38315 4.74778 3.38497
429 2 0.5 2.35 3.86864 4.62218 5.60504
430 2 0.5 2.35 2.31016 8.00137 3.37135
431 2 0.5 2.35 1.17812 2.89688 6.64008
432 1 1 2.35 2.51131 7.04773 3.04762
433 2 0.5 2.35 2.78708 2.40797 7.76079
434 2 0.5 2.35 1.09106 3.82832 8.23561
435 2 0.5 2.35 5.9556 4.38676 3.75605
436 2 0.5 2.35 1.38885 4.8166 2.184
437 2 0.5 2.35 0.0825375 1.55035 0.403533
438 2 0.5 2.35 0.000972408 3.96587 4.06308
439 2 0.5 2.35 3.70463 2.68905 7.13418
440 2 0.5 2.35 5.31818 1.891 8.20095
441 2 0.5 2.35 7.9683 5.02329 6.12431
442 2 0.5 2.35 2.42227 5.17986 8.15417
443 1 1 2.35 0.308842 1.92578 5.73821
444 2 0.5 2.35 2.84733 3.4264 0.667364
445 2 0.5 2.35 5.35192 7.58463 1.53739
446 1 1 2.35 4.38199 5.77613 3.65101
447 2 0.5 2.35 0.489389 1.23322 6.75391
448 2 0.5 2.35 6.59408 6.66465 6.51787
449 2 0.5 2.35 1.64266 5.43775 5.49482
450 2 0.5 2.35 3.59665 4.2112 0.74907
451 2 0.5 2.35 3.6234 0.941941 3.97911
452 2 0.5 2.35 3.48789 0.256698 8.06162
453 2 0.5 2.35 5.3607 4.60727 1.30657
454 2 0.5 2.35 0.129619 3.40356 6.5141
455 2 0.5 2.35 6.84427 5.4827 7.13151
456 2 0.5 2.35 1.94239 2.60081 3.76384
457 1 1 2.35 1.37991 3.01218 6.43013
458 2 0.5 2.35 0.625425 7.4843 7.75331
459 2 0.5 2.35 5.53796 6.43963 0.410613
460 2 0.5 2.35 3.99964 7.79261 4.87859
461 2 0.5 2.35 3.15243 3.62122 0.942176
462 2 0.5 2.35 6.66134 5.71874 3.70387
463 2 0.5 2.35 4.14804 0.393551 3.88614
464 2 0.5 2.35 8.29903 6.98847 0.246213
465 2 0.5 2.35 7.36196 1.48793 5.89179
466 2 0.5 2.35 3.64543 1.90443 2.87125
467 2 0.5 2.35 4.90616 4.66088 1.02428
468 1 1 2.35 6.97194 5.87402 3.68398
469 2 0.5 2.35 7.96969 0.0585237 0.292686
470 2 0.5 2.35 0.265808 1.63664 1.28924
471 2 0.5 2.35 1.74592 0.211719 6.54163
472 2 0.5 2.35 1.57048 6.57805 1.64106
473 2 0.5 2.35 8.07976 4.76872 6.37022
474 2 0.5 2.35 5.3278 4.55265 5.33896
475 2 0.5 2.35 0.983696 1.05582 2.86058
476 2 0.5 2.35 6.75552 1.50232 7.9928
477 2 0.5 2.35 2.74558 5.33924 2.77065
478 2 0.5 2.35 6.19082 3.24228 8.16847
479 2 0.5 2.35 3.59668 6.42741 7.7575
480 2 0.5 2.35 4.20067 0.274895 2.00074
481 2 0.5 2.35 7.83426 1.17527 4.77674
482 2 0.5 2.35 7.93082 5.98019 5.80516
483 2 0.5 2.35 1.36466 5.8508 5.39176
484 2 0.5 2.35 3.23293 0.215729 7.49272
485 2 0.5 2.35 0.567807 7.54435 0.289127
486 2 0.5 2.35 3.52783 6.7136 5.07346
487 2 0.5 2.35 0.383075 7.3916 4.06741
488 2 0.5 2.35 4.16008 4.90944 6.06848
489 2 0.5 2.35 7.64634 0.351675 1.76228
490 2 0.5 2.35 7.8036 7.63219 2.23325
491 2 0.5 2.35 5.07448 3.51449 1.24395
492 2 0.5 2.35 1.29401 2.00389 4.1826
493 2 0.5 2.35 6.57829 3.74102 6.70018
494 2 0.5 2.35 5.0448 7.60087 2.79979
495 2 0.5 2.35 1.93388 6.03809 5.60911
496 2 0.5 2.35 2.41313 1.08238 4.80217
497 2 0.5 2.35 5.60444 4.23134 6.81402
498 2 0.5 2.35 3.11864 3.52061 2.90444
499 2 0.5 2.35 8.02047 4.91105 7.38054
500 2 0.5 2.35 3.60065 3.72846 5.48738
501 2 0.5 2.35 7.04091 4.5949 4.77296
502 2 0.5 2.35 1.8685 7.67524 7.32312
503 1 1 2.35 6.25676 5.72156 3.0377
504 2 0.5 2.35 7.97068 8.2867 2.61107
505 2 0.5 2.35 4.86658 0.546713 2.57738
506 2 0.5 2.35 7.06914 7.23471 5.42198
507 2 0.5 2.35 0.924098 0.506504 3.2859
508 2 0.5 2.35 1.08837 8.32974 4.8511
509 1 1 2.35 8.31471 6.05744 5.77131
510 2 0.5 2.35 5.60553 2.10603 4.38928
511 2 0.5 2.35 1.07148 0.136477 4.72785
512 2 0.5 2.35 0.227146 0.626839 2.59056
513 2 0.5 2.35 4.26686 1.50704 6.01887
514 2 0.5 2.35 2.60358 6.12319 4.20739
515 2 0.5 2.35 1.29065 7.024 5.93868
516 2 0.5 2.35 7.46217 1.26193 7.15426
517 2 0.5 2.35 7.48221 5.76681 5.11152
518 2 0.5 2.35 0.307046 3.97316 4.55822
519 2 0.5 2.35 5.55587 1.78055 1.78194
520 2 0.5 2.35 7.52454 1.55937 6.9761
521 2 0.5 2.35 7.65576 2.39158 0.421901
522 2 0.5 2.35 6.37742 1.77845 7.76369
523 2 0.5 2.35 5.42412 6.54914 5.984
524 2 0.5 2.35 3.19412 7.70088 7.31828
525 2 0.5 2.35 6.69991 4.15477 7.10331
526 2 0.5 2.35 7.32751 3.69207 6.19578
527 2 0.5 2.35 7.0318 0.920113 3.92347
528 2 0.5 2.35 0.405465 0.189644 7.70554
529 2 0.5 2.35 6.85043 2.84409 3.17914
530 2 0.5 2.35 2.73117 1.01757 5.6148
531 2 0.5 2.35 0.0493323 7.02137 4.43022
532 2 0.5 2.35 0.675093 8.26733 2.4494
533 2 0.5 2.35 7.07439 1.63816 0.0865891
534 2 0.5 2.35 0.399788 6.79014 1.39023
535 1 1 2.35 8.3562 3.17299 4.65695
536 2 0.5 2.35 7.36451 1.54966 6.36035
537 2 0.5 2.35 4.52182 1.46134 5.77965
538 2 0.5 2.35 7.9588 5.97074 5.264
539 2 0.5 2.35 2.69748 0.54796 6.50881
540 1 1 2.35 7.24255 6.28259 2.40766
541 2 0.5 2.35 0.527665 4.11454 0.119981
542 2 0.5 2.35 2.9585 2.22778 7.39476
543 2 0.5 2.35 3.52169 6.73305 7.61528
544 2 0.5 2.35 8.21292 5.77358 7.5146
545 2 0.5 2.35 1.61884 6.05226 4.32398
546 2 0.5 2.35 4.9601 5.83814 6.44599
547 2 0.5 2.35 5.3322 2.43985 0.177626
548 2 0.5 2.35 6.55176 0.46196 6.49386
549 2 0.5 2.35 1.15952 7.04842 7.16097
550 2 0.5 2.35 6.43513 7.49665 7.61762
551 2 0.5 2.35 4.05899 2.26718 2.22636
552 2 0.5 2.35 3.39926 5.26173 2.91981
553 1 1 2.35 6.59525 0.717111 3.33097
554 2 0.5 2.35 4.58709 7.2161 3.2004
555 1 1 2.35 4.98407 6.8644 3.67538
556 2 0.5 2.35 7.05363 1.93489 2.01804
557 1 1 2.35 6.85326 5.44758 5.08253
558 2 0.5 2.35 5.76696 1.70789 3.19327
559 1 1 2.35 0.929629 8.34518 5.56745
560 2 0.5 2.35 4.96629 4.08296 3.49226
561 2 0.5 2.35 2.11603 3.71832 4.03003
562 2 0.5 2.35 4.79024 8.20881 5.79575
563 2 0.5 2.35 2.04518 5.73019 1.33457
564 1 1 2.35 6.03916 7.61846 2.14154
565 2 0.5 2.35 7.06906 0.721158 7.19319
566 2 0.5 2.35 1.30066 1.68671 2.18482
567 2 0.5 2.35 4.08966 5.70743 6.19012
568 2 0.5 2.35 4.96646 1.82958 2.96646
569 2 0.5 2.35 3.41555 7.53057 7.63804
570 2 0.5 2.35 2.32427 7.01322 3.82541
571 2 0.5 2.35 1.23701 3.67606 5.60172
572 1 1 2.35 8.11505 2.81658 4.30272
573 2 0.5 2.35 4.52599 1.89501 2.42587
574 2 0.5 2.35 2.75265 5.65062 5.94146
575 2 0.5 2.35 2.1573 1.37297 0.511951
576 2 0.5 2.35 4.47093 4.65331 7.10911
577 2 0.5 2.35 4.27481 8.13185 6.34845
578 2 0.5 2.35 2.42845 8.24111 3.59494
579 2 0.5 2.35 7.07474 5.49607 6.63886
580 1 1 2.35 7.76783 0.0904436 5.54049
581 2 0.5 2.35 3.94264 5.49754 6.16738
582 2 0.5 2.35 6.10385 3.01309 4.8094
583 1 1 2.35 5.55893 3.07745 5.24045
584 2 0.5 2.35 5.12668 6.23981 5.98394
585 2 0.5 2.35 5.84576 3.35198 2.33738
586 1 1 2.35 0.863924 7.9891 2.28869
587 2 0.5 2.35 4.28367 7.2955 4.71924
588 2 0.5 2.35 5.94748 6.08074 3.68128
589 2 0.5 2.35 0.23143 2.50524 7.10139
590 2 0.5 2.35 3.83936 6.46942 2.42674
591 2 0.5 2.35 6.11841 1.99605 1.77414
592 1 1 2.35 7.25385 7.7426 1.96618
593 2 0.5 2.35 7.50775 7.45334 1.36594
594 1 1 2.35 2.13983 3.85821 7.53583
595 2 0.5 2.35 0.622931 3.63371 7.65068
596 2 0.5 2.35 3.05198 0.264502 0.407301
597 1 1 2.35 8.26435 8.29023 5.32289
598 2 0.5 2.35 2.17287 5.28886 1.93369
599 2 0.5 2.35 1.42581 7.79263 7.3118
600 2 0.5 2.35 7.85991 0.0536314 6.05525
601 2 0.5 2.35 0.215308 8.23243 5.08651
602 2 0.5 2.35 3.56716 7.60794 2.96359
603 2 0.5 2.35 5.2745 4.54097 0.150542
604 2 0.5 2.35 6.89272 4.49098 5.83035
605 2 0.5 2.35 8.1751 2.4855 4.30245
606 2 0.5 2.35 2.07368 7.04106 1.13681
607 2 0.5 2.35 6.6304 5.70807 1.20651
608 2 0.5 2.35 4.41551 7.19003 7.48437
609 2 0.5 2.35 6.69097 5.3728 5.69413
610 2 0.5 2.35 1.29305 0.639434 6.26837
611 2 0.5 2.35 3.09983 0.603733 7.61314
612 2 0.5 2.35 1.25556 0.198573 8.27662
613 2 0.5 2.35 5.90063 2.27464 0.107312
614 2 0.5 2.35 4.05365 1.9343 5.57222
615 2 0.5 2.35 4.89768 2.7646 4.10092
616 2 0.5 2.35 1.50614 5.74071 2.61914
617 2 0.5 2.35 1.4917 7.79823 1.17094
618 1 1 2.35 6.97164 8.32986 4.28676
619 2 0.5 2.35 8.04681 7.35516 4.50511
620 1 1 2.35 7.75685 6.81003 2.62732
621 2 0.5 2.35 5.2842 6.42355 4.56947
622 2 0.5 2.35 5.32079 6.40924 7.05092
623 2 0.5 2.35 5.20726 7.45092 2.11268
624 2 0.5 2.35 0.180098 3.11594 4.96961
625 2 0.5 2.35 1.3817 5.44563 6.98806
626 2 0.5 2.35 4.10276 7.88854 1.56557
627 2 0.5 2.35 4.56098 5.23365 2.26521
628 1 1 2.35 7.57743 3.54302 2.55983
629 2 0.5 2.35 7.87822 4.41383 0.20001
630 2 0.5 2.35 0.862785 8.14939 2.97729
631 2 0.5 2.35 2.01617 1.78611 8.15597
632 2 0.5 2.35 7.4872 0.0717582 1.73309
633 2 0.5 2.35 5.84179 7.57457 0.748266
634 2 0.5 2.35 2.58684 2.71723 1.61664
635 1 1 2.35 1.42754 6.1623 8.23113
636 2 0.5 2.35 3.44935 2.28293 1.48582
637 2 0.5 2.35 5.12966 7.99986 6.01052
638 2 0.5 2.35 3.73423 0.518 5.02533
639 2 0.5 2.35 4.76167 0.509803 0.563218
640 2 0.5 2.35 5.0643 8.08323 0.714734
641 2 0.5 2.35 1.47051 7.45949 5.12702
642 2 0.5 2.35 4.92209 1.53016 6.32632
643 2 0.5 2.35 6.41254 5.97578 6.94804
644 2 0.5 2.35 5.12719 0.785328 2.78413
645 2 0.5 2.35 3.72617 2.50329 8.08956
646 2 0.5 2.35 7.57495 6.4422 7.52595
647 2 0.5 2.35 1.36194 3.0006 3.11798
648 2 0.5 2.35 5.45746 1.30393 7.85457
649 2 0.5 2.35 0.348906 3.22807 2.00093
650 2 0.5 2.35 0.198218 3.08019 0.308816
651 2 0.5 2.35 4.23482 3.59439 2.62453
652 2 0.5 2.35 8.09451 7.61236 7.46185
653 2 0.5 2.35 1.24272 5.8801 8.26318
654 2 0.5 2.35 1.20715 2.952 8.12539
655 1 1 2.35 3.72848 3.11501 6.46111
656 2 0.5 2.35 0.25857 2.58951 7.06223
657 2 0.5 2.35 1.85784 5.63416 5.66471
658 2 0.5 2.35 6.89797 1.72839 3.61508
659 2 0.5 2.35 2.9625 1.92795 7.85212
660 1 1 2.35 6.55422 6.57212 5.02439
661 2 0.5 2.35 7.91614 1.89027 8.28636
662 2 0.5 2.35 3.34872 5.86288 4.27451
663 2 0.5 2.35 2.36848 3.83517 1.24371
664 2 0.5 2.35 7.34351 2.38393 5.3256
665 2 0.5 2.35 0.331463 4.88658 0.107949
666 2 0.5 2.35 6.05788 7.59761 6.50554
667 2 0.5 2.35 7.2398 3.24495 0.114623
668 2 0.5 2.35 7.2995 7.05305 0.935595
669 2 0.5 2.35 5.69399 5.22353 7.54687
670 2 0.5 2.35 3.66266 7.38177 5.14463
671 2 0.5 2.35 3.49152 5.35846 4.47139
672 2 0.5 2.35 2.31921 3.44025 1.95102
673 2 0.5 2.35 1.05627 1.40984 2.76601
674 2 0.5 2.35 4.4021 0.116788 3.41646
675 2 0.5 2.35 7.28587 2.57977 6.10614
676 2 0.5 2.35 7.2845 8.22 2.09547
677 2 0.5 2.35 5.7762 1.85579 1.49695
678 2 0.5 2.35 7.51096 7.25049 5.41421
679 2 0.5 2.35 0.662718 5.83424 0.460961
680 2 0.5 2.35 5.24745 6.2035 7.96782
681 2 0.5 2.35 0.444742 7.176 5.41041
682 2 0.5 2.35 2.61491 5.27405 1.78817
683 2 0.5 2.35 2.80698 7.22619 7.28037
684 2 0.5 2.35 0.403944 2.71163 0.974467
685 2 0.5 2.35 1.69835 2.29472 6.37796
686 2 0.5 2.35 4.04022 2.53248 7.27221
687 2 0.5 2.35 2.42532 3.38715 8.03687
688 2 0.5 2.35 5.43342 2.39735 6.08536
689 2 0.5 2.35 5.83599 3.88952 7.96065
690 2 0.5 2.35 5.11347 1.00678 2.99604
691 2 0.5 2.35 7.89308 1.49852 2.25572
692 2 0.5 2.35 4.69609 6.15692 2.44314
693 2 0.5 2.35 7.73269 1.5481 7.46258
694 2 0.5 2.35 8.14858 5.93301 6.62725
695 2 0.5 2.35 1.06165 2.84957 5.14753
696 1 1 2.35 5.96534 6.97449 3.36882
697 2 0.5 2.35 4.17337 3.90557 6.40082
698 2 0.5 2.35 1.66774 0.746781 5.16052
699 2 0.5 2.35 1.84379 7.80658 3.96857
700 2 0.5 2.35 4.54369 4.49119 0.83028
701 2 0.5 2.35 4.77703 1.71868 7.92042
702 2 0.5 2.35 1.97467 3.84038 6.93083
703 1 1 2.35 3.87413 5.65054 7.45158
704 2 0.5 2.35 6.19675 5.32318 1.13194
705 2 0.5 2.35 5.84736 3.45902 1.73961
706 2 0.5 2.35 5.66972 0.551478 7.69278
707 1 1 2.35 5.50124 3.90758 2.00225
708 2 0.5 2.35 4.51104 8.04402 7.68117
709 1 1 2.35 3.13042 6.76065 0.763995
710 2 0.5 2.35 1.25323 4.05473 6.45573
711 2 0.5 2.35 5.89776 7.12002 3.35321
712 2 0.5 2.35 0.297147 5.19437 7.01644
713 2 0.5 2.35 1.47656 3.25044 0.981162
714 2 0.5 2.35 6.02077 4.58784 2.10342
715 2 0.5 2.35 4.91281 7.15498 3.47018
716 2 0.5 2.35 6.66635 1.72152 8.03665
717 2 0.5 2.35 7.04006 0.426686 4.04664
718 2 0.5 2.35 5.61991 3.36996 8.33963
719 2 0.5 2.35 5.10194 4.0935 6.5529
720 2 0.5 2.35 1.65581 0.553242 3.75225
721 2 0.5 2.35 5.07478 2.1002 1.92014
722 1 1 2.35 2.13266 8.15073 2.64049
723 2 0.5 2.35 2.41542 7.02521 1.15795
724 2 0.5 2.35 7.16236 6.56372 0.759216
725 2 0.5 2.35 8.03184 5.90904 8.07374
726 2 0.5 2.35 0.578032 0.469988 4.96428
727 2 0.5 2.35 2.88035 0.541975 1.45528
728 2 0.5 2.35 4.67629 5.94953 0.174494
729 2 0.5 2.35 5.33346 6.53029 2.98854
730 2 0.5 2.35 3.27197 5.08855 6.97896
731 2 0.5 2.35 5.54217 3.71736 3.26118
732 2 0.5 2.35 4.76215 3.07526 6.13288
733 2 0.5 2.35 4.47918 4.75833 7.36799
734 2 0.5 2.35 3.15898 1.28513 2.56332
735 2 0.5 2.35 3.28941 2.65626 6.86013
736 2 0.5 2.35 7.65369 2.23223 1.19074
737 2 0.5 2.35 4.74257 7.78357 0.695821
738 2 0.5 2.35 0.468447 0.776387 1.65153
739 2 0.5 2.35 4.91182 6.49121 3.43199
740 2 0.5 2.35 4.6145 7.38042 4.37158
741 2 0.5 2.35 1.31571 8.07137 1.12212
742 2 0.5 2.35 2.62701 4.84518 6.47315
743 2 0.5 2.35 7.37099 1.57635 2.12417
744 2 0.5 2.35 4.04234 0.508587 2.10931
745 2 0.5 2.35 3.5259 4.63144 5.95825
746 1 1 2.35 1.87375 6.66313 4.71253
747 2 0.5 2.35 4.40952 7.58254 2.2386
748 2 0.5 2.35 3.53517 6.14038 7.86509
749 2 0.5 2.35 0.953963 1.45898 1.46144
750 2 0.5 2.35 8.08171 3.31072 0.742902
751 2 0.5 2.35 1.18209 0.54222 4.94547
752 2 0.5 2.35 5.72936 4.62641 7.6511
753 1 1 2.35 3.34191 8.20919 1.9426
754 2 0.5 2.35 3.6177 4.94356 1.45772
755 1 1 2.35 3.75681 3.43926 0.427519
756 2 0.5 2.35 0.671728 6.74157 8.36109
757 2 0.5 2.35 5.87862 5.92673 6.12265
758 2 0.5 2.35 7.13239 2.71813 7.00354
759 2 0.5 2.35 4.07283 0.059572 7.15339
760 2 0.5 2.35 8.0419 2.35778 3.12584
761 2 0.5 2.35 4.06154 7.26501 7.18591
762 1 1 2.35 0.70179 2.05689 2.47351
763 2 0.5 2.35 3.53841 7.13302 2.89377
764 2 0.5 2.35 1.09165 5.38828 8.09406
765 2 0.5 2.35 7.3548 5.95923 4.50995
766 2 0.5 2.35 7.79547 4.9756 3.33358
767 2 0.5 2.35 3.83818 6.23303 7.51833
768 2 0.5 2.35 0.838308 2.01853 3.16735
769 2 0.5 2.35 0.0566733 3.70757 0.926451
770 2 0.5 2.35 5.04186 0.814331 7.7488
771 2 0.5 2.35 7.06924 0.676333 7.66073
772 2 0.5 2.35 5.16511 2.25546 7.21738