LAMMPS Description

10 atoms

1 atom types
0 3.684031 xlo xhi
0 3.684031 ylo yhi
0 3.684031 zlo zhi

Masses

1 0.523599

PairIJ Coeffs

1 1 morse 5 33 1 1.4

Atoms

1 1 1.07617 0.046967 0.669601
2 1 2.9921 0.295413 3.24153
3 1 1.39253 2.73226 1.28437
4 1 3.39529 0.397798 3.10942
5 1 2.53706 2.05439 1.92316
6 1 1.62534 2.5096 2.97295
7 1 2.39506 1.52584 2.50717
8 1 3.12541 1.4159 3.65764
9 1 2.24607 3.59275 0.0068352
10 1 3.54457 0.855902 0.434266
