LAMMPS Description

50 atoms

1 atom types
0 3.968503 xlo xhi
0 3.968503 ylo yhi
0 3.968503 zlo zhi


Atoms # sphere

1 1 1 2.35 0.634981 2.18307 1.42983
2 1 1 2.35 0.987566 3.66779 1.48806
3 1 1 2.35 0.689331 2.61971 1.37944
4 1 1 2.35 3.5732 0.375736 0.348319
5 1 1 2.35 0.912328 0.948262 2.18657
6 1 1 2.35 2.53148 0.901502 1.13182
7 1 1 2.35 2.25531 1.93908 1.60092
8 1 1 2.35 0.123758 3.77829 1.82672
9 1 1 2.35 0.242679 1.5511 2.14996
10 1 1 2.35 3.95409 2.51221 2.20898
11 1 1 2.35 0.782605 1.90897 3.24766
12 1 1 2.35 0.091242 2.58659 3.33038
13 1 1 2.35 1.41026 3.65344 3.18248
14 1 1 2.35 0.687757 1.47061 0.938158
15 1 1 2.35 2.0504 1.24677 2.0789
16 1 1 2.35 0.850425 0.230597 2.76815
17 1 1 2.35 1.30417 3.4571 1.93031
18 1 1 2.35 2.55865 3.48038 3.43238
19 1 1 2.35 3.79432 1.90822 0.887895
20 1 1 2.35 0.419679 0.521007 1.27409
21 1 1 2.35 3.30155 3.29938 1.17879
22 1 1 2.35 0.42803 2.00531 2.27922
23 1 1 2.35 1.36526 0.127368 0.569087
24 1 1 2.35 3.89964 0.42102 3.49733
25 1 1 2.35 3.07441 0.296171 3.22163
26 1 1 2.35 1.95752 0.183483 1.89852
27 1 1 2.35 2.31439 3.62884 0.639422
28 1 1 2.35 3.0211 2.67807 3.14294
29 1 1 2.35 0.337101 3.17944 0.145026
30 1 1 2.35 0.0277967 1.00424 3.87188
31 1 1 2.35 1.17242 3.24596 0.912153
32 1 1 2.35 0.71885 3.55964 1.80656
33 1 1 2.35 0.448519 2.9574 2.5581
34 1 1 2.35 2.86091 1.91656 3.83429
35 1 1 2.35 0.640003 3.34741 1.65566
36 1 1 2.35 2.6254 1.22466 3.56339
37 1 1 2.35 1.81041 0.01175 0.61664
38 1 1 2.35 3.89553 0.495297 1.41208
39 1 1 2.35 1.40263 1.62339 0.395961
40 1 1 2.35 1.67754 0.976428 3.18447
41 1 1 2.35 2.11325 2.72223 1.32239
42 1 1 2.35 1.43271 1.98007 2.75215
43 1 1 2.35 3.59598 1.6113 1.50964
44 1 1 2.35 0.144559 0.0739616 2.93622
45 1 1 2.35 1.85437 0.754145 0.387471
46 1 1 2.35 1.19387 2.11673 2.74079
47 1 1 2.35 3.88374 1.82516 3.7075
48 1 1 2.35 0.92755 2.38402 3.35494
49 1 1 2.35 0.648633 2.19143 2.59508
50 1 1 2.35 0.743669 1.0987 1.18618
